Protein in INSANE! Membrane UpperLeaflet>POPC=1.0 LowerLeaflet>POPC=1.0
239272
    1AU     AUC    1  31.059  13.733   7.498
    1AU     AUC    2  31.307  13.730   7.339
    1AU     AUC    3  31.313  13.727   7.649
    1AU     AUC    4  30.808  13.739   7.346
    1AU     AUC    5  30.811  13.741   7.655
    1AU     AUC    6  30.911  13.986   7.501
    1AU     AUC    7  31.218  13.981   7.497
    1AU     AUC    8  30.897  13.483   7.501
    1AU     AUC    9  31.211  13.480   7.495
    1AU     AUC   10  31.060  13.578   7.748
    1AU     AUC   11  31.067  13.886   7.751
    1AU     AUC   12  31.053  13.580   7.245
    1AU     AUC   13  31.059  13.890   7.248
    1AU     AUC   14  31.546  13.729   7.184
    1AU     AUC   15  31.557  13.719   7.488
    1AU     AUC   16  31.559  13.718   7.792
    1AU     AUC   17  30.564  13.742   7.197
    1AU     AUC   18  30.562  13.750   7.499
    1AU     AUC   19  30.568  13.753   7.804
    1AU     AUC   20  30.769  14.233   7.503
    1AU     AUC   21  31.072  14.231   7.501
    1AU     AUC   22  31.371  14.221   7.497
    1AU     AUC   23  30.745  13.246   7.506
    1AU     AUC   24  31.047  13.236   7.509
    1AU     AUC   25  31.355  13.236   7.491
    1AU     AUC   26  31.056  13.427   7.989
    1AU     AUC   27  31.063  13.726   7.996
    1AU     AUC   28  31.076  14.031   7.995
    1AU     AUC   29  31.048  13.430   7.005
    1AU     AUC   30  31.054  13.731   6.999
    1AU     AUC   31  31.058  14.040   7.005
    1AU     AUC   32  31.309  13.568   7.897
    1AU     AUC   33  31.320  13.873   7.901
    1AU     AUC   34  31.297  13.580   7.090
    1AU     AUC   35  31.307  13.887   7.095
    1AU     AUC   36  30.806  13.589   7.901
    1AU     AUC   37  30.819  13.893   7.905
    1AU     AUC   38  30.805  13.581   7.098
    1AU     AUC   39  30.808  13.890   7.096
    1AU     AUC   40  31.464  13.976   7.342
    1AU     AUC   41  31.473  13.968   7.648
    1AU     AUC   42  30.661  13.992   7.345
    1AU     AUC   43  30.667  13.996   7.654
    1AU     AUC   44  31.450  13.473   7.330
    1AU     AUC   45  31.460  13.472   7.640
    1AU     AUC   46  30.653  13.490   7.349
    1AU     AUC   47  30.648  13.498   7.650
    1AU     AUC   48  30.924  14.139   7.754
    1AU     AUC   49  31.230  14.129   7.751
    1AU     AUC   50  30.893  13.336   7.747
    1AU     AUC   51  31.210  13.327   7.747
    1AU     AUC   52  30.911  14.140   7.247
    1AU     AUC   53  31.217  14.136   7.248
    1AU     AUC   54  30.896  13.329   7.258
    1AU     AUC   55  31.201  13.325   7.247
    1AU    AUSL   56  31.482  13.685   8.081
    1AU    AUSL   57  31.346  13.298   8.037
    1AU     AUL   58  31.478  13.393   8.361
    1AU       S   59  31.737  12.974   8.237
    1AU     LIG   60  31.808  12.654   8.557
    1AU     LIG   61  31.797  12.212   8.715
    1AU     LIG   62  31.869  11.794   8.914
    1AU     LIG   63  32.040  11.537   9.272
    1AU     LIG   64  32.173  11.327   9.684
    1AU     LIG   65  32.296  11.144  10.113
    1AU       S   66  31.623  13.853   8.645
    1AU     LIG   67  31.877  13.699   9.030
    1AU     LIG   68  31.961  13.340   9.363
    1AU     LIG   69  32.230  13.111   9.703
    1AU     LIG   70  32.639  13.136   9.961
    1AU     LIG   71  32.826  13.301  10.364
    1AU     LIG   72  33.167  13.195  10.669
    1AU    AUSL   73  31.196  13.555   8.207
    1AU    AUSL   74  30.932  13.872   8.207
    1AU     AUL   75  31.023  13.615   8.505
    1AU       S   76  31.441  13.703   8.752
    1AU     LIG   77  31.550  13.297   8.995
    1AU     LIG   78  31.585  12.981   9.348
    1AU     LIG   79  31.751  12.892   9.782
    1AU     LIG   80  31.861  12.785  10.234
    1AU     LIG   81  31.808  12.822  10.702
    1AU     LIG   82  31.915  12.707  11.143
    1AU       S   83  30.576  13.898   8.650
    1AU     LIG   84  30.442  13.900   9.105
    1AU     LIG   85  30.415  13.631   9.492
    1AU     LIG   86  30.331  13.486   9.923
    1AU     LIG   87  30.301  13.715  10.338
    1AU     LIG   88  30.257  14.060  10.660
    1AU     LIG   89  30.147  14.257  11.067
    1AU    AUSL   90  31.263  13.888   8.209
    1AU    AUSL   91  31.625  13.967   7.953
    1AU     AUL   92  31.712  13.675   8.200
    1AU       S   93  31.367  14.052   8.602
    1AU     LIG   94  31.545  14.310   8.979
    1AU     LIG   95  31.730  14.511   9.388
    1AU     LIG   96  31.669  14.537   9.884
    1AU     LIG   97  31.647  14.703  10.347
    1AU     LIG   98  31.644  14.810  10.823
    1AU     LIG   99  31.815  14.826  11.267
    1AU       S  100  32.018  14.081   8.155
    1AU     LIG  101  32.376  14.135   8.439
    1AU     LIG  102  32.453  14.222   8.899
    1AU     LIG  103  32.622  14.592   9.146
    1AU     LIG  104  32.962  14.725   9.470
    1AU     LIG  105  33.361  14.771   9.756
    1AU     LIG  106  33.817  14.886   9.892
    1AU    AUSL  107  31.494  13.785   6.898
    1AU    AUSL  108  31.343  14.139   6.943
    1AU     AUL  109  31.427  14.074   6.596
    1AU       S  110  31.611  13.632   6.372
    1AU     LIG  111  31.796  13.278   6.123
    1AU     LIG  112  31.984  13.133   5.712
    1AU     LIG  113  32.147  13.171   5.263
    1AU     LIG  114  32.537  13.117   4.965
    1AU     LIG  115  32.863  13.199   4.611
    1AU     LIG  116  33.152  13.382   4.270
    1AU       S  117  31.820  14.370   6.716
    1AU     LIG  118  32.061  14.619   6.406
    1AU     LIG  119  32.334  14.692   6.044
    1AU     LIG  120  32.520  14.840   5.643
    1AU     LIG  121  32.796  14.930   5.273
    1AU     LIG  122  32.809  15.233   4.916
    1AU     LIG  123  32.653  15.639   4.720
    1AU    AUSL  124  31.257  13.563   6.795
    1AU    AUSL  125  31.540  13.467   7.020
    1AU     AUL  126  31.754  13.618   6.846
    1AU       S  127  31.706  13.159   6.625
    1AU     LIG  128  31.870  12.816   6.328
    1AU     LIG  129  32.090  12.401   6.267
    1AU     LIG  130  32.363  12.073   6.051
    1AU     LIG  131  32.680  11.954   5.714
    1AU     LIG  132  33.098  12.037   5.468
    1AU     LIG  133  33.503  12.035   5.203
    1AU       S  134  31.341  13.431   6.405
    1AU     LIG  135  31.309  13.098   6.131
    1AU     LIG  136  31.483  13.013   5.714
    1AU     LIG  137  31.660  12.957   5.262
    1AU     LIG  138  31.687  12.727   4.829
    1AU     LIG  139  31.703  12.554   4.374
    1AU     LIG  140  31.946  12.626   3.958
    1AU    AUSL  141  31.188  13.885   6.804
    1AU    AUSL  142  30.912  13.565   6.777
    1AU     AUL  143  31.075  13.915   6.536
    1AU       S  144  30.872  13.313   6.411
    1AU     LIG  145  30.796  13.014   6.074
    1AU     LIG  146  30.611  12.925   5.652
    1AU     LIG  147  30.471  12.944   5.206
    1AU     LIG  148  30.333  12.894   4.766
    1AU     LIG  149  30.216  12.710   4.343
    1AU     LIG  150  29.968  12.555   3.946
    1AU       S  151  31.391  13.563   6.413
    1AU     LIG  152  31.431  13.541   5.898
    1AU     LIG  153  31.648  13.443   5.469
    1AU     LIG  154  31.763  13.446   4.994
    1AU     LIG  155  31.774  13.705   4.558
    1AU     LIG  156  31.840  14.034   4.181
    1AU     LIG  157  31.969  14.342   3.815
    1AU    AUSL  158  30.628  13.783   8.106
    1AU    AUSL  159  30.799  14.151   8.059
    1AU     AUL  160  30.909  14.119   8.361
    1AU       S  161  30.370  13.820   8.463
    1AU     LIG  162  30.076  13.679   8.827
    1AU     LIG  163  30.008  13.437   9.242
    1AU     LIG  164  29.917  13.265   9.686
    1AU     LIG  165  29.570  13.201  10.035
    1AU     LIG  166  29.226  13.350  10.352
    1AU     LIG  167  29.048  13.567  10.742
    1AU       S  168  30.444  14.298   8.372
    1AU     LIG  169  30.435  14.365   8.831
    1AU     LIG  170  30.326  14.749   9.083
    1AU     LIG  171  30.110  14.934   9.458
    1AU     LIG  172  29.841  15.078   9.820
    1AU     LIG  173  29.662  15.391  10.129
    1AU     LIG  174  29.436  15.732  10.389
    1AU    AUSL  175  30.860  13.545   8.192
    1AU    AUSL  176  30.522  13.501   7.947
    1AU     AUL  177  30.537  13.382   8.256
    1AU       S  178  30.217  12.983   8.081
    1AU     LIG  179  29.794  12.818   8.209
    1AU     LIG  180  29.434  12.580   8.403
    1AU     LIG  181  29.103  12.318   8.609
    1AU     LIG  182  28.885  12.065   8.933
    1AU     LIG  183  28.576  12.066   9.292
    1AU     LIG  184  28.269  12.244   9.617
    1AU       S  185  30.550  13.660   8.663
    1AU     LIG  186  30.480  13.376   9.039
    1AU     LIG  187  30.378  13.120   9.446
    1AU     LIG  188  30.310  12.949   9.885
    1AU     LIG  189  30.242  12.703  10.293
    1AU     LIG  190  30.193  12.612  10.764
    1AU     LIG  191  30.127  12.716  11.230
    1AU    AUSL  192  30.622  13.695   6.915
    1AU    AUSL  193  30.772  13.315   6.951
    1AU     AUL  194  30.487  13.446   6.751
    1AU       S  195  30.643  13.562   6.294
    1AU     LIG  196  30.425  13.350   5.922
    1AU     LIG  197  30.191  13.241   5.516
    1AU     LIG  198  29.928  13.061   5.147
    1AU     LIG  199  29.508  13.091   4.881
    1AU     LIG  200  29.251  13.352   4.555
    1AU     LIG  201  28.885  13.549   4.293
    1AU       S  202  30.394  12.938   6.808
    1AU     LIG  203  30.216  12.508   6.786
    1AU     LIG  204  29.838  12.357   6.544
    1AU     LIG  205  29.560  12.118   6.232
    1AU     LIG  206  29.418  11.933   5.815
    1AU     LIG  207  29.343  11.863   5.349
    1AU     LIG  208  29.311  11.716   4.897
    1AU    AUSL  209  30.857  13.898   6.807
    1AU    AUSL  210  30.528  14.000   7.033
    1AU     AUL  211  30.477  13.861   6.674
    1AU       S  212  30.288  14.317   6.713
    1AU     LIG  213  30.093  14.350   6.296
    1AU     LIG  214  29.970  14.641   5.943
    1AU     LIG  215  29.696  14.697   5.533
    1AU     LIG  216  29.293  14.729   5.245
    1AU     LIG  217  28.879  14.911   5.064
    1AU     LIG  218  28.532  15.167   4.839
    1AU       S  219  30.848  13.526   6.375
    1AU     LIG  220  30.926  13.466   5.885
    1AU     LIG  221  30.688  13.394   5.455
    1AU     LIG  222  30.464  13.443   5.023
    1AU     LIG  223  30.491  13.690   4.585
    1AU     LIG  224  30.431  13.985   4.190
    1AU     LIG  225  30.123  14.256   3.929
    1AU    AUSL  226  31.662  14.141   7.461
    1AU    AUSL  227  31.627  14.025   7.103
    1AU     AUL  228  31.704  14.462   7.371
    1AU       S  229  31.954  14.118   6.853
    1AU     LIG  230  32.273  14.159   6.521
    1AU     LIG  231  32.631  14.370   6.308
    1AU     LIG  232  32.848  14.540   5.911
    1AU     LIG  233  33.172  14.685   5.580
    1AU     LIG  234  33.576  14.827   5.368
    1AU     LIG  235  33.788  15.012   4.985
    1AU       S  236  32.172  14.245   7.371
    1AU     LIG  237  32.557  14.460   7.295
    1AU     LIG  238  33.019  14.451   7.349
    1AU     LIG  239  33.492  14.503   7.470
    1AU     LIG  240  33.907  14.800   7.525
    1AU     LIG  241  34.226  15.206   7.549
    1AU     LIG  242  34.299  15.690   7.677
    1AU    AUSL  243  31.783  13.845   7.331
    1AU    AUSL  244  31.755  13.567   7.621
    1AU     AUL  245  32.071  13.575   7.394
    1AU       S  246  32.212  14.043   7.273
    1AU     LIG  247  32.728  13.985   7.315
    1AU     LIG  248  33.251  13.996   7.315
    1AU     LIG  249  33.754  14.070   7.261
    1AU     LIG  250  34.265  14.065   7.202
    1AU     LIG  251  34.657  14.344   7.165
    1AU     LIG  252  34.960  14.643   6.986
    1AU       S  253  32.143  13.099   7.662
    1AU     LIG  254  32.557  12.890   7.812
    1AU     LIG  255  32.997  12.667   7.815
    1AU     LIG  256  33.434  12.446   7.776
    1AU     LIG  257  33.878  12.241   7.738
    1AU     LIG  258  34.337  12.305   7.821
    1AU     LIG  259  34.722  12.396   8.082
    1AU    AUSL  260  31.772  13.898   7.667
    1AU    AUSL  261  31.520  14.224   7.760
    1AU     AUL  262  31.806  14.301   7.724
    1AU       S  263  31.858  14.238   8.201
    1AU     LIG  264  32.118  14.580   8.352
    1AU     LIG  265  32.491  14.633   8.610
    1AU     LIG  266  32.752  14.963   8.792
    1AU     LIG  267  33.023  15.344   8.882
    1AU     LIG  268  33.260  15.737   9.010
    1AU     LIG  269  33.558  16.104   9.020
    1AU       S  270  32.232  14.037   7.623
    1AU     LIG  271  32.656  14.254   7.751
    1AU     LIG  272  33.141  14.196   7.779
    1AU     LIG  273  33.616  14.087   7.755
    1AU     LIG  274  34.102  14.134   7.683
    1AU     LIG  275  34.537  14.352   7.680
    1AU     LIG  276  34.848  14.581   7.972
    1AU    AUSL  277  30.476  14.196   7.533
    1AU    AUSL  278  30.512  14.032   7.898
    1AU     AUL  279  30.417  14.490   7.731
    1AU       S  280  30.211  14.161   8.151
    1AU     LIG  281  30.012  14.181   8.597
    1AU     LIG  282  29.935  14.421   9.008
    1AU     LIG  283  29.726  14.588   9.425
    1AU     LIG  284  29.455  14.730   9.804
    1AU     LIG  285  29.062  14.884  10.021
    1AU     LIG  286  28.644  15.012  10.216
    1AU       S  287  29.975  14.272   7.694
    1AU     LIG  288  29.632  14.588   7.656
    1AU     LIG  289  29.370  14.976   7.575
    1AU     LIG  290  29.017  15.284   7.675
    1AU     LIG  291  28.633  15.442   7.890
    1AU     LIG  292  28.210  15.534   7.739
    1AU     LIG  293  27.926  15.927   7.764
    1AU    AUSL  294  30.386  13.942   7.326
    1AU    AUSL  295  30.615  14.269   7.232
    1AU     AUL  296  30.260  14.249   7.230
    1AU       S  297  29.822  14.120   7.506
    1AU     LIG  298  29.495  14.352   7.203
    1AU     LIG  299  29.125  14.526   6.896
    1AU     LIG  300  28.705  14.668   6.640
    1AU     LIG  301  28.241  14.686   6.463
    1AU     LIG  302  27.860  14.932   6.570
    1AU     LIG  303  27.516  15.245   6.557
    1AU       S  304  30.346  14.551   6.827
    1AU     LIG  305  30.170  14.817   6.490
    1AU     LIG  306  30.241  15.080   6.109
    1AU     LIG  307  30.269  15.520   5.915
    1AU     LIG  308  29.979  15.892   5.837
    1AU     LIG  309  29.589  16.123   5.666
    1AU     LIG  310  29.290  16.435   5.465
    1AU    AUSL  311  30.340  13.901   7.646
    1AU    AUSL  312  30.327  13.614   7.340
    1AU     AUL  313  30.121  13.873   7.212
    1AU       S  314  29.905  13.362   7.415
    1AU     LIG  315  29.613  13.158   7.770
    1AU     LIG  316  29.114  13.178   7.786
    1AU     LIG  317  28.625  13.157   7.689
    1AU     LIG  318  28.320  13.086   7.314
    1AU     LIG  319  27.854  13.007   7.239
    1AU     LIG  320  27.416  12.994   7.059
    1AU       S  321  29.960  13.933   7.788
    1AU     LIG  322  29.620  14.194   8.043
    1AU     LIG  323  29.162  14.353   8.180
    1AU     LIG  324  28.674  14.444   8.300
    1AU     LIG  325  28.204  14.446   8.471
    1AU     LIG  326  27.763  14.636   8.618
    1AU     LIG  327  27.311  14.640   8.486
    1AU    AUSL  328  31.662  13.273   7.498
    1AU    AUSL  329  31.618  13.444   7.896
    1AU     AUL  330  31.965  13.539   7.800
    1AU       S  331  31.882  12.899   7.473
    1AU     LIG  332  32.148  12.586   7.709
    1AU     LIG  333  32.580  12.401   7.635
    1AU     LIG  334  33.022  12.237   7.516
    1AU     LIG  335  33.472  12.081   7.409
    1AU     LIG  336  33.863  11.814   7.438
    1AU     LIG  337  34.228  11.795   7.730
    1AU       S  338  31.854  13.133   8.095
    1AU     LIG  339  32.204  12.778   8.204
    1AU     LIG  340  32.218  12.355   8.431
    1AU     LIG  341  32.303  12.082   8.814
    1AU     LIG  342  32.631  12.008   9.163
    1AU     LIG  343  33.037  12.057   9.426
    1AU     LIG  344  33.427  12.055   9.705
    1AU    AUSL  345  31.723  13.525   7.292
    1AU    AUSL  346  31.489  13.191   7.213
    1AU     AUL  347  31.860  13.317   7.112
    1AU       S  348  31.991  13.068   7.513
    1AU     LIG  349  32.397  12.823   7.324
    1AU     LIG  350  32.869  12.703   7.317
    1AU     LIG  351  33.345  12.577   7.286
    1AU     LIG  352  33.830  12.469   7.285
    1AU     LIG  353  34.299  12.623   7.254
    1AU     LIG  354  34.631  12.760   6.944
    1AU       S  355  31.718  12.923   6.827
    1AU     LIG  356  31.788  12.477   6.708
    1AU     LIG  357  31.914  12.041   6.595
    1AU     LIG  358  32.132  11.708   6.361
    1AU     LIG  359  32.464  11.558   6.065
    1AU     LIG  360  32.882  11.334   6.020
    1AU     LIG  361  33.234  11.018   6.031
    1AU    AUSL  362  30.441  13.328   7.458
    1AU    AUSL  363  30.513  13.453   7.116
    1AU     AUL  364  30.220  13.538   7.043
    1AU       S  365  30.206  13.036   6.979
    1AU     LIG  366  29.826  12.832   6.849
    1AU     LIG  367  29.428  12.625   6.731
    1AU     LIG  368  29.166  12.387   6.420
    1AU     LIG  369  29.014  12.172   6.027
    1AU     LIG  370  28.732  12.147   5.630
    1AU     LIG  371  28.540  12.151   5.189
    1AU       S  372  30.059  13.204   7.423
    1AU     LIG  373  29.672  12.920   7.330
    1AU     LIG  374  29.193  12.919   7.346
    1AU     LIG  375  28.733  12.766   7.391
    1AU     LIG  376  28.293  12.682   7.609
    1AU     LIG  377  27.925  12.448   7.782
    1AU     LIG  378  27.600  12.109   7.700
    1AU    AUSL  379  30.371  13.581   7.666
    1AU    AUSL  380  30.573  13.213   7.747
    1AU     AUL  381  30.235  13.418   7.864
    1AU       S  382  30.305  12.881   7.727
    1AU     LIG  383  29.919  12.669   7.741
    1AU     LIG  384  29.620  12.388   7.951
    1AU     LIG  385  29.394  12.080   8.242
    1AU     LIG  386  29.152  11.794   8.558
    1AU     LIG  387  28.850  11.406   8.658
    1AU     LIG  388  28.478  11.079   8.730
    1AU       S  389  29.910  13.493   7.499
    1AU     LIG  390  29.408  13.407   7.377
    1AU     LIG  391  28.916  13.400   7.344
    1AU     LIG  392  28.448  13.569   7.425
    1AU     LIG  393  28.023  13.394   7.582
    1AU     LIG  394  27.836  12.993   7.768
    1AU     LIG  395  27.381  12.896   7.916
    1AU    AUSL  396  31.075  14.329   7.943
    1AU    AUSL  397  30.684  14.287   7.779
    1AU     AUL  398  30.790  14.533   8.023
    1AU       S  399  30.361  14.389   8.226
    1AU     LIG  400  30.216  14.733   8.553
    1AU     LIG  401  30.310  15.186   8.749
    1AU     LIG  402  30.250  15.663   8.894
    1AU     LIG  403  29.966  16.067   9.004
    1AU     LIG  404  29.582  16.337   9.143
    1AU     LIG  405  29.170  16.589   9.147
    1AU       S  406  31.145  14.884   8.030
    1AU     LIG  407  31.289  15.164   8.362
    1AU     LIG  408  31.278  15.536   8.606
    1AU     LIG  409  31.472  15.753   8.948
    1AU     LIG  410  31.354  16.074   9.257
    1AU     LIG  411  31.127  16.394   9.512
    1AU     LIG  412  31.065  16.661   9.901
    1AU    AUSL  413  30.938  14.451   7.651
    1AU    AUSL  414  31.216  14.467   7.350
    1AU     AUL  415  30.749  14.680   7.453
    1AU       S  416  31.061  14.932   7.763
    1AU     LIG  417  31.102  15.377   7.933
    1AU     LIG  418  31.076  15.789   8.191
    1AU     LIG  419  31.039  16.245   8.276
    1AU     LIG  420  30.968  16.690   8.462
    1AU     LIG  421  30.967  17.185   8.556
    1AU     LIG  422  30.812  17.653   8.443
    1AU       S  423  31.368  14.886   7.264
    1AU     LIG  424  31.668  15.131   7.020
    1AU     LIG  425  31.856  15.478   6.746
    1AU     LIG  426  31.765  15.953   6.588
    1AU     LIG  427  31.755  16.473   6.596
    1AU     LIG  428  31.896  16.983   6.607
    1AU     LIG  429  32.134  17.447   6.591
    1AU    AUSL  430  31.274  14.426   7.675
    1AU    AUSL  431  31.343  14.149   8.035
    1AU     AUL  432  31.426  14.476   8.014
    1AU       S  433  31.720  14.192   8.306
    1AU     LIG  434  31.960  14.241   8.705
    1AU     LIG  435  32.091  14.591   8.965
    1AU     LIG  436  32.195  14.765   9.379
    1AU     LIG  437  32.518  14.927   9.664
    1AU     LIG  438  32.619  15.279   9.959
    1AU     LIG  439  32.566  15.707  10.159
    1AU       S  440  31.320  14.881   7.742
    1AU     LIG  441  31.581  15.184   7.933
    1AU     LIG  442  31.535  15.573   8.142
    1AU     LIG  443  31.667  15.858   8.470
    1AU     LIG  444  31.736  16.317   8.563
    1AU     LIG  445  31.712  16.801   8.566
    1AU     LIG  446  31.601  17.264   8.636
    1AU    AUSL  447  31.062  13.141   7.965
    1AU    AUSL  448  31.475  13.167   7.750
    1AU     AUL  449  31.299  12.915   8.001
    1AU       S  450  30.904  12.601   8.062
    1AU     LIG  451  30.676  12.217   8.165
    1AU     LIG  452  30.810  11.784   8.204
    1AU     LIG  453  30.823  11.384   8.442
    1AU     LIG  454  30.922  11.036   8.739
    1AU     LIG  455  30.776  10.754   9.100
    1AU     LIG  456  30.635  10.351   9.327
    1AU       S  457  31.795  12.897   7.951
    1AU     LIG  458  31.824  12.435   8.092
    1AU     LIG  459  31.880  11.979   8.265
    1AU     LIG  460  31.996  11.555   8.469
    1AU     LIG  461  32.275  11.162   8.535
    1AU     LIG  462  32.616  10.854   8.685
    1AU     LIG  463  33.063  10.813   8.859
    1AU    AUSL  464  30.858  13.038   7.710
    1AU    AUSL  465  30.782  13.303   7.983
    1AU     AUL  466  30.765  13.078   8.140
    1AU       S  467  30.713  12.626   7.850
    1AU     LIG  468  30.414  12.331   7.733
    1AU     LIG  469  30.494  11.870   7.788
    1AU     LIG  470  30.611  11.411   7.911
    1AU     LIG  471  30.651  10.992   8.161
    1AU     LIG  472  30.599  10.585   8.419
    1AU     LIG  473  30.464  10.163   8.608
    1AU       S  474  30.354  12.923   7.917
    1AU     LIG  475  30.217  12.502   8.156
    1AU     LIG  476  29.872  12.303   8.394
    1AU     LIG  477  29.573  12.143   8.717
    1AU     LIG  478  29.362  11.881   9.037
    1AU     LIG  479  29.379  11.692   9.470
    1AU     LIG  480  29.462  11.546   9.914
    1AU    AUSL  481  31.181  13.053   7.664
    1AU    AUSL  482  30.893  12.997   7.378
    1AU     AUL  483  31.246  12.790   7.592
    1AU       S  484  30.627  12.633   7.372
    1AU     LIG  485  30.436  12.237   7.247
    1AU     LIG  486  30.503  11.799   7.274
    1AU     LIG  487  30.478  11.423   7.015
    1AU     LIG  488  30.529  10.998   6.790
    1AU     LIG  489  30.513  10.520   6.754
    1AU     LIG  490  30.429  10.042   6.771
    1AU       S  491  30.841  12.655   7.812
    1AU     LIG  492  30.910  12.188   7.710
    1AU     LIG  493  30.995  11.727   7.709
    1AU     LIG  494  31.115  11.397   8.018
    1AU     LIG  495  31.160  11.004   8.260
    1AU     LIG  496  31.095  10.535   8.283
    1AU     LIG  497  31.261  10.092   8.262
    1AU    AUSL  498  31.089  14.334   7.057
    1AU    AUSL  499  31.458  14.275   7.229
    1AU     AUL  500  31.378  14.478   6.950
    1AU       S  501  31.144  14.910   6.976
    1AU     LIG  502  31.336  15.210   6.648
    1AU     LIG  503  31.534  15.514   6.348
    1AU     LIG  504  31.472  15.738   5.942
    1AU     LIG  505  31.420  16.053   5.584
    1AU     LIG  506  31.233  16.318   5.225
    1AU     LIG  507  31.277  16.731   4.983
    1AU       S  508  31.889  14.301   6.948
    1AU     LIG  509  32.306  14.540   6.856
    1AU     LIG  510  32.523  14.837   6.520
    1AU     LIG  511  32.799  15.205   6.328
    1AU     LIG  512  33.085  15.632   6.242
    1AU     LIG  513  33.359  16.077   6.214
    1AU     LIG  514  33.568  16.479   5.996
    1AU    AUSL  515  30.898  14.406   7.325
    1AU    AUSL  516  30.807  14.188   6.958
    1AU     AUL  517  30.786  14.555   7.053
    1AU       S  518  31.162  14.870   7.263
    1AU     LIG  519  31.224  15.375   7.162
    1AU     LIG  520  31.393  15.686   6.828
    1AU     LIG  521  31.252  16.100   6.612
    1AU     LIG  522  31.064  16.554   6.513
    1AU     LIG  523  30.903  17.040   6.491
    1AU     LIG  524  30.720  17.500   6.483
    1AU       S  525  30.586  14.391   6.607
    1AU     LIG  526  30.514  14.613   6.170
    1AU     LIG  527  30.422  14.783   5.725
    1AU     LIG  528  30.355  15.055   5.332
    1AU     LIG  529  30.205  15.353   4.987
    1AU     LIG  530  29.878  15.529   4.692
    1AU     LIG  531  29.618  15.916   4.643
    1AU    AUSL  532  31.014  13.145   7.107
    1AU    AUSL  533  30.651  13.175   7.238
    1AU     AUL  534  30.877  12.981   6.923
    1AU       S  535  30.353  12.921   7.111
    1AU     LIG  536  30.086  12.614   7.267
    1AU     LIG  537  29.745  12.360   7.060
    1AU     LIG  538  29.444  12.102   6.758
    1AU     LIG  539  29.163  11.850   6.445
    1AU     LIG  540  28.933  11.423   6.347
    1AU     LIG  541  28.747  10.964   6.302
    1AU       S  542  30.774  12.654   7.266
    1AU     LIG  543  30.722  12.362   6.862
    1AU     LIG  544  30.731  11.861   6.800
    1AU     LIG  545  30.783  11.411   6.602
    1AU     LIG  546  30.796  11.045   6.282
    1AU     LIG  547  30.863  10.897   5.808
    1AU     LIG  548  30.888  10.675   5.368
    1AU    AUSL  549  31.226  13.031   7.339
    1AU    AUSL  550  31.277  13.266   6.949
    1AU     AUL  551  31.270  12.885   7.054
    1AU       S  552  30.929  12.565   7.296
    1AU     LIG  553  30.944  12.085   7.225
    1AU     LIG  554  30.979  11.620   7.199
    1AU     LIG  555  30.926  11.194   7.075
    1AU     LIG  556  31.040  10.921   6.738
    1AU     LIG  557  31.029  10.445   6.692
    1AU     LIG  558  31.267  10.035   6.699
    1AU       S  559  31.485  13.039   6.628
    1AU     LIG  560  31.390  12.661   6.415
    1AU     LIG  561  31.577  12.269   6.271
    1AU     LIG  562  31.853  11.995   6.043
    1AU     LIG  563  32.082  11.739   5.730
    1AU     LIG  564  32.118  11.631   5.256
    1AU     LIG  565  32.288  11.456   4.829
    2AU     AUC  566   2.621  43.739   7.501
    2AU     AUC  567   2.868  43.731   7.341
    2AU     AUC  568   2.874  43.726   7.651
    2AU     AUC  569   2.369  43.750   7.350
    2AU     AUC  570   2.373  43.752   7.659
    2AU     AUC  571   2.479  43.995   7.505
    2AU     AUC  572   2.786  43.983   7.501
    2AU     AUC  573   2.453  43.492   7.504
    2AU     AUC  574   2.767  43.482   7.496
    2AU     AUC  575   2.619  43.583   7.751
    2AU     AUC  576   2.633  43.892   7.754
    2AU     AUC  577   2.610  43.586   7.248
    2AU     AUC  578   2.623  43.896   7.252
    2AU     AUC  579   3.106  43.725   7.184
    2AU     AUC  580   3.118  43.713   7.490
    2AU     AUC  581   3.120  43.712   7.794
    2AU     AUC  582   2.125  43.759   7.202
    2AU     AUC  583   2.124  43.768   7.503
    2AU     AUC  584   2.131  43.770   7.809
    2AU     AUC  585   2.342  44.246   7.507
    2AU     AUC  586   2.646  44.237   7.505
    2AU     AUC  587   2.946  44.219   7.502
    2AU     AUC  588   2.295  43.259   7.510
    2AU     AUC  589   2.597  43.242   7.510
    2AU     AUC  590   2.905  43.235   7.491
    2AU     AUC  591   2.612  43.432   7.991
    2AU     AUC  592   2.626  43.731   7.999
    2AU     AUC  593   2.645  44.036   7.998
    2AU     AUC  594   2.600  43.437   7.007
    2AU     AUC  595   2.612  43.737   7.002
    2AU     AUC  596   2.625  44.046   7.010
    2AU     AUC  597   2.868  43.568   7.899
    2AU     AUC  598   2.885  43.873   7.903
    2AU     AUC  599   2.853  43.583   7.090
    2AU     AUC  600   2.870  43.889   7.098
    2AU     AUC  601   2.365  43.599   7.904
    2AU     AUC  602   2.385  43.903   7.909
    2AU     AUC  603   2.361  43.592   7.103
    2AU     AUC  604   2.373  43.901   7.101
    2AU     AUC  605   3.032  43.972   7.346
    2AU     AUC  606   3.040  43.964   7.651
    2AU     AUC  607   2.229  44.007   7.348
    2AU     AUC  608   2.235  44.012   7.658
    2AU     AUC  609   3.004  43.471   7.329
    2AU     AUC  610   3.015  43.468   7.641
    2AU     AUC  611   2.208  43.505   7.355
    2AU     AUC  612   2.204  43.513   7.655
    2AU     AUC  613   2.495  44.148   7.758
    2AU     AUC  614   2.801  44.131   7.754
    2AU     AUC  615   2.446  43.345   7.749
    2AU     AUC  616   2.763  43.329   7.749
    2AU     AUC  617   2.483  44.150   7.251
    2AU     AUC  618   2.790  44.139   7.252
    2AU     AUC  619   2.447  43.338   7.261
    2AU     AUC  620   2.752  43.329   7.248
    2AU    AUSL  621   3.044  43.681   8.082
    2AU    AUSL  622   2.899  43.297   8.039
    2AU     AUL  623   3.029  43.391   8.366
    2AU       S  624   3.280  42.973   8.236
    2AU     LIG  625   3.385  42.752   8.605
    2AU     LIG  626   3.370  42.316   8.741
    2AU     LIG  627   3.577  42.020   9.021
    2AU     LIG  628   3.796  42.001   9.411
    2AU     LIG  629   3.790  42.006   9.895
    2AU     LIG  630   3.730  41.671  10.227
    2AU       S  631   3.190  43.851   8.644
    2AU     LIG  632   3.477  43.744   8.999
    2AU     LIG  633   3.558  43.410   9.354
    2AU     LIG  634   3.748  43.124   9.706
    2AU     LIG  635   4.125  43.060  10.023
    2AU     LIG  636   4.473  43.075  10.368
    2AU     LIG  637   4.579  43.192  10.819
    2AU    AUSL  638   2.755  43.558   8.208
    2AU    AUSL  639   2.498  43.880   8.212
    2AU     AUL  640   2.587  43.612   8.509
    2AU       S  641   3.008  43.701   8.756
    2AU     LIG  642   3.191  43.302   8.985
    2AU     LIG  643   3.294  42.959   9.325
    2AU     LIG  644   3.328  42.737   9.761
    2AU     LIG  645   3.247  42.669  10.236
    2AU     LIG  646   3.373  42.802  10.683
    2AU     LIG  647   3.642  42.728  11.068
    2AU       S  648   2.154  43.919   8.659
    2AU     LIG  649   1.980  43.921   9.105
    2AU     LIG  650   1.938  43.653   9.501
    2AU     LIG  651   1.855  43.555   9.952
    2AU     LIG  652   1.778  43.808  10.351
    2AU     LIG  653   1.695  44.204  10.615
    2AU     LIG  654   1.693  44.494  10.993
    2AU    AUSL  655   2.830  43.889   8.211
    2AU    AUSL  656   3.193  43.962   7.955
    2AU     AUL  657   3.272  43.665   8.201
    2AU       S  658   2.934  44.047   8.601
    2AU     LIG  659   2.980  44.365   8.950
    2AU     LIG  660   3.245  44.556   9.306
    2AU     LIG  661   3.280  44.665   9.784
    2AU     LIG  662   3.339  44.805  10.245
    2AU     LIG  663   3.355  44.652  10.690
    2AU     LIG  664   3.570  44.416  11.044
    2AU       S  665   3.576  44.068   8.168
    2AU     LIG  666   3.773  43.976   8.563
    2AU     LIG  667   4.046  44.238   8.838
    2AU     LIG  668   4.390  44.500   9.029
    2AU     LIG  669   4.590  44.791   9.333
    2AU     LIG  670   4.952  44.892   9.625
    2AU     LIG  671   5.236   0.039   9.983
    2AU    AUSL  672   3.049  43.791   6.895
    2AU    AUSL  673   2.915  44.136   6.952
    2AU     AUL  674   2.930  44.124   6.605
    2AU       S  675   3.170  43.720   6.376
    2AU     LIG  676   3.350  43.324   6.167
    2AU     LIG  677   3.504  43.250   5.726
    2AU     LIG  678   3.659  43.294   5.271
    2AU     LIG  679   3.992  43.258   4.908
    2AU     LIG  680   4.373  43.187   4.591
    2AU     LIG  681   4.692  43.216   4.218
    2AU       S  682   3.397  44.277   6.678
    2AU     LIG  683   3.608  44.449   6.291
    2AU     LIG  684   3.829  44.597   5.907
    2AU     LIG  685   4.059  44.808   5.563
    2AU     LIG  686   4.132   0.096   5.209
    2AU     LIG  687   4.207   0.410   4.890
    2AU     LIG  688   4.440   0.784   4.737
    2AU    AUSL  689   2.810  43.570   6.794
    2AU    AUSL  690   3.092  43.467   7.019
    2AU     AUL  691   3.300  43.588   6.833
    2AU       S  692   3.268  43.116   6.641
    2AU     LIG  693   3.573  42.743   6.475
    2AU     LIG  694   3.831  42.334   6.361
    2AU     LIG  695   4.140  42.085   6.077
    2AU     LIG  696   4.515  42.099   5.779
    2AU     LIG  697   4.771  41.853   5.475
    2AU     LIG  698   4.973  41.725   5.058
    2AU       S  699   2.927  43.459   6.432
    2AU     LIG  700   2.851  43.168   6.115
    2AU     LIG  701   3.012  43.095   5.697
    2AU     LIG  702   3.201  43.035   5.264
    2AU     LIG  703   3.264  42.913   4.807
    2AU     LIG  704   3.330  42.641   4.410
    2AU     LIG  705   3.530  42.578   3.975
    2AU    AUSL  706   2.744  43.892   6.806
    2AU    AUSL  707   2.466  43.572   6.782
    2AU     AUL  708   2.613  43.925   6.541
    2AU       S  709   2.450  43.330   6.416
    2AU     LIG  710   2.339  43.072   6.050
    2AU     LIG  711   2.138  43.029   5.624
    2AU     LIG  712   1.899  42.989   5.212
    2AU     LIG  713   1.768  42.776   4.803
    2AU     LIG  714   1.833  42.660   4.332
    2AU     LIG  715   1.805  42.754   3.873
    2AU       S  716   2.947  43.610   6.385
    2AU     LIG  717   3.025  43.597   5.888
    2AU     LIG  718   3.184  43.527   5.428
    2AU     LIG  719   3.278  43.467   4.947
    2AU     LIG  720   3.336  43.685   4.507
    2AU     LIG  721   3.415  43.862   4.055
    2AU     LIG  722   3.621  44.055   3.655
    2AU    AUSL  723   2.193  43.798   8.110
    2AU    AUSL  724   2.370  44.162   8.061
    2AU     AUL  725   2.484  44.132   8.358
    2AU       S  726   1.944  43.842   8.465
    2AU     LIG  727   1.631  43.707   8.799
    2AU     LIG  728   1.550  43.485   9.209
    2AU     LIG  729   1.482  43.345   9.658
    2AU     LIG  730   1.227  43.249  10.061
    2AU     LIG  731   0.849  43.174  10.378
    2AU     LIG  732   0.626  43.301  10.795
    2AU       S  733   2.023  44.321   8.386
    2AU     LIG  734   2.009  44.385   8.846
    2AU     LIG  735   1.918  44.745   9.138
    2AU     LIG  736   1.679   0.047   9.420
    2AU     LIG  737   1.628   0.234   9.860
    2AU     LIG  738   1.395   0.462  10.215
    2AU     LIG  739   1.247   0.874  10.409
    2AU    AUSL  740   2.420  43.555   8.195
    2AU    AUSL  741   2.081  43.516   7.951
    2AU     AUL  742   2.098  43.397   8.263
    2AU       S  743   1.786  42.996   8.096
    2AU     LIG  744   1.350  42.943   8.021
    2AU     LIG  745   1.101  42.561   8.110
    2AU     LIG  746   0.852  42.227   8.334
    2AU     LIG  747   0.561  42.055   8.688
    2AU     LIG  748   0.338  41.969   9.085
    2AU     LIG  749   0.155  42.020   9.512
    2AU       S  750   2.115  43.687   8.663
    2AU     LIG  751   2.030  43.410   9.031
    2AU     LIG  752   1.909  43.147   9.414
    2AU     LIG  753   1.837  43.022   9.868
    2AU     LIG  754   1.725  42.751  10.248
    2AU     LIG  755   1.656  42.663  10.711
    2AU     LIG  756   1.660  42.569  11.176
    2AU    AUSL  757   2.176  43.705   6.920
    2AU    AUSL  758   2.320  43.326   6.959
    2AU     AUL  759   2.047  43.439   6.752
    2AU       S  760   2.212  43.599   6.307
    2AU     LIG  761   1.992  43.440   5.929
    2AU     LIG  762   1.747  43.371   5.530
    2AU     LIG  763   1.401  43.183   5.262
    2AU     LIG  764   0.998  43.204   5.006
    2AU     LIG  765   0.696  43.301   4.666
    2AU     LIG  766   0.493  43.133   4.285
    2AU       S  767   1.916  42.931   6.841
    2AU     LIG  768   1.684  42.482   6.791
    2AU     LIG  769   1.433  42.083   6.675
    2AU     LIG  770   1.099  41.801   6.479
    2AU     LIG  771   0.773  41.665   6.158
    2AU     LIG  772   0.612  41.628   5.709
    2AU     LIG  773   0.647  41.453   5.262
    2AU    AUSL  774   2.412  43.905   6.817
    2AU    AUSL  775   2.100  44.018   7.036
    2AU     AUL  776   2.014  43.865   6.695
    2AU       S  777   1.895  44.345   6.694
    2AU     LIG  778   1.678  44.395   6.279
    2AU     LIG  779   1.433  44.550   5.901
    2AU     LIG  780   1.086  44.541   5.572
    2AU     LIG  781   0.816  44.678   5.207
    2AU     LIG  782   0.632   0.025   4.936
    2AU     LIG  783   0.310   0.236   4.637
    2AU       S  784   2.413  43.522   6.383
    2AU     LIG  785   2.509  43.527   5.901
    2AU     LIG  786   2.255  43.513   5.481
    2AU     LIG  787   1.987  43.542   5.072
    2AU     LIG  788   1.940  43.758   4.619
    2AU     LIG  789   1.926  43.981   4.171
    2AU     LIG  790   1.930  44.234   3.752
    2AU    AUSL  791   3.236  44.132   7.467
    2AU    AUSL  792   3.198  44.014   7.104
    2AU     AUL  793   3.312  44.448   7.341
    2AU       S  794   3.532  44.064   6.843
    2AU     LIG  795   3.832  44.028   6.505
    2AU     LIG  796   4.110  44.287   6.238
    2AU     LIG  797   4.345  44.596   5.954
    2AU     LIG  798   4.568  44.693   5.538
    2AU     LIG  799   4.936  44.850   5.283
    2AU     LIG  800   5.273   0.113   5.089
    2AU       S  801   3.766  44.205   7.383
    2AU     LIG  802   4.242  44.294   7.412
    2AU     LIG  803   4.718  44.314   7.542
    2AU     LIG  804   5.177  44.494   7.548
    2AU     LIG  805   5.649  44.647   7.527
    2AU     LIG  806   6.001  44.986   7.574
    2AU     LIG  807   6.160   0.458   7.534
    2AU    AUSL  808   3.345  43.832   7.336
    2AU    AUSL  809   3.311  43.553   7.620
    2AU     AUL  810   3.625  43.541   7.390
    2AU       S  811   3.752  44.012   7.283
    2AU     LIG  812   4.079  44.072   6.975
    2AU     LIG  813   4.550  44.082   7.041
    2AU     LIG  814   4.993  44.187   7.128
    2AU     LIG  815   5.361  44.332   6.863
    2AU     LIG  816   5.821  44.232   6.912
    2AU     LIG  817   6.170  44.469   6.731
    2AU       S  818   3.679  43.057   7.637
    2AU     LIG  819   4.062  42.835   7.787
    2AU     LIG  820   4.459  42.593   7.777
    2AU     LIG  821   4.811  42.338   7.950
    2AU     LIG  822   5.289  42.323   7.893
    2AU     LIG  823   5.746  42.236   8.021
    2AU     LIG  824   6.168  42.430   8.184
    2AU    AUSL  825   3.339  43.882   7.671
    2AU    AUSL  826   3.095  44.224   7.763
    2AU     AUL  827   3.393  44.282   7.725
    2AU       S  828   3.433  44.254   8.211
    2AU     LIG  829   3.790  44.486   8.441
    2AU     LIG  830   4.079  44.760   8.712
    2AU     LIG  831   4.382   0.066   8.932
    2AU     LIG  832   4.549   0.526   8.998
    2AU     LIG  833   4.708   0.991   9.047
    2AU     LIG  834   4.900   1.433   8.970
    2AU       S  835   3.804  43.985   7.633
    2AU     LIG  836   4.289  43.912   7.741
    2AU     LIG  837   4.738  43.974   7.931
    2AU     LIG  838   5.091  44.280   8.021
    2AU     LIG  839   5.564  44.328   7.924
    2AU     LIG  840   5.976  44.592   7.945
    2AU     LIG  841   6.470  44.540   7.991
    2AU    AUSL  842   2.047  44.218   7.532
    2AU    AUSL  843   2.080  44.047   7.905
    2AU     AUL  844   1.981  44.499   7.749
    2AU       S  845   1.783  44.188   8.164
    2AU     LIG  846   1.587  44.203   8.608
    2AU     LIG  847   1.500  44.489   8.987
    2AU     LIG  848   1.282  44.703   9.363
    2AU     LIG  849   0.931  44.665   9.710
    2AU     LIG  850   0.546  44.724  10.008
    2AU     LIG  851   0.073  44.716  10.132
    2AU       S  852   1.536  44.302   7.656
    2AU     LIG  853   1.182  44.616   7.659
    2AU     LIG  854   0.908  44.997   7.546
    2AU     LIG  855   0.526   0.297   7.563
    2AU     LIG  856   0.082   0.470   7.637
    2AU     LIG  857  44.699   0.658   7.815
    2AU     LIG  858  44.250   0.660   7.662
    2AU    AUSL  859   1.954  43.965   7.328
    2AU    AUSL  860   2.191  44.285   7.234
    2AU     AUL  861   1.837  44.278   7.218
    2AU       S  862   1.395  44.087   7.517
    2AU     LIG  863   1.099  44.328   7.233
    2AU     LIG  864   0.720  44.536   7.010
    2AU     LIG  865   0.259  44.682   6.922
    2AU     LIG  866  44.846  44.883   6.790
    2AU     LIG  867  44.432  44.996   6.651
    2AU     LIG  868  43.984  44.984   6.778
    2AU       S  869   1.937  44.573   6.806
    2AU     LIG  870   1.766  44.870   6.463
    2AU     LIG  871   1.752   0.261   6.176
    2AU     LIG  872   1.732   0.755   6.114
    2AU     LIG  873   1.532   1.184   6.009
    2AU     LIG  874   1.151   1.283   5.751
    2AU     LIG  875   0.693   1.369   5.745
    2AU    AUSL  876   1.909  43.927   7.647
    2AU    AUSL  877   1.885  43.640   7.347
    2AU     AUL  878   1.707  43.908   7.190
    2AU       S  879   1.453  43.430   7.428
    2AU     LIG  880   1.101  43.340   7.775
    2AU     LIG  881   0.628  43.277   7.717
    2AU     LIG  882   0.264  43.070   7.475
    2AU     LIG  883  44.813  43.062   7.265
    2AU     LIG  884  44.323  42.970   7.236
    2AU     LIG  885  44.045  42.639   7.046
    2AU       S  886   1.536  43.971   7.801
    2AU     LIG  887   1.219  44.253   8.048
    2AU     LIG  888   0.784  44.468   8.153
    2AU     LIG  889   0.314  44.599   8.274
    2AU     LIG  890  44.868  44.681   8.444
    2AU     LIG  891  44.392  44.770   8.414
    2AU     LIG  892  43.920  44.859   8.428
    2AU    AUSL  893   3.210  43.261   7.495
    2AU    AUSL  894   3.174  43.437   7.898
    2AU     AUL  895   3.529  43.504   7.787
    2AU       S  896   3.405  42.868   7.468
    2AU     LIG  897   3.641  42.549   7.740
    2AU     LIG  898   4.039  42.300   7.681
    2AU     LIG  899   4.465  42.105   7.600
    2AU     LIG  900   4.798  41.845   7.420
    2AU     LIG  901   5.131  41.577   7.434
    2AU     LIG  902   5.523  41.546   7.578
    2AU       S  903   3.399  43.125   8.101
    2AU     LIG  904   3.761  42.812   8.217
    2AU     LIG  905   3.813  42.451   8.505
    2AU     LIG  906   4.004  42.120   8.772
    2AU     LIG  907   4.366  42.009   9.053
    2AU     LIG  908   4.785  41.906   9.244
    2AU     LIG  909   5.009  41.875   9.660
    2AU    AUSL  910   3.275  43.514   7.292
    2AU    AUSL  911   3.036  43.190   7.210
    2AU     AUL  912   3.412  43.316   7.111
    2AU       S  913   3.525  43.028   7.490
    2AU     LIG  914   3.895  42.691   7.321
    2AU     LIG  915   4.377  42.533   7.265
    2AU     LIG  916   4.849  42.584   7.050
    2AU     LIG  917   5.368  42.622   7.137
    2AU     LIG  918   5.908  42.593   7.039
    2AU     LIG  919   6.308  42.291   6.893
    2AU       S  920   3.273  42.898   6.863
    2AU     LIG  921   3.560  42.513   6.943
    2AU     LIG  922   3.761  42.087   6.819
    2AU     LIG  923   3.879  41.815   6.445
    2AU     LIG  924   4.150  41.448   6.395
    2AU     LIG  925   4.598  41.280   6.353
    2AU     LIG  926   4.892  41.042   6.048
    2AU    AUSL  927   1.992  43.350   7.466
    2AU    AUSL  928   2.064  43.469   7.124
    2AU     AUL  929   1.781  43.559   7.044
    2AU       S  930   1.739  43.058   6.998
    2AU     LIG  931   1.342  42.862   6.848
    2AU     LIG  932   1.152  42.513   6.578
    2AU     LIG  933   0.813  42.230   6.413
    2AU     LIG  934   0.409  42.117   6.240
    2AU     LIG  935   0.204  42.007   5.849
    2AU     LIG  936   0.266  41.940   5.387
    2AU       S  937   1.597  43.255   7.430
    2AU     LIG  938   1.231  42.964   7.462
    2AU     LIG  939   0.782  42.829   7.525
    2AU     LIG  940   0.412  42.606   7.732
    2AU     LIG  941   0.006  42.322   7.716
    2AU     LIG  942  44.566  42.186   7.688
    2AU     LIG  943  44.278  41.897   7.515
    2AU    AUSL  944   1.929  43.606   7.674
    2AU    AUSL  945   2.124  43.226   7.751
    2AU     AUL  946   1.790  43.430   7.872
    2AU       S  947   1.824  42.897   7.728
    2AU     LIG  948   1.451  42.560   7.721
    2AU     LIG  949   1.335  42.146   7.907
    2AU     LIG  950   1.160  41.802   8.158
    2AU     LIG  951   0.807  41.714   8.410
    2AU     LIG  952   0.408  41.558   8.566
    2AU     LIG  953   0.174  41.510   8.954
    2AU       S  954   1.475  43.556   7.505
    2AU     LIG  955   0.980  43.501   7.314
    2AU     LIG  956   0.499  43.496   7.266
    2AU     LIG  957   0.049  43.524   7.429
    2AU     LIG  958  44.756  43.286   7.707
    2AU     LIG  959  44.389  42.969   7.768
    2AU     LIG  960  44.017  42.794   8.008
    2AU    AUSL  961   2.650  44.335   7.948
    2AU    AUSL  962   2.256  44.299   7.781
    2AU     AUL  963   2.361  44.546   8.017
    2AU       S  964   1.945  44.401   8.245
    2AU     LIG  965   1.727  44.712   8.571
    2AU     LIG  966   1.559   0.039   8.903
    2AU     LIG  967   1.474   0.511   9.065
    2AU     LIG  968   1.332   1.009   9.099
    2AU     LIG  969   1.096   1.465   9.103
    2AU     LIG  970   0.684   1.740   9.073
    2AU       S  971   2.726  44.884   8.042
    2AU     LIG  972   2.899   0.110   8.395
    2AU     LIG  973   2.954   0.529   8.569
    2AU     LIG  974   2.998   0.807   8.950
    2AU     LIG  975   3.030   1.022   9.379
    2AU     LIG  976   3.040   1.408   9.651
    2AU     LIG  977   2.998   1.842   9.829
    2AU    AUSL  978   2.515  44.458   7.656
    2AU    AUSL  979   2.798  44.468   7.354
    2AU     AUL  980   2.334  44.691   7.460
    2AU       S  981   2.642  44.946   7.774
    2AU     LIG  982   2.645   0.385   8.030
    2AU     LIG  983   2.655   0.823   8.236
    2AU     LIG  984   2.466   1.276   8.308
    2AU     LIG  985   2.641   1.695   8.430
    2AU     LIG  986   2.528   2.137   8.539
    2AU     LIG  987   2.360   2.502   8.772
    2AU       S  988   2.947  44.879   7.274
    2AU     LIG  989   3.206   0.217   7.108
    2AU     LIG  990   3.226   0.626   6.874
    2AU     LIG  991   3.475   1.012   6.713
    2AU     LIG  992   3.738   1.419   6.639
    2AU     LIG  993   3.853   1.852   6.476
    2AU     LIG  994   3.539   2.192   6.339
    2AU    AUSL  995   2.850  44.427   7.679
    2AU    AUSL  996   2.915  44.150   8.037
    2AU     AUL  997   3.004  44.477   8.013
    2AU       S  998   3.290  44.186   8.308
    2AU     LIG  999   3.436  44.295   8.753
    2AU     LIG 1000   3.702  44.575   9.021
    2AU     LIG 1001   4.047  44.818   9.248
    2AU     LIG 1002   4.235   0.072   9.609
    2AU     LIG 1003   4.188   0.301  10.037
    2AU     LIG 1004   4.091   0.597  10.410
    2AU       S 1005   2.898  44.890   7.754
    2AU     LIG 1006   3.130   0.248   7.954
    2AU     LIG 1007   3.255   0.668   8.157
    2AU     LIG 1008   3.612   1.018   8.196
    2AU     LIG 1009   3.877   1.433   8.195
    2AU     LIG 1010   3.925   1.892   8.275
    2AU     LIG 1011   3.965   2.366   8.379
    2AU    AUSL 1012   2.612  43.145   7.964
    2AU    AUSL 1013   3.024  43.164   7.752
    2AU     AUL 1014   2.842  42.911   8.000
    2AU       S 1015   2.439  42.595   8.058
    2AU     LIG 1016   2.124  42.221   8.172
    2AU     LIG 1017   1.894  41.797   8.291
    2AU     LIG 1018   1.833  41.317   8.392
    2AU     LIG 1019   2.002  40.879   8.532
    2AU     LIG 1020   2.070  40.606   8.933
    2AU     LIG 1021   2.252  40.414   9.326
    2AU       S 1022   3.340  42.894   7.955
    2AU     LIG 1023   3.388  42.455   8.182
    2AU     LIG 1024   3.551  42.034   8.346
    2AU     LIG 1025   3.710  41.689   8.603
    2AU     LIG 1026   3.860  41.258   8.771
    2AU     LIG 1027   4.177  41.101   9.045
    2AU     LIG 1028   4.658  41.038   9.114
    2AU    AUSL 1029   2.404  43.046   7.710
    2AU    AUSL 1030   2.335  43.312   7.988
    2AU     AUL 1031   2.318  43.080   8.136
    2AU       S 1032   2.252  42.638   7.838
    2AU     LIG 1033   1.913  42.381   7.739
    2AU     LIG 1034   1.792  41.951   7.810
    2AU     LIG 1035   1.765  41.472   7.901
    2AU     LIG 1036   1.635  41.025   8.005
    2AU     LIG 1037   1.809  40.594   8.137
    2AU     LIG 1038   1.921  40.355   8.515
    2AU       S 1039   1.897  42.932   7.922
    2AU     LIG 1040   1.676  42.516   8.168
    2AU     LIG 1041   1.386  42.207   8.413
    2AU     LIG 1042   1.089  42.008   8.735
    2AU     LIG 1043   0.848  42.046   9.123
    2AU     LIG 1044   0.651  41.840   9.482
    2AU     LIG 1045   0.525  41.570   9.846
    2AU    AUSL 1046   2.728  43.056   7.663
    2AU    AUSL 1047   2.439  43.007   7.379
    2AU     AUL 1048   2.789  42.794   7.592
    2AU       S 1049   2.177  42.638   7.363
    2AU     LIG 1050   1.913  42.296   7.253
    2AU     LIG 1051   1.896  41.867   7.319
    2AU     LIG 1052   1.799  41.471   7.153
    2AU     LIG 1053   1.744  41.121   6.885
    2AU     LIG 1054   1.889  40.711   6.767
    2AU     LIG 1055   1.768  40.290   6.644
    2AU       S 1056   2.388  42.647   7.807
    2AU     LIG 1057   2.362  42.155   7.720
    2AU     LIG 1058   2.239  41.708   7.893
    2AU     LIG 1059   2.214  41.226   8.047
    2AU     LIG 1060   2.421  40.790   8.179
    2AU     LIG 1061   2.815  40.504   8.281
    2AU     LIG 1062   3.008  40.426   8.718
    2AU    AUSL 1063   2.668  44.342   7.059
    2AU    AUSL 1064   3.038  44.269   7.236
    2AU     AUL 1065   2.988  44.472   6.963
    2AU       S 1066   2.735  44.897   6.973
    2AU     LIG 1067   2.894   0.242   6.698
    2AU     LIG 1068   2.993   0.589   6.406
    2AU     LIG 1069   3.091   0.734   5.966
    2AU     LIG 1070   3.159   1.036   5.609
    2AU     LIG 1071   3.123   1.429   5.358
    2AU     LIG 1072   2.966   1.812   5.152
    2AU       S 1073   3.473  44.250   6.924
    2AU     LIG 1074   3.867  44.491   6.730
    2AU     LIG 1075   4.046  44.780   6.361
    2AU     LIG 1076   4.309   0.123   6.103
    2AU     LIG 1077   4.533   0.589   6.053
    2AU     LIG 1078   4.794   1.031   6.020
    2AU     LIG 1079   5.046   1.475   6.011
    2AU    AUSL 1080   2.478  44.415   7.329
    2AU    AUSL 1081   2.383  44.201   6.962
    2AU     AUL 1082   2.359  44.569   7.065
    2AU       S 1083   2.748  44.868   7.266
    2AU     LIG 1084   2.719   0.362   7.170
    2AU     LIG 1085   2.699   0.731   6.845
    2AU     LIG 1086   2.472   1.161   6.711
    2AU     LIG 1087   2.479   1.598   6.511
    2AU     LIG 1088   2.493   2.049   6.342
    2AU     LIG 1089   2.136   2.346   6.344
    2AU       S 1090   2.191  44.394   6.608
    2AU     LIG 1091   2.128  44.628   6.198
    2AU     LIG 1092   1.860  44.840   5.856
    2AU     LIG 1093   1.673  44.961   5.412
    2AU     LIG 1094   1.500   0.198   5.005
    2AU     LIG 1095   1.277   0.553   4.749
    2AU     LIG 1096   0.997   0.922   4.611
    2AU    AUSL 1097   2.564  43.153   7.107
    2AU    AUSL 1098   2.195  43.188   7.247
    2AU     AUL 1099   2.405  42.995   6.925
    2AU       S 1100   1.881  42.936   7.142
    2AU     LIG 1101   1.561  42.645   7.250
    2AU     LIG 1102   1.215  42.374   7.059
    2AU     LIG 1103   0.886  42.055   6.886
    2AU     LIG 1104   0.562  41.798   6.618
    2AU     LIG 1105   0.265  41.608   6.256
    2AU     LIG 1106   0.076  41.162   6.133
    2AU       S 1107   2.325  42.671   7.278
    2AU     LIG 1108   2.188  42.435   6.869
    2AU     LIG 1109   1.945  42.007   6.816
    2AU     LIG 1110   1.924  41.544   6.652
    2AU     LIG 1111   1.958  41.107   6.426
    2AU     LIG 1112   1.886  40.864   6.014
    2AU     LIG 1113   2.063  40.903   5.568
    2AU    AUSL 1114   2.774  43.033   7.337
    2AU    AUSL 1115   2.826  43.271   6.947
    2AU     AUL 1116   2.805  42.893   7.042
    2AU       S 1117   2.476  42.570   7.286
    2AU     LIG 1118   2.373  42.099   7.209
    2AU     LIG 1119   2.273  41.657   7.035
    2AU     LIG 1120   2.234  41.181   6.964
    2AU     LIG 1121   2.466  40.763   6.929
    2AU     LIG 1122   2.863  40.521   6.795
    2AU     LIG 1123   3.172  40.372   6.481
    2AU       S 1124   3.034  43.034   6.620
    2AU     LIG 1125   3.108  42.742   6.270
    2AU     LIG 1126   3.350  42.334   6.179
    2AU     LIG 1127   3.632  41.982   5.989
    2AU     LIG 1128   3.720  41.739   5.576
    2AU     LIG 1129   3.985  41.606   5.199
    2AU     LIG 1130   4.036  41.334   4.809
    3AU     AUC 1131  31.583  37.349   7.507
    3AU     AUC 1132  31.832  37.344   7.348
    3AU     AUC 1133  31.835  37.347   7.657
    3AU     AUC 1134  31.330  37.350   7.356
    3AU     AUC 1135  31.334  37.357   7.666
    3AU     AUC 1136  31.433  37.601   7.505
    3AU     AUC 1137  31.742  37.599   7.502
    3AU     AUC 1138  31.424  37.098   7.515
    3AU     AUC 1139  31.736  37.097   7.506
    3AU     AUC 1140  31.587  37.198   7.759
    3AU     AUC 1141  31.590  37.509   7.756
    3AU     AUC 1142  31.577  37.193   7.256
    3AU     AUC 1143  31.582  37.502   7.255
    3AU     AUC 1144  32.072  37.341   7.195
    3AU     AUC 1145  32.080  37.337   7.498
    3AU     AUC 1146  32.081  37.343   7.802
    3AU     AUC 1147  31.086  37.347   7.210
    3AU     AUC 1148  31.085  37.363   7.511
    3AU     AUC 1149  31.093  37.368   7.816
    3AU     AUC 1150  31.290  37.848   7.500
    3AU     AUC 1151  31.594  37.848   7.499
    3AU     AUC 1152  31.895  37.839   7.498
    3AU     AUC 1153  31.273  36.858   7.525
    3AU     AUC 1154  31.569  36.852   7.521
    3AU     AUC 1155  31.880  36.852   7.502
    3AU     AUC 1156  31.589  37.051   8.002
    3AU     AUC 1157  31.592  37.352   8.005
    3AU     AUC 1158  31.596  37.660   7.996
    3AU     AUC 1159  31.569  37.043   7.016
    3AU     AUC 1160  31.579  37.341   7.009
    3AU     AUC 1161  31.583  37.649   7.010
    3AU     AUC 1162  31.837  37.191   7.905
    3AU     AUC 1163  31.840  37.499   7.908
    3AU     AUC 1164  31.821  37.193   7.100
    3AU     AUC 1165  31.834  37.498   7.104
    3AU     AUC 1166  31.333  37.209   7.914
    3AU     AUC 1167  31.342  37.516   7.910
    3AU     AUC 1168  31.326  37.191   7.112
    3AU     AUC 1169  31.332  37.498   7.104
    3AU     AUC 1170  31.990  37.590   7.350
    3AU     AUC 1171  31.992  37.592   7.656
    3AU     AUC 1172  31.184  37.603   7.348
    3AU     AUC 1173  31.189  37.612   7.660
    3AU     AUC 1174  31.975  37.088   7.340
    3AU     AUC 1175  31.986  37.091   7.647
    3AU     AUC 1176  31.174  37.101   7.367
    3AU     AUC 1177  31.175  37.112   7.670
    3AU     AUC 1178  31.443  37.761   7.753
    3AU     AUC 1179  31.749  37.754   7.751
    3AU     AUC 1180  31.424  36.954   7.767
    3AU     AUC 1181  31.736  36.945   7.758
    3AU     AUC 1182  31.435  37.751   7.249
    3AU     AUC 1183  31.743  37.748   7.250
    3AU     AUC 1184  31.417  36.944   7.270
    3AU     AUC 1185  31.721  36.939   7.259
    3AU    AUSL 1186  32.016  37.306   8.086
    3AU    AUSL 1187  31.881  36.913   8.055
    3AU     AUL 1188  32.275  37.085   8.210
    3AU       S 1189  32.127  36.612   8.346
    3AU     LIG 1190  32.213  36.202   8.584
    3AU     LIG 1191  32.298  35.775   8.795
    3AU     LIG 1192  32.427  35.426   9.072
    3AU     LIG 1193  32.779  35.229   9.283
    3AU     LIG 1194  32.988  35.188   9.709
    3AU     LIG 1195  32.912  35.090  10.183
    3AU       S 1196  32.042  37.232   8.661
    3AU     LIG 1197  32.338  37.142   8.996
    3AU     LIG 1198  32.534  36.852   9.312
    3AU     LIG 1199  32.810  36.727   9.682
    3AU     LIG 1200  33.182  36.762   9.990
    3AU     LIG 1201  33.341  36.777  10.432
    3AU     LIG 1202  33.666  36.841  10.764
    3AU    AUSL 1203  31.734  37.169   8.219
    3AU    AUSL 1204  31.450  37.519   8.200
    3AU     AUL 1205  31.497  37.313   8.523
    3AU       S 1206  31.908  37.024   8.600
    3AU     LIG 1207  32.126  36.684   8.876
    3AU     LIG 1208  32.165  36.486   9.325
    3AU     LIG 1209  32.169  36.367   9.806
    3AU     LIG 1210  32.195  36.323  10.298
    3AU     LIG 1211  32.234  36.255  10.779
    3AU     LIG 1212  32.395  36.387  11.193
    3AU       S 1213  30.975  37.556   8.583
    3AU     LIG 1214  30.716  37.533   9.010
    3AU     LIG 1215  30.791  37.309   9.424
    3AU     LIG 1216  30.735  37.250   9.887
    3AU     LIG 1217  30.801  37.515  10.296
    3AU     LIG 1218  30.871  37.810  10.685
    3AU     LIG 1219  30.728  37.903  11.130
    3AU    AUSL 1220  31.786  37.513   8.209
    3AU    AUSL 1221  32.132  37.611   7.968
    3AU     AUL 1222  32.236  37.433   8.247
    3AU       S 1223  31.932  37.548   8.649
    3AU     LIG 1224  31.918  37.870   9.019
    3AU     LIG 1225  32.025  38.085   9.449
    3AU     LIG 1226  32.068  38.250   9.913
    3AU     LIG 1227  32.197  38.265  10.380
    3AU     LIG 1228  32.305  38.116  10.812
    3AU     LIG 1229  32.504  38.027  11.227
    3AU       S 1230  32.473  37.861   8.258
    3AU     LIG 1231  32.824  37.806   8.563
    3AU     LIG 1232  33.158  37.926   8.861
    3AU     LIG 1233  33.415  38.248   9.077
    3AU     LIG 1234  33.720  38.390   9.416
    3AU     LIG 1235  34.077  38.395   9.751
    3AU     LIG 1236  34.372  38.580  10.083
    3AU    AUSL 1237  32.018  37.401   6.905
    3AU    AUSL 1238  31.874  37.743   6.955
    3AU     AUL 1239  31.881  37.732   6.606
    3AU       S 1240  32.165  37.342   6.406
    3AU     LIG 1241  32.329  36.979   6.135
    3AU     LIG 1242  32.550  36.814   5.753
    3AU     LIG 1243  32.690  36.848   5.296
    3AU     LIG 1244  33.053  36.717   4.997
    3AU     LIG 1245  33.461  36.656   4.733
    3AU     LIG 1246  33.720  36.677   4.316
    3AU       S 1247  32.344  37.900   6.678
    3AU     LIG 1248  32.573  38.138   6.330
    3AU     LIG 1249  32.825  38.328   5.965
    3AU     LIG 1250  33.107  38.379   5.586
    3AU     LIG 1251  33.187  38.582   5.175
    3AU     LIG 1252  33.166  38.963   4.907
    3AU     LIG 1253  33.413  39.281   4.637
    3AU    AUSL 1254  31.781  37.176   6.804
    3AU    AUSL 1255  32.056  37.078   7.033
    3AU     AUL 1256  32.274  37.183   6.864
    3AU       S 1257  32.182  36.771   6.585
    3AU     LIG 1258  32.401  36.485   6.247
    3AU     LIG 1259  32.655  36.075   6.191
    3AU     LIG 1260  32.916  35.708   6.030
    3AU     LIG 1261  33.296  35.655   5.748
    3AU     LIG 1262  33.665  35.840   5.489
    3AU     LIG 1263  34.051  35.825   5.218
    3AU       S 1264  31.874  37.101   6.398
    3AU     LIG 1265  31.834  36.793   6.104
    3AU     LIG 1266  32.082  36.615   5.782
    3AU     LIG 1267  32.237  36.604   5.325
    3AU     LIG 1268  32.332  36.590   4.852
    3AU     LIG 1269  32.347  36.506   4.375
    3AU     LIG 1270  32.574  36.586   3.971
    3AU    AUSL 1271  31.714  37.496   6.808
    3AU    AUSL 1272  31.437  37.173   6.787
    3AU     AUL 1273  31.570  37.508   6.531
    3AU       S 1274  31.434  36.875   6.449
    3AU     LIG 1275  31.340  36.620   6.062
    3AU     LIG 1276  31.109  36.599   5.646
    3AU     LIG 1277  30.875  36.613   5.230
    3AU     LIG 1278  30.570  36.433   4.904
    3AU     LIG 1279  30.496  36.295   4.452
    3AU     LIG 1280  30.575  36.401   3.997
    3AU       S 1281  31.957  37.222   6.419
    3AU     LIG 1282  31.964  37.247   5.915
    3AU     LIG 1283  32.178  37.083   5.513
    3AU     LIG 1284  32.267  37.081   5.032
    3AU     LIG 1285  32.226  37.328   4.595
    3AU     LIG 1286  32.360  37.671   4.267
    3AU     LIG 1287  32.360  37.870   3.832
    3AU    AUSL 1288  31.154  37.395   8.115
    3AU    AUSL 1289  31.323  37.793   8.065
    3AU     AUL 1290  31.423  37.689   8.412
    3AU       S 1291  30.825  37.381   8.391
    3AU     LIG 1292  30.519  37.184   8.681
    3AU     LIG 1293  30.433  37.068   9.135
    3AU     LIG 1294  30.347  37.001   9.599
    3AU     LIG 1295  30.007  37.037   9.951
    3AU     LIG 1296  29.714  37.023  10.344
    3AU     LIG 1297  29.393  37.224  10.657
    3AU       S 1298  31.027  38.002   8.391
    3AU     LIG 1299  30.886  37.988   8.835
    3AU     LIG 1300  30.687  38.261   9.155
    3AU     LIG 1301  30.504  38.521   9.496
    3AU     LIG 1302  30.493  38.781   9.898
    3AU     LIG 1303  30.359  39.034  10.285
    3AU     LIG 1304  30.226  39.437  10.514
    3AU    AUSL 1305  31.407  37.193   8.200
    3AU    AUSL 1306  31.040  37.110   7.968
    3AU     AUL 1307  31.206  37.022   8.346
    3AU       S 1308  30.721  36.888   8.235
    3AU     LIG 1309  30.289  36.775   8.200
    3AU     LIG 1310  30.024  36.417   8.303
    3AU     LIG 1311  29.787  36.105   8.567
    3AU     LIG 1312  29.556  35.763   8.795
    3AU     LIG 1313  29.356  35.602   9.191
    3AU     LIG 1314  29.040  35.664   9.535
    3AU       S 1315  30.992  37.352   8.631
    3AU     LIG 1316  30.929  37.052   8.985
    3AU     LIG 1317  30.808  36.801   9.378
    3AU     LIG 1318  30.708  36.702   9.828
    3AU     LIG 1319  30.595  36.393  10.176
    3AU     LIG 1320  30.596  36.273  10.629
    3AU     LIG 1321  30.386  36.235  11.052
    3AU    AUSL 1322  31.153  37.297   6.933
    3AU    AUSL 1323  31.284  36.938   6.962
    3AU     AUL 1324  30.980  37.150   6.777
    3AU       S 1325  31.167  36.998   6.359
    3AU     LIG 1326  30.943  36.968   5.973
    3AU     LIG 1327  30.682  36.925   5.592
    3AU     LIG 1328  30.364  36.749   5.291
    3AU     LIG 1329  30.070  36.747   4.930
    3AU     LIG 1330  29.868  36.942   4.550
    3AU     LIG 1331  29.524  37.138   4.286
    3AU       S 1332  30.989  36.635   6.681
    3AU     LIG 1333  30.722  36.218   6.583
    3AU     LIG 1334  30.364  35.928   6.430
    3AU     LIG 1335  30.163  35.553   6.203
    3AU     LIG 1336  29.931  35.225   5.945
    3AU     LIG 1337  29.885  35.070   5.482
    3AU     LIG 1338  29.831  35.042   4.993
    3AU    AUSL 1339  31.386  37.503   6.822
    3AU    AUSL 1340  31.055  37.605   7.033
    3AU     AUL 1341  31.073  37.486   6.638
    3AU       S 1342  30.775  37.885   6.709
    3AU     LIG 1343  30.395  37.926   6.428
    3AU     LIG 1344  30.293  38.125   6.009
    3AU     LIG 1345  30.230  38.262   5.541
    3AU     LIG 1346  29.986  38.456   5.166
    3AU     LIG 1347  29.565  38.583   4.965
    3AU     LIG 1348  29.190  38.847   4.821
    3AU       S 1349  31.371  37.089   6.409
    3AU     LIG 1350  31.443  37.106   5.931
    3AU     LIG 1351  31.180  37.093   5.511
    3AU     LIG 1352  31.031  37.175   5.048
    3AU     LIG 1353  31.066  37.410   4.600
    3AU     LIG 1354  30.997  37.650   4.173
    3AU     LIG 1355  30.887  37.797   3.725
    3AU    AUSL 1356  32.190  37.763   7.468
    3AU    AUSL 1357  32.161  37.627   7.116
    3AU     AUL 1358  32.273  38.064   7.343
    3AU       S 1359  32.482  37.676   6.838
    3AU     LIG 1360  32.755  37.667   6.469
    3AU     LIG 1361  33.053  37.937   6.233
    3AU     LIG 1362  33.346  38.253   6.026
    3AU     LIG 1363  33.686  38.331   5.677
    3AU     LIG 1364  34.117  38.426   5.440
    3AU     LIG 1365  34.310  38.675   5.071
    3AU       S 1366  32.710  37.803   7.293
    3AU     LIG 1367  33.189  37.848   7.212
    3AU     LIG 1368  33.634  37.950   7.414
    3AU     LIG 1369  34.111  38.100   7.458
    3AU     LIG 1370  34.405  38.496   7.531
    3AU     LIG 1371  34.671  38.895   7.480
    3AU     LIG 1372  34.888  39.308   7.546
    3AU    AUSL 1373  32.306  37.455   7.367
    3AU    AUSL 1374  32.286  37.194   7.628
    3AU     AUL 1375  32.554  37.355   7.784
    3AU       S 1376  32.693  37.500   7.250
    3AU     LIG 1377  33.114  37.312   7.190
    3AU     LIG 1378  33.558  37.469   7.233
    3AU     LIG 1379  33.998  37.642   7.227
    3AU     LIG 1380  34.438  37.742   7.100
    3AU     LIG 1381  34.849  37.965   6.989
    3AU     LIG 1382  35.246  38.223   7.028
    3AU       S 1383  32.800  36.993   7.509
    3AU     LIG 1384  33.148  36.652   7.669
    3AU     LIG 1385  33.546  36.385   7.794
    3AU     LIG 1386  33.980  36.198   7.753
    3AU     LIG 1387  34.416  36.285   7.920
    3AU     LIG 1388  34.893  36.393   7.987
    3AU     LIG 1389  35.349  36.314   7.917
    3AU    AUSL 1390  32.275  37.525   7.686
    3AU    AUSL 1391  32.044  37.860   7.759
    3AU     AUL 1392  32.393  37.860   7.743
    3AU       S 1393  32.323  37.982   8.225
    3AU     LIG 1394  32.615  38.277   8.497
    3AU     LIG 1395  33.028  38.398   8.697
    3AU     LIG 1396  33.285  38.731   8.912
    3AU     LIG 1397  33.380  39.172   9.069
    3AU     LIG 1398  33.707  39.512   9.098
    3AU     LIG 1399  34.016  39.873   9.075
    3AU       S 1400  32.789  37.655   7.471
    3AU     LIG 1401  33.198  37.552   7.635
    3AU     LIG 1402  33.631  37.559   7.751
    3AU     LIG 1403  34.087  37.643   7.731
    3AU     LIG 1404  34.552  37.642   7.762
    3AU     LIG 1405  35.009  37.545   7.749
    3AU     LIG 1406  35.482  37.669   7.755
    3AU    AUSL 1407  30.996  37.812   7.524
    3AU    AUSL 1408  31.038  37.644   7.912
    3AU     AUL 1409  30.910  38.079   7.758
    3AU       S 1410  30.752  37.807   8.188
    3AU     LIG 1411  30.491  37.727   8.572
    3AU     LIG 1412  30.349  37.961   8.924
    3AU     LIG 1413  30.138  38.222   9.255
    3AU     LIG 1414  29.843  38.286   9.637
    3AU     LIG 1415  29.519  38.518   9.930
    3AU     LIG 1416  29.231  38.871  10.093
    3AU       S 1417  30.467  37.890   7.626
    3AU     LIG 1418  30.259  38.282   7.428
    3AU     LIG 1419  29.890  38.607   7.455
    3AU     LIG 1420  29.548  38.972   7.462
    3AU     LIG 1421  29.227  39.341   7.536
    3AU     LIG 1422  28.804  39.484   7.714
    3AU     LIG 1423  28.351  39.629   7.760
    3AU    AUSL 1424  30.911  37.546   7.328
    3AU    AUSL 1425  31.142  37.880   7.228
    3AU     AUL 1426  30.800  37.863   7.222
    3AU       S 1427  30.352  37.695   7.436
    3AU     LIG 1428  30.216  37.947   7.026
    3AU     LIG 1429  29.926  38.055   6.654
    3AU     LIG 1430  29.438  38.074   6.525
    3AU     LIG 1431  28.946  38.115   6.621
    3AU     LIG 1432  28.474  38.135   6.618
    3AU     LIG 1433  28.140  38.490   6.648
    3AU       S 1434  30.865  38.150   6.812
    3AU     LIG 1435  30.584  38.398   6.515
    3AU     LIG 1436  30.520  38.661   6.116
    3AU     LIG 1437  30.481  39.127   5.937
    3AU     LIG 1438  30.368  39.611   5.876
    3AU     LIG 1439  30.040  39.967   5.845
    3AU     LIG 1440  29.732  40.320   5.720
    3AU    AUSL 1441  30.871  37.522   7.649
    3AU    AUSL 1442  30.845  37.216   7.364
    3AU     AUL 1443  30.705  37.478   7.161
    3AU       S 1444  30.365  37.192   7.463
    3AU     LIG 1445  30.041  36.899   7.757
    3AU     LIG 1446  29.527  36.818   7.718
    3AU     LIG 1447  29.033  36.803   7.591
    3AU     LIG 1448  28.619  36.675   7.286
    3AU     LIG 1449  28.164  36.568   7.021
    3AU     LIG 1450  27.715  36.406   6.961
    3AU       S 1451  30.511  37.623   7.799
    3AU     LIG 1452  30.216  37.792   8.135
    3AU     LIG 1453  29.855  38.070   8.256
    3AU     LIG 1454  29.394  38.171   8.170
    3AU     LIG 1455  28.954  38.247   8.364
    3AU     LIG 1456  28.603  38.570   8.420
    3AU     LIG 1457  28.171  38.754   8.466
    3AU    AUSL 1458  32.191  36.893   7.503
    3AU    AUSL 1459  32.127  37.063   7.889
    3AU     AUL 1460  32.442  36.993   7.863
    3AU       S 1461  32.620  36.701   7.492
    3AU     LIG 1462  32.765  36.312   7.690
    3AU     LIG 1463  33.176  36.106   7.574
    3AU     LIG 1464  33.623  35.944   7.477
    3AU     LIG 1465  34.023  35.634   7.428
    3AU     LIG 1466  34.372  35.250   7.356
    3AU     LIG 1467  34.810  35.023   7.241
    3AU       S 1468  32.276  36.599   8.163
    3AU     LIG 1469  32.634  36.427   8.403
    3AU     LIG 1470  32.722  36.013   8.622
    3AU     LIG 1471  32.868  35.667   8.934
    3AU     LIG 1472  33.214  35.507   9.240
    3AU     LIG 1473  33.644  35.483   9.462
    3AU     LIG 1474  34.075  35.416   9.677
    3AU    AUSL 1475  32.265  37.140   7.287
    3AU    AUSL 1476  31.996  36.804   7.227
    3AU     AUL 1477  32.292  36.804   7.119
    3AU       S 1478  32.679  37.006   7.331
    3AU     LIG 1479  33.083  36.760   7.176
    3AU     LIG 1480  33.445  36.456   7.272
    3AU     LIG 1481  33.904  36.320   7.251
    3AU     LIG 1482  34.353  36.415   7.136
    3AU     LIG 1483  34.820  36.482   7.054
    3AU     LIG 1484  35.261  36.322   7.094
    3AU       S 1485  32.159  36.543   6.714
    3AU     LIG 1486  32.299  36.117   6.593
    3AU     LIG 1487  32.426  35.691   6.450
    3AU     LIG 1488  32.639  35.325   6.262
    3AU     LIG 1489  32.877  35.107   5.931
    3AU     LIG 1490  33.185  34.773   5.823
    3AU     LIG 1491  33.583  34.554   5.944
    3AU    AUSL 1492  30.998  36.947   7.500
    3AU    AUSL 1493  31.011  37.062   7.126
    3AU     AUL 1494  30.806  36.785   7.348
    3AU       S 1495  30.750  36.700   6.850
    3AU     LIG 1496  30.343  36.452   6.850
    3AU     LIG 1497  29.995  36.169   6.701
    3AU     LIG 1498  29.804  35.883   6.378
    3AU     LIG 1499  29.607  35.640   6.020
    3AU     LIG 1500  29.288  35.647   5.649
    3AU     LIG 1501  29.019  35.524   5.268
    3AU       S 1502  30.433  37.087   7.356
    3AU     LIG 1503  30.159  36.731   7.267
    3AU     LIG 1504  29.733  36.559   7.326
    3AU     LIG 1505  29.259  36.430   7.340
    3AU     LIG 1506  28.804  36.206   7.411
    3AU     LIG 1507  28.439  35.855   7.443
    3AU     LIG 1508  28.089  35.625   7.670
    3AU    AUSL 1509  30.881  37.201   7.697
    3AU    AUSL 1510  31.116  36.820   7.793
    3AU     AUL 1511  30.768  36.877   7.730
    3AU       S 1512  30.835  36.530   8.073
    3AU     LIG 1513  30.441  36.313   7.958
    3AU     LIG 1514  30.116  35.980   8.040
    3AU     LIG 1515  29.888  35.669   8.317
    3AU     LIG 1516  29.736  35.313   8.593
    3AU     LIG 1517  29.612  34.869   8.739
    3AU     LIG 1518  29.327  34.483   8.727
    3AU       S 1519  30.424  37.205   7.576
    3AU     LIG 1520  29.878  37.147   7.373
    3AU     LIG 1521  29.436  36.970   7.229
    3AU     LIG 1522  28.962  37.115   7.201
    3AU     LIG 1523  28.629  37.120   7.546
    3AU     LIG 1524  28.271  36.860   7.749
    3AU     LIG 1525  27.973  36.497   7.878
    3AU    AUSL 1526  31.589  37.963   7.937
    3AU    AUSL 1527  31.200  37.895   7.773
    3AU     AUL 1528  31.267  38.171   7.961
    3AU       S 1529  30.913  37.975   8.263
    3AU     LIG 1530  30.586  38.246   8.525
    3AU     LIG 1531  30.536  38.641   8.821
    3AU     LIG 1532  30.508  39.133   8.918
    3AU     LIG 1533  30.374  39.608   8.987
    3AU     LIG 1534  30.003  39.883   9.088
    3AU     LIG 1535  29.619  39.959   9.366
    3AU       S 1536  31.638  38.486   8.080
    3AU     LIG 1537  31.941  38.687   8.378
    3AU     LIG 1538  32.070  39.069   8.632
    3AU     LIG 1539  32.079  39.374   9.009
    3AU     LIG 1540  31.889  39.674   9.332
    3AU     LIG 1541  31.836  40.064   9.593
    3AU     LIG 1542  32.006  40.511   9.649
    3AU    AUSL 1543  31.448  38.070   7.644
    3AU    AUSL 1544  31.744  38.080   7.338
    3AU     AUL 1545  31.287  38.306   7.431
    3AU       S 1546  31.561  38.565   7.782
    3AU     LIG 1547  31.727  38.989   8.018
    3AU     LIG 1548  31.903  39.384   8.247
    3AU     LIG 1549  31.919  39.854   8.340
    3AU     LIG 1550  31.662  40.272   8.396
    3AU     LIG 1551  31.383  40.668   8.504
    3AU     LIG 1552  31.167  41.050   8.727
    3AU       S 1553  31.914  38.486   7.272
    3AU     LIG 1554  32.219  38.840   7.264
    3AU     LIG 1555  32.322  39.222   7.018
    3AU     LIG 1556  32.300  39.614   6.753
    3AU     LIG 1557  32.273  40.046   6.632
    3AU     LIG 1558  32.422  40.401   6.391
    3AU     LIG 1559  32.557  40.830   6.443
    3AU    AUSL 1560  31.784  38.047   7.663
    3AU    AUSL 1561  31.852  37.789   8.040
    3AU     AUL 1562  31.947  38.126   7.942
    3AU       S 1563  32.116  37.914   8.364
    3AU     LIG 1564  32.357  37.901   8.758
    3AU     LIG 1565  32.695  38.115   8.993
    3AU     LIG 1566  32.954  38.442   9.209
    3AU     LIG 1567  33.139  38.836   9.397
    3AU     LIG 1568  33.250  39.157   9.715
    3AU     LIG 1569  33.173  39.382  10.126
    3AU       S 1570  31.785  38.542   7.740
    3AU     LIG 1571  32.149  38.824   7.783
    3AU     LIG 1572  32.316  39.193   8.018
    3AU     LIG 1573  32.351  39.666   8.055
    3AU     LIG 1574  32.348  40.105   8.164
    3AU     LIG 1575  32.523  40.409   8.459
    3AU     LIG 1576  32.568  40.854   8.626
    3AU    AUSL 1577  31.593  36.766   7.965
    3AU    AUSL 1578  32.004  36.779   7.756
    3AU     AUL 1579  31.800  36.516   7.982
    3AU       S 1580  31.409  36.184   8.014
    3AU     LIG 1581  31.145  35.827   8.133
    3AU     LIG 1582  31.112  35.366   8.160
    3AU     LIG 1583  31.170  34.937   8.319
    3AU     LIG 1584  31.269  34.707   8.726
    3AU     LIG 1585  31.375  34.529   9.160
    3AU     LIG 1586  31.434  34.123   9.384
    3AU       S 1587  32.305  36.492   7.949
    3AU     LIG 1588  32.416  36.073   8.111
    3AU     LIG 1589  32.476  35.664   8.326
    3AU     LIG 1590  32.628  35.329   8.614
    3AU     LIG 1591  32.727  34.928   8.855
    3AU     LIG 1592  33.075  34.587   8.918
    3AU     LIG 1593  33.500  34.342   8.955
    3AU    AUSL 1594  31.386  36.647   7.717
    3AU    AUSL 1595  31.315  36.931   8.026
    3AU     AUL 1596  31.354  36.661   8.142
    3AU       S 1597  31.167  36.281   7.820
    3AU     LIG 1598  30.850  35.978   7.742
    3AU     LIG 1599  30.876  35.493   7.718
    3AU     LIG 1600  30.819  35.018   7.882
    3AU     LIG 1601  30.584  34.562   7.966
    3AU     LIG 1602  30.462  34.073   8.091
    3AU     LIG 1603  30.554  33.630   8.341
    3AU       S 1604  30.863  36.667   8.200
    3AU     LIG 1605  30.539  36.397   8.457
    3AU     LIG 1606  30.290  36.002   8.524
    3AU     LIG 1607  30.063  35.690   8.801
    3AU     LIG 1608  29.827  35.402   9.097
    3AU     LIG 1609  29.719  35.224   9.523
    3AU     LIG 1610  29.801  34.951   9.917
    3AU    AUSL 1611  31.708  36.669   7.670
    3AU    AUSL 1612  31.408  36.613   7.388
    3AU     AUL 1613  31.757  36.395   7.596
    3AU       S 1614  31.121  36.253   7.342
    3AU     LIG 1615  30.980  35.784   7.289
    3AU     LIG 1616  30.836  35.344   7.185
    3AU     LIG 1617  30.588  35.024   6.900
    3AU     LIG 1618  30.355  34.622   6.714
    3AU     LIG 1619  30.165  34.237   6.515
    3AU     LIG 1620  30.226  33.775   6.470
    3AU       S 1621  31.342  36.249   7.793
    3AU     LIG 1622  31.332  35.789   7.658
    3AU     LIG 1623  31.370  35.304   7.713
    3AU     LIG 1624  31.549  34.910   7.948
    3AU     LIG 1625  31.771  34.490   8.079
    3AU     LIG 1626  31.920  34.019   8.064
    3AU     LIG 1627  31.992  33.529   8.132
    3AU    AUSL 1628  31.617  37.942   7.050
    3AU    AUSL 1629  31.993  37.889   7.231
    3AU     AUL 1630  31.921  38.082   6.943
    3AU       S 1631  31.685  38.514   6.973
    3AU     LIG 1632  32.028  38.808   6.780
    3AU     LIG 1633  32.201  39.167   6.511
    3AU     LIG 1634  32.086  39.535   6.234
    3AU     LIG 1635  32.099  39.686   5.771
    3AU     LIG 1636  32.025  40.034   5.447
    3AU     LIG 1637  31.982  40.399   5.147
    3AU       S 1638  32.405  37.863   6.913
    3AU     LIG 1639  32.828  38.076   6.778
    3AU     LIG 1640  33.017  38.400   6.450
    3AU     LIG 1641  33.125  38.744   6.115
    3AU     LIG 1642  33.322  39.194   6.043
    3AU     LIG 1643  33.541  39.633   6.037
    3AU     LIG 1644  33.903  39.952   5.968
    3AU    AUSL 1645  31.426  38.018   7.318
    3AU    AUSL 1646  31.332  37.798   6.958
    3AU     AUL 1647  31.311  38.168   7.044
    3AU       S 1648  31.708  38.478   7.250
    3AU     LIG 1649  31.739  38.984   7.160
    3AU     LIG 1650  31.845  39.359   6.840
    3AU     LIG 1651  31.795  39.811   6.620
    3AU     LIG 1652  31.512  40.227   6.495
    3AU     LIG 1653  31.300  40.642   6.296
    3AU     LIG 1654  31.056  41.075   6.250
    3AU       S 1655  31.084  38.008   6.612
    3AU     LIG 1656  30.841  38.100   6.195
    3AU     LIG 1657  30.718  38.313   5.774
    3AU     LIG 1658  30.645  38.532   5.351
    3AU     LIG 1659  30.671  38.800   4.953
    3AU     LIG 1660  30.438  39.101   4.661
    3AU     LIG 1661  30.116  39.449   4.610
    3AU    AUSL 1662  31.531  36.763   7.118
    3AU    AUSL 1663  31.170  36.791   7.245
    3AU     AUL 1664  31.421  36.600   6.941
    3AU       S 1665  30.921  36.500   6.950
    3AU     LIG 1666  30.680  36.159   7.104
    3AU     LIG 1667  30.357  35.889   6.948
    3AU     LIG 1668  30.066  35.595   6.718
    3AU     LIG 1669  29.760  35.350   6.442
    3AU     LIG 1670  29.618  34.939   6.272
    3AU     LIG 1671  29.311  34.585   6.206
    3AU       S 1672  31.285  36.275   7.277
    3AU     LIG 1673  31.139  36.034   6.879
    3AU     LIG 1674  31.123  35.573   6.810
    3AU     LIG 1675  31.343  35.178   6.658
    3AU     LIG 1676  31.436  34.857   6.314
    3AU     LIG 1677  31.529  34.688   5.877
    3AU     LIG 1678  31.468  34.422   5.495
    3AU    AUSL 1679  31.739  36.643   7.347
    3AU    AUSL 1680  31.793  36.878   6.958
    3AU     AUL 1681  31.810  36.497   7.072
    3AU       S 1682  31.439  36.187   7.285
    3AU     LIG 1683  31.472  35.741   7.166
    3AU     LIG 1684  31.367  35.284   7.183
    3AU     LIG 1685  31.460  34.844   7.035
    3AU     LIG 1686  31.739  34.467   6.993
    3AU     LIG 1687  31.948  34.050   6.909
    3AU     LIG 1688  31.926  33.565   6.880
    3AU       S 1689  31.903  36.668   6.599
    3AU     LIG 1690  31.918  36.330   6.293
    3AU     LIG 1691  32.159  35.996   6.098
    3AU     LIG 1692  32.411  35.648   5.922
    3AU     LIG 1693  32.521  35.316   5.613
    3AU     LIG 1694  32.784  35.117   5.276
    3AU     LIG 1695  33.180  34.971   5.079
    4AU     AUC 1696  39.380   6.273   7.498
    4AU     AUC 1697  39.627   6.265   7.338
    4AU     AUC 1698  39.633   6.262   7.648
    4AU     AUC 1699  39.129   6.284   7.345
    4AU     AUC 1700  39.132   6.285   7.654
    4AU     AUC 1701  39.237   6.529   7.501
    4AU     AUC 1702  39.544   6.518   7.497
    4AU     AUC 1703  39.213   6.026   7.500
    4AU     AUC 1704  39.527   6.017   7.494
    4AU     AUC 1705  39.378   6.117   7.747
    4AU     AUC 1706  39.391   6.426   7.750
    4AU     AUC 1707  39.371   6.120   7.244
    4AU     AUC 1708  39.382   6.430   7.248
    4AU     AUC 1709  39.866   6.260   7.182
    4AU     AUC 1710  39.877   6.250   7.487
    4AU     AUC 1711  39.879   6.248   7.791
    4AU     AUC 1712  38.885   6.291   7.197
    4AU     AUC 1713  38.883   6.301   7.498
    4AU     AUC 1714  38.889   6.302   7.803
    4AU     AUC 1715  39.100   6.779   7.503
    4AU     AUC 1716  39.403   6.771   7.502
    4AU     AUC 1717  39.702   6.754   7.498
    4AU     AUC 1718  39.056   5.792   7.505
    4AU     AUC 1719  39.358   5.776   7.508
    4AU     AUC 1720  39.667   5.770   7.490
    4AU     AUC 1721  39.372   5.966   7.988
    4AU     AUC 1722  39.383   6.265   7.995
    4AU     AUC 1723  39.402   6.569   7.995
    4AU     AUC 1724  39.361   5.970   7.004
    4AU     AUC 1725  39.373   6.271   6.998
    4AU     AUC 1726  39.384   6.580   7.005
    4AU     AUC 1727  39.627   6.102   7.896
    4AU     AUC 1728  39.643   6.407   7.900
    4AU     AUC 1729  39.614   6.115   7.088
    4AU     AUC 1730  39.629   6.423   7.094
    4AU     AUC 1731  39.123   6.132   7.900
    4AU     AUC 1732  39.143   6.436   7.904
    4AU     AUC 1733  39.122   6.125   7.099
    4AU     AUC 1734  39.133   6.435   7.096
    4AU     AUC 1735  39.790   6.508   7.341
    4AU     AUC 1736  39.798   6.500   7.648
    4AU     AUC 1737  38.988   6.540   7.344
    4AU     AUC 1738  38.993   6.544   7.654
    4AU     AUC 1739  39.765   6.006   7.328
    4AU     AUC 1740  39.776   6.005   7.638
    4AU     AUC 1741  38.969   6.038   7.349
    4AU     AUC 1742  38.963   6.046   7.649
    4AU     AUC 1743  39.252   6.681   7.755
    4AU     AUC 1744  39.558   6.665   7.751
    4AU     AUC 1745  39.206   5.879   7.745
    4AU     AUC 1746  39.524   5.864   7.746
    4AU     AUC 1747  39.241   6.683   7.247
    4AU     AUC 1748  39.547   6.673   7.248
    4AU     AUC 1749  39.208   5.872   7.258
    4AU     AUC 1750  39.513   5.862   7.247
    4AU    AUSL 1751  39.801   6.216   8.080
    4AU    AUSL 1752  39.660   5.832   8.036
    4AU     AUL 1753  39.791   5.923   8.362
    4AU       S 1754  40.042   5.496   8.245
    4AU     LIG 1755  40.104   5.108   8.520
    4AU     LIG 1756  40.174   4.703   8.757
    4AU     LIG 1757  40.288   4.350   9.039
    4AU     LIG 1758  40.496   4.168   9.407
    4AU     LIG 1759  40.564   3.889   9.783
    4AU     LIG 1760  40.699   3.607  10.145
    4AU       S 1761  39.934   6.382   8.643
    4AU     LIG 1762  40.151   6.344   9.065
    4AU     LIG 1763  40.244   6.035   9.428
    4AU     LIG 1764  40.526   5.859   9.779
    4AU     LIG 1765  40.894   5.853  10.103
    4AU     LIG 1766  41.189   5.923  10.485
    4AU     LIG 1767  41.503   5.980  10.843
    4AU    AUSL 1768  39.513   6.091   8.206
    4AU    AUSL 1769  39.254   6.412   8.207
    4AU     AUL 1770  39.340   6.144   8.504
    4AU       S 1771  39.755   6.238   8.752
    4AU     LIG 1772  39.876   5.898   9.071
    4AU     LIG 1773  39.918   5.599   9.451
    4AU     LIG 1774  39.864   5.318   9.845
    4AU     LIG 1775  39.986   5.256  10.302
    4AU     LIG 1776  40.041   5.173  10.766
    4AU     LIG 1777  40.226   5.355  11.172
    4AU       S 1778  38.905   6.444   8.655
    4AU     LIG 1779  38.756   6.427   9.108
    4AU     LIG 1780  38.723   6.144   9.487
    4AU     LIG 1781  38.585   6.022   9.910
    4AU     LIG 1782  38.548   6.218  10.338
    4AU     LIG 1783  38.510   6.539  10.684
    4AU     LIG 1784  38.361   6.774  11.059
    4AU    AUSL 1785  39.586   6.423   8.208
    4AU    AUSL 1786  39.951   6.496   7.953
    4AU     AUL 1787  40.029   6.199   8.202
    4AU       S 1788  39.690   6.582   8.595
    4AU     LIG 1789  39.849   6.779   8.995
    4AU     LIG 1790  39.838   6.990   9.434
    4AU     LIG 1791  39.881   7.043   9.918
    4AU     LIG 1792  39.975   7.249  10.341
    4AU     LIG 1793  40.192   7.283  10.763
    4AU     LIG 1794  40.266   7.155  11.217
    4AU       S 1795  40.340   6.597   8.143
    4AU     LIG 1796  40.666   6.519   8.424
    4AU     LIG 1797  40.904   6.768   8.715
    4AU     LIG 1798  41.063   7.048   9.051
    4AU     LIG 1799  41.284   7.171   9.448
    4AU     LIG 1800  41.663   7.248   9.729
    4AU     LIG 1801  42.033   7.484   9.906
    4AU    AUSL 1802  39.812   6.317   6.894
    4AU    AUSL 1803  39.671   6.674   6.942
    4AU     AUL 1804  39.733   6.614   6.591
    4AU       S 1805  39.930   6.173   6.374
    4AU     LIG 1806  40.062   5.785   6.132
    4AU     LIG 1807  40.266   5.651   5.743
    4AU     LIG 1808  40.454   5.745   5.319
    4AU     LIG 1809  40.864   5.727   5.072
    4AU     LIG 1810  41.230   5.586   4.793
    4AU     LIG 1811  41.463   5.666   4.381
    4AU       S 1812  40.152   6.866   6.692
    4AU     LIG 1813  40.432   7.005   6.333
    4AU     LIG 1814  40.674   7.243   5.982
    4AU     LIG 1815  40.948   7.464   5.662
    4AU     LIG 1816  41.071   7.564   5.208
    4AU     LIG 1817  41.093   7.946   4.920
    4AU     LIG 1818  41.048   8.395   4.792
    4AU    AUSL 1819  39.571   6.100   6.793
    4AU    AUSL 1820  39.853   5.998   7.019
    4AU     AUL 1821  40.068   6.138   6.846
    4AU       S 1822  40.010   5.682   6.627
    4AU     LIG 1823  40.305   5.407   6.381
    4AU     LIG 1824  40.500   4.996   6.291
    4AU     LIG 1825  40.715   4.660   6.055
    4AU     LIG 1826  41.045   4.587   5.723
    4AU     LIG 1827  41.370   4.640   5.381
    4AU     LIG 1828  41.744   4.572   5.112
    4AU       S 1829  39.655   5.972   6.415
    4AU     LIG 1830  39.562   5.672   6.118
    4AU     LIG 1831  39.752   5.570   5.722
    4AU     LIG 1832  39.994   5.502   5.314
    4AU     LIG 1833  40.105   5.481   4.854
    4AU     LIG 1834  40.027   5.401   4.394
    4AU     LIG 1835  40.218   5.159   4.033
    4AU    AUSL 1836  39.508   6.423   6.804
    4AU    AUSL 1837  39.226   6.107   6.778
    4AU     AUL 1838  39.389   6.454   6.537
    4AU       S 1839  39.182   5.862   6.410
    4AU     LIG 1840  39.053   5.601   6.055
    4AU     LIG 1841  38.892   5.538   5.619
    4AU     LIG 1842  38.592   5.353   5.299
    4AU     LIG 1843  38.444   5.280   4.869
    4AU     LIG 1844  38.500   5.202   4.406
    4AU     LIG 1845  38.417   5.186   3.931
    4AU       S 1846  39.707   6.106   6.406
    4AU     LIG 1847  39.743   6.103   5.905
    4AU     LIG 1848  39.958   5.991   5.497
    4AU     LIG 1849  40.055   5.963   5.037
    4AU     LIG 1850  40.052   6.134   4.589
    4AU     LIG 1851  39.989   6.432   4.206
    4AU     LIG 1852  40.035   6.697   3.814
    4AU    AUSL 1853  38.949   6.328   8.105
    4AU    AUSL 1854  39.127   6.695   8.058
    4AU     AUL 1855  39.235   6.660   8.359
    4AU       S 1856  38.701   6.366   8.464
    4AU     LIG 1857  38.392   6.221   8.812
    4AU     LIG 1858  38.308   5.993   9.222
    4AU     LIG 1859  38.196   5.792   9.639
    4AU     LIG 1860  37.864   5.758   9.980
    4AU     LIG 1861  37.595   5.941  10.333
    4AU     LIG 1862  37.321   5.852  10.728
    4AU       S 1863  38.774   6.846   8.384
    4AU     LIG 1864  38.725   6.917   8.843
    4AU     LIG 1865  38.603   7.212   9.207
    4AU     LIG 1866  38.450   7.477   9.578
    4AU     LIG 1867  38.256   7.617   9.992
    4AU     LIG 1868  38.022   7.916  10.276
    4AU     LIG 1869  37.718   8.271  10.351
    4AU    AUSL 1870  39.177   6.086   8.190
    4AU    AUSL 1871  38.838   6.048   7.944
    4AU     AUL 1872  38.849   5.927   8.251
    4AU       S 1873  38.534   5.526   8.071
    4AU     LIG 1874  38.094   5.394   8.101
    4AU     LIG 1875  37.750   5.160   8.317
    4AU     LIG 1876  37.522   4.911   8.644
    4AU     LIG 1877  37.256   4.656   8.921
    4AU     LIG 1878  36.960   4.600   9.279
    4AU     LIG 1879  36.621   4.733   9.587
    4AU       S 1880  38.869   6.203   8.661
    4AU     LIG 1881  38.778   5.906   9.021
    4AU     LIG 1882  38.650   5.638   9.407
    4AU     LIG 1883  38.574   5.501   9.853
    4AU     LIG 1884  38.461   5.261  10.241
    4AU     LIG 1885  38.450   5.246  10.715
    4AU     LIG 1886  38.238   5.150  11.137
    4AU    AUSL 1887  38.938   6.241   6.916
    4AU    AUSL 1888  39.084   5.858   6.952
    4AU     AUL 1889  38.803   5.988   6.752
    4AU       S 1890  38.952   6.121   6.296
    4AU     LIG 1891  38.721   5.965   5.891
    4AU     LIG 1892  38.475   5.826   5.486
    4AU     LIG 1893  38.145   5.644   5.155
    4AU     LIG 1894  37.723   5.682   4.893
    4AU     LIG 1895  37.425   5.949   4.615
    4AU     LIG 1896  37.312   6.135   4.186
    4AU       S 1897  38.690   5.485   6.817
    4AU     LIG 1898  38.503   5.057   6.775
    4AU     LIG 1899  38.225   4.772   6.540
    4AU     LIG 1900  37.910   4.639   6.220
    4AU     LIG 1901  37.617   4.441   5.902
    4AU     LIG 1902  37.475   4.352   5.456
    4AU     LIG 1903  37.394   4.201   5.013
    4AU    AUSL 1904  39.176   6.440   6.809
    4AU    AUSL 1905  38.859   6.552   7.031
    4AU     AUL 1906  38.780   6.402   6.687
    4AU       S 1907  38.647   6.879   6.683
    4AU     LIG 1908  38.433   6.934   6.245
    4AU     LIG 1909  38.169   7.152   5.899
    4AU     LIG 1910  37.859   7.198   5.528
    4AU     LIG 1911  37.421   7.186   5.293
    4AU     LIG 1912  37.021   7.396   5.133
    4AU     LIG 1913  36.832   7.788   4.950
    4AU       S 1914  39.159   6.069   6.374
    4AU     LIG 1915  39.236   6.042   5.885
    4AU     LIG 1916  39.016   6.016   5.449
    4AU     LIG 1917  38.948   6.112   4.971
    4AU     LIG 1918  38.933   6.318   4.521
    4AU     LIG 1919  38.814   6.523   4.091
    4AU     LIG 1920  38.508   6.735   3.778
    4AU    AUSL 1921  39.992   6.673   7.462
    4AU    AUSL 1922  39.954   6.551   7.097
    4AU     AUL 1923  40.059   6.989   7.338
    4AU       S 1924  40.287   6.619   6.832
    4AU     LIG 1925  40.697   6.660   6.626
    4AU     LIG 1926  40.942   6.899   6.288
    4AU     LIG 1927  41.145   7.034   5.871
    4AU     LIG 1928  41.381   7.225   5.491
    4AU     LIG 1929  41.699   7.403   5.184
    4AU     LIG 1930  41.964   7.748   4.983
    4AU       S 1931  40.516   6.749   7.392
    4AU     LIG 1932  40.961   6.849   7.551
    4AU     LIG 1933  41.434   6.900   7.577
    4AU     LIG 1934  41.890   7.017   7.545
    4AU     LIG 1935  42.188   7.392   7.502
    4AU     LIG 1936  42.416   7.816   7.527
    4AU     LIG 1937  42.723   8.089   7.755
    4AU    AUSL 1938  40.103   6.373   7.330
    4AU    AUSL 1939  40.073   6.095   7.618
    4AU     AUL 1940  40.387   6.095   7.382
    4AU       S 1941  40.521   6.563   7.272
    4AU     LIG 1942  40.996   6.471   7.216
    4AU     LIG 1943  41.481   6.496   7.253
    4AU     LIG 1944  41.929   6.330   7.187
    4AU     LIG 1945  42.355   6.170   7.018
    4AU     LIG 1946  42.817   6.302   7.034
    4AU     LIG 1947  43.240   6.504   6.985
    4AU       S 1948  40.446   5.633   7.654
    4AU     LIG 1949  40.799   5.537   7.890
    4AU     LIG 1950  41.201   5.367   7.832
    4AU     LIG 1951  41.582   5.160   7.745
    4AU     LIG 1952  42.029   5.159   7.878
    4AU     LIG 1953  42.491   5.153   7.961
    4AU     LIG 1954  42.970   5.059   8.021
    4AU    AUSL 1955  40.094   6.425   7.666
    4AU    AUSL 1956  39.850   6.755   7.761
    4AU     AUL 1957  40.132   6.836   7.722
    4AU       S 1958  40.198   6.767   8.199
    4AU     LIG 1959  40.555   7.024   8.390
    4AU     LIG 1960  40.866   7.290   8.622
    4AU     LIG 1961  41.071   7.684   8.775
    4AU     LIG 1962  41.433   7.988   8.818
    4AU     LIG 1963  41.674   8.387   8.929
    4AU     LIG 1964  41.919   8.727   9.168
    4AU       S 1965  40.538   6.538   7.637
    4AU     LIG 1966  40.897   6.478   7.905
    4AU     LIG 1967  41.332   6.431   7.753
    4AU     LIG 1968  41.801   6.518   7.690
    4AU     LIG 1969  42.226   6.546   7.907
    4AU     LIG 1970  42.712   6.514   7.918
    4AU     LIG 1971  43.073   6.654   8.199
    4AU    AUSL 1972  38.805   6.750   7.526
    4AU    AUSL 1973  38.838   6.578   7.900
    4AU     AUL 1974  38.733   7.027   7.745
    4AU       S 1975  38.540   6.713   8.160
    4AU     LIG 1976  38.329   6.694   8.588
    4AU     LIG 1977  38.218   6.963   8.961
    4AU     LIG 1978  38.069   7.236   9.329
    4AU     LIG 1979  37.803   7.347   9.735
    4AU     LIG 1980  37.385   7.494   9.958
    4AU     LIG 1981  36.973   7.715  10.115
    4AU       S 1982  38.287   6.834   7.644
    4AU     LIG 1983  37.974   7.202   7.599
    4AU     LIG 1984  37.779   7.660   7.519
    4AU     LIG 1985  37.493   8.062   7.555
    4AU     LIG 1986  37.241   8.315   7.862
    4AU     LIG 1987  36.814   8.525   7.855
    4AU     LIG 1988  36.338   8.567   7.816
    4AU    AUSL 1989  38.713   6.496   7.323
    4AU    AUSL 1990  38.950   6.819   7.229
    4AU     AUL 1991  38.595   6.809   7.212
    4AU       S 1992  38.151   6.607   7.514
    4AU     LIG 1993  37.763   6.800   7.324
    4AU     LIG 1994  37.385   6.915   7.040
    4AU     LIG 1995  37.039   7.216   6.891
    4AU     LIG 1996  36.631   7.405   6.703
    4AU     LIG 1997  36.178   7.560   6.707
    4AU     LIG 1998  35.691   7.541   6.643
    4AU       S 1999  38.702   7.104   6.804
    4AU     LIG 2000  38.526   7.385   6.458
    4AU     LIG 2001  38.246   7.620   6.151
    4AU     LIG 2002  37.985   8.022   6.086
    4AU     LIG 2003  37.891   8.478   6.007
    4AU     LIG 2004  37.714   8.901   5.867
    4AU     LIG 2005  37.462   9.261   6.046
    4AU    AUSL 2006  38.667   6.459   7.642
    4AU    AUSL 2007  38.644   6.172   7.339
    4AU     AUL 2008  38.467   6.441   7.184
    4AU       S 2009  38.206   5.962   7.415
    4AU     LIG 2010  37.862   5.887   7.782
    4AU     LIG 2011  37.384   5.998   7.781
    4AU     LIG 2012  36.925   5.874   7.705
    4AU     LIG 2013  36.613   5.652   7.397
    4AU     LIG 2014  36.159   5.701   7.259
    4AU     LIG 2015  35.808   5.403   7.359
    4AU       S 2016  38.294   6.501   7.794
    4AU     LIG 2017  37.972   6.775   8.038
    4AU     LIG 2018  37.504   6.929   8.117
    4AU     LIG 2019  37.044   7.059   8.260
    4AU     LIG 2020  36.551   7.070   8.180
    4AU     LIG 2021  36.110   7.107   8.383
    4AU     LIG 2022  35.675   7.274   8.519
    4AU    AUSL 2023  39.974   5.802   7.495
    4AU    AUSL 2024  39.933   5.974   7.894
    4AU     AUL 2025  40.275   6.066   7.805
    4AU       S 2026  40.195   5.426   7.475
    4AU     LIG 2027  40.504   5.136   7.715
    4AU     LIG 2028  40.939   4.947   7.684
    4AU     LIG 2029  41.367   4.738   7.551
    4AU     LIG 2030  41.839   4.612   7.535
    4AU     LIG 2031  42.237   4.303   7.577
    4AU     LIG 2032  42.694   4.245   7.700
    4AU       S 2033  40.165   5.658   8.097
    4AU     LIG 2034  40.501   5.287   8.225
    4AU     LIG 2035  40.556   4.859   8.430
    4AU     LIG 2036  40.689   4.598   8.813
    4AU     LIG 2037  40.956   4.457   9.180
    4AU     LIG 2038  41.350   4.530   9.455
    4AU     LIG 2039  41.687   4.497   9.794
    4AU    AUSL 2040  40.039   6.053   7.289
    4AU    AUSL 2041  39.798   5.722   7.211
    4AU     AUL 2042  40.169   5.839   7.109
    4AU       S 2043  40.315   5.593   7.507
    4AU     LIG 2044  40.800   5.401   7.391
    4AU     LIG 2045  41.223   5.175   7.320
    4AU     LIG 2046  41.678   5.057   7.235
    4AU     LIG 2047  42.141   5.162   7.093
    4AU     LIG 2048  42.648   5.212   7.059
    4AU     LIG 2049  43.115   5.047   7.137
    4AU       S 2050  40.021   5.448   6.824
    4AU     LIG 2051  40.118   5.017   6.665
    4AU     LIG 2052  40.287   4.591   6.529
    4AU     LIG 2053  40.554   4.249   6.346
    4AU     LIG 2054  40.680   3.823   6.181
    4AU     LIG 2055  40.971   3.446   6.110
    4AU     LIG 2056  41.376   3.291   5.904
    4AU    AUSL 2057  38.752   5.882   7.458
    4AU    AUSL 2058  38.828   6.002   7.118
    4AU     AUL 2059  38.541   6.092   7.038
    4AU       S 2060  38.508   5.591   6.982
    4AU     LIG 2061  38.117   5.399   6.806
    4AU     LIG 2062  37.833   5.115   6.544
    4AU     LIG 2063  37.470   4.880   6.330
    4AU     LIG 2064  37.156   4.624   6.070
    4AU     LIG 2065  36.783   4.635   5.752
    4AU     LIG 2066  36.630   4.711   5.296
    4AU       S 2067  38.363   5.780   7.419
    4AU     LIG 2068  37.983   5.508   7.461
    4AU     LIG 2069  37.512   5.593   7.483
    4AU     LIG 2070  37.064   5.417   7.508
    4AU     LIG 2071  36.667   5.139   7.584
    4AU     LIG 2072  36.260   4.911   7.743
    4AU     LIG 2073  36.033   4.503   7.696
    4AU    AUSL 2074  38.687   6.138   7.666
    4AU    AUSL 2075  38.884   5.759   7.744
    4AU     AUL 2076  38.548   5.965   7.863
    4AU       S 2077  38.612   5.431   7.713
    4AU     LIG 2078  38.285   5.132   7.714
    4AU     LIG 2079  38.023   4.874   7.974
    4AU     LIG 2080  37.771   4.631   8.290
    4AU     LIG 2081  37.561   4.352   8.613
    4AU     LIG 2082  37.407   3.918   8.746
    4AU     LIG 2083  37.066   3.624   8.877
    4AU       S 2084  38.233   6.085   7.495
    4AU     LIG 2085  37.716   6.080   7.343
    4AU     LIG 2086  37.212   6.030   7.289
    4AU     LIG 2087  36.723   6.154   7.336
    4AU     LIG 2088  36.360   5.996   7.662
    4AU     LIG 2089  35.933   5.798   7.720
    4AU     LIG 2090  35.720   5.429   7.876
    4AU    AUSL 2091  39.407   6.868   7.946
    4AU    AUSL 2092  39.012   6.832   7.777
    4AU     AUL 2093  39.121   7.081   8.015
    4AU       S 2094  38.706   6.928   8.240
    4AU     LIG 2095  38.418   7.194   8.517
    4AU     LIG 2096  38.303   7.477   8.878
    4AU     LIG 2097  38.204   7.906   9.055
    4AU     LIG 2098  37.968   8.325   9.115
    4AU     LIG 2099  37.576   8.586   9.201
    4AU     LIG 2100  37.313   8.965   9.342
    4AU       S 2101  39.490   7.421   8.042
    4AU     LIG 2102  39.779   7.672   8.329
    4AU     LIG 2103  39.972   8.045   8.554
    4AU     LIG 2104  40.014   8.404   8.857
    4AU     LIG 2105  40.073   8.591   9.306
    4AU     LIG 2106  39.966   8.859   9.695
    4AU     LIG 2107  39.657   9.170   9.888
    4AU    AUSL 2108  39.272   6.992   7.654
    4AU    AUSL 2109  39.555   7.005   7.352
    4AU     AUL 2110  39.097   7.230   7.458
    4AU       S 2111  39.415   7.477   7.770
    4AU     LIG 2112  39.550   7.931   7.956
    4AU     LIG 2113  39.661   8.326   8.236
    4AU     LIG 2114  39.508   8.755   8.446
    4AU     LIG 2115  39.218   9.148   8.591
    4AU     LIG 2116  39.026   9.581   8.754
    4AU     LIG 2117  38.721   9.953   8.885
    4AU       S 2118  39.729   7.439   7.264
    4AU     LIG 2119  40.032   7.846   7.229
    4AU     LIG 2120  40.089   8.295   7.029
    4AU     LIG 2121  40.313   8.718   6.886
    4AU     LIG 2122  40.406   9.171   6.704
    4AU     LIG 2123  40.431   9.602   6.427
    4AU     LIG 2124  40.208   9.986   6.209
    4AU    AUSL 2125  39.608   6.961   7.677
    4AU    AUSL 2126  39.672   6.682   8.035
    4AU     AUL 2127  39.762   7.007   8.017
    4AU       S 2128  40.053   6.715   8.305
    4AU     LIG 2129  40.288   6.739   8.715
    4AU     LIG 2130  40.538   7.052   8.949
    4AU     LIG 2131  40.742   7.450   9.109
    4AU     LIG 2132  40.863   7.719   9.465
    4AU     LIG 2133  40.795   8.018   9.831
    4AU     LIG 2134  40.975   8.347  10.114
    4AU       S 2135  39.669   7.416   7.746
    4AU     LIG 2136  39.983   7.754   7.752
    4AU     LIG 2137  40.099   8.086   8.054
    4AU     LIG 2138  40.175   8.480   8.330
    4AU     LIG 2139  40.403   8.911   8.389
    4AU     LIG 2140  40.348   9.395   8.400
    4AU     LIG 2141  40.338   9.900   8.424
    4AU    AUSL 2142  39.373   5.680   7.966
    4AU    AUSL 2143  39.787   5.700   7.749
    4AU     AUL 2144  39.611   5.450   7.995
    4AU       S 2145  39.214   5.143   8.065
    4AU     LIG 2146  38.957   4.785   8.190
    4AU     LIG 2147  38.891   4.337   8.152
    4AU     LIG 2148  38.953   3.892   8.268
    4AU     LIG 2149  39.079   3.584   8.613
    4AU     LIG 2150  39.132   3.356   9.034
    4AU     LIG 2151  39.225   3.042   9.380
    4AU       S 2152  40.109   5.436   7.952
    4AU     LIG 2153  40.128   4.979   8.028
    4AU     LIG 2154  40.156   4.573   8.259
    4AU     LIG 2155  40.400   4.280   8.529
    4AU     LIG 2156  40.568   3.958   8.845
    4AU     LIG 2157  40.915   3.645   8.974
    4AU     LIG 2158  41.299   3.332   8.997
    4AU    AUSL 2159  39.167   5.581   7.710
    4AU    AUSL 2160  39.094   5.845   7.980
    4AU     AUL 2161  39.072   5.621   8.136
    4AU       S 2162  39.021   5.168   7.846
    4AU     LIG 2163  38.733   4.867   7.729
    4AU     LIG 2164  38.766   4.422   7.659
    4AU     LIG 2165  38.638   3.988   7.840
    4AU     LIG 2166  38.303   3.634   7.968
    4AU     LIG 2167  38.164   3.209   8.164
    4AU     LIG 2168  38.312   2.777   8.240
    4AU       S 2169  38.663   5.466   7.906
    4AU     LIG 2170  38.513   5.048   8.157
    4AU     LIG 2171  38.185   4.913   8.463
    4AU     LIG 2172  37.950   4.660   8.782
    4AU     LIG 2173  37.691   4.456   9.113
    4AU     LIG 2174  37.595   4.313   9.551
    4AU     LIG 2175  37.605   3.974   9.884
    4AU    AUSL 2176  39.490   5.592   7.664
    4AU    AUSL 2177  39.200   5.539   7.379
    4AU     AUL 2178  39.554   5.330   7.593
    4AU       S 2179  38.928   5.165   7.369
    4AU     LIG 2180  38.646   4.798   7.234
    4AU     LIG 2181  38.656   4.327   7.166
    4AU     LIG 2182  38.673   3.872   7.005
    4AU     LIG 2183  38.398   3.457   6.941
    4AU     LIG 2184  38.332   3.016   6.743
    4AU     LIG 2185  38.238   2.564   6.634
    4AU       S 2186  39.151   5.192   7.813
    4AU     LIG 2187  39.221   4.709   7.756
    4AU     LIG 2188  39.239   4.231   7.777
    4AU     LIG 2189  39.428   3.889   8.046
    4AU     LIG 2190  39.580   3.449   8.027
    4AU     LIG 2191  39.740   3.053   8.249
    4AU     LIG 2192  39.796   2.609   8.438
    4AU    AUSL 2193  39.425   6.876   7.058
    4AU    AUSL 2194  39.791   6.804   7.230
    4AU     AUL 2195  39.733   7.015   6.962
    4AU       S 2196  39.493   7.447   6.976
    4AU     LIG 2197  39.703   7.793   6.695
    4AU     LIG 2198  39.803   8.045   6.282
    4AU     LIG 2199  39.895   8.206   5.816
    4AU     LIG 2200  39.867   8.566   5.489
    4AU     LIG 2201  39.861   8.981   5.266
    4AU     LIG 2202  39.814   9.348   4.979
    4AU       S 2203  40.221   6.788   6.926
    4AU     LIG 2204  40.576   7.110   6.828
    4AU     LIG 2205  40.788   7.369   6.473
    4AU     LIG 2206  40.910   7.712   6.140
    4AU     LIG 2207  41.169   8.122   6.042
    4AU     LIG 2208  41.361   8.580   6.018
    4AU     LIG 2209  41.639   8.989   6.081
    4AU    AUSL 2210  39.236   6.950   7.327
    4AU    AUSL 2211  39.142   6.734   6.958
    4AU     AUL 2212  39.123   7.106   7.063
    4AU       S 2213  39.514   7.407   7.266
    4AU     LIG 2214  39.530   7.920   7.163
    4AU     LIG 2215  39.575   8.337   6.868
    4AU     LIG 2216  39.430   8.825   6.724
    4AU     LIG 2217  39.221   9.305   6.635
    4AU     LIG 2218  39.076   9.781   6.491
    4AU     LIG 2219  38.699  10.081   6.327
    4AU       S 2220  38.953   6.925   6.611
    4AU     LIG 2221  38.905   7.138   6.212
    4AU     LIG 2222  38.634   7.367   5.910
    4AU     LIG 2223  38.372   7.498   5.520
    4AU     LIG 2224  38.309   7.703   5.066
    4AU     LIG 2225  38.125   7.943   4.672
    4AU     LIG 2226  37.917   8.320   4.438
    4AU    AUSL 2227  39.324   5.685   7.107
    4AU    AUSL 2228  38.959   5.720   7.241
    4AU     AUL 2229  39.176   5.519   6.928
    4AU       S 2230  38.653   5.469   7.125
    4AU     LIG 2231  38.322   5.192   7.227
    4AU     LIG 2232  38.028   4.912   7.000
    4AU     LIG 2233  37.745   4.637   6.720
    4AU     LIG 2234  37.503   4.368   6.408
    4AU     LIG 2235  37.386   4.010   6.125
    4AU     LIG 2236  37.205   3.571   6.128
    4AU       S 2237  39.082   5.206   7.290
    4AU     LIG 2238  38.989   4.948   6.892
    4AU     LIG 2239  38.945   4.502   6.786
    4AU     LIG 2240  39.042   4.067   6.648
    4AU     LIG 2241  39.222   3.702   6.394
    4AU     LIG 2242  39.341   3.495   5.965
    4AU     LIG 2243  39.276   3.257   5.551
    4AU    AUSL 2244  39.534   5.567   7.338
    4AU    AUSL 2245  39.587   5.801   6.948
    4AU     AUL 2246  39.572   5.420   7.052
    4AU       S 2247  39.234   5.100   7.303
    4AU     LIG 2248  39.115   4.611   7.274
    4AU     LIG 2249  39.138   4.124   7.168
    4AU     LIG 2250  39.187   3.680   6.944
    4AU     LIG 2251  39.433   3.324   6.697
    4AU     LIG 2252  39.722   3.029   6.424
    4AU     LIG 2253  39.901   2.576   6.350
    4AU       S 2254  39.785   5.567   6.621
    4AU     LIG 2255  39.825   5.265   6.298
    4AU     LIG 2256  40.017   4.866   6.170
    4AU     LIG 2257  40.224   4.475   6.015
    4AU     LIG 2258  40.253   4.097   5.722
    4AU     LIG 2259  40.362   3.949   5.279
    4AU     LIG 2260  40.556   3.851   4.861
    5AU     AUC 2261   8.187  15.608   7.499
    5AU     AUC 2262   8.433  15.601   7.338
    5AU     AUC 2263   8.441  15.603   7.647
    5AU     AUC 2264   7.934  15.614   7.349
    5AU     AUC 2265   7.939  15.620   7.658
    5AU     AUC 2266   8.040  15.863   7.499
    5AU     AUC 2267   8.347  15.855   7.493
    5AU     AUC 2268   8.022  15.360   7.507
    5AU     AUC 2269   8.336  15.354   7.497
    5AU     AUC 2270   8.189  15.457   7.752
    5AU     AUC 2271   8.198  15.766   7.749
    5AU     AUC 2272   8.177  15.452   7.248
    5AU     AUC 2273   8.185  15.761   7.247
    5AU     AUC 2274   8.670  15.595   7.181
    5AU     AUC 2275   8.684  15.591   7.485
    5AU     AUC 2276   8.689  15.595   7.788
    5AU     AUC 2277   7.689  15.617   7.203
    5AU     AUC 2278   7.689  15.630   7.504
    5AU     AUC 2279   7.698  15.635   7.809
    5AU     AUC 2280   7.899  16.111   7.498
    5AU     AUC 2281   8.203  16.107   7.494
    5AU     AUC 2282   8.503  16.093   7.489
    5AU     AUC 2283   7.868  15.124   7.517
    5AU     AUC 2284   8.169  15.111   7.516
    5AU     AUC 2285   8.478  15.108   7.495
    5AU     AUC 2286   8.189  15.309   7.994
    5AU     AUC 2287   8.195  15.608   7.997
    5AU     AUC 2288   8.208  15.915   7.990
    5AU     AUC 2289   8.167  15.299   7.010
    5AU     AUC 2290   8.176  15.599   7.000
    5AU     AUC 2291   8.184  15.908   7.002
    5AU     AUC 2292   8.440  15.447   7.897
    5AU     AUC 2293   8.451  15.752   7.898
    5AU     AUC 2294   8.419  15.447   7.091
    5AU     AUC 2295   8.432  15.755   7.092
    5AU     AUC 2296   7.936  15.470   7.906
    5AU     AUC 2297   7.950  15.775   7.905
    5AU     AUC 2298   7.927  15.453   7.104
    5AU     AUC 2299   7.934  15.762   7.097
    5AU     AUC 2300   8.593  15.845   7.337
    5AU     AUC 2301   8.603  15.843   7.644
    5AU     AUC 2302   7.789  15.869   7.345
    5AU     AUC 2303   7.797  15.877   7.656
    5AU     AUC 2304   8.573  15.342   7.331
    5AU     AUC 2305   8.586  15.346   7.639
    5AU     AUC 2306   7.776  15.367   7.358
    5AU     AUC 2307   7.774  15.378   7.658
    5AU     AUC 2308   8.055  16.020   7.749
    5AU     AUC 2309   8.361  16.008   7.745
    5AU     AUC 2310   8.021  15.216   7.756
    5AU     AUC 2311   8.337  15.204   7.752
    5AU     AUC 2312   8.040  16.013   7.243
    5AU     AUC 2313   8.347  16.006   7.242
    5AU     AUC 2314   8.016  15.203   7.267
    5AU     AUC 2315   8.322  15.196   7.252
    5AU    AUSL 2316   8.615  15.558   8.074
    5AU    AUSL 2317   8.490  15.180   8.048
    5AU     AUL 2318   8.890  15.380   8.196
    5AU       S 2319   8.775  14.899   8.322
    5AU     LIG 2320   8.832  14.529   8.591
    5AU     LIG 2321   8.886  14.098   8.781
    5AU     LIG 2322   9.030  13.684   8.965
    5AU     LIG 2323   9.209  13.267   9.141
    5AU     LIG 2324   9.362  13.063   9.552
    5AU     LIG 2325   9.451  12.994  10.025
    5AU       S 2326   8.654  15.420   8.660
    5AU     LIG 2327   8.806  15.444   9.093
    5AU     LIG 2328   8.995  15.210   9.459
    5AU     LIG 2329   9.262  15.060   9.827
    5AU     LIG 2330   9.624  15.050  10.152
    5AU     LIG 2331   9.922  15.160  10.512
    5AU     LIG 2332  10.291  15.417  10.684
    5AU    AUSL 2333   8.330  15.427   8.209
    5AU    AUSL 2334   8.057  15.764   8.191
    5AU     AUL 2335   8.150  15.604   8.492
    5AU       S 2336   8.498  15.254   8.590
    5AU     LIG 2337   8.722  14.959   8.905
    5AU     LIG 2338   8.732  14.769   9.356
    5AU     LIG 2339   8.675  14.601   9.816
    5AU     LIG 2340   8.681  14.550  10.297
    5AU     LIG 2341   8.823  14.659  10.742
    5AU     LIG 2342   9.066  14.589  11.145
    5AU       S 2343   7.674  15.795   8.643
    5AU     LIG 2344   7.532  15.786   9.096
    5AU     LIG 2345   7.550  15.518   9.494
    5AU     LIG 2346   7.548  15.457   9.960
    5AU     LIG 2347   7.554  15.719  10.366
    5AU     LIG 2348   7.345  16.030  10.671
    5AU     LIG 2349   7.167  16.136  11.102
    5AU    AUSL 2350   8.388  15.769   8.208
    5AU    AUSL 2351   8.753  15.855   7.949
    5AU     AUL 2352   8.778  15.702   8.274
    5AU       S 2353   8.559  15.779   8.713
    5AU     LIG 2354   8.549  16.132   9.048
    5AU     LIG 2355   8.562  16.357   9.482
    5AU     LIG 2356   8.656  16.460   9.946
    5AU     LIG 2357   8.723  16.673  10.372
    5AU     LIG 2358   8.778  16.689  10.838
    5AU     LIG 2359   8.952  16.453  11.207
    5AU       S 2360   9.132  16.034   8.181
    5AU     LIG 2361   9.391  15.943   8.540
    5AU     LIG 2362   9.675  16.184   8.810
    5AU     LIG 2363   9.973  16.475   9.035
    5AU     LIG 2364  10.278  16.542   9.388
    5AU     LIG 2365  10.536  16.656   9.772
    5AU     LIG 2366  10.872  16.929   9.962
    5AU    AUSL 2367   8.616  15.649   6.893
    5AU    AUSL 2368   8.471  16.003   6.939
    5AU     AUL 2369   8.531  15.946   6.589
    5AU       S 2370   8.743  15.508   6.381
    5AU     LIG 2371   8.895  15.133   6.127
    5AU     LIG 2372   9.084  15.052   5.697
    5AU     LIG 2373   9.261  15.099   5.249
    5AU     LIG 2374   9.643  15.037   4.945
    5AU     LIG 2375  10.080  15.088   4.722
    5AU     LIG 2376  10.429  15.214   4.412
    5AU       S 2377   8.952  16.202   6.683
    5AU     LIG 2378   9.208  16.397   6.326
    5AU     LIG 2379   9.484  16.582   5.973
    5AU     LIG 2380   9.738  16.691   5.563
    5AU     LIG 2381   9.841  16.931   5.142
    5AU     LIG 2382   9.773  17.351   4.897
    5AU     LIG 2383   9.693  17.677   4.562
    5AU    AUSL 2384   8.377  15.428   6.797
    5AU    AUSL 2385   8.657  15.331   7.020
    5AU     AUL 2386   8.875  15.466   6.855
    5AU       S 2387   8.814  15.015   6.624
    5AU     LIG 2388   9.099  14.721   6.374
    5AU     LIG 2389   9.256  14.284   6.256
    5AU     LIG 2390   9.441  13.915   6.021
    5AU     LIG 2391   9.711  13.766   5.655
    5AU     LIG 2392  10.086  13.797   5.348
    5AU     LIG 2393  10.447  13.835   5.026
    5AU       S 2394   8.462  15.305   6.414
    5AU     LIG 2395   8.395  15.003   6.120
    5AU     LIG 2396   8.579  14.931   5.714
    5AU     LIG 2397   8.778  14.895   5.281
    5AU     LIG 2398   8.857  14.727   4.846
    5AU     LIG 2399   9.066  14.605   4.433
    5AU     LIG 2400   9.241  14.649   3.985
    5AU    AUSL 2401   8.310  15.750   6.802
    5AU    AUSL 2402   8.031  15.431   6.782
    5AU     AUL 2403   8.190  15.776   6.534
    5AU       S 2404   7.992  15.177   6.420
    5AU     LIG 2405   7.884  14.913   6.058
    5AU     LIG 2406   7.692  14.836   5.633
    5AU     LIG 2407   7.464  14.773   5.218
    5AU     LIG 2408   7.182  14.652   4.855
    5AU     LIG 2409   7.130  14.580   4.391
    5AU     LIG 2410   7.064  14.601   3.932
    5AU       S 2411   8.521  15.436   6.410
    5AU     LIG 2412   8.570  15.448   5.909
    5AU     LIG 2413   8.738  15.371   5.475
    5AU     LIG 2414   8.853  15.379   5.013
    5AU     LIG 2415   8.856  15.687   4.623
    5AU     LIG 2416   8.858  16.030   4.262
    5AU     LIG 2417   9.089  16.204   3.873
    5AU    AUSL 2418   7.756  15.660   8.111
    5AU    AUSL 2419   7.935  16.046   8.058
    5AU     AUL 2420   8.060  15.974   8.380
    5AU       S 2421   7.511  15.703   8.457
    5AU     LIG 2422   7.202  15.540   8.793
    5AU     LIG 2423   7.138  15.357   9.228
    5AU     LIG 2424   7.029  15.144   9.645
    5AU     LIG 2425   6.653  15.031   9.933
    5AU     LIG 2426   6.324  15.106  10.268
    5AU     LIG 2427   6.227  15.198  10.699
    5AU       S 2428   7.610  16.202   8.381
    5AU     LIG 2429   7.574  16.295   8.842
    5AU     LIG 2430   7.448  16.591   9.206
    5AU     LIG 2431   7.317  16.743   9.640
    5AU     LIG 2432   7.240  16.918  10.083
    5AU     LIG 2433   6.980  17.191  10.364
    5AU     LIG 2434   6.671  17.483  10.556
    5AU    AUSL 2435   7.996  15.431   8.201
    5AU    AUSL 2436   7.651  15.380   7.953
    5AU     AUL 2437   7.673  15.260   8.264
    5AU       S 2438   7.358  14.857   8.098
    5AU     LIG 2439   6.958  14.650   8.217
    5AU     LIG 2440   6.596  14.425   8.415
    5AU     LIG 2441   6.254  14.162   8.597
    5AU     LIG 2442   6.032  13.909   8.909
    5AU     LIG 2443   5.756  13.895   9.287
    5AU     LIG 2444   5.442  14.035   9.617
    5AU       S 2445   7.690  15.537   8.672
    5AU     LIG 2446   7.608  15.264   9.035
    5AU     LIG 2447   7.486  15.004   9.416
    5AU     LIG 2448   7.351  14.734   9.779
    5AU     LIG 2449   7.147  14.649  10.190
    5AU     LIG 2450   7.161  14.570  10.654
    5AU     LIG 2451   7.290  14.652  11.099
    5AU    AUSL 2452   7.743  15.565   6.921
    5AU    AUSL 2453   7.889  15.185   6.961
    5AU     AUL 2454   7.606  15.316   6.758
    5AU       S 2455   7.765  15.440   6.303
    5AU     LIG 2456   7.561  15.286   5.897
    5AU     LIG 2457   7.349  15.206   5.474
    5AU     LIG 2458   6.992  15.035   5.187
    5AU     LIG 2459   6.528  15.033   5.004
    5AU     LIG 2460   6.186  15.111   4.662
    5AU     LIG 2461   6.036  15.291   4.241
    5AU       S 2462   7.506  14.813   6.822
    5AU     LIG 2463   7.260  14.421   6.806
    5AU     LIG 2464   6.990  14.149   6.557
    5AU     LIG 2465   6.659  14.047   6.231
    5AU     LIG 2466   6.416  13.834   5.866
    5AU     LIG 2467   6.313  13.738   5.391
    5AU     LIG 2468   6.220  13.425   5.024
    5AU    AUSL 2469   7.978  15.765   6.808
    5AU    AUSL 2470   7.655  15.875   7.034
    5AU     AUL 2471   7.585  15.724   6.688
    5AU       S 2472   7.432  16.195   6.689
    5AU     LIG 2473   7.250  16.270   6.236
    5AU     LIG 2474   7.025  16.481   5.849
    5AU     LIG 2475   6.806  16.617   5.430
    5AU     LIG 2476   6.467  16.760   5.100
    5AU     LIG 2477   6.038  16.848   4.881
    5AU     LIG 2478   5.596  17.019   4.772
    5AU       S 2479   7.966  15.381   6.385
    5AU     LIG 2480   8.072  15.360   5.909
    5AU     LIG 2481   7.882  15.287   5.474
    5AU     LIG 2482   7.666  15.269   5.039
    5AU     LIG 2483   7.632  15.465   4.575
    5AU     LIG 2484   7.563  15.717   4.146
    5AU     LIG 2485   7.435  15.914   3.710
    5AU    AUSL 2486   8.795  16.010   7.455
    5AU    AUSL 2487   8.757  15.886   7.094
    5AU     AUL 2488   8.863  16.323   7.336
    5AU       S 2489   9.079  15.953   6.825
    5AU     LIG 2490   9.390  15.942   6.500
    5AU     LIG 2491   9.700  16.205   6.274
    5AU     LIG 2492   9.981  16.460   5.986
    5AU     LIG 2493  10.240  16.517   5.588
    5AU     LIG 2494  10.617  16.619   5.312
    5AU     LIG 2495  10.806  16.917   5.003
    5AU       S 2496   9.320  16.083   7.353
    5AU     LIG 2497   9.801  16.163   7.337
    5AU     LIG 2498  10.298  16.096   7.406
    5AU     LIG 2499  10.785  16.243   7.408
    5AU     LIG 2500  11.119  16.630   7.398
    5AU     LIG 2501  11.444  17.001   7.493
    5AU     LIG 2502  11.599  17.435   7.343
    5AU    AUSL 2503   8.908  15.709   7.328
    5AU    AUSL 2504   8.891  15.441   7.613
    5AU     AUL 2505   9.194  15.424   7.371
    5AU       S 2506   9.334  15.887   7.248
    5AU     LIG 2507   9.781  15.679   7.173
    5AU     LIG 2508  10.274  15.615   7.214
    5AU     LIG 2509  10.755  15.721   7.285
    5AU     LIG 2510  11.158  15.963   7.114
    5AU     LIG 2511  11.547  16.187   6.922
    5AU     LIG 2512  12.005  16.380   6.975
    5AU       S 2513   9.267  14.973   7.663
    5AU     LIG 2514   9.728  14.899   7.765
    5AU     LIG 2515  10.086  14.659   7.941
    5AU     LIG 2516  10.553  14.628   7.903
    5AU     LIG 2517  11.024  14.603   7.967
    5AU     LIG 2518  11.472  14.399   7.943
    5AU     LIG 2519  11.893  14.603   7.941
    5AU    AUSL 2520   8.902  15.768   7.666
    5AU    AUSL 2521   8.650  16.104   7.749
    5AU     AUL 2522   8.958  16.157   7.713
    5AU       S 2523   8.975  16.194   8.204
    5AU     LIG 2524   9.297  16.443   8.469
    5AU     LIG 2525   9.608  16.691   8.720
    5AU     LIG 2526   9.836  17.024   8.957
    5AU     LIG 2527  10.105  17.397   8.939
    5AU     LIG 2528  10.149  17.851   8.955
    5AU     LIG 2529  10.338  18.287   8.978
    5AU       S 2530   9.368  15.867   7.604
    5AU     LIG 2531   9.844  15.771   7.672
    5AU     LIG 2532  10.305  15.677   7.726
    5AU     LIG 2533  10.773  15.647   7.811
    5AU     LIG 2534  11.148  15.823   8.015
    5AU     LIG 2535  11.581  15.981   7.950
    5AU     LIG 2536  11.906  16.040   8.274
    5AU    AUSL 2537   7.604  16.079   7.527
    5AU    AUSL 2538   7.646  15.911   7.905
    5AU     AUL 2539   7.534  16.358   7.747
    5AU       S 2540   7.350  16.051   8.164
    5AU     LIG 2541   7.180  16.045   8.620
    5AU     LIG 2542   7.068  16.340   8.970
    5AU     LIG 2543   6.881  16.584   9.334
    5AU     LIG 2544   6.465  16.643   9.594
    5AU     LIG 2545   6.044  16.797   9.795
    5AU     LIG 2546   5.630  16.968   9.984
    5AU       S 2547   7.090  16.148   7.671
    5AU     LIG 2548   6.735  16.450   7.620
    5AU     LIG 2549   6.433  16.833   7.623
    5AU     LIG 2550   6.154  17.240   7.635
    5AU     LIG 2551   5.839  17.579   7.743
    5AU     LIG 2552   5.440  17.719   7.535
    5AU     LIG 2553   4.989  17.845   7.646
    5AU    AUSL 2554   7.515  15.821   7.328
    5AU    AUSL 2555   7.746  16.145   7.227
    5AU     AUL 2556   7.390  16.133   7.219
    5AU       S 2557   6.944  15.940   7.504
    5AU     LIG 2558   6.531  16.003   7.251
    5AU     LIG 2559   6.272  16.147   6.859
    5AU     LIG 2560   5.824  16.305   6.747
    5AU     LIG 2561   5.345  16.346   6.738
    5AU     LIG 2562   4.922  16.518   6.638
    5AU     LIG 2563   4.481  16.537   6.782
    5AU       S 2564   7.488  16.424   6.805
    5AU     LIG 2565   7.370  16.719   6.446
    5AU     LIG 2566   7.238  17.068   6.143
    5AU     LIG 2567   7.099  17.532   6.069
    5AU     LIG 2568   6.747  17.845   5.995
    5AU     LIG 2569   6.337  18.067   5.884
    5AU     LIG 2570   6.146  18.478   5.744
    5AU    AUSL 2571   7.472  15.788   7.649
    5AU    AUSL 2572   7.451  15.496   7.350
    5AU     AUL 2573   7.271  15.763   7.192
    5AU       S 2574   7.008  15.287   7.437
    5AU     LIG 2575   6.519  15.287   7.654
    5AU     LIG 2576   6.008  15.282   7.710
    5AU     LIG 2577   5.509  15.301   7.687
    5AU     LIG 2578   5.185  15.298   7.339
    5AU     LIG 2579   4.903  14.956   7.211
    5AU     LIG 2580   4.602  14.615   7.074
    5AU       S 2581   7.090  15.828   7.803
    5AU     LIG 2582   6.630  16.029   7.921
    5AU     LIG 2583   6.334  16.217   8.286
    5AU     LIG 2584   5.844  16.278   8.398
    5AU     LIG 2585   5.357  16.289   8.419
    5AU     LIG 2586   4.876  16.404   8.389
    5AU     LIG 2587   4.417  16.368   8.505
    5AU    AUSL 2588   8.784  15.143   7.504
    5AU    AUSL 2589   8.741  15.316   7.879
    5AU     AUL 2590   9.076  15.389   7.833
    5AU       S 2591   9.006  14.765   7.498
    5AU     LIG 2592   9.350  14.490   7.707
    5AU     LIG 2593   9.804  14.412   7.587
    5AU     LIG 2594  10.274  14.361   7.538
    5AU     LIG 2595  10.676  14.125   7.431
    5AU     LIG 2596  10.937  13.694   7.443
    5AU     LIG 2597  11.299  13.503   7.693
    5AU       S 2598   8.951  14.912   8.090
    5AU     LIG 2599   9.268  14.723   8.371
    5AU     LIG 2600   9.320  14.330   8.616
    5AU     LIG 2601   9.467  13.935   8.827
    5AU     LIG 2602   9.816  13.781   9.124
    5AU     LIG 2603  10.217  13.783   9.397
    5AU     LIG 2604  10.590  13.687   9.680
    5AU    AUSL 2605   8.844  15.389   7.288
    5AU    AUSL 2606   8.608  15.058   7.218
    5AU     AUL 2607   8.974  15.165   7.114
    5AU       S 2608   9.110  14.934   7.525
    5AU     LIG 2609   9.546  14.774   7.298
    5AU     LIG 2610  10.007  14.650   7.168
    5AU     LIG 2611  10.499  14.608   7.142
    5AU     LIG 2612  10.962  14.597   7.044
    5AU     LIG 2613  11.429  14.498   7.034
    5AU     LIG 2614  11.709  14.108   7.090
    5AU       S 2615   8.825  14.779   6.818
    5AU     LIG 2616   8.920  14.329   6.664
    5AU     LIG 2617   9.077  13.882   6.536
    5AU     LIG 2618   9.327  13.521   6.350
    5AU     LIG 2619   9.472  13.146   6.096
    5AU     LIG 2620   9.702  12.744   6.052
    5AU     LIG 2621   9.977  12.389   5.961
    5AU    AUSL 2622   7.563  15.209   7.472
    5AU    AUSL 2623   7.633  15.329   7.126
    5AU     AUL 2624   7.344  15.414   7.052
    5AU       S 2625   7.323  14.916   6.991
    5AU     LIG 2626   6.891  14.784   6.905
    5AU     LIG 2627   6.618  14.502   6.649
    5AU     LIG 2628   6.253  14.284   6.446
    5AU     LIG 2629   6.022  14.081   6.101
    5AU     LIG 2630   5.763  14.124   5.706
    5AU     LIG 2631   5.567  13.950   5.307
    5AU       S 2632   7.168  15.102   7.431
    5AU     LIG 2633   6.734  14.867   7.419
    5AU     LIG 2634   6.244  14.875   7.461
    5AU     LIG 2635   5.825  14.647   7.566
    5AU     LIG 2636   5.451  14.318   7.552
    5AU     LIG 2637   5.056  14.021   7.574
    5AU     LIG 2638   4.897  13.715   7.263
    5AU    AUSL 2639   7.496  15.468   7.677
    5AU    AUSL 2640   7.700  15.093   7.759
    5AU     AUL 2641   7.358  15.291   7.874
    5AU       S 2642   7.430  14.760   7.740
    5AU     LIG 2643   7.111  14.447   7.771
    5AU     LIG 2644   6.754  14.237   7.952
    5AU     LIG 2645   6.550  13.930   8.238
    5AU     LIG 2646   6.346  13.635   8.555
    5AU     LIG 2647   6.217  13.169   8.659
    5AU     LIG 2648   5.951  12.798   8.813
    5AU       S 2649   7.042  15.413   7.508
    5AU     LIG 2650   6.621  15.495   7.215
    5AU     LIG 2651   6.167  15.343   7.222
    5AU     LIG 2652   5.750  15.085   7.291
    5AU     LIG 2653   5.356  14.845   7.479
    5AU     LIG 2654   4.933  14.828   7.708
    5AU     LIG 2655   4.588  14.504   7.692
    5AU    AUSL 2656   8.210  16.215   7.935
    5AU    AUSL 2657   7.813  16.162   7.772
    5AU     AUL 2658   7.902  16.424   7.985
    5AU       S 2659   7.514  16.255   8.246
    5AU     LIG 2660   7.250  16.547   8.518
    5AU     LIG 2661   7.161  16.864   8.859
    5AU     LIG 2662   7.090  17.338   8.949
    5AU     LIG 2663   6.909  17.792   8.995
    5AU     LIG 2664   6.556  18.065   9.173
    5AU     LIG 2665   6.123  18.063   9.391
    5AU       S 2666   8.277  16.744   8.062
    5AU     LIG 2667   8.514  16.945   8.396
    5AU     LIG 2668   8.546  17.327   8.641
    5AU     LIG 2669   8.576  17.759   8.802
    5AU     LIG 2670   8.507  17.987   9.226
    5AU     LIG 2671   8.319  18.225   9.607
    5AU     LIG 2672   8.101  18.611   9.799
    5AU    AUSL 2673   8.065  16.329   7.644
    5AU    AUSL 2674   8.352  16.338   7.335
    5AU     AUL 2675   7.894  16.563   7.442
    5AU       S 2676   8.182  16.823   7.778
    5AU     LIG 2677   8.260  17.250   8.056
    5AU     LIG 2678   8.305  17.660   8.315
    5AU     LIG 2679   8.093  18.096   8.386
    5AU     LIG 2680   7.841  18.516   8.404
    5AU     LIG 2681   7.706  18.954   8.583
    5AU     LIG 2682   7.515  19.388   8.633
    5AU       S 2683   8.507  16.747   7.259
    5AU     LIG 2684   8.807  17.057   7.096
    5AU     LIG 2685   8.920  17.420   6.821
    5AU     LIG 2686   8.982  17.867   6.683
    5AU     LIG 2687   9.214  18.297   6.659
    5AU     LIG 2688   9.433  18.706   6.511
    5AU     LIG 2689   9.353  19.159   6.425
    5AU    AUSL 2690   8.400  16.303   7.658
    5AU    AUSL 2691   8.473  16.035   8.035
    5AU     AUL 2692   8.575  16.368   7.945
    5AU       S 2693   8.782  16.181   8.353
    5AU     LIG 2694   8.980  16.162   8.759
    5AU     LIG 2695   9.266  16.422   9.012
    5AU     LIG 2696   9.564  16.696   9.251
    5AU     LIG 2697   9.893  16.841   9.552
    5AU     LIG 2698   9.979  17.112   9.936
    5AU     LIG 2699   9.810  17.501  10.158
    5AU       S 2700   8.415  16.786   7.736
    5AU     LIG 2701   8.720  17.068   7.939
    5AU     LIG 2702   8.787  17.459   8.208
    5AU     LIG 2703   9.038  17.851   8.376
    5AU     LIG 2704   9.205  18.303   8.297
    5AU     LIG 2705   9.264  18.766   8.225
    5AU     LIG 2706   9.272  19.199   8.409
    5AU    AUSL 2707   8.198  15.026   7.973
    5AU    AUSL 2708   8.595  15.038   7.754
    5AU     AUL 2709   8.422  14.784   7.988
    5AU       S 2710   8.028  14.476   8.077
    5AU     LIG 2711   7.807  14.062   8.180
    5AU     LIG 2712   7.620  13.649   8.267
    5AU     LIG 2713   7.719  13.215   8.390
    5AU     LIG 2714   7.761  12.827   8.639
    5AU     LIG 2715   7.876  12.610   9.045
    5AU     LIG 2716   8.109  12.390   9.399
    5AU       S 2717   8.920  14.754   7.979
    5AU     LIG 2718   9.041  14.319   8.154
    5AU     LIG 2719   9.152  13.895   8.389
    5AU     LIG 2720   9.305  13.475   8.589
    5AU     LIG 2721   9.452  13.037   8.736
    5AU     LIG 2722   9.805  12.744   8.874
    5AU     LIG 2723  10.188  12.439   8.944
    5AU    AUSL 2724   7.982  14.916   7.724
    5AU    AUSL 2725   7.914  15.185   7.993
    5AU     AUL 2726   7.903  14.958   8.150
    5AU       S 2727   7.835  14.485   7.866
    5AU     LIG 2728   7.559  14.159   7.733
    5AU     LIG 2729   7.509  13.696   7.764
    5AU     LIG 2730   7.478  13.229   7.939
    5AU     LIG 2731   7.330  12.772   8.133
    5AU     LIG 2732   7.255  12.257   8.144
    5AU     LIG 2733   7.278  11.782   8.284
    5AU       S 2734   7.491  14.800   7.932
    5AU     LIG 2735   7.404  14.374   8.175
    5AU     LIG 2736   7.040  14.145   8.375
    5AU     LIG 2737   6.733  14.005   8.712
    5AU     LIG 2738   6.508  13.757   9.036
    5AU     LIG 2739   6.365  13.620   9.460
    5AU     LIG 2740   6.366  13.377   9.865
    5AU    AUSL 2741   8.301  14.929   7.668
    5AU    AUSL 2742   8.011  14.873   7.392
    5AU     AUL 2743   8.363  14.662   7.601
    5AU       S 2744   7.729  14.501   7.390
    5AU     LIG 2745   7.424  14.156   7.246
    5AU     LIG 2746   7.442  13.693   7.249
    5AU     LIG 2747   7.427  13.258   7.064
    5AU     LIG 2748   7.175  12.873   6.910
    5AU     LIG 2749   6.986  12.479   6.716
    5AU     LIG 2750   7.064  12.153   6.419
    5AU       S 2751   7.956  14.540   7.824
    5AU     LIG 2752   8.064  14.056   7.745
    5AU     LIG 2753   7.994  13.600   7.907
    5AU     LIG 2754   8.096  13.138   8.035
    5AU     LIG 2755   8.382  12.754   8.164
    5AU     LIG 2756   8.632  12.330   8.180
    5AU     LIG 2757   8.694  11.846   8.259
    5AU    AUSL 2758   8.220  16.204   7.047
    5AU    AUSL 2759   8.594  16.141   7.221
    5AU     AUL 2760   8.525  16.340   6.941
    5AU       S 2761   8.283  16.770   6.957
    5AU     LIG 2762   8.509  17.092   6.676
    5AU     LIG 2763   8.680  17.417   6.364
    5AU     LIG 2764   8.756  17.576   5.915
    5AU     LIG 2765   8.570  17.839   5.559
    5AU     LIG 2766   8.371  18.246   5.412
    5AU     LIG 2767   8.297  18.683   5.233
    5AU       S 2768   9.019  16.124   6.919
    5AU     LIG 2769   9.432  16.353   6.805
    5AU     LIG 2770   9.623  16.669   6.485
    5AU     LIG 2771   9.720  17.019   6.178
    5AU     LIG 2772   9.975  17.409   6.128
    5AU     LIG 2773  10.155  17.797   5.934
    5AU     LIG 2774  10.182  18.261   5.979
    5AU    AUSL 2775   8.033  16.280   7.318
    5AU    AUSL 2776   7.936  16.058   6.955
    5AU     AUL 2777   7.916  16.430   7.053
    5AU       S 2778   8.307  16.738   7.246
    5AU     LIG 2779   8.328  17.235   7.143
    5AU     LIG 2780   8.425  17.596   6.820
    5AU     LIG 2781   8.303  18.044   6.657
    5AU     LIG 2782   8.049  18.473   6.601
    5AU     LIG 2783   7.808  18.907   6.537
    5AU     LIG 2784   7.675  19.388   6.497
    5AU       S 2785   7.736  16.247   6.608
    5AU     LIG 2786   7.733  16.451   6.198
    5AU     LIG 2787   7.490  16.686   5.878
    5AU     LIG 2788   7.305  16.779   5.437
    5AU     LIG 2789   7.295  17.008   5.001
    5AU     LIG 2790   7.142  17.275   4.637
    5AU     LIG 2791   6.900  17.673   4.618
    5AU    AUSL 2792   8.131  15.016   7.117
    5AU    AUSL 2793   7.769  15.051   7.252
    5AU     AUL 2794   7.990  14.848   6.940
    5AU       S 2795   7.465  14.799   7.130
    5AU     LIG 2796   7.131  14.559   7.287
    5AU     LIG 2797   6.836  14.263   7.063
    5AU     LIG 2798   6.545  13.998   6.765
    5AU     LIG 2799   6.299  13.741   6.432
    5AU     LIG 2800   6.209  13.290   6.279
    5AU     LIG 2801   6.042  12.867   6.117
    5AU       S 2802   7.885  14.541   7.305
    5AU     LIG 2803   7.754  14.314   6.901
    5AU     LIG 2804   7.649  13.870   6.815
    5AU     LIG 2805   7.742  13.424   6.673
    5AU     LIG 2806   7.834  13.084   6.356
    5AU     LIG 2807   7.871  12.864   5.932
    5AU     LIG 2808   7.890  12.502   5.628
    5AU    AUSL 2809   8.345  14.902   7.345
    5AU    AUSL 2810   8.393  15.131   6.955
    5AU     AUL 2811   8.386  14.752   7.063
    5AU       S 2812   8.038  14.441   7.309
    5AU     LIG 2813   7.896  13.980   7.275
    5AU     LIG 2814   7.930  13.516   7.144
    5AU     LIG 2815   8.197  13.125   6.970
    5AU     LIG 2816   8.532  12.737   6.949
    5AU     LIG 2817   8.731  12.279   6.858
    5AU     LIG 2818   8.706  11.825   6.673
    5AU       S 2819   8.583  14.896   6.622
    5AU     LIG 2820   8.619  14.571   6.307
    5AU     LIG 2821   8.766  14.136   6.194
    5AU     LIG 2822   8.956  13.724   6.054
    5AU     LIG 2823   9.249  13.486   5.777
    5AU     LIG 2824   9.436  13.462   5.338
    5AU     LIG 2825   9.600  13.260   4.947
    6AU     AUC 2826  12.038  33.100   7.499
    6AU     AUC 2827  12.285  33.095   7.338
    6AU     AUC 2828  12.292  33.090   7.648
    6AU     AUC 2829  11.786  33.110   7.348
    6AU     AUC 2830  11.790  33.110   7.657
    6AU     AUC 2831  11.893  33.355   7.504
    6AU     AUC 2832  12.200  33.346   7.499
    6AU     AUC 2833  11.873  32.852   7.501
    6AU     AUC 2834  12.186  32.845   7.493
    6AU     AUC 2835  12.038  32.943   7.748
    6AU     AUC 2836  12.049  33.252   7.752
    6AU     AUC 2837  12.028  32.949   7.245
    6AU     AUC 2838  12.038  33.259   7.250
    6AU     AUC 2839  12.522  33.092   7.181
    6AU     AUC 2840  12.535  33.080   7.485
    6AU     AUC 2841  12.539  33.077   7.789
    6AU     AUC 2842  11.541  33.117   7.202
    6AU     AUC 2843  11.540  33.122   7.503
    6AU     AUC 2844  11.549  33.123   7.808
    6AU     AUC 2845  11.753  33.603   7.509
    6AU     AUC 2846  12.058  33.598   7.505
    6AU     AUC 2847  12.357  33.584   7.500
    6AU     AUC 2848  11.717  32.616   7.505
    6AU     AUC 2849  12.019  32.603   7.507
    6AU     AUC 2850  12.327  32.599   7.487
    6AU     AUC 2851  12.035  32.791   7.988
    6AU     AUC 2852  12.045  33.090   7.997
    6AU     AUC 2853  12.061  33.394   7.997
    6AU     AUC 2854  12.019  32.801   7.003
    6AU     AUC 2855  12.029  33.102   7.000
    6AU     AUC 2856  12.037  33.411   7.009
    6AU     AUC 2857  12.288  32.930   7.895
    6AU     AUC 2858  12.303  33.234   7.901
    6AU     AUC 2859  12.271  32.947   7.088
    6AU     AUC 2860  12.285  33.254   7.095
    6AU     AUC 2861  11.785  32.956   7.902
    6AU     AUC 2862  11.802  33.260   7.908
    6AU     AUC 2863  11.780  32.954   7.099
    6AU     AUC 2864  11.786  33.263   7.100
    6AU     AUC 2865  12.446  33.339   7.342
    6AU     AUC 2866  12.456  33.329   7.648
    6AU     AUC 2867  11.641  33.364   7.351
    6AU     AUC 2868  11.650  33.366   7.660
    6AU     AUC 2869  12.423  32.836   7.325
    6AU     AUC 2870  12.436  32.833   7.636
    6AU     AUC 2871  11.628  32.862   7.350
    6AU     AUC 2872  11.625  32.868   7.651
    6AU     AUC 2873  11.910  33.506   7.758
    6AU     AUC 2874  12.215  33.493   7.753
    6AU     AUC 2875  11.868  32.704   7.746
    6AU     AUC 2876  12.186  32.691   7.744
    6AU     AUC 2877  11.893  33.510   7.252
    6AU     AUC 2878  12.201  33.503   7.251
    6AU     AUC 2879  11.868  32.700   7.257
    6AU     AUC 2880  12.172  32.692   7.244
    6AU    AUSL 2881  12.464  33.044   8.078
    6AU    AUSL 2882  12.324  32.659   8.033
    6AU     AUL 2883  12.454  32.752   8.359
    6AU       S 2884  12.709  32.335   8.234
    6AU     LIG 2885  12.778  32.053   8.582
    6AU     LIG 2886  12.790  31.639   8.783
    6AU     LIG 2887  12.937  31.279   9.023
    6AU     LIG 2888  13.235  31.114   9.334
    6AU     LIG 2889  13.261  30.986   9.797
    6AU     LIG 2890  13.345  30.942  10.267
    6AU       S 2891  12.610  33.210   8.640
    6AU     LIG 2892  12.922  33.044   8.954
    6AU     LIG 2893  13.025  32.705   9.297
    6AU     LIG 2894  13.222  32.479   9.684
    6AU     LIG 2895  13.588  32.515  10.011
    6AU     LIG 2896  13.906  32.719  10.311
    6AU     LIG 2897  14.147  32.957  10.639
    6AU    AUSL 2898  12.177  32.916   8.205
    6AU    AUSL 2899  11.916  33.237   8.210
    6AU     AUL 2900  12.006  32.978   8.507
    6AU       S 2901  12.430  33.056   8.754
    6AU     LIG 2902  12.578  32.653   9.005
    6AU     LIG 2903  12.668  32.338   9.372
    6AU     LIG 2904  12.764  32.207   9.832
    6AU     LIG 2905  12.695  32.104  10.312
    6AU     LIG 2906  12.725  32.132  10.800
    6AU     LIG 2907  12.967  31.961  11.176
    6AU       S 2908  11.559  33.272   8.655
    6AU     LIG 2909  11.360  33.299   9.091
    6AU     LIG 2910  11.314  33.041   9.494
    6AU     LIG 2911  11.270  32.876   9.939
    6AU     LIG 2912  11.260  33.030  10.400
    6AU     LIG 2913  11.238  33.243  10.838
    6AU     LIG 2914  11.205  33.350  11.302
    6AU    AUSL 2915  12.248  33.249   8.210
    6AU    AUSL 2916  12.610  33.326   7.951
    6AU     AUL 2917  12.693  33.028   8.195
    6AU       S 2918  12.355  33.412   8.604
    6AU     LIG 2919  12.394  33.710   8.990
    6AU     LIG 2920  12.564  33.960   9.382
    6AU     LIG 2921  12.591  34.109   9.858
    6AU     LIG 2922  12.759  34.190  10.305
    6AU     LIG 2923  12.918  34.037  10.729
    6AU     LIG 2924  12.942  33.869  11.178
    6AU       S 2925  12.993  33.436   8.164
    6AU     LIG 2926  13.203  33.375   8.567
    6AU     LIG 2927  13.495  33.653   8.822
    6AU     LIG 2928  13.811  33.948   9.035
    6AU     LIG 2929  14.036  34.149   9.405
    6AU     LIG 2930  14.421  34.151   9.715
    6AU     LIG 2931  14.846  34.179   9.960
    6AU    AUSL 2932  12.468  33.152   6.895
    6AU    AUSL 2933  12.324  33.506   6.947
    6AU     AUL 2934  12.387  33.454   6.596
    6AU       S 2935  12.591  33.018   6.376
    6AU     LIG 2936  12.732  32.657   6.100
    6AU     LIG 2937  12.918  32.543   5.678
    6AU     LIG 2938  13.141  32.577   5.255
    6AU     LIG 2939  13.573  32.543   5.019
    6AU     LIG 2940  13.981  32.580   4.766
    6AU     LIG 2941  14.186  32.736   4.369
    6AU       S 2942  12.810  33.705   6.698
    6AU     LIG 2943  13.083  33.895   6.361
    6AU     LIG 2944  13.339  34.117   6.014
    6AU     LIG 2945  13.558  34.244   5.597
    6AU     LIG 2946  13.669  34.503   5.211
    6AU     LIG 2947  13.708  34.871   4.918
    6AU     LIG 2948  13.762  35.287   4.703
    6AU    AUSL 2949  12.229  32.933   6.793
    6AU    AUSL 2950  12.509  32.831   7.015
    6AU     AUL 2951  12.726  32.969   6.849
    6AU       S 2952  12.663  32.526   6.608
    6AU     LIG 2953  12.904  32.231   6.324
    6AU     LIG 2954  13.118  31.826   6.220
    6AU     LIG 2955  13.388  31.523   5.982
    6AU     LIG 2956  13.654  31.401   5.604
    6AU     LIG 2957  14.086  31.369   5.383
    6AU     LIG 2958  14.406  31.296   5.033
    6AU       S 2959  12.308  32.816   6.398
    6AU     LIG 2960  12.239  32.517   6.098
    6AU     LIG 2961  12.410  32.441   5.681
    6AU     LIG 2962  12.628  32.408   5.244
    6AU     LIG 2963  12.651  32.182   4.803
    6AU     LIG 2964  12.735  32.000   4.348
    6AU     LIG 2965  12.870  31.864   3.905
    6AU    AUSL 2966  12.164  33.256   6.806
    6AU    AUSL 2967  11.884  32.941   6.777
    6AU     AUL 2968  12.046  33.287   6.536
    6AU       S 2969  11.838  32.686   6.407
    6AU     LIG 2970  11.734  32.400   6.048
    6AU     LIG 2971  11.552  32.274   5.622
    6AU     LIG 2972  11.362  32.249   5.179
    6AU     LIG 2973  11.042  32.053   4.865
    6AU     LIG 2974  10.981  31.862   4.436
    6AU     LIG 2975  11.100  31.917   3.998
    6AU       S 2976  12.372  32.941   6.414
    6AU     LIG 2977  12.393  32.975   5.907
    6AU     LIG 2978  12.580  32.888   5.478
    6AU     LIG 2979  12.743  32.908   5.036
    6AU     LIG 2980  12.703  33.198   4.641
    6AU     LIG 2981  12.731  33.304   4.164
    6AU     LIG 2982  12.828  33.523   3.751
    6AU    AUSL 2983  11.611  33.151   8.109
    6AU    AUSL 2984  11.786  33.518   8.063
    6AU     AUL 2985  11.897  33.482   8.364
    6AU       S 2986  11.360  33.191   8.459
    6AU     LIG 2987  11.045  33.038   8.786
    6AU     LIG 2988  10.958  32.822   9.194
    6AU     LIG 2989  10.879  32.694   9.644
    6AU     LIG 2990  10.543  32.678   9.994
    6AU     LIG 2991  10.134  32.786  10.251
    6AU     LIG 2992   9.984  32.810  10.698
    6AU       S 2993  11.435  33.673   8.377
    6AU     LIG 2994  11.445  33.742   8.836
    6AU     LIG 2995  11.363  34.030   9.193
    6AU     LIG 2996  11.076  34.297   9.451
    6AU     LIG 2997  10.886  34.488   9.842
    6AU     LIG 2998  10.752  34.834  10.148
    6AU     LIG 2999  10.531  35.220  10.317
    6AU    AUSL 3000  11.842  32.911   8.193
    6AU    AUSL 3001  11.499  32.870   7.950
    6AU     AUL 3002  11.524  32.748   8.263
    6AU       S 3003  11.197  32.362   8.089
    6AU     LIG 3004  10.761  32.201   8.082
    6AU     LIG 3005  10.393  32.004   8.315
    6AU     LIG 3006  10.095  31.752   8.589
    6AU     LIG 3007   9.842  31.477   8.876
    6AU     LIG 3008   9.675  31.254   9.245
    6AU     LIG 3009   9.494  31.247   9.687
    6AU       S 3010  11.533  33.045   8.659
    6AU     LIG 3011  11.454  32.793   9.036
    6AU     LIG 3012  11.339  32.531   9.405
    6AU     LIG 3013  11.166  32.265   9.734
    6AU     LIG 3014  11.088  32.171  10.173
    6AU     LIG 3015  10.964  32.052  10.608
    6AU     LIG 3016  11.066  32.174  11.053
    6AU    AUSL 3017  11.597  33.073   6.918
    6AU    AUSL 3018  11.744  32.689   6.947
    6AU     AUL 3019  11.458  32.835   6.750
    6AU       S 3020  11.615  32.950   6.295
    6AU     LIG 3021  11.387  32.755   5.919
    6AU     LIG 3022  11.161  32.598   5.527
    6AU     LIG 3023  10.859  32.347   5.253
    6AU     LIG 3024  10.569  32.338   4.876
    6AU     LIG 3025  10.323  32.614   4.562
    6AU     LIG 3026  10.060  32.694   4.166
    6AU       S 3027  11.366  32.326   6.783
    6AU     LIG 3028  11.061  31.953   6.771
    6AU     LIG 3029  10.741  31.642   6.618
    6AU     LIG 3030  10.414  31.519   6.292
    6AU     LIG 3031  10.242  31.280   5.903
    6AU     LIG 3032  10.110  31.138   5.449
    6AU     LIG 3033  10.127  31.001   4.990
    6AU    AUSL 3034  11.833  33.274   6.810
    6AU    AUSL 3035  11.507  33.377   7.041
    6AU     AUL 3036  11.449  33.241   6.682
    6AU       S 3037  11.273  33.702   6.714
    6AU     LIG 3038  11.074  33.743   6.282
    6AU     LIG 3039  10.849  33.936   5.902
    6AU     LIG 3040  10.518  33.946   5.537
    6AU     LIG 3041  10.166  34.093   5.235
    6AU     LIG 3042   9.837  34.389   5.070
    6AU     LIG 3043   9.524  34.717   4.943
    6AU       S 3044  11.817  32.898   6.377
    6AU     LIG 3045  11.898  32.856   5.892
    6AU     LIG 3046  11.674  32.756   5.482
    6AU     LIG 3047  11.397  32.784   5.090
    6AU     LIG 3048  11.301  33.030   4.675
    6AU     LIG 3049  11.216  33.276   4.256
    6AU     LIG 3050  11.061  33.491   3.846
    6AU    AUSL 3051  12.648  33.502   7.464
    6AU    AUSL 3052  12.608  33.385   7.099
    6AU     AUL 3053  12.716  33.820   7.342
    6AU       S 3054  12.938  33.451   6.829
    6AU     LIG 3055  13.275  33.439   6.524
    6AU     LIG 3056  13.541  33.673   6.214
    6AU     LIG 3057  13.817  33.931   5.924
    6AU     LIG 3058  14.045  34.016   5.505
    6AU     LIG 3059  14.448  34.171   5.293
    6AU     LIG 3060  14.786  34.387   5.034
    6AU       S 3061  13.182  33.589   7.377
    6AU     LIG 3062  13.682  33.680   7.438
    6AU     LIG 3063  14.188  33.717   7.480
    6AU     LIG 3064  14.677  33.791   7.456
    6AU     LIG 3065  15.083  34.027   7.547
    6AU     LIG 3066  15.308  34.471   7.567
    6AU     LIG 3067  15.472  34.908   7.703
    6AU    AUSL 3068  12.760  33.204   7.329
    6AU    AUSL 3069  12.732  32.923   7.614
    6AU     AUL 3070  13.045  32.920   7.377
    6AU       S 3071  13.163  33.394   7.270
    6AU     LIG 3072  13.569  33.338   7.081
    6AU     LIG 3073  14.030  33.308   7.210
    6AU     LIG 3074  14.520  33.337   7.268
    6AU     LIG 3075  15.003  33.451   7.169
    6AU     LIG 3076  15.503  33.515   7.061
    6AU     LIG 3077  15.971  33.570   6.888
    6AU       S 3078  13.111  32.453   7.648
    6AU     LIG 3079  13.482  32.242   7.833
    6AU     LIG 3080  13.903  32.043   7.836
    6AU     LIG 3081  14.356  31.986   7.743
    6AU     LIG 3082  14.753  32.165   7.912
    6AU     LIG 3083  15.171  31.992   7.887
    6AU     LIG 3084  15.465  31.642   7.954
    6AU    AUSL 3085  12.754  33.252   7.665
    6AU    AUSL 3086  12.508  33.588   7.762
    6AU     AUL 3087  12.802  33.653   7.722
    6AU       S 3088  12.850  33.625   8.206
    6AU     LIG 3089  13.192  33.878   8.440
    6AU     LIG 3090  13.477  34.168   8.704
    6AU     LIG 3091  13.722  34.513   8.946
    6AU     LIG 3092  13.839  34.995   8.971
    6AU     LIG 3093  14.156  35.358   8.975
    6AU     LIG 3094  14.445  35.668   8.755
    6AU       S 3095  13.209  33.366   7.618
    6AU     LIG 3096  13.642  33.247   7.703
    6AU     LIG 3097  14.106  33.266   7.720
    6AU     LIG 3098  14.531  33.433   7.795
    6AU     LIG 3099  14.988  33.566   7.819
    6AU     LIG 3100  15.454  33.621   7.936
    6AU     LIG 3101  15.865  33.865   7.932
    6AU    AUSL 3102  11.459  33.567   7.542
    6AU    AUSL 3103  11.498  33.403   7.903
    6AU     AUL 3104  11.414  33.868   7.733
    6AU       S 3105  11.200  33.539   8.162
    6AU     LIG 3106  11.015  33.536   8.617
    6AU     LIG 3107  10.944  33.792   9.019
    6AU     LIG 3108  10.683  33.965   9.393
    6AU     LIG 3109  10.404  34.045   9.782
    6AU     LIG 3110   9.990  34.118  10.021
    6AU     LIG 3111   9.632  34.409  10.147
    6AU       S 3112  10.968  33.662   7.723
    6AU     LIG 3113  10.709  34.058   7.598
    6AU     LIG 3114  10.435  34.454   7.482
    6AU     LIG 3115  10.093  34.813   7.450
    6AU     LIG 3116   9.689  35.097   7.458
    6AU     LIG 3117   9.283  35.289   7.666
    6AU     LIG 3118   8.793  35.393   7.725
    6AU    AUSL 3119  11.364  33.317   7.333
    6AU    AUSL 3120  11.597  33.642   7.241
    6AU     AUL 3121  11.243  33.623   7.234
    6AU       S 3122  10.825  33.541   7.540
    6AU     LIG 3123  10.586  33.756   7.188
    6AU     LIG 3124  10.215  33.839   6.900
    6AU     LIG 3125   9.754  33.842   6.769
    6AU     LIG 3126   9.287  33.913   6.739
    6AU     LIG 3127   8.850  34.076   6.744
    6AU     LIG 3128   8.387  34.180   6.762
    6AU       S 3129  11.331  33.930   6.833
    6AU     LIG 3130  11.156  34.204   6.494
    6AU     LIG 3131  11.101  34.581   6.221
    6AU     LIG 3132  10.978  35.040   6.211
    6AU     LIG 3133  10.735  35.408   6.062
    6AU     LIG 3134  10.345  35.524   5.870
    6AU     LIG 3135   9.979  35.793   5.851
    6AU    AUSL 3136  11.321  33.273   7.655
    6AU    AUSL 3137  11.304  32.988   7.343
    6AU     AUL 3138  11.080  33.246   7.248
    6AU       S 3139  10.880  32.709   7.392
    6AU     LIG 3140  10.484  32.685   7.733
    6AU     LIG 3141   9.999  32.706   7.686
    6AU     LIG 3142   9.615  32.436   7.565
    6AU     LIG 3143   9.274  32.270   7.266
    6AU     LIG 3144   8.814  32.322   7.194
    6AU     LIG 3145   8.342  32.335   7.171
    6AU       S 3146  10.945  33.308   7.802
    6AU     LIG 3147  10.635  33.551   8.097
    6AU     LIG 3148  10.160  33.675   8.221
    6AU     LIG 3149   9.661  33.754   8.290
    6AU     LIG 3150   9.175  33.878   8.249
    6AU     LIG 3151   8.698  33.974   8.234
    6AU     LIG 3152   8.264  33.842   8.377
    6AU    AUSL 3153  12.633  32.631   7.489
    6AU    AUSL 3154  12.596  32.803   7.892
    6AU     AUL 3155  12.941  32.892   7.791
    6AU       S 3156  12.845  32.255   7.469
    6AU     LIG 3157  13.107  31.932   7.680
    6AU     LIG 3158  13.546  31.760   7.595
    6AU     LIG 3159  14.017  31.630   7.534
    6AU     LIG 3160  14.466  31.465   7.449
    6AU     LIG 3161  14.765  31.096   7.509
    6AU     LIG 3162  15.217  30.983   7.438
    6AU       S 3163  12.829  32.493   8.092
    6AU     LIG 3164  13.183  32.170   8.260
    6AU     LIG 3165  13.243  31.806   8.580
    6AU     LIG 3166  13.393  31.507   8.935
    6AU     LIG 3167  13.707  31.343   9.268
    6AU     LIG 3168  14.102  31.325   9.552
    6AU     LIG 3169  14.411  31.242   9.915
    6AU    AUSL 3170  12.697  32.884   7.284
    6AU    AUSL 3171  12.456  32.554   7.206
    6AU     AUL 3172  12.826  32.668   7.102
    6AU       S 3173  12.962  32.419   7.502
    6AU     LIG 3174  13.387  32.191   7.325
    6AU     LIG 3175  13.869  32.079   7.320
    6AU     LIG 3176  14.329  31.917   7.227
    6AU     LIG 3177  14.717  31.679   7.038
    6AU     LIG 3178  15.190  31.695   6.938
    6AU     LIG 3179  15.500  32.011   6.772
    6AU       S 3180  12.671  32.291   6.801
    6AU     LIG 3181  12.769  31.860   6.650
    6AU     LIG 3182  12.914  31.442   6.495
    6AU     LIG 3183  13.183  31.132   6.275
    6AU     LIG 3184  13.353  30.704   6.225
    6AU     LIG 3185  13.741  30.456   6.236
    6AU     LIG 3186  14.081  30.276   5.994
    6AU    AUSL 3187  11.416  32.699   7.457
    6AU    AUSL 3188  11.487  32.830   7.115
    6AU     AUL 3189  11.198  32.932   7.048
    6AU       S 3190  11.180  32.433   6.959
    6AU     LIG 3191  10.743  32.334   6.966
    6AU     LIG 3192  10.494  32.087   6.657
    6AU     LIG 3193  10.105  31.907   6.456
    6AU     LIG 3194   9.919  31.638   6.120
    6AU     LIG 3195   9.756  31.386   5.748
    6AU     LIG 3196   9.630  31.313   5.290
    6AU       S 3197  11.044  32.566   7.414
    6AU     LIG 3198  10.652  32.263   7.493
    6AU     LIG 3199  10.205  32.252   7.606
    6AU     LIG 3200   9.826  31.995   7.685
    6AU     LIG 3201   9.344  31.918   7.630
    6AU     LIG 3202   8.920  31.658   7.579
    6AU     LIG 3203   8.598  31.350   7.372
    6AU    AUSL 3204  11.350  32.952   7.667
    6AU    AUSL 3205  11.547  32.583   7.747
    6AU     AUL 3206  11.205  32.790   7.857
    6AU       S 3207  11.265  32.248   7.737
    6AU     LIG 3208  10.945  31.898   7.722
    6AU     LIG 3209  10.515  31.796   7.849
    6AU     LIG 3210  10.310  31.510   8.177
    6AU     LIG 3211  10.107  31.226   8.511
    6AU     LIG 3212   9.827  30.933   8.787
    6AU     LIG 3213   9.581  30.484   8.783
    6AU       S 3214  10.887  32.826   7.478
    6AU     LIG 3215  10.411  32.651   7.239
    6AU     LIG 3216   9.916  32.638   7.180
    6AU     LIG 3217   9.421  32.769   7.246
    6AU     LIG 3218   9.094  32.613   7.585
    6AU     LIG 3219   8.819  32.236   7.694
    6AU     LIG 3220   8.349  32.219   7.686
    6AU    AUSL 3221  12.064  33.693   7.947
    6AU    AUSL 3222  11.673  33.656   7.785
    6AU     AUL 3223  11.784  33.902   8.030
    6AU       S 3224  11.350  33.763   8.227
    6AU     LIG 3225  11.125  34.038   8.569
    6AU     LIG 3226  11.049  34.349   8.922
    6AU     LIG 3227  10.973  34.818   9.025
    6AU     LIG 3228  10.663  35.178   9.010
    6AU     LIG 3229  10.259  35.412   9.050
    6AU     LIG 3230  10.016  35.817   9.113
    6AU       S 3231  12.140  34.252   8.026
    6AU     LIG 3232  12.328  34.457   8.385
    6AU     LIG 3233  12.344  34.872   8.573
    6AU     LIG 3234  12.428  35.189   8.911
    6AU     LIG 3235  12.466  35.390   9.346
    6AU     LIG 3236  12.354  35.691   9.699
    6AU     LIG 3237  12.139  36.042   9.936
    6AU    AUSL 3238  11.927  33.818   7.657
    6AU    AUSL 3239  12.204  33.832   7.354
    6AU     AUL 3240  11.743  34.051   7.466
    6AU       S 3241  12.056  34.312   7.771
    6AU     LIG 3242  12.086  34.761   8.041
    6AU     LIG 3243  12.046  35.201   8.277
    6AU     LIG 3244  11.807  35.647   8.376
    6AU     LIG 3245  11.841  36.131   8.494
    6AU     LIG 3246  11.872  36.571   8.722
    6AU     LIG 3247  11.540  36.893   8.848
    6AU       S 3248  12.354  34.260   7.259
    6AU     LIG 3249  12.609  34.622   7.076
    6AU     LIG 3250  12.925  34.980   6.937
    6AU     LIG 3251  13.203  35.348   6.767
    6AU     LIG 3252  13.203  35.781   6.590
    6AU     LIG 3253  12.917  36.144   6.495
    6AU     LIG 3254  13.060  36.587   6.396
    6AU    AUSL 3255  12.262  33.790   7.678
    6AU    AUSL 3256  12.330  33.510   8.036
    6AU     AUL 3257  12.409  33.837   8.021
    6AU       S 3258  12.707  33.545   8.301
    6AU     LIG 3259  12.828  33.669   8.733
    6AU     LIG 3260  13.100  33.942   8.989
    6AU     LIG 3261  13.413  34.202   9.231
    6AU     LIG 3262  13.628  34.464   9.562
    6AU     LIG 3263  13.592  34.726   9.968
    6AU     LIG 3264  13.603  35.144  10.202
    6AU       S 3265  12.316  34.241   7.741
    6AU     LIG 3266  12.552  34.581   7.934
    6AU     LIG 3267  12.595  35.003   8.135
    6AU     LIG 3268  12.919  35.371   8.158
    6AU     LIG 3269  13.114  35.796   8.266
    6AU     LIG 3270  13.225  36.208   8.444
    6AU     LIG 3271  13.257  36.627   8.663
    6AU    AUSL 3272  12.038  32.505   7.962
    6AU    AUSL 3273  12.449  32.529   7.745
    6AU     AUL 3274  12.277  32.274   7.988
    6AU       S 3275  11.881  31.962   8.057
    6AU     LIG 3276  11.633  31.592   8.191
    6AU     LIG 3277  11.472  31.171   8.260
    6AU     LIG 3278  11.606  30.748   8.402
    6AU     LIG 3279  11.623  30.479   8.800
    6AU     LIG 3280  11.621  30.368   9.270
    6AU     LIG 3281  11.799  30.127   9.632
    6AU       S 3282  12.778  32.262   7.953
    6AU     LIG 3283  12.833  31.826   8.117
    6AU     LIG 3284  12.970  31.441   8.342
    6AU     LIG 3285  13.209  31.138   8.611
    6AU     LIG 3286  13.327  30.713   8.798
    6AU     LIG 3287  13.574  30.296   8.799
    6AU     LIG 3288  13.998  30.103   8.813
    6AU    AUSL 3289  11.830  32.405   7.708
    6AU    AUSL 3290  11.758  32.670   7.983
    6AU     AUL 3291  11.744  32.441   8.136
    6AU       S 3292  11.681  31.986   7.848
    6AU     LIG 3293  11.407  31.663   7.731
    6AU     LIG 3294  11.391  31.201   7.741
    6AU     LIG 3295  11.311  30.761   7.965
    6AU     LIG 3296  11.042  30.345   8.103
    6AU     LIG 3297  10.852  29.873   8.108
    6AU     LIG 3298  11.004  29.419   7.990
    6AU       S 3299  11.330  32.296   7.914
    6AU     LIG 3300  11.207  31.879   8.152
    6AU     LIG 3301  10.803  31.685   8.294
    6AU     LIG 3302  10.536  31.495   8.654
    6AU     LIG 3303  10.286  31.251   9.000
    6AU     LIG 3304  10.124  31.074   9.421
    6AU     LIG 3305  10.018  30.913   9.866
    6AU    AUSL 3306  12.153  32.417   7.660
    6AU    AUSL 3307  11.859  32.366   7.377
    6AU     AUL 3308  12.212  32.151   7.581
    6AU       S 3309  11.562  32.002   7.377
    6AU     LIG 3310  11.267  31.608   7.254
    6AU     LIG 3311  11.297  31.136   7.217
    6AU     LIG 3312  11.320  30.699   6.983
    6AU     LIG 3313  11.078  30.271   6.828
    6AU     LIG 3314  10.897  29.804   6.731
    6AU     LIG 3315  10.896  29.312   6.631
    6AU       S 3316  11.812  32.015   7.807
    6AU     LIG 3317  11.891  31.520   7.757
    6AU     LIG 3318  11.851  31.056   7.930
    6AU     LIG 3319  11.965  30.588   8.031
    6AU     LIG 3320  12.247  30.169   8.015
    6AU     LIG 3321  12.367  29.711   8.097
    6AU     LIG 3322  12.461  29.512   8.525
    6AU    AUSL 3323  12.074  33.705   7.059
    6AU    AUSL 3324  12.446  33.637   7.234
    6AU     AUL 3325  12.386  33.842   6.964
    6AU       S 3326  12.130  34.263   6.964
    6AU     LIG 3327  12.286  34.603   6.666
    6AU     LIG 3328  12.435  34.782   6.233
    6AU     LIG 3329  12.521  35.035   5.818
    6AU     LIG 3330  12.618  35.406   5.517
    6AU     LIG 3331  12.661  35.866   5.341
    6AU     LIG 3332  12.509  36.222   5.045
    6AU       S 3333  12.872  33.618   6.927
    6AU     LIG 3334  13.300  33.829   6.850
    6AU     LIG 3335  13.535  34.098   6.511
    6AU     LIG 3336  13.648  34.486   6.243
    6AU     LIG 3337  13.776  34.961   6.267
    6AU     LIG 3338  14.082  35.307   6.170
    6AU     LIG 3339  14.397  35.644   6.010
    6AU    AUSL 3340  11.886  33.775   7.330
    6AU    AUSL 3341  11.788  33.563   6.967
    6AU     AUL 3342  11.763  33.929   7.071
    6AU       S 3343  12.152  34.231   7.262
    6AU     LIG 3344  12.105  34.720   7.172
    6AU     LIG 3345  12.032  35.139   6.940
    6AU     LIG 3346  11.924  35.599   6.834
    6AU     LIG 3347  11.877  36.015   6.599
    6AU     LIG 3348  11.787  36.477   6.466
    6AU     LIG 3349  11.607  36.933   6.466
    6AU       S 3350  11.577  33.766   6.621
    6AU     LIG 3351  11.522  33.988   6.208
    6AU     LIG 3352  11.286  34.230   5.872
    6AU     LIG 3353  11.224  34.420   5.425
    6AU     LIG 3354  11.227  34.660   4.994
    6AU     LIG 3355  11.063  34.920   4.615
    6AU     LIG 3356  10.810  35.293   4.455
    6AU    AUSL 3357  11.981  32.516   7.106
    6AU    AUSL 3358  11.623  32.549   7.234
    6AU     AUL 3359  11.848  32.346   6.925
    6AU       S 3360  11.330  32.302   7.083
    6AU     LIG 3361  11.049  32.055   7.266
    6AU     LIG 3362  10.669  31.834   7.112
    6AU     LIG 3363  10.279  31.656   6.869
    6AU     LIG 3364  10.012  31.346   6.568
    6AU     LIG 3365   9.779  30.907   6.427
    6AU     LIG 3366   9.540  30.456   6.384
    6AU       S 3367  11.725  32.040   7.288
    6AU     LIG 3368  11.554  31.817   6.900
    6AU     LIG 3369  11.504  31.360   6.799
    6AU     LIG 3370  11.607  30.928   6.608
    6AU     LIG 3371  11.700  30.528   6.352
    6AU     LIG 3372  11.748  30.234   5.957
    6AU     LIG 3373  11.900  29.845   5.712
    6AU    AUSL 3374  12.193  32.397   7.334
    6AU    AUSL 3375  12.243  32.633   6.944
    6AU     AUL 3376  12.235  32.250   7.050
    6AU       S 3377  11.877  31.940   7.291
    6AU     LIG 3378  11.751  31.472   7.261
    6AU     LIG 3379  11.778  31.009   7.093
    6AU     LIG 3380  11.886  30.573   6.887
    6AU     LIG 3381  12.212  30.191   6.829
    6AU     LIG 3382  12.452  29.812   6.645
    6AU     LIG 3383  12.586  29.418   6.432
    6AU       S 3384  12.431  32.414   6.616
    6AU     LIG 3385  12.413  32.090   6.329
    6AU     LIG 3386  12.614  31.726   6.165
    6AU     LIG 3387  12.880  31.411   5.966
    6AU     LIG 3388  13.164  31.128   5.721
    6AU     LIG 3389  13.215  30.926   5.293
    6AU     LIG 3390  13.327  30.677   4.898
    7AU     AUC 3391  44.046  19.954   7.499
    7AU     AUC 3392  44.293  19.948   7.339
    7AU     AUC 3393  44.299  19.945   7.649
    7AU     AUC 3394  43.795  19.963   7.347
    7AU     AUC 3395  43.797  19.966   7.656
    7AU     AUC 3396  43.901  20.210   7.500
    7AU     AUC 3397  44.208  20.201   7.498
    7AU     AUC 3398  43.880  19.707   7.503
    7AU     AUC 3399  44.194  19.700   7.495
    7AU     AUC 3400  44.045  19.800   7.749
    7AU     AUC 3401  44.056  20.109   7.751
    7AU     AUC 3402  44.038  19.801   7.246
    7AU     AUC 3403  44.047  20.110   7.248
    7AU     AUC 3404  44.532  19.944   7.183
    7AU     AUC 3405  44.544  19.934   7.488
    7AU     AUC 3406  44.545  19.934   7.792
    7AU     AUC 3407  43.551  19.968   7.198
    7AU     AUC 3408  43.549  19.981   7.499
    7AU     AUC 3409  43.554  19.982   7.804
    7AU     AUC 3410  43.762  20.459   7.501
    7AU     AUC 3411  44.066  20.453   7.501
    7AU     AUC 3412  44.365  20.438   7.498
    7AU     AUC 3413  43.724  19.472   7.509
    7AU     AUC 3414  44.027  19.457   7.510
    7AU     AUC 3415  44.336  19.454   7.492
    7AU     AUC 3416  44.040  19.649   7.990
    7AU     AUC 3417  44.050  19.948   7.996
    7AU     AUC 3418  44.066  20.253   7.995
    7AU     AUC 3419  44.029  19.650   7.007
    7AU     AUC 3420  44.038  19.950   6.999
    7AU     AUC 3421  44.048  20.260   7.005
    7AU     AUC 3422  44.294  19.787   7.897
    7AU     AUC 3423  44.308  20.093   7.901
    7AU     AUC 3424  44.281  19.798   7.090
    7AU     AUC 3425  44.294  20.105   7.095
    7AU     AUC 3426  43.791  19.813   7.902
    7AU     AUC 3427  43.808  20.117   7.905
    7AU     AUC 3428  43.789  19.802   7.101
    7AU     AUC 3429  43.798  20.112   7.096
    7AU     AUC 3430  44.455  20.192   7.343
    7AU     AUC 3431  44.462  20.185   7.649
    7AU     AUC 3432  43.653  20.219   7.342
    7AU     AUC 3433  43.656  20.224   7.654
    7AU     AUC 3434  44.432  19.690   7.329
    7AU     AUC 3435  44.443  19.689   7.640
    7AU     AUC 3436  43.635  19.717   7.353
    7AU     AUC 3437  43.630  19.727   7.652
    7AU     AUC 3438  43.914  20.363   7.754
    7AU     AUC 3439  44.221  20.350   7.751
    7AU     AUC 3440  43.874  19.560   7.748
    7AU     AUC 3441  44.192  19.547   7.748
    7AU     AUC 3442  43.905  20.363   7.246
    7AU     AUC 3443  44.211  20.355   7.249
    7AU     AUC 3444  43.876  19.551   7.261
    7AU     AUC 3445  44.182  19.544   7.248
    7AU    AUSL 3446  44.470  19.904   8.080
    7AU    AUSL 3447  44.327  19.515   8.037
    7AU     AUL 3448  44.469  19.613   8.354
    7AU       S 3449  44.709  19.181   8.244
    7AU     LIG 3450  44.782  18.828   8.549
    7AU     LIG 3451  44.869  18.461   8.846
    7AU     LIG 3452   0.008  18.106   9.141
    7AU     LIG 3453  44.991  17.890   9.580
    7AU     LIG 3454   0.155  17.589   9.920
    7AU     LIG 3455   0.421  17.452  10.280
    7AU       S 3456  44.611  20.062   8.641
    7AU     LIG 3457  44.826  20.002   9.066
    7AU     LIG 3458  44.925  19.678   9.417
    7AU     LIG 3459   0.233  19.575   9.772
    7AU     LIG 3460   0.663  19.667   9.964
    7AU     LIG 3461   1.066  19.563  10.199
    7AU     LIG 3462   1.204  19.665  10.628
    7AU    AUSL 3463  44.183  19.775   8.207
    7AU    AUSL 3464  43.920  20.096   8.204
    7AU     AUL 3465  44.013  19.853   8.503
    7AU       S 3466  44.432  19.903   8.758
    7AU     LIG 3467  44.615  19.522   9.000
    7AU     LIG 3468  44.662  19.206   9.361
    7AU     LIG 3469  44.576  19.008   9.793
    7AU     LIG 3470  44.572  18.859  10.250
    7AU     LIG 3471  44.872  18.911  10.608
    7AU     LIG 3472   0.003  18.941  11.063
    7AU       S 3473  43.565  20.128   8.656
    7AU     LIG 3474  43.379  20.130   9.095
    7AU     LIG 3475  43.390  19.872   9.505
    7AU     LIG 3476  43.364  19.758   9.961
    7AU     LIG 3477  43.432  19.972  10.384
    7AU     LIG 3478  43.338  20.265  10.738
    7AU     LIG 3479  43.255  20.586  11.054
    7AU    AUSL 3480  44.253  20.108   8.208
    7AU    AUSL 3481  44.614  20.187   7.952
    7AU     AUL 3482  44.703  19.892   8.193
    7AU       S 3483  44.362  20.261   8.604
    7AU     LIG 3484  44.429  20.494   9.004
    7AU     LIG 3485  44.682  20.629   9.383
    7AU     LIG 3486  44.675  20.651   9.870
    7AU     LIG 3487  44.585  20.685  10.339
    7AU     LIG 3488  44.701  20.761  10.799
    7AU     LIG 3489  44.824  20.788  11.251
    7AU       S 3490  44.995  20.304   8.166
    7AU     LIG 3491   0.229  20.213   8.538
    7AU     LIG 3492   0.502  20.458   8.824
    7AU     LIG 3493   0.807  20.717   9.083
    7AU     LIG 3494   1.109  20.879   9.417
    7AU     LIG 3495   1.493  20.838   9.727
    7AU     LIG 3496   1.905  20.928   9.968
    7AU    AUSL 3497  44.476  20.005   6.894
    7AU    AUSL 3498  44.336  20.354   6.947
    7AU     AUL 3499  44.378  20.318   6.597
    7AU       S 3500  44.604  19.900   6.377
    7AU     LIG 3501  44.766  19.535   6.128
    7AU     LIG 3502  44.994  19.389   5.744
    7AU     LIG 3503   0.142  19.434   5.291
    7AU     LIG 3504   0.493  19.318   4.973
    7AU     LIG 3505   0.891  19.288   4.688
    7AU     LIG 3506   1.132  19.332   4.274
    7AU       S 3507  44.817  20.539   6.687
    7AU     LIG 3508   0.060  20.711   6.320
    7AU     LIG 3509   0.304  20.849   5.944
    7AU     LIG 3510   0.554  20.933   5.560
    7AU     LIG 3511   0.708  21.197   5.206
    7AU     LIG 3512   0.775  21.527   4.877
    7AU     LIG 3513   0.781  21.959   4.681
    7AU    AUSL 3514  44.238  19.784   6.794
    7AU    AUSL 3515  44.520  19.685   7.019
    7AU     AUL 3516  44.733  19.816   6.847
    7AU       S 3517  44.674  19.372   6.611
    7AU     LIG 3518  44.936  19.096   6.321
    7AU     LIG 3519   0.179  18.704   6.221
    7AU     LIG 3520   0.442  18.373   6.012
    7AU     LIG 3521   0.839  18.294   5.743
    7AU     LIG 3522   1.233  18.387   5.463
    7AU     LIG 3523   1.618  18.449   5.177
    7AU       S 3524  44.328  19.676   6.409
    7AU     LIG 3525  44.267  19.360   6.121
    7AU     LIG 3526  44.496  19.262   5.740
    7AU     LIG 3527  44.668  19.222   5.290
    7AU     LIG 3528  44.736  19.176   4.807
    7AU     LIG 3529  44.910  18.972   4.397
    7AU     LIG 3530   0.078  19.014   3.945
    7AU    AUSL 3531  44.170  20.106   6.805
    7AU    AUSL 3532  43.894  19.781   6.780
    7AU     AUL 3533  44.050  20.133   6.539
    7AU       S 3534  43.860  19.549   6.409
    7AU     LIG 3535  43.741  19.319   6.029
    7AU     LIG 3536  43.519  19.299   5.609
    7AU     LIG 3537  43.294  19.299   5.183
    7AU     LIG 3538  42.991  19.058   4.878
    7AU     LIG 3539  42.905  18.802   4.467
    7AU     LIG 3540  43.047  18.751   4.011
    7AU       S 3541  44.388  19.805   6.405
    7AU     LIG 3542  44.406  19.801   5.901
    7AU     LIG 3543  44.658  19.701   5.496
    7AU     LIG 3544  44.736  19.671   5.014
    7AU     LIG 3545  44.669  19.848   4.555
    7AU     LIG 3546  44.788  20.128   4.167
    7AU     LIG 3547  44.898  20.444   3.807
    7AU    AUSL 3548  43.616  20.006   8.108
    7AU    AUSL 3549  43.789  20.378   8.059
    7AU     AUL 3550  43.907  20.333   8.363
    7AU       S 3551  43.378  20.044   8.466
    7AU     LIG 3552  43.059  19.874   8.790
    7AU     LIG 3553  42.988  19.715   9.229
    7AU     LIG 3554  42.940  19.608   9.696
    7AU     LIG 3555  42.620  19.614  10.072
    7AU     LIG 3556  42.281  19.600  10.433
    7AU     LIG 3557  41.914  19.636  10.758
    7AU       S 3558  43.451  20.532   8.389
    7AU     LIG 3559  43.438  20.607   8.854
    7AU     LIG 3560  43.309  20.897   9.220
    7AU     LIG 3561  43.063  21.234   9.463
    7AU     LIG 3562  42.946  21.508   9.844
    7AU     LIG 3563  42.912  21.793  10.241
    7AU     LIG 3564  42.757  22.152  10.521
    7AU    AUSL 3565  43.847  19.768   8.195
    7AU    AUSL 3566  43.505  19.728   7.945
    7AU     AUL 3567  43.520  19.604   8.255
    7AU       S 3568  43.189  19.207   8.078
    7AU     LIG 3569  42.784  18.971   8.256
    7AU     LIG 3570  42.397  18.691   8.385
    7AU     LIG 3571  42.031  18.373   8.482
    7AU     LIG 3572  41.703  18.057   8.656
    7AU     LIG 3573  41.546  18.076   9.082
    7AU     LIG 3574  41.583  17.938   9.525
    7AU       S 3575  43.543  19.882   8.665
    7AU     LIG 3576  43.461  19.615   9.042
    7AU     LIG 3577  43.331  19.364   9.428
    7AU     LIG 3578  43.296  19.209   9.874
    7AU     LIG 3579  43.330  18.870  10.226
    7AU     LIG 3580  43.168  18.768  10.664
    7AU     LIG 3581  43.227  18.793  11.134
    7AU    AUSL 3582  43.604  19.912   6.918
    7AU    AUSL 3583  43.752  19.535   6.960
    7AU     AUL 3584  43.475  19.640   6.755
    7AU       S 3585  43.621  19.828   6.312
    7AU     LIG 3586  43.373  19.683   5.940
    7AU     LIG 3587  43.103  19.617   5.549
    7AU     LIG 3588  42.789  19.385   5.262
    7AU     LIG 3589  42.512  19.273   4.893
    7AU     LIG 3590  42.231  19.315   4.520
    7AU     LIG 3591  42.043  19.642   4.241
    7AU       S 3592  43.352  19.139   6.851
    7AU     LIG 3593  43.135  18.706   6.812
    7AU     LIG 3594  42.752  18.472   6.689
    7AU     LIG 3595  42.471  18.260   6.372
    7AU     LIG 3596  42.601  18.037   5.956
    7AU     LIG 3597  42.663  17.845   5.515
    7AU     LIG 3598  42.494  17.701   5.096
    7AU    AUSL 3599  43.836  20.114   6.810
    7AU    AUSL 3600  43.527  20.226   7.029
    7AU     AUL 3601  43.415  20.061   6.714
    7AU       S 3602  43.339  20.547   6.660
    7AU     LIG 3603  43.154  20.567   6.212
    7AU     LIG 3604  42.871  20.719   5.847
    7AU     LIG 3605  42.620  20.846   5.459
    7AU     LIG 3606  42.311  20.976   5.110
    7AU     LIG 3607  41.910  21.237   5.004
    7AU     LIG 3608  41.546  21.558   4.973
    7AU       S 3609  43.821  19.748   6.374
    7AU     LIG 3610  43.884  19.782   5.883
    7AU     LIG 3611  43.601  19.791   5.479
    7AU     LIG 3612  43.299  19.849   5.100
    7AU     LIG 3613  43.222  20.069   4.659
    7AU     LIG 3614  43.142  20.328   4.246
    7AU     LIG 3615  43.001  20.388   3.784
    7AU    AUSL 3616  44.657  20.355   7.465
    7AU    AUSL 3617  44.620  20.234   7.100
    7AU     AUL 3618  44.735  20.666   7.337
    7AU       S 3619  44.944  20.295   6.835
    7AU     LIG 3620   0.186  20.228   6.466
    7AU     LIG 3621   0.508  20.444   6.220
    7AU     LIG 3622   0.805  20.717   5.981
    7AU     LIG 3623   1.061  20.885   5.627
    7AU     LIG 3624   1.378  20.961   5.297
    7AU     LIG 3625   1.704  21.209   5.064
    7AU       S 3626   0.200  20.433   7.395
    7AU     LIG 3627   0.706  20.523   7.420
    7AU     LIG 3628   1.215  20.536   7.421
    7AU     LIG 3629   1.700  20.600   7.407
    7AU     LIG 3630   2.006  20.942   7.521
    7AU     LIG 3631   2.249  21.345   7.559
    7AU     LIG 3632   2.402  21.743   7.341
    7AU    AUSL 3633  44.769  20.056   7.333
    7AU    AUSL 3634  44.740  19.778   7.619
    7AU     AUL 3635   0.053  19.774   7.384
    7AU       S 3636   0.174  20.248   7.275
    7AU     LIG 3637   0.592  20.102   7.158
    7AU     LIG 3638   1.063  20.086   7.224
    7AU     LIG 3639   1.512  20.221   7.102
    7AU     LIG 3640   1.981  20.332   7.027
    7AU     LIG 3641   2.445  20.497   7.015
    7AU     LIG 3642   2.914  20.459   6.951
    7AU       S 3643   0.132  19.307   7.658
    7AU     LIG 3644   0.565  19.090   7.811
    7AU     LIG 3645   1.027  18.852   7.787
    7AU     LIG 3646   1.494  18.620   7.739
    7AU     LIG 3647   2.005  18.521   7.735
    7AU     LIG 3648   2.458  18.535   7.968
    7AU     LIG 3649   2.728  18.831   8.271
    7AU    AUSL 3650  44.761  20.108   7.669
    7AU    AUSL 3651  44.513  20.446   7.760
    7AU     AUL 3652  44.809  20.510   7.722
    7AU       S 3653  44.852  20.487   8.209
    7AU     LIG 3654   0.203  20.725   8.457
    7AU     LIG 3655   0.517  20.974   8.732
    7AU     LIG 3656   0.844  21.239   8.986
    7AU     LIG 3657   1.106  21.649   9.054
    7AU     LIG 3658   1.349  22.073   9.134
    7AU     LIG 3659   1.585  22.502   9.146
    7AU       S 3660   0.217  20.215   7.632
    7AU     LIG 3661   0.666  20.083   7.676
    7AU     LIG 3662   1.133  20.137   7.735
    7AU     LIG 3663   1.528  20.376   7.841
    7AU     LIG 3664   1.978  20.542   7.847
    7AU     LIG 3665   2.447  20.463   7.892
    7AU     LIG 3666   2.884  20.595   7.867
    7AU    AUSL 3667  43.467  20.433   7.521
    7AU    AUSL 3668  43.500  20.254   7.904
    7AU     AUL 3669  43.389  20.698   7.759
    7AU       S 3670  43.202  20.382   8.166
    7AU     LIG 3671  43.034  20.368   8.624
    7AU     LIG 3672  42.938  20.616   8.998
    7AU     LIG 3673  42.717  20.880   9.317
    7AU     LIG 3674  42.344  20.931   9.611
    7AU     LIG 3675  41.918  21.082   9.770
    7AU     LIG 3676  41.557  21.314   9.971
    7AU       S 3677  42.945  20.522   7.623
    7AU     LIG 3678  42.614  20.860   7.526
    7AU     LIG 3679  42.291  21.230   7.475
    7AU     LIG 3680  42.033  21.610   7.603
    7AU     LIG 3681  41.752  21.963   7.471
    7AU     LIG 3682  41.396  22.170   7.239
    7AU     LIG 3683  41.139  22.453   7.038
    7AU    AUSL 3684  43.379  20.176   7.320
    7AU    AUSL 3685  43.615  20.495   7.224
    7AU     AUL 3686  43.264  20.488   7.196
    7AU       S 3687  42.819  20.315   7.469
    7AU     LIG 3688  42.402  20.474   7.263
    7AU     LIG 3689  42.190  20.890   7.087
    7AU     LIG 3690  41.731  21.048   6.971
    7AU     LIG 3691  41.275  21.048   6.803
    7AU     LIG 3692  40.842  21.121   6.659
    7AU     LIG 3693  40.438  20.891   6.690
    7AU       S 3694  43.370  20.772   6.779
    7AU     LIG 3695  43.157  21.031   6.432
    7AU     LIG 3696  43.056  21.398   6.140
    7AU     LIG 3697  42.925  21.863   6.059
    7AU     LIG 3698  42.711  22.294   6.022
    7AU     LIG 3699  42.308  22.549   6.078
    7AU     LIG 3700  41.893  22.520   5.858
    7AU    AUSL 3701  43.332  20.142   7.639
    7AU    AUSL 3702  43.311  19.851   7.342
    7AU     AUL 3703  43.143  20.110   7.171
    7AU       S 3704  42.862  19.652   7.414
    7AU     LIG 3705  42.437  19.535   7.652
    7AU     LIG 3706  41.945  19.553   7.708
    7AU     LIG 3707  41.530  19.361   7.587
    7AU     LIG 3708  41.336  19.117   7.196
    7AU     LIG 3709  40.923  18.861   7.159
    7AU     LIG 3710  40.466  18.851   6.985
    7AU       S 3711  42.943  20.206   7.777
    7AU     LIG 3712  42.447  20.392   7.810
    7AU     LIG 3713  42.025  20.592   8.060
    7AU     LIG 3714  41.698  20.960   8.214
    7AU     LIG 3715  41.206  21.116   8.264
    7AU     LIG 3716  40.764  20.924   8.335
    7AU     LIG 3717  40.306  21.012   8.505
    7AU    AUSL 3718  44.642  19.485   7.496
    7AU    AUSL 3719  44.600  19.659   7.896
    7AU     AUL 3720  44.947  19.742   7.800
    7AU       S 3721  44.862  19.109   7.474
    7AU     LIG 3722   0.144  18.801   7.707
    7AU     LIG 3723   0.577  18.608   7.625
    7AU     LIG 3724   1.005  18.413   7.512
    7AU     LIG 3725   1.423  18.201   7.438
    7AU     LIG 3726   1.792  18.060   7.666
    7AU     LIG 3727   2.255  18.026   7.704
    7AU       S 3728  44.835  19.339   8.096
    7AU     LIG 3729   0.173  18.969   8.219
    7AU     LIG 3730   0.276  18.650   8.578
    7AU     LIG 3731   0.412  18.387   8.958
    7AU     LIG 3732   0.739  18.131   9.202
    7AU     LIG 3733   1.139  18.040   9.445
    7AU     LIG 3734   1.525  18.072   9.735
    7AU    AUSL 3735  44.706  19.737   7.290
    7AU    AUSL 3736  44.467  19.409   7.211
    7AU     AUL 3737  44.834  19.520   7.107
    7AU       S 3738  44.977  19.274   7.507
    7AU     LIG 3739   0.402  19.033   7.325
    7AU     LIG 3740   0.884  18.875   7.291
    7AU     LIG 3741   1.361  18.686   7.247
    7AU     LIG 3742   1.833  18.473   7.230
    7AU     LIG 3743   2.297  18.487   7.012
    7AU     LIG 3744   2.749  18.746   7.097
    7AU       S 3745  44.690  19.141   6.802
    7AU     LIG 3746  44.838  18.712   6.648
    7AU     LIG 3747   0.009  18.293   6.479
    7AU     LIG 3748   0.273  17.955   6.271
    7AU     LIG 3749   0.664  17.689   6.145
    7AU     LIG 3750   1.041  17.364   6.079
    7AU     LIG 3751   1.469  17.194   5.897
    7AU    AUSL 3752  43.419  19.563   7.465
    7AU    AUSL 3753  43.493  19.677   7.123
    7AU     AUL 3754  43.208  19.753   7.040
    7AU       S 3755  43.171  19.249   7.013
    7AU     LIG 3756  42.766  19.046   6.893
    7AU     LIG 3757  42.373  18.824   6.720
    7AU     LIG 3758  42.040  18.563   6.469
    7AU     LIG 3759  41.810  18.543   6.046
    7AU     LIG 3760  41.629  18.630   5.614
    7AU     LIG 3761  41.281  18.548   5.308
    7AU       S 3762  43.019  19.467   7.432
    7AU     LIG 3763  42.658  19.158   7.387
    7AU     LIG 3764  42.162  19.151   7.406
    7AU     LIG 3765  41.734  18.909   7.483
    7AU     LIG 3766  41.264  18.902   7.641
    7AU     LIG 3767  40.912  18.609   7.633
    7AU     LIG 3768  40.663  18.188   7.635
    7AU    AUSL 3769  43.351  19.822   7.670
    7AU    AUSL 3770  43.553  19.439   7.749
    7AU     AUL 3771  43.216  19.646   7.870
    7AU       S 3772  43.278  19.111   7.718
    7AU     LIG 3773  42.901  18.874   7.772
    7AU     LIG 3774  42.575  18.588   7.911
    7AU     LIG 3775  42.346  18.218   8.113
    7AU     LIG 3776  41.975  17.908   8.222
    7AU     LIG 3777  41.604  17.616   8.310
    7AU     LIG 3778  41.626  17.215   8.610
    7AU       S 3779  42.906  19.780   7.507
    7AU     LIG 3780  42.456  19.969   7.405
    7AU     LIG 3781  42.098  19.713   7.252
    7AU     LIG 3782  41.652  19.602   7.159
    7AU     LIG 3783  41.173  19.574   7.289
    7AU     LIG 3784  40.868  19.281   7.475
    7AU     LIG 3785  40.550  19.042   7.710
    7AU    AUSL 3786  44.066  20.553   7.946
    7AU    AUSL 3787  43.671  20.506   7.776
    7AU     AUL 3788  43.765  20.761   8.002
    7AU       S 3789  43.370  20.593   8.253
    7AU     LIG 3790  43.108  20.874   8.556
    7AU     LIG 3791  42.970  21.141   8.922
    7AU     LIG 3792  42.872  21.561   9.105
    7AU     LIG 3793  42.616  21.952   9.192
    7AU     LIG 3794  42.270  22.286   9.201
    7AU     LIG 3795  41.835  22.500   9.191
    7AU       S 3796  44.132  21.097   8.056
    7AU     LIG 3797  44.330  21.355   8.390
    7AU     LIG 3798  44.366  21.741   8.650
    7AU     LIG 3799  44.339  22.183   8.788
    7AU     LIG 3800  44.562  22.513   9.021
    7AU     LIG 3801  44.637  22.832   9.355
    7AU     LIG 3802  44.383  23.194   9.510
    7AU    AUSL 3803  43.928  20.672   7.653
    7AU    AUSL 3804  44.216  20.685   7.350
    7AU     AUL 3805  43.752  20.907   7.452
    7AU       S 3806  44.048  21.162   7.777
    7AU     LIG 3807  44.096  21.607   8.004
    7AU     LIG 3808  44.125  22.009   8.279
    7AU     LIG 3809  44.144  22.463   8.401
    7AU     LIG 3810  44.031  22.910   8.495
    7AU     LIG 3811  43.870  23.296   8.601
    7AU     LIG 3812  43.447  23.453   8.769
    7AU       S 3813  44.364  21.093   7.275
    7AU     LIG 3814  44.632  21.349   7.019
    7AU     LIG 3815  44.661  21.750   6.794
    7AU     LIG 3816  44.629  22.158   6.570
    7AU     LIG 3817  44.678  22.611   6.525
    7AU     LIG 3818  44.741  23.071   6.541
    7AU     LIG 3819  44.762  23.530   6.445
    7AU    AUSL 3820  44.264  20.645   7.675
    7AU    AUSL 3821  44.333  20.371   8.034
    7AU     AUL 3822  44.423  20.699   8.006
    7AU       S 3823  44.707  20.409   8.307
    7AU     LIG 3824  44.863  20.489   8.751
    7AU     LIG 3825   0.130  20.753   9.025
    7AU     LIG 3826   0.438  21.042   9.248
    7AU     LIG 3827   0.637  21.366   9.537
    7AU     LIG 3828   0.603  21.669   9.926
    7AU     LIG 3829   0.614  21.859  10.373
    7AU       S 3830  44.286  21.103   7.750
    7AU     LIG 3831  44.561  21.400   7.922
    7AU     LIG 3832  44.582  21.774   8.182
    7AU     LIG 3833  44.606  22.207   8.348
    7AU     LIG 3834  44.603  22.660   8.467
    7AU     LIG 3835  44.456  23.065   8.282
    7AU     LIG 3836  44.454  23.499   8.146
    7AU    AUSL 3837  44.041  19.362   7.966
    7AU    AUSL 3838  44.455  19.384   7.750
    7AU     AUL 3839  44.274  19.130   7.999
    7AU       S 3840  43.874  18.812   8.050
    7AU     LIG 3841  43.626  18.388   8.102
    7AU     LIG 3842  43.467  17.938   8.143
    7AU     LIG 3843  43.372  17.501   8.312
    7AU     LIG 3844  43.436  17.173   8.623
    7AU     LIG 3845  43.546  16.927   9.001
    7AU     LIG 3846  43.748  16.617   9.265
    7AU       S 3847  44.775  19.128   7.950
    7AU     LIG 3848  44.765  18.692   8.045
    7AU     LIG 3849  44.926  18.373   8.322
    7AU     LIG 3850   0.156  18.100   8.617
    7AU     LIG 3851   0.426  17.850   8.907
    7AU     LIG 3852   0.844  17.623   9.017
    7AU     LIG 3853   1.182  17.253   8.996
    7AU    AUSL 3854  43.835  19.261   7.711
    7AU    AUSL 3855  43.763  19.528   7.985
    7AU     AUL 3856  43.746  19.295   8.138
    7AU       S 3857  43.675  18.836   7.843
    7AU     LIG 3858  43.329  18.562   7.705
    7AU     LIG 3859  43.299  18.074   7.660
    7AU     LIG 3860  43.264  17.579   7.810
    7AU     LIG 3861  43.176  17.094   8.005
    7AU     LIG 3862  42.990  16.683   8.269
    7AU     LIG 3863  43.158  16.247   8.474
    7AU       S 3864  43.332  19.151   7.915
    7AU     LIG 3865  43.233  18.726   8.165
    7AU     LIG 3866  42.869  18.452   8.315
    7AU     LIG 3867  42.540  18.246   8.599
    7AU     LIG 3868  42.194  18.033   8.836
    7AU     LIG 3869  42.002  17.846   9.211
    7AU     LIG 3870  42.085  17.712   9.651
    7AU    AUSL 3871  44.158  19.275   7.665
    7AU    AUSL 3872  43.872  19.220   7.380
    7AU     AUL 3873  44.219  19.010   7.601
    7AU       S 3874  43.612  18.825   7.358
    7AU     LIG 3875  43.388  18.414   7.234
    7AU     LIG 3876  43.204  17.979   7.128
    7AU     LIG 3877  42.970  17.584   6.962
    7AU     LIG 3878  42.882  17.127   6.793
    7AU     LIG 3879  42.847  16.637   6.643
    7AU     LIG 3880  43.213  16.403   6.434
    7AU       S 3881  43.803  18.881   7.804
    7AU     LIG 3882  43.810  18.406   7.632
    7AU     LIG 3883  43.786  17.933   7.731
    7AU     LIG 3884  43.750  17.497   7.965
    7AU     LIG 3885  43.673  17.049   8.170
    7AU     LIG 3886  43.899  16.674   8.377
    7AU     LIG 3887  44.057  16.229   8.439
    7AU    AUSL 3888  44.088  20.557   7.056
    7AU    AUSL 3889  44.458  20.489   7.232
    7AU     AUL 3890  44.399  20.692   6.958
    7AU       S 3891  44.146  21.115   6.968
    7AU     LIG 3892  44.275  21.434   6.643
    7AU     LIG 3893  44.378  21.776   6.336
    7AU     LIG 3894  44.476  22.050   5.950
    7AU     LIG 3895  44.560  22.237   5.506
    7AU     LIG 3896  44.591  22.526   5.130
    7AU     LIG 3897  44.483  22.916   4.879
    7AU       S 3898  44.889  20.470   6.919
    7AU     LIG 3899   0.327  20.640   6.753
    7AU     LIG 3900   0.548  20.921   6.407
    7AU     LIG 3901   0.808  21.225   6.116
    7AU     LIG 3902   1.096  21.641   6.071
    7AU     LIG 3903   1.385  22.060   6.071
    7AU     LIG 3904   1.602  22.497   6.149
    7AU    AUSL 3905  43.898  20.630   7.325
    7AU    AUSL 3906  43.808  20.411   6.954
    7AU     AUL 3907  43.776  20.781   7.060
    7AU       S 3908  44.164  21.090   7.256
    7AU     LIG 3909  44.192  21.590   7.130
    7AU     LIG 3910  44.193  21.967   6.805
    7AU     LIG 3911  44.192  22.445   6.662
    7AU     LIG 3912  44.240  22.894   6.515
    7AU     LIG 3913  43.958  23.218   6.339
    7AU     LIG 3914  43.515  23.294   6.409
    7AU       S 3915  43.633  20.590   6.599
    7AU     LIG 3916  43.586  20.848   6.221
    7AU     LIG 3917  43.295  21.002   5.882
    7AU     LIG 3918  43.099  21.064   5.433
    7AU     LIG 3919  43.036  21.343   5.028
    7AU     LIG 3920  42.906  21.666   4.682
    7AU     LIG 3921  42.590  21.976   4.514
    7AU    AUSL 3922  43.997  19.364   7.108
    7AU    AUSL 3923  43.626  19.398   7.248
    7AU     AUL 3924  43.841  19.208   6.926
    7AU       S 3925  43.319  19.140   7.155
    7AU     LIG 3926  43.047  18.814   7.295
    7AU     LIG 3927  42.617  18.627   7.163
    7AU     LIG 3928  42.278  18.353   6.897
    7AU     LIG 3929  42.012  18.058   6.619
    7AU     LIG 3930  41.884  17.622   6.471
    7AU     LIG 3931  42.026  17.183   6.299
    7AU       S 3932  43.760  18.888   7.285
    7AU     LIG 3933  43.631  18.678   6.868
    7AU     LIG 3934  43.495  18.247   6.762
    7AU     LIG 3935  43.561  17.814   6.594
    7AU     LIG 3936  43.559  17.481   6.231
    7AU     LIG 3937  43.536  17.223   5.818
    7AU     LIG 3938  43.759  16.978   5.469
    7AU    AUSL 3939  44.207  19.248   7.341
    7AU    AUSL 3940  44.256  19.486   6.947
    7AU     AUL 3941  44.256  19.106   7.052
    7AU       S 3942  43.916  18.790   7.283
    7AU     LIG 3943  43.889  18.341   7.140
    7AU     LIG 3944  43.711  17.919   7.127
    7AU     LIG 3945  43.751  17.483   6.957
    7AU     LIG 3946  43.719  17.027   6.837
    7AU     LIG 3947  43.925  16.624   6.711
    7AU     LIG 3948  44.275  16.299   6.666
    7AU       S 3949  44.442  19.264   6.613
    7AU     LIG 3950  44.459  18.922   6.335
    7AU     LIG 3951  44.690  18.567   6.167
    7AU     LIG 3952  44.929  18.225   5.954
    7AU     LIG 3953  44.869  17.940   5.566
    7AU     LIG 3954  44.996  17.756   5.151
    7AU     LIG 3955   0.374  17.703   4.863
    8AU     AUC 3956  23.841   1.283   7.500
    8AU     AUC 3957  24.087   1.280   7.339
    8AU     AUC 3958  24.095   1.275   7.648
    8AU     AUC 3959  23.588   1.291   7.350
    8AU     AUC 3960  23.594   1.293   7.659
    8AU     AUC 3961  23.694   1.538   7.504
    8AU     AUC 3962  24.002   1.530   7.499
    8AU     AUC 3963  23.677   1.034   7.504
    8AU     AUC 3964  23.991   1.030   7.494
    8AU     AUC 3965  23.843   1.128   7.750
    8AU     AUC 3966  23.852   1.437   7.753
    8AU     AUC 3967  23.831   1.131   7.247
    8AU     AUC 3968  23.839   1.441   7.251
    8AU     AUC 3969  24.324   1.278   7.180
    8AU     AUC 3970  24.339   1.266   7.485
    8AU     AUC 3971  24.343   1.265   7.789
    8AU     AUC 3972  23.343   1.296   7.204
    8AU     AUC 3973  23.343   1.305   7.505
    8AU     AUC 3974  23.352   1.306   7.810
    8AU     AUC 3975  23.554   1.786   7.508
    8AU     AUC 3976  23.858   1.782   7.505
    8AU     AUC 3977  24.158   1.769   7.499
    8AU     AUC 3978  23.523   0.799   7.510
    8AU     AUC 3979  23.826   0.786   7.510
    8AU     AUC 3980  24.134   0.785   7.489
    8AU     AUC 3981  23.841   0.977   7.990
    8AU     AUC 3982  23.849   1.276   7.998
    8AU     AUC 3983  23.863   1.580   7.997
    8AU     AUC 3984  23.822   0.982   7.006
    8AU     AUC 3985  23.830   1.283   7.001
    8AU     AUC 3986  23.837   1.592   7.009
    8AU     AUC 3987  24.093   1.117   7.896
    8AU     AUC 3988  24.106   1.421   7.901
    8AU     AUC 3989  24.073   1.131   7.088
    8AU     AUC 3990  24.085   1.438   7.095
    8AU     AUC 3991  23.590   1.139   7.904
    8AU     AUC 3992  23.605   1.443   7.909
    8AU     AUC 3993  23.581   1.133   7.103
    8AU     AUC 3994  23.588   1.442   7.101
    8AU     AUC 3995  24.247   1.524   7.341
    8AU     AUC 3996  24.258   1.515   7.647
    8AU     AUC 3997  23.444   1.546   7.349
    8AU     AUC 3998  23.451   1.549   7.660
    8AU     AUC 3999  24.227   1.022   7.326
    8AU     AUC 4000  24.241   1.020   7.637
    8AU     AUC 4001  23.431   1.043   7.356
    8AU     AUC 4002  23.429   1.051   7.655
    8AU     AUC 4003  23.710   1.690   7.759
    8AU     AUC 4004  24.016   1.678   7.752
    8AU     AUC 4005  23.675   0.887   7.749
    8AU     AUC 4006  23.992   0.877   7.747
    8AU     AUC 4007  23.694   1.692   7.252
    8AU     AUC 4008  24.001   1.687   7.251
    8AU     AUC 4009  23.672   0.881   7.261
    8AU     AUC 4010  23.977   0.876   7.246
    8AU    AUSL 4011  24.268   1.233   8.079
    8AU    AUSL 4012  24.131   0.848   8.036
    8AU     AUL 4013  24.261   0.942   8.361
    8AU       S 4014  24.521   0.527   8.239
    8AU     LIG 4015  24.600   0.226   8.577
    8AU     LIG 4016  24.625  44.806   8.777
    8AU     LIG 4017  24.744  44.444   9.034
    8AU     LIG 4018  24.729  44.148   9.393
    8AU     LIG 4019  24.826  44.069   9.839
    8AU     LIG 4020  24.917  43.877  10.260
    8AU       S 4021  24.419   1.404   8.641
    8AU     LIG 4022  24.725   1.221   8.950
    8AU     LIG 4023  24.823   0.874   9.285
    8AU     LIG 4024  25.087   0.702   9.664
    8AU     LIG 4025  25.391   0.749  10.049
    8AU     LIG 4026  25.684   0.693  10.430
    8AU     LIG 4027  26.019   0.851  10.744
    8AU    AUSL 4028  23.982   1.105   8.207
    8AU    AUSL 4029  23.720   1.421   8.210
    8AU     AUL 4030  23.813   1.161   8.509
    8AU       S 4031  24.235   1.248   8.754
    8AU     LIG 4032  24.378   0.835   8.988
    8AU     LIG 4033  24.446   0.495   9.332
    8AU     LIG 4034  24.380   0.248   9.752
    8AU     LIG 4035  24.318   0.176  10.229
    8AU     LIG 4036  24.361   0.332  10.677
    8AU     LIG 4037  24.618   0.255  11.061
    8AU       S 4038  23.371   1.453   8.659
    8AU     LIG 4039  23.166   1.471   9.088
    8AU     LIG 4040  23.127   1.218   9.496
    8AU     LIG 4041  23.061   1.059   9.937
    8AU     LIG 4042  22.974   1.259  10.362
    8AU     LIG 4043  22.899   1.596  10.701
    8AU     LIG 4044  22.843   1.855  11.099
    8AU    AUSL 4045  24.051   1.438   8.209
    8AU    AUSL 4046  24.413   1.515   7.950
    8AU     AUL 4047  24.496   1.219   8.197
    8AU       S 4048  24.159   1.592   8.599
    8AU     LIG 4049  24.171   1.861   8.984
    8AU     LIG 4050  24.323   2.029   9.406
    8AU     LIG 4051  24.401   2.029   9.884
    8AU     LIG 4052  24.462   2.106  10.353
    8AU     LIG 4053  24.483   2.161  10.821
    8AU     LIG 4054  24.746   2.174  11.200
    8AU       S 4055  24.797   1.624   8.159
    8AU     LIG 4056  24.973   1.561   8.575
    8AU     LIG 4057  25.295   1.821   8.795
    8AU     LIG 4058  25.602   2.106   9.014
    8AU     LIG 4059  25.922   2.264   9.322
    8AU     LIG 4060  26.272   2.450   9.585
    8AU     LIG 4061  26.582   2.716   9.825
    8AU    AUSL 4062  24.267   1.341   6.893
    8AU    AUSL 4063  24.124   1.689   6.948
    8AU     AUL 4064  24.158   1.658   6.598
    8AU       S 4065  24.396   1.245   6.378
    8AU     LIG 4066  24.552   0.877   6.122
    8AU     LIG 4067  24.754   0.762   5.713
    8AU     LIG 4068  24.888   0.839   5.264
    8AU     LIG 4069  25.110   0.783   4.846
    8AU     LIG 4070  25.489   0.722   4.551
    8AU     LIG 4071  25.816   0.725   4.197
    8AU       S 4072  24.603   1.867   6.686
    8AU     LIG 4073  24.827   2.078   6.331
    8AU     LIG 4074  25.051   2.237   5.951
    8AU     LIG 4075  25.217   2.374   5.547
    8AU     LIG 4076  25.411   2.541   5.173
    8AU     LIG 4077  25.487   2.879   4.856
    8AU     LIG 4078  25.516   3.261   4.596
    8AU    AUSL 4079  24.029   1.119   6.793
    8AU    AUSL 4080  24.311   1.019   7.014
    8AU     AUL 4081  24.526   1.151   6.847
    8AU       S 4082  24.462   0.711   6.603
    8AU     LIG 4083  24.704   0.422   6.306
    8AU     LIG 4084  24.947   0.020   6.223
    8AU     LIG 4085  25.209  44.667   6.039
    8AU     LIG 4086  25.478  44.463   5.705
    8AU     LIG 4087  25.834  44.478   5.373
    8AU     LIG 4088  26.092  44.528   4.966
    8AU       S 4089  24.121   1.019   6.405
    8AU     LIG 4090  24.055   0.712   6.113
    8AU     LIG 4091  24.254   0.642   5.718
    8AU     LIG 4092  24.435   0.598   5.277
    8AU     LIG 4093  24.636   0.562   4.839
    8AU     LIG 4094  24.737   0.419   4.378
    8AU     LIG 4095  24.748   0.345   3.889
    8AU    AUSL 4096  23.960   1.440   6.805
    8AU    AUSL 4097  23.685   1.115   6.782
    8AU     AUL 4098  23.832   1.465   6.537
    8AU       S 4099  23.657   0.865   6.419
    8AU     LIG 4100  23.537   0.595   6.069
    8AU     LIG 4101  23.298   0.523   5.664
    8AU     LIG 4102  23.090   0.507   5.236
    8AU     LIG 4103  22.776   0.333   4.921
    8AU     LIG 4104  22.735   0.139   4.497
    8AU     LIG 4105  22.850   0.204   4.043
    8AU       S 4106  24.183   1.147   6.405
    8AU     LIG 4107  24.201   1.162   5.902
    8AU     LIG 4108  24.417   1.081   5.478
    8AU     LIG 4109  24.495   1.057   5.002
    8AU     LIG 4110  24.602   1.250   4.580
    8AU     LIG 4111  24.554   1.507   4.169
    8AU     LIG 4112  24.712   1.858   3.886
    8AU    AUSL 4113  23.415   1.332   8.112
    8AU    AUSL 4114  23.587   1.702   8.063
    8AU     AUL 4115  23.704   1.665   8.362
    8AU       S 4116  23.170   1.371   8.469
    8AU     LIG 4117  22.847   1.212   8.788
    8AU     LIG 4118  22.743   1.025   9.214
    8AU     LIG 4119  22.660   0.891   9.668
    8AU     LIG 4120  22.471   0.909  10.115
    8AU     LIG 4121  22.024   0.907  10.341
    8AU     LIG 4122  21.717   0.970  10.708
    8AU       S 4123  23.245   1.854   8.391
    8AU     LIG 4124  23.241   1.936   8.849
    8AU     LIG 4125  23.140   2.269   9.172
    8AU     LIG 4126  22.898   2.611   9.400
    8AU     LIG 4127  22.758   2.912   9.740
    8AU     LIG 4128  22.567   3.150  10.114
    8AU     LIG 4129  22.276   3.315  10.470
    8AU    AUSL 4130  23.647   1.094   8.195
    8AU    AUSL 4131  23.306   1.051   7.951
    8AU     AUL 4132  23.326   0.929   8.262
    8AU       S 4133  23.014   0.525   8.090
    8AU     LIG 4134  22.571   0.399   8.199
    8AU     LIG 4135  22.190   0.175   8.355
    8AU     LIG 4136  21.881  44.914   8.585
    8AU     LIG 4137  21.684  44.656   8.919
    8AU     LIG 4138  21.415  44.596   9.299
    8AU     LIG 4139  21.117  44.759   9.635
    8AU       S 4140  23.339   1.214   8.667
    8AU     LIG 4141  23.233   0.954   9.049
    8AU     LIG 4142  23.101   0.706   9.441
    8AU     LIG 4143  22.964   0.489   9.840
    8AU     LIG 4144  22.879   0.250  10.246
    8AU     LIG 4145  22.777   0.339  10.699
    8AU     LIG 4146  22.805   0.472  11.161
    8AU    AUSL 4147  23.395   1.245   6.922
    8AU    AUSL 4148  23.544   0.866   6.959
    8AU     AUL 4149  23.262   0.989   6.756
    8AU       S 4150  23.423   1.132   6.307
    8AU     LIG 4151  23.183   0.958   5.945
    8AU     LIG 4152  22.920   0.878   5.556
    8AU     LIG 4153  22.601   0.698   5.247
    8AU     LIG 4154  22.286   0.610   4.894
    8AU     LIG 4155  21.919   0.594   4.564
    8AU     LIG 4156  21.588   0.815   4.280
    8AU       S 4157  23.152   0.486   6.830
    8AU     LIG 4158  22.938   0.079   6.777
    8AU     LIG 4159  22.533  44.875   6.662
    8AU     LIG 4160  22.223  44.737   6.315
    8AU     LIG 4161  22.106  44.554   5.878
    8AU     LIG 4162  22.110  44.304   5.452
    8AU     LIG 4163  22.066  43.937   5.127
    8AU    AUSL 4164  23.629   1.448   6.814
    8AU    AUSL 4165  23.313   1.555   7.037
    8AU     AUL 4166  23.232   1.404   6.695
    8AU       S 4167  23.100   1.881   6.699
    8AU     LIG 4168  22.811   1.955   6.338
    8AU     LIG 4169  22.598   2.171   5.973
    8AU     LIG 4170  22.378   2.131   5.546
    8AU     LIG 4171  21.991   2.237   5.300
    8AU     LIG 4172  21.731   2.524   5.025
    8AU     LIG 4173  21.434   2.796   4.768
    8AU       S 4174  23.621   1.064   6.382
    8AU     LIG 4175  23.697   1.042   5.893
    8AU     LIG 4176  23.434   0.987   5.484
    8AU     LIG 4177  23.143   1.024   5.094
    8AU     LIG 4178  23.070   1.258   4.662
    8AU     LIG 4179  23.025   1.544   4.260
    8AU     LIG 4180  22.970   1.816   3.858
    8AU    AUSL 4181  24.451   1.688   7.461
    8AU    AUSL 4182  24.410   1.570   7.099
    8AU     AUL 4183  24.518   2.005   7.337
    8AU       S 4184  24.743   1.629   6.824
    8AU     LIG 4185  25.040   1.631   6.460
    8AU     LIG 4186  25.301   1.818   6.103
    8AU     LIG 4187  25.572   2.128   5.840
    8AU     LIG 4188  25.938   2.279   5.539
    8AU     LIG 4189  26.322   2.345   5.239
    8AU     LIG 4190  26.732   2.543   5.084
    8AU       S 4191  24.978   1.769   7.376
    8AU     LIG 4192  25.442   1.908   7.477
    8AU     LIG 4193  25.942   1.884   7.548
    8AU     LIG 4194  26.418   2.028   7.586
    8AU     LIG 4195  26.798   2.331   7.576
    8AU     LIG 4196  26.944   2.779   7.456
    8AU     LIG 4197  27.122   3.042   7.110
    8AU    AUSL 4198  24.563   1.389   7.328
    8AU    AUSL 4199  24.536   1.110   7.613
    8AU     AUL 4200  24.848   1.108   7.376
    8AU       S 4201  24.988   1.574   7.261
    8AU     LIG 4202  25.478   1.456   7.254
    8AU     LIG 4203  25.987   1.470   7.244
    8AU     LIG 4204  26.450   1.640   7.239
    8AU     LIG 4205  26.938   1.642   7.086
    8AU     LIG 4206  27.416   1.709   6.964
    8AU     LIG 4207  27.733   2.084   6.893
    8AU       S 4208  24.922   0.640   7.646
    8AU     LIG 4209  25.314   0.438   7.823
    8AU     LIG 4210  25.746   0.231   7.829
    8AU     LIG 4211  26.197   0.084   7.756
    8AU     LIG 4212  26.679   0.046   7.801
    8AU     LIG 4213  27.033   0.283   8.048
    8AU     LIG 4214  27.499   0.275   8.092
    8AU    AUSL 4215  24.557   1.440   7.664
    8AU    AUSL 4216  24.309   1.773   7.758
    8AU     AUL 4217  24.602   1.843   7.720
    8AU       S 4218  24.651   1.801   8.204
    8AU     LIG 4219  24.994   2.057   8.425
    8AU     LIG 4220  25.303   2.346   8.653
    8AU     LIG 4221  25.501   2.761   8.811
    8AU     LIG 4222  25.770   3.168   8.808
    8AU     LIG 4223  25.927   3.623   8.836
    8AU     LIG 4224  26.278   3.880   9.043
    8AU       S 4225  25.011   1.555   7.617
    8AU     LIG 4226  25.438   1.484   7.773
    8AU     LIG 4227  25.892   1.400   7.741
    8AU     LIG 4228  26.324   1.559   7.762
    8AU     LIG 4229  26.693   1.758   7.965
    8AU     LIG 4230  27.162   1.724   7.941
    8AU     LIG 4231  27.541   2.034   7.961
    8AU    AUSL 4232  23.259   1.755   7.534
    8AU    AUSL 4233  23.298   1.580   7.909
    8AU     AUL 4234  23.192   2.032   7.762
    8AU       S 4235  22.997   1.712   8.171
    8AU     LIG 4236  22.825   1.716   8.632
    8AU     LIG 4237  22.734   2.008   8.996
    8AU     LIG 4238  22.511   2.260   9.340
    8AU     LIG 4239  22.157   2.298   9.684
    8AU     LIG 4240  21.768   2.412   9.952
    8AU     LIG 4241  21.319   2.568   9.920
    8AU       S 4242  22.747   1.846   7.654
    8AU     LIG 4243  22.437   2.229   7.675
    8AU     LIG 4244  22.226   2.676   7.567
    8AU     LIG 4245  21.953   3.102   7.546
    8AU     LIG 4246  21.548   3.394   7.659
    8AU     LIG 4247  21.082   3.533   7.846
    8AU     LIG 4248  20.586   3.561   7.897
    8AU    AUSL 4249  23.170   1.499   7.330
    8AU    AUSL 4250  23.401   1.822   7.235
    8AU     AUL 4251  23.049   1.810   7.219
    8AU       S 4252  22.608   1.638   7.508
    8AU     LIG 4253  22.389   1.978   7.228
    8AU     LIG 4254  22.063   2.300   7.038
    8AU     LIG 4255  21.585   2.362   6.885
    8AU     LIG 4256  21.118   2.321   6.695
    8AU     LIG 4257  20.650   2.147   6.742
    8AU     LIG 4258  20.233   2.339   6.745
    8AU       S 4259  23.137   2.113   6.810
    8AU     LIG 4260  22.877   2.429   6.530
    8AU     LIG 4261  22.850   2.853   6.301
    8AU     LIG 4262  22.628   3.229   6.142
    8AU     LIG 4263  22.234   3.475   6.106
    8AU     LIG 4264  21.884   3.720   5.905
    8AU     LIG 4265  21.700   4.112   5.721
    8AU    AUSL 4266  23.126   1.461   7.650
    8AU    AUSL 4267  23.105   1.173   7.350
    8AU     AUL 4268  22.922   1.436   7.196
    8AU       S 4269  22.674   0.947   7.439
    8AU     LIG 4270  22.268   0.866   7.740
    8AU     LIG 4271  21.769   0.882   7.732
    8AU     LIG 4272  21.311   1.007   7.602
    8AU     LIG 4273  20.980   0.799   7.293
    8AU     LIG 4274  20.568   0.572   7.249
    8AU     LIG 4275  20.132   0.547   7.076
    8AU       S 4276  22.754   1.509   7.794
    8AU     LIG 4277  22.394   1.766   8.010
    8AU     LIG 4278  21.919   1.860   8.131
    8AU     LIG 4279  21.416   1.848   8.190
    8AU     LIG 4280  20.974   1.992   8.320
    8AU     LIG 4281  20.562   2.195   8.350
    8AU     LIG 4282  20.124   2.047   8.361
    8AU    AUSL 4283  24.439   0.817   7.490
    8AU    AUSL 4284  24.402   0.993   7.893
    8AU     AUL 4285  24.748   1.079   7.788
    8AU       S 4286  24.654   0.440   7.470
    8AU     LIG 4287  24.915   0.129   7.718
    8AU     LIG 4288  25.347  44.935   7.668
    8AU     LIG 4289  25.805  44.762   7.602
    8AU     LIG 4290  26.278  44.611   7.567
    8AU     LIG 4291  26.762  44.543   7.610
    8AU     LIG 4292  27.157  44.370   7.843
    8AU       S 4293  24.638   0.683   8.094
    8AU     LIG 4294  24.985   0.326   8.222
    8AU     LIG 4295  25.055  44.964   8.532
    8AU     LIG 4296  25.194  44.695   8.905
    8AU     LIG 4297  25.554  44.513   9.181
    8AU     LIG 4298  25.961  44.405   9.429
    8AU     LIG 4299  26.333  44.210   9.670
    8AU    AUSL 4300  24.500   1.069   7.284
    8AU    AUSL 4301  24.262   0.742   7.205
    8AU     AUL 4302  24.629   0.853   7.100
    8AU       S 4303  24.768   0.606   7.501
    8AU     LIG 4304  25.181   0.342   7.332
    8AU     LIG 4305  25.651   0.184   7.321
    8AU     LIG 4306  26.110  45.000   7.252
    8AU     LIG 4307  26.573  44.822   7.193
    8AU     LIG 4308  26.977  44.766   6.928
    8AU     LIG 4309  27.419  44.722   6.707
    8AU       S 4310  24.475   0.483   6.789
    8AU     LIG 4311  24.599   0.055   6.648
    8AU     LIG 4312  24.745  44.633   6.499
    8AU     LIG 4313  24.968  44.280   6.287
    8AU     LIG 4314  25.115  43.893   6.076
    8AU     LIG 4315  25.409  43.529   6.067
    8AU     LIG 4316  25.794  43.419   5.843
    8AU    AUSL 4317  23.217   0.884   7.467
    8AU    AUSL 4318  23.287   1.006   7.125
    8AU     AUL 4319  22.997   1.088   7.051
    8AU       S 4320  22.968   0.588   6.992
    8AU     LIG 4321  22.559   0.438   6.782
    8AU     LIG 4322  22.189   0.232   6.538
    8AU     LIG 4323  21.791   0.013   6.382
    8AU     LIG 4324  21.405  44.835   6.219
    8AU     LIG 4325  21.053  44.788   5.921
    8AU     LIG 4326  21.010  44.630   5.496
    8AU       S 4327  22.816   0.773   7.431
    8AU     LIG 4328  22.361   0.539   7.370
    8AU     LIG 4329  21.941   0.406   7.608
    8AU     LIG 4330  21.512   0.327   7.858
    8AU     LIG 4331  21.086   0.068   7.776
    8AU     LIG 4332  20.647  44.946   7.561
    8AU     LIG 4333  20.180  44.781   7.519
    8AU    AUSL 4334  23.150   1.140   7.676
    8AU    AUSL 4335  23.355   0.762   7.751
    8AU     AUL 4336  23.016   0.960   7.871
    8AU       S 4337  23.091   0.431   7.724
    8AU     LIG 4338  22.682   0.268   7.716
    8AU     LIG 4339  22.427  44.954   7.944
    8AU     LIG 4340  22.184  44.664   8.237
    8AU     LIG 4341  21.938  44.388   8.543
    8AU     LIG 4342  21.785  43.992   8.773
    8AU     LIG 4343  21.674  43.503   8.761
    8AU       S 4344  22.694   1.083   7.509
    8AU     LIG 4345  22.227   1.038   7.265
    8AU     LIG 4346  21.847   0.749   7.231
    8AU     LIG 4347  21.448   0.564   7.422
    8AU     LIG 4348  21.051   0.584   7.740
    8AU     LIG 4349  20.569   0.571   7.767
    8AU     LIG 4350  20.157   0.312   7.798
    8AU    AUSL 4351  23.863   1.880   7.949
    8AU    AUSL 4352  23.468   1.833   7.782
    8AU     AUL 4353  23.560   2.084   8.011
    8AU       S 4354  23.161   1.921   8.255
    8AU     LIG 4355  22.927   2.225   8.557
    8AU     LIG 4356  22.795   2.540   8.894
    8AU     LIG 4357  22.733   2.998   9.065
    8AU     LIG 4358  22.535   3.443   8.997
    8AU     LIG 4359  22.297   3.836   9.170
    8AU     LIG 4360  21.862   4.027   9.157
    8AU       S 4361  23.929   2.414   8.058
    8AU     LIG 4362  24.108   2.596   8.425
    8AU     LIG 4363  24.241   2.991   8.598
    8AU     LIG 4364  24.153   3.335   8.906
    8AU     LIG 4365  24.054   3.521   9.343
    8AU     LIG 4366  23.916   3.781   9.721
    8AU     LIG 4367  23.839   4.186   9.947
    8AU    AUSL 4368  23.723   2.000   7.658
    8AU    AUSL 4369  24.004   2.016   7.354
    8AU     AUL 4370  23.540   2.233   7.464
    8AU       S 4371  23.843   2.485   7.786
    8AU     LIG 4372  23.833   2.898   8.075
    8AU     LIG 4373  23.969   3.298   8.279
    8AU     LIG 4374  23.762   3.726   8.346
    8AU     LIG 4375  23.529   4.139   8.270
    8AU     LIG 4376  23.309   4.565   8.303
    8AU     LIG 4377  23.299   4.948   8.593
    8AU       S 4378  24.150   2.432   7.277
    8AU     LIG 4379  24.448   2.752   7.115
    8AU     LIG 4380  24.548   3.140   6.849
    8AU     LIG 4381  24.869   3.511   6.753
    8AU     LIG 4382  24.916   3.973   6.645
    8AU     LIG 4383  24.857   4.403   6.464
    8AU     LIG 4384  24.791   4.838   6.273
    8AU    AUSL 4385  24.059   1.975   7.678
    8AU    AUSL 4386  24.132   1.699   8.034
    8AU     AUL 4387  24.227   2.026   7.999
    8AU       S 4388  24.506   1.740   8.301
    8AU     LIG 4389  24.616   1.886   8.730
    8AU     LIG 4390  24.932   2.145   8.962
    8AU     LIG 4391  25.246   2.442   9.165
    8AU     LIG 4392  25.536   2.545   9.520
    8AU     LIG 4393  25.621   2.842   9.879
    8AU     LIG 4394  25.503   3.254  10.077
    8AU       S 4395  24.098   2.446   7.760
    8AU     LIG 4396  24.327   2.801   8.006
    8AU     LIG 4397  24.541   3.190   8.212
    8AU     LIG 4398  24.912   3.516   8.279
    8AU     LIG 4399  25.083   3.975   8.268
    8AU     LIG 4400  24.977   4.375   8.499
    8AU     LIG 4401  25.025   4.710   8.832
    8AU    AUSL 4402  23.847   0.690   7.965
    8AU    AUSL 4403  24.257   0.717   7.748
    8AU     AUL 4404  24.085   0.464   7.997
    8AU       S 4405  23.696   0.145   8.064
    8AU     LIG 4406  23.390  44.820   8.206
    8AU     LIG 4407  23.267  44.380   8.266
    8AU     LIG 4408  23.429  43.956   8.387
    8AU     LIG 4409  23.595  43.522   8.510
    8AU     LIG 4410  23.522  43.249   8.892
    8AU     LIG 4411  23.280  43.277   9.297
    8AU       S 4412  24.583   0.461   7.952
    8AU     LIG 4413  24.580   0.024   8.101
    8AU     LIG 4414  24.729  44.641   8.298
    8AU     LIG 4415  24.972  44.358   8.578
    8AU     LIG 4416  25.146  43.930   8.733
    8AU     LIG 4417  25.453  43.553   8.784
    8AU     LIG 4418  25.916  43.528   8.848
    8AU    AUSL 4419  23.640   0.588   7.712
    8AU    AUSL 4420  23.566   0.852   7.986
    8AU     AUL 4421  23.551   0.621   8.138
    8AU       S 4422  23.504   0.173   7.844
    8AU     LIG 4423  23.203  44.869   7.722
    8AU     LIG 4424  23.179  44.404   7.754
    8AU     LIG 4425  23.139  43.947   7.952
    8AU     LIG 4426  22.936  43.488   8.048
    8AU     LIG 4427  22.818  42.993   8.053
    8AU     LIG 4428  23.000  42.535   8.135
    8AU       S 4429  23.140   0.464   7.917
    8AU     LIG 4430  22.934   0.041   8.112
    8AU     LIG 4431  22.621  44.891   8.426
    8AU     LIG 4432  22.321  44.692   8.739
    8AU     LIG 4433  22.107  44.388   9.037
    8AU     LIG 4434  21.960  44.278   9.472
    8AU     LIG 4435  21.973  44.106   9.919
    8AU    AUSL 4436  23.962   0.603   7.663
    8AU    AUSL 4437  23.670   0.550   7.381
    8AU     AUL 4438  24.030   0.343   7.590
    8AU       S 4439  23.408   0.182   7.373
    8AU     LIG 4440  23.090  44.873   7.234
    8AU     LIG 4441  23.090  44.408   7.237
    8AU     LIG 4442  23.116  43.988   7.013
    8AU     LIG 4443  23.132  43.587   6.744
    8AU     LIG 4444  22.905  43.153   6.645
    8AU     LIG 4445  22.876  42.680   6.567
    8AU       S 4446  23.638   0.182   7.813
    8AU     LIG 4447  23.664  44.673   7.800
    8AU     LIG 4448  23.616  44.191   7.931
    8AU     LIG 4449  23.632  43.697   7.996
    8AU     LIG 4450  23.786  43.240   8.090
    8AU     LIG 4451  23.992  42.877   8.308
    8AU     LIG 4452  23.998  42.522   8.603
    8AU    AUSL 4453  23.874   1.888   7.060
    8AU    AUSL 4454  24.246   1.821   7.233
    8AU     AUL 4455  24.189   2.026   6.963
    8AU       S 4456  23.929   2.444   6.974
    8AU     LIG 4457  24.165   2.735   6.691
    8AU     LIG 4458  24.289   3.065   6.393
    8AU     LIG 4459  24.126   3.416   6.132
    8AU     LIG 4460  24.089   3.602   5.694
    8AU     LIG 4461  24.090   3.932   5.361
    8AU     LIG 4462  24.035   4.108   4.930
    8AU       S 4463  24.674   1.798   6.924
    8AU     LIG 4464  25.086   2.020   6.796
    8AU     LIG 4465  25.316   2.223   6.419
    8AU     LIG 4466  25.434   2.570   6.110
    8AU     LIG 4467  25.562   3.046   6.096
    8AU     LIG 4468  25.742   3.498   6.109
    8AU     LIG 4469  26.106   3.768   5.985
    8AU    AUSL 4470  23.686   1.958   7.331
    8AU    AUSL 4471  23.593   1.742   6.962
    8AU     AUL 4472  23.560   2.110   7.069
    8AU       S 4473  23.950   2.417   7.268
    8AU     LIG 4474  23.962   2.911   7.140
    8AU     LIG 4475  24.005   3.244   6.790
    8AU     LIG 4476  23.782   3.636   6.590
    8AU     LIG 4477  23.441   4.004   6.622
    8AU     LIG 4478  23.233   4.443   6.530
    8AU     LIG 4479  23.369   4.890   6.540
    8AU       S 4480  23.396   1.933   6.614
    8AU     LIG 4481  23.252   2.211   6.265
    8AU     LIG 4482  23.010   2.481   5.953
    8AU     LIG 4483  23.055   2.627   5.490
    8AU     LIG 4484  23.070   2.905   5.092
    8AU     LIG 4485  22.771   3.167   4.823
    8AU     LIG 4486  22.372   3.351   4.640
    8AU    AUSL 4487  23.790   0.696   7.107
    8AU    AUSL 4488  23.423   0.727   7.247
    8AU     AUL 4489  23.638   0.533   6.928
    8AU       S 4490  23.106   0.464   7.139
    8AU     LIG 4491  22.712   0.210   7.214
    8AU     LIG 4492  22.273   0.104   7.056
    8AU     LIG 4493  22.004  44.804   6.792
    8AU     LIG 4494  21.722  44.498   6.505
    8AU     LIG 4495  21.395  44.096   6.448
    8AU     LIG 4496  21.183  43.626   6.418
    8AU       S 4497  23.556   0.215   7.288
    8AU     LIG 4498  23.436  44.977   6.887
    8AU     LIG 4499  23.306  44.545   6.791
    8AU     LIG 4500  23.398  44.113   6.604
    8AU     LIG 4501  23.445  43.730   6.327
    8AU     LIG 4502  23.513  43.567   5.872
    8AU     LIG 4503  23.588  43.337   5.463
    8AU    AUSL 4504  24.003   0.582   7.337
    8AU    AUSL 4505  24.047   0.819   6.945
    8AU     AUL 4506  24.048   0.436   7.050
    8AU       S 4507  23.710   0.120   7.295
    8AU     LIG 4508  23.552  44.668   7.294
    8AU     LIG 4509  23.567  44.224   7.110
    8AU     LIG 4510  23.596  43.771   6.940
    8AU     LIG 4511  23.813  43.345   6.905
    8AU     LIG 4512  23.970  42.897   6.911
    8AU     LIG 4513  24.140  42.583   6.602
    8AU       S 4514  24.223   0.605   6.609
    8AU     LIG 4515  24.218   0.270   6.334
    8AU     LIG 4516  24.444  44.920   6.167
    8AU     LIG 4517  24.704  44.596   5.974
    8AU     LIG 4518  24.962  44.284   5.737
    8AU     LIG 4519  24.931  44.007   5.343
    8AU     LIG 4520  25.067  43.899   4.898
    9AU     AUC 4521   1.505  27.575   7.498
    9AU     AUC 4522   1.750  27.570   7.335
    9AU     AUC 4523   1.761  27.569   7.644
    9AU     AUC 4524   1.250  27.581   7.350
    9AU     AUC 4525   1.259  27.585   7.659
    9AU     AUC 4526   1.358  27.828   7.501
    9AU     AUC 4527   1.665  27.822   7.493
    9AU     AUC 4528   1.343  27.326   7.505
    9AU     AUC 4529   1.656  27.321   7.494
    9AU     AUC 4530   1.509  27.422   7.749
    9AU     AUC 4531   1.518  27.730   7.749
    9AU     AUC 4532   1.495  27.420   7.246
    9AU     AUC 4533   1.501  27.730   7.247
    9AU     AUC 4534   1.986  27.566   7.175
    9AU     AUC 4535   2.003  27.558   7.479
    9AU     AUC 4536   2.009  27.560   7.783
    9AU     AUC 4537   1.004  27.583   7.206
    9AU     AUC 4538   1.006  27.596   7.506
    9AU     AUC 4539   1.020  27.597   7.813
    9AU     AUC 4540   1.217  28.075   7.504
    9AU     AUC 4541   1.521  28.072   7.498
    9AU     AUC 4542   1.820  28.061   7.489
    9AU     AUC 4543   1.189  27.089   7.512
    9AU     AUC 4544   1.491  27.078   7.513
    9AU     AUC 4545   1.799  27.076   7.491
    9AU     AUC 4546   1.509  27.273   7.991
    9AU     AUC 4547   1.517  27.571   7.996
    9AU     AUC 4548   1.532  27.877   7.992
    9AU     AUC 4549   1.485  27.269   7.006
    9AU     AUC 4550   1.492  27.569   6.998
    9AU     AUC 4551   1.497  27.878   7.003
    9AU     AUC 4552   1.761  27.412   7.894
    9AU     AUC 4553   1.774  27.718   7.894
    9AU     AUC 4554   1.736  27.417   7.087
    9AU     AUC 4555   1.746  27.725   7.089
    9AU     AUC 4556   1.256  27.432   7.905
    9AU     AUC 4557   1.274  27.736   7.910
    9AU     AUC 4558   1.246  27.421   7.102
    9AU     AUC 4559   1.248  27.730   7.100
    9AU     AUC 4560   1.909  27.815   7.333
    9AU     AUC 4561   1.923  27.809   7.638
    9AU     AUC 4562   1.103  27.833   7.349
    9AU     AUC 4563   1.116  27.841   7.660
    9AU     AUC 4564   1.891  27.311   7.325
    9AU     AUC 4565   1.907  27.313   7.635
    9AU     AUC 4566   1.096  27.332   7.354
    9AU     AUC 4567   1.094  27.343   7.655
    9AU     AUC 4568   1.375  27.983   7.754
    9AU     AUC 4569   1.682  27.972   7.744
    9AU     AUC 4570   1.340  27.181   7.752
    9AU     AUC 4571   1.658  27.171   7.748
    9AU     AUC 4572   1.356  27.980   7.247
    9AU     AUC 4573   1.662  27.975   7.243
    9AU     AUC 4574   1.337  27.170   7.262
    9AU     AUC 4575   1.641  27.164   7.249
    9AU    AUSL 4576   1.938  27.534   8.074
    9AU    AUSL 4577   1.798  27.143   8.037
    9AU     AUL 4578   1.932  27.244   8.362
    9AU       S 4579   2.184  26.818   8.244
    9AU     LIG 4580   2.181  26.411   8.482
    9AU     LIG 4581   2.195  26.017   8.747
    9AU     LIG 4582   2.332  25.705   9.059
    9AU     LIG 4583   2.585  25.438   9.346
    9AU     LIG 4584   2.655  25.144   9.713
    9AU     LIG 4585   2.894  24.910  10.060
    9AU       S 4586   2.095  27.718   8.630
    9AU     LIG 4587   2.360  27.714   9.018
    9AU     LIG 4588   2.470  27.403   9.372
    9AU     LIG 4589   2.640  27.137   9.734
    9AU     LIG 4590   2.972  27.032  10.075
    9AU     LIG 4591   3.341  27.116  10.376
    9AU     LIG 4592   3.681  27.387  10.595
    9AU    AUSL 4593   1.655  27.405   8.205
    9AU    AUSL 4594   1.387  27.715   8.200
    9AU     AUL 4595   1.492  27.490   8.506
    9AU       S 4596   1.920  27.574   8.739
    9AU     LIG 4597   2.111  27.247   9.021
    9AU     LIG 4598   2.215  26.944   9.383
    9AU     LIG 4599   2.312  26.726   9.797
    9AU     LIG 4600   2.388  26.499  10.216
    9AU     LIG 4601   2.421  26.447  10.689
    9AU     LIG 4602   2.290  26.423  11.154
    9AU       S 4603   1.025  27.734   8.667
    9AU     LIG 4604   0.861  27.732   9.113
    9AU     LIG 4605   0.797  27.469   9.516
    9AU     LIG 4606   0.656  27.346   9.955
    9AU     LIG 4607   0.540  27.580  10.363
    9AU     LIG 4608   0.594  27.944  10.685
    9AU     LIG 4609   0.542  28.221  11.073
    9AU    AUSL 4610   1.720  27.738   8.205
    9AU    AUSL 4611   2.082  27.812   7.939
    9AU     AUL 4612   2.162  27.517   8.193
    9AU       S 4613   1.841  27.917   8.587
    9AU     LIG 4614   1.940  28.038   9.029
    9AU     LIG 4615   2.154  28.283   9.376
    9AU     LIG 4616   2.223  28.494   9.810
    9AU     LIG 4617   2.290  28.515  10.296
    9AU     LIG 4618   2.383  28.518  10.771
    9AU     LIG 4619   2.380  28.488  11.257
    9AU       S 4620   2.476  27.910   8.128
    9AU     LIG 4621   2.614  27.796   8.547
    9AU     LIG 4622   2.828  27.978   8.907
    9AU     LIG 4623   3.159  28.239   9.133
    9AU     LIG 4624   3.443  28.547   9.370
    9AU     LIG 4625   3.812  28.690   9.632
    9AU     LIG 4626   4.143  28.804   9.959
    9AU    AUSL 4627   1.930  27.621   6.889
    9AU    AUSL 4628   1.781  27.976   6.937
    9AU     AUL 4629   1.838  27.922   6.589
    9AU       S 4630   2.049  27.497   6.375
    9AU     LIG 4631   2.322  27.189   6.176
    9AU     LIG 4632   2.519  27.043   5.781
    9AU     LIG 4633   2.685  27.043   5.333
    9AU     LIG 4634   3.108  26.982   5.081
    9AU     LIG 4635   3.517  26.959   4.809
    9AU     LIG 4636   3.774  27.135   4.452
    9AU       S 4637   2.257  28.181   6.680
    9AU     LIG 4638   2.526  28.335   6.316
    9AU     LIG 4639   2.775  28.492   5.935
    9AU     LIG 4640   2.839  28.633   5.479
    9AU     LIG 4641   2.912  29.031   5.224
    9AU     LIG 4642   3.066  29.425   5.003
    9AU     LIG 4643   3.161  29.591   4.569
    9AU    AUSL 4644   1.693  27.397   6.792
    9AU    AUSL 4645   1.974  27.303   7.015
    9AU     AUL 4646   2.191  27.437   6.846
    9AU       S 4647   2.127  26.989   6.613
    9AU     LIG 4648   2.327  26.681   6.309
    9AU     LIG 4649   2.506  26.239   6.200
    9AU     LIG 4650   2.784  25.967   5.917
    9AU     LIG 4651   3.137  25.929   5.578
    9AU     LIG 4652   3.556  25.799   5.360
    9AU     LIG 4653   4.011  25.803   5.178
    9AU       S 4654   1.768  27.267   6.389
    9AU     LIG 4655   1.887  26.917   6.120
    9AU     LIG 4656   2.055  26.849   5.697
    9AU     LIG 4657   2.208  26.827   5.238
    9AU     LIG 4658   2.180  26.576   4.818
    9AU     LIG 4659   2.130  26.426   4.359
    9AU     LIG 4660   2.242  26.505   3.906
    9AU    AUSL 4661   1.622  27.719   6.804
    9AU    AUSL 4662   1.348  27.405   6.779
    9AU     AUL 4663   1.514  27.741   6.535
    9AU       S 4664   1.293  27.180   6.406
    9AU     LIG 4665   1.171  26.904   6.069
    9AU     LIG 4666   0.930  26.835   5.670
    9AU     LIG 4667   0.638  26.644   5.340
    9AU     LIG 4668   0.383  26.536   4.937
    9AU     LIG 4669   0.372  26.493   4.459
    9AU     LIG 4670   0.326  26.416   3.985
    9AU       S 4671   1.844  27.395   6.414
    9AU     LIG 4672   1.930  27.369   5.896
    9AU     LIG 4673   2.186  27.302   5.474
    9AU     LIG 4674   2.306  27.322   4.999
    9AU     LIG 4675   2.292  27.555   4.545
    9AU     LIG 4676   2.386  27.757   4.094
    9AU     LIG 4677   2.518  28.027   3.700
    9AU    AUSL 4678   1.084  27.613   8.116
    9AU    AUSL 4679   1.264  28.004   8.065
    9AU     AUL 4680   1.370  27.928   8.376
    9AU       S 4681   0.850  27.652   8.490
    9AU     LIG 4682   0.530  27.501   8.801
    9AU     LIG 4683   0.428  27.287   9.206
    9AU     LIG 4684   0.326  27.120   9.629
    9AU     LIG 4685   0.104  27.062  10.035
    9AU     LIG 4686  44.677  27.144  10.251
    9AU     LIG 4687  44.451  27.240  10.653
    9AU       S 4688   0.929  28.151   8.408
    9AU     LIG 4689   0.884  28.236   8.857
    9AU     LIG 4690   0.761  28.581   9.149
    9AU     LIG 4691   0.481  28.818   9.445
    9AU     LIG 4692   0.370  29.015   9.875
    9AU     LIG 4693   0.197  29.186  10.296
    9AU     LIG 4694  44.983  29.435  10.647
    9AU    AUSL 4695   1.321  27.384   8.202
    9AU    AUSL 4696   0.961  27.344   7.947
    9AU     AUL 4697   0.988  27.222   8.259
    9AU       S 4698   0.666  26.834   8.077
    9AU     LIG 4699   0.308  26.575   8.147
    9AU     LIG 4700  44.932  26.399   8.321
    9AU     LIG 4701  44.595  26.182   8.563
    9AU     LIG 4702  44.375  25.928   8.890
    9AU     LIG 4703  44.065  25.775   9.205
    9AU     LIG 4704  43.661  25.796   9.465
    9AU       S 4705   1.025  27.476   8.684
    9AU     LIG 4706   0.917  27.213   9.064
    9AU     LIG 4707   0.784  26.957   9.458
    9AU     LIG 4708   0.642  26.804   9.902
    9AU     LIG 4709   0.645  26.528  10.303
    9AU     LIG 4710   0.687  26.448  10.768
    9AU     LIG 4711   0.505  26.590  11.174
    9AU    AUSL 4712   1.061  27.537   6.922
    9AU    AUSL 4713   1.214  27.151   6.951
    9AU     AUL 4714   0.926  27.295   6.755
    9AU       S 4715   1.058  27.467   6.308
    9AU     LIG 4716   0.770  27.230   5.989
    9AU     LIG 4717   0.448  27.027   5.676
    9AU     LIG 4718   0.211  26.918   5.269
    9AU     LIG 4719  44.986  26.986   4.862
    9AU     LIG 4720  44.653  26.965   4.527
    9AU     LIG 4721  44.456  27.252   4.206
    9AU       S 4722   0.842  26.787   6.792
    9AU     LIG 4723   0.607  26.389   6.760
    9AU     LIG 4724   0.273  26.216   6.459
    9AU     LIG 4725  44.947  26.077   6.129
    9AU     LIG 4726  44.788  25.812   5.747
    9AU     LIG 4727  44.844  25.662   5.270
    9AU     LIG 4728  44.905  25.288   4.950
    9AU    AUSL 4729   1.290  27.738   6.804
    9AU    AUSL 4730   0.973  27.839   7.047
    9AU     AUL 4731   0.868  27.694   6.722
    9AU       S 4732   0.776  28.175   6.659
    9AU     LIG 4733   0.554  28.292   6.232
    9AU     LIG 4734   0.308  28.415   5.814
    9AU     LIG 4735   0.044  28.521   5.411
    9AU     LIG 4736  44.630  28.617   5.162
    9AU     LIG 4737  44.215  28.808   4.985
    9AU     LIG 4738  43.826  29.097   4.936
    9AU       S 4739   1.256  27.378   6.362
    9AU     LIG 4740   1.260  27.360   5.863
    9AU     LIG 4741   0.955  27.323   5.485
    9AU     LIG 4742   0.890  27.428   5.008
    9AU     LIG 4743   0.930  27.646   4.563
    9AU     LIG 4744   0.797  27.889   4.160
    9AU     LIG 4745   0.641  28.042   3.727
    9AU    AUSL 4746   2.111  27.980   7.448
    9AU    AUSL 4747   2.068  27.859   7.088
    9AU     AUL 4748   2.174  28.298   7.327
    9AU       S 4749   2.386  27.927   6.812
    9AU     LIG 4750   2.689  27.876   6.484
    9AU     LIG 4751   2.978  28.075   6.176
    9AU     LIG 4752   3.278  28.360   5.943
    9AU     LIG 4753   3.558  28.428   5.555
    9AU     LIG 4754   3.925  28.546   5.275
    9AU     LIG 4755   4.186  28.865   5.027
    9AU       S 4756   2.638  28.065   7.349
    9AU     LIG 4757   3.111  28.180   7.403
    9AU     LIG 4758   3.599  28.130   7.516
    9AU     LIG 4759   4.090  28.210   7.561
    9AU     LIG 4760   4.498  28.472   7.609
    9AU     LIG 4761   4.644  28.834   7.883
    9AU     LIG 4762   4.778  29.282   7.980
    9AU    AUSL 4763   2.225  27.681   7.317
    9AU    AUSL 4764   2.202  27.405   7.610
    9AU     AUL 4765   2.512  27.403   7.372
    9AU       S 4766   2.628  27.873   7.244
    9AU     LIG 4767   3.054  27.729   7.169
    9AU     LIG 4768   3.516  27.701   7.245
    9AU     LIG 4769   3.991  27.785   7.289
    9AU     LIG 4770   4.464  27.953   7.280
    9AU     LIG 4771   4.901  28.020   7.051
    9AU     LIG 4772   5.264  28.283   6.936
    9AU       S 4773   2.590  26.944   7.652
    9AU     LIG 4774   3.007  26.815   7.838
    9AU     LIG 4775   3.488  26.715   7.825
    9AU     LIG 4776   3.900  26.593   8.053
    9AU     LIG 4777   4.332  26.363   8.099
    9AU     LIG 4778   4.819  26.476   8.085
    9AU     LIG 4779   5.276  26.445   8.232
    9AU    AUSL 4780   2.222  27.735   7.652
    9AU    AUSL 4781   1.975  28.069   7.747
    9AU     AUL 4782   2.270  28.138   7.702
    9AU       S 4783   2.323  28.082   8.183
    9AU     LIG 4784   2.686  28.295   8.392
    9AU     LIG 4785   2.932  28.472   8.733
    9AU     LIG 4786   3.249  28.745   8.936
    9AU     LIG 4787   3.478  29.130   9.082
    9AU     LIG 4788   3.596  29.603   9.095
    9AU     LIG 4789   3.628  30.070   9.235
    9AU       S 4790   2.686  27.851   7.598
    9AU     LIG 4791   3.170  27.754   7.677
    9AU     LIG 4792   3.647  27.663   7.742
    9AU     LIG 4793   4.120  27.730   7.781
    9AU     LIG 4794   4.524  27.985   7.797
    9AU     LIG 4795   4.802  28.323   8.011
    9AU     LIG 4796   5.212  28.437   8.200
    9AU    AUSL 4797   0.921  28.045   7.523
    9AU    AUSL 4798   0.976  27.873   7.930
    9AU     AUL 4799   0.856  28.313   7.777
    9AU       S 4800   0.697  28.002   8.206
    9AU     LIG 4801   0.488  28.006   8.632
    9AU     LIG 4802   0.354  28.315   8.975
    9AU     LIG 4803   0.068  28.498   9.333
    9AU     LIG 4804  44.635  28.595   9.562
    9AU     LIG 4805  44.217  28.723   9.796
    9AU     LIG 4806  43.830  28.898  10.059
    9AU       S 4807   0.418  28.200   7.571
    9AU     LIG 4808   0.090  28.529   7.511
    9AU     LIG 4809  44.808  28.913   7.469
    9AU     LIG 4810  44.465  29.246   7.494
    9AU     LIG 4811  44.024  29.323   7.546
    9AU     LIG 4812  43.667  29.587   7.603
    9AU     LIG 4813  43.324  29.808   7.449
    9AU    AUSL 4814   0.805  27.776   7.337
    9AU    AUSL 4815   1.067  28.113   7.230
    9AU     AUL 4816   0.735  28.087   7.184
    9AU       S 4817   0.276  28.013   7.371
    9AU     LIG 4818   0.016  28.276   7.066
    9AU     LIG 4819  44.660  28.577   6.932
    9AU     LIG 4820  44.239  28.763   6.750
    9AU     LIG 4821  43.770  28.891   6.695
    9AU     LIG 4822  43.326  28.934   6.540
    9AU     LIG 4823  42.882  28.851   6.669
    9AU       S 4824   0.813  28.398   6.790
    9AU     LIG 4825   0.663  28.727   6.496
    9AU     LIG 4826   0.753  29.072   6.191
    9AU     LIG 4827   0.618  29.410   5.889
    9AU     LIG 4828   0.357  29.808   5.806
    9AU     LIG 4829  44.926  30.042   5.805
    9AU     LIG 4830  44.469  30.224   5.791
    9AU    AUSL 4831   0.803  27.764   7.678
    9AU    AUSL 4832   0.769  27.446   7.338
    9AU     AUL 4833   0.518  27.611   7.525
    9AU       S 4834   0.351  27.102   7.322
    9AU     LIG 4835   0.002  27.147   7.741
    9AU     LIG 4836  44.554  27.035   7.743
    9AU     LIG 4837  44.126  26.888   7.619
    9AU     LIG 4838  43.739  26.754   7.385
    9AU     LIG 4839  43.268  26.704   7.346
    9AU     LIG 4840  42.942  26.507   7.090
    9AU       S 4841   0.404  28.000   7.818
    9AU     LIG 4842   0.234  28.233   8.214
    9AU     LIG 4843  44.826  28.410   8.429
    9AU     LIG 4844  44.347  28.538   8.479
    9AU     LIG 4845  43.920  28.724   8.332
    9AU     LIG 4846  43.457  28.754   8.450
    9AU     LIG 4847  43.008  28.700   8.338
    9AU    AUSL 4848   2.105  27.110   7.491
    9AU    AUSL 4849   2.068  27.289   7.891
    9AU     AUL 4850   2.409  27.379   7.791
    9AU       S 4851   2.332  26.734   7.475
    9AU     LIG 4852   2.655  26.448   7.704
    9AU     LIG 4853   3.130  26.342   7.674
    9AU     LIG 4854   3.609  26.257   7.619
    9AU     LIG 4855   3.966  25.990   7.469
    9AU     LIG 4856   4.380  25.827   7.559
    9AU     LIG 4857   4.567  25.483   7.833
    9AU       S 4858   2.305  26.977   8.095
    9AU     LIG 4859   2.628  26.580   8.216
    9AU     LIG 4860   2.625  26.149   8.452
    9AU     LIG 4861   2.755  25.880   8.827
    9AU     LIG 4862   3.044  25.683   9.159
    9AU     LIG 4863   3.437  25.810   9.434
    9AU     LIG 4864   3.816  25.937   9.712
    9AU    AUSL 4865   2.164  27.360   7.281
    9AU    AUSL 4866   1.926  27.027   7.210
    9AU     AUL 4867   2.291  27.139   7.101
    9AU       S 4868   2.445  26.905   7.503
    9AU     LIG 4869   2.905  26.710   7.338
    9AU     LIG 4870   3.393  26.591   7.295
    9AU     LIG 4871   3.860  26.408   7.175
    9AU     LIG 4872   4.340  26.235   7.182
    9AU     LIG 4873   4.829  26.370   7.133
    9AU     LIG 4874   5.293  26.331   6.915
    9AU       S 4875   2.142  26.750   6.808
    9AU     LIG 4876   2.267  26.299   6.666
    9AU     LIG 4877   2.367  25.833   6.563
    9AU     LIG 4878   2.473  25.377   6.433
    9AU     LIG 4879   2.710  25.083   6.159
    9AU     LIG 4880   3.015  24.752   6.028
    9AU     LIG 4881   3.074  24.289   6.122
    9AU    AUSL 4882   0.890  27.171   7.465
    9AU    AUSL 4883   0.956  27.291   7.117
    9AU     AUL 4884   0.663  27.418   7.059
    9AU       S 4885   0.655  26.901   6.955
    9AU     LIG 4886   0.252  26.771   6.810
    9AU     LIG 4887  44.920  26.567   6.567
    9AU     LIG 4888  44.574  26.339   6.364
    9AU     LIG 4889  44.434  26.118   5.998
    9AU     LIG 4890  44.201  25.952   5.636
    9AU     LIG 4891  44.205  25.894   5.171
    9AU       S 4892   0.545  27.008   7.417
    9AU     LIG 4893   0.258  26.727   7.674
    9AU     LIG 4894  44.860  26.629   7.837
    9AU     LIG 4895  44.474  26.518   7.592
    9AU     LIG 4896  44.000  26.359   7.606
    9AU     LIG 4897  43.596  26.052   7.643
    9AU     LIG 4898  43.193  25.785   7.799
    9AU    AUSL 4899   0.818  27.435   7.664
    9AU    AUSL 4900   1.018  27.057   7.754
    9AU     AUL 4901   0.658  27.270   7.842
    9AU       S 4902   0.759  26.712   7.747
    9AU     LIG 4903   0.521  26.312   7.692
    9AU     LIG 4904   0.119  26.174   7.873
    9AU     LIG 4905  44.862  25.914   8.176
    9AU     LIG 4906  44.650  25.666   8.527
    9AU     LIG 4907  44.456  25.402   8.885
    9AU     LIG 4908  44.276  24.964   9.006
    9AU       S 4909   0.378  27.152   7.432
    9AU     LIG 4910  44.910  27.349   7.293
    9AU     LIG 4911  44.428  27.202   7.271
    9AU     LIG 4912  43.920  27.260   7.344
    9AU     LIG 4913  43.491  27.155   7.584
    9AU     LIG 4914  43.104  26.923   7.785
    9AU     LIG 4915  42.792  26.567   7.876
    9AU    AUSL 4916   1.533  28.177   7.941
    9AU    AUSL 4917   1.133  28.120   7.778
    9AU     AUL 4918   1.229  28.382   8.001
    9AU       S 4919   0.844  28.221   8.270
    9AU     LIG 4920   0.576  28.511   8.534
    9AU     LIG 4921   0.578  28.907   8.791
    9AU     LIG 4922   0.557  29.362   8.937
    9AU     LIG 4923   0.270  29.726   9.069
    9AU     LIG 4924  44.861  29.976   9.143
    9AU     LIG 4925  44.443  30.227   9.147
    9AU       S 4926   1.594  28.724   8.036
    9AU     LIG 4927   1.655  29.069   8.346
    9AU     LIG 4928   1.626  29.469   8.574
    9AU     LIG 4929   1.700  29.817   8.849
    9AU     LIG 4930   1.567  30.124   9.147
    9AU     LIG 4931   1.726  30.363   9.513
    9AU     LIG 4932   1.693  30.695   9.834
    9AU    AUSL 4933   1.385  28.291   7.652
    9AU    AUSL 4934   1.666  28.307   7.343
    9AU     AUL 4935   1.192  28.516   7.454
    9AU       S 4936   1.505  28.774   7.758
    9AU     LIG 4937   1.460  29.218   7.892
    9AU     LIG 4938   1.600  29.610   8.079
    9AU     LIG 4939   1.543  29.958   8.387
    9AU     LIG 4940   1.460  30.400   8.373
    9AU     LIG 4941   1.070  30.640   8.486
    9AU     LIG 4942   0.896  31.064   8.600
    9AU       S 4943   1.804  28.725   7.262
    9AU     LIG 4944   1.979  29.101   7.063
    9AU     LIG 4945   2.034  29.465   6.779
    9AU     LIG 4946   2.038  29.912   6.652
    9AU     LIG 4947   2.260  30.342   6.624
    9AU     LIG 4948   2.499  30.767   6.606
    9AU     LIG 4949   2.665  31.221   6.589
    9AU    AUSL 4950   1.724  28.268   7.667
    9AU    AUSL 4951   1.801  27.995   8.024
    9AU     AUL 4952   1.889  28.324   7.998
    9AU       S 4953   2.191  28.044   8.286
    9AU     LIG 4954   2.337  28.173   8.741
    9AU     LIG 4955   2.587  28.378   9.105
    9AU     LIG 4956   2.916  28.648   9.324
    9AU     LIG 4957   3.185  28.955   9.581
    9AU     LIG 4958   3.203  29.290   9.941
    9AU     LIG 4959   3.256  29.586  10.325
    9AU       S 4960   1.757  28.731   7.742
    9AU     LIG 4961   1.954  29.108   7.918
    9AU     LIG 4962   2.041  29.415   8.261
    9AU     LIG 4963   2.038  29.849   8.437
    9AU     LIG 4964   2.191  30.314   8.438
    9AU     LIG 4965   2.473  30.730   8.422
    9AU     LIG 4966   2.792  31.118   8.419
    9AU    AUSL 4967   1.511  26.988   7.972
    9AU    AUSL 4968   1.924  27.011   7.749
    9AU     AUL 4969   1.750  26.760   8.001
    9AU       S 4970   1.356  26.449   8.076
    9AU     LIG 4971   1.190  26.032   8.164
    9AU     LIG 4972   1.129  25.619   8.296
    9AU     LIG 4973   1.291  25.259   8.500
    9AU     LIG 4974   1.257  24.848   8.696
    9AU     LIG 4975   1.258  24.482   8.973
    9AU     LIG 4976   1.204  24.327   9.419
    9AU       S 4977   2.247  26.757   7.951
    9AU     LIG 4978   2.246  26.300   7.987
    9AU     LIG 4979   2.207  25.907   8.237
    9AU     LIG 4980   2.419  25.610   8.525
    9AU     LIG 4981   2.663  25.365   8.840
    9AU     LIG 4982   3.024  25.117   8.994
    9AU     LIG 4983   3.449  24.941   8.896
    9AU    AUSL 4984   1.305  26.883   7.719
    9AU    AUSL 4985   1.230  27.153   7.986
    9AU     AUL 4986   1.215  26.926   8.147
    9AU       S 4987   1.169  26.457   7.857
    9AU     LIG 4988   0.980  26.087   7.704
    9AU     LIG 4989   0.782  25.751   7.916
    9AU     LIG 4990   0.812  25.295   8.058
    9AU     LIG 4991   0.995  24.890   8.247
    9AU     LIG 4992   0.990  24.461   8.468
    9AU     LIG 4993   0.802  24.016   8.438
    9AU       S 4994   0.811  26.773   7.913
    9AU     LIG 4995   0.761  26.330   8.132
    9AU     LIG 4996   0.387  26.083   8.305
    9AU     LIG 4997   0.065  25.983   8.648
    9AU     LIG 4998  44.848  25.744   9.000
    9AU     LIG 4999  44.759  25.452   9.366
    9AU     LIG 5000  44.909  25.234   9.779
    9AU    AUSL 5001   1.627  26.898   7.670
    9AU    AUSL 5002   1.334  26.839   7.388
    9AU     AUL 5003   1.693  26.634   7.599
    9AU       S 5004   1.053  26.489   7.390
    9AU     LIG 5005   0.767  26.165   7.255
    9AU     LIG 5006   0.838  25.711   7.306
    9AU     LIG 5007   0.974  25.311   7.097
    9AU     LIG 5008   0.964  24.920   6.818
    9AU     LIG 5009   0.924  24.503   6.577
    9AU     LIG 5010   0.933  24.027   6.457
    9AU       S 5011   1.290  26.507   7.826
    9AU     LIG 5012   1.484  26.066   7.739
    9AU     LIG 5013   1.286  25.656   7.792
    9AU     LIG 5014   1.312  25.220   7.987
    9AU     LIG 5015   1.520  24.871   8.243
    9AU     LIG 5016   1.520  24.448   8.488
    9AU     LIG 5017   1.678  23.985   8.491
    9AU    AUSL 5018   1.532  28.175   7.053
    9AU    AUSL 5019   1.905  28.112   7.219
    9AU     AUL 5020   1.832  28.320   6.947
    9AU       S 5021   1.582  28.750   6.970
    9AU     LIG 5022   1.604  29.172   6.708
    9AU     LIG 5023   1.769  29.451   6.329
    9AU     LIG 5024   1.964  29.559   5.871
    9AU     LIG 5025   2.096  29.825   5.471
    9AU     LIG 5026   1.962  30.180   5.165
    9AU     LIG 5027   1.689  30.553   5.058
    9AU       S 5028   2.326  28.099   6.908
    9AU     LIG 5029   2.758  28.289   6.788
    9AU     LIG 5030   2.999  28.522   6.427
    9AU     LIG 5031   3.207  28.844   6.137
    9AU     LIG 5032   3.494  29.240   6.072
    9AU     LIG 5033   3.755  29.657   6.018
    9AU     LIG 5034   4.034  30.062   6.039
    9AU    AUSL 5035   1.349  28.247   7.326
    9AU    AUSL 5036   1.251  28.027   6.958
    9AU     AUL 5037   1.225  28.397   7.060
    9AU       S 5038   1.603  28.706   7.260
    9AU     LIG 5039   1.507  29.193   7.238
    9AU     LIG 5040   1.599  29.610   7.013
    9AU     LIG 5041   1.519  29.945   6.684
    9AU     LIG 5042   1.300  30.389   6.665
    9AU     LIG 5043   0.948  30.740   6.630
    9AU     LIG 5044   0.770  31.202   6.592
    9AU       S 5045   1.073  28.212   6.603
    9AU     LIG 5046   1.029  28.491   6.230
    9AU     LIG 5047   0.754  28.660   5.880
    9AU     LIG 5048   0.524  28.787   5.465
    9AU     LIG 5049   0.503  29.031   5.030
    9AU     LIG 5050   0.431  29.395   4.708
    9AU     LIG 5051   0.228  29.778   4.516
    9AU    AUSL 5052   1.452  26.984   7.115
    9AU    AUSL 5053   1.095  27.016   7.242
    9AU     AUL 5054   1.321  26.812   6.935
    9AU       S 5055   0.798  26.754   7.088
    9AU     LIG 5056   0.415  26.540   7.229
    9AU     LIG 5057   0.144  26.280   6.958
    9AU     LIG 5058  44.829  26.057   6.694
    9AU     LIG 5059  44.585  25.779   6.375
    9AU     LIG 5060  44.374  25.353   6.218
    9AU     LIG 5061  44.120  24.985   6.007
    9AU       S 5062   1.209  26.501   7.295
    9AU     LIG 5063   1.101  26.249   6.897
    9AU     LIG 5064   1.016  25.788   6.807
    9AU     LIG 5065   1.166  25.360   6.610
    9AU     LIG 5066   1.139  24.963   6.327
    9AU     LIG 5067   1.057  24.746   5.896
    9AU     LIG 5068   1.065  24.500   5.479
    9AU    AUSL 5069   1.666  26.871   7.344
    9AU    AUSL 5070   1.711  27.100   6.949
    9AU     AUL 5071   1.708  26.719   7.063
    9AU       S 5072   1.360  26.412   7.318
    9AU     LIG 5073   1.285  25.951   7.278
    9AU     LIG 5074   1.414  25.562   7.027
    9AU     LIG 5075   1.439  25.083   6.971
    9AU     LIG 5076   1.661  24.666   6.922
    9AU     LIG 5077   1.854  24.216   6.899
    9AU     LIG 5078   1.900  23.798   6.648
    9AU       S 5079   1.899  26.871   6.623
    9AU     LIG 5080   1.868  26.470   6.390
    9AU     LIG 5081   2.029  26.049   6.239
    9AU     LIG 5082   2.329  25.720   6.058
    9AU     LIG 5083   2.586  25.509   5.724
    9AU     LIG 5084   2.767  25.406   5.289
    9AU     LIG 5085   2.994  25.177   4.926
   10AU     AUC 5086  30.757  27.405   7.503
   10AU     AUC 5087  31.002  27.403   7.339
   10AU     AUC 5088  31.013  27.402   7.648
   10AU     AUC 5089  30.503  27.408   7.356
   10AU     AUC 5090  30.511  27.409   7.665
   10AU     AUC 5091  30.606  27.656   7.506
   10AU     AUC 5092  30.914  27.654   7.497
   10AU     AUC 5093  30.598  27.152   7.509
   10AU     AUC 5094  30.910  27.153   7.496
   10AU     AUC 5095  30.765  27.251   7.753
   10AU     AUC 5096  30.768  27.562   7.753
   10AU     AUC 5097  30.747  27.251   7.250
   10AU     AUC 5098  30.751  27.561   7.252
   10AU     AUC 5099  31.239  27.403   7.180
   10AU     AUC 5100  31.255  27.394   7.485
   10AU     AUC 5101  31.262  27.395   7.788
   10AU     AUC 5102  30.255  27.407   7.214
   10AU     AUC 5103  30.260  27.415   7.516
   10AU     AUC 5104  30.272  27.416   7.819
   10AU     AUC 5105  30.461  27.902   7.507
   10AU     AUC 5106  30.766  27.903   7.500
   10AU     AUC 5107  31.067  27.895   7.493
   10AU     AUC 5108  30.447  26.913   7.518
   10AU     AUC 5109  30.748  26.907   7.510
   10AU     AUC 5110  31.055  26.909   7.489
   10AU     AUC 5111  30.771  27.103   7.995
   10AU     AUC 5112  30.773  27.404   8.000
   10AU     AUC 5113  30.779  27.711   7.994
   10AU     AUC 5114  30.737  27.103   7.009
   10AU     AUC 5115  30.743  27.402   7.003
   10AU     AUC 5116  30.746  27.710   7.009
   10AU     AUC 5117  31.017  27.244   7.896
   10AU     AUC 5118  31.023  27.551   7.900
   10AU     AUC 5119  30.988  27.253   7.089
   10AU     AUC 5120  30.998  27.560   7.095
   10AU     AUC 5121  30.515  27.261   7.912
   10AU     AUC 5122  30.522  27.568   7.910
   10AU     AUC 5123  30.495  27.251   7.109
   10AU     AUC 5124  30.498  27.558   7.105
   10AU     AUC 5125  31.160  27.649   7.340
   10AU     AUC 5126  31.172  27.644   7.646
   10AU     AUC 5127  30.354  27.658   7.354
   10AU     AUC 5128  30.364  27.663   7.664
   10AU     AUC 5129  31.145  27.147   7.328
   10AU     AUC 5130  31.160  27.145   7.637
   10AU     AUC 5131  30.349  27.156   7.366
   10AU     AUC 5132  30.353  27.162   7.668
   10AU     AUC 5133  30.622  27.814   7.755
   10AU     AUC 5134  30.927  27.806   7.748
   10AU     AUC 5135  30.601  27.006   7.758
   10AU     AUC 5136  30.913  27.000   7.749
   10AU     AUC 5137  30.601  27.809   7.252
   10AU     AUC 5138  30.910  27.808   7.247
   10AU     AUC 5139  30.591  27.000   7.265
   10AU     AUC 5140  30.896  26.998   7.248
   10AU    AUSL 5141  31.195  27.359   8.074
   10AU    AUSL 5142  31.063  26.970   8.047
   10AU     AUL 5143  31.447  27.147   8.209
   10AU       S 5144  31.350  26.659   8.310
   10AU     LIG 5145  31.407  26.271   8.575
   10AU     LIG 5146  31.486  25.884   8.848
   10AU     LIG 5147  31.631  25.501   9.088
   10AU     LIG 5148  31.630  25.224   9.469
   10AU     LIG 5149  31.754  25.195   9.931
   10AU     LIG 5150  31.940  24.866  10.218
   10AU       S 5151  31.218  27.280   8.660
   10AU     LIG 5152  31.424  27.189   9.065
   10AU     LIG 5153  31.660  26.911   9.373
   10AU     LIG 5154  32.032  26.796   9.653
   10AU     LIG 5155  32.392  26.900   9.953
   10AU     LIG 5156  32.548  27.161  10.322
   10AU     LIG 5157  32.633  27.339  10.750
   10AU    AUSL 5158  30.915  27.222   8.214
   10AU    AUSL 5159  30.633  27.570   8.200
   10AU     AUL 5160  30.666  27.358   8.520
   10AU       S 5161  31.081  27.073   8.591
   10AU     LIG 5162  31.317  26.736   8.835
   10AU     LIG 5163  31.375  26.494   9.244
   10AU     LIG 5164  31.407  26.423   9.727
   10AU     LIG 5165  31.404  26.322  10.207
   10AU     LIG 5166  31.385  26.371  10.698
   10AU     LIG 5167  31.487  26.248  11.147
   10AU       S 5168  30.176  27.606   8.593
   10AU     LIG 5169  30.287  27.519   9.056
   10AU     LIG 5170  30.157  27.235   9.419
   10AU     LIG 5171  29.983  27.222   9.852
   10AU     LIG 5172  29.965  27.433  10.281
   10AU     LIG 5173  30.031  27.657  10.692
   10AU     LIG 5174  29.897  27.979  11.005
   10AU    AUSL 5175  30.967  27.564   8.205
   10AU    AUSL 5176  31.320  27.659   7.949
   10AU     AUL 5177  31.406  27.490   8.246
   10AU       S 5178  31.104  27.596   8.644
   10AU     LIG 5179  31.123  27.926   8.984
   10AU     LIG 5180  31.383  28.113   9.339
   10AU     LIG 5181  31.452  28.202   9.811
   10AU     LIG 5182  31.504  28.270  10.281
   10AU     LIG 5183  31.682  28.303  10.710
   10AU     LIG 5184  31.759  28.060  11.109
   10AU       S 5185  31.673  27.899   8.223
   10AU     LIG 5186  32.001  27.790   8.516
   10AU     LIG 5187  32.247  27.974   8.855
   10AU     LIG 5188  32.576  28.238   9.059
   10AU     LIG 5189  32.801  28.436   9.427
   10AU     LIG 5190  33.144  28.407   9.785
   10AU     LIG 5191  33.518  28.562  10.052
   10AU    AUSL 5192  31.180  27.461   6.894
   10AU    AUSL 5193  31.033  27.810   6.947
   10AU     AUL 5194  31.084  27.763   6.593
   10AU       S 5195  31.297  27.332   6.374
   10AU     LIG 5196  31.448  26.961   6.123
   10AU     LIG 5197  31.676  26.846   5.735
   10AU     LIG 5198  31.817  26.960   5.299
   10AU     LIG 5199  32.156  26.924   4.960
   10AU     LIG 5200  32.479  26.922   4.598
   10AU     LIG 5201  32.675  27.009   4.163
   10AU       S 5202  31.509  28.013   6.689
   10AU     LIG 5203  31.781  28.195   6.344
   10AU     LIG 5204  32.035  28.349   5.967
   10AU     LIG 5205  32.244  28.408   5.536
   10AU     LIG 5206  32.453  28.615   5.155
   10AU     LIG 5207  32.427  28.980   4.839
   10AU     LIG 5208  32.367  29.386   4.607
   10AU    AUSL 5209  30.942  27.237   6.795
   10AU    AUSL 5210  31.230  27.143   7.015
   10AU     AUL 5211  31.441  27.284   6.845
   10AU       S 5212  31.393  26.834   6.612
   10AU     LIG 5213  31.643  26.523   6.311
   10AU     LIG 5214  31.842  26.090   6.154
   10AU     LIG 5215  32.053  25.714   5.891
   10AU     LIG 5216  32.347  25.542   5.537
   10AU     LIG 5217  32.747  25.590   5.227
   10AU     LIG 5218  33.203  25.637   5.039
   10AU       S 5219  31.014  27.116   6.403
   10AU     LIG 5220  30.944  26.812   6.111
   10AU     LIG 5221  31.177  26.717   5.729
   10AU     LIG 5222  31.376  26.680   5.288
   10AU     LIG 5223  31.421  26.472   4.841
   10AU     LIG 5224  31.477  26.366   4.368
   10AU     LIG 5225  31.504  26.392   3.882
   10AU    AUSL 5226  30.874  27.559   6.804
   10AU    AUSL 5227  30.597  27.236   6.784
   10AU     AUL 5228  30.745  27.577   6.532
   10AU       S 5229  30.550  26.957   6.438
   10AU     LIG 5230  30.427  26.709   6.069
   10AU     LIG 5231  30.231  26.689   5.641
   10AU     LIG 5232  30.064  26.744   5.201
   10AU     LIG 5233  29.819  26.643   4.805
   10AU     LIG 5234  29.739  26.456   4.365
   10AU     LIG 5235  29.608  26.497   3.913
   10AU       S 5236  31.088  27.243   6.417
   10AU     LIG 5237  31.101  27.256   5.908
   10AU     LIG 5238  31.336  27.165   5.502
   10AU     LIG 5239  31.455  27.261   5.049
   10AU     LIG 5240  31.475  27.522   4.636
   10AU     LIG 5241  31.558  27.791   4.250
   10AU     LIG 5242  31.638  27.996   3.824
   10AU    AUSL 5243  30.335  27.449   8.115
   10AU    AUSL 5244  30.505  27.844   8.065
   10AU     AUL 5245  30.614  27.743   8.407
   10AU       S 5246  29.991  27.432   8.381
   10AU     LIG 5247  29.684  27.205   8.670
   10AU     LIG 5248  29.652  27.095   9.131
   10AU     LIG 5249  29.574  27.019   9.588
   10AU     LIG 5250  29.250  26.887   9.931
   10AU     LIG 5251  29.018  26.859  10.359
   10AU     LIG 5252  28.762  26.980  10.755
   10AU       S 5253  30.216  28.051   8.397
   10AU     LIG 5254  30.077  28.058   8.839
   10AU     LIG 5255  29.905  28.332   9.170
   10AU     LIG 5256  29.750  28.717   9.388
   10AU     LIG 5257  29.617  28.919   9.796
   10AU     LIG 5258  29.545  29.143  10.216
   10AU     LIG 5259  29.349  29.445  10.530
   10AU    AUSL 5260  30.588  27.245   8.192
   10AU    AUSL 5261  30.229  27.160   7.974
   10AU     AUL 5262  30.400  27.078   8.351
   10AU       S 5263  29.899  26.971   8.204
   10AU     LIG 5264  29.496  26.834   8.097
   10AU     LIG 5265  29.189  26.505   8.219
   10AU     LIG 5266  28.949  26.209   8.527
   10AU     LIG 5267  28.736  25.918   8.847
   10AU     LIG 5268  28.608  25.811   9.298
   10AU     LIG 5269  28.320  25.879   9.673
   10AU       S 5270  30.134  27.398   8.599
   10AU     LIG 5271  30.119  27.043   8.920
   10AU     LIG 5272  30.018  26.762   9.306
   10AU     LIG 5273  29.947  26.698   9.774
   10AU     LIG 5274  29.834  26.452  10.180
   10AU     LIG 5275  29.823  26.246  10.620
   10AU     LIG 5276  29.679  26.149  11.065
   10AU    AUSL 5277  30.313  27.362   6.930
   10AU    AUSL 5278  30.457  26.991   6.959
   10AU     AUL 5279  30.147  27.164   6.783
   10AU       S 5280  30.310  27.149   6.326
   10AU     LIG 5281  30.076  27.085   5.941
   10AU     LIG 5282  29.824  27.036   5.551
   10AU     LIG 5283  29.557  26.931   5.171
   10AU     LIG 5284  29.118  26.836   4.970
   10AU     LIG 5285  28.861  26.796   4.565
   10AU     LIG 5286  28.630  26.985   4.193
   10AU       S 5287  30.146  26.659   6.706
   10AU     LIG 5288  29.956  26.254   6.582
   10AU     LIG 5289  29.591  25.989   6.488
   10AU     LIG 5290  29.247  25.868   6.190
   10AU     LIG 5291  28.966  25.738   5.829
   10AU     LIG 5292  28.944  25.648   5.344
   10AU     LIG 5293  28.954  25.457   4.899
   10AU    AUSL 5294  30.545  27.567   6.816
   10AU    AUSL 5295  30.216  27.665   7.043
   10AU     AUL 5296  30.194  27.537   6.665
   10AU       S 5297  29.964  27.973   6.719
   10AU     LIG 5298  29.807  28.026   6.277
   10AU     LIG 5299  29.587  28.186   5.886
   10AU     LIG 5300  29.196  28.262   5.620
   10AU     LIG 5301  28.765  28.352   5.446
   10AU     LIG 5302  28.442  28.515   5.135
   10AU     LIG 5303  28.269  28.889   4.884
   10AU       S 5304  30.520  27.176   6.396
   10AU     LIG 5305  30.589  27.165   5.905
   10AU     LIG 5306  30.328  27.170   5.484
   10AU     LIG 5307  30.017  27.256   5.113
   10AU     LIG 5308  29.896  27.501   4.705
   10AU     LIG 5309  29.907  27.728   4.268
   10AU     LIG 5310  29.923  27.863   3.792
   10AU    AUSL 5311  31.362  27.812   7.459
   10AU    AUSL 5312  31.321  27.695   7.099
   10AU     AUL 5313  31.424  28.128   7.353
   10AU       S 5314  31.638  27.771   6.823
   10AU     LIG 5315  31.961  27.740   6.501
   10AU     LIG 5316  32.238  27.916   6.164
   10AU     LIG 5317  32.533  28.194   5.910
   10AU     LIG 5318  32.763  28.341   5.510
   10AU     LIG 5319  33.091  28.446   5.187
   10AU     LIG 5320  33.392  28.794   5.072
   10AU       S 5321  31.881  27.891   7.343
   10AU     LIG 5322  32.347  27.963   7.310
   10AU     LIG 5323  32.825  27.885   7.346
   10AU     LIG 5324  33.292  28.006   7.423
   10AU     LIG 5325  33.600  28.334   7.593
   10AU     LIG 5326  33.962  28.676   7.595
   10AU     LIG 5327  34.142  29.107   7.425
   10AU    AUSL 5328  31.477  27.515   7.328
   10AU    AUSL 5329  31.464  27.240   7.613
   10AU     AUL 5330  31.763  27.230   7.374
   10AU       S 5331  31.895  27.692   7.239
   10AU     LIG 5332  32.327  27.467   7.173
   10AU     LIG 5333  32.808  27.378   7.239
   10AU     LIG 5334  33.267  27.526   7.235
   10AU     LIG 5335  33.693  27.721   7.136
   10AU     LIG 5336  34.167  27.832   7.081
   10AU     LIG 5337  34.419  28.241   7.185
   10AU       S 5338  31.841  26.766   7.624
   10AU     LIG 5339  32.290  26.646   7.662
   10AU     LIG 5340  32.645  26.389   7.773
   10AU     LIG 5341  33.072  26.244   7.711
   10AU     LIG 5342  33.492  26.353   7.850
   10AU     LIG 5343  33.887  26.213   8.002
   10AU     LIG 5344  34.303  26.307   8.160
   10AU    AUSL 5345  31.473  27.567   7.667
   10AU    AUSL 5346  31.218  27.909   7.751
   10AU     AUL 5347  31.543  27.939   7.729
   10AU       S 5348  31.515  28.023   8.221
   10AU     LIG 5349  31.855  28.288   8.490
   10AU     LIG 5350  32.225  28.474   8.731
   10AU     LIG 5351  32.540  28.756   8.973
   10AU     LIG 5352  32.820  29.163   8.916
   10AU     LIG 5353  33.010  29.624   8.882
   10AU     LIG 5354  33.023  30.039   9.107
   10AU       S 5355  31.960  27.668   7.587
   10AU     LIG 5356  32.484  27.578   7.643
   10AU     LIG 5357  32.993  27.544   7.691
   10AU     LIG 5358  33.471  27.658   7.761
   10AU     LIG 5359  33.866  27.670   8.039
   10AU     LIG 5360  34.282  27.923   8.027
   10AU     LIG 5361  34.673  28.021   8.299
   10AU    AUSL 5362  30.164  27.860   7.540
   10AU    AUSL 5363  30.218  27.697   7.913
   10AU     AUL 5364  30.092  28.138   7.761
   10AU       S 5365  29.945  27.865   8.193
   10AU     LIG 5366  29.710  27.815   8.584
   10AU     LIG 5367  29.518  28.119   8.871
   10AU     LIG 5368  29.379  28.382   9.229
   10AU     LIG 5369  29.028  28.447   9.549
   10AU     LIG 5370  28.590  28.541   9.741
   10AU     LIG 5371  28.282  28.686  10.079
   10AU       S 5372  29.639  27.951   7.668
   10AU     LIG 5373  29.296  28.322   7.540
   10AU     LIG 5374  29.049  28.793   7.452
   10AU     LIG 5375  28.789  29.236   7.466
   10AU     LIG 5376  28.526  29.642   7.511
   10AU     LIG 5377  28.085  29.760   7.670
   10AU     LIG 5378  27.653  29.659   7.529
   10AU    AUSL 5379  30.077  27.606   7.337
   10AU    AUSL 5380  30.303  27.935   7.241
   10AU     AUL 5381  29.950  27.910   7.234
   10AU       S 5382  29.525  27.748   7.501
   10AU     LIG 5383  29.129  27.897   7.243
   10AU     LIG 5384  28.730  27.887   6.940
   10AU     LIG 5385  28.348  28.088   6.714
   10AU     LIG 5386  27.970  28.412   6.648
   10AU     LIG 5387  27.570  28.690   6.538
   10AU     LIG 5388  27.136  28.731   6.755
   10AU       S 5389  30.031  28.211   6.828
   10AU     LIG 5390  29.837  28.490   6.510
   10AU     LIG 5391  29.665  28.905   6.356
   10AU     LIG 5392  29.528  29.347   6.265
   10AU     LIG 5393  29.274  29.559   5.951
   10AU     LIG 5394  28.971  29.882   5.830
   10AU     LIG 5395  28.558  30.075   5.928
   10AU    AUSL 5396  30.046  27.558   7.659
   10AU    AUSL 5397  30.023  27.281   7.379
   10AU     AUL 5398  29.833  27.504   7.206
   10AU       S 5399  29.542  27.240   7.565
   10AU     LIG 5400  29.117  27.065   7.852
   10AU     LIG 5401  28.631  27.011   7.878
   10AU     LIG 5402  28.199  26.885   7.707
   10AU     LIG 5403  27.905  26.683   7.358
   10AU     LIG 5404  27.451  26.796   7.178
   10AU     LIG 5405  27.008  26.725   6.989
   10AU       S 5406  29.701  27.659   7.823
   10AU     LIG 5407  29.423  27.869   8.154
   10AU     LIG 5408  28.960  27.819   8.263
   10AU     LIG 5409  28.546  28.060   8.292
   10AU     LIG 5410  28.066  28.068   8.291
   10AU     LIG 5411  27.665  28.358   8.242
   10AU     LIG 5412  27.333  28.735   8.278
   10AU    AUSL 5413  31.358  26.944   7.498
   10AU    AUSL 5414  31.313  27.115   7.879
   10AU     AUL 5415  31.650  27.164   7.836
   10AU       S 5416  31.567  26.560   7.466
   10AU     LIG 5417  31.878  26.275   7.684
   10AU     LIG 5418  32.285  26.133   7.510
   10AU     LIG 5419  32.735  26.049   7.379
   10AU     LIG 5420  33.125  25.780   7.461
   10AU     LIG 5421  33.413  25.387   7.532
   10AU     LIG 5422  33.824  25.155   7.623
   10AU       S 5423  31.522  26.686   8.085
   10AU     LIG 5424  31.829  26.401   8.310
   10AU     LIG 5425  31.915  26.107   8.675
   10AU     LIG 5426  32.056  25.812   9.024
   10AU     LIG 5427  32.384  25.709   9.359
   10AU     LIG 5428  32.761  25.716   9.664
   10AU     LIG 5429  33.116  25.575   9.949
   10AU    AUSL 5430  31.413  27.195   7.287
   10AU    AUSL 5431  31.186  26.867   7.209
   10AU     AUL 5432  31.552  26.990   7.105
   10AU       S 5433  31.670  26.728   7.500
   10AU     LIG 5434  32.040  26.522   7.232
   10AU     LIG 5435  32.511  26.479   7.191
   10AU     LIG 5436  32.963  26.401   7.035
   10AU     LIG 5437  33.408  26.357   6.881
   10AU     LIG 5438  33.862  26.281   6.970
   10AU     LIG 5439  34.246  26.487   7.143
   10AU       S 5440  31.413  26.602   6.809
   10AU     LIG 5441  31.516  26.165   6.650
   10AU     LIG 5442  31.650  25.739   6.481
   10AU     LIG 5443  31.818  25.383   6.227
   10AU     LIG 5444  32.053  25.122   5.929
   10AU     LIG 5445  32.159  24.715   5.723
   10AU     LIG 5446  32.526  24.423   5.620
   10AU    AUSL 5447  30.149  26.987   7.472
   10AU    AUSL 5448  30.198  27.125   7.134
   10AU     AUL 5449  29.876  27.115   7.118
   10AU       S 5450  29.965  26.674   6.898
   10AU     LIG 5451  29.549  26.502   6.765
   10AU     LIG 5452  29.183  26.296   6.547
   10AU     LIG 5453  28.811  26.086   6.352
   10AU     LIG 5454  28.512  25.846   6.084
   10AU     LIG 5455  28.118  25.713   5.865
   10AU     LIG 5456  27.986  25.684   5.422
   10AU       S 5457  29.606  27.025   7.521
   10AU     LIG 5458  29.345  26.664   7.634
   10AU     LIG 5459  28.878  26.635   7.624
   10AU     LIG 5460  28.426  26.474   7.531
   10AU     LIG 5461  27.988  26.295   7.686
   10AU     LIG 5462  27.590  26.037   7.840
   10AU     LIG 5463  27.215  25.852   8.052
   10AU    AUSL 5464  30.069  27.231   7.703
   10AU    AUSL 5465  30.303  26.881   7.786
   10AU     AUL 5466  30.019  26.856   7.713
   10AU       S 5467  30.016  26.591   8.121
   10AU     LIG 5468  29.646  26.357   7.975
   10AU     LIG 5469  29.300  26.051   7.999
   10AU     LIG 5470  29.048  25.771   8.275
   10AU     LIG 5471  28.845  25.460   8.572
   10AU     LIG 5472  28.756  25.015   8.750
   10AU     LIG 5473  28.486  24.634   8.894
   10AU       S 5474  29.634  27.197   7.669
   10AU     LIG 5475  29.133  27.061   7.364
   10AU     LIG 5476  28.621  27.022   7.364
   10AU     LIG 5477  28.121  27.137   7.271
   10AU     LIG 5478  27.717  27.098   7.551
   10AU     LIG 5479  27.372  26.815   7.697
   10AU     LIG 5480  26.930  26.808   7.870
   10AU    AUSL 5481  30.774  28.013   7.940
   10AU    AUSL 5482  30.378  27.951   7.778
   10AU     AUL 5483  30.449  28.223   7.963
   10AU       S 5484  30.101  28.027   8.268
   10AU     LIG 5485  29.796  28.328   8.494
   10AU     LIG 5486  29.667  28.646   8.845
   10AU     LIG 5487  29.661  29.098   9.038
   10AU     LIG 5488  29.507  29.554   9.093
   10AU     LIG 5489  29.182  29.894   9.208
   10AU     LIG 5490  28.816  30.163   9.385
   10AU       S 5491  30.826  28.522   8.086
   10AU     LIG 5492  31.078  28.716   8.388
   10AU     LIG 5493  31.168  29.150   8.465
   10AU     LIG 5494  31.092  29.523   8.734
   10AU     LIG 5495  31.037  29.736   9.159
   10AU     LIG 5496  30.899  30.005   9.528
   10AU     LIG 5497  30.845  30.395   9.786
   10AU    AUSL 5498  30.628  28.122   7.650
   10AU    AUSL 5499  30.908  28.138   7.341
   10AU     AUL 5500  30.450  28.356   7.456
   10AU       S 5501  30.743  28.616   7.790
   10AU     LIG 5502  30.774  29.028   8.086
   10AU     LIG 5503  30.804  29.480   8.273
   10AU     LIG 5504  30.563  29.914   8.334
   10AU     LIG 5505  30.358  30.367   8.316
   10AU     LIG 5506  30.319  30.844   8.362
   10AU     LIG 5507  30.218  31.239   8.600
   10AU       S 5508  31.052  28.543   7.281
   10AU     LIG 5509  31.356  28.825   7.093
   10AU     LIG 5510  31.385  29.237   6.864
   10AU     LIG 5511  31.609  29.618   6.659
   10AU     LIG 5512  31.791  30.072   6.629
   10AU     LIG 5513  31.808  30.537   6.467
   10AU     LIG 5514  31.935  30.881   6.156
   10AU    AUSL 5515  30.962  28.102   7.663
   10AU    AUSL 5516  31.039  27.837   8.036
   10AU     AUL 5517  31.141  28.175   7.934
   10AU       S 5518  31.307  27.967   8.360
   10AU     LIG 5519  31.570  27.948   8.748
   10AU     LIG 5520  31.827  28.227   9.019
   10AU     LIG 5521  32.161  28.476   9.241
   10AU     LIG 5522  32.390  28.768   9.522
   10AU     LIG 5523  32.316  29.057   9.903
   10AU     LIG 5524  32.291  29.331  10.294
   10AU       S 5525  30.976  28.604   7.759
   10AU     LIG 5526  31.261  28.952   7.963
   10AU     LIG 5527  31.465  29.391   8.094
   10AU     LIG 5528  31.776  29.797   8.082
   10AU     LIG 5529  32.034  30.225   8.164
   10AU     LIG 5530  32.025  30.672   8.333
   10AU     LIG 5531  31.945  30.971   8.720
   10AU    AUSL 5532  30.777  26.818   7.953
   10AU    AUSL 5533  31.171  26.837   7.750
   10AU     AUL 5534  30.986  26.575   7.982
   10AU       S 5535  30.597  26.237   8.010
   10AU     LIG 5536  30.370  25.855   8.159
   10AU     LIG 5537  30.333  25.391   8.212
   10AU     LIG 5538  30.300  24.953   8.379
   10AU     LIG 5539  30.496  24.674   8.705
   10AU     LIG 5540  30.585  24.577   9.164
   10AU     LIG 5541  30.648  24.400   9.602
   10AU       S 5542  31.486  26.573   7.946
   10AU     LIG 5543  31.480  26.149   8.035
   10AU     LIG 5544  31.618  25.852   8.337
   10AU     LIG 5545  31.846  25.571   8.618
   10AU     LIG 5546  32.096  25.285   8.899
   10AU     LIG 5547  32.411  24.910   8.912
   10AU     LIG 5548  32.732  24.540   8.887
   10AU    AUSL 5549  30.564  26.699   7.710
   10AU    AUSL 5550  30.501  26.978   8.027
   10AU     AUL 5551  30.532  26.713   8.135
   10AU       S 5552  30.338  26.340   7.829
   10AU     LIG 5553  30.034  26.033   7.813
   10AU     LIG 5554  30.054  25.569   7.804
   10AU     LIG 5555  30.083  25.086   7.883
   10AU     LIG 5556  29.970  24.653   8.080
   10AU     LIG 5557  29.709  24.238   8.134
   10AU     LIG 5558  29.555  23.829   8.327
   10AU       S 5559  30.037  26.748   8.221
   10AU     LIG 5560  29.669  26.531   8.471
   10AU     LIG 5561  29.450  26.114   8.490
   10AU     LIG 5562  29.225  25.788   8.758
   10AU     LIG 5563  28.983  25.510   9.069
   10AU     LIG 5564  28.853  25.376   9.501
   10AU     LIG 5565  28.861  25.137   9.913
   10AU    AUSL 5566  30.883  26.720   7.653
   10AU    AUSL 5567  30.593  26.668   7.380
   10AU     AUL 5568  30.940  26.454   7.585
   10AU       S 5569  30.322  26.291   7.351
   10AU     LIG 5570  30.129  25.866   7.338
   10AU     LIG 5571  30.191  25.415   7.324
   10AU     LIG 5572  30.152  25.029   7.044
   10AU     LIG 5573  29.883  24.649   6.874
   10AU     LIG 5574  29.676  24.217   6.758
   10AU     LIG 5575  29.644  23.814   6.524
   10AU       S 5576  30.531  26.302   7.793
   10AU     LIG 5577  30.507  25.849   7.671
   10AU     LIG 5578  30.526  25.374   7.722
   10AU     LIG 5579  30.592  24.963   7.957
   10AU     LIG 5580  30.605  24.558   8.198
   10AU     LIG 5581  30.905  24.208   8.300
   10AU     LIG 5582  31.104  23.784   8.250
   10AU    AUSL 5583  30.777  28.005   7.053
   10AU    AUSL 5584  31.158  27.948   7.229
   10AU     AUL 5585  31.081  28.148   6.948
   10AU       S 5586  30.825  28.567   6.974
   10AU     LIG 5587  31.057  28.834   6.674
   10AU     LIG 5588  31.192  29.166   6.392
   10AU     LIG 5589  31.319  29.525   6.138
   10AU     LIG 5590  31.278  29.697   5.698
   10AU     LIG 5591  31.121  30.034   5.408
   10AU     LIG 5592  31.220  30.405   5.153
   10AU       S 5593  31.576  27.944   6.926
   10AU     LIG 5594  32.009  28.134   6.828
   10AU     LIG 5595  32.265  28.337   6.459
   10AU     LIG 5596  32.420  28.666   6.140
   10AU     LIG 5597  32.569  29.132   6.071
   10AU     LIG 5598  32.738  29.596   6.033
   10AU     LIG 5599  33.072  29.954   5.960
   10AU    AUSL 5600  30.590  28.075   7.325
   10AU    AUSL 5601  30.492  27.857   6.966
   10AU     AUL 5602  30.464  28.226   7.067
   10AU       S 5603  30.857  28.542   7.257
   10AU     LIG 5604  30.893  29.038   7.120
   10AU     LIG 5605  30.875  29.375   6.766
   10AU     LIG 5606  30.624  29.775   6.600
   10AU     LIG 5607  30.413  30.206   6.483
   10AU     LIG 5608  30.314  30.651   6.311
   10AU     LIG 5609  30.152  31.114   6.363
   10AU       S 5610  30.271  28.063   6.621
   10AU     LIG 5611  30.228  28.310   6.218
   10AU     LIG 5612  30.049  28.426   5.788
   10AU     LIG 5613  30.049  28.590   5.326
   10AU     LIG 5614  29.961  28.869   4.948
   10AU     LIG 5615  29.708  29.039   4.579
   10AU     LIG 5616  29.403  29.358   4.422
   10AU    AUSL 5617  30.706  26.821   7.109
   10AU    AUSL 5618  30.348  26.842   7.243
   10AU     AUL 5619  30.589  26.653   6.932
   10AU       S 5620  30.076  26.578   7.054
   10AU     LIG 5621  29.829  26.201   7.087
   10AU     LIG 5622  29.409  26.038   6.966
   10AU     LIG 5623  29.113  25.800   6.685
   10AU     LIG 5624  28.852  25.565   6.359
   10AU     LIG 5625  28.463  25.335   6.189
   10AU     LIG 5626  28.151  24.962   6.190
   10AU       S 5627  30.477  26.329   7.277
   10AU     LIG 5628  30.306  26.065   6.904
   10AU     LIG 5629  30.254  25.596   6.841
   10AU     LIG 5630  30.407  25.199   6.622
   10AU     LIG 5631  30.459  24.898   6.255
   10AU     LIG 5632  30.425  24.691   5.819
   10AU     LIG 5633  30.410  24.444   5.411
   10AU    AUSL 5634  30.926  26.703   7.331
   10AU    AUSL 5635  30.968  26.939   6.949
   10AU     AUL 5636  30.971  26.561   7.048
   10AU       S 5637  30.632  26.232   7.274
   10AU     LIG 5638  30.611  25.757   7.185
   10AU     LIG 5639  30.630  25.289   7.092
   10AU     LIG 5640  30.668  24.849   6.924
   10AU     LIG 5641  30.955  24.476   6.820
   10AU     LIG 5642  31.186  24.087   6.666
   10AU     LIG 5643  31.239  23.601   6.658
   10AU       S 5644  31.170  26.724   6.616
   10AU     LIG 5645  31.152  26.396   6.333
   10AU     LIG 5646  31.333  26.017   6.177
   10AU     LIG 5647  31.539  25.693   5.927
   10AU     LIG 5648  31.672  25.329   5.664
   10AU     LIG 5649  31.981  25.092   5.408
   10AU     LIG 5650  32.039  25.028   4.937
   11POPC   NC3 5651  22.711  29.113  10.012
   11POPC   PO4 5652  23.168  29.325   9.518
   11POPC   GL1 5653  22.829  29.137   9.250
   11POPC   GL2 5654  22.554  29.358   9.125
   11POPC   C1A 5655  22.885  29.124   8.807
   11POPC   D2A 5656  23.017  29.310   8.430
   11POPC   C3A 5657  22.862  29.132   8.078
   11POPC   C4A 5658  23.028  29.136   7.683
   11POPC   C1B 5659  22.470  29.448   8.671
   11POPC   C2B 5660  22.569  29.541   8.234
   11POPC   C3B 5661  22.791  29.576   7.838
   11POPC   C4B 5662  22.769  29.479   7.394
   12POPC   NC3 5663  29.648  23.376   9.787
   12POPC   PO4 5664  29.945  22.762   9.505
   12POPC   GL1 5665  30.093  22.586   9.119
   12POPC   GL2 5666  29.862  22.853   8.983
   12POPC   C1A 5667  30.177  22.604   8.664
   12POPC   D2A 5668  29.897  22.806   8.360
   12POPC   C3A 5669  30.128  22.885   7.979
   12POPC   C4A 5670  30.098  23.185   7.620
   12POPC   C1B 5671  29.502  23.026   8.726
   12POPC   C2B 5672  29.376  23.109   8.307
   12POPC   C3B 5673  29.636  22.972   7.938
   12POPC   C4B 5674  29.616  23.031   7.488
   13POPC   NC3 5675  35.846  25.819   9.430
   13POPC   PO4 5676  36.299  26.286   9.700
   13POPC   GL1 5677  36.269  26.048   9.257
   13POPC   GL2 5678  35.998  26.094   9.004
   13POPC   C1A 5679  36.463  26.033   8.857
   13POPC   D2A 5680  36.249  25.957   8.475
   13POPC   C3A 5681  36.259  26.224   8.125
   13POPC   C4A 5682  36.138  26.015   7.767
   13POPC   C1B 5683  36.109  26.423   8.692
   13POPC   C2B 5684  36.102  26.676   8.309
   13POPC   C3B 5685  35.919  26.602   7.921
   13POPC   C4B 5686  35.776  26.384   7.533
   14POPC   NC3 5687  34.305  20.933   9.571
   14POPC   PO4 5688  34.058  21.531   9.564
   14POPC   GL1 5689  33.875  21.572   9.164
   14POPC   GL2 5690  33.965  21.247   9.044
   14POPC   C1A 5691  33.869  21.638   8.735
   14POPC   D2A 5692  33.881  21.256   8.506
   14POPC   C3A 5693  33.609  21.329   8.190
   14POPC   C4A 5694  33.774  21.549   7.840
   14POPC   C1B 5695  34.300  21.067   8.771
   14POPC   C2B 5696  34.258  20.926   8.316
   14POPC   C3B 5697  34.119  21.181   7.943
   14POPC   C4B 5698  34.064  21.095   7.474
   15POPC   NC3 5699  39.636   0.826   9.409
   15POPC   PO4 5700  38.968   0.978   9.459
   15POPC   GL1 5701  39.164   1.138   9.091
   15POPC   GL2 5702  38.900   1.370   9.043
   15POPC   C1A 5703  39.468   1.122   8.772
   15POPC   D2A 5704  39.484   1.313   8.365
   15POPC   C3A 5705  39.477   1.154   8.008
   15POPC   C4A 5706  39.482   1.274   7.586
   15POPC   C1B 5707  38.989   1.298   8.605
   15POPC   C2B 5708  38.980   1.333   8.161
   15POPC   C3B 5709  38.962   1.341   7.738
   15POPC   C4B 5710  38.920   1.174   7.334
   16POPC   NC3 5711   4.959  39.461   9.515
   16POPC   PO4 5712   4.542  38.921   9.508
   16POPC   GL1 5713   4.714  39.184   9.169
   16POPC   GL2 5714   5.076  39.213   9.077
   16POPC   C1A 5715   4.703  39.367   8.765
   16POPC   D2A 5716   4.933  39.174   8.477
   16POPC   C3A 5717   4.894  39.307   8.101
   16POPC   C4A 5718   4.853  39.112   7.754
   16POPC   C1B 5719   5.383  39.187   8.741
   16POPC   C2B 5720   5.399  38.962   8.386
   16POPC   C3B 5721   5.262  38.962   7.994
   16POPC   C4B 5722   5.309  39.356   7.769
   17POPC   NC3 5723  27.427   4.136   9.729
   17POPC   PO4 5724  27.756   4.666   9.744
   17POPC   GL1 5725  27.549   4.512   9.368
   17POPC   GL2 5726  27.603   4.751   9.101
   17POPC   C1A 5727  27.417   4.311   8.970
   17POPC   D2A 5728  27.357   4.539   8.601
   17POPC   C3A 5729  27.324   4.474   8.152
   17POPC   C4A 5730  27.312   4.262   7.752
   17POPC   C1B 5731  27.868   4.708   8.740
   17POPC   C2B 5732  27.790   4.681   8.299
   17POPC   C3B 5733  27.733   4.719   7.875
   17POPC   C4B 5734  28.104   4.577   7.688
   18POPC   NC3 5735  24.188  41.151   9.497
   18POPC   PO4 5736  24.519  41.675   9.479
   18POPC   GL1 5737  24.494  41.418   9.139
   18POPC   GL2 5738  24.847  41.318   9.181
   18POPC   C1A 5739  24.475  41.526   8.691
   18POPC   D2A 5740  24.293  41.389   8.301
   18POPC   C3A 5741  24.140  41.739   8.087
   18POPC   C4A 5742  24.316  42.012   7.771
   18POPC   C1B 5743  24.956  41.644   8.868
   18POPC   C2B 5744  24.876  41.758   8.420
   18POPC   C3B 5745  24.665  41.681   8.009
   18POPC   C4B 5746  24.438  41.346   7.790
   19POPC   NC3 5747   7.296  27.132   9.245
   19POPC   PO4 5748   7.457  27.778   9.445
   19POPC   GL1 5749   7.724  27.621   9.115
   19POPC   GL2 5750   7.665  27.307   8.920
   19POPC   C1A 5751   7.773  27.764   8.682
   19POPC   D2A 5752   7.498  27.783   8.339
   19POPC   C3A 5753   7.593  27.666   7.943
   19POPC   C4A 5754   7.526  28.026   7.718
   19POPC   C1B 5755   7.284  27.548   8.739
   19POPC   C2B 5756   7.015  27.520   8.345
   19POPC   C3B 5757   7.117  27.358   7.927
   19POPC   C4B 5758   7.101  27.020   7.630
   20POPC   NC3 5759   4.276   6.198   9.610
   20POPC   PO4 5760   4.170   6.845   9.775
   20POPC   GL1 5761   4.118   6.818   9.304
   20POPC   GL2 5762   4.432   6.845   9.119
   20POPC   C1A 5763   4.025   6.534   8.937
   20POPC   D2A 5764   4.113   6.359   8.502
   20POPC   C3A 5765   4.138   6.587   8.093
   20POPC   C4A 5766   3.941   6.722   7.675
   20POPC   C1B 5767   4.529   6.529   8.761
   20POPC   C2B 5768   4.623   6.302   8.381
   20POPC   C3B 5769   4.617   6.418   7.963
   20POPC   C4B 5770   4.571   6.601   7.543
   21POPC   NC3 5771  41.196  25.455   9.528
   21POPC   PO4 5772  41.636  24.940   9.482
   21POPC   GL1 5773  41.573  25.308   9.218
   21POPC   GL2 5774  41.275  25.263   9.056
   21POPC   C1A 5775  41.651  25.485   8.791
   21POPC   D2A 5776  41.786  25.343   8.370
   21POPC   C3A 5777  41.607  25.439   7.982
   21POPC   C4A 5778  41.326  25.169   7.772
   21POPC   C1B 5779  41.509  24.978   8.796
   21POPC   C2B 5780  41.641  24.773   8.412
   21POPC   C3B 5781  41.732  24.932   8.001
   21POPC   C4B 5782  41.786  25.155   7.568
   22POPC   NC3 5783   7.293  34.407   9.388
   22POPC   PO4 5784   7.608  35.049   9.512
   22POPC   GL1 5785   7.458  34.873   9.091
   22POPC   GL2 5786   7.205  34.655   8.943
   22POPC   C1A 5787   7.570  34.712   8.631
   22POPC   D2A 5788   7.292  34.667   8.265
   22POPC   C3A 5789   7.417  34.597   7.819
   22POPC   C4A 5790   7.736  34.404   7.536
   22POPC   C1B 5791   7.057  34.339   8.679
   22POPC   C2B 5792   7.166  34.165   8.299
   22POPC   C3B 5793   6.997  34.215   7.906
   22POPC   C4B 5794   7.213  34.193   7.532
   23POPC   NC3 5795  12.274  42.612   9.581
   23POPC   PO4 5796  12.039  41.969   9.699
   23POPC   GL1 5797  12.250  42.144   9.349
   23POPC   GL2 5798  11.978  42.383   9.243
   23POPC   C1A 5799  12.311  42.068   8.896
   23POPC   D2A 5800  12.570  42.201   8.534
   23POPC   C3A 5801  12.417  42.188   8.086
   23POPC   C4A 5802  12.270  42.440   7.712
   23POPC   C1B 5803  11.853  42.312   8.843
   23POPC   C2B 5804  12.015  42.167   8.449
   23POPC   C3B 5805  11.902  42.324   8.051
   23POPC   C4B 5806  11.728  42.656   7.817
   24POPC   NC3 5807   0.392  15.378   9.501
   24POPC   PO4 5808   0.491  14.765   9.362
   24POPC   GL1 5809   0.464  15.072   9.084
   24POPC   GL2 5810   0.118  15.155   9.116
   24POPC   C1A 5811   0.653  15.236   8.728
   24POPC   D2A 5812   0.575  15.065   8.356
   24POPC   C3A 5813   0.628  15.308   8.018
   24POPC   C4A 5814   0.350  15.068   7.788
   24POPC   C1B 5815   0.146  15.118   8.665
   24POPC   C2B 5816   0.113  15.236   8.237
   24POPC   C3B 5817   0.189  15.554   7.927
   24POPC   C4B 5818   0.184  15.457   7.506
   25POPC   NC3 5819  17.632  21.825   9.563
   25POPC   PO4 5820  16.990  21.907   9.498
   25POPC   GL1 5821  17.332  21.908   9.143
   25POPC   GL2 5822  17.679  22.090   9.129
   25POPC   C1A 5823  17.374  22.148   8.741
   25POPC   D2A 5824  17.577  22.034   8.349
   25POPC   C3A 5825  17.605  22.360   8.109
   25POPC   C4A 5826  17.384  22.537   7.739
   25POPC   C1B 5827  17.895  22.175   8.731
   25POPC   C2B 5828  18.076  22.016   8.333
   25POPC   C3B 5829  17.873  21.907   7.937
   25POPC   C4B 5830  17.476  22.024   7.725
   26POPC   NC3 5831  15.974  26.524   9.502
   26POPC   PO4 5832  15.731  27.192   9.499
   26POPC   GL1 5833  15.906  26.926   9.189
   26POPC   GL2 5834  15.667  26.656   9.116
   26POPC   C1A 5835  16.054  26.718   8.809
   26POPC   D2A 5836  15.777  26.669   8.451
   26POPC   C3A 5837  15.948  26.810   8.084
   26POPC   C4A 5838  15.958  26.665   7.692
   26POPC   C1B 5839  15.547  26.934   8.812
   26POPC   C2B 5840  15.674  27.165   8.448
   26POPC   C3B 5841  15.755  27.278   8.028
   26POPC   C4B 5842  16.187  27.284   7.861
   27POPC   NC3 5843  40.570  23.996   9.590
   27POPC   PO4 5844  40.363  23.381   9.211
   27POPC   GL1 5845  40.697  23.714   9.123
   27POPC   GL2 5846  40.687  24.072   9.090
   27POPC   C1A 5847  40.878  23.691   8.734
   27POPC   D2A 5848  40.632  23.674   8.347
   27POPC   C3A 5849  40.840  23.677   7.931
   27POPC   C4A 5850  40.787  23.674   7.458
   27POPC   C1B 5851  40.947  24.185   8.678
   27POPC   C2B 5852  40.958  24.096   8.241
   27POPC   C3B 5853  40.960  24.173   7.794
   27POPC   C4B 5854  41.123  24.031   7.373
   28POPC   NC3 5855   2.707  37.933   9.559
   28POPC   PO4 5856   2.585  37.341   9.683
   28POPC   GL1 5857   2.616  37.501   9.271
   28POPC   GL2 5858   2.964  37.588   9.303
   28POPC   C1A 5859   2.506  37.694   8.883
   28POPC   D2A 5860   2.604  37.539   8.486
   28POPC   C3A 5861   2.686  37.770   8.117
   28POPC   C4A 5862   2.579  38.025   7.783
   28POPC   C1B 5863   3.008  37.530   8.881
   28POPC   C2B 5864   3.120  37.628   8.484
   28POPC   C3B 5865   3.192  37.653   8.081
   28POPC   C4B 5866   3.072  37.922   7.735
   29POPC   NC3 5867  35.229  25.076   9.688
   29POPC   PO4 5868  35.052  25.680   9.561
   29POPC   GL1 5869  35.092  25.316   9.252
   29POPC   GL2 5870  35.448  25.175   9.222
   29POPC   C1A 5871  35.168  25.265   8.794
   29POPC   D2A 5872  35.108  25.454   8.395
   29POPC   C3A 5873  35.230  25.255   8.039
   29POPC   C4A 5874  35.179  25.110   7.647
   29POPC   C1B 5875  35.541  24.928   8.842
   29POPC   C2B 5876  35.658  25.024   8.423
   29POPC   C3B 5877  35.562  24.880   8.009
   29POPC   C4B 5878  35.594  24.842   7.566
   30POPC   NC3 5879  34.868   8.900   9.503
   30POPC   PO4 5880  34.198   8.692   9.610
   30POPC   GL1 5881  34.325   8.882   9.163
   30POPC   GL2 5882  34.621   8.718   9.107
   30POPC   C1A 5883  34.539   8.977   8.710
   30POPC   D2A 5884  34.731   8.983   8.303
   30POPC   C3A 5885  34.451   9.107   7.981
   30POPC   C4A 5886  34.302   8.932   7.599
   30POPC   C1B 5887  34.845   8.582   8.684
   30POPC   C2B 5888  34.764   8.460   8.281
   30POPC   C3B 5889  34.544   8.574   7.906
   30POPC   C4B 5890  34.719   8.666   7.494
   31POPC   NC3 5891  44.757   6.324   9.960
   31POPC   PO4 5892  44.680   5.781   9.582
   31POPC   GL1 5893  44.943   5.914   9.238
   31POPC   GL2 5894  44.908   6.225   9.070
   31POPC   C1A 5895   0.027   5.775   8.809
   31POPC   D2A 5896  44.868   5.955   8.425
   31POPC   C3A 5897  44.870   5.657   8.095
   31POPC   C4A 5898  44.742   5.775   7.665
   31POPC   C1B 5899  44.560   5.977   8.846
   31POPC   C2B 5900  44.422   5.681   8.491
   31POPC   C3B 5901  44.388   5.794   8.050
   31POPC   C4B 5902  44.163   5.790   7.657
   32POPC   NC3 5903  27.066  11.445   9.332
   32POPC   PO4 5904  26.800  12.033   9.603
   32POPC   GL1 5905  26.624  12.099   9.201
   32POPC   GL2 5906  26.668  11.759   9.113
   32POPC   C1A 5907  26.579  12.403   8.859
   32POPC   D2A 5908  26.654  12.417   8.413
   32POPC   C3A 5909  26.860  12.144   8.136
   32POPC   C4A 5910  26.745  12.235   7.749
   32POPC   C1B 5911  26.529  11.912   8.700
   32POPC   C2B 5912  26.603  11.736   8.310
   32POPC   C3B 5913  26.678  11.705   7.872
   32POPC   C4B 5914  26.986  11.795   7.548
   33POPC   NC3 5915  14.936   2.579   9.435
   33POPC   PO4 5916  15.389   3.174   9.542
   33POPC   GL1 5917  15.311   2.865   9.191
   33POPC   GL2 5918  14.969   2.865   9.034
   33POPC   C1A 5919  15.290   2.567   8.814
   33POPC   D2A 5920  15.118   2.747   8.417
   33POPC   C3A 5921  15.101   2.603   7.993
   33POPC   C4A 5922  15.305   2.738   7.593
   33POPC   C1B 5923  14.723   2.666   8.738
   33POPC   C2B 5924  14.662   2.998   8.462
   33POPC   C3B 5925  14.761   3.037   8.052
   33POPC   C4B 5926  14.857   2.936   7.639
   34POPC   NC3 5927  39.655  13.038   9.472
   34POPC   PO4 5928  39.209  12.478   9.511
   34POPC   GL1 5929  39.420  12.689   9.180
   34POPC   GL2 5930  39.208  12.969   9.180
   34POPC   C1A 5931  39.482  12.821   8.723
   34POPC   D2A 5932  39.635  12.800   8.297
   34POPC   C3A 5933  39.263  12.853   8.070
   34POPC   C4A 5934  39.177  13.193   7.755
   34POPC   C1B 5935  39.009  12.691   8.850
   34POPC   C2B 5936  38.981  12.968   8.502
   34POPC   C3B 5937  38.838  13.110   8.129
   34POPC   C4B 5938  38.821  12.842   7.797
   35POPC   NC3 5939  30.762   7.235   9.554
   35POPC   PO4 5940  30.173   7.484   9.571
   35POPC   GL1 5941  30.489   7.524   9.232
   35POPC   GL2 5942  30.597   7.158   9.084
   35POPC   C1A 5943  30.505   7.563   8.787
   35POPC   D2A 5944  30.637   7.240   8.476
   35POPC   C3A 5945  30.597   7.371   8.046
   35POPC   C4A 5946  30.385   7.411   7.672
   35POPC   C1B 5947  30.969   7.358   8.863
   35POPC   C2B 5948  30.967   7.634   8.485
   35POPC   C3B 5949  31.074   7.565   8.063
   35POPC   C4B 5950  31.128   7.457   7.628
   36POPC   NC3 5951  30.820   0.125   9.563
   36POPC   PO4 5952  30.783  44.470   9.404
   36POPC   GL1 5953  30.568  44.797   9.146
   36POPC   GL2 5954  30.608   0.165   9.114
   36POPC   C1A 5955  30.752  44.885   8.732
   36POPC   D2A 5956  31.072   0.031   8.489
   36POPC   C3A 5957  31.013  44.709   8.202
   36POPC   C4A 5958  30.733  44.514   7.903
   36POPC   C1B 5959  30.318   0.141   8.812
   36POPC   C2B 5960  30.315  44.950   8.393
   36POPC   C3B 5961  30.602   0.015   8.015
   36POPC   C4B 5962  31.047   0.044   7.821
   37POPC   NC3 5963  26.874  39.621   9.808
   37POPC   PO4 5964  27.265  40.250   9.648
   37POPC   GL1 5965  26.969  40.286   9.223
   37POPC   GL2 5966  26.647  40.238   9.066
   37POPC   C1A 5967  26.941  39.950   8.796
   37POPC   D2A 5968  26.775  39.785   8.380
   37POPC   C3A 5969  26.928  39.829   7.945
   37POPC   C4A 5970  26.827  39.870   7.484
   37POPC   C1B 5971  26.410  39.986   8.738
   37POPC   C2B 5972  26.341  40.100   8.320
   37POPC   C3B 5973  26.675  40.244   8.060
   37POPC   C4B 5974  26.754  40.344   7.640
   38POPC   NC3 5975  24.932   9.932   9.636
   38POPC   PO4 5976  25.128   9.338   9.486
   38POPC   GL1 5977  25.118   9.473   9.097
   38POPC   GL2 5978  24.884   9.723   9.132
   38POPC   C1A 5979  25.399   9.586   8.750
   38POPC   D2A 5980  25.404   9.845   8.392
   38POPC   C3A 5981  25.438   9.643   8.018
   38POPC   C4A 5982  25.650   9.441   7.707
   38POPC   C1B 5983  24.918   9.714   8.672
   38POPC   C2B 5984  24.903  10.000   8.339
   38POPC   C3B 5985  25.110  10.028   7.946
   38POPC   C4B 5986  25.244   9.817   7.567
   39POPC   NC3 5987   6.931  19.614   9.509
   39POPC   PO4 5988   6.329  19.962   9.556
   39POPC   GL1 5989   6.708  20.065   9.321
   39POPC   GL2 5990   6.632  19.766   9.126
   39POPC   C1A 5991   6.872  20.144   8.887
   39POPC   D2A 5992   6.719  19.909   8.546
   39POPC   C3A 5993   6.909  19.985   8.164
   39POPC   C4A 5994   6.888  19.993   7.720
   39POPC   C1B 5995   6.397  19.595   8.810
   39POPC   C2B 5996   6.444  19.516   8.342
   39POPC   C3B 5997   6.506  19.730   7.930
   39POPC   C4B 5998   6.173  19.817   7.572
   40POPC   NC3 5999  35.279  43.940   9.629
   40POPC   PO4 6000  35.234  43.505   9.142
   40POPC   GL1 6001  35.390  43.964   9.127
   40POPC   GL2 6002  35.063  44.106   9.183
   40POPC   C1A 6003  35.631  43.984   8.745
   40POPC   D2A 6004  35.510  43.688   8.426
   40POPC   C3A 6005  35.295  43.766   8.040
   40POPC   C4A 6006  35.508  44.020   7.747
   40POPC   C1B 6007  35.119  44.013   8.717
   40POPC   C2B 6008  35.284  44.193   8.371
   40POPC   C3B 6009  35.108  44.235   7.965
   40POPC   C4B 6010  35.002  43.992   7.596
   41POPC   NC3 6011   1.140  30.134   9.702
   41POPC   PO4 6012   0.986  30.652   9.684
   41POPC   GL1 6013   1.107  30.376   9.245
   41POPC   GL2 6014   1.066  29.986   9.206
   41POPC   C1A 6015   1.204  30.219   8.776
   41POPC   D2A 6016   1.040  30.109   8.331
   41POPC   C3A 6017   1.311  30.025   7.942
   41POPC   C4A 6018   1.472  29.734   7.572
   41POPC   C1B 6019   1.194  29.712   8.825
   41POPC   C2B 6020   1.169  29.605   8.372
   41POPC   C3B 6021   1.087  29.576   7.927
   41POPC   C4B 6022   1.114  29.344   7.541
   42POPC   NC3 6023   9.278  26.237   9.454
   42POPC   PO4 6024   9.855  26.010   9.651
   42POPC   GL1 6025   9.791  26.001   9.194
   42POPC   GL2 6026   9.534  26.215   9.022
   42POPC   C1A 6027   9.966  26.139   8.786
   42POPC   D2A 6028   9.744  26.292   8.421
   42POPC   C3A 6029   9.981  26.205   8.065
   42POPC   C4A 6030   9.957  25.970   7.694
   42POPC   C1B 6031   9.292  26.371   8.680
   42POPC   C2B 6032   9.258  26.232   8.240
   42POPC   C3B 6033   9.510  26.170   7.879
   42POPC   C4B 6034   9.497  26.432   7.533
   43POPC   NC3 6035   7.969   1.623   9.398
   43POPC   PO4 6036   8.497   1.182   9.535
   43POPC   GL1 6037   8.260   1.259   9.186
   43POPC   GL2 6038   8.406   1.594   9.160
   43POPC   C1A 6039   8.099   1.089   8.796
   43POPC   D2A 6040   8.274   1.023   8.386
   43POPC   C3A 6041   8.009   1.069   8.023
   43POPC   C4A 6042   8.160   1.167   7.627
   43POPC   C1B 6043   8.343   1.540   8.739
   43POPC   C2B 6044   8.561   1.447   8.388
   43POPC   C3B 6045   8.410   1.449   7.970
   43POPC   C4B 6046   8.448   1.551   7.503
   44POPC   NC3 6047   6.194   9.345   9.557
   44POPC   PO4 6048   5.566   9.701   9.357
   44POPC   GL1 6049   5.986   9.792   9.190
   44POPC   GL2 6050   6.294   9.564   9.112
   44POPC   C1A 6051   6.091   9.871   8.749
   44POPC   D2A 6052   5.922   9.652   8.373
   44POPC   C3A 6053   5.823   9.929   8.060
   44POPC   C4A 6054   5.437   9.955   7.868
   44POPC   C1B 6055   6.093   9.362   8.761
   44POPC   C2B 6056   6.208   9.234   8.327
   44POPC   C3B 6057   6.094   9.448   7.919
   44POPC   C4B 6058   5.902   9.723   7.605
   45POPC   NC3 6059  36.297  31.568   9.530
   45POPC   PO4 6060  35.609  31.731   9.448
   45POPC   GL1 6061  35.907  31.581   9.176
   45POPC   GL2 6062  35.923  31.229   9.257
   45POPC   C1A 6063  36.284  31.696   8.889
   45POPC   D2A 6064  36.311  31.808   8.452
   45POPC   C3A 6065  36.292  31.488   8.116
   45POPC   C4A 6066  36.159  31.642   7.747
   45POPC   C1B 6067  36.043  31.254   8.828
   45POPC   C2B 6068  35.890  31.458   8.455
   45POPC   C3B 6069  35.762  31.454   8.031
   45POPC   C4B 6070  35.782  31.343   7.588
   46POPC   NC3 6071  28.223  38.531   9.515
   46POPC   PO4 6072  28.214  39.122   9.610
   46POPC   GL1 6073  28.037  39.165   9.172
   46POPC   GL2 6074  27.921  39.514   9.079
   46POPC   C1A 6075  27.934  39.160   8.703
   46POPC   D2A 6076  28.072  39.414   8.326
   46POPC   C3A 6077  27.940  39.303   7.896
   46POPC   C4A 6078  28.028  39.326   7.444
   46POPC   C1B 6079  28.328  39.446   8.867
   46POPC   C2B 6080  28.480  39.167   8.543
   46POPC   C3B 6081  28.515  39.231   8.097
   46POPC   C4B 6082  28.399  39.103   7.699
   47POPC   NC3 6083  27.672  42.158   9.506
   47POPC   PO4 6084  27.146  41.800   9.207
   47POPC   GL1 6085  27.451  42.171   9.056
   47POPC   GL2 6086  27.852  42.322   9.082
   47POPC   C1A 6087  27.651  42.122   8.678
   47POPC   D2A 6088  27.533  41.963   8.342
   47POPC   C3A 6089  27.423  42.239   8.064
   47POPC   C4A 6090  27.587  42.269   7.678
   47POPC   C1B 6091  28.151  42.222   8.772
   47POPC   C2B 6092  28.033  42.243   8.336
   47POPC   C3B 6093  27.889  42.497   8.043
   47POPC   C4B 6094  27.855  42.678   7.620
   48POPC   NC3 6095  12.804   4.350   9.472
   48POPC   PO4 6096  13.363   4.331   9.741
   48POPC   GL1 6097  13.217   4.327   9.192
   48POPC   GL2 6098  12.935   4.591   9.041
   48POPC   C1A 6099  13.098   4.197   8.758
   48POPC   D2A 6100  13.294   4.226   8.336
   48POPC   C3A 6101  13.140   3.987   7.983
   48POPC   C4A 6102  12.844   4.028   7.635
   48POPC   C1B 6103  13.004   4.670   8.595
   48POPC   C2B 6104  12.838   4.452   8.229
   48POPC   C3B 6105  13.002   4.485   7.824
   48POPC   C4B 6106  12.950   4.734   7.433
   49POPC   NC3 6107  12.956  17.082   9.323
   49POPC   PO4 6108  12.614  17.692   9.423
   49POPC   GL1 6109  12.996  17.602   9.207
   49POPC   GL2 6110  13.222  17.863   9.134
   49POPC   C1A 6111  13.041  17.469   8.784
   49POPC   D2A 6112  12.958  17.268   8.412
   49POPC   C3A 6113  12.870  17.493   8.024
   49POPC   C4A 6114  12.658  17.401   7.622
   49POPC   C1B 6115  12.909  17.959   8.803
   49POPC   C2B 6116  12.722  17.864   8.407
   49POPC   C3B 6117  12.685  17.966   7.972
   49POPC   C4B 6118  12.923  17.865   7.587
   50POPC   NC3 6119  10.298  11.102   9.465
   50POPC   PO4 6120  10.887  11.518   9.468
   50POPC   GL1 6121  10.604  11.304   9.108
   50POPC   GL2 6122  10.316  11.085   8.981
   50POPC   C1A 6123  10.351  11.563   8.795
   50POPC   D2A 6124  10.264  11.716   8.377
   50POPC   C3A 6125  10.508  11.602   8.023
   50POPC   C4A 6126  10.418  11.290   7.741
   50POPC   C1B 6127  10.491  11.097   8.626
   50POPC   C2B 6128  10.717  11.206   8.292
   50POPC   C3B 6129  10.943  10.984   8.006
   50POPC   C4B 6130  10.900  11.191   7.637
   51POPC   NC3 6131  30.973  42.189   9.286
   51POPC   PO4 6132  30.800  42.711   9.548
   51POPC   GL1 6133  30.602  42.548   9.127
   51POPC   GL2 6134  30.496  42.181   9.082
   51POPC   C1A 6135  30.375  42.508   8.715
   51POPC   D2A 6136  30.517  42.262   8.350
   51POPC   C3A 6137  30.466  42.411   7.960
   51POPC   C4A 6138  30.869  42.409   7.791
   51POPC   C1B 6139  30.727  42.000   8.719
   51POPC   C2B 6140  30.898  41.898   8.321
   51POPC   C3B 6141  30.687  41.949   7.932
   51POPC   C4B 6142  30.753  41.989   7.488
   52POPC   NC3 6143  21.719  16.920   9.523
   52POPC   PO4 6144  22.424  16.697   9.407
   52POPC   GL1 6145  22.076  16.805   9.156
   52POPC   GL2 6146  22.315  17.071   9.037
   52POPC   C1A 6147  21.867  16.683   8.753
   52POPC   D2A 6148  21.891  16.942   8.357
   52POPC   C3A 6149  22.031  16.781   7.922
   52POPC   C4A 6150  21.978  16.719   7.460
   52POPC   C1B 6151  22.388  16.686   8.762
   52POPC   C2B 6152  22.246  16.558   8.363
   52POPC   C3B 6153  22.446  16.472   7.970
   52POPC   C4B 6154  22.471  16.687   7.586
   53POPC   NC3 6155  27.019  42.744   9.637
   53POPC   PO4 6156  26.439  43.057   9.562
   53POPC   GL1 6157  26.719  42.857   9.215
   53POPC   GL2 6158  27.099  42.784   9.142
   53POPC   C1A 6159  26.782  42.831   8.753
   53POPC   D2A 6160  26.568  43.026   8.433
   53POPC   C3A 6161  26.668  42.945   8.015
   53POPC   C4A 6162  26.686  43.281   7.726
   53POPC   C1B 6163  27.258  43.042   8.775
   53POPC   C2B 6164  27.132  43.005   8.331
   53POPC   C3B 6165  27.145  43.111   7.879
   53POPC   C4B 6166  26.920  42.875   7.540
   54POPC   NC3 6167   9.546   9.367   9.362
   54POPC   PO4 6168   9.776   8.680   9.447
   54POPC   GL1 6169   9.673   8.789   9.002
   54POPC   GL2 6170   9.615   9.141   8.925
   54POPC   C1A 6171   9.885   8.887   8.593
   54POPC   D2A 6172   9.718   9.159   8.303
   54POPC   C3A 6173   9.412   8.930   8.105
   54POPC   C4A 6174   9.740   8.695   7.914
   54POPC   C1B 6175   9.544   9.498   8.651
   54POPC   C2B 6176   9.521   9.611   8.205
   54POPC   C3B 6177   9.319   9.448   7.864
   54POPC   C4B 6178   9.543   9.137   7.677
   55POPC   NC3 6179  38.100  20.477   9.648
   55POPC   PO4 6180  38.684  20.330   9.539
   55POPC   GL1 6181  38.469  20.588   9.270
   55POPC   GL2 6182  38.250  20.347   9.158
   55POPC   C1A 6183  38.551  20.562   8.821
   55POPC   D2A 6184  38.378  20.500   8.421
   55POPC   C3A 6185  38.574  20.519   8.036
   55POPC   C4A 6186  38.411  20.814   7.736
   55POPC   C1B 6187  38.097  20.228   8.769
   55POPC   C2B 6188  37.878  20.397   8.397
   55POPC   C3B 6189  38.057  20.510   7.995
   55POPC   C4B 6190  38.196  20.251   7.655
   56POPC   NC3 6191   8.667  35.968   9.686
   56POPC   PO4 6192   9.277  36.187   9.689
   56POPC   GL1 6193   8.985  36.247   9.315
   56POPC   GL2 6194   8.662  36.421   9.300
   56POPC   C1A 6195   9.072  36.367   8.884
   56POPC   D2A 6196   9.034  36.491   8.430
   56POPC   C3A 6197   9.020  36.136   8.152
   56POPC   C4A 6198   8.958  35.889   7.774
   56POPC   C1B 6199   8.578  36.148   8.942
   56POPC   C2B 6200   8.573  36.194   8.470
   56POPC   C3B 6201   8.526  36.003   8.038
   56POPC   C4B 6202   8.512  36.107   7.597
   57POPC   NC3 6203  44.715   7.873   9.477
   57POPC   PO4 6204  44.307   8.385   9.463
   57POPC   GL1 6205  44.600   8.240   9.145
   57POPC   GL2 6206  44.414   7.922   9.080
   57POPC   C1A 6207  44.821   8.384   8.748
   57POPC   D2A 6208  44.854   8.166   8.322
   57POPC   C3A 6209  44.845   8.340   7.900
   57POPC   C4A 6210  44.885   8.405   7.425
   57POPC   C1B 6211  44.570   7.924   8.690
   57POPC   C2B 6212  44.386   7.960   8.290
   57POPC   C3B 6213  44.602   7.890   7.932
   57POPC   C4B 6214   0.004   7.828   7.728
   58POPC   NC3 6215  42.594  14.985   9.335
   58POPC   PO4 6216  42.155  15.378   9.607
   58POPC   GL1 6217  42.086  15.131   9.199
   58POPC   GL2 6218  42.369  15.178   8.947
   58POPC   C1A 6219  41.954  15.019   8.751
   58POPC   D2A 6220  42.138  15.193   8.379
   58POPC   C3A 6221  42.275  15.070   7.975
   58POPC   C4A 6222  42.146  15.081   7.564
   58POPC   C1B 6223  42.496  15.448   8.606
   58POPC   C2B 6224  42.621  15.385   8.195
   58POPC   C3B 6225  42.702  15.702   7.884
   58POPC   C4B 6226  42.683  15.736   7.423
   59POPC   NC3 6227  16.156  22.721   9.376
   59POPC   PO4 6228  15.861  23.370   9.636
   59POPC   GL1 6229  15.944  23.184   9.251
   59POPC   GL2 6230  16.249  23.214   9.247
   59POPC   C1A 6231  15.785  23.069   8.817
   59POPC   D2A 6232  16.023  22.887   8.456
   59POPC   C3A 6233  15.781  22.895   8.067
   59POPC   C4A 6234  15.744  23.204   7.770
   59POPC   C1B 6235  16.268  23.217   8.820
   59POPC   C2B 6236  16.345  23.350   8.399
   59POPC   C3B 6237  16.231  23.160   8.014
   59POPC   C4B 6238  16.531  23.007   7.718
   60POPC   NC3 6239  41.014  15.154   9.436
   60POPC   PO4 6240  40.790  15.704   9.715
   60POPC   GL1 6241  40.736  15.537   9.222
   60POPC   GL2 6242  40.682  15.199   9.073
   60POPC   C1A 6243  40.719  15.559   8.745
   60POPC   D2A 6244  40.627  15.197   8.470
   60POPC   C3A 6245  40.539  15.285   8.042
   60POPC   C4A 6246  40.866  15.527   7.844
   60POPC   C1B 6247  40.960  14.972   8.800
   60POPC   C2B 6248  41.036  14.838   8.373
   60POPC   C3B 6249  40.952  14.961   7.940
   60POPC   C4B 6250  40.998  14.644   7.629
   61POPC   NC3 6251  13.981  36.753   9.922
   61POPC   PO4 6252  13.462  36.943   9.534
   61POPC   GL1 6253  13.589  37.031   9.113
   61POPC   GL2 6254  13.827  36.776   9.052
   61POPC   C1A 6255  13.442  37.132   8.680
   61POPC   D2A 6256  13.463  36.907   8.281
   61POPC   C3A 6257  13.214  36.967   7.929
   61POPC   C4A 6258  13.230  36.845   7.481
   61POPC   C1B 6259  13.867  36.832   8.595
   61POPC   C2B 6260  13.933  36.800   8.132
   61POPC   C3B 6261  13.698  36.745   7.765
   61POPC   C4B 6262  13.751  36.521   7.349
   62POPC   NC3 6263  41.402  10.332   9.544
   62POPC   PO4 6264  42.002  10.353   9.555
   62POPC   GL1 6265  41.749  10.560   9.216
   62POPC   GL2 6266  41.536  10.849   9.262
   62POPC   C1A 6267  41.667  10.439   8.784
   62POPC   D2A 6268  41.628  10.683   8.410
   62POPC   C3A 6269  41.651  10.470   8.015
   62POPC   C4A 6270  41.788  10.427   7.625
   62POPC   C1B 6271  41.441  10.913   8.832
   62POPC   C2B 6272  41.168  10.995   8.443
   62POPC   C3B 6273  41.046  10.902   7.993
   62POPC   C4B 6274  41.366  10.744   7.709
   63POPC   NC3 6275  38.732  34.056   9.580
   63POPC   PO4 6276  38.106  33.766   9.591
   63POPC   GL1 6277  38.247  33.728   9.184
   63POPC   GL2 6278  38.472  34.002   9.161
   63POPC   C1A 6279  38.218  33.891   8.740
   63POPC   D2A 6280  38.279  33.828   8.326
   63POPC   C3A 6281  38.186  33.715   7.921
   63POPC   C4A 6282  38.589  33.606   7.687
   63POPC   C1B 6283  38.660  33.707   8.864
   63POPC   C2B 6284  38.780  33.780   8.415
   63POPC   C3B 6285  38.648  33.999   8.023
   63POPC   C4B 6286  38.254  34.201   7.832
   64POPC   NC3 6287  39.086  32.125   9.520
   64POPC   PO4 6288  39.725  32.175   9.314
   64POPC   GL1 6289  39.410  32.019   9.104
   64POPC   GL2 6290  39.280  32.343   9.077
   64POPC   C1A 6291  39.375  32.039   8.670
   64POPC   D2A 6292  39.293  32.399   8.440
   64POPC   C3A 6293  39.463  32.393   8.024
   64POPC   C4A 6294  39.298  32.472   7.632
   64POPC   C1B 6295  38.926  32.068   8.920
   64POPC   C2B 6296  38.891  31.931   8.519
   64POPC   C3B 6297  39.000  32.091   8.147
   64POPC   C4B 6298  39.018  32.063   7.733
   65POPC   NC3 6299  11.879   8.262   9.541
   65POPC   PO4 6300  12.261   7.871   9.119
   65POPC   GL1 6301  12.160   8.256   8.964
   65POPC   GL2 6302  11.937   8.503   9.114
   65POPC   C1A 6303  12.221   8.248   8.541
   65POPC   D2A 6304  12.429   8.416   8.189
   65POPC   C3A 6305  12.259   8.246   7.804
   65POPC   C4A 6306  12.004   7.958   7.673
   65POPC   C1B 6307  11.861   8.639   8.726
   65POPC   C2B 6308  11.864   8.502   8.308
   65POPC   C3B 6309  12.019   8.649   7.952
   65POPC   C4B 6310  11.939   8.575   7.502
   66POPC   NC3 6311  27.068  30.938   9.559
   66POPC   PO4 6312  26.645  30.379   9.477
   66POPC   GL1 6313  26.742  30.694   9.166
   66POPC   GL2 6314  27.074  30.647   9.116
   66POPC   C1A 6315  26.808  30.778   8.709
   66POPC   D2A 6316  26.785  30.391   8.430
   66POPC   C3A 6317  26.676  30.470   8.015
   66POPC   C4A 6318  26.848  30.806   7.785
   66POPC   C1B 6319  27.239  30.488   8.721
   66POPC   C2B 6320  27.186  30.656   8.293
   66POPC   C3B 6321  27.192  30.463   7.878
   66POPC   C4B 6322  27.161  30.545   7.447
   67POPC   NC3 6323  12.316  27.416   9.528
   67POPC   PO4 6324  11.760  27.487   9.315
   67POPC   GL1 6325  12.138  27.426   9.039
   67POPC   GL2 6326  12.347  27.117   9.117
   67POPC   C1A 6327  12.091  27.595   8.637
   67POPC   D2A 6328  12.037  27.488   8.209
   67POPC   C3A 6329  12.125  27.715   7.843
   67POPC   C4A 6330  11.916  27.719   7.451
   67POPC   C1B 6331  12.561  27.217   8.772
   67POPC   C2B 6332  12.500  27.385   8.380
   67POPC   C3B 6333  12.409  27.285   7.936
   67POPC   C4B 6334  12.736  27.260   7.620
   68POPC   NC3 6335  44.743  15.786   9.499
   68POPC   PO4 6336  44.190  15.678   9.451
   68POPC   GL1 6337  44.449  15.706   9.063
   68POPC   GL2 6338  44.662  15.452   9.096
   68POPC   C1A 6339  44.470  15.674   8.574
   68POPC   D2A 6340  44.175  15.780   8.198
   68POPC   C3A 6341  44.300  15.859   7.753
   68POPC   C4A 6342  44.573  16.122   7.443
   68POPC   C1B 6343  44.961  15.575   8.833
   68POPC   C2B 6344  44.967  15.684   8.413
   68POPC   C3B 6345  44.701  15.635   8.062
   68POPC   C4B 6346  44.774  15.700   7.630
   69POPC   NC3 6347  32.820  19.524   9.278
   69POPC   PO4 6348  33.155  20.087   9.494
   69POPC   GL1 6349  33.061  20.093   9.057
   69POPC   GL2 6350  32.715  20.106   9.072
   69POPC   C1A 6351  32.930  19.849   8.662
   69POPC   D2A 6352  32.994  19.618   8.246
   69POPC   C3A 6353  33.259  19.809   7.877
   69POPC   C4A 6354  33.192  19.812   7.419
   69POPC   C1B 6355  32.483  20.108   8.679
   69POPC   C2B 6356  32.660  20.044   8.239
   69POPC   C3B 6357  32.773  19.931   7.761
   69POPC   C4B 6358  32.842  20.169   7.358
   70POPC   NC3 6359   8.103   7.695   9.666
   70POPC   PO4 6360   8.292   7.054   9.485
   70POPC   GL1 6361   8.084   7.236   9.159
   70POPC   GL2 6362   7.990   7.580   9.195
   70POPC   C1A 6363   8.261   7.197   8.756
   70POPC   D2A 6364   8.276   7.042   8.362
   70POPC   C3A 6365   8.454   7.411   8.202
   70POPC   C4A 6366   8.390   7.372   7.799
   70POPC   C1B 6367   7.814   7.457   8.794
   70POPC   C2B 6368   7.931   7.423   8.385
   70POPC   C3B 6369   7.964   7.604   7.994
   70POPC   C4B 6370   7.949   7.456   7.582
   71POPC   NC3 6371  32.559   3.250   9.366
   71POPC   PO4 6372  33.104   3.685   9.515
   71POPC   GL1 6373  33.092   3.501   9.106
   71POPC   GL2 6374  32.776   3.595   9.042
   71POPC   C1A 6375  33.176   3.598   8.655
   71POPC   D2A 6376  33.194   3.758   8.223
   71POPC   C3A 6377  32.811   3.802   7.963
   71POPC   C4A 6378  32.707   3.718   7.524
   71POPC   C1B 6379  32.815   3.243   8.754
   71POPC   C2B 6380  32.773   3.353   8.332
   71POPC   C3B 6381  33.072   3.286   8.070
   71POPC   C4B 6382  33.143   3.477   7.737
   72POPC   NC3 6383  44.734  37.495   9.759
   72POPC   PO4 6384  44.525  38.081   9.595
   72POPC   GL1 6385  44.630  37.825   9.217
   72POPC   GL2 6386  44.758  37.478   9.239
   72POPC   C1A 6387  44.810  37.740   8.780
   72POPC   D2A 6388  44.863  37.513   8.389
   72POPC   C3A 6389  44.789  37.777   8.020
   72POPC   C4A 6390  44.835  38.073   7.687
   72POPC   C1B 6391  44.505  37.363   8.860
   72POPC   C2B 6392  44.352  37.554   8.482
   72POPC   C3B 6393  44.389  37.461   8.027
   72POPC   C4B 6394  44.411  37.749   7.663
   73POPC   NC3 6395  23.162   9.592   9.525
   73POPC   PO4 6396  22.597   9.854   9.485
   73POPC   GL1 6397  22.837   9.736   9.147
   73POPC   GL2 6398  23.124   9.984   9.186
   73POPC   C1A 6399  22.667   9.593   8.755
   73POPC   D2A 6400  22.870   9.544   8.340
   73POPC   C3A 6401  22.895   9.869   8.047
   73POPC   C4A 6402  22.643   9.887   7.685
   73POPC   C1B 6403  23.140   9.818   8.739
   73POPC   C2B 6404  23.348   9.923   8.345
   73POPC   C3B 6405  23.317  10.131   7.932
   73POPC   C4B 6406  23.289  10.090   7.461
   74POPC   NC3 6407  16.332  41.054   9.425
   74POPC   PO4 6408  15.772  40.770   9.679
   74POPC   GL1 6409  15.880  40.655   9.269
   74POPC   GL2 6410  15.594  40.542   9.122
   74POPC   C1A 6411  16.042  40.558   8.852
   74POPC   D2A 6412  16.026  40.822   8.473
   74POPC   C3A 6413  16.122  40.702   8.030
   74POPC   C4A 6414  16.265  40.983   7.704
   74POPC   C1B 6415  15.525  40.859   8.813
   74POPC   C2B 6416  15.527  40.860   8.363
   74POPC   C3B 6417  15.713  40.987   7.988
   74POPC   C4B 6418  15.788  40.762   7.627
   75POPC   NC3 6419   8.576   6.393   9.502
   75POPC   PO4 6420   9.137   6.810   9.529
   75POPC   GL1 6421   8.969   6.594   9.205
   75POPC   GL2 6422   9.081   6.308   9.304
   75POPC   C1A 6423   8.848   6.612   8.788
   75POPC   D2A 6424   8.743   6.901   8.492
   75POPC   C3A 6425   8.808   6.691   8.121
   75POPC   C4A 6426   8.923   6.604   7.724
   75POPC   C1B 6427   9.195   6.244   8.864
   75POPC   C2B 6428   9.017   6.174   8.445
   75POPC   C3B 6429   9.179   6.300   8.042
   75POPC   C4B 6430   9.206   6.190   7.588
   76POPC   NC3 6431  43.736  23.428   9.363
   76POPC   PO4 6432  44.195  23.885   9.480
   76POPC   GL1 6433  44.027  23.753   9.070
   76POPC   GL2 6434  44.138  23.412   9.014
   76POPC   C1A 6435  43.782  23.789   8.662
   76POPC   D2A 6436  43.585  23.571   8.286
   76POPC   C3A 6437  43.639  23.633   7.849
   76POPC   C4A 6438  43.384  23.910   7.615
   76POPC   C1B 6439  44.253  23.649   8.602
   76POPC   C2B 6440  44.033  23.780   8.193
   76POPC   C3B 6441  44.143  23.646   7.765
   76POPC   C4B 6442  44.187  23.783   7.332
   77POPC   NC3 6443  30.557  43.105   9.580
   77POPC   PO4 6444  31.166  43.254   9.682
   77POPC   GL1 6445  30.950  43.321   9.254
   77POPC   GL2 6446  30.889  42.992   9.143
   77POPC   C1A 6447  30.773  43.314   8.789
   77POPC   D2A 6448  30.895  43.191   8.393
   77POPC   C3A 6449  30.768  43.277   7.953
   77POPC   C4A 6450  30.702  43.619   7.651
   77POPC   C1B 6451  30.802  42.798   8.721
   77POPC   C2B 6452  30.560  42.800   8.319
   77POPC   C3B 6453  30.404  42.909   7.891
   77POPC   C4B 6454  30.675  42.825   7.529
   78POPC   NC3 6455  26.976   8.606   9.400
   78POPC   PO4 6456  26.365   8.949   9.266
   78POPC   GL1 6457  26.736   8.919   9.088
   78POPC   GL2 6458  27.052   9.066   9.184
   78POPC   C1A 6459  26.784   8.937   8.686
   78POPC   D2A 6460  26.631   9.220   8.400
   78POPC   C3A 6461  26.706   9.115   7.980
   78POPC   C4A 6462  26.934   8.793   7.775
   78POPC   C1B 6463  27.212   9.189   8.773
   78POPC   C2B 6464  27.174   9.159   8.355
   78POPC   C3B 6465  27.222   9.202   7.924
   78POPC   C4B 6466  26.966   9.441   7.658
   79POPC   NC3 6467   6.998  40.625   9.966
   79POPC   PO4 6468   7.515  40.617   9.530
   79POPC   GL1 6469   7.515  40.621   9.076
   79POPC   GL2 6470   7.340  40.923   9.023
   79POPC   C1A 6471   7.499  40.730   8.600
   79POPC   D2A 6472   7.560  40.792   8.163
   79POPC   C3A 6473   7.825  41.010   7.873
   79POPC   C4A 6474   7.634  41.140   7.471
   79POPC   C1B 6475   7.014  40.962   8.724
   79POPC   C2B 6476   6.848  40.892   8.324
   79POPC   C3B 6477   7.076  40.969   7.995
   79POPC   C4B 6478   7.346  40.815   7.719
   80POPC   NC3 6479   7.854  38.022   9.872
   80POPC   PO4 6480   8.379  37.882   9.497
   80POPC   GL1 6481   8.377  37.681   9.131
   80POPC   GL2 6482   8.419  37.333   9.151
   80POPC   C1A 6483   8.196  37.851   8.765
   80POPC   D2A 6484   8.266  38.112   8.425
   80POPC   C3A 6485   8.151  37.903   8.019
   80POPC   C4A 6486   8.177  38.085   7.624
   80POPC   C1B 6487   8.077  37.357   8.816
   80POPC   C2B 6488   7.893  37.535   8.430
   80POPC   C3B 6489   7.932  37.349   8.031
   80POPC   C4B 6490   8.284  37.369   7.764
   81POPC   NC3 6491   0.617  37.278   9.565
   81POPC   PO4 6492   0.834  36.644   9.498
   81POPC   GL1 6493   0.577  36.844   9.168
   81POPC   GL2 6494   0.403  37.163   9.112
   81POPC   C1A 6495   0.272  36.744   8.832
   81POPC   D2A 6496   0.452  36.653   8.419
   81POPC   C3A 6497   0.503  36.911   8.070
   81POPC   C4A 6498   0.327  37.089   7.705
   81POPC   C1B 6499   0.598  37.096   8.691
   81POPC   C2B 6500   0.811  37.202   8.344
   81POPC   C3B 6501   0.708  37.381   7.958
   81POPC   C4B 6502   0.707  37.378   7.507
   82POPC   NC3 6503  10.640  29.122   9.576
   82POPC   PO4 6504  10.149  28.713   9.402
   82POPC   GL1 6505  10.404  29.014   9.137
   82POPC   GL2 6506  10.347  29.367   9.106
   82POPC   C1A 6507  10.622  29.040   8.741
   82POPC   D2A 6508  10.654  28.811   8.359
   82POPC   C3A 6509  10.512  28.995   7.964
   82POPC   C4A 6510  10.824  29.032   7.663
   82POPC   C1B 6511  10.458  29.513   8.676
   82POPC   C2B 6512  10.557  29.449   8.237
   82POPC   C3B 6513  10.546  29.477   7.771
   82POPC   C4B 6514  10.816  29.466   7.393
   83POPC   NC3 6515  22.236  37.520   9.647
   83POPC   PO4 6516  22.483  38.129   9.585
   83POPC   GL1 6517  22.312  37.922   9.209
   83POPC   GL2 6518  22.079  37.682   9.201
   83POPC   C1A 6519  22.133  37.899   8.763
   83POPC   D2A 6520  21.976  37.724   8.375
   83POPC   C3A 6521  22.118  37.974   8.041
   83POPC   C4A 6522  22.258  37.860   7.672
   83POPC   C1B 6523  22.358  37.469   8.902
   83POPC   C2B 6524  22.305  37.325   8.477
   83POPC   C3B 6525  22.353  37.492   8.084
   83POPC   C4B 6526  22.188  37.330   7.726
   84POPC   NC3 6527  24.217   7.076   9.579
   84POPC   PO4 6528  24.589   7.534   9.402
   84POPC   GL1 6529  24.312   7.355   9.161
   84POPC   GL2 6530  24.036   7.570   9.176
   84POPC   C1A 6531  24.327   7.147   8.793
   84POPC   D2A 6532  24.557   7.288   8.440
   84POPC   C3A 6533  24.411   7.260   8.042
   84POPC   C4A 6534  24.516   7.113   7.631
   84POPC   C1B 6535  24.236   7.658   8.752
   84POPC   C2B 6536  24.369   7.767   8.316
   84POPC   C3B 6537  24.373   7.721   7.854
   84POPC   C4B 6538  24.046   7.459   7.705
   85POPC   NC3 6539  26.570  29.265   9.602
   85POPC   PO4 6540  27.197  29.551   9.624
   85POPC   GL1 6541  27.006  29.254   9.338
   85POPC   GL2 6542  26.875  29.538   9.176
   85POPC   C1A 6543  26.881  29.108   8.906
   85POPC   D2A 6544  26.972  29.188   8.456
   85POPC   C3A 6545  26.830  28.928   8.112
   85POPC   C4A 6546  26.767  29.036   7.684
   85POPC   C1B 6547  26.697  29.563   8.755
   85POPC   C2B 6548  26.519  29.455   8.358
   85POPC   C3B 6549  26.825  29.436   8.016
   85POPC   C4B 6550  27.171  29.605   7.761
   86POPC   NC3 6551  15.425  41.501   9.321
   86POPC   PO4 6552  16.025  41.400   9.539
   86POPC   GL1 6553  15.982  41.405   9.105
   86POPC   GL2 6554  15.830  41.714   9.110
   86POPC   C1A 6555  16.136  41.420   8.647
   86POPC   D2A 6556  16.170  41.229   8.205
   86POPC   C3A 6557  16.217  41.480   7.838
   86POPC   C4A 6558  16.254  41.416   7.365
   86POPC   C1B 6559  15.635  41.554   8.721
   86POPC   C2B 6560  15.693  41.335   8.362
   86POPC   C3B 6561  15.671  41.509   7.951
   86POPC   C4B 6562  15.858  41.743   7.596
   87POPC   NC3 6563   0.039  14.680   9.429
   87POPC   PO4 6564  44.507  14.146   9.457
   87POPC   GL1 6565  44.777  14.310   9.186
   87POPC   GL2 6566  44.558  14.580   9.165
   87POPC   C1A 6567  44.878  14.466   8.774
   87POPC   D2A 6568  44.608  14.554   8.416
   87POPC   C3A 6569  44.815  14.493   8.017
   87POPC   C4A 6570   0.072  14.418   7.690
   87POPC   C1B 6571  44.379  14.344   8.842
   87POPC   C2B 6572  44.375  14.032   8.551
   87POPC   C3B 6573  44.462  14.104   8.116
   87POPC   C4B 6574  44.638  14.132   7.699
   88POPC   NC3 6575  11.218  25.673   9.545
   88POPC   PO4 6576  11.392  26.306   9.555
   88POPC   GL1 6577  11.277  26.053   9.209
   88POPC   GL2 6578  11.566  25.945   9.130
   88POPC   C1A 6579  11.073  25.854   8.833
   88POPC   D2A 6580  10.793  25.930   8.453
   88POPC   C3A 6581  10.986  26.113   8.053
   88POPC   C4A 6582  10.823  26.040   7.641
   88POPC   C1B 6583  11.494  26.186   8.776
   88POPC   C2B 6584  11.334  26.014   8.409
   88POPC   C3B 6585  11.414  25.838   8.019
   88POPC   C4B 6586  11.414  26.164   7.726
   89POPC   NC3 6587  26.370  31.630   9.917
   89POPC   PO4 6588  25.731  31.723   9.644
   89POPC   GL1 6589  25.937  31.711   9.214
   89POPC   GL2 6590  26.219  31.487   9.215
   89POPC   C1A 6591  25.842  31.904   8.798
   89POPC   D2A 6592  25.712  31.688   8.428
   89POPC   C3A 6593  25.623  31.767   7.993
   89POPC   C4A 6594  25.882  31.502   7.747
   89POPC   C1B 6595  26.054  31.421   8.763
   89POPC   C2B 6596  26.079  31.254   8.327
   89POPC   C3B 6597  26.322  31.410   7.971
   89POPC   C4B 6598  26.270  31.197   7.565
   90POPC   NC3 6599  35.705  18.924   9.493
   90POPC   PO4 6600  35.151  19.185   9.539
   90POPC   GL1 6601  35.314  19.073   9.136
   90POPC   GL2 6602  35.612  19.266   9.141
   90POPC   C1A 6603  35.230  18.911   8.710
   90POPC   D2A 6604  34.981  18.854   8.299
   90POPC   C3A 6605  35.292  18.929   7.985
   90POPC   C4A 6606  35.568  18.615   7.864
   90POPC   C1B 6607  35.458  19.405   8.747
   90POPC   C2B 6608  35.306  19.283   8.351
   90POPC   C3B 6609  35.305  19.450   7.933
   90POPC   C4B 6610  35.607  19.294   7.682
   91POPC   NC3 6611  15.178  10.510   9.415
   91POPC   PO4 6612  15.702  10.755   9.364
   91POPC   GL1 6613  15.361  10.739   9.005
   91POPC   GL2 6614  14.958  10.725   9.009
   91POPC   C1A 6615  15.221  10.358   8.743
   91POPC   D2A 6616  15.320  10.219   8.320
   91POPC   C3A 6617  15.287  10.507   7.970
   91POPC   C4A 6618  15.098  10.829   7.682
   91POPC   C1B 6619  14.793  10.591   8.626
   91POPC   C2B 6620  14.837  10.496   8.217
   91POPC   C3B 6621  14.826  10.407   7.761
   91POPC   C4B 6622  14.846  10.067   7.449
   92POPC   NC3 6623  37.437  25.762   9.350
   92POPC   PO4 6624  37.791  25.193   9.498
   92POPC   GL1 6625  37.737  25.375   9.136
   92POPC   GL2 6626  37.484  25.146   9.041
   92POPC   C1A 6627  37.889  25.257   8.736
   92POPC   D2A 6628  37.700  25.196   8.376
   92POPC   C3A 6629  37.845  25.284   7.993
   92POPC   C4A 6630  37.442  25.255   7.875
   92POPC   C1B 6631  37.455  24.870   8.683
   92POPC   C2B 6632  37.231  24.878   8.257
   92POPC   C3B 6633  37.250  24.796   7.793
   92POPC   C4B 6634  37.257  24.832   7.300
   93POPC   NC3 6635  39.477  11.294   9.546
   93POPC   PO4 6636  38.832  11.552   9.525
   93POPC   GL1 6637  39.142  11.389   9.137
   93POPC   GL2 6638  39.447  11.553   9.099
   93POPC   C1A 6639  39.311  11.292   8.673
   93POPC   D2A 6640  39.143  11.075   8.294
   93POPC   C3A 6641  39.152  11.217   7.886
   93POPC   C4A 6642  39.208  10.969   7.486
   93POPC   C1B 6643  39.413  11.799   8.719
   93POPC   C2B 6644  39.576  11.646   8.316
   93POPC   C3B 6645  39.466  11.612   7.879
   93POPC   C4B 6646  39.455  11.557   7.387
   94POPC   NC3 6647  30.443  20.683   9.431
   94POPC   PO4 6648  31.147  20.678   9.583
   94POPC   GL1 6649  30.883  20.445   9.248
   94POPC   GL2 6650  31.083  20.337   8.983
   94POPC   C1A 6651  30.653  20.572   8.831
   94POPC   D2A 6652  30.423  20.538   8.449
   94POPC   C3A 6653  30.547  20.461   8.028
   94POPC   C4A 6654  30.554  20.652   7.630
   94POPC   C1B 6655  31.109  20.605   8.616
   94POPC   C2B 6656  30.986  20.692   8.199
   94POPC   C3B 6657  31.047  20.582   7.799
   94POPC   C4B 6658  30.919  20.302   7.523
   95POPC   NC3 6659  18.790  30.455   9.288
   95POPC   PO4 6660  19.207  30.948   9.431
   95POPC   GL1 6661  19.152  30.711   9.039
   95POPC   GL2 6662  19.413  30.433   9.005
   95POPC   C1A 6663  18.849  30.782   8.659
   95POPC   D2A 6664  18.560  30.592   8.324
   95POPC   C3A 6665  18.738  30.515   7.909
   95POPC   C4A 6666  19.022  30.857   7.863
   95POPC   C1B 6667  19.133  30.365   8.660
   95POPC   C2B 6668  19.129  30.515   8.249
   95POPC   C3B 6669  19.357  30.434   7.852
   95POPC   C4B 6670  19.442  30.185   7.478
   96POPC   NC3 6671  14.776  41.161   9.552
   96POPC   PO4 6672  14.855  40.401   9.528
   96POPC   GL1 6673  14.585  40.701   9.281
   96POPC   GL2 6674  14.641  40.958   9.113
   96POPC   C1A 6675  14.281  40.616   8.927
   96POPC   D2A 6676  14.116  40.460   8.540
   96POPC   C3A 6677  14.182  40.632   8.119
   96POPC   C4A 6678  14.311  40.845   7.739
   96POPC   C1B 6679  14.430  41.084   8.788
   96POPC   C2B 6680  14.152  41.006   8.455
   96POPC   C3B 6681  14.459  41.083   8.156
   96POPC   C4B 6682  14.810  41.109   7.864
   97POPC   NC3 6683  10.408  41.198   9.506
   97POPC   PO4 6684  10.911  41.575   9.432
   97POPC   GL1 6685  10.556  41.749   9.221
   97POPC   GL2 6686  10.220  41.600   9.164
   97POPC   C1A 6687  10.639  41.764   8.803
   97POPC   D2A 6688  10.678  41.448   8.501
   97POPC   C3A 6689  10.771  41.531   8.069
   97POPC   C4A 6690  10.635  41.222   7.745
   97POPC   C1B 6691  10.135  41.777   8.760
   97POPC   C2B 6692  10.333  41.774   8.336
   97POPC   C3B 6693  10.272  41.522   7.976
   97POPC   C4B 6694  10.326  41.610   7.546
   98POPC   NC3 6695  18.942  25.154   9.838
   98POPC   PO4 6696  19.408  25.468   9.534
   98POPC   GL1 6697  19.297  25.280   9.159
   98POPC   GL2 6698  18.988  25.131   9.251
   98POPC   C1A 6699  19.130  25.432   8.767
   98POPC   D2A 6700  18.902  25.536   8.402
   98POPC   C3A 6701  18.995  25.351   8.006
   98POPC   C4A 6702  18.817  25.395   7.590
   98POPC   C1B 6703  19.116  24.897   8.872
   98POPC   C2B 6704  19.223  25.005   8.489
   98POPC   C3B 6705  19.161  24.823   8.083
   98POPC   C4B 6706  19.143  24.966   7.706
   99POPC   NC3 6707  26.621  38.216   9.520
   99POPC   PO4 6708  27.050  38.707   9.371
   99POPC   GL1 6709  26.775  38.496   9.071
   99POPC   GL2 6710  26.472  38.668   9.143
   99POPC   C1A 6711  26.872  38.387   8.624
   99POPC   D2A 6712  26.996  38.491   8.188
   99POPC   C3A 6713  26.770  38.284   7.876
   99POPC   C4A 6714  26.893  38.088   7.477
   99POPC   C1B 6715  26.385  38.477   8.716
   99POPC   C2B 6716  26.488  38.494   8.263
   99POPC   C3B 6717  26.329  38.578   7.852
   99POPC   C4B 6718  26.607  38.571   7.478
  100POPC   NC3 6719  19.018  33.712   9.470
  100POPC   PO4 6720  19.424  34.277   9.474
  100POPC   GL1 6721  19.159  34.142   9.120
  100POPC   GL2 6722  19.033  33.830   8.982
  100POPC   C1A 6723  19.326  34.129   8.696
  100POPC   D2A 6724  19.237  33.794   8.408
  100POPC   C3A 6725  19.061  33.999   8.058
  100POPC   C4A 6726  19.176  34.263   7.737
  100POPC   C1B 6727  18.651  33.646   8.790
  100POPC   C2B 6728  18.758  33.533   8.325
  100POPC   C3B 6729  19.096  33.515   7.978
  100POPC   C4B 6730  19.066  33.754   7.573
  101POPC   NC3 6731  32.554   0.097   9.818
  101POPC   PO4 6732  31.974   0.480   9.563
  101POPC   GL1 6733  32.237   0.402   9.214
  101POPC   GL2 6734  32.150   0.035   9.232
  101POPC   C1A 6735  32.431   0.540   8.811
  101POPC   D2A 6736  32.457   0.323   8.421
  101POPC   C3A 6737  32.506   0.541   8.040
  101POPC   C4A 6738  32.366   0.441   7.644
  101POPC   C1B 6739  32.104   0.102   8.788
  101POPC   C2B 6740  31.954   0.139   8.377
  101POPC   C3B 6741  32.161   0.068   7.993
  101POPC   C4B 6742  32.007   0.103   7.576
  102POPC   NC3 6743   9.255   9.919   9.877
  102POPC   PO4 6744   9.849   9.989   9.622
  102POPC   GL1 6745   9.801   9.834   9.190
  102POPC   GL2 6746   9.930   9.529   9.072
  102POPC   C1A 6747   9.863   9.900   8.728
  102POPC   D2A 6748   9.674  10.070   8.349
  102POPC   C3A 6749   9.954   9.989   7.986
  102POPC   C4A 6750   9.975   9.848   7.527
  102POPC   C1B 6751  10.041   9.385   8.703
  102POPC   C2B 6752  10.026   9.598   8.324
  102POPC   C3B 6753   9.996   9.451   7.907
  102POPC   C4B 6754  10.288   9.179   7.668
  103POPC   NC3 6755   6.587  34.397   9.681
  103POPC   PO4 6756   6.958  34.778   9.346
  103POPC   GL1 6757   6.703  34.606   9.004
  103POPC   GL2 6758   6.378  34.694   8.820
  103POPC   C1A 6759   6.816  34.791   8.611
  103POPC   D2A 6760   6.786  34.572   8.265
  103POPC   C3A 6761   6.912  34.808   7.922
  103POPC   C4A 6762   6.983  34.648   7.557
  103POPC   C1B 6763   6.340  34.367   8.577
  103POPC   C2B 6764   6.235  34.330   8.162
  103POPC   C3B 6765   6.494  34.523   7.854
  103POPC   C4B 6766   6.500  34.730   7.458
  104POPC   NC3 6767  38.843  35.523   9.402
  104POPC   PO4 6768  39.303  35.128   9.725
  104POPC   GL1 6769  39.426  35.396   9.325
  104POPC   GL2 6770  39.556  35.752   9.396
  104POPC   C1A 6771  39.617  35.339   8.895
  104POPC   D2A 6772  39.661  35.295   8.402
  104POPC   C3A 6773  39.253  35.235   8.127
  104POPC   C4A 6774  38.996  35.250   7.732
  104POPC   C1B 6775  39.588  35.885   8.955
  104POPC   C2B 6776  39.449  35.715   8.592
  104POPC   C3B 6777  39.445  35.712   8.164
  104POPC   C4B 6778  39.398  35.580   7.761
  105POPC   NC3 6779   3.089  16.977   9.510
  105POPC   PO4 6780   2.684  16.458   9.329
  105POPC   GL1 6781   2.703  16.749   9.036
  105POPC   GL2 6782   3.059  16.758   9.043
  105POPC   C1A 6783   2.577  16.645   8.628
  105POPC   D2A 6784   2.792  16.465   8.290
  105POPC   C3A 6785   2.538  16.594   7.991
  105POPC   C4A 6786   2.385  16.712   7.635
  105POPC   C1B 6787   3.027  16.872   8.624
  105POPC   C2B 6788   2.940  16.959   8.191
  105POPC   C3B 6789   3.006  16.731   7.802
  105POPC   C4B 6790   3.186  16.622   7.403
  106POPC   NC3 6791  18.117  11.834   9.533
  106POPC   PO4 6792  18.566  12.257   9.355
  106POPC   GL1 6793  18.351  11.916   9.099
  106POPC   GL2 6794  17.969  11.942   9.064
  106POPC   C1A 6795  18.369  11.701   8.738
  106POPC   D2A 6796  18.538  11.910   8.424
  106POPC   C3A 6797  18.480  11.827   8.018
  106POPC   C4A 6798  18.758  11.878   7.685
  106POPC   C1B 6799  18.029  12.045   8.629
  106POPC   C2B 6800  18.131  12.160   8.231
  106POPC   C3B 6801  18.241  12.255   7.831
  106POPC   C4B 6802  17.900  12.140   7.601
  107POPC   NC3 6803   0.126   7.125   9.601
  107POPC   PO4 6804  44.566   7.421   9.523
  107POPC   GL1 6805  44.679   7.455   9.129
  107POPC   GL2 6806  44.863   7.164   9.151
  107POPC   C1A 6807  44.854   7.445   8.718
  107POPC   D2A 6808  44.853   7.656   8.352
  107POPC   C3A 6809  44.887   7.396   8.029
  107POPC   C4A 6810  44.585   7.424   7.749
  107POPC   C1B 6811  44.586   7.019   8.826
  107POPC   C2B 6812  44.699   7.055   8.390
  107POPC   C3B 6813  44.572   6.990   7.980
  107POPC   C4B 6814  44.178   7.124   7.794
  108POPC   NC3 6815  33.963  42.960   9.420
  108POPC   PO4 6816  33.535  42.691   9.117
  108POPC   GL1 6817  33.521  43.127   9.089
  108POPC   GL2 6818  33.797  43.376   9.158
  108POPC   C1A 6819  33.602  43.223   8.695
  108POPC   D2A 6820  33.813  43.037   8.368
  108POPC   C3A 6821  33.633  42.763   8.092
  108POPC   C4A 6822  33.686  42.639   7.687
  108POPC   C1B 6823  33.984  43.539   8.772
  108POPC   C2B 6824  33.795  43.574   8.369
  108POPC   C3B 6825  33.887  43.395   8.002
  108POPC   C4B 6826  34.003  43.049   7.776
  109POPC   NC3 6827  13.997  13.048   9.280
  109POPC   PO4 6828  13.444  12.956   9.766
  109POPC   GL1 6829  13.586  12.742   9.271
  109POPC   GL2 6830  13.907  12.562   9.169
  109POPC   C1A 6831  13.518  12.907   8.801
  109POPC   D2A 6832  13.456  13.179   8.422
  109POPC   C3A 6833  13.345  12.962   8.034
  109POPC   C4A 6834  13.482  13.015   7.635
  109POPC   C1B 6835  13.712  12.436   8.767
  109POPC   C2B 6836  13.585  12.647   8.368
  109POPC   C3B 6837  13.793  12.755   7.985
  109POPC   C4B 6838  13.640  12.529   7.663
  110POPC   NC3 6839  36.115  23.942   9.660
  110POPC   PO4 6840  35.954  23.439   9.280
  110POPC   GL1 6841  35.955  23.822   9.110
  110POPC   GL2 6842  36.287  23.987   9.173
  110POPC   C1A 6843  35.936  23.914   8.672
  110POPC   D2A 6844  36.051  23.902   8.233
  110POPC   C3A 6845  36.044  23.543   7.964
  110POPC   C4A 6846  35.883  23.554   7.558
  110POPC   C1B 6847  36.402  23.752   8.795
  110POPC   C2B 6848  36.545  23.895   8.365
  110POPC   C3B 6849  36.500  23.758   7.925
  110POPC   C4B 6850  36.524  23.850   7.455
  111POPC   NC3 6851  20.626  41.191   9.535
  111POPC   PO4 6852  20.261  41.670   9.853
  111POPC   GL1 6853  20.393  41.631   9.385
  111POPC   GL2 6854  20.738  41.627   9.238
  111POPC   C1A 6855  20.396  41.732   8.896
  111POPC   D2A 6856  20.634  41.771   8.534
  111POPC   C3A 6857  20.488  41.562   8.186
  111POPC   C4A 6858  20.595  41.701   7.786
  111POPC   C1B 6859  20.818  41.401   8.844
  111POPC   C2B 6860  20.854  41.244   8.424
  111POPC   C3B 6861  20.945  41.408   8.012
  111POPC   C4B 6862  20.818  41.293   7.598
  112POPC   NC3 6863   3.322  33.106   9.479
  112POPC   PO4 6864   3.788  32.624   9.583
  112POPC   GL1 6865   3.675  32.851   9.213
  112POPC   GL2 6866   3.801  33.181   9.294
  112POPC   C1A 6867   3.461  32.857   8.818
  112POPC   D2A 6868   3.198  33.078   8.517
  112POPC   C3A 6869   3.349  33.079   8.080
  112POPC   C4A 6870   3.165  32.826   7.753
  112POPC   C1B 6871   3.824  33.207   8.834
  112POPC   C2B 6872   3.718  33.278   8.386
  112POPC   C3B 6873   3.770  33.396   7.936
  112POPC   C4B 6874   4.009  33.291   7.537
  113POPC   NC3 6875  10.049  12.014   9.500
  113POPC   PO4 6876   9.429  11.790   9.479
  113POPC   GL1 6877   9.702  11.907   9.131
  113POPC   GL2 6878   9.720  12.270   9.107
  113POPC   C1A 6879   9.888  11.792   8.724
  113POPC   D2A 6880   9.742  11.614   8.305
  113POPC   C3A 6881   9.771  11.896   7.928
  113POPC   C4A 6882   9.880  12.128   7.561
  113POPC   C1B 6883   9.803  12.287   8.628
  113POPC   C2B 6884   9.842  12.343   8.162
  113POPC   C3B 6885   9.539  12.424   7.807
  113POPC   C4B 6886   9.515  12.444   7.336
  114POPC   NC3 6887  18.374  42.642   9.506
  114POPC   PO4 6888  17.811  42.217   9.566
  114POPC   GL1 6889  18.023  42.204   9.152
  114POPC   GL2 6890  18.409  42.239   9.146
  114POPC   C1A 6891  18.119  42.460   8.778
  114POPC   D2A 6892  18.306  42.476   8.356
  114POPC   C3A 6893  18.194  42.176   8.035
  114POPC   C4A 6894  18.217  42.217   7.589
  114POPC   C1B 6895  18.533  42.149   8.692
  114POPC   C2B 6896  18.664  42.140   8.245
  114POPC   C3B 6897  18.512  41.831   7.877
  114POPC   C4B 6898  18.569  41.917   7.391
  115POPC   NC3 6899  23.364  23.651   9.887
  115POPC   PO4 6900  23.928  23.867   9.498
  115POPC   GL1 6901  23.744  23.589   9.214
  115POPC   GL2 6902  23.390  23.622   9.284
  115POPC   C1A 6903  23.653  23.626   8.782
  115POPC   D2A 6904  23.511  23.893   8.460
  115POPC   C3A 6905  23.720  23.710   8.151
  115POPC   C4A 6906  23.861  23.748   7.743
  115POPC   C1B 6907  23.230  23.378   8.902
  115POPC   C2B 6908  23.397  23.270   8.487
  115POPC   C3B 6909  23.343  23.353   8.058
  115POPC   C4B 6910  23.543  23.360   7.635
  116POPC   NC3 6911   3.311  38.664   9.613
  116POPC   PO4 6912   3.825  38.251   9.700
  116POPC   GL1 6913   3.782  38.359   9.241
  116POPC   GL2 6914   3.420  38.370   9.182
  116POPC   C1A 6915   3.716  38.301   8.756
  116POPC   D2A 6916   3.632  38.529   8.339
  116POPC   C3A 6917   3.793  38.439   7.884
  116POPC   C4A 6918   3.941  38.303   7.455
  116POPC   C1B 6919   3.180  38.472   8.797
  116POPC   C2B 6920   3.135  38.653   8.372
  116POPC   C3B 6921   3.293  38.536   7.962
  116POPC   C4B 6922   3.360  38.450   7.565
  117POPC   NC3 6923  43.600  36.184   9.618
  117POPC   PO4 6924  43.788  35.586   9.442
  117POPC   GL1 6925  43.930  35.792   9.090
  117POPC   GL2 6926  43.757  36.103   9.131
  117POPC   C1A 6927  43.775  35.901   8.669
  117POPC   D2A 6928  43.621  35.816   8.214
  117POPC   C3A 6929  43.786  36.062   7.794
  117POPC   C4A 6930  43.678  36.026   7.291
  117POPC   C1B 6931  43.713  36.398   8.786
  117POPC   C2B 6932  43.665  36.310   8.350
  117POPC   C3B 6933  43.761  36.544   7.969
  117POPC   C4B 6934  44.173  36.508   7.740
  118POPC   NC3 6935   3.476  31.336   9.493
  118POPC   PO4 6936   4.147  31.567   9.561
  118POPC   GL1 6937   3.884  31.452   9.189
  118POPC   GL2 6938   3.774  31.725   9.085
  118POPC   C1A 6939   3.746  31.310   8.748
  118POPC   D2A 6940   3.977  31.139   8.381
  118POPC   C3A 6941   3.851  31.303   7.976
  118POPC   C4A 6942   3.477  31.428   7.764
  118POPC   C1B 6943   3.588  31.790   8.714
  118POPC   C2B 6944   3.532  31.675   8.302
  118POPC   C3B 6945   3.694  31.828   7.982
  118POPC   C4B 6946   3.592  31.906   7.605
  119POPC   NC3 6947   9.684  28.716   9.334
  119POPC   PO4 6948  10.014  29.233   9.684
  119POPC   GL1 6949   9.906  29.137   9.187
  119POPC   GL2 6950   9.986  28.786   8.943
  119POPC   C1A 6951   9.623  29.089   8.804
  119POPC   D2A 6952   9.705  28.797   8.448
  119POPC   C3A 6953   9.512  28.831   8.029
  119POPC   C4A 6954   9.647  29.017   7.592
  119POPC   C1B 6955  10.121  29.102   8.718
  119POPC   C2B 6956  10.200  29.115   8.348
  119POPC   C3B 6957   9.944  29.098   8.033
  119POPC   C4B 6958  10.120  29.194   7.641
  120POPC   NC3 6959   7.659  43.682   9.362
  120POPC   PO4 6960   7.255  44.166   9.485
  120POPC   GL1 6961   7.393  44.038   9.101
  120POPC   GL2 6962   7.761  44.065   9.048
  120POPC   C1A 6963   7.409  44.246   8.734
  120POPC   D2A 6964   7.215  44.126   8.390
  120POPC   C3A 6965   7.433  44.154   8.070
  120POPC   C4A 6966   7.560  43.849   7.807
  120POPC   C1B 6967   7.643  43.788   8.697
  120POPC   C2B 6968   7.786  43.823   8.292
  120POPC   C3B 6969   7.961  43.583   7.964
  120POPC   C4B 6970   7.819  43.509   7.536
  121POPC   NC3 6971   9.523   3.990   9.859
  121POPC   PO4 6972   9.747   4.518   9.500
  121POPC   GL1 6973   9.875   4.372   9.132
  121POPC   GL2 6974   9.984   4.724   9.081
  121POPC   C1A 6975   9.698   4.154   8.758
  121POPC   D2A 6976   9.486   4.318   8.424
  121POPC   C3A 6977   9.726   4.146   8.097
  121POPC   C4A 6978   9.700   3.925   7.737
  121POPC   C1B 6979   9.611   4.684   8.795
  121POPC   C2B 6980   9.481   4.840   8.371
  121POPC   C3B 6981   9.435   4.583   7.984
  121POPC   C4B 6982   9.775   4.495   7.712
  122POPC   NC3 6983  11.716   1.268   9.683
  122POPC   PO4 6984  11.141   0.903   9.807
  122POPC   GL1 6985  11.220   1.212   9.429
  122POPC   GL2 6986  11.515   1.151   9.237
  122POPC   C1A 6987  11.123   1.299   8.965
  122POPC   D2A 6988  10.931   1.108   8.629
  122POPC   C3A 6989  11.050   1.171   8.210
  122POPC   C4A 6990  11.150   1.180   7.769
  122POPC   C1B 6991  11.599   1.123   8.797
  122POPC   C2B 6992  11.609   0.955   8.396
  122POPC   C3B 6993  11.619   1.177   7.999
  122POPC   C4B 6994  11.615   1.074   7.559
  123POPC   NC3 6995  36.424  34.191   9.431
  123POPC   PO4 6996  36.901  34.575   9.261
  123POPC   GL1 6997  37.088  34.532   8.932
  123POPC   GL2 6998  36.810  34.374   8.752
  123POPC   C1A 6999  37.072  34.787   8.613
  123POPC   D2A 7000  36.989  34.544   8.271
  123POPC   C3A 7001  37.085  34.808   7.970
  123POPC   C4A 7002  37.034  34.822   7.542
  123POPC   C1B 7003  36.556  34.715   8.548
  123POPC   C2B 7004  36.546  34.781   8.074
  123POPC   C3B 7005  36.536  34.465   7.719
  123POPC   C4B 7006  36.668  34.189   7.346
  124POPC   NC3 7007  17.184  43.915   9.886
  124POPC   PO4 7008  17.724  43.582   9.633
  124POPC   GL1 7009  17.629  43.717   9.193
  124POPC   GL2 7010  17.318  43.832   9.257
  124POPC   C1A 7011  17.519  44.044   8.826
  124POPC   D2A 7012  17.260  44.068   8.435
  124POPC   C3A 7013  17.427  44.007   7.995
  124POPC   C4A 7014  17.681  44.315   7.747
  124POPC   C1B 7015  17.212  43.621   8.831
  124POPC   C2B 7016  16.991  43.609   8.391
  124POPC   C3B 7017  17.040  43.631   7.904
  124POPC   C4B 7018  17.134  43.713   7.443
  125POPC   NC3 7019  43.368  32.123   9.606
  125POPC   PO4 7020  42.804  32.604   9.499
  125POPC   GL1 7021  42.936  32.537   9.120
  125POPC   GL2 7022  43.257  32.359   9.173
  125POPC   C1A 7023  43.034  32.401   8.729
  125POPC   D2A 7024  42.920  32.130   8.430
  125POPC   C3A 7025  43.058  32.291   8.075
  125POPC   C4A 7026  42.828  32.294   7.705
  125POPC   C1B 7027  43.477  32.077   8.890
  125POPC   C2B 7028  43.533  32.051   8.440
  125POPC   C3B 7029  43.555  32.153   7.992
  125POPC   C4B 7030  43.331  32.360   7.635
  126POPC   NC3 7031  26.521  25.248   9.593
  126POPC   PO4 7032  27.151  25.161   9.385
  126POPC   GL1 7033  26.755  25.250   9.142
  126POPC   GL2 7034  26.495  24.994   9.115
  126POPC   C1A 7035  26.757  25.212   8.713
  126POPC   D2A 7036  26.951  25.157   8.337
  126POPC   C3A 7037  26.817  25.482   8.083
  126POPC   C4A 7038  27.026  25.527   7.702
  126POPC   C1B 7039  26.350  24.927   8.658
  126POPC   C2B 7040  26.480  25.022   8.213
  126POPC   C3B 7041  26.746  25.030   7.838
  126POPC   C4B 7042  26.604  24.850   7.439
  127POPC   NC3 7043  12.289  22.697   9.449
  127POPC   PO4 7044  12.104  23.177   9.882
  127POPC   GL1 7045  11.934  23.042   9.379
  127POPC   GL2 7046  12.087  23.232   9.095
  127POPC   C1A 7047  11.913  22.790   8.922
  127POPC   D2A 7048  11.866  22.633   8.470
  127POPC   C3A 7049  11.857  22.959   8.141
  127POPC   C4A 7050  11.779  23.116   7.707
  127POPC   C1B 7051  12.343  23.000   8.742
  127POPC   C2B 7052  12.373  22.745   8.363
  127POPC   C3B 7053  12.344  22.908   7.943
  127POPC   C4B 7054  12.523  23.288   7.814
  128POPC   NC3 7055  21.516  12.178   9.568
  128POPC   PO4 7056  21.036  12.668   9.529
  128POPC   GL1 7057  21.074  12.415   9.127
  128POPC   GL2 7058  21.276  12.095   9.124
  128POPC   C1A 7059  21.225  12.337   8.690
  128POPC   D2A 7060  21.254  12.043   8.374
  128POPC   C3A 7061  21.083  12.175   8.002
  128POPC   C4A 7062  21.246  12.223   7.615
  128POPC   C1B 7063  21.590  11.946   8.814
  128POPC   C2B 7064  21.683  11.783   8.396
  128POPC   C3B 7065  21.612  11.914   7.976
  128POPC   C4B 7066  21.550  11.735   7.557
  129POPC   NC3 7067   4.363  20.762   9.535
  129POPC   PO4 7068   3.980  20.287   9.446
  129POPC   GL1 7069   4.106  20.586   9.144
  129POPC   GL2 7070   4.458  20.630   9.070
  129POPC   C1A 7071   4.102  20.741   8.725
  129POPC   D2A 7072   4.174  20.566   8.327
  129POPC   C3A 7073   3.948  20.681   7.961
  129POPC   C4A 7074   4.126  20.972   7.650
  129POPC   C1B 7075   4.560  20.543   8.672
  129POPC   C2B 7076   4.667  20.595   8.258
  129POPC   C3B 7077   4.456  20.651   7.898
  129POPC   C4B 7078   4.611  20.714   7.503
  130POPC   NC3 7079  17.082  40.972   9.504
  130POPC   PO4 7080  16.521  40.533   9.469
  130POPC   GL1 7081  16.762  40.649   9.119
  130POPC   GL2 7082  16.783  41.006   9.070
  130POPC   C1A 7083  16.589  40.732   8.703
  130POPC   D2A 7084  16.526  40.827   8.295
  130POPC   C3A 7085  16.631  40.518   8.037
  130POPC   C4A 7086  16.657  40.621   7.638
  130POPC   C1B 7087  17.117  40.885   8.800
  130POPC   C2B 7088  17.047  40.698   8.406
  130POPC   C3B 7089  17.003  40.876   8.017
  130POPC   C4B 7090  17.083  40.911   7.585
  131POPC   NC3 7091  36.622  35.953   9.289
  131POPC   PO4 7092  37.073  36.441   9.371
  131POPC   GL1 7093  37.149  36.115   9.069
  131POPC   GL2 7094  37.162  35.755   9.182
  131POPC   C1A 7095  36.902  36.195   8.703
  131POPC   D2A 7096  36.956  36.491   8.372
  131POPC   C3A 7097  36.903  36.302   8.000
  131POPC   C4A 7098  37.241  36.021   7.926
  131POPC   C1B 7099  37.026  35.679   8.763
  131POPC   C2B 7100  37.020  35.828   8.357
  131POPC   C3B 7101  36.794  35.773   8.015
  131POPC   C4B 7102  36.618  35.684   7.644
  132POPC   NC3 7103  37.345  24.896   9.529
  132POPC   PO4 7104  36.951  25.548   9.527
  132POPC   GL1 7105  36.991  25.258   9.148
  132POPC   GL2 7106  36.718  25.047   9.033
  132POPC   C1A 7107  37.068  25.206   8.687
  132POPC   D2A 7108  37.201  25.407   8.313
  132POPC   C3A 7109  36.963  25.466   7.918
  132POPC   C4A 7110  37.041  25.223   7.535
  132POPC   C1B 7111  36.562  25.113   8.643
  132POPC   C2B 7112  36.743  25.097   8.240
  132POPC   C3B 7113  36.560  25.126   7.843
  132POPC   C4B 7114  36.553  25.346   7.462
  133POPC   NC3 7115  40.358  19.572   9.499
  133POPC   PO4 7116  39.654  19.876   9.572
  133POPC   GL1 7117  39.940  19.799   9.245
  133POPC   GL2 7118  39.643  19.789   9.072
  133POPC   C1A 7119  40.145  19.743   8.836
  133POPC   D2A 7120  40.203  19.488   8.462
  133POPC   C3A 7121  40.203  19.626   8.013
  133POPC   C4A 7122  40.197  19.969   7.688
  133POPC   C1B 7123  39.574  19.860   8.676
  133POPC   C2B 7124  39.794  19.765   8.364
  133POPC   C3B 7125  39.803  19.934   8.017
  133POPC   C4B 7126  39.719  19.819   7.661
  134POPC   NC3 7127  40.115  21.497   9.436
  134POPC   PO4 7128  40.020  20.788   9.495
  134POPC   GL1 7129  39.987  21.064   9.192
  134POPC   GL2 7130  40.309  21.082   9.043
  134POPC   C1A 7131  39.861  21.178   8.803
  134POPC   D2A 7132  39.744  21.295   8.413
  134POPC   C3A 7133  40.084  21.241   8.108
  134POPC   C4A 7134  40.113  21.034   7.681
  134POPC   C1B 7135  40.271  21.461   8.793
  134POPC   C2B 7136  40.203  21.773   8.487
  134POPC   C3B 7137  40.294  21.743   8.062
  134POPC   C4B 7138  40.114  21.546   7.707
  135POPC   NC3 7139  10.462   5.360   9.214
  135POPC   PO4 7140  10.683   4.857   9.597
  135POPC   GL1 7141  10.502   4.854   9.170
  135POPC   GL2 7142  10.800   4.976   9.094
  135POPC   C1A 7143  10.455   4.983   8.714
  135POPC   D2A 7144  10.714   5.231   8.396
  135POPC   C3A 7145  10.580   5.232   7.976
  135POPC   C4A 7146  10.358   5.504   7.736
  135POPC   C1B 7147  10.872   4.721   8.719
  135POPC   C2B 7148  10.669   4.716   8.314
  135POPC   C3B 7149  10.824   4.769   7.915
  135POPC   C4B 7150  10.664   4.661   7.544
  136POPC   NC3 7151  20.570  33.485   9.851
  136POPC   PO4 7152  20.333  33.968   9.379
  136POPC   GL1 7153  20.612  34.034   9.089
  136POPC   GL2 7154  20.885  33.877   9.244
  136POPC   C1A 7155  20.470  33.940   8.688
  136POPC   D2A 7156  20.197  33.832   8.355
  136POPC   C3A 7157  20.369  33.636   8.005
  136POPC   C4A 7158  20.450  33.858   7.609
  136POPC   C1B 7159  20.924  33.725   8.818
  136POPC   C2B 7160  20.895  33.931   8.385
  136POPC   C3B 7161  20.840  33.821   7.973
  136POPC   C4B 7162  20.944  33.752   7.564
  137POPC   NC3 7163  20.936  35.380   9.472
  137POPC   PO4 7164  20.163  35.521   9.415
  137POPC   GL1 7165  20.387  35.397   9.041
  137POPC   GL2 7166  20.714  35.426   9.034
  137POPC   C1A 7167  20.452  35.155   8.689
  137POPC   D2A 7168  20.690  35.128   8.344
  137POPC   C3A 7169  20.520  35.230   7.959
  137POPC   C4A 7170  20.703  35.155   7.559
  137POPC   C1B 7171  20.951  35.484   8.648
  137POPC   C2B 7172  20.999  35.530   8.253
  137POPC   C3B 7173  20.963  35.471   7.879
  137POPC   C4B 7174  20.869  35.657   7.533
  138POPC   NC3 7175  19.676  43.143   9.578
  138POPC   PO4 7176  20.255  42.940   9.565
  138POPC   GL1 7177  19.997  42.982   9.178
  138POPC   GL2 7178  19.778  43.286   9.121
  138POPC   C1A 7179  20.015  42.974   8.720
  138POPC   D2A 7180  19.999  42.956   8.263
  138POPC   C3A 7181  20.246  42.940   7.890
  138POPC   C4A 7182  20.060  42.997   7.506
  138POPC   C1B 7183  19.725  43.447   8.718
  138POPC   C2B 7184  19.761  43.553   8.278
  138POPC   C3B 7185  19.756  43.283   7.911
  138POPC   C4B 7186  19.665  43.342   7.480
  139POPC   NC3 7187   4.270  22.388   9.604
  139POPC   PO4 7188   4.562  21.789   9.481
  139POPC   GL1 7189   4.453  22.094   9.166
  139POPC   GL2 7190   4.096  22.220   9.142
  139POPC   C1A 7191   4.348  21.962   8.752
  139POPC   D2A 7192   4.410  22.156   8.364
  139POPC   C3A 7193   4.275  21.981   7.998
  139POPC   C4A 7194   4.346  21.993   7.568
  139POPC   C1B 7195   4.250  22.460   8.752
  139POPC   C2B 7196   4.141  22.676   8.371
  139POPC   C3B 7197   3.870  22.596   8.004
  139POPC   C4B 7198   3.914  22.227   7.721
  140POPC   NC3 7199   3.282  34.695   9.417
  140POPC   PO4 7200   3.891  34.382   9.458
  140POPC   GL1 7201   3.614  34.217   9.129
  140POPC   GL2 7202   3.255  34.090   9.105
  140POPC   C1A 7203   3.412  34.453   8.766
  140POPC   D2A 7204   3.253  34.584   8.348
  140POPC   C3A 7205   3.594  34.728   8.059
  140POPC   C4A 7206   3.907  34.527   7.769
  140POPC   C1B 7207   3.243  33.999   8.626
  140POPC   C2B 7208   3.311  34.096   8.179
  140POPC   C3B 7209   3.401  34.341   7.796
  140POPC   C4B 7210   3.317  34.199   7.346
  141POPC   NC3 7211  25.795   4.051   9.479
  141POPC   PO4 7212  25.340   4.543   9.473
  141POPC   GL1 7213  25.671   4.437   9.174
  141POPC   GL2 7214  25.715   4.742   9.030
  141POPC   C1A 7215  25.815   4.130   8.831
  141POPC   D2A 7216  25.729   4.152   8.375
  141POPC   C3A 7217  25.491   4.088   7.951
  141POPC   C4A 7218  25.681   4.201   7.542
  141POPC   C1B 7219  25.473   4.477   8.698
  141POPC   C2B 7220  25.391   4.494   8.253
  141POPC   C3B 7221  25.084   4.409   7.954
  141POPC   C4B 7222  24.874   4.643   7.632
  142POPC   NC3 7223  35.919   6.373   9.664
  142POPC   PO4 7224  35.960   6.985   9.388
  142POPC   GL1 7225  35.972   6.668   9.117
  142POPC   GL2 7226  35.672   6.530   9.196
  142POPC   C1A 7227  36.115   6.671   8.696
  142POPC   D2A 7228  36.261   6.631   8.250
  142POPC   C3A 7229  36.087   6.885   7.905
  142POPC   C4A 7230  36.145   6.951   7.430
  142POPC   C1B 7231  35.658   6.367   8.761
  142POPC   C2B 7232  35.914   6.289   8.398
  142POPC   C3B 7233  36.013   6.228   7.989
  142POPC   C4B 7234  35.792   6.257   7.594
  143POPC   NC3 7235  36.658  33.083   9.377
  143POPC   PO4 7236  37.280  33.337   9.472
  143POPC   GL1 7237  37.097  33.113   9.083
  143POPC   GL2 7238  36.792  32.847   8.965
  143POPC   C1A 7239  37.016  33.140   8.639
  143POPC   D2A 7240  36.720  33.317   8.367
  143POPC   C3A 7241  36.756  33.066   8.019
  143POPC   C4A 7242  36.935  33.126   7.628
  143POPC   C1B 7243  37.196  32.681   8.807
  143POPC   C2B 7244  37.300  32.618   8.390
  143POPC   C3B 7245  37.042  32.626   8.013
  143POPC   C4B 7246  37.130  32.649   7.587
  144POPC   NC3 7247  12.073  11.570   9.701
  144POPC   PO4 7248  11.741  11.093   9.623
  144POPC   GL1 7249  11.815  11.419   9.270
  144POPC   GL2 7250  12.195  11.540   9.130
  144POPC   C1A 7251  11.810  11.328   8.835
  144POPC   D2A 7252  11.779  11.087   8.457
  144POPC   C3A 7253  12.131  11.130   8.212
  144POPC   C4A 7254  12.126  11.242   7.794
  144POPC   C1B 7255  12.218  11.660   8.644
  144POPC   C2B 7256  12.336  11.599   8.155
  144POPC   C3B 7257  12.377  11.661   7.682
  144POPC   C4B 7258  12.412  11.608   7.212
  145POPC   NC3 7259   6.592  35.483   9.326
  145POPC   PO4 7260   6.322  34.904   9.557
  145POPC   GL1 7261   6.479  35.047   9.144
  145POPC   GL2 7262   6.813  35.140   9.004
  145POPC   C1A 7263   6.416  35.177   8.683
  145POPC   D2A 7264   6.576  35.071   8.237
  145POPC   C3A 7265   6.632  35.428   7.924
  145POPC   C4A 7266   6.458  35.572   7.524
  145POPC   C1B 7267   6.852  35.468   8.618
  145POPC   C2B 7268   7.014  35.662   8.178
  145POPC   C3B 7269   7.104  35.494   7.727
  145POPC   C4B 7270   6.833  35.164   7.509
  146POPC   NC3 7271   7.033  40.740   9.380
  146POPC   PO4 7272   6.416  41.042   9.482
  146POPC   GL1 7273   6.641  40.954   9.120
  146POPC   GL2 7274   6.577  40.607   9.152
  146POPC   C1A 7275   6.511  40.795   8.699
  146POPC   D2A 7276   6.574  40.441   8.417
  146POPC   C3A 7277   6.542  40.565   7.995
  146POPC   C4A 7278   6.674  40.887   7.735
  146POPC   C1B 7279   6.905  40.470   8.821
  146POPC   C2B 7280   7.121  40.415   8.436
  146POPC   C3B 7281   7.045  40.451   8.005
  146POPC   C4B 7282   6.938  40.513   7.553
  147POPC   NC3 7283  27.421   7.127   9.460
  147POPC   PO4 7284  27.938   7.582   9.471
  147POPC   GL1 7285  27.557   7.530   9.184
  147POPC   GL2 7286  27.285   7.759   9.192
  147POPC   C1A 7287  27.301   7.358   8.806
  147POPC   D2A 7288  27.506   7.191   8.417
  147POPC   C3A 7289  27.411   7.271   7.975
  147POPC   C4A 7290  27.702   7.167   7.621
  147POPC   C1B 7291  27.497   7.839   8.796
  147POPC   C2B 7292  27.394   7.696   8.414
  147POPC   C3B 7293  27.378   7.812   8.034
  147POPC   C4B 7294  27.604   7.661   7.720
  148POPC   NC3 7295  39.146  18.514   9.597
  148POPC   PO4 7296  39.492  17.978   9.375
  148POPC   GL1 7297  39.162  18.238   9.142
  148POPC   GL2 7298  38.986  18.621   9.134
  148POPC   C1A 7299  39.178  18.031   8.753
  148POPC   D2A 7300  38.998  17.797   8.425
  148POPC   C3A 7301  39.067  17.999   7.998
  148POPC   C4A 7302  39.297  18.066   7.621
  148POPC   C1B 7303  38.866  18.423   8.743
  148POPC   C2B 7304  39.099  18.342   8.357
  148POPC   C3B 7305  39.197  18.554   7.947
  148POPC   C4B 7306  39.220  18.641   7.481
  149POPC   NC3 7307  36.797  11.724   9.539
  149POPC   PO4 7308  37.112  11.096   9.482
  149POPC   GL1 7309  37.112  11.387   9.169
  149POPC   GL2 7310  36.762  11.372   9.167
  149POPC   C1A 7311  36.981  11.477   8.735
  149POPC   D2A 7312  37.021  11.274   8.364
  149POPC   C3A 7313  36.933  11.507   8.007
  149POPC   C4A 7314  37.199  11.390   7.697
  149POPC   C1B 7315  36.775  11.031   8.849
  149POPC   C2B 7316  36.579  11.018   8.436
  149POPC   C3B 7317  36.673  11.084   8.016
  149POPC   C4B 7318  36.685  11.260   7.585
  150POPC   NC3 7319  33.007  40.769   9.568
  150POPC   PO4 7320  32.483  41.116   9.390
  150POPC   GL1 7321  32.796  40.816   9.101
  150POPC   GL2 7322  33.178  40.820   9.086
  150POPC   C1A 7323  32.950  40.515   8.736
  150POPC   D2A 7324  32.931  40.662   8.284
  150POPC   C3A 7325  33.081  40.446   7.895
  150POPC   C4A 7326  32.909  40.354   7.491
  150POPC   C1B 7327  33.049  41.017   8.689
  150POPC   C2B 7328  33.187  41.108   8.281
  150POPC   C3B 7329  33.084  40.953   7.881
  150POPC   C4B 7330  33.281  40.752   7.499
  151POPC   NC3 7331  19.197   5.608   9.447
  151POPC   PO4 7332  18.855   5.015   9.652
  151POPC   GL1 7333  18.930   5.164   9.242
  151POPC   GL2 7334  19.273   5.121   9.212
  151POPC   C1A 7335  19.000   5.125   8.780
  151POPC   D2A 7336  18.961   5.219   8.329
  151POPC   C3A 7337  19.259   4.986   8.019
  151POPC   C4A 7338  19.273   4.922   7.536
  151POPC   C1B 7339  19.477   5.324   8.834
  151POPC   C2B 7340  19.449   5.329   8.398
  151POPC   C3B 7341  19.250   5.512   8.038
  151POPC   C4B 7342  19.287   5.674   7.626
  152POPC   NC3 7343  39.671  22.378   9.412
  152POPC   PO4 7344  40.179  21.977   9.493
  152POPC   GL1 7345  40.093  22.156   9.131
  152POPC   GL2 7346  40.002  21.838   9.002
  152POPC   C1A 7347  39.978  22.270   8.707
  152POPC   D2A 7348  39.892  22.171   8.276
  152POPC   C3A 7349  40.178  22.210   7.916
  152POPC   C4A 7350  40.466  21.937   7.618
  152POPC   C1B 7351  39.721  21.813   8.654
  152POPC   C2B 7352  39.592  21.758   8.249
  152POPC   C3B 7353  39.727  21.857   7.850
  152POPC   C4B 7354  39.700  21.661   7.414
  153POPC   NC3 7355   2.965  35.431   9.491
  153POPC   PO4 7356   2.340  35.268   9.523
  153POPC   GL1 7357   2.621  35.120   9.199
  153POPC   GL2 7358   2.717  35.439   9.040
  153POPC   C1A 7359   2.828  34.981   8.823
  153POPC   D2A 7360   2.779  35.231   8.446
  153POPC   C3A 7361   2.752  35.053   8.039
  153POPC   C4A 7362   2.766  35.323   7.690
  153POPC   C1B 7363   2.887  35.734   8.742
  153POPC   C2B 7364   3.080  35.671   8.360
  153POPC   C3B 7365   2.922  35.782   7.954
  153POPC   C4B 7366   2.816  35.822   7.524
  154POPC   NC3 7367  22.215  19.127   9.544
  154POPC   PO4 7368  21.734  18.630   9.651
  154POPC   GL1 7369  21.932  18.825   9.216
  154POPC   GL2 7370  22.166  19.137   9.058
  154POPC   C1A 7371  22.024  18.759   8.772
  154POPC   D2A 7372  22.352  18.957   8.553
  154POPC   C3A 7373  22.429  19.001   8.112
  154POPC   C4A 7374  22.735  19.262   7.874
  154POPC   C1B 7375  21.857  19.224   8.742
  154POPC   C2B 7376  21.840  19.002   8.332
  154POPC   C3B 7377  21.972  19.127   7.925
  154POPC   C4B 7378  21.973  19.422   7.609
  155POPC   NC3 7379  41.649   1.656   9.550
  155POPC   PO4 7380  42.113   2.050   9.464
  155POPC   GL1 7381  41.698   2.037   9.180
  155POPC   GL2 7382  41.523   1.746   9.062
  155POPC   C1A 7383  41.530   2.082   8.706
  155POPC   D2A 7384  41.835   2.021   8.369
  155POPC   C3A 7385  41.668   2.015   7.974
  155POPC   C4A 7386  41.279   1.942   7.793
  155POPC   C1B 7387  41.689   1.600   8.667
  155POPC   C2B 7388  41.532   1.582   8.229
  155POPC   C3B 7389  41.758   1.526   7.835
  155POPC   C4B 7390  41.695   1.482   7.406
  156POPC   NC3 7391  20.859  27.142   9.534
  156POPC   PO4 7392  20.573  26.471   9.605
  156POPC   GL1 7393  20.629  26.656   9.205
  156POPC   GL2 7394  20.650  26.964   9.117
  156POPC   C1A 7395  20.470  26.563   8.792
  156POPC   D2A 7396  20.671  26.473   8.411
  156POPC   C3A 7397  20.557  26.667   8.048
  156POPC   C4A 7398  20.629  27.051   7.843
  156POPC   C1B 7399  20.470  27.104   8.762
  156POPC   C2B 7400  20.540  27.109   8.351
  156POPC   C3B 7401  20.395  27.433   8.094
  156POPC   C4B 7402  20.268  27.403   7.726
  157POPC   NC3 7403  34.342   3.265   9.454
  157POPC   PO4 7404  34.336   2.570   9.486
  157POPC   GL1 7405  34.640   2.676   9.180
  157POPC   GL2 7406  34.667   3.014   9.136
  157POPC   C1A 7407  34.759   2.607   8.764
  157POPC   D2A 7408  34.738   2.410   8.383
  157POPC   C3A 7409  34.835   2.646   7.995
  157POPC   C4A 7410  34.617   2.650   7.620
  157POPC   C1B 7411  34.430   2.974   8.726
  157POPC   C2B 7412  34.502   2.863   8.327
  157POPC   C3B 7413  34.520   3.059   7.936
  157POPC   C4B 7414  34.334   3.105   7.521
  158POPC   NC3 7415  14.683  18.310   9.593
  158POPC   PO4 7416  15.264  18.657   9.510
  158POPC   GL1 7417  15.054  18.368   9.220
  158POPC   GL2 7418  14.749  18.450   9.091
  158POPC   C1A 7419  15.148  18.105   8.864
  158POPC   D2A 7420  15.444  17.983   8.518
  158POPC   C3A 7421  15.244  17.939   8.112
  158POPC   C4A 7422  15.199  18.079   7.696
  158POPC   C1B 7423  14.810  18.613   8.690
  158POPC   C2B 7424  15.061  18.345   8.408
  158POPC   C3B 7425  15.229  18.454   8.008
  158POPC   C4B 7426  14.879  18.502   7.689
  159POPC   NC3 7427   3.122  18.244   9.378
  159POPC   PO4 7428   2.599  18.166   9.719
  159POPC   GL1 7429   2.642  18.359   9.271
  159POPC   GL2 7430   2.890  18.647   9.177
  159POPC   C1A 7431   2.767  18.212   8.819
  159POPC   D2A 7432   2.774  18.317   8.358
  159POPC   C3A 7433   2.854  18.048   7.990
  159POPC   C4A 7434   2.758  18.017   7.552
  159POPC   C1B 7435   2.995  18.676   8.715
  159POPC   C2B 7436   3.203  18.587   8.306
  159POPC   C3B 7437   2.989  18.584   7.915
  159POPC   C4B 7438   2.989  18.491   7.505
  160POPC   NC3 7439  41.211  41.467   9.658
  160POPC   PO4 7440  40.594  41.583   9.682
  160POPC   GL1 7441  40.819  41.716   9.282
  160POPC   GL2 7442  41.132  41.869   9.188
  160POPC   C1A 7443  40.761  41.743   8.815
  160POPC   D2A 7444  40.561  41.580   8.425
  160POPC   C3A 7445  40.683  41.525   7.952
  160POPC   C4A 7446  40.709  41.805   7.556
  160POPC   C1B 7447  41.270  41.839   8.743
  160POPC   C2B 7448  41.073  41.670   8.371
  160POPC   C3B 7449  41.098  41.808   7.937
  160POPC   C4B 7450  41.096  41.464   7.593
  161POPC   NC3 7451  43.690   1.261   9.552
  161POPC   PO4 7452  44.288   0.900   9.452
  161POPC   GL1 7453  43.878   0.958   9.182
  161POPC   GL2 7454  43.528   0.935   9.162
  161POPC   C1A 7455  43.846   1.176   8.765
  161POPC   D2A 7456  44.102   1.351   8.444
  161POPC   C3A 7457  43.893   1.338   8.091
  161POPC   C4A 7458  43.970   1.108   7.808
  161POPC   C1B 7459  43.363   0.965   8.771
  161POPC   C2B 7460  43.489   1.111   8.369
  161POPC   C3B 7461  43.479   1.054   7.932
  161POPC   C4B 7462  43.597   1.236   7.502
  162POPC   NC3 7463   6.854   6.943   9.430
  162POPC   PO4 7464   6.376   6.489   9.639
  162POPC   GL1 7465   6.518   6.595   9.247
  162POPC   GL2 7466   6.380   6.905   9.224
  162POPC   C1A 7467   6.709   6.694   8.846
  162POPC   D2A 7468   6.924   6.593   8.482
  162POPC   C3A 7469   6.771   6.763   8.104
  162POPC   C4A 7470   6.780   6.671   7.650
  162POPC   C1B 7471   6.208   6.939   8.813
  162POPC   C2B 7472   6.351   7.029   8.368
  162POPC   C3B 7473   6.322   6.921   7.914
  162POPC   C4B 7474   6.290   6.808   7.487
  163POPC   NC3 7475  23.881   8.010   9.453
  163POPC   PO4 7476  23.447   8.506   9.412
  163POPC   GL1 7477  23.669   8.325   9.088
  163POPC   GL2 7478  23.466   8.020   9.112
  163POPC   C1A 7479  23.644   8.295   8.641
  163POPC   D2A 7480  23.512   8.438   8.274
  163POPC   C3A 7481  23.644   8.273   7.906
  163POPC   C4A 7482  24.019   8.452   7.664
  163POPC   C1B 7483  23.773   7.868   8.848
  163POPC   C2B 7484  23.798   7.802   8.443
  163POPC   C3B 7485  23.945   7.909   8.081
  163POPC   C4B 7486  23.960   7.952   7.659
  164POPC   NC3 7487  26.653   1.343   9.943
  164POPC   PO4 7488  27.063   1.054   9.686
  164POPC   GL1 7489  27.089   1.133   9.208
  164POPC   GL2 7490  27.239   0.848   9.045
  164POPC   C1A 7491  27.021   1.202   8.727
  164POPC   D2A 7492  26.927   1.044   8.287
  164POPC   C3A 7493  26.733   1.239   7.913
  164POPC   C4A 7494  26.831   1.496   7.558
  164POPC   C1B 7495  27.196   0.705   8.599
  164POPC   C2B 7496  27.330   0.767   8.159
  164POPC   C3B 7497  27.011   0.762   7.837
  164POPC   C4B 7498  26.909   1.003   7.472
  165POPC   NC3 7499  20.007   5.628   9.476
  165POPC   PO4 7500  20.248   6.246   9.464
  165POPC   GL1 7501  20.045   6.044   9.140
  165POPC   GL2 7502  19.703   6.022   9.273
  165POPC   C1A 7503  20.077   5.791   8.757
  165POPC   D2A 7504  19.929   5.522   8.418
  165POPC   C3A 7505  19.732   5.660   8.076
  165POPC   C4A 7506  19.975   5.654   7.754
  165POPC   C1B 7507  19.622   5.989   8.826
  165POPC   C2B 7508  19.827   6.092   8.386
  165POPC   C3B 7509  19.783   6.150   7.919
  165POPC   C4B 7510  19.879   6.397   7.542
  166POPC   NC3 7511  36.407   6.902   9.341
  166POPC   PO4 7512  36.376   6.370   9.635
  166POPC   GL1 7513  36.418   6.401   9.145
  166POPC   GL2 7514  36.701   6.602   9.043
  166POPC   C1A 7515  36.477   6.316   8.647
  166POPC   D2A 7516  36.481   6.168   8.182
  166POPC   C3A 7517  36.706   6.348   7.812
  166POPC   C4A 7518  37.090   6.452   7.555
  166POPC   C1B 7519  36.648   6.793   8.626
  166POPC   C2B 7520  36.779   6.618   8.233
  166POPC   C3B 7521  36.886   6.832   7.832
  166POPC   C4B 7522  37.039   6.983   7.411
  167POPC   NC3 7523   8.065  43.209   9.561
  167POPC   PO4 7524   8.457  42.754   9.703
  167POPC   GL1 7525   8.257  42.863   9.268
  167POPC   GL2 7526   8.493  43.178   9.281
  167POPC   C1A 7527   7.992  43.054   8.908
  167POPC   D2A 7528   8.010  43.320   8.513
  167POPC   C3A 7529   8.007  43.094   8.090
  167POPC   C4A 7530   7.900  42.952   7.642
  167POPC   C1B 7531   8.370  43.374   8.902
  167POPC   C2B 7532   8.514  43.293   8.482
  167POPC   C3B 7533   8.454  43.333   8.044
  167POPC   C4B 7534   8.387  43.091   7.676
  168POPC   NC3 7535  12.801   1.052   9.461
  168POPC   PO4 7536  12.437   1.530   9.291
  168POPC   GL1 7537  12.678   1.243   9.009
  168POPC   GL2 7538  12.910   0.892   9.013
  168POPC   C1A 7539  12.501   1.187   8.630
  168POPC   D2A 7540  12.667   1.050   8.282
  168POPC   C3A 7541  12.723   1.319   8.006
  168POPC   C4A 7542  12.509   1.339   7.635
  168POPC   C1B 7543  13.062   1.126   8.698
  168POPC   C2B 7544  13.215   1.041   8.341
  168POPC   C3B 7545  13.055   0.895   7.977
  168POPC   C4B 7546  12.739   0.904   7.714
  169POPC   NC3 7547  22.388  27.806   9.509
  169POPC   PO4 7548  22.136  27.189   9.495
  169POPC   GL1 7549  22.198  27.470   9.108
  169POPC   GL2 7550  22.374  27.837   9.013
  169POPC   C1A 7551  22.325  27.457   8.683
  169POPC   D2A 7552  22.247  27.737   8.356
  169POPC   C3A 7553  22.144  27.543   7.971
  169POPC   C4A 7554  22.271  27.198   7.826
  169POPC   C1B 7555  21.963  27.827   8.816
  169POPC   C2B 7556  21.757  27.958   8.453
  169POPC   C3B 7557  21.922  27.991   8.041
  169POPC   C4B 7558  21.903  27.914   7.613
  170POPC   NC3 7559  33.383  33.093   9.618
  170POPC   PO4 7560  33.985  33.355   9.559
  170POPC   GL1 7561  33.865  33.072   9.211
  170POPC   GL2 7562  34.069  32.759   9.181
  170POPC   C1A 7563  33.787  32.956   8.772
  170POPC   D2A 7564  33.856  33.178   8.388
  170POPC   C3A 7565  33.765  32.962   8.038
  170POPC   C4A 7566  33.371  32.929   7.771
  170POPC   C1B 7567  34.263  32.818   8.769
  170POPC   C2B 7568  34.128  32.756   8.353
  170POPC   C3B 7569  34.244  32.679   7.940
  170POPC   C4B 7570  34.111  32.928   7.588
  171POPC   NC3 7571   0.270   6.304   9.447
  171POPC   PO4 7572   0.544   5.742   9.605
  171POPC   GL1 7573   0.569   5.752   9.171
  171POPC   GL2 7574   0.409   6.006   9.036
  171POPC   C1A 7575   0.733   5.672   8.739
  171POPC   D2A 7576   0.665   5.401   8.368
  171POPC   C3A 7577   0.400   5.639   8.060
  171POPC   C4A 7578   0.383   5.968   7.752
  171POPC   C1B 7579   0.275   6.241   8.698
  171POPC   C2B 7580   0.270   6.239   8.245
  171POPC   C3B 7581  44.944   6.159   7.939
  171POPC   C4B 7582   0.001   6.165   7.446
  172POPC   NC3 7583  39.576  17.478   9.356
  172POPC   PO4 7584  40.255  17.524   9.527
  172POPC   GL1 7585  40.039  17.321   9.176
  172POPC   GL2 7586  39.943  17.633   9.055
  172POPC   C1A 7587  39.830  17.228   8.751
  172POPC   D2A 7588  39.851  17.529   8.381
  172POPC   C3A 7589  39.740  17.334   7.973
  172POPC   C4A 7590  40.092  17.143   7.728
  172POPC   C1B 7591  39.721  17.897   8.751
  172POPC   C2B 7592  39.505  17.929   8.340
  172POPC   C3B 7593  39.691  17.881   7.932
  172POPC   C4B 7594  40.067  17.687   7.766
  173POPC   NC3 7595   5.707  33.669   9.644
  173POPC   PO4 7596   6.225  34.123   9.528
  173POPC   GL1 7597   5.959  34.032   9.170
  173POPC   GL2 7598   5.635  33.971   9.232
  173POPC   C1A 7599   5.976  34.033   8.723
  173POPC   D2A 7600   6.234  33.870   8.416
  173POPC   C3A 7601   6.002  33.857   8.047
  173POPC   C4A 7602   6.070  33.652   7.665
  173POPC   C1B 7603   5.549  33.767   8.842
  173POPC   C2B 7604   5.455  33.878   8.427
  173POPC   C3B 7605   5.507  33.661   8.034
  173POPC   C4B 7606   5.587  33.861   7.662
  174POPC   NC3 7607  28.744  32.323   9.497
  174POPC   PO4 7608  28.087  32.105   9.579
  174POPC   GL1 7609  28.372  32.104   9.235
  174POPC   GL2 7610  28.260  32.416   9.124
  174POPC   C1A 7611  28.660  32.284   8.870
  174POPC   D2A 7612  28.478  32.464   8.484
  174POPC   C3A 7613  28.605  32.346   8.080
  174POPC   C4A 7614  28.373  32.153   7.758
  174POPC   C1B 7615  28.197  32.123   8.767
  174POPC   C2B 7616  27.864  32.006   8.541
  174POPC   C3B 7617  27.981  32.060   8.133
  174POPC   C4B 7618  27.868  32.115   7.716
  175POPC   NC3 7619  18.505  41.080   9.211
  175POPC   PO4 7620  19.099  40.755   9.394
  175POPC   GL1 7621  18.834  40.466   9.093
  175POPC   GL2 7622  18.543  40.624   9.013
  175POPC   C1A 7623  18.836  40.329   8.628
  175POPC   D2A 7624  18.843  40.441   8.155
  175POPC   C3A 7625  19.159  40.593   7.858
  175POPC   C4A 7626  19.320  41.004   7.752
  175POPC   C1B 7627  18.512  40.807   8.611
  175POPC   C2B 7628  18.431  40.769   8.185
  175POPC   C3B 7629  18.650  40.849   7.796
  175POPC   C4B 7630  18.450  40.949   7.403
  176POPC   NC3 7631  40.340  44.453   9.550
  176POPC   PO4 7632  39.669  44.705   9.568
  176POPC   GL1 7633  39.887  44.545   9.217
  176POPC   GL2 7634  40.049  44.836   9.104
  176POPC   C1A 7635  39.620  44.463   8.861
  176POPC   D2A 7636  39.580  44.544   8.451
  176POPC   C3A 7637  39.885  44.559   8.167
  176POPC   C4A 7638  39.768  44.311   7.817
  176POPC   C1B 7639  40.045  44.681   8.682
  176POPC   C2B 7640  40.226  44.915   8.346
  176POPC   C3B 7641  40.392  44.768   8.002
  176POPC   C4B 7642  40.076  44.719   7.688
  177POPC   NC3 7643  11.663   5.388   9.311
  177POPC   PO4 7644  11.484   6.000   9.509
  177POPC   GL1 7645  11.279   5.770   9.153
  177POPC   GL2 7646  10.977   5.518   9.176
  177POPC   C1A 7647  11.252   5.918   8.728
  177POPC   D2A 7648  11.535   6.155   8.475
  177POPC   C3A 7649  11.570   6.075   7.996
  177POPC   C4A 7650  11.444   5.742   7.682
  177POPC   C1B 7651  10.832   5.625   8.737
  177POPC   C2B 7652  10.969   5.740   8.297
  177POPC   C3B 7653  10.939   5.645   7.823
  177POPC   C4B 7654  10.999   5.658   7.366
  178POPC   NC3 7655  42.650  38.637   9.369
  178POPC   PO4 7656  42.194  39.076   9.553
  178POPC   GL1 7657  42.475  39.101   9.214
  178POPC   GL2 7658  42.363  39.413   9.082
  178POPC   C1A 7659  42.472  38.939   8.801
  178POPC   D2A 7660  42.263  39.000   8.431
  178POPC   C3A 7661  42.471  39.102   8.070
  178POPC   C4A 7662  42.462  38.957   7.676
  178POPC   C1B 7663  42.455  39.437   8.647
  178POPC   C2B 7664  42.234  39.515   8.251
  178POPC   C3B 7665  42.225  39.461   7.792
  178POPC   C4B 7666  42.438  39.370   7.371
  179POPC   NC3 7667  27.658  10.691   9.618
  179POPC   PO4 7668  27.122  10.372   9.536
  179POPC   GL1 7669  27.431  10.492   9.190
  179POPC   GL2 7670  27.783  10.387   9.210
  179POPC   C1A 7671  27.627  10.623   8.792
  179POPC   D2A 7672  27.723  10.418   8.448
  179POPC   C3A 7673  27.562  10.559   8.082
  179POPC   C4A 7674  27.464  10.513   7.672
  179POPC   C1B 7675  27.926  10.186   8.858
  179POPC   C2B 7676  27.798   9.908   8.512
  179POPC   C3B 7677  27.879  10.064   8.104
  179POPC   C4B 7678  27.868  10.219   7.705
  180POPC   NC3 7679  32.941  18.065   9.557
  180POPC   PO4 7680  33.451  17.525   9.593
  180POPC   GL1 7681  33.161  17.533   9.234
  180POPC   GL2 7682  32.862  17.702   9.195
  180POPC   C1A 7683  33.103  17.438   8.773
  180POPC   D2A 7684  33.040  17.265   8.327
  180POPC   C3A 7685  33.214  17.405   7.933
  180POPC   C4A 7686  33.047  17.593   7.556
  180POPC   C1B 7687  32.632  17.652   8.787
  180POPC   C2B 7688  32.560  17.456   8.352
  180POPC   C3B 7689  32.682  17.408   7.892
  180POPC   C4B 7690  32.439  17.475   7.487
  181POPC   NC3 7691  22.746  24.359   9.545
  181POPC   PO4 7692  23.284  24.735   9.390
  181POPC   GL1 7693  23.052  24.392   9.109
  181POPC   GL2 7694  22.673  24.268   9.058
  181POPC   C1A 7695  22.980  24.327   8.652
  181POPC   D2A 7696  23.183  24.472   8.313
  181POPC   C3A 7697  23.338  24.298   7.958
  181POPC   C4A 7698  23.250  24.589   7.650
  181POPC   C1B 7699  22.582  24.005   8.693
  181POPC   C2B 7700  22.626  24.126   8.253
  181POPC   C3B 7701  22.806  24.427   7.941
  181POPC   C4B 7702  22.736  24.609   7.531
  182POPC   NC3 7703  43.543  13.768   9.457
  182POPC   PO4 7704  44.021  13.273   9.417
  182POPC   GL1 7705  43.790  13.392   9.061
  182POPC   GL2 7706  43.550  13.665   8.971
  182POPC   C1A 7707  43.788  13.325   8.632
  182POPC   D2A 7708  44.134  13.506   8.380
  182POPC   C3A 7709  44.033  13.588   7.979
  182POPC   C4A 7710  43.712  13.723   7.685
  182POPC   C1B 7711  43.927  13.806   8.761
  182POPC   C2B 7712  43.885  13.961   8.339
  182POPC   C3B 7713  43.981  14.119   7.938
  182POPC   C4B 7714  44.200  13.924   7.647
  183POPC   NC3 7715  30.002   7.839   9.312
  183POPC   PO4 7716  29.580   8.288   9.602
  183POPC   GL1 7717  29.775   8.290   9.146
  183POPC   GL2 7718  30.142   8.342   9.140
  183POPC   C1A 7719  29.887   8.046   8.712
  183POPC   D2A 7720  29.920   7.931   8.250
  183POPC   C3A 7721  30.126   8.074   7.854
  183POPC   C4A 7722  29.948   8.146   7.409
  183POPC   C1B 7723  30.049   8.509   8.740
  183POPC   C2B 7724  29.832   8.427   8.373
  183POPC   C3B 7725  29.727   8.383   7.952
  183POPC   C4B 7726  29.992   8.584   7.674
  184POPC   NC3 7727  13.933  18.346   9.730
  184POPC   PO4 7728  13.375  18.059   9.567
  184POPC   GL1 7729  13.616  18.330   9.226
  184POPC   GL2 7730  13.701  18.042   8.976
  184POPC   C1A 7731  13.733  18.496   8.774
  184POPC   D2A 7732  13.856  18.240   8.444
  184POPC   C3A 7733  13.681  18.271   8.023
  184POPC   C4A 7734  13.720  18.601   7.702
  184POPC   C1B 7735  13.459  17.820   8.700
  184POPC   C2B 7736  13.211  17.720   8.374
  184POPC   C3B 7737  13.381  17.626   8.027
  184POPC   C4B 7738  13.607  17.853   7.730
  185POPC   NC3 7739  44.780  10.405   9.782
  185POPC   PO4 7740  44.246  10.730   9.469
  185POPC   GL1 7741  44.677  10.634   9.309
  185POPC   GL2 7742  44.643  10.287   9.291
  185POPC   C1A 7743  44.771  10.667   8.846
  185POPC   D2A 7744  44.554  10.422   8.522
  185POPC   C3A 7745  44.633  10.468   8.069
  185POPC   C4A 7746  44.577  10.655   7.659
  185POPC   C1B 7747  44.969  10.232   8.975
  185POPC   C2B 7748   0.037  10.234   8.493
  185POPC   C3B 7749  44.964  10.086   8.028
  185POPC   C4B 7750  44.672  10.156   7.650
  186POPC   NC3 7751  16.055   9.043   9.559
  186POPC   PO4 7752  15.417   8.855   9.503
  186POPC   GL1 7753  15.783   8.902   9.140
  186POPC   GL2 7754  16.154   8.783   9.154
  186POPC   C1A 7755  16.014   8.947   8.700
  186POPC   D2A 7756  15.882   8.801   8.292
  186POPC   C3A 7757  15.932   9.088   7.923
  186POPC   C4A 7758  15.615   9.244   7.628
  186POPC   C1B 7759  16.312   8.537   8.848
  186POPC   C2B 7760  16.397   8.620   8.433
  186POPC   C3B 7761  16.299   8.739   8.027
  186POPC   C4B 7762  16.277   8.840   7.611
  187POPC   NC3 7763  41.641  42.402   9.641
  187POPC   PO4 7764  42.362  42.391   9.531
  187POPC   GL1 7765  42.307  42.436   9.140
  187POPC   GL2 7766  42.343  42.134   9.024
  187POPC   C1A 7767  42.435  42.590   8.780
  187POPC   D2A 7768  42.452  42.376   8.397
  187POPC   C3A 7769  42.157  42.530   8.082
  187POPC   C4A 7770  42.326  42.442   7.653
  187POPC   C1B 7771  42.125  42.074   8.681
  187POPC   C2B 7772  42.001  42.108   8.299
  187POPC   C3B 7773  42.280  42.039   7.960
  187POPC   C4B 7774  42.028  42.028   7.583
  188POPC   NC3 7775  17.945   6.964   9.456
  188POPC   PO4 7776  18.582   6.665   9.434
  188POPC   GL1 7777  18.229   6.566   9.163
  188POPC   GL2 7778  18.240   6.903   9.056
  188POPC   C1A 7779  17.981   6.590   8.752
  188POPC   D2A 7780  18.196   6.753   8.365
  188POPC   C3A 7781  18.273   6.587   7.920
  188POPC   C4A 7782  18.389   6.559   7.455
  188POPC   C1B 7783  18.520   6.683   8.760
  188POPC   C2B 7784  18.791   6.800   8.451
  188POPC   C3B 7785  18.687   6.840   8.030
  188POPC   C4B 7786  18.640   6.965   7.615
  189POPC   NC3 7787  35.354  14.569   9.432
  189POPC   PO4 7788  35.194  13.978   9.516
  189POPC   GL1 7789  35.301  14.008   9.077
  189POPC   GL2 7790  35.590  14.178   9.077
  189POPC   C1A 7791  35.278  14.332   8.717
  189POPC   D2A 7792  35.303  14.575   8.322
  189POPC   C3A 7793  35.234  14.268   7.981
  189POPC   C4A 7794  35.064  14.343   7.527
  189POPC   C1B 7795  35.783  14.407   8.769
  189POPC   C2B 7796  35.692  14.262   8.379
  189POPC   C3B 7797  35.726  14.444   7.999
  189POPC   C4B 7798  35.571  14.280   7.609
  190POPC   NC3 7799   0.770   4.103   9.395
  190POPC   PO4 7800   1.197   4.602   9.534
  190POPC   GL1 7801   1.267   4.371   9.185
  190POPC   GL2 7802   1.287   4.019   9.292
  190POPC   C1A 7803   1.374   4.271   8.777
  190POPC   D2A 7804   1.158   4.027   8.480
  190POPC   C3A 7805   1.239   4.173   8.083
  190POPC   C4A 7806   1.271   4.332   7.681
  190POPC   C1B 7807   1.430   3.791   8.938
  190POPC   C2B 7808   1.520   3.655   8.529
  190POPC   C3B 7809   1.537   3.755   8.113
  190POPC   C4B 7810   1.607   3.966   7.732
  191POPC   NC3 7811  25.331  16.221   9.646
  191POPC   PO4 7812  24.701  16.181   9.576
  191POPC   GL1 7813  25.042  16.170   9.225
  191POPC   GL2 7814  25.221  15.828   9.191
  191POPC   C1A 7815  25.172  16.140   8.776
  191POPC   D2A 7816  24.973  16.060   8.374
  191POPC   C3A 7817  25.179  15.940   7.983
  191POPC   C4A 7818  25.068  15.846   7.557
  191POPC   C1B 7819  25.435  15.668   8.841
  191POPC   C2B 7820  25.428  15.802   8.435
  191POPC   C3B 7821  25.683  15.774   8.081
  191POPC   C4B 7822  25.568  15.736   7.663
  192POPC   NC3 7823  13.382  15.894   9.831
  192POPC   PO4 7824  13.824  16.227   9.420
  192POPC   GL1 7825  13.726  15.927   9.110
  192POPC   GL2 7826  13.910  15.600   9.134
  192POPC   C1A 7827  13.520  16.034   8.704
  192POPC   D2A 7828  13.404  16.047   8.273
  192POPC   C3A 7829  13.555  16.241   7.931
  192POPC   C4A 7830  13.783  16.101   7.615
  192POPC   C1B 7831  13.926  15.702   8.686
  192POPC   C2B 7832  13.901  15.799   8.247
  192POPC   C3B 7833  14.014  15.716   7.821
  192POPC   C4B 7834  13.783  15.611   7.428
  193POPC   NC3 7835   1.913  15.877   9.570
  193POPC   PO4 7836   2.327  15.569   9.268
  193POPC   GL1 7837   2.067  15.764   9.014
  193POPC   GL2 7838   1.733  15.717   9.077
  193POPC   C1A 7839   2.066  15.825   8.593
  193POPC   D2A 7840   1.822  15.677   8.280
  193POPC   C3A 7841   2.051  15.818   7.935
  193POPC   C4A 7842   2.037  15.763   7.510
  193POPC   C1B 7843   1.723  16.117   8.817
  193POPC   C2B 7844   1.799  16.196   8.347
  193POPC   C3B 7845   1.632  16.087   7.955
  193POPC   C4B 7846   1.713  16.149   7.543
  194POPC   NC3 7847  32.733  44.338   9.752
  194POPC   PO4 7848  32.968   0.020   9.603
  194POPC   GL1 7849  33.000  44.698   9.359
  194POPC   GL2 7850  33.324  44.859   9.213
  194POPC   C1A 7851  32.977  44.594   8.941
  194POPC   D2A 7852  32.940  44.799   8.538
  194POPC   C3A 7853  33.014  44.577   8.160
  194POPC   C4A 7854  32.907  44.744   7.753
  194POPC   C1B 7855  33.350   0.026   8.782
  194POPC   C2B 7856  33.419  44.885   8.326
  194POPC   C3B 7857  33.326   0.052   7.903
  194POPC   C4B 7858  33.365  44.935   7.436
  195POPC   NC3 7859  39.578  15.475   9.342
  195POPC   PO4 7860  39.035  15.022   9.409
  195POPC   GL1 7861  39.148  15.221   9.054
  195POPC   GL2 7862  38.900  15.495   9.078
  195POPC   C1A 7863  39.486  15.220   8.729
  195POPC   D2A 7864  39.583  15.412   8.327
  195POPC   C3A 7865  39.396  15.146   8.019
  195POPC   C4A 7866  39.236  15.185   7.625
  195POPC   C1B 7867  39.072  15.528   8.642
  195POPC   C2B 7868  38.979  15.435   8.206
  195POPC   C3B 7869  39.114  15.626   7.841
  195POPC   C4B 7870  39.115  15.635   7.396
  196POPC   NC3 7871  24.833  39.028   9.894
  196POPC   PO4 7872  25.582  39.097   9.736
  196POPC   GL1 7873  25.357  39.066   9.319
  196POPC   GL2 7874  25.173  39.376   9.338
  196POPC   C1A 7875  25.135  39.179   8.881
  196POPC   D2A 7876  25.018  39.374   8.474
  196POPC   C3A 7877  25.083  39.139   8.094
  196POPC   C4A 7878  24.961  39.121   7.646
  196POPC   C1B 7879  25.552  39.442   9.039
  196POPC   C2B 7880  25.518  39.436   8.593
  196POPC   C3B 7881  25.488  39.444   8.152
  196POPC   C4B 7882  25.439  39.540   7.722
  197POPC   NC3 7883   9.337  37.436   9.389
  197POPC   PO4 7884   9.998  37.564   9.551
  197POPC   GL1 7885   9.931  37.581   9.123
  197POPC   GL2 7886   9.598  37.718   9.021
  197POPC   C1A 7887  10.013  37.699   8.705
  197POPC   D2A 7888   9.903  37.538   8.318
  197POPC   C3A 7889   9.956  37.727   7.952
  197POPC   C4A 7890  10.064  37.432   7.621
  197POPC   C1B 7891   9.652  38.069   8.710
  197POPC   C2B 7892   9.593  37.963   8.271
  197POPC   C3B 7893   9.472  37.620   8.055
  197POPC   C4B 7894   9.534  37.539   7.647
  198POPC   NC3 7895  17.445   8.384   9.498
  198POPC   PO4 7896  17.305   7.774   9.350
  198POPC   GL1 7897  17.571   7.985   9.031
  198POPC   GL2 7898  17.623   8.332   9.024
  198POPC   C1A 7899  17.694   7.975   8.615
  198POPC   D2A 7900  17.583   7.731   8.245
  198POPC   C3A 7901  17.435   8.072   7.979
  198POPC   C4A 7902  17.221   7.988   7.580
  198POPC   C1B 7903  17.882   8.503   8.701
  198POPC   C2B 7904  17.742   8.603   8.276
  198POPC   C3B 7905  17.823   8.495   7.827
  198POPC   C4B 7906  17.906   8.319   7.377
  199POPC   NC3 7907  22.467  35.955   9.695
  199POPC   PO4 7908  23.045  36.322   9.579
  199POPC   GL1 7909  23.003  36.137   9.222
  199POPC   GL2 7910  22.775  36.348   9.088
  199POPC   C1A 7911  23.143  36.147   8.807
  199POPC   D2A 7912  22.833  36.158   8.473
  199POPC   C3A 7913  22.938  36.096   8.064
  199POPC   C4A 7914  22.640  36.066   7.732
  199POPC   C1B 7915  22.883  36.600   8.716
  199POPC   C2B 7916  22.902  36.625   8.254
  199POPC   C3B 7917  22.602  36.536   7.929
  199POPC   C4B 7918  22.647  36.461   7.441
  200POPC   NC3 7919   8.730   5.417   9.384
  200POPC   PO4 7920   9.377   5.422   9.422
  200POPC   GL1 7921   9.150   5.326   9.081
  200POPC   GL2 7922   8.975   5.003   9.170
  200POPC   C1A 7923   8.851   5.347   8.756
  200POPC   D2A 7924   8.569   5.333   8.433
  200POPC   C3A 7925   8.717   5.359   8.002
  200POPC   C4A 7926   9.114   5.348   7.774
  200POPC   C1B 7927   9.130   4.912   8.750
  200POPC   C2B 7928   9.022   5.080   8.330
  200POPC   C3B 7929   9.002   4.881   7.913
  200POPC   C4B 7930   8.770   4.825   7.496
  201POPC   NC3 7931  22.384  26.528   9.385
  201POPC   PO4 7932  21.848  26.580   9.749
  201POPC   GL1 7933  21.900  26.708   9.323
  201POPC   GL2 7934  21.772  26.989   9.177
  201POPC   C1A 7935  21.935  26.556   8.882
  201POPC   D2A 7936  21.815  26.688   8.476
  201POPC   C3A 7937  22.102  26.617   8.141
  201POPC   C4A 7938  22.124  26.741   7.719
  201POPC   C1B 7939  21.999  27.077   8.792
  201POPC   C2B 7940  22.139  27.088   8.347
  201POPC   C3B 7941  21.811  27.043   8.026
  201POPC   C4B 7942  21.788  27.204   7.612
  202POPC   NC3 7943  15.334  41.976   9.708
  202POPC   PO4 7944  15.223  42.643   9.670
  202POPC   GL1 7945  15.349  42.464   9.270
  202POPC   GL2 7946  15.391  42.094   9.221
  202POPC   C1A 7947  15.170  42.468   8.858
  202POPC   D2A 7948  15.283  42.594   8.449
  202POPC   C3A 7949  14.997  42.615   8.107
  202POPC   C4A 7950  15.048  42.417   7.708
  202POPC   C1B 7951  15.352  41.979   8.818
  202POPC   C2B 7952  15.434  42.089   8.410
  202POPC   C3B 7953  15.249  42.020   8.001
  202POPC   C4B 7954  15.435  42.085   7.616
  203POPC   NC3 7955  44.729   8.636   9.447
  203POPC   PO4 7956  44.362   9.115   9.783
  203POPC   GL1 7957  44.372   8.994   9.323
  203POPC   GL2 7958  44.417   9.294   9.126
  203POPC   C1A 7959  44.503   8.830   8.876
  203POPC   D2A 7960  44.704   9.027   8.508
  203POPC   C3A 7961  44.778   8.820   8.115
  203POPC   C4A 7962  44.572   8.739   7.728
  203POPC   C1B 7963  44.590   9.480   8.749
  203POPC   C2B 7964  44.469   9.445   8.299
  203POPC   C3B 7965  44.487   9.226   7.883
  203POPC   C4B 7966  44.293   9.081   7.468
  204POPC   NC3 7967   1.258   9.573   9.442
  204POPC   PO4 7968   0.848  10.163   9.412
  204POPC   GL1 7969   0.994   9.827   9.085
  204POPC   GL2 7970   0.957   9.393   9.070
  204POPC   C1A 7971   1.235   9.931   8.697
  204POPC   D2A 7972   0.996   9.946   8.281
  204POPC   C3A 7973   1.238   9.935   7.868
  204POPC   C4A 7974   1.317   9.839   7.405
  204POPC   C1B 7975   0.956   9.519   8.679
  204POPC   C2B 7976   1.075   9.387   8.281
  204POPC   C3B 7977   0.895   9.562   7.927
  204POPC   C4B 7978   0.940   9.497   7.489
  205POPC   NC3 7979  11.896  37.233   9.603
  205POPC   PO4 7980  11.789  36.670   9.426
  205POPC   GL1 7981  11.951  37.006   9.145
  205POPC   GL2 7982  12.272  37.141   9.192
  205POPC   C1A 7983  12.024  37.084   8.725
  205POPC   D2A 7984  11.747  36.981   8.399
  205POPC   C3A 7985  11.813  37.127   8.020
  205POPC   C4A 7986  11.625  36.934   7.657
  205POPC   C1B 7987  12.438  37.385   8.813
  205POPC   C2B 7988  12.596  37.453   8.371
  205POPC   C3B 7989  12.654  37.265   7.935
  205POPC   C4B 7990  12.550  37.041   7.514
  206POPC   NC3 7991   3.997  31.989   9.482
  206POPC   PO4 7992   4.589  32.429   9.596
  206POPC   GL1 7993   4.579  32.223   9.222
  206POPC   GL2 7994   4.272  32.324   9.149
  206POPC   C1A 7995   4.613  32.165   8.793
  206POPC   D2A 7996   4.350  32.285   8.466
  206POPC   C3A 7997   4.560  32.232   8.102
  206POPC   C4A 7998   4.383  32.124   7.710
  206POPC   C1B 7999   4.021  32.109   8.818
  206POPC   C2B 8000   3.870  32.122   8.402
  206POPC   C3B 8001   4.006  32.320   8.042
  206POPC   C4B 8002   3.909  32.294   7.628
  207POPC   NC3 8003  34.263  36.819   9.832
  207POPC   PO4 8004  34.802  36.580   9.629
  207POPC   GL1 8005  34.683  36.742   9.192
  207POPC   GL2 8006  34.457  37.036   9.205
  207POPC   C1A 8007  34.614  36.616   8.735
  207POPC   D2A 8008  34.433  36.637   8.305
  207POPC   C3A 8009  34.586  36.777   7.906
  207POPC   C4A 8010  34.662  36.528   7.535
  207POPC   C1B 8011  34.335  37.032   8.736
  207POPC   C2B 8012  34.476  37.140   8.281
  207POPC   C3B 8013  34.301  37.182   7.841
  207POPC   C4B 8014  34.387  37.332   7.398
  208POPC   NC3 8015  37.523  21.580   9.506
  208POPC   PO4 8016  37.990  21.040   9.664
  208POPC   GL1 8017  37.837  21.232   9.290
  208POPC   GL2 8018  38.017  21.574   9.279
  208POPC   C1A 8019  37.677  21.232   8.854
  208POPC   D2A 8020  37.666  21.493   8.486
  208POPC   C3A 8021  37.584  21.302   8.110
  208POPC   C4A 8022  37.364  21.475   7.786
  208POPC   C1B 8023  38.143  21.437   8.870
  208POPC   C2B 8024  38.094  21.168   8.481
  208POPC   C3B 8025  38.062  21.105   8.027
  208POPC   C4B 8026  37.935  21.450   7.759
  209POPC   NC3 8027  25.426  27.458   9.648
  209POPC   PO4 8028  25.332  28.097   9.366
  209POPC   GL1 8029  25.136  27.795   9.129
  209POPC   GL2 8030  25.187  27.417   9.189
  209POPC   C1A 8031  25.124  27.902   8.693
  209POPC   D2A 8032  25.327  27.767   8.324
  209POPC   C3A 8033  25.206  27.868   7.919
  209POPC   C4A 8034  25.394  27.877   7.565
  209POPC   C1B 8035  25.301  27.401   8.756
  209POPC   C2B 8036  25.135  27.294   8.351
  209POPC   C3B 8037  25.071  27.345   7.910
  209POPC   C4B 8038  25.176  27.445   7.472
  210POPC   NC3 8039  24.899  28.117   9.519
  210POPC   PO4 8040  25.484  28.618   9.485
  210POPC   GL1 8041  25.407  28.492   9.038
  210POPC   GL2 8042  25.055  28.324   9.022
  210POPC   C1A 8043  25.260  28.484   8.589
  210POPC   D2A 8044  25.193  28.283   8.197
  210POPC   C3A 8045  25.452  28.326   7.783
  210POPC   C4A 8046  25.406  28.300   7.286
  210POPC   C1B 8047  24.734  28.445   8.749
  210POPC   C2B 8048  24.774  28.602   8.352
  210POPC   C3B 8049  25.006  28.730   8.020
  210POPC   C4B 8050  25.161  28.722   7.653
  211POPC   NC3 8051  34.915  17.607   9.432
  211POPC   PO4 8052  34.396  17.198   9.617
  211POPC   GL1 8053  34.488  17.405   9.217
  211POPC   GL2 8054  34.511  17.779   9.163
  211POPC   C1A 8055  34.593  17.464   8.771
  211POPC   D2A 8056  34.399  17.552   8.381
  211POPC   C3A 8057  34.567  17.330   8.039
  211POPC   C4A 8058  34.564  17.324   7.600
  211POPC   C1B 8059  34.764  17.939   8.798
  211POPC   C2B 8060  34.821  17.835   8.331
  211POPC   C3B 8061  34.934  18.006   7.918
  211POPC   C4B 8062  34.892  17.715   7.527
  212POPC   NC3 8063  22.250  10.933   9.498
  212POPC   PO4 8064  21.833  10.385   9.523
  212POPC   GL1 8065  22.068  10.483   9.141
  212POPC   GL2 8066  22.430  10.447   9.172
  212POPC   C1A 8067  22.204  10.572   8.688
  212POPC   D2A 8068  22.098  10.842   8.282
  212POPC   C3A 8069  22.033  10.610   7.872
  212POPC   C4A 8070  21.856  10.248   7.544
  212POPC   C1B 8071  22.616  10.135   8.855
  212POPC   C2B 8072  22.540   9.955   8.426
  212POPC   C3B 8073  22.509  10.212   8.078
  212POPC   C4B 8074  22.396  10.329   7.683
  213POPC   NC3 8075  32.344  20.306   9.512
  213POPC   PO4 8076  32.294  21.000   9.580
  213POPC   GL1 8077  32.172  20.723   9.219
  213POPC   GL2 8078  32.490  20.573   9.097
  213POPC   C1A 8079  32.047  20.531   8.803
  213POPC   D2A 8080  32.146  20.302   8.363
  213POPC   C3A 8081  32.033  20.488   7.958
  213POPC   C4A 8082  32.023  20.664   7.533
  213POPC   C1B 8083  32.453  20.843   8.734
  213POPC   C2B 8084  32.159  20.835   8.413
  213POPC   C3B 8085  32.217  20.953   8.018
  213POPC   C4B 8086  32.464  20.761   7.746
  214POPC   NC3 8087  12.157  20.414   9.624
  214POPC   PO4 8088  11.561  20.649   9.493
  214POPC   GL1 8089  11.891  20.671   9.175
  214POPC   GL2 8090  12.107  20.404   9.126
  214POPC   C1A 8091  11.857  20.678   8.729
  214POPC   D2A 8092  12.030  20.850   8.368
  214POPC   C3A 8093  11.996  20.736   7.938
  214POPC   C4A 8094  12.186  20.995   7.585
  214POPC   C1B 8095  12.254  20.319   8.735
  214POPC   C2B 8096  12.074  20.340   8.327
  214POPC   C3B 8097  12.119  20.233   7.906
  214POPC   C4B 8098  12.488  20.249   7.669
  215POPC   NC3 8099  24.666  11.360   9.414
  215POPC   PO4 8100  24.284  10.780   9.613
  215POPC   GL1 8101  24.353  10.987   9.213
  215POPC   GL2 8102  24.666  10.893   9.103
  215POPC   C1A 8103  24.298  10.999   8.756
  215POPC   D2A 8104  24.193  11.089   8.311
  215POPC   C3A 8105  24.263  11.531   8.198
  215POPC   C4A 8106  24.432  11.708   7.825
  215POPC   C1B 8107  24.780  11.182   8.786
  215POPC   C2B 8108  24.732  11.383   8.403
  215POPC   C3B 8109  24.876  11.496   8.014
  215POPC   C4B 8110  25.029  11.166   7.745
  216POPC   NC3 8111   9.723  27.775   9.633
  216POPC   PO4 8112  10.137  27.270   9.513
  216POPC   GL1 8113   9.958  27.493   9.197
  216POPC   GL2 8114  10.120  27.796   9.262
  216POPC   C1A 8115   9.608  27.525   8.880
  216POPC   D2A 8116   9.576  27.787   8.503
  216POPC   C3A 8117   9.655  27.698   8.076
  216POPC   C4A 8118   9.724  27.997   7.703
  216POPC   C1B 8119  10.005  27.818   8.809
  216POPC   C2B 8120  10.128  27.720   8.386
  216POPC   C3B 8121  10.131  27.791   7.956
  216POPC   C4B 8122   9.917  27.540   7.623
  217POPC   NC3 8123  12.446   6.725   9.518
  217POPC   PO4 8124  13.060   6.398   9.235
  217POPC   GL1 8125  12.853   6.797   9.190
  217POPC   GL2 8126  13.146   6.970   9.281
  217POPC   C1A 8127  12.575   6.877   8.850
  217POPC   D2A 8128  12.543   6.605   8.541
  217POPC   C3A 8129  12.696   6.722   8.143
  217POPC   C4A 8130  12.730   6.419   7.850
  217POPC   C1B 8131  13.333   6.852   8.870
  217POPC   C2B 8132  13.081   6.752   8.520
  217POPC   C3B 8133  13.218   6.705   8.117
  217POPC   C4B 8134  13.264   6.430   7.825
  218POPC   NC3 8135   3.699  37.819   9.614
  218POPC   PO4 8136   3.350  37.332   9.524
  218POPC   GL1 8137   3.686  37.464   9.231
  218POPC   GL2 8138   3.725  37.850   9.110
  218POPC   C1A 8139   3.789  37.459   8.802
  218POPC   D2A 8140   3.645  37.711   8.456
  218POPC   C3A 8141   3.775  37.532   8.099
  218POPC   C4A 8142   3.552  37.544   7.748
  218POPC   C1B 8143   3.365  37.938   8.839
  218POPC   C2B 8144   3.303  38.118   8.404
  218POPC   C3B 8145   3.507  38.038   7.983
  218POPC   C4B 8146   3.538  37.997   7.508
  219POPC   NC3 8147  37.484  44.647   9.388
  219POPC   PO4 8148  38.129  44.467   9.444
  219POPC   GL1 8149  37.910  44.567   9.113
  219POPC   GL2 8150  37.967  44.858   9.116
  219POPC   C1A 8151  37.668  44.617   8.738
  219POPC   D2A 8152  37.796  44.508   8.334
  219POPC   C3A 8153  37.632  44.646   7.981
  219POPC   C4A 8154  37.655  44.576   7.556
  219POPC   C1B 8155  38.108  44.969   8.791
  219POPC   C2B 8156  37.868   0.022   8.442
  219POPC   C3B 8157  38.037  44.915   8.078
  219POPC   C4B 8158  38.010  44.908   7.669
  220POPC   NC3 8159  15.863   2.921   9.498
  220POPC   PO4 8160  15.558   2.286   9.385
  220POPC   GL1 8161  15.772   2.630   9.088
  220POPC   GL2 8162  16.061   2.920   9.035
  220POPC   C1A 8163  15.654   2.913   8.738
  220POPC   D2A 8164  15.625   2.602   8.426
  220POPC   C3A 8165  15.633   2.639   7.989
  220POPC   C4A 8166  15.768   2.571   7.555
  220POPC   C1B 8167  16.104   2.682   8.670
  220POPC   C2B 8168  16.022   2.876   8.253
  220POPC   C3B 8169  16.149   2.707   7.859
  220POPC   C4B 8170  16.128   2.875   7.417
  221POPC   NC3 8171  31.578   1.594   9.543
  221POPC   PO4 8172  31.033   2.005   9.581
  221POPC   GL1 8173  31.396   2.095   9.256
  221POPC   GL2 8174  31.602   2.428   9.274
  221POPC   C1A 8175  31.432   1.978   8.777
  221POPC   D2A 8176  31.227   1.927   8.344
  221POPC   C3A 8177  31.455   1.857   7.964
  221POPC   C4A 8178  31.850   1.731   7.774
  221POPC   C1B 8179  31.394   2.480   8.866
  221POPC   C2B 8180  31.522   2.367   8.413
  221POPC   C3B 8181  31.416   2.382   7.957
  221POPC   C4B 8182  31.478   2.200   7.540
  222POPC   NC3 8183   7.217  37.347   9.498
  222POPC   PO4 8184   7.416  37.893   9.765
  222POPC   GL1 8185   7.457  37.826   9.312
  222POPC   GL2 8186   7.144  37.741   9.163
  222POPC   C1A 8187   7.559  37.757   8.847
  222POPC   D2A 8188   7.330  37.671   8.441
  222POPC   C3A 8189   7.527  37.694   8.029
  222POPC   C4A 8190   7.366  37.664   7.618
  222POPC   C1B 8191   7.078  37.409   8.849
  222POPC   C2B 8192   7.051  37.208   8.470
  222POPC   C3B 8193   7.080  37.415   8.044
  222POPC   C4B 8194   7.045  37.282   7.619
  223POPC   NC3 8195  23.983  32.238   9.790
  223POPC   PO4 8196  23.612  32.069   9.283
  223POPC   GL1 8197  23.849  32.339   9.067
  223POPC   GL2 8198  24.094  32.166   8.950
  223POPC   C1A 8199  23.631  32.423   8.708
  223POPC   D2A 8200  23.498  32.225   8.323
  223POPC   C3A 8201  23.667  32.350   7.929
  223POPC   C4A 8202  23.966  32.515   7.649
  223POPC   C1B 8203  24.072  32.231   8.527
  223POPC   C2B 8204  23.890  31.908   8.253
  223POPC   C3B 8205  23.707  31.809   7.885
  223POPC   C4B 8206  23.756  32.039   7.513
  224POPC   NC3 8207  38.487  36.257   9.538
  224POPC   PO4 8208  38.371  35.476   9.503
  224POPC   GL1 8209  38.486  35.842   9.186
  224POPC   GL2 8210  38.246  36.159   9.110
  224POPC   C1A 8211  38.591  35.991   8.779
  224POPC   D2A 8212  38.450  35.851   8.391
  224POPC   C3A 8213  38.623  36.055   8.067
  224POPC   C4A 8214  38.462  36.204   7.702
  224POPC   C1B 8215  38.226  36.339   8.670
  224POPC   C2B 8216  38.067  36.520   8.292
  224POPC   C3B 8217  38.097  36.521   7.847
  224POPC   C4B 8218  38.181  36.573   7.403
  225POPC   NC3 8219  32.680  21.093   9.295
  225POPC   PO4 8220  33.273  20.937   9.387
  225POPC   GL1 8221  33.020  20.652   9.114
  225POPC   GL2 8222  33.297  20.559   8.908
  225POPC   C1A 8223  32.826  20.463   8.713
  225POPC   D2A 8224  32.597  20.566   8.305
  225POPC   C3A 8225  32.802  20.424   7.908
  225POPC   C4A 8226  32.913  20.634   7.533
  225POPC   C1B 8227  33.109  20.862   8.641
  225POPC   C2B 8228  33.122  20.616   8.262
  225POPC   C3B 8229  33.316  20.657   7.859
  225POPC   C4B 8230  33.685  20.418   7.736
  226POPC   NC3 8231  22.055  19.741   9.533
  226POPC   PO4 8232  22.348  20.315   9.232
  226POPC   GL1 8233  22.292  19.834   9.080
  226POPC   GL2 8234  21.968  19.605   9.056
  226POPC   C1A 8235  22.294  19.518   8.708
  226POPC   D2A 8236  22.165  19.385   8.337
  226POPC   C3A 8237  22.325  19.548   7.973
  226POPC   C4A 8238  22.418  19.945   7.782
  226POPC   C1B 8239  21.948  19.887   8.686
  226POPC   C2B 8240  22.003  19.862   8.235
  226POPC   C3B 8241  21.880  19.896   7.798
  226POPC   C4B 8242  21.612  20.186   7.568
  227POPC   NC3 8243  23.781  25.781   9.407
  227POPC   PO4 8244  23.874  26.499   9.336
  227POPC   GL1 8245  23.948  26.118   9.052
  227POPC   GL2 8246  24.196  25.787   9.134
  227POPC   C1A 8247  23.631  25.951   8.739
  227POPC   D2A 8248  23.304  25.721   8.496
  227POPC   C3A 8249  23.353  25.860   8.078
  227POPC   C4A 8250  23.516  26.236   7.906
  227POPC   C1B 8251  24.089  25.739   8.714
  227POPC   C2B 8252  24.032  26.082   8.424
  227POPC   C3B 8253  24.028  26.163   8.013
  227POPC   C4B 8254  23.987  25.840   7.803
  228POPC   NC3 8255   8.637   1.654   9.684
  228POPC   PO4 8256   8.101   2.056   9.497
  228POPC   GL1 8257   8.284   2.121   9.125
  228POPC   GL2 8258   8.047   1.945   8.973
  228POPC   C1A 8259   8.462   2.051   8.723
  228POPC   D2A 8260   8.327   1.903   8.346
  228POPC   C3A 8261   8.437   2.223   8.076
  228POPC   C4A 8262   8.310   1.994   7.734
  228POPC   C1B 8263   7.853   1.638   8.760
  228POPC   C2B 8264   7.984   1.465   8.359
  228POPC   C3B 8265   7.958   1.679   7.951
  228POPC   C4B 8266   7.965   1.709   7.491
  229POPC   NC3 8267  21.786   7.320   9.492
  229POPC   PO4 8268  21.189   7.580   9.557
  229POPC   GL1 8269  21.355   7.583   9.181
  229POPC   GL2 8270  21.027   7.505   9.085
  229POPC   C1A 8271  21.642   7.724   8.861
  229POPC   D2A 8272  21.635   7.698   8.410
  229POPC   C3A 8273  21.367   7.509   8.100
  229POPC   C4A 8274  21.562   7.665   7.715
  229POPC   C1B 8275  21.231   7.497   8.684
  229POPC   C2B 8276  21.333   7.127   8.457
  229POPC   C3B 8277  21.490   7.009   8.093
  229POPC   C4B 8278  21.556   7.137   7.693
  230POPC   NC3 8279  15.538  11.183   9.360
  230POPC   PO4 8280  16.213  11.275   9.551
  230POPC   GL1 8281  16.001  11.329   9.155
  230POPC   GL2 8282  16.032  10.988   9.071
  230POPC   C1A 8283  15.872  11.272   8.699
  230POPC   D2A 8284  16.105  11.405   8.349
  230POPC   C3A 8285  15.911  11.251   8.003
  230POPC   C4A 8286  15.694  11.354   7.697
  230POPC   C1B 8287  16.167  10.813   8.705
  230POPC   C2B 8288  16.073  10.887   8.304
  230POPC   C3B 8289  16.098  10.790   7.865
  230POPC   C4B 8290  15.954  10.978   7.473
  231POPC   NC3 8291  19.874  41.551   9.625
  231POPC   PO4 8292  19.966  42.115   9.357
  231POPC   GL1 8293  19.965  41.746   9.139
  231POPC   GL2 8294  19.689  41.621   9.115
  231POPC   C1A 8295  19.985  41.456   8.737
  231POPC   D2A 8296  19.791  41.294   8.343
  231POPC   C3A 8297  20.044  41.398   7.997
  231POPC   C4A 8298  20.117  41.712   7.704
  231POPC   C1B 8299  19.465  41.700   8.766
  231POPC   C2B 8300  19.369  41.649   8.351
  231POPC   C3B 8301  19.425  41.486   7.955
  231POPC   C4B 8302  19.643  41.713   7.690
  232POPC   NC3 8303  38.889  33.074   9.503
  232POPC   PO4 8304  39.236  32.554   9.584
  232POPC   GL1 8305  39.265  32.849   9.199
  232POPC   GL2 8306  39.270  33.236   9.195
  232POPC   C1A 8307  39.273  32.944   8.740
  232POPC   D2A 8308  39.430  32.869   8.308
  232POPC   C3A 8309  39.133  32.853   7.956
  232POPC   C4A 8310  39.190  32.961   7.506
  232POPC   C1B 8311  39.084  33.418   8.821
  232POPC   C2B 8312  39.155  33.362   8.381
  232POPC   C3B 8313  39.001  33.497   7.972
  232POPC   C4B 8314  39.053  33.466   7.521
  233POPC   NC3 8315   8.517  29.660   9.346
  233POPC   PO4 8316   9.087  29.986   9.639
  233POPC   GL1 8317   9.217  29.847   9.176
  233POPC   GL2 8318   9.067  29.567   9.073
  233POPC   C1A 8319   9.255  30.034   8.768
  233POPC   D2A 8320   9.155  29.840   8.404
  233POPC   C3A 8321   8.734  29.911   8.291
  233POPC   C4A 8322   8.727  30.065   7.887
  233POPC   C1B 8323   8.758  29.575   8.707
  233POPC   C2B 8324   8.518  29.453   8.341
  233POPC   C3B 8325   8.686  29.557   7.926
  233POPC   C4B 8326   9.122  29.690   7.868
  234POPC   NC3 8327  25.521   5.697   9.300
  234POPC   PO4 8328  25.431   6.273   9.696
  234POPC   GL1 8329  25.162   6.143   9.271
  234POPC   GL2 8330  25.229   5.940   8.980
  234POPC   C1A 8331  24.921   6.304   8.858
  234POPC   D2A 8332  25.000   6.195   8.429
  234POPC   C3A 8333  25.051   5.844   8.098
  234POPC   C4A 8334  25.129   5.859   7.621
  234POPC   C1B 8335  25.417   5.880   8.581
  234POPC   C2B 8336  25.551   5.748   8.161
  234POPC   C3B 8337  25.617   5.838   7.747
  234POPC   C4B 8338  25.565   5.969   7.293
  235POPC   NC3 8339  26.635   6.266   9.448
  235POPC   PO4 8340  27.108   6.750   9.607
  235POPC   GL1 8341  27.032   6.902   9.202
  235POPC   GL2 8342  26.996   6.575   9.106
  235POPC   C1A 8343  26.952   6.947   8.736
  235POPC   D2A 8344  27.135   6.790   8.327
  235POPC   C3A 8345  26.779   6.687   8.014
  235POPC   C4A 8346  26.630   6.692   7.561
  235POPC   C1B 8347  26.705   6.424   8.809
  235POPC   C2B 8348  26.722   6.253   8.413
  235POPC   C3B 8349  27.085   6.311   8.156
  235POPC   C4B 8350  27.236   6.514   7.809
  236POPC   NC3 8351  35.989  14.843   9.537
  236POPC   PO4 8352  36.013  15.521   9.492
  236POPC   GL1 8353  36.163  15.267   9.142
  236POPC   GL2 8354  36.310  14.935   9.115
  236POPC   C1A 8355  36.320  15.300   8.723
  236POPC   D2A 8356  36.196  15.108   8.347
  236POPC   C3A 8357  36.233  15.384   7.976
  236POPC   C4A 8358  36.301  15.558   7.532
  236POPC   C1B 8359  36.008  14.869   8.792
  236POPC   C2B 8360  35.790  14.792   8.382
  236POPC   C3B 8361  35.761  14.964   7.953
  236POPC   C4B 8362  36.008  15.114   7.602
  237POPC   NC3 8363  10.945  10.445   9.462
  237POPC   PO4 8364  11.621  10.248   9.283
  237POPC   GL1 8365  11.533  10.516   9.039
  237POPC   GL2 8366  11.209  10.573   9.066
  237POPC   C1A 8367  11.567  10.463   8.616
  237POPC   D2A 8368  11.625  10.344   8.209
  237POPC   C3A 8369  11.362  10.591   7.893
  237POPC   C4A 8370  11.327  10.936   7.573
  237POPC   C1B 8371  11.073  10.380   8.742
  237POPC   C2B 8372  11.126  10.321   8.320
  237POPC   C3B 8373  10.877  10.478   8.001
  237POPC   C4B 8374  10.918  10.656   7.571
  238POPC   NC3 8375   7.705  29.936   9.529
  238POPC   PO4 8376   7.012  29.981   9.530
  238POPC   GL1 8377   7.288  30.038   9.146
  238POPC   GL2 8378   7.629  30.201   9.098
  238POPC   C1A 8379   7.182  29.965   8.710
  238POPC   D2A 8380   7.176  29.625   8.425
  238POPC   C3A 8381   7.236  29.740   8.016
  238POPC   C4A 8382   7.378  30.027   7.707
  238POPC   C1B 8383   7.654  30.144   8.672
  238POPC   C2B 8384   7.453  30.158   8.272
  238POPC   C3B 8385   7.703  30.331   7.955
  238POPC   C4B 8386   7.905  30.198   7.615
  239POPC   NC3 8387   2.889   3.074   9.506
  239POPC   PO4 8388   2.743   2.457   9.335
  239POPC   GL1 8389   2.727   2.856   9.084
  239POPC   GL2 8390   3.056   3.025   9.010
  239POPC   C1A 8391   2.619   3.060   8.713
  239POPC   D2A 8392   2.517   2.807   8.364
  239POPC   C3A 8393   2.514   2.999   7.979
  239POPC   C4A 8394   2.557   2.817   7.560
  239POPC   C1B 8395   3.088   3.290   8.604
  239POPC   C2B 8396   2.878   3.324   8.172
  239POPC   C3B 8397   2.982   3.033   7.793
  239POPC   C4B 8398   3.036   2.768   7.399
  240POPC   NC3 8399  23.092   3.654   9.655
  240POPC   PO4 8400  23.389   4.131   9.416
  240POPC   GL1 8401  23.176   3.800   9.172
  240POPC   GL2 8402  22.836   3.782   9.203
  240POPC   C1A 8403  23.057   3.681   8.749
  240POPC   D2A 8404  23.228   3.720   8.340
  240POPC   C3A 8405  22.949   3.654   7.995
  240POPC   C4A 8406  22.825   3.497   7.582
  240POPC   C1B 8407  22.648   3.976   8.833
  240POPC   C2B 8408  22.681   3.889   8.410
  240POPC   C3B 8409  22.557   4.004   8.010
  240POPC   C4B 8410  22.794   4.006   7.660
  241POPC   NC3 8411  31.363  17.633   9.579
  241POPC   PO4 8412  31.282  17.117   9.368
  241POPC   GL1 8413  31.358  17.494   9.072
  241POPC   GL2 8414  31.386  17.873   9.123
  241POPC   C1A 8415  31.272  17.653   8.655
  241POPC   D2A 8416  31.269  17.465   8.249
  241POPC   C3A 8417  31.361  17.600   7.834
  241POPC   C4A 8418  31.458  17.372   7.409
  241POPC   C1B 8419  31.740  17.763   8.831
  241POPC   C2B 8420  31.749  17.707   8.369
  241POPC   C3B 8421  31.763  17.903   7.940
  241POPC   C4B 8422  31.618  17.857   7.481
  242POPC   NC3 8423  31.174   8.875   9.542
  242POPC   PO4 8424  31.863   8.811   9.445
  242POPC   GL1 8425  31.635   8.682   9.062
  242POPC   GL2 8426  31.302   8.803   9.061
  242POPC   C1A 8427  31.535   8.644   8.605
  242POPC   D2A 8428  31.477   8.934   8.273
  242POPC   C3A 8429  31.672   8.883   7.890
  242POPC   C4A 8430  31.810   8.576   7.587
  242POPC   C1B 8431  31.136   8.968   8.667
  242POPC   C2B 8432  31.044   9.227   8.281
  242POPC   C3B 8433  31.222   9.236   7.850
  242POPC   C4B 8434  31.310   9.311   7.387
  243POPC   NC3 8435  28.268   1.679   9.491
  243POPC   PO4 8436  28.418   2.324   9.566
  243POPC   GL1 8437  28.365   2.091   9.188
  243POPC   GL2 8438  28.625   1.870   9.124
  243POPC   C1A 8439  28.359   2.236   8.757
  243POPC   D2A 8440  28.347   2.471   8.350
  243POPC   C3A 8441  28.030   2.274   8.096
  243POPC   C4A 8442  28.002   2.035   7.722
  243POPC   C1B 8443  28.722   1.856   8.691
  243POPC   C2B 8444  28.537   1.993   8.331
  243POPC   C3B 8445  28.497   2.095   7.896
  243POPC   C4B 8446  28.434   1.827   7.531
  244POPC   NC3 8447  19.013  39.408   9.516
  244POPC   PO4 8448  18.713  38.844   9.349
  244POPC   GL1 8449  18.683  39.159   9.015
  244POPC   GL2 8450  18.878  39.467   9.038
  244POPC   C1A 8451  18.785  39.289   8.590
  244POPC   D2A 8452  19.106  39.389   8.315
  244POPC   C3A 8453  18.960  39.179   7.968
  244POPC   C4A 8454  19.054  38.842   7.712
  244POPC   C1B 8455  19.286  39.359   8.818
  244POPC   C2B 8456  19.554  39.598   8.520
  244POPC   C3B 8457  19.518  39.638   8.078
  244POPC   C4B 8458  19.377  39.358   7.741
  245POPC   NC3 8459  37.262  15.821   9.783
  245POPC   PO4 8460  37.716  15.602   9.371
  245POPC   GL1 8461  37.594  15.931   9.123
  245POPC   GL2 8462  37.863  15.934   8.991
  245POPC   C1A 8463  37.375  16.250   8.826
  245POPC   D2A 8464  37.431  16.441   8.390
  245POPC   C3A 8465  37.377  16.243   7.961
  245POPC   C4A 8466  37.669  15.914   7.769
  245POPC   C1B 8467  37.717  15.953   8.592
  245POPC   C2B 8468  37.809  16.126   8.222
  245POPC   C3B 8469  38.143  15.983   8.007
  245POPC   C4B 8470  38.174  15.892   7.615
  246POPC   NC3 8471  42.086  30.673   9.564
  246POPC   PO4 8472  42.687  30.358   9.722
  246POPC   GL1 8473  42.483  30.508   9.292
  246POPC   GL2 8474  42.309  30.842   9.143
  246POPC   C1A 8475  42.603  30.548   8.851
  246POPC   D2A 8476  42.630  30.817   8.486
  246POPC   C3A 8477  42.376  30.683   8.128
  246POPC   C4A 8478  42.505  30.632   7.698
  246POPC   C1B 8479  42.137  30.739   8.752
  246POPC   C2B 8480  41.860  30.625   8.447
  246POPC   C3B 8481  41.890  30.920   8.098
  246POPC   C4B 8482  41.991  30.687   7.725
  247POPC   NC3 8483  12.307  18.860   9.744
  247POPC   PO4 8484  12.934  18.944   9.416
  247POPC   GL1 8485  12.889  19.263   9.150
  247POPC   GL2 8486  12.830  18.982   8.889
  247POPC   C1A 8487  12.856  19.458   8.746
  247POPC   D2A 8488  12.931  19.231   8.339
  247POPC   C3A 8489  12.859  19.420   7.902
  247POPC   C4A 8490  12.622  19.160   7.656
  247POPC   C1B 8491  13.158  18.753   8.616
  247POPC   C2B 8492  13.497  18.688   8.310
  247POPC   C3B 8493  13.268  18.590   7.934
  247POPC   C4B 8494  13.054  18.869   7.642
  248POPC   NC3 8495  18.894  14.599   9.511
  248POPC   PO4 8496  18.810  13.909   9.514
  248POPC   GL1 8497  18.989  14.208   9.201
  248POPC   GL2 8498  18.669  14.297   9.165
  248POPC   C1A 8499  19.188  14.291   8.792
  248POPC   D2A 8500  19.054  14.455   8.388
  248POPC   C3A 8501  19.244  14.262   8.005
  248POPC   C4A 8502  19.227  14.261   7.567
  248POPC   C1B 8503  18.676  14.478   8.771
  248POPC   C2B 8504  18.546  14.568   8.335
  248POPC   C3B 8505  18.752  14.383   7.967
  248POPC   C4B 8506  18.768  14.491   7.540
  249POPC   NC3 8507   6.571  12.407   9.456
  249POPC   PO4 8508   6.367  12.906   9.330
  249POPC   GL1 8509   6.420  12.567   8.988
  249POPC   GL2 8510   6.754  12.363   8.992
  249POPC   C1A 8511   6.361  12.624   8.557
  249POPC   D2A 8512   6.535  12.934   8.285
  249POPC   C3A 8513   6.584  12.888   7.833
  249POPC   C4A 8514   6.472  13.021   7.395
  249POPC   C1B 8515   6.844  12.471   8.562
  249POPC   C2B 8516   6.817  12.516   8.118
  249POPC   C3B 8517   7.082  12.550   7.738
  249POPC   C4B 8518   7.073  12.401   7.267
  250POPC   NC3 8519  27.011  23.189   9.256
  250POPC   PO4 8520  26.404  22.950   9.132
  250POPC   GL1 8521  26.830  22.763   9.026
  250POPC   GL2 8522  26.967  22.445   9.133
  250POPC   C1A 8523  26.949  22.874   8.615
  250POPC   D2A 8524  26.628  23.131   8.396
  250POPC   C3A 8525  26.596  23.058   7.956
  250POPC   C4A 8526  26.923  23.267   7.712
  250POPC   C1B 8527  27.201  22.445   8.777
  250POPC   C2B 8528  27.410  22.427   8.394
  250POPC   C3B 8529  27.375  22.586   7.997
  250POPC   C4B 8530  27.023  22.780   7.853
  251POPC   NC3 8531   8.523  23.901   9.855
  251POPC   PO4 8532   8.138  23.420   9.561
  251POPC   GL1 8533   8.211  23.647   9.136
  251POPC   GL2 8534   8.352  23.457   8.911
  251POPC   C1A 8535   8.263  23.998   8.849
  251POPC   D2A 8536   8.173  24.136   8.438
  251POPC   C3A 8537   8.076  23.875   8.090
  251POPC   C4A 8538   8.246  23.799   7.680
  251POPC   C1B 8539   8.057  23.612   8.583
  251POPC   C2B 8540   7.824  23.449   8.246
  251POPC   C3B 8541   7.902  23.450   7.808
  251POPC   C4B 8542   7.999  23.458   7.353
  252POPC   NC3 8543  39.398  19.479   9.516
  252POPC   PO4 8544  38.777  19.776   9.677
  252POPC   GL1 8545  39.096  19.882   9.334
  252POPC   GL2 8546  39.160  19.627   9.084
  252POPC   C1A 8547  39.192  20.092   8.934
  252POPC   D2A 8548  39.076  19.847   8.548
  252POPC   C3A 8549  39.323  19.984   8.186
  252POPC   C4A 8550  39.441  20.257   7.815
  252POPC   C1B 8551  39.275  19.401   8.721
  252POPC   C2B 8552  39.153  19.256   8.324
  252POPC   C3B 8553  38.994  19.534   8.003
  252POPC   C4B 8554  39.219  19.798   7.715
  253POPC   NC3 8555  25.363  19.767   9.578
  253POPC   PO4 8556  25.095  20.305   9.809
  253POPC   GL1 8557  25.417  20.233   9.331
  253POPC   GL2 8558  25.480  19.896   9.113
  253POPC   C1A 8559  25.362  20.274   8.817
  253POPC   D2A 8560  25.008  20.209   8.464
  253POPC   C3A 8561  25.064  20.043   8.007
  253POPC   C4A 8562  25.368  19.746   7.762
  253POPC   C1B 8563  25.189  19.751   8.739
  253POPC   C2B 8564  25.181  19.610   8.280
  253POPC   C3B 8565  24.923  19.555   7.889
  253POPC   C4B 8566  24.942  19.579   7.408
  254POPC   NC3 8567  14.768  12.940   9.439
  254POPC   PO4 8568  15.390  12.822   9.498
  254POPC   GL1 8569  15.274  12.792   9.119
  254POPC   GL2 8570  15.045  12.529   9.221
  254POPC   C1A 8571  15.432  12.855   8.700
  254POPC   D2A 8572  15.188  12.914   8.337
  254POPC   C3A 8573  15.312  12.854   7.905
  254POPC   C4A 8574  14.888  12.885   7.713
  254POPC   C1B 8575  15.119  12.446   8.793
  254POPC   C2B 8576  15.184  12.422   8.399
  254POPC   C3B 8577  14.979  12.498   8.047
  254POPC   C4B 8578  15.136  12.441   7.623
  255POPC   NC3 8579   8.720  26.081   9.452
  255POPC   PO4 8580   9.281  25.834   9.240
  255POPC   GL1 8581   9.022  26.055   9.009
  255POPC   GL2 8582   8.875  26.360   9.059
  255POPC   C1A 8583   8.900  26.038   8.596
  255POPC   D2A 8584   8.930  25.743   8.298
  255POPC   C3A 8585   9.298  25.729   8.077
  255POPC   C4A 8586   9.155  25.873   7.697
  255POPC   C1B 8587   8.620  26.439   8.688
  255POPC   C2B 8588   8.806  26.465   8.291
  255POPC   C3B 8589   8.794  26.190   7.902
  255POPC   C4B 8590   8.442  26.066   7.590
  256POPC   NC3 8591   3.923  40.860   9.644
  256POPC   PO4 8592   4.152  40.373   9.461
  256POPC   GL1 8593   4.057  40.460   9.000
  256POPC   GL2 8594   4.364  40.653   8.968
  256POPC   C1A 8595   4.173  40.535   8.524
  256POPC   D2A 8596   4.498  40.574   8.183
  256POPC   C3A 8597   4.250  40.749   7.836
  256POPC   C4A 8598   3.906  40.748   7.552
  256POPC   C1B 8599   4.437  40.960   8.624
  256POPC   C2B 8600   4.540  41.107   8.217
  256POPC   C3B 8601   4.383  41.230   7.835
  256POPC   C4B 8602   4.440  41.079   7.429
  257POPC   NC3 8603  24.118  41.893   9.440
  257POPC   PO4 8604  23.748  41.333   9.522
  257POPC   GL1 8605  23.950  41.441   9.146
  257POPC   GL2 8606  23.771  41.733   9.081
  257POPC   C1A 8607  24.018  41.278   8.734
  257POPC   D2A 8608  23.809  41.153   8.325
  257POPC   C3A 8609  23.955  41.280   7.910
  257POPC   C4A 8610  23.966  41.643   7.626
  257POPC   C1B 8611  23.657  41.656   8.641
  257POPC   C2B 8612  23.377  41.657   8.268
  257POPC   C3B 8613  23.363  41.737   7.814
  257POPC   C4B 8614  23.570  41.902   7.432
  258POPC   NC3 8615   8.927  28.782   9.594
  258POPC   PO4 8616   9.481  29.120   9.486
  258POPC   GL1 8617   9.243  29.076   9.132
  258POPC   GL2 8618   8.898  29.078   9.175
  258POPC   C1A 8619   9.099  29.197   8.704
  258POPC   D2A 8620   9.011  29.372   8.290
  258POPC   C3A 8621   8.975  29.080   7.976
  258POPC   C4A 8622   9.181  28.891   7.628
  258POPC   C1B 8623   8.650  28.908   8.851
  258POPC   C2B 8624   8.456  28.933   8.437
  258POPC   C3B 8625   8.557  28.687   8.080
  258POPC   C4B 8626   8.694  28.740   7.664
  259POPC   NC3 8627  23.375  27.882   9.368
  259POPC   PO4 8628  23.855  27.471   9.571
  259POPC   GL1 8629  23.582  27.420   9.214
  259POPC   GL2 8630  23.760  27.696   9.067
  259POPC   C1A 8631  23.399  27.457   8.784
  259POPC   D2A 8632  23.638  27.487   8.433
  259POPC   C3A 8633  23.478  27.394   8.061
  259POPC   C4A 8634  23.539  27.720   7.782
  259POPC   C1B 8635  23.958  27.352   8.838
  259POPC   C2B 8636  24.128  27.356   8.410
  259POPC   C3B 8637  23.977  27.517   8.001
  259POPC   C4B 8638  23.857  27.289   7.629
  260POPC   NC3 8639  37.967  13.199   9.327
  260POPC   PO4 8640  37.541  12.644   9.385
  260POPC   GL1 8641  37.873  12.676   9.147
  260POPC   GL2 8642  37.724  12.922   8.941
  260POPC   C1A 8643  37.971  12.508   8.757
  260POPC   D2A 8644  37.754  12.731   8.424
  260POPC   C3A 8645  37.786  12.589   7.995
  260POPC   C4A 8646  37.702  12.668   7.537
  260POPC   C1B 8647  38.060  13.050   8.702
  260POPC   C2B 8648  38.005  13.184   8.297
  260POPC   C3B 8649  37.915  13.093   7.877
  260POPC   C4B 8650  37.944  13.321   7.519
  261POPC   NC3 8651  23.439  35.997   9.491
  261POPC   PO4 8652  23.984  36.485   9.444
  261POPC   GL1 8653  23.631  36.369   9.208
  261POPC   GL2 8654  23.335  36.583   9.246
  261POPC   C1A 8655  23.653  36.146   8.839
  261POPC   D2A 8656  23.812  36.123   8.446
  261POPC   C3A 8657  23.529  36.019   8.126
  261POPC   C4A 8658  23.550  36.012   7.697
  261POPC   C1B 8659  23.396  36.623   8.812
  261POPC   C2B 8660  23.342  36.400   8.419
  261POPC   C3B 8661  23.327  36.486   7.967
  261POPC   C4B 8662  23.119  36.293   7.635
  262POPC   NC3 8663  10.212  10.112   9.347
  262POPC   PO4 8664  10.542  10.678   9.409
  262POPC   GL1 8665  10.651  10.451   9.056
  262POPC   GL2 8666  10.755  10.775   8.942
  262POPC   C1A 8667  10.479  10.445   8.671
  262POPC   D2A 8668  10.627  10.223   8.380
  262POPC   C3A 8669  10.420  10.236   8.048
  262POPC   C4A 8670  10.563  10.273   7.644
  262POPC   C1B 8671  10.833  10.746   8.490
  262POPC   C2B 8672  10.484  10.738   8.219
  262POPC   C3B 8673  10.492  10.776   7.792
  262POPC   C4B 8674  10.535  10.960   7.373
  263POPC   NC3 8675  41.052  33.623   9.521
  263POPC   PO4 8676  40.613  34.135   9.531
  263POPC   GL1 8677  40.839  33.961   9.204
  263POPC   GL2 8678  41.099  34.162   9.084
  263POPC   C1A 8679  40.868  33.768   8.815
  263POPC   D2A 8680  40.674  33.815   8.420
  263POPC   C3A 8681  40.943  33.713   8.086
  263POPC   C4A 8682  40.848  33.633   7.675
  263POPC   C1B 8683  40.947  34.259   8.657
  263POPC   C2B 8684  40.968  34.243   8.162
  263POPC   C3B 8685  41.125  34.113   7.726
  263POPC   C4B 8686  41.037  34.220   7.256
  264POPC   NC3 8687  35.085  42.146   9.543
  264POPC   PO4 8688  35.706  42.121   9.405
  264POPC   GL1 8689  35.396  41.952   9.104
  264POPC   GL2 8690  35.228  42.256   9.079
  264POPC   C1A 8691  35.220  42.003   8.660
  264POPC   D2A 8692  35.001  42.001   8.254
  264POPC   C3A 8693  35.271  42.138   7.893
  264POPC   C4A 8694  35.465  41.973   7.496
  264POPC   C1B 8695  35.595  42.391   8.827
  264POPC   C2B 8696  35.772  42.484   8.433
  264POPC   C3B 8697  35.653  42.516   8.018
  264POPC   C4B 8698  35.590  42.459   7.611
  265POPC   NC3 8699  38.542   1.112   9.564
  265POPC   PO4 8700  37.892   1.278   9.460
  265POPC   GL1 8701  38.204   1.093   9.202
  265POPC   GL2 8702  38.381   1.359   9.146
  265POPC   C1A 8703  38.510   0.962   8.835
  265POPC   D2A 8704  38.358   0.834   8.391
  265POPC   C3A 8705  38.632   0.955   8.036
  265POPC   C4A 8706  38.533   1.021   7.606
  265POPC   C1B 8707  38.488   1.478   8.757
  265POPC   C2B 8708  38.505   1.331   8.355
  265POPC   C3B 8709  38.456   1.428   7.907
  265POPC   C4B 8710  38.602   1.600   7.486
  266POPC   NC3 8711  39.457  39.692   9.300
  266POPC   PO4 8712  39.129  40.125   9.740
  266POPC   GL1 8713  39.093  40.149   9.208
  266POPC   GL2 8714  39.376  40.163   9.066
  266POPC   C1A 8715  39.058  39.912   8.768
  266POPC   D2A 8716  39.196  39.595   8.463
  266POPC   C3A 8717  39.214  39.729   8.042
  266POPC   C4A 8718  39.089  40.158   7.915
  266POPC   C1B 8719  39.410  40.377   8.668
  266POPC   C2B 8720  39.464  40.116   8.298
  266POPC   C3B 8721  39.576  40.079   7.860
  266POPC   C4B 8722  39.618  40.214   7.447
  267POPC   NC3 8723  36.572  25.904   9.618
  267POPC   PO4 8724  37.026  26.393   9.598
  267POPC   GL1 8725  36.758  26.233   9.236
  267POPC   GL2 8726  36.874  25.917   9.186
  267POPC   C1A 8727  36.924  26.193   8.758
  267POPC   D2A 8728  37.142  25.900   8.461
  267POPC   C3A 8729  37.096  25.980   8.021
  267POPC   C4A 8730  36.747  26.247   7.873
  267POPC   C1B 8731  36.842  25.648   8.832
  267POPC   C2B 8732  36.709  25.577   8.430
  267POPC   C3B 8733  36.589  25.807   8.087
  267POPC   C4B 8734  36.613  25.814   7.641
  268POPC   NC3 8735  22.339   5.938   9.684
  268POPC   PO4 8736  21.700   6.178   9.464
  268POPC   GL1 8737  22.009   5.941   9.207
  268POPC   GL2 8738  22.296   5.725   9.227
  268POPC   C1A 8739  21.957   5.868   8.738
  268POPC   D2A 8740  21.993   5.572   8.388
  268POPC   C3A 8741  22.011   5.709   7.973
  268POPC   C4A 8742  22.093   6.009   7.637
  268POPC   C1B 8743  22.445   5.948   8.916
  268POPC   C2B 8744  22.390   5.897   8.499
  268POPC   C3B 8745  22.474   5.922   8.086
  268POPC   C4B 8746  22.557   5.823   7.690
  269POPC   NC3 8747  34.226   4.601   9.622
  269POPC   PO4 8748  34.173   5.279   9.463
  269POPC   GL1 8749  34.293   4.959   9.169
  269POPC   GL2 8750  34.586   5.076   9.006
  269POPC   C1A 8751  34.152   4.875   8.740
  269POPC   D2A 8752  34.498   4.931   8.464
  269POPC   C3A 8753  34.513   4.992   8.035
  269POPC   C4A 8754  34.834   4.837   7.745
  269POPC   C1B 8755  34.336   5.365   8.725
  269POPC   C2B 8756  34.259   5.417   8.279
  269POPC   C3B 8757  34.420   5.456   7.842
  269POPC   C4B 8758  34.475   5.129   7.541
  270POPC   NC3 8759   4.816  33.920   9.972
  270POPC   PO4 8760   4.354  33.830   9.462
  270POPC   GL1 8761   4.466  33.680   9.090
  270POPC   GL2 8762   4.686  33.959   9.114
  270POPC   C1A 8763   4.223  33.695   8.704
  270POPC   D2A 8764   4.165  34.001   8.408
  270POPC   C3A 8765   4.176  33.735   8.032
  270POPC   C4A 8766   4.387  33.618   7.645
  270POPC   C1B 8767   4.592  34.027   8.719
  270POPC   C2B 8768   4.599  33.734   8.356
  270POPC   C3B 8769   4.662  33.919   7.962
  270POPC   C4B 8770   4.741  34.291   7.737
  271POPC   NC3 8771  33.625  33.713   9.550
  271POPC   PO4 8772  34.170  34.092   9.499
  271POPC   GL1 8773  33.938  33.939   9.134
  271POPC   GL2 8774  33.911  33.590   9.126
  271POPC   C1A 8775  34.026  33.811   8.686
  271POPC   D2A 8776  34.108  33.612   8.302
  271POPC   C3A 8777  33.930  33.724   7.934
  271POPC   C4A 8778  33.859  34.121   7.741
  271POPC   C1B 8779  33.671  33.455   8.782
  271POPC   C2B 8780  33.447  33.475   8.393
  271POPC   C3B 8781  33.453  33.383   7.992
  271POPC   C4B 8782  33.768  33.298   7.673
  272POPC   NC3 8783  21.323  38.922   9.819
  272POPC   PO4 8784  21.503  38.306   9.504
  272POPC   GL1 8785  21.283  38.422   9.159
  272POPC   GL2 8786  21.181  38.761   9.305
  272POPC   C1A 8787  21.342  38.360   8.698
  272POPC   D2A 8788  21.483  38.477   8.267
  272POPC   C3A 8789  21.253  38.362   7.940
  272POPC   C4A 8790  21.233  38.278   7.518
  272POPC   C1B 8791  21.115  38.797   8.866
  272POPC   C2B 8792  21.042  38.738   8.431
  272POPC   C3B 8793  21.243  38.882   8.042
  272POPC   C4B 8794  21.359  38.773   7.645
  273POPC   NC3 8795   4.415   2.615   9.576
  273POPC   PO4 8796   4.155   3.227   9.691
  273POPC   GL1 8797   4.333   3.043   9.302
  273POPC   GL2 8798   4.691   3.061   9.269
  273POPC   C1A 8799   4.305   2.874   8.860
  273POPC   D2A 8800   4.548   2.757   8.475
  273POPC   C3A 8801   4.398   2.582   8.109
  273POPC   C4A 8802   4.151   2.739   7.788
  273POPC   C1B 8803   4.801   2.999   8.842
  273POPC   C2B 8804   4.917   3.101   8.398
  273POPC   C3B 8805   4.716   2.967   8.005
  273POPC   C4B 8806   4.688   2.684   7.643
  274POPC   NC3 8807  21.560  34.597   9.586
  274POPC   PO4 8808  21.084  34.157   9.609
  274POPC   GL1 8809  21.331  34.289   9.249
  274POPC   GL2 8810  21.034  34.346   9.133
  274POPC   C1A 8811  21.363  34.603   8.858
  274POPC   D2A 8812  21.097  34.576   8.439
  274POPC   C3A 8813  21.385  34.616   8.074
  274POPC   C4A 8814  21.461  34.780   7.661
  274POPC   C1B 8815  21.172  34.158   8.749
  274POPC   C2B 8816  21.427  34.198   8.386
  274POPC   C3B 8817  21.265  34.124   7.968
  274POPC   C4B 8818  21.288  34.286   7.551
  275POPC   NC3 8819  34.920   6.403   9.624
  275POPC   PO4 8820  34.815   7.084   9.600
  275POPC   GL1 8821  34.683   6.743   9.282
  275POPC   GL2 8822  34.303   6.682   9.227
  275POPC   C1A 8823  34.708   6.787   8.829
  275POPC   D2A 8824  34.835   6.774   8.411
  275POPC   C3A 8825  34.668   6.911   8.044
  275POPC   C4A 8826  34.829   7.083   7.674
  275POPC   C1B 8827  34.464   6.374   8.951
  275POPC   C2B 8828  34.605   6.346   8.539
  275POPC   C3B 8829  34.800   6.346   8.144
  275POPC   C4B 8830  34.690   6.487   7.750
  276POPC   NC3 8831   6.115   5.243   9.459
  276POPC   PO4 8832   5.429   5.168   9.635
  276POPC   GL1 8833   5.672   5.035   9.276
  276POPC   GL2 8834   5.948   4.801   9.235
  276POPC   C1A 8835   5.790   5.087   8.846
  276POPC   D2A 8836   5.911   5.140   8.424
  276POPC   C3A 8837   5.652   5.023   8.104
  276POPC   C4A 8838   5.816   5.257   7.759
  276POPC   C1B 8839   6.210   4.771   8.863
  276POPC   C2B 8840   6.202   4.699   8.432
  276POPC   C3B 8841   6.094   4.799   8.003
  276POPC   C4B 8842   5.788   4.732   7.676
  277POPC   NC3 8843  30.408  42.427   9.577
  277POPC   PO4 8844  29.922  41.952   9.547
  277POPC   GL1 8845  29.984  42.177   9.167
  277POPC   GL2 8846  30.079  42.509   9.147
  277POPC   C1A 8847  30.102  42.066   8.770
  277POPC   D2A 8848  30.023  42.280   8.394
  277POPC   C3A 8849  29.755  42.131   8.083
  277POPC   C4A 8850  30.085  42.088   7.763
  277POPC   C1B 8851  29.769  42.494   8.786
  277POPC   C2B 8852  29.643  42.589   8.345
  277POPC   C3B 8853  29.938  42.587   7.956
  277POPC   C4B 8854  29.863  42.482   7.519
  278POPC   NC3 8855  38.431  34.949   9.515
  278POPC   PO4 8856  39.000  35.107   9.201
  278POPC   GL1 8857  38.536  35.232   9.089
  278POPC   GL2 8858  38.145  35.157   9.129
  278POPC   C1A 8859  38.464  35.491   8.768
  278POPC   D2A 8860  38.730  35.407   8.407
  278POPC   C3A 8861  38.533  35.400   8.035
  278POPC   C4A 8862  38.508  35.692   7.730
  278POPC   C1B 8863  37.968  35.367   8.762
  278POPC   C2B 8864  38.046  35.524   8.304
  278POPC   C3B 8865  38.057  35.436   7.817
  278POPC   C4B 8866  38.234  35.514   7.358
  279POPC   NC3 8867   8.666  24.372   9.431
  279POPC   PO4 8868   9.275  24.574   9.417
  279POPC   GL1 8869   9.140  24.778   9.055
  279POPC   GL2 8870   8.845  24.574   9.002
  279POPC   C1A 8871   9.197  24.719   8.620
  279POPC   D2A 8872   9.081  24.354   8.370
  279POPC   C3A 8873   8.912  24.436   7.956
  279POPC   C4A 8874   9.081  24.582   7.574
  279POPC   C1B 8875   8.733  24.219   8.747
  279POPC   C2B 8876   8.688  24.020   8.366
  279POPC   C3B 8877   8.534  24.087   7.979
  279POPC   C4B 8878   8.639  24.142   7.566
  280POPC   NC3 8879  16.377  15.267   9.450
  280POPC   PO4 8880  17.068  15.418   9.355
  280POPC   GL1 8881  16.780  15.404   9.029
  280POPC   GL2 8882  16.640  15.060   9.005
  280POPC   C1A 8883  16.654  15.379   8.596
  280POPC   D2A 8884  16.623  15.064   8.303
  280POPC   C3A 8885  16.757  15.244   7.963
  280POPC   C4A 8886  16.649  15.280   7.547
  280POPC   C1B 8887  16.953  14.951   8.672
  280POPC   C2B 8888  17.085  14.870   8.204
  280POPC   C3B 8889  17.065  14.922   7.731
  280POPC   C4B 8890  17.004  15.020   7.276
  281POPC   NC3 8891  29.855  34.316   9.568
  281POPC   PO4 8892  30.178  34.735   9.395
  281POPC   GL1 8893  29.871  34.540   9.079
  281POPC   GL2 8894  29.615  34.264   9.113
  281POPC   C1A 8895  29.825  34.391   8.640
  281POPC   D2A 8896  29.605  34.490   8.246
  281POPC   C3A 8897  29.826  34.488   7.817
  281POPC   C4A 8898  29.761  34.659   7.389
  281POPC   C1B 8899  29.496  33.996   8.747
  281POPC   C2B 8900  29.368  34.041   8.328
  281POPC   C3B 8901  29.426  34.155   7.877
  281POPC   C4B 8902  29.602  34.176   7.428
  282POPC   NC3 8903  12.775  10.992   9.384
  282POPC   PO4 8904  12.515  11.547   9.591
  282POPC   GL1 8905  12.736  11.568   9.155
  282POPC   GL2 8906  12.917  11.288   8.973
  282POPC   C1A 8907  12.738  11.634   8.667
  282POPC   D2A 8908  12.938  11.642   8.271
  282POPC   C3A 8909  12.778  11.391   7.911
  282POPC   C4A 8910  12.580  11.241   7.517
  282POPC   C1B 8911  13.246  11.515   8.729
  282POPC   C2B 8912  13.392  11.406   8.310
  282POPC   C3B 8913  13.299  11.221   7.915
  282POPC   C4B 8914  13.409  10.819   7.744
  283POPC   NC3 8915  10.154  39.790   9.400
  283POPC   PO4 8916  10.830  40.171   9.363
  283POPC   GL1 8917  10.842  40.053   8.975
  283POPC   GL2 8918  10.622  39.809   9.061
  283POPC   C1A 8919  10.665  40.218   8.587
  283POPC   D2A 8920  10.365  40.049   8.286
  283POPC   C3A 8921  10.533  39.994   7.884
  283POPC   C4A 8922  10.729  40.311   7.674
  283POPC   C1B 8923  10.538  39.690   8.628
  283POPC   C2B 8924  10.677  39.645   8.222
  283POPC   C3B 8925  10.694  39.494   7.822
  283POPC   C4B 8926  10.371  39.622   7.528
  284POPC   NC3 8927   8.679   9.859   9.440
  284POPC   PO4 8928   9.249   9.484   9.723
  284POPC   GL1 8929   9.222   9.839   9.340
  284POPC   GL2 8930   8.938   9.801   9.021
  284POPC   C1A 8931   9.391   9.936   8.900
  284POPC   D2A 8932   9.160   9.813   8.500
  284POPC   C3A 8933   9.178   9.943   8.036
  284POPC   C4A 8934   9.522   9.903   7.748
  284POPC   C1B 8935   8.732   9.576   8.646
  284POPC   C2B 8936   8.767   9.619   8.188
  284POPC   C3B 8937   8.690   9.780   7.780
  284POPC   C4B 8938   8.618   9.964   7.329
  285POPC   NC3 8939  21.077  42.736   9.532
  285POPC   PO4 8940  21.643  42.346   9.410
  285POPC   GL1 8941  21.571  42.046   9.060
  285POPC   GL2 8942  21.240  42.207   9.117
  285POPC   C1A 8943  21.517  41.958   8.592
  285POPC   D2A 8944  21.223  42.161   8.309
  285POPC   C3A 8945  21.405  42.371   7.962
  285POPC   C4A 8946  21.715  42.199   7.680
  285POPC   C1B 8947  21.400  42.431   8.746
  285POPC   C2B 8948  21.082  42.607   8.478
  285POPC   C3B 8949  20.958  42.599   8.071
  285POPC   C4B 8950  20.931  42.625   7.619
  286POPC   NC3 8951   5.063  34.991   9.288
  286POPC   PO4 8952   5.242  35.628   9.413
  286POPC   GL1 8953   5.226  35.407   9.038
  286POPC   GL2 8954   5.518  35.202   9.034
  286POPC   C1A 8955   5.038  35.291   8.637
  286POPC   D2A 8956   4.807  35.608   8.431
  286POPC   C3A 8957   4.793  35.714   7.977
  286POPC   C4A 8958   5.131  35.706   7.672
  286POPC   C1B 8959   5.524  35.463   8.638
  286POPC   C2B 8960   5.305  35.532   8.235
  286POPC   C3B 8961   5.339  35.246   7.899
  286POPC   C4B 8962   5.422  35.285   7.438
  287POPC   NC3 8963  21.967  22.203   9.882
  287POPC   PO4 8964  22.357  22.427   9.419
  287POPC   GL1 8965  22.146  22.144   9.196
  287POPC   GL2 8966  21.868  21.950   9.315
  287POPC   C1A 8967  22.257  22.145   8.787
  287POPC   D2A 8968  22.288  22.381   8.440
  287POPC   C3A 8969  22.307  22.133   8.079
  287POPC   C4A 8970  22.260  22.298   7.680
  287POPC   C1B 8971  21.847  21.844   8.889
  287POPC   C2B 8972  21.970  21.894   8.435
  287POPC   C3B 8973  21.854  21.885   7.986
  287POPC   C4B 8974  21.885  21.953   7.547
  288POPC   NC3 8975  37.334  13.037   9.241
  288POPC   PO4 8976  36.782  13.125   9.473
  288POPC   GL1 8977  36.856  12.947   9.058
  288POPC   GL2 8978  37.082  12.636   9.063
  288POPC   C1A 8979  36.679  12.701   8.705
  288POPC   D2A 8980  36.824  12.502   8.307
  288POPC   C3A 8981  36.847  12.792   7.932
  288POPC   C4A 8982  36.698  13.042   7.569
  288POPC   C1B 8983  37.174  12.817   8.633
  288POPC   C2B 8984  37.293  12.704   8.211
  288POPC   C3B 8985  37.420  12.958   7.870
  288POPC   C4B 8986  37.215  13.010   7.471
  289POPC   NC3 8987  42.878  35.640   9.305
  289POPC   PO4 8988  43.062  36.255   9.631
  289POPC   GL1 8989  43.252  36.194   9.234
  289POPC   GL2 8990  42.945  36.187   9.116
  289POPC   C1A 8991  43.308  36.093   8.784
  289POPC   D2A 8992  43.151  36.066   8.376
  289POPC   C3A 8993  43.331  36.192   7.986
  289POPC   C4A 8994  43.274  36.066   7.571
  289POPC   C1B 8995  42.807  36.370   8.731
  289POPC   C2B 8996  42.655  36.186   8.336
  289POPC   C3B 8997  42.831  36.051   7.965
  289POPC   C4B 8998  42.840  36.307   7.645
  290POPC   NC3 8999   1.785   1.693   9.583
  290POPC   PO4 9000   2.390   1.669   9.537
  290POPC   GL1 9001   2.108   1.547   9.184
  290POPC   GL2 9002   1.835   1.751   9.080
  290POPC   C1A 9003   1.998   1.332   8.781
  290POPC   D2A 9004   1.892   1.403   8.326
  290POPC   C3A 9005   2.097   1.289   7.929
  290POPC   C4A 9006   2.074   1.083   7.506
  290POPC   C1B 9007   1.654   1.743   8.694
  290POPC   C2B 9008   1.759   1.891   8.307
  290POPC   C3B 9009   1.762   1.732   7.889
  290POPC   C4B 9010   1.984   1.602   7.535
  291POPC   NC3 9011  30.425  22.818   9.496
  291POPC   PO4 9012  31.005  22.997   9.534
  291POPC   GL1 9013  30.805  22.838   9.159
  291POPC   GL2 9014  30.634  22.507   9.108
  291POPC   C1A 9015  30.636  22.874   8.755
  291POPC   D2A 9016  30.654  22.650   8.392
  291POPC   C3A 9017  30.641  22.889   8.009
  291POPC   C4A 9018  30.485  22.857   7.609
  291POPC   C1B 9019  30.996  22.483   8.845
  291POPC   C2B 9020  31.146  22.475   8.418
  291POPC   C3B 9021  30.993  22.530   8.010
  291POPC   C4B 9022  30.814  22.417   7.637
  292POPC   NC3 9023  35.552  15.569   9.551
  292POPC   PO4 9024  35.530  14.957   9.581
  292POPC   GL1 9025  35.662  14.925   9.175
  292POPC   GL2 9026  35.647  15.275   9.137
  292POPC   C1A 9027  35.488  14.846   8.785
  292POPC   D2A 9028  35.332  15.113   8.452
  292POPC   C3A 9029  35.195  14.997   8.041
  292POPC   C4A 9030  35.343  14.709   7.796
  292POPC   C1B 9031  35.803  15.334   8.736
  292POPC   C2B 9032  35.756  15.338   8.311
  292POPC   C3B 9033  35.479  15.413   7.965
  292POPC   C4B 9034  35.501  15.226   7.541
  293POPC   NC3 9035   0.051  38.100   9.519
  293POPC   PO4 9036  44.838  38.707   9.447
  293POPC   GL1 9037  44.675  38.356   9.172
  293POPC   GL2 9038  44.281  38.255   9.184
  293POPC   C1A 9039  44.894  38.231   8.785
  293POPC   D2A 9040   0.052  38.058   8.384
  293POPC   C3A 9041  44.880  38.378   8.101
  293POPC   C4A 9042  44.924  38.592   7.719
  293POPC   C1B 9043  44.393  38.050   8.814
  293POPC   C2B 9044  44.536  38.024   8.402
  293POPC   C3B 9045  44.432  38.145   7.999
  293POPC   C4B 9046  44.441  38.428   7.671
  294POPC   NC3 9047  24.826  10.614   9.497
  294POPC   PO4 9048  25.361  10.136   9.598
  294POPC   GL1 9049  25.098  10.184   9.201
  294POPC   GL2 9050  24.857  10.399   9.042
  294POPC   C1A 9051  25.178  10.162   8.742
  294POPC   D2A 9052  25.450  10.364   8.418
  294POPC   C3A 9053  25.357  10.466   7.969
  294POPC   C4A 9054  25.154  10.351   7.540
  294POPC   C1B 9055  24.989  10.705   8.722
  294POPC   C2B 9056  25.075  10.803   8.277
  294POPC   C3B 9057  24.906  10.687   7.874
  294POPC   C4B 9058  24.829  10.763   7.456
  295POPC   NC3 9059  12.801  41.943   9.485
  295POPC   PO4 9060  12.689  42.530   9.754
  295POPC   GL1 9061  12.689  42.437   9.281
  295POPC   GL2 9062  12.410  42.540   9.032
  295POPC   C1A 9063  12.898  42.479   8.868
  295POPC   D2A 9064  13.131  42.195   8.594
  295POPC   C3A 9065  12.948  42.181   8.175
  295POPC   C4A 9066  13.104  42.382   7.832
  295POPC   C1B 9067  12.497  42.739   8.624
  295POPC   C2B 9068  12.667  42.636   8.200
  295POPC   C3B 9069  12.715  42.722   7.738
  295POPC   C4B 9070  12.511  42.695   7.304
  296POPC   NC3 9071  40.837   1.600   9.535
  296POPC   PO4 9072  40.962   0.904   9.578
  296POPC   GL1 9073  40.811   1.204   9.207
  296POPC   GL2 9074  40.498   1.065   9.018
  296POPC   C1A 9075  40.868   1.287   8.748
  296POPC   D2A 9076  40.673   0.953   8.497
  296POPC   C3A 9077  40.801   0.845   8.084
  296POPC   C4A 9078  40.916   1.035   7.706
  296POPC   C1B 9079  40.377   1.364   8.655
  296POPC   C2B 9080  40.552   1.375   8.226
  296POPC   C3B 9081  40.485   1.311   7.785
  296POPC   C4B 9082  40.557   1.270   7.302
  297POPC   NC3 9083  33.435   0.496   9.561
  297POPC   PO4 9084  32.687   0.578   9.459
  297POPC   GL1 9085  32.873   0.555   9.085
  297POPC   GL2 9086  33.216   0.448   9.081
  297POPC   C1A 9087  32.896   0.292   8.707
  297POPC   D2A 9088  33.183   0.325   8.386
  297POPC   C3A 9089  33.021   0.473   8.031
  297POPC   C4A 9090  32.836   0.247   7.734
  297POPC   C1B 9091  33.127   0.754   8.696
  297POPC   C2B 9092  33.322   0.809   8.292
  297POPC   C3B 9093  33.521   0.593   7.937
  297POPC   C4B 9094  33.294   0.452   7.564
  298POPC   NC3 9095  11.704  12.274   9.317
  298POPC   PO4 9096  11.272  11.962   9.774
  298POPC   GL1 9097  11.336  11.840   9.315
  298POPC   GL2 9098  11.049  11.966   9.160
  298POPC   C1A 9099  11.362  11.612   8.875
  298POPC   D2A 9100  11.632  11.627   8.449
  298POPC   C3A 9101  11.461  11.882   8.084
  298POPC   C4A 9102  11.296  12.191   7.775
  298POPC   C1B 9103  11.120  12.059   8.692
  298POPC   C2B 9104  11.203  12.296   8.294
  298POPC   C3B 9105  10.914  12.457   7.956
  298POPC   C4B 9106  10.913  12.398   7.482
  299POPC   NC3 9107  31.286  20.150   9.529
  299POPC   PO4 9108  31.623  19.523   9.599
  299POPC   GL1 9109  31.479  19.675   9.182
  299POPC   GL2 9110  31.528  20.015   9.089
  299POPC   C1A 9111  31.489  19.659   8.719
  299POPC   D2A 9112  31.340  19.753   8.299
  299POPC   C3A 9113  31.536  19.632   7.950
  299POPC   C4A 9114  31.238  19.551   7.647
  299POPC   C1B 9115  31.469  20.237   8.682
  299POPC   C2B 9116  31.214  20.240   8.285
  299POPC   C3B 9117  31.198  20.051   7.886
  299POPC   C4B 9118  31.494  20.193   7.619
  300POPC   NC3 9119   8.808  22.584   9.262
  300POPC   PO4 9120   8.904  21.919   9.356
  300POPC   GL1 9121   9.067  22.109   9.016
  300POPC   GL2 9122   9.251  22.379   9.142
  300POPC   C1A 9123   8.940  22.141   8.581
  300POPC   D2A 9124   8.640  21.885   8.347
  300POPC   C3A 9125   8.749  21.905   7.905
  300POPC   C4A 9126   9.151  21.918   7.669
  300POPC   C1B 9127   9.346  22.425   8.731
  300POPC   C2B 9128   9.248  22.509   8.321
  300POPC   C3B 9129   9.335  22.311   7.964
  300POPC   C4B 9130   9.669  22.508   7.783
  301POPC   NC3 9131  23.410   6.172   9.573
  301POPC   PO4 9132  23.868   6.768   9.572
  301POPC   GL1 9133  23.837   6.703   9.164
  301POPC   GL2 9134  23.926   7.025   9.105
  301POPC   C1A 9135  23.586   6.514   8.843
  301POPC   D2A 9136  23.519   6.373   8.448
  301POPC   C3A 9137  23.711   6.554   8.104
  301POPC   C4A 9138  23.687   6.287   7.717
  301POPC   C1B 9139  23.855   6.900   8.671
  301POPC   C2B 9140  23.498   6.902   8.445
  301POPC   C3B 9141  23.375   6.994   8.036
  301POPC   C4B 9142  23.363   6.677   7.763
  302POPC   NC3 9143   5.385   4.781   9.902
  302POPC   PO4 9144   5.022   4.376   9.456
  302POPC   GL1 9145   5.127   4.195   9.061
  302POPC   GL2 9146   4.942   3.868   9.074
  302POPC   C1A 9147   5.359   4.282   8.682
  302POPC   D2A 9148   5.283   4.578   8.364
  302POPC   C3A 9149   5.346   4.615   7.932
  302POPC   C4A 9150   5.007   4.497   7.713
  302POPC   C1B 9151   4.874   4.085   8.642
  302POPC   C2B 9152   4.971   4.216   8.210
  302POPC   C3B 9153   4.761   4.072   7.868
  302POPC   C4B 9154   4.953   3.886   7.539
  303POPC   NC3 9155  20.633  36.079   9.534
  303POPC   PO4 9156  21.123  35.719   9.214
  303POPC   GL1 9157  20.798  35.972   9.058
  303POPC   GL2 9158  20.431  35.890   9.129
  303POPC   C1A 9159  20.573  36.228   8.765
  303POPC   D2A 9160  20.383  36.150   8.376
  303POPC   C3A 9161  20.676  36.317   8.087
  303POPC   C4A 9162  20.742  36.153   7.680
  303POPC   C1B 9163  20.516  35.735   8.700
  303POPC   C2B 9164  20.508  35.624   8.338
  303POPC   C3B 9165  20.587  35.785   7.986
  303POPC   C4B 9166  20.375  35.613   7.645
  304POPC   NC3 9167  38.135  25.509   9.511
  304POPC   PO4 9168  38.527  24.941   9.542
  304POPC   GL1 9169  38.496  25.222   9.194
  304POPC   GL2 9170  38.179  25.110   9.142
  304POPC   C1A 9171  38.331  25.487   8.802
  304POPC   D2A 9172  38.116  25.567   8.364
  304POPC   C3A 9173  38.331  25.440   7.919
  304POPC   C4A 9174  38.383  25.446   7.424
  304POPC   C1B 9175  38.368  24.975   8.754
  304POPC   C2B 9176  38.212  25.055   8.339
  304POPC   C3B 9177  38.216  24.897   7.928
  304POPC   C4B 9178  38.494  24.987   7.599
  305POPC   NC3 9179  10.627  25.041   9.588
  305POPC   PO4 9180  10.021  25.362   9.597
  305POPC   GL1 9181  10.279  25.200   9.271
  305POPC   GL2 9182  10.112  24.944   9.095
  305POPC   C1A 9183  10.628  25.350   8.981
  305POPC   D2A 9184  10.647  25.430   8.512
  305POPC   C3A 9185  10.555  25.134   8.195
  305POPC   C4A 9186  10.611  25.065   7.756
  305POPC   C1B 9187  10.163  25.267   8.779
  305POPC   C2B 9188  10.121  25.398   8.367
  305POPC   C3B 9189  10.112  25.207   7.953
  305POPC   C4B 9190  10.255  25.413   7.580
  306POPC   NC3 9191  40.580  13.402   9.363
  306POPC   PO4 9192  40.888  13.925   9.400
  306POPC   GL1 9193  40.845  13.716   9.004
  306POPC   GL2 9194  41.020  13.404   9.073
  306POPC   C1A 9195  40.817  13.747   8.529
  306POPC   D2A 9196  40.495  13.872   8.211
  306POPC   C3A 9197  40.725  13.907   7.856
  306POPC   C4A 9198  41.110  13.729   7.886
  306POPC   C1B 9199  40.868  13.240   8.666
  306POPC   C2B 9200  40.925  13.335   8.202
  306POPC   C3B 9201  40.864  13.279   7.742
  306POPC   C4B 9202  40.665  13.346   7.319
  307POPC   NC3 9203  26.068  39.204   9.950
  307POPC   PO4 9204  26.526  39.453   9.513
  307POPC   GL1 9205  26.240  39.145   9.220
  307POPC   GL2 9206  25.901  38.954   9.212
  307POPC   C1A 9207  26.303  38.976   8.776
  307POPC   D2A 9208  26.126  38.831   8.368
  307POPC   C3A 9209  26.339  39.065   8.013
  307POPC   C4A 9210  26.222  38.994   7.558
  307POPC   C1B 9211  25.824  39.090   8.772
  307POPC   C2B 9212  25.962  39.308   8.365
  307POPC   C3B 9213  25.854  39.138   7.949
  307POPC   C4B 9214  25.483  39.044   7.788
  308POPC   NC3 9215  17.341   1.036   9.492
  308POPC   PO4 9216  17.933   1.313   9.596
  308POPC   GL1 9217  17.716   1.202   9.180
  308POPC   GL2 9218  17.414   1.394   9.103
  308POPC   C1A 9219  17.584   1.123   8.712
  308POPC   D2A 9220  17.511   1.409   8.365
  308POPC   C3A 9221  17.727   1.263   8.009
  308POPC   C4A 9222  17.763   0.881   7.791
  308POPC   C1B 9223  17.151   1.375   8.755
  308POPC   C2B 9224  17.110   1.092   8.386
  308POPC   C3B 9225  17.199   1.222   7.974
  308POPC   C4B 9226  17.037   1.490   7.653
  309POPC   NC3 9227  39.347  22.761   9.763
  309POPC   PO4 9228  38.780  23.078   9.600
  309POPC   GL1 9229  39.029  22.839   9.314
  309POPC   GL2 9230  39.381  22.924   9.259
  309POPC   C1A 9231  39.080  22.654   8.909
  309POPC   D2A 9232  39.263  22.823   8.532
  309POPC   C3A 9233  39.091  22.791   8.133
  309POPC   C4A 9234  39.196  22.993   7.790
  309POPC   C1B 9235  39.603  22.738   8.904
  309POPC   C2B 9236  39.762  22.706   8.509
  309POPC   C3B 9237  39.649  22.843   8.107
  309POPC   C4B 9238  39.692  23.075   7.759
  310POPC   NC3 9239   4.699  28.988   9.502
  310POPC   PO4 9240   5.253  28.725   9.546
  310POPC   GL1 9241   5.273  29.027   9.237
  310POPC   GL2 9242   5.017  28.866   9.063
  310POPC   C1A 9243   5.252  29.304   8.871
  310POPC   D2A 9244   5.062  29.360   8.465
  310POPC   C3A 9245   5.272  29.402   8.087
  310POPC   C4A 9246   5.241  29.168   7.755
  310POPC   C1B 9247   5.164  28.856   8.622
  310POPC   C2B 9248   5.088  28.915   8.165
  310POPC   C3B 9249   5.103  28.675   7.736
  310POPC   C4B 9250   4.948  28.648   7.283
  311POPC   NC3 9251  37.993  38.812   9.607
  311POPC   PO4 9252  37.465  38.317   9.538
  311POPC   GL1 9253  37.648  38.540   9.183
  311POPC   GL2 9254  37.897  38.303   9.148
  311POPC   C1A 9255  37.754  38.590   8.724
  311POPC   D2A 9256  37.502  38.502   8.351
  311POPC   C3A 9257  37.604  38.652   7.952
  311POPC   C4A 9258  37.566  38.499   7.550
  311POPC   C1B 9259  37.916  38.056   8.743
  311POPC   C2B 9260  37.926  38.229   8.331
  311POPC   C3B 9261  37.881  38.205   7.860
  311POPC   C4B 9262  37.952  38.172   7.398
  312POPC   NC3 9263   7.709  36.012   9.446
  312POPC   PO4 9264   8.303  36.255   9.638
  312POPC   GL1 9265   8.158  36.213   9.251
  312POPC   GL2 9266   8.168  35.859   9.230
  312POPC   C1A 9267   8.159  36.440   8.883
  312POPC   D2A 9268   7.989  36.463   8.491
  312POPC   C3A 9269   8.216  36.421   8.105
  312POPC   C4A 9270   8.067  36.344   7.708
  312POPC   C1B 9271   8.070  35.959   8.788
  312POPC   C2B 9272   8.117  35.988   8.347
  312POPC   C3B 9273   8.041  35.876   7.926
  312POPC   C4B 9274   8.310  35.645   7.634
  313POPC   NC3 9275  33.757  37.210  10.158
  313POPC   PO4 9276  33.918  37.025   9.609
  313POPC   GL1 9277  33.956  36.894   9.162
  313POPC   GL2 9278  34.183  36.619   9.097
  313POPC   C1A 9279  33.822  36.972   8.728
  313POPC   D2A 9280  34.006  36.945   8.308
  313POPC   C3A 9281  33.786  37.093   7.927
  313POPC   C4A 9282  33.902  37.210   7.509
  313POPC   C1B 9283  34.086  36.538   8.666
  313POPC   C2B 9284  33.976  36.434   8.229
  313POPC   C3B 9285  34.069  36.677   7.872
  313POPC   C4B 9286  33.790  36.729   7.526
  314POPC   NC3 9287  19.701  21.085   9.542
  314POPC   PO4 9288  19.976  21.629   9.532
  314POPC   GL1 9289  19.682  21.471   9.207
  314POPC   GL2 9290  19.995  21.415   9.069
  314POPC   C1A 9291  19.585  21.230   8.856
  314POPC   D2A 9292  19.946  21.268   8.584
  314POPC   C3A 9293  19.814  21.252   8.197
  314POPC   C4A 9294  19.925  21.227   7.799
  314POPC   C1B 9295  20.189  21.699   8.779
  314POPC   C2B 9296  20.291  21.815   8.368
  314POPC   C3B 9297  20.175  21.618   8.041
  314POPC   C4B 9298  20.182  21.731   7.663
  315POPC   NC3 9299  39.681  42.481   9.393
  315POPC   PO4 9300  40.301  42.334   9.410
  315POPC   GL1 9301  40.162  42.148   9.043
  315POPC   GL2 9302  39.815  42.059   9.098
  315POPC   C1A 9303  40.113  42.314   8.618
  315POPC   D2A 9304  40.261  42.714   8.413
  315POPC   C3A 9305  40.095  42.720   7.999
  315POPC   C4A 9306  39.969  42.321   7.824
  315POPC   C1B 9307  39.647  42.165   8.699
  315POPC   C2B 9308  39.752  42.186   8.270
  315POPC   C3B 9309  39.732  41.874   7.939
  315POPC   C4B 9310  39.856  41.808   7.529
  316POPC   NC3 9311  17.190  14.952   9.347
  316POPC   PO4 9312  17.901  15.122   9.541
  316POPC   GL1 9313  17.695  15.046   9.147
  316POPC   GL2 9314  17.552  15.362   9.140
  316POPC   C1A 9315  17.821  14.982   8.708
  316POPC   D2A 9316  17.865  15.146   8.313
  316POPC   C3A 9317  17.512  15.122   8.037
  316POPC   C4A 9318  17.633  15.382   7.695
  316POPC   C1B 9319  17.371  15.248   8.747
  316POPC   C2B 9320  17.134  15.347   8.388
  316POPC   C3B 9321  17.182  15.544   8.029
  316POPC   C4B 9322  17.138  15.432   7.627
  317POPC   NC3 9323  13.088  27.486   9.591
  317POPC   PO4 9324  12.566  27.810   9.519
  317POPC   GL1 9325  12.648  27.568   9.170
  317POPC   GL2 9326  12.943  27.710   9.134
  317POPC   C1A 9327  12.565  27.739   8.769
  317POPC   D2A 9328  12.804  27.803   8.398
  317POPC   C3A 9329  12.836  27.549   8.041
  317POPC   C4A 9330  12.629  27.762   7.734
  317POPC   C1B 9331  13.008  27.504   8.759
  317POPC   C2B 9332  13.158  27.413   8.399
  317POPC   C3B 9333  13.469  27.463   8.149
  317POPC   C4B 9334  13.561  27.458   7.728
  318POPC   NC3 9335  33.448  20.458   9.370
  318POPC   PO4 9336  34.087  20.536   9.660
  318POPC   GL1 9337  34.127  20.706   9.169
  318POPC   GL2 9338  33.778  20.803   9.198
  318POPC   C1A 9339  33.974  20.695   8.705
  318POPC   D2A 9340  33.908  20.421   8.351
  318POPC   C3A 9341  34.130  20.477   7.966
  318POPC   C4A 9342  34.130  20.533   7.487
  318POPC   C1B 9343  33.582  20.980   8.834
  318POPC   C2B 9344  33.566  20.842   8.424
  318POPC   C3B 9345  33.772  20.832   8.073
  318POPC   C4B 9346  33.647  21.051   7.751
  319POPC   NC3 9347   7.567  40.118   9.531
  319POPC   PO4 9348   7.106  39.683   9.637
  319POPC   GL1 9349   7.199  39.867   9.220
  319POPC   GL2 9350   7.549  39.993   9.056
  319POPC   C1A 9351   7.136  39.987   8.795
  319POPC   D2A 9352   7.442  39.887   8.497
  319POPC   C3A 9353   7.269  39.977   8.114
  319POPC   C4A 9354   7.357  39.881   7.717
  319POPC   C1B 9355   7.733  40.272   8.735
  319POPC   C2B 9356   7.614  40.319   8.287
  319POPC   C3B 9357   7.512  40.348   7.825
  319POPC   C4B 9358   7.615  40.180   7.404
  320POPC   NC3 9359  29.648  20.447   9.288
  320POPC   PO4 9360  30.255  20.220   9.434
  320POPC   GL1 9361  30.142  20.451   9.082
  320POPC   GL2 9362  30.275  20.228   8.868
  320POPC   C1A 9363  30.155  20.821   8.780
  320POPC   D2A 9364  30.165  20.959   8.349
  320POPC   C3A 9365  29.886  20.948   7.995
  320POPC   C4A 9366  30.149  20.962   7.674
  320POPC   C1B 9367  29.912  20.401   8.629
  320POPC   C2B 9368  29.956  20.507   8.217
  320POPC   C3B 9369  30.070  20.476   7.807
  320POPC   C4B 9370  29.861  20.255   7.484
  321POPC   NC3 9371   7.506  21.956   9.554
  321POPC   PO4 9372   7.465  22.681   9.557
  321POPC   GL1 9373   7.470  22.347   9.256
  321POPC   GL2 9374   7.129  22.206   9.298
  321POPC   C1A 9375   7.518  22.273   8.837
  321POPC   D2A 9376   7.483  22.334   8.407
  321POPC   C3A 9377   7.627  22.002   8.140
  321POPC   C4A 9378   7.702  22.167   7.727
  321POPC   C1B 9379   7.041  22.114   8.875
  321POPC   C2B 9380   7.219  21.901   8.542
  321POPC   C3B 9381   7.144  21.870   8.085
  321POPC   C4B 9382   7.146  22.058   7.695
  322POPC   NC3 9383  17.744   2.260   9.551
  322POPC   PO4 9384  17.424   1.694   9.494
  322POPC   GL1 9385  17.509   2.003   9.188
  322POPC   GL2 9386  17.223   1.989   9.028
  322POPC   C1A 9387  17.768   2.039   8.813
  322POPC   D2A 9388  17.933   1.771   8.490
  322POPC   C3A 9389  17.673   1.837   8.138
  322POPC   C4A 9390  17.481   1.664   7.806
  322POPC   C1B 9391  17.088   2.235   8.700
  322POPC   C2B 9392  17.237   2.241   8.294
  322POPC   C3B 9393  17.289   2.190   7.890
  322POPC   C4B 9394  17.179   1.976   7.523
  323POPC   NC3 9395  40.429  24.815   9.547
  323POPC   PO4 9396  40.049  24.259   9.572
  323POPC   GL1 9397  40.263  24.359   9.211
  323POPC   GL2 9398  40.200  24.700   9.115
  323POPC   C1A 9399  40.039  24.331   8.806
  323POPC   D2A 9400  40.057  24.554   8.442
  323POPC   C3A 9401  40.007  24.286   8.113
  323POPC   C4A 9402  40.303  24.197   7.771
  323POPC   C1B 9403  39.826  24.810   8.873
  323POPC   C2B 9404  39.629  24.833   8.473
  323POPC   C3B 9405  39.772  24.777   8.044
  323POPC   C4B 9406  40.184  24.699   7.908
  324POPC   NC3 9407  27.675  31.892   9.541
  324POPC   PO4 9408  27.283  31.348   9.449
  324POPC   GL1 9409  27.603  31.483   9.176
  324POPC   GL2 9410  27.374  31.777   9.138
  324POPC   C1A 9411  27.726  31.247   8.788
  324POPC   D2A 9412  28.019  31.206   8.488
  324POPC   C3A 9413  27.819  31.144   8.101
  324POPC   C4A 9414  27.808  31.275   7.703
  324POPC   C1B 9415  27.475  31.671   8.718
  324POPC   C2B 9416  27.689  31.572   8.353
  324POPC   C3B 9417  27.682  31.699   7.942
  324POPC   C4B 9418  27.656  31.720   7.479
  325POPC   NC3 9419  25.730  17.778   9.270
  325POPC   PO4 9420  26.282  17.995   9.575
  325POPC   GL1 9421  26.265  17.908   9.144
  325POPC   GL2 9422  26.101  18.219   9.089
  325POPC   C1A 9423  26.288  17.972   8.677
  325POPC   D2A 9424  26.044  18.134   8.305
  325POPC   C3A 9425  26.054  17.972   7.871
  325POPC   C4A 9426  26.227  18.119   7.453
  325POPC   C1B 9427  26.002  18.449   8.722
  325POPC   C2B 9428  25.792  18.647   8.377
  325POPC   C3B 9429  25.849  18.513   8.002
  325POPC   C4B 9430  26.172  18.609   7.764
  326POPC   NC3 9431  29.869  19.968   9.540
  326POPC   PO4 9432  30.163  19.427   9.195
  326POPC   GL1 9433  29.964  19.782   9.065
  326POPC   GL2 9434  29.630  19.735   9.117
  326POPC   C1A 9435  29.962  19.901   8.664
  326POPC   D2A 9436  30.220  20.081   8.344
  326POPC   C3A 9437  30.026  20.000   7.985
  326POPC   C4A 9438  29.994  19.791   7.618
  326POPC   C1B 9439  29.534  19.611   8.707
  326POPC   C2B 9440  29.709  19.664   8.300
  326POPC   C3B 9441  29.784  19.471   7.951
  326POPC   C4B 9442  29.528  19.572   7.612
  327POPC   NC3 9443   5.224  12.758   9.596
  327POPC   PO4 9444   4.662  12.869   9.362
  327POPC   GL1 9445   4.905  12.591   9.088
  327POPC   GL2 9446   5.277  12.611   9.104
  327POPC   C1A 9447   5.074  12.539   8.645
  327POPC   D2A 9448   5.020  12.808   8.272
  327POPC   C3A 9449   5.093  12.604   7.859
  327POPC   C4A 9450   5.458  12.380   7.674
  327POPC   C1B 9451   5.440  12.878   8.730
  327POPC   C2B 9452   5.506  12.932   8.255
  327POPC   C3B 9453   5.235  13.088   7.865
  327POPC   C4B 9454   5.159  13.302   7.452
  328POPC   NC3 9455  38.523   9.191   9.576
  328POPC   PO4 9456  37.979   9.089   9.375
  328POPC   GL1 9457  38.244   9.129   9.023
  328POPC   GL2 9458  38.516   8.929   9.122
  328POPC   C1A 9459  38.272   9.153   8.551
  328POPC   D2A 9460  38.297   9.396   8.163
  328POPC   C3A 9461  38.193   9.127   7.794
  328POPC   C4A 9462  38.319   8.777   7.484
  328POPC   C1B 9463  38.718   9.181   8.800
  328POPC   C2B 9464  38.759   9.227   8.345
  328POPC   C3B 9465  38.686   9.081   7.909
  328POPC   C4B 9466  38.685   9.132   7.439
  329POPC   NC3 9467  11.084   3.839   9.423
  329POPC   PO4 9468  11.368   3.169   9.470
  329POPC   GL1 9469  11.303   3.447   9.129
  329POPC   GL2 9470  11.481   3.782   9.071
  329POPC   C1A 9471  11.204   3.261   8.748
  329POPC   D2A 9472  11.208   3.168   8.316
  329POPC   C3A 9473  11.494   3.370   7.991
  329POPC   C4A 9474  11.461   3.801   7.788
  329POPC   C1B 9475  11.114   3.785   8.771
  329POPC   C2B 9476  10.928   3.742   8.359
  329POPC   C3B 9477  11.027   3.597   7.955
  329POPC   C4B 9478  11.006   3.811   7.532
  330POPC   NC3 9479  17.182  12.256   9.651
  330POPC   PO4 9480  17.669  11.839   9.494
  330POPC   GL1 9481  17.434  11.887   9.145
  330POPC   GL2 9482  17.404  12.238   9.175
  330POPC   C1A 9483  17.515  11.953   8.716
  330POPC   D2A 9484  17.659  11.887   8.303
  330POPC   C3A 9485  17.496  12.159   8.008
  330POPC   C4A 9486  17.137  12.317   7.754
  330POPC   C1B 9487  17.753  12.369   8.902
  330POPC   C2B 9488  17.710  12.416   8.443
  330POPC   C3B 9489  17.838  12.555   8.029
  330POPC   C4B 9490  17.587  12.517   7.656
  331POPC   NC3 9491  18.865  16.518   9.314
  331POPC   PO4 9492  19.359  16.890   9.420
  331POPC   GL1 9493  19.067  16.949   9.122
  331POPC   GL2 9494  19.242  16.643   8.963
  331POPC   C1A 9495  18.851  16.858   8.743
  331POPC   D2A 9496  19.099  16.725   8.412
  331POPC   C3A 9497  18.827  16.495   8.174
  331POPC   C4A 9498  18.553  16.568   7.844
  331POPC   C1B 9499  19.489  16.973   8.757
  331POPC   C2B 9500  19.409  17.189   8.377
  331POPC   C3B 9501  19.203  17.052   8.004
  331POPC   C4B 9502  19.459  16.996   7.667
  332POPC   NC3 9503   6.557  28.877   9.561
  332POPC   PO4 9504   6.708  28.156   9.545
  332POPC   GL1 9505   6.641  28.315   9.174
  332POPC   GL2 9506   6.706  28.682   9.127
  332POPC   C1A 9507   6.437  28.362   8.811
  332POPC   D2A 9508   6.648  28.359   8.448
  332POPC   C3A 9509   6.472  28.339   8.066
  332POPC   C4A 9510   6.710  28.213   7.741
  332POPC   C1B 9511   6.980  28.743   8.801
  332POPC   C2B 9512   7.115  28.557   8.429
  332POPC   C3B 9513   6.927  28.548   8.068
  332POPC   C4B 9514   6.814  28.719   7.729
  333POPC   NC3 9515   4.267   5.254   9.280
  333POPC   PO4 9516   4.528   4.803   9.691
  333POPC   GL1 9517   4.516   4.781   9.217
  333POPC   GL2 9518   4.179   4.775   9.100
  333POPC   C1A 9519   4.560   4.986   8.754
  333POPC   D2A 9520   4.434   4.998   8.289
  333POPC   C3A 9521   4.414   5.265   7.891
  333POPC   C4A 9522   4.571   5.254   7.460
  333POPC   C1B 9523   4.070   4.786   8.665
  333POPC   C2B 9524   4.122   4.589   8.262
  333POPC   C3B 9525   4.155   4.814   7.899
  333POPC   C4B 9526   3.913   5.199   7.795
  334POPC   NC3 9527  31.321  42.835   9.577
  334POPC   PO4 9528  31.429  42.218   9.310
  334POPC   GL1 9529  31.646  42.394   8.987
  334POPC   GL2 9530  31.679  42.702   9.181
  334POPC   C1A 9531  31.479  42.396   8.580
  334POPC   D2A 9532  31.091  42.374   8.332
  334POPC   C3A 9533  31.354  42.460   7.996
  334POPC   C4A 9534  31.681  42.191   7.870
  334POPC   C1B 9535  31.283  42.735   8.917
  334POPC   C2B 9536  31.249  42.842   8.462
  334POPC   C3B 9537  30.997  42.812   8.066
  334POPC   C4B 9538  31.164  42.815   7.659
  335POPC   NC3 9539  35.674  10.741   9.430
  335POPC   PO4 9540  34.961  10.942   9.406
  335POPC   GL1 9541  35.176  10.563   9.173
  335POPC   GL2 9542  35.535  10.566   8.989
  335POPC   C1A 9543  35.136  10.365   8.760
  335POPC   D2A 9544  35.422  10.470   8.442
  335POPC   C3A 9545  35.317  10.624   8.056
  335POPC   C4A 9546  35.283  10.479   7.652
  335POPC   C1B 9547  35.750  10.812   8.692
  335POPC   C2B 9548  35.785  10.761   8.261
  335POPC   C3B 9549  35.797  10.553   7.865
  335POPC   C4B 9550  36.028  10.705   7.517
  336POPC   NC3 9551  44.162  33.673   9.557
  336POPC   PO4 9552  44.782  33.605   9.484
  336POPC   GL1 9553  44.562  33.769   9.143
  336POPC   GL2 9554  44.432  33.450   8.950
  336POPC   C1A 9555  44.641  34.135   8.836
  336POPC   D2A 9556  44.676  34.356   8.426
  336POPC   C3A 9557  44.671  34.153   8.045
  336POPC   C4A 9558  44.785  33.927   7.662
  336POPC   C1B 9559  44.756  33.652   8.703
  336POPC   C2B 9560  44.886  33.863   8.398
  336POPC   C3B 9561  44.879  33.642   8.054
  336POPC   C4B 9562   0.208  33.457   7.877
  337POPC   NC3 9563  24.712   5.687   9.120
  337POPC   PO4 9564  24.593   6.282   9.418
  337POPC   GL1 9565  24.394   6.226   9.026
  337POPC   GL2 9566  24.022   6.223   9.076
  337POPC   C1A 9567  24.495   6.165   8.565
  337POPC   D2A 9568  24.630   6.266   8.095
  337POPC   C3A 9569  24.610   5.915   7.802
  337POPC   C4A 9570  24.819   5.473   7.751
  337POPC   C1B 9571  23.979   6.239   8.628
  337POPC   C2B 9572  24.168   6.394   8.242
  337POPC   C3B 9573  24.220   6.329   7.774
  337POPC   C4B 9574  24.329   6.141   7.376
  338POPC   NC3 9575  40.955  19.991   9.558
  338POPC   PO4 9576  41.560  20.185   9.459
  338POPC   GL1 9577  41.348  19.909   9.198
  338POPC   GL2 9578  41.099  20.062   9.093
  338POPC   C1A 9579  41.440  19.690   8.809
  338POPC   D2A 9580  41.679  19.771   8.415
  338POPC   C3A 9581  41.502  19.737   7.979
  338POPC   C4A 9582  41.547  19.885   7.558
  338POPC   C1B 9583  40.973  19.904   8.763
  338POPC   C2B 9584  41.147  19.775   8.383
  338POPC   C3B 9585  41.008  19.922   7.997
  338POPC   C4B 9586  41.033  19.975   7.546
  339POPC   NC3 9587  27.886  40.432   9.252
  339POPC   PO4 9588  28.167  40.798   9.740
  339POPC   GL1 9589  28.115  40.899   9.288
  339POPC   GL2 9590  28.425  40.783   9.202
  339POPC   C1A 9591  28.105  40.836   8.795
  339POPC   D2A 9592  28.301  40.941   8.414
  339POPC   C3A 9593  28.145  40.905   8.037
  339POPC   C4A 9594  28.347  40.741   7.651
  339POPC   C1B 9595  28.626  40.766   8.794
  339POPC   C2B 9596  28.510  40.493   8.463
  339POPC   C3B 9597  28.380  40.437   8.056
  339POPC   C4B 9598  28.707  40.344   7.753
  340POPC   NC3 9599  33.883   2.509   9.472
  340POPC   PO4 9600  33.876   3.218   9.480
  340POPC   GL1 9601  33.810   2.921   9.166
  340POPC   GL2 9602  34.153   2.884   9.131
  340POPC   C1A 9603  33.854   2.801   8.723
  340POPC   D2A 9604  33.707   2.572   8.371
  340POPC   C3A 9605  33.672   2.742   7.961
  340POPC   C4A 9606  33.590   2.576   7.528
  340POPC   C1B 9607  34.264   2.497   8.863
  340POPC   C2B 9608  34.220   2.376   8.452
  340POPC   C3B 9609  34.335   2.447   8.057
  340POPC   C4B 9610  34.144   2.721   7.798
  341POPC   NC3 9611  13.275  39.267   9.513
  341POPC   PO4 9612  12.708  38.952   9.431
  341POPC   GL1 9613  12.756  39.201   9.049
  341POPC   GL2 9614  13.069  39.367   9.065
  341POPC   C1A 9615  12.749  39.090   8.598
  341POPC   D2A 9616  12.787  38.860   8.189
  341POPC   C3A 9617  12.927  39.142   7.906
  341POPC   C4A 9618  13.181  39.217   7.590
  341POPC   C1B 9619  13.166  39.545   8.697
  341POPC   C2B 9620  13.092  39.479   8.261
  341POPC   C3B 9621  13.319  39.607   7.890
  341POPC   C4B 9622  13.325  39.682   7.414
  342POPC   NC3 9623  13.083  42.683   9.548
  342POPC   PO4 9624  12.514  42.919   9.330
  342POPC   GL1 9625  12.902  42.941   9.142
  342POPC   GL2 9626  13.103  43.252   9.221
  342POPC   C1A 9627  12.922  43.038   8.740
  342POPC   D2A 9628  12.743  43.262   8.435
  342POPC   C3A 9629  12.908  43.075   8.080
  342POPC   C4A 9630  13.085  43.123   7.697
  342POPC   C1B 9631  13.356  43.272   8.845
  342POPC   C2B 9632  13.297  43.427   8.448
  342POPC   C3B 9633  13.416  43.303   8.050
  342POPC   C4B 9634  13.383  43.527   7.671
  343POPC   NC3 9635  42.226  14.056   9.388
  343POPC   PO4 9636  42.197  14.717   9.548
  343POPC   GL1 9637  42.379  14.542   9.182
  343POPC   GL2 9638  42.634  14.295   9.187
  343POPC   C1A 9639  42.303  14.584   8.748
  343POPC   D2A 9640  42.172  14.320   8.398
  343POPC   C3A 9641  42.283  14.573   8.060
  343POPC   C4A 9642  42.273  14.612   7.633
  343POPC   C1B 9643  42.488  14.085   8.784
  343POPC   C2B 9644  42.493  13.893   8.356
  343POPC   C3B 9645  42.403  14.081   7.969
  343POPC   C4B 9646  42.653  14.338   7.764
  344POPC   NC3 9647  41.049  14.364   9.365
  344POPC   PO4 9648  40.559  14.868   9.441
  344POPC   GL1 9649  40.657  14.610   9.081
  344POPC   GL2 9650  40.626  14.230   9.070
  344POPC   C1A 9651  40.633  14.623   8.628
  344POPC   D2A 9652  40.553  14.765   8.208
  344POPC   C3A 9653  40.625  14.440   7.927
  344POPC   C4A 9654  40.618  14.297   7.501
  344POPC   C1B 9655  40.931  14.195   8.743
  344POPC   C2B 9656  40.886  14.246   8.318
  344POPC   C3B 9657  41.101  14.243   7.935
  344POPC   C4B 9658  41.091  14.117   7.499
  345POPC   NC3 9659  15.184   9.528   9.473
  345POPC   PO4 9660  14.650  10.093   9.503
  345POPC   GL1 9661  14.953   9.912   9.206
  345POPC   GL2 9662  15.300  10.043   9.124
  345POPC   C1A 9663  15.019   9.668   8.831
  345POPC   D2A 9664  15.339   9.725   8.525
  345POPC   C3A 9665  15.201   9.702   8.141
  345POPC   C4A 9666  15.258   9.335   7.939
  345POPC   C1B 9667  15.633  10.049   8.774
  345POPC   C2B 9668  15.780   9.988   8.362
  345POPC   C3B 9669  15.575   9.982   7.936
  345POPC   C4B 9670  15.384   9.724   7.603
  346POPC   NC3 9671  14.977  39.888   9.463
  346POPC   PO4 9672  15.606  40.152   9.597
  346POPC   GL1 9673  15.386  40.097   9.240
  346POPC   GL2 9674  15.448  39.772   9.186
  346POPC   C1A 9675  15.123  40.163   8.868
  346POPC   D2A 9676  14.925  39.983   8.478
  346POPC   C3A 9677  15.049  40.229   8.120
  346POPC   C4A 9678  15.333  40.043   7.841
  346POPC   C1B 9679  15.149  39.632   8.856
  346POPC   C2B 9680  15.027  39.450   8.466
  346POPC   C3B 9681  15.042  39.634   8.065
  346POPC   C4B 9682  14.793  39.932   7.811
  347POPC   NC3 9683  29.443   8.668   9.322
  347POPC   PO4 9684  29.006   9.095   9.721
  347POPC   GL1 9685  29.008   8.976   9.263
  347POPC   GL2 9686  29.317   9.116   9.103
  347POPC   C1A 9687  29.000   8.769   8.825
  347POPC   D2A 9688  28.912   8.862   8.380
  347POPC   C3A 9689  28.922   8.519   8.098
  347POPC   C4A 9690  29.219   8.617   7.781
  347POPC   C1B 9691  29.217   9.202   8.661
  347POPC   C2B 9692  29.264   9.185   8.185
  347POPC   C3B 9693  29.212   9.138   7.731
  347POPC   C4B 9694  29.323   9.353   7.318
  348POPC   NC3 9695   0.101  13.828   9.455
  348POPC   PO4 9696   0.841  13.831   9.427
  348POPC   GL1 9697   0.510  13.637   9.156
  348POPC   GL2 9698   0.714  13.684   8.934
  348POPC   C1A 9699   0.246  13.530   8.760
  348POPC   D2A 9700   0.149  13.684   8.396
  348POPC   C3A 9701   0.025  13.434   8.076
  348POPC   C4A 9702   0.152  13.517   7.677
  348POPC   C1B 9703   0.718  13.349   8.674
  348POPC   C2B 9704   0.434  13.241   8.361
  348POPC   C3B 9705   0.529  13.551   8.076
  348POPC   C4B 9706   0.629  13.652   7.681
  349POPC   NC3 9707  25.471  39.613   9.681
  349POPC   PO4 9708  25.029  40.065   9.375
  349POPC   GL1 9709  25.323  39.870   9.164
  349POPC   GL2 9710  25.097  39.689   8.917
  349POPC   C1A 9711  25.524  39.917   8.784
  349POPC   D2A 9712  25.311  39.851   8.403
  349POPC   C3A 9713  25.421  39.957   8.026
  349POPC   C4A 9714  25.075  40.026   7.758
  349POPC   C1B 9715  25.042  40.106   8.730
  349POPC   C2B 9716  24.967  40.323   8.340
  349POPC   C3B 9717  24.740  40.390   7.957
  349POPC   C4B 9718  24.857  40.426   7.520
  350POPC   NC3 9719   8.361  31.339   9.471
  350POPC   PO4 9720   7.740  31.393   9.453
  350POPC   GL1 9721   7.995  31.429   9.098
  350POPC   GL2 9722   8.289  31.198   8.988
  350POPC   C1A 9723   7.908  31.349   8.684
  350POPC   D2A 9724   8.076  30.984   8.519
  350POPC   C3A 9725   8.045  31.203   8.140
  350POPC   C4A 9726   8.211  31.180   7.754
  350POPC   C1B 9727   8.411  31.369   8.565
  350POPC   C2B 9728   8.442  31.521   8.132
  350POPC   C3B 9729   8.404  31.685   7.709
  350POPC   C4B 9730   8.522  31.868   7.306
  351POPC   NC3 9731  33.076   2.402   9.487
  351POPC   PO4 9732  32.998   3.128   9.544
  351POPC   GL1 9733  33.018   2.942   9.155
  351POPC   GL2 9734  32.703   2.718   9.233
  351POPC   C1A 9735  33.273   2.704   8.795
  351POPC   D2A 9736  33.228   2.403   8.421
  351POPC   C3A 9737  33.190   2.602   8.032
  351POPC   C4A 9738  33.080   2.585   7.617
  351POPC   C1B 9739  32.758   2.736   8.781
  351POPC   C2B 9740  32.952   2.873   8.389
  351POPC   C3B 9741  32.769   2.908   7.945
  351POPC   C4B 9742  32.858   3.063   7.519
  352POPC   NC3 9743  30.413   6.299   9.504
  352POPC   PO4 9744  30.913   6.818   9.477
  352POPC   GL1 9745  30.704   6.637   9.137
  352POPC   GL2 9746  30.532   6.322   9.020
  352POPC   C1A 9747  30.656   6.773   8.735
  352POPC   D2A 9748  30.426   6.790   8.364
  352POPC   C3A 9749  30.654   6.863   8.027
  352POPC   C4A 9750  30.425   6.587   7.803
  352POPC   C1B 9751  30.943   6.299   8.832
  352POPC   C2B 9752  31.002   6.511   8.445
  352POPC   C3B 9753  30.843   6.392   8.056
  352POPC   C4B 9754  31.047   6.281   7.717
  353POPC   NC3 9755   6.229   2.012   9.505
  353POPC   PO4 9756   5.604   2.022   9.543
  353POPC   GL1 9757   5.848   2.127   9.218
  353POPC   GL2 9758   5.881   2.453   9.170
  353POPC   C1A 9759   6.176   2.200   8.845
  353POPC   D2A 9760   6.223   2.392   8.436
  353POPC   C3A 9761   6.212   2.140   8.062
  353POPC   C4A 9762   6.023   1.920   7.703
  353POPC   C1B 9763   5.663   2.241   8.789
  353POPC   C2B 9764   5.831   2.028   8.446
  353POPC   C3B 9765   5.703   2.103   8.046
  353POPC   C4B 9766   5.553   2.175   7.654
  354POPC   NC3 9767  32.064  32.148   9.787
  354POPC   PO4 9768  32.426  32.588   9.410
  354POPC   GL1 9769  32.322  32.322   9.069
  354POPC   GL2 9770  32.556  32.067   9.093
  354POPC   C1A 9771  32.314  32.410   8.605
  354POPC   D2A 9772  32.640  32.462   8.328
  354POPC   C3A 9773  32.492  32.557   7.930
  354POPC   C4A 9774  32.046  32.524   7.743
  354POPC   C1B 9775  32.357  31.940   8.732
  354POPC   C2B 9776  32.584  31.953   8.390
  354POPC   C3B 9777  32.435  32.060   7.999
  354POPC   C4B 9778  32.071  32.024   7.816
  355POPC   NC3 9779  19.514  42.162   9.466
  355POPC   PO4 9780  18.797  42.371   9.504
  355POPC   GL1 9781  19.141  42.434   9.188
  355POPC   GL2 9782  18.903  42.331   8.968
  355POPC   C1A 9783  19.320  42.485   8.755
  355POPC   D2A 9784  19.443  42.158   8.470
  355POPC   C3A 9785  19.184  42.283   8.131
  355POPC   C4A 9786  19.224  42.477   7.740
  355POPC   C1B 9787  18.844  42.566   8.546
  355POPC   C2B 9788  18.641  42.821   8.193
  355POPC   C3B 9789  18.524  42.597   7.850
  355POPC   C4B 9790  18.773  42.236   7.759
  356POPC   NC3 9791  27.767  35.234   9.395
  356POPC   PO4 9792  27.131  35.232   9.426
  356POPC   GL1 9793  27.384  35.198   9.050
  356POPC   GL2 9794  27.162  35.054   8.876
  356POPC   C1A 9795  27.755  35.218   8.728
  356POPC   D2A 9796  28.002  34.992   8.374
  356POPC   C3A 9797  28.014  35.157   7.922
  356POPC   C4A 9798  27.767  35.218   7.545
  356POPC   C1B 9799  27.282  35.284   8.527
  356POPC   C2B 9800  27.590  35.282   8.220
  356POPC   C3B 9801  27.579  35.556   7.874
  356POPC   C4B 9802  27.243  35.698   7.610
  357POPC   NC3 9803  43.390  44.998   9.557
  357POPC   PO4 9804  43.530   0.732   9.611
  357POPC   GL1 9805  43.195   0.563   9.341
  357POPC   GL2 9806  42.995   0.832   9.174
  357POPC   C1A 9807  43.147   0.333   8.967
  357POPC   D2A 9808  43.021   0.277   8.529
  357POPC   C3A 9809  43.267   0.068   8.210
  357POPC   C4A 9810  43.083   0.186   7.837
  357POPC   C1B 9811  42.890   0.734   8.748
  357POPC   C2B 9812  43.115   0.749   8.332
  357POPC   C3B 9813  43.008   0.824   7.895
  357POPC   C4B 9814  43.262   0.846   7.530
  358POPC   NC3 9815  24.524  16.553   9.396
  358POPC   PO4 9816  24.610  17.184   9.576
  358POPC   GL1 9817  24.549  17.013   9.121
  358POPC   GL2 9818  24.359  16.681   8.946
  358POPC   C1A 9819  24.655  16.975   8.678
  358POPC   D2A 9820  24.315  16.778   8.381
  358POPC   C3A 9821  24.471  16.614   7.978
  358POPC   C4A 9822  24.691  16.732   7.616
  358POPC   C1B 9823  24.807  16.516   8.821
  358POPC   C2B 9824  24.982  16.584   8.416
  358POPC   C3B 9825  24.960  16.414   7.995
  358POPC   C4B 9826  24.765  16.236   7.627
  359POPC   NC3 9827  18.689  26.640   9.803
  359POPC   PO4 9828  18.124  26.627   9.510
  359POPC   GL1 9829  18.106  26.788   9.120
  359POPC   GL2 9830  18.490  26.832   9.107
  359POPC   C1A 9831  18.206  26.709   8.702
  359POPC   D2A 9832  18.140  26.495   8.365
  359POPC   C3A 9833  18.267  26.704   8.038
  359POPC   C4A 9834  18.197  26.697   7.620
  359POPC   C1B 9835  18.515  27.120   8.745
  359POPC   C2B 9836  18.343  27.139   8.317
  359POPC   C3B 9837  18.448  27.159   7.867
  359POPC   C4B 9838  18.510  27.082   7.398
  360POPC   NC3 9839  20.360  30.046   9.670
  360POPC   PO4 9840  20.989  29.760   9.821
  360POPC   GL1 9841  20.849  29.794   9.369
  360POPC   GL2 9842  20.648  30.098   9.208
  360POPC   C1A 9843  20.805  29.716   8.917
  360POPC   D2A 9844  20.644  29.899   8.522
  360POPC   C3A 9845  20.633  29.784   8.077
  360POPC   C4A 9846  20.640  29.840   7.635
  360POPC   C1B 9847  20.348  30.298   8.887
  360POPC   C2B 9848  20.149  30.112   8.528
  360POPC   C3B 9849  20.257  30.130   8.137
  360POPC   C4B 9850  20.313  30.233   7.747
  361POPC   NC3 9851   0.665  32.670   9.381
  361POPC   PO4 9852   1.157  33.094   9.472
  361POPC   GL1 9853   0.988  32.931   9.092
  361POPC   GL2 9854   0.752  33.144   9.143
  361POPC   C1A 9855   1.152  32.949   8.678
  361POPC   D2A 9856   1.372  33.095   8.328
  361POPC   C3A 9857   1.386  33.014   7.918
  361POPC   C4A 9858   1.279  32.752   7.556
  361POPC   C1B 9859   0.841  33.353   8.782
  361POPC   C2B 9860   0.969  33.425   8.393
  361POPC   C3B 9861   0.969  33.358   7.991
  361POPC   C4B 9862   1.043  33.228   7.578
  362POPC   NC3 9863  20.137  36.468   9.566
  362POPC   PO4 9864  19.630  36.838   9.624
  362POPC   GL1 9865  19.748  36.653   9.222
  362POPC   GL2 9866  19.784  36.987   9.127
  362POPC   C1A 9867  19.878  36.664   8.763
  362POPC   D2A 9868  19.772  36.833   8.385
  362POPC   C3A 9869  19.878  36.674   7.984
  362POPC   C4A 9870  20.018  37.000   7.743
  362POPC   C1B 9871  19.559  37.135   8.772
  362POPC   C2B 9872  19.332  37.082   8.369
  362POPC   C3B 9873  19.542  37.071   7.960
  362POPC   C4B 9874  19.586  36.806   7.558
  363POPC   NC3 9875  44.474  44.321  10.200
  363POPC   PO4 9876  44.523  44.411   9.584
  363POPC   GL1 9877  44.423  44.492   9.122
  363POPC   GL2 9878  44.451  44.821   8.941
  363POPC   C1A 9879  44.549  44.359   8.703
  363POPC   D2A 9880  44.606  44.271   8.269
  363POPC   C3A 9881  44.612  44.602   7.978
  363POPC   C4A 9882  44.767  44.478   7.570
  363POPC   C1B 9883  44.674   0.122   8.633
  363POPC   C2B 9884  44.740   0.096   8.151
  363POPC   C3B 9885  44.946  44.942   7.761
  363POPC   C4B 9886  44.880  44.899   7.300
  364POPC   NC3 9887  31.879  29.669   9.846
  364POPC   PO4 9888  32.068  30.133   9.600
  364POPC   GL1 9889  32.240  30.249   9.134
  364POPC   GL2 9890  32.579  30.400   9.121
  364POPC   C1A 9891  32.204  30.117   8.662
  364POPC   D2A 9892  32.221  29.764   8.348
  364POPC   C3A 9893  32.287  29.875   7.898
  364POPC   C4A 9894  32.004  30.068   7.595
  364POPC   C1B 9895  32.699  30.212   8.740
  364POPC   C2B 9896  32.642  30.047   8.336
  364POPC   C3B 9897  32.676  30.227   7.942
  364POPC   C4B 9898  32.505  30.230   7.526
  365POPC   NC3 9899   2.881  16.020   9.417
  365POPC   PO4 9900   2.277  16.118   9.728
  365POPC   GL1 9901   2.393  16.074   9.223
  365POPC   GL2 9902   2.666  15.822   9.019
  365POPC   C1A 9903   2.422  16.160   8.742
  365POPC   D2A 9904   2.314  16.180   8.286
  365POPC   C3A 9905   2.519  16.027   7.934
  365POPC   C4A 9906   2.476  15.560   7.806
  365POPC   C1B 9907   2.831  15.626   8.657
  365POPC   C2B 9908   2.734  15.648   8.230
  365POPC   C3B 9909   2.964  15.783   7.852
  365POPC   C4B 9910   3.127  16.223   7.831
  366POPC   NC3 9911  20.064   7.323   9.642
  366POPC   PO4 9912  19.665   7.804   9.390
  366POPC   GL1 9913  19.980   7.518   9.185
  366POPC   GL2 9914  20.100   7.147   9.173
  366POPC   C1A 9915  20.049   7.494   8.777
  366POPC   D2A 9916  19.715   7.547   8.502
  366POPC   C3A 9917  19.749   7.622   8.089
  366POPC   C4A 9918  20.124   7.556   7.819
  366POPC   C1B 9919  19.926   6.964   8.809
  366POPC   C2B 9920  19.990   7.121   8.402
  366POPC   C3B 9921  19.886   7.133   7.996
  366POPC   C4B 9922  19.479   7.254   7.822
  367POPC   NC3 9923  40.257  39.315   9.466
  367POPC   PO4 9924  39.882  38.788   9.531
  367POPC   GL1 9925  40.113  38.924   9.182
  367POPC   GL2 9926  39.875  39.218   9.090
  367POPC   C1A 9927  40.258  39.073   8.790
  367POPC   D2A 9928  39.919  39.146   8.524
  367POPC   C3A 9929  39.967  39.193   8.105
  367POPC   C4A 9930  39.821  39.060   7.737
  367POPC   C1B 9931  40.070  39.553   8.797
  367POPC   C2B 9932  40.232  39.551   8.393
  367POPC   C3B 9933  40.327  39.600   7.961
  367POPC   C4B 9934  40.137  39.413   7.596
  368POPC   NC3 9935  36.189   9.199   9.383
  368POPC   PO4 9936  35.855   9.796   9.501
  368POPC   GL1 9937  35.988   9.881   9.111
  368POPC   GL2 9938  36.147   9.595   9.071
  368POPC   C1A 9939  36.006   9.883   8.683
  368POPC   D2A 9940  36.018   9.688   8.308
  368POPC   C3A 9941  35.958   9.894   7.958
  368POPC   C4A 9942  36.205   9.840   7.659
  368POPC   C1B 9943  36.376   9.544   8.651
  368POPC   C2B 9944  36.461   9.412   8.220
  368POPC   C3B 9945  36.535   9.487   7.781
  368POPC   C4B 9946  36.509   9.546   7.307
  369POPC   NC3 9947  41.053  44.861   9.485
  369POPC   PO4 9948  40.362  44.924   9.522
  369POPC   GL1 9949  40.615  44.736   9.208
  369POPC   GL2 9950  40.418  44.487   9.029
  369POPC   C1A 9951  40.930  44.640   8.859
  369POPC   D2A 9952  41.178  44.544   8.471
  369POPC   C3A 9953  41.073  44.244   8.141
  369POPC   C4A 9954  41.023  44.392   7.730
  369POPC   C1B 9955  40.496  44.882   8.765
  369POPC   C2B 9956  40.752  44.897   8.412
  369POPC   C3B 9957  40.910  44.767   8.050
  369POPC   C4B 9958  40.786  44.960   7.680
  370POPC   NC3 9959  13.117   7.635   9.456
  370POPC   PO4 9960  12.649   7.230   9.606
  370POPC   GL1 9961  12.803   7.337   9.195
  370POPC   GL2 9962  12.757   7.662   9.079
  370POPC   C1A 9963  12.962   7.189   8.826
  370POPC   D2A 9964  12.777   7.167   8.428
  370POPC   C3A 9965  12.985   7.138   8.059
  370POPC   C4A 9966  12.929   6.896   7.695
  370POPC   C1B 9967  12.927   7.664   8.672
  370POPC   C2B 9968  13.072   7.606   8.244
  370POPC   C3B 9969  12.776   7.551   7.871
  370POPC   C4B 9970  12.711   7.753   7.480
  371POPC   NC3 9971  22.550  31.163   9.336
  371POPC   PO4 9972  22.069  31.720   9.510
  371POPC   GL1 9973  22.148  31.535   9.136
  371POPC   GL2 9974  22.466  31.595   9.085
  371POPC   C1A 9975  21.898  31.405   8.791
  371POPC   D2A 9976  21.903  31.106   8.456
  371POPC   C3A 9977  21.850  31.314   8.069
  371POPC   C4A 9978  22.071  31.448   7.715
  371POPC   C1B 9979  22.397  31.434   8.630
  371POPC   C2B 9980  22.358  31.480   8.160
  371POPC   C3B 9981  22.406  31.812   7.836
  371POPC   C4B 9982  22.374  31.701   7.376
  372POPC   NC3 9983  17.799   0.147   9.481
  372POPC   PO4 9984  18.360   0.522   9.630
  372POPC   GL1 9985  18.357   0.647   9.208
  372POPC   GL2 9986  18.015   0.775   9.234
  372POPC   C1A 9987  18.295   0.632   8.770
  372POPC   D2A 9988  18.374   0.568   8.336
  372POPC   C3A 9989  18.472   0.243   8.058
  372POPC   C4A 9990  18.719   0.387   7.710
  372POPC   C1B 9991  17.774   0.678   8.877
  372POPC   C2B 9992  17.883   0.763   8.453
  372POPC   C3B 9993  17.944   0.527   8.091
  372POPC   C4B 9994  18.253   0.585   7.747
  373POPC   NC3 9995  14.187  44.103   9.439
  373POPC   PO4 9996  14.801  43.976   9.854
  373POPC   GL1 9997  14.790  43.726   9.243
  373POPC   GL2 9998  14.412  43.790   9.122
  373POPC   C1A 9999  14.721  43.795   8.746
  373POPC   D2A10000  14.381  43.705   8.425
  373POPC   C3A10001  14.556  43.703   7.990
  373POPC   C4A10002  14.705  44.015   7.739
  373POPC   C1B10003  14.287  44.103   8.796
  373POPC   C2B10004  14.163  44.314   8.429
  373POPC   C3B10005  14.246  44.112   8.045
  373POPC   C4B10006  14.160  43.884   7.691
  374POPC   NC310007  27.107  25.603   9.266
  374POPC   PO410008  26.553  25.706   9.506
  374POPC   GL110009  26.616  25.781   9.084
  374POPC   GL210010  26.581  26.143   9.109
  374POPC   C1A10011  26.725  25.718   8.625
  374POPC   D2A10012  26.526  25.892   8.240
  374POPC   C3A10013  26.755  25.951   7.855
  374POPC   C4A10014  26.702  25.826   7.456
  374POPC   C1B10015  26.792  26.218   8.708
  374POPC   C2B10016  26.899  26.249   8.251
  374POPC   C3B10017  27.120  26.322   7.841
  374POPC   C4B10018  27.030  26.512   7.444
  375POPC   NC310019  38.266  42.969   9.533
  375POPC   PO410020  38.773  43.381   9.581
  375POPC   GL110021  38.464  43.349   9.244
  375POPC   GL210022  38.593  43.033   9.139
  375POPC   C1A10023  38.299  43.294   8.818
  375POPC   D2A10024  38.450  43.174   8.411
  375POPC   C3A10025  38.167  43.257   8.092
  375POPC   C4A10026  38.329  43.352   7.755
  375POPC   C1B10027  38.489  42.806   8.778
  375POPC   C2B10028  38.350  42.679   8.348
  375POPC   C3B10029  38.495  42.867   7.945
  375POPC   C4B10030  38.419  42.923   7.474
  376POPC   NC310031  30.411  19.044   9.274
  376POPC   PO410032  30.870  18.949   9.765
  376POPC   GL110033  30.922  19.118   9.281
  376POPC   GL210034  30.759  19.424   9.217
  376POPC   C1A10035  30.769  19.080   8.782
  376POPC   D2A10036  30.652  19.163   8.368
  376POPC   C3A10037  30.611  18.914   8.018
  376POPC   C4A10038  30.527  18.843   7.567
  376POPC   C1B10039  31.112  19.411   8.923
  376POPC   C2B10040  31.119  19.347   8.484
  376POPC   C3B10041  30.924  19.494   8.075
  376POPC   C4B10042  30.780  19.277   7.690
  377POPC   NC310043  16.472  12.180   9.598
  377POPC   PO410044  16.952  11.893   9.823
  377POPC   GL110045  16.924  12.038   9.289
  377POPC   GL210046  16.590  12.226   9.118
  377POPC   C1A10047  16.989  11.932   8.827
  377POPC   D2A10048  17.154  11.720   8.426
  377POPC   C3A10049  17.051  11.863   8.009
  377POPC   C4A10050  16.694  12.122   7.905
  377POPC   C1B10051  16.469  12.093   8.716
  377POPC   C2B10052  16.645  11.882   8.379
  377POPC   C3B10053  16.432  11.682   8.054
  377POPC   C4B10054  16.293  11.916   7.710
  378POPC   NC310055  24.050  31.862   9.368
  378POPC   PO410056  24.445  32.297   9.790
  378POPC   GL110057  24.393  32.302   9.339
  378POPC   GL210058  24.570  32.072   9.132
  378POPC   C1A10059  24.474  32.517   8.922
  378POPC   D2A10060  24.556  32.575   8.478
  378POPC   C3A10061  24.380  32.378   8.140
  378POPC   C4A10062  24.464  32.426   7.724
  378POPC   C1B10063  24.793  32.148   8.740
  378POPC   C2B10064  24.842  32.139   8.294
  378POPC   C3B10065  24.807  32.049   7.855
  378POPC   C4B10066  24.755  31.983   7.404
  379POPC   NC310067  35.119  22.503   9.710
  379POPC   PO410068  35.332  23.115   9.441
  379POPC   GL110069  35.494  23.161   9.030
  379POPC   GL210070  35.828  23.187   8.878
  379POPC   C1A10071  35.333  23.081   8.683
  379POPC   D2A10072  35.304  22.794   8.387
  379POPC   C3A10073  35.395  23.049   8.066
  379POPC   C4A10074  35.172  22.995   7.723
  379POPC   C1B10075  35.790  23.079   8.442
  379POPC   C2B10076  35.771  22.675   8.225
  379POPC   C3B10077  35.655  22.692   7.802
  379POPC   C4B10078  35.692  23.072   7.584
  380POPC   NC310079  14.205   2.578   9.788
  380POPC   PO410080  14.622   2.929   9.395
  380POPC   GL110081  14.383   2.737   9.106
  380POPC   GL210082  14.124   2.554   9.285
  380POPC   C1A10083  14.207   2.957   8.715
  380POPC   D2A10084  14.199   2.979   8.244
  380POPC   C3A10085  14.333   3.337   8.033
  380POPC   C4A10086  14.407   3.140   7.662
  380POPC   C1B10087  14.021   2.503   8.856
  380POPC   C2B10088  14.284   2.496   8.487
  380POPC   C3B10089  14.611   2.553   8.195
  380POPC   C4B10090  14.542   2.510   7.754
  381POPC   NC310091  15.614  13.650   9.519
  381POPC   PO410092  14.975  13.790   9.539
  381POPC   GL110093  15.152  13.588   9.188
  381POPC   GL210094  15.137  13.916   9.072
  381POPC   C1A10095  15.163  13.321   8.797
  381POPC   D2A10096  15.326  13.389   8.377
  381POPC   C3A10097  15.068  13.283   8.003
  381POPC   C4A10098  15.156  13.351   7.595
  381POPC   C1B10099  15.371  13.807   8.743
  381POPC   C2B10100  15.213  13.883   8.360
  381POPC   C3B10101  15.182  13.771   7.957
  381POPC   C4B10102  15.403  13.834   7.589
  382POPC   NC310103   0.055   4.747   9.387
  382POPC   PO410104   0.310   4.111   9.474
  382POPC   GL110105   0.449   4.458   9.186
  382POPC   GL210106   0.797   4.596   9.196
  382POPC   C1A10107   0.364   4.480   8.745
  382POPC   D2A10108   0.482   4.290   8.349
  382POPC   C3A10109   0.325   4.574   8.036
  382POPC   C4A10110  44.918   4.612   7.853
  382POPC   C1B10111   0.851   4.347   8.788
  382POPC   C2B10112   0.936   4.500   8.353
  382POPC   C3B10113   0.810   4.402   7.930
  382POPC   C4B10114   0.810   4.167   7.549
  383POPC   NC310115  43.448  11.594   9.283
  383POPC   PO410116  43.335  11.067   9.627
  383POPC   GL110117  43.068  11.234   9.239
  383POPC   GL210118  42.776  11.458   9.135
  383POPC   C1A10119  43.110  11.359   8.777
  383POPC   D2A10120  43.353  11.254   8.450
  383POPC   C3A10121  43.362  11.548   8.129
  383POPC   C4A10122  43.182  11.464   7.733
  383POPC   C1B10123  42.696  11.088   8.891
  383POPC   C2B10124  42.750  11.045   8.455
  383POPC   C3B10125  42.976  11.130   8.082
  383POPC   C4B10126  42.925  10.964   7.671
  384POPC   NC310127  11.563  38.818   9.501
  384POPC   PO410128  11.271  39.418   9.590
  384POPC   GL110129  11.180  39.158   9.233
  384POPC   GL210130  10.882  39.318   9.192
  384POPC   C1A10131  11.070  38.987   8.800
  384POPC   D2A10132  11.334  38.958   8.381
  384POPC   C3A10133  11.429  38.989   7.907
  384POPC   C4A10134  11.676  39.317   7.662
  384POPC   C1B10135  10.961  39.514   8.842
  384POPC   C2B10136  11.030  39.375   8.468
  384POPC   C3B10137  11.157  39.520   8.113
  384POPC   C4B10138  11.197  39.410   7.739
  385POPC   NC310139  16.726  24.819   9.513
  385POPC   PO410140  16.350  24.213   9.542
  385POPC   GL110141  16.585  24.301   9.178
  385POPC   GL210142  16.744  24.595   9.039
  385POPC   C1A10143  16.519  24.209   8.770
  385POPC   D2A10144  16.692  24.335   8.435
  385POPC   C3A10145  16.613  24.214   8.050
  385POPC   C4A10146  16.746  24.459   7.709
  385POPC   C1B10147  17.028  24.634   8.664
  385POPC   C2B10148  17.052  24.581   8.192
  385POPC   C3B10149  17.049  24.859   7.852
  385POPC   C4B10150  16.981  24.801   7.392
  386POPC   NC310151  36.067  36.777   9.400
  386POPC   PO410152  36.043  37.449   9.396
  386POPC   GL110153  36.211  37.149   9.031
  386POPC   GL210154  36.415  36.816   9.032
  386POPC   C1A10155  36.096  36.858   8.651
  386POPC   D2A10156  35.945  36.748   8.242
  386POPC   C3A10157  35.929  37.130   8.046
  386POPC   C4A10158  36.250  37.333   7.795
  386POPC   C1B10159  36.491  36.521   8.690
  386POPC   C2B10160  36.480  36.573   8.247
  386POPC   C3B10161  36.376  36.865   7.954
  386POPC   C4B10162  36.056  36.819   7.660
  387POPC   NC310163   2.955  40.145   9.333
  387POPC   PO410164   2.598  39.558   9.279
  387POPC   GL110165   2.689  39.867   8.979
  387POPC   GL210166   2.563  40.195   8.999
  387POPC   C1A10167   2.756  40.017   8.556
  387POPC   D2A10168   2.964  39.820   8.222
  387POPC   C3A10169   2.808  40.069   7.921
  387POPC   C4A10170   2.885  40.130   7.488
  387POPC   C1B10171   2.426  40.399   8.614
  387POPC   C2B10172   2.364  40.273   8.180
  387POPC   C3B10173   2.525  40.460   7.777
  387POPC   C4B10174   2.478  40.430   7.322
  388POPC   NC310175  21.594  36.311   9.681
  388POPC   PO410176  21.166  35.830   9.715
  388POPC   GL110177  21.303  36.168   9.288
  388POPC   GL210178  21.605  36.368   9.169
  388POPC   C1A10179  21.342  36.124   8.779
  388POPC   D2A10180  20.970  35.991   8.479
  388POPC   C3A10181  21.095  35.981   8.025
  388POPC   C4A10182  21.253  36.287   7.710
  388POPC   C1B10183  21.822  36.410   8.751
  388POPC   C2B10184  21.732  36.195   8.345
  388POPC   C3B10185  21.704  36.115   7.885
  388POPC   C4B10186  21.725  36.419   7.515
  389POPC   NC310187   2.398  14.134   9.287
  389POPC   PO410188   1.710  14.161   9.541
  389POPC   GL110189   1.912  14.169   9.129
  389POPC   GL210190   1.751  14.458   9.045
  389POPC   C1A10191   2.158  14.428   8.756
  389POPC   D2A10192   1.939  14.626   8.413
  389POPC   C3A10193   2.073  14.481   8.009
  389POPC   C4A10194   2.126  14.717   7.661
  389POPC   C1B10195   1.698  14.237   8.670
  389POPC   C2B10196   1.514  14.339   8.308
  389POPC   C3B10197   1.408  14.141   7.947
  389POPC   C4B10198   1.776  14.098   7.681
  390POPC   NC310199  34.068   9.159   9.542
  390POPC   PO410200  33.390   9.235   9.381
  390POPC   GL110201  33.776   9.166   9.124
  390POPC   GL210202  33.805   8.820   9.185
  390POPC   C1A10203  34.037   8.980   8.749
  390POPC   D2A10204  34.220   8.807   8.354
  390POPC   C3A10205  33.980   8.861   8.002
  390POPC   C4A10206  33.939   9.237   7.778
  390POPC   C1B10207  33.544   8.900   8.759
  390POPC   C2B10208  33.635   9.083   8.354
  390POPC   C3B10209  33.471   9.105   7.926
  390POPC   C4B10210  33.657   8.866   7.594
  391POPC   NC310211  12.511  29.609   9.471
  391POPC   PO410212  13.122  29.629   9.546
  391POPC   GL110213  13.034  29.753   9.117
  391POPC   GL210214  12.716  29.620   8.995
  391POPC   C1A10215  12.915  30.037   8.758
  391POPC   D2A10216  12.702  29.964   8.363
  391POPC   C3A10217  12.837  29.899   7.905
  391POPC   C4A10218  13.039  30.049   7.492
  391POPC   C1B10219  12.970  29.536   8.623
  391POPC   C2B10220  12.874  29.478   8.189
  391POPC   C3B10221  12.658  29.395   7.801
  391POPC   C4B10222  12.577  29.166   7.391
  392POPC   NC310223  36.763  23.253   9.531
  392POPC   PO410224  36.614  23.869   9.675
  392POPC   GL110225  36.767  23.767   9.201
  392POPC   GL210226  36.923  23.435   9.080
  392POPC   C1A10227  36.894  23.786   8.728
  392POPC   D2A10228  36.909  23.541   8.330
  392POPC   C3A10229  36.989  23.837   7.996
  392POPC   C4A10230  37.047  23.899   7.538
  392POPC   C1B10231  37.259  23.443   8.741
  392POPC   C2B10232  37.397  23.400   8.321
  392POPC   C3B10233  37.245  23.395   7.908
  392POPC   C4B10234  36.851  23.454   7.689
  393POPC   NC310235  13.162  13.301   9.562
  393POPC   PO410236  13.120  13.985   9.654
  393POPC   GL110237  12.872  13.648   9.335
  393POPC   GL210238  13.201  13.561   9.115
  393POPC   C1A10239  12.761  13.481   8.889
  393POPC   D2A10240  12.982  13.614   8.518
  393POPC   C3A10241  12.832  13.662   8.079
  393POPC   C4A10242  12.621  13.383   7.776
  393POPC   C1B10243  13.452  13.629   8.709
  393POPC   C2B10244  13.403  13.666   8.232
  393POPC   C3B10245  13.253  13.443   7.886
  393POPC   C4B10246  13.060  13.722   7.638
  394POPC   NC310247  37.944  29.065   9.494
  394POPC   PO410248  38.559  29.233   9.503
  394POPC   GL110249  38.372  28.974   9.190
  394POPC   GL210250  38.117  29.167   9.019
  394POPC   C1A10251  38.502  28.867   8.786
  394POPC   D2A10252  38.375  28.724   8.380
  394POPC   C3A10253  38.679  28.845   8.125
  394POPC   C4A10254  38.650  29.124   7.822
  394POPC   C1B10255  38.136  29.155   8.556
  394POPC   C2B10256  38.259  29.213   8.127
  394POPC   C3B10257  38.156  29.320   7.685
  394POPC   C4B10258  38.124  29.546   7.262
  395POPC   NC310259  20.794   4.865   9.787
  395POPC   PO410260  20.381   4.553   9.470
  395POPC   GL110261  20.540   4.482   9.088
  395POPC   GL210262  20.616   4.142   9.212
  395POPC   C1A10263  20.602   4.506   8.628
  395POPC   D2A10264  20.837   4.490   8.232
  395POPC   C3A10265  20.725   4.558   7.800
  395POPC   C4A10266  20.851   4.574   7.352
  395POPC   C1B10267  20.403   4.053   8.819
  395POPC   C2B10268  20.466   4.090   8.360
  395POPC   C3B10269  20.758   4.039   7.980
  395POPC   C4B10270  20.845   4.099   7.540
  396POPC   NC310271   3.799  18.865   9.354
  396POPC   PO410272   3.669  19.500   9.551
  396POPC   GL110273   3.532  19.269   9.166
  396POPC   GL210274   3.279  19.007   9.106
  396POPC   C1A10275   3.700  19.170   8.746
  396POPC   D2A10276   3.651  19.379   8.355
  396POPC   C3A10277   3.753  19.244   7.935
  396POPC   C4A10278   3.770  18.966   7.565
  396POPC   C1B10279   3.204  19.137   8.661
  396POPC   C2B10280   3.195  19.097   8.225
  396POPC   C3B10281   3.321  18.969   7.841
  396POPC   C4B10282   3.271  18.898   7.394
  397POPC   NC310283  12.327  41.626   9.857
  397POPC   PO410284  12.981  41.601   9.738
  397POPC   GL110285  12.964  41.579   9.182
  397POPC   GL210286  12.680  41.303   9.044
  397POPC   C1A10287  12.783  41.716   8.768
  397POPC   D2A10288  12.679  41.461   8.387
  397POPC   C3A10289  12.758  41.717   8.015
  397POPC   C4A10290  13.011  41.881   7.680
  397POPC   C1B10291  13.042  41.253   8.772
  397POPC   C2B10292  13.184  41.384   8.385
  397POPC   C3B10293  13.126  41.195   8.008
  397POPC   C4B10294  13.172  41.386   7.633
  398POPC   NC310295  23.717  22.025   9.670
  398POPC   PO410296  24.039  22.609   9.475
  398POPC   GL110297  23.763  22.309   9.254
  398POPC   GL210298  23.886  21.962   9.196
  398POPC   C1A10299  23.559  22.216   8.864
  398POPC   D2A10300  23.688  22.112   8.442
  398POPC   C3A10301  23.495  22.274   8.074
  398POPC   C4A10302  23.716  22.429   7.758
  398POPC   C1B10303  24.046  21.970   8.795
  398POPC   C2B10304  24.211  22.140   8.412
  398POPC   C3B10305  24.023  22.071   7.986
  398POPC   C4B10306  23.816  21.938   7.593
  399POPC   NC310307  20.672  13.998   9.358
  399POPC   PO410308  20.646  13.300   9.491
  399POPC   GL110309  20.509  13.533   9.149
  399POPC   GL210310  20.206  13.730   9.187
  399POPC   C1A10311  20.531  13.671   8.751
  399POPC   D2A10312  20.517  13.454   8.388
  399POPC   C3A10313  20.753  13.632   8.047
  399POPC   C4A10314  20.609  13.449   7.674
  399POPC   C1B10315  20.054  13.872   8.781
  399POPC   C2B10316  20.067  13.713   8.365
  399POPC   C3B10317  20.258  13.672   7.988
  399POPC   C4B10318  20.369  13.898   7.626
  400POPC   NC310319  11.523  26.757   9.452
  400POPC   PO410320  11.055  26.618   8.977
  400POPC   GL110321  11.458  26.758   8.935
  400POPC   GL210322  11.355  27.077   9.094
  400POPC   C1A10323  11.697  26.626   8.572
  400POPC   D2A10324  11.594  26.449   8.155
  400POPC   C3A10325  11.396  26.659   7.835
  400POPC   C4A10326  10.985  26.536   7.651
  400POPC   C1B10327  11.263  27.171   8.679
  400POPC   C2B10328  11.359  26.953   8.304
  400POPC   C3B10329  11.344  27.159   7.908
  400POPC   C4B10330  11.173  27.017   7.553
  401POPC   NC310331  36.915   2.831   9.475
  401POPC   PO410332  37.294   2.303   9.490
  401POPC   GL110333  37.028   2.364   9.122
  401POPC   GL210334  37.118   2.693   9.034
  401POPC   C1A10335  36.861   2.426   8.659
  401POPC   D2A10336  36.776   2.358   8.185
  401POPC   C3A10337  36.913   2.633   7.850
  401POPC   C4A10338  36.933   3.082   7.927
  401POPC   C1B10339  36.896   2.943   8.767
  401POPC   C2B10340  36.995   2.829   8.358
  401POPC   C3B10341  37.332   2.736   8.085
  401POPC   C4B10342  37.353   2.887   7.675
  402POPC   NC310343  39.008   2.192   9.593
  402POPC   PO410344  38.644   1.596   9.545
  402POPC   GL110345  38.628   1.809   9.186
  402POPC   GL210346  38.986   1.865   9.199
  402POPC   C1A10347  38.413   1.985   8.797
  402POPC   D2A10348  38.472   2.321   8.471
  402POPC   C3A10349  38.563   2.214   8.042
  402POPC   C4A10350  38.334   1.912   7.832
  402POPC   C1B10351  38.900   1.802   8.761
  402POPC   C2B10352  38.674   1.811   8.370
  402POPC   C3B10353  38.826   1.781   7.959
  402POPC   C4B10354  38.940   1.980   7.597
  403POPC   NC310355  31.969  32.534   9.371
  403POPC   PO410356  32.243  33.222   9.540
  403POPC   GL110357  32.207  32.962   9.128
  403POPC   GL210358  32.024  32.709   8.912
  403POPC   C1A10359  32.486  32.853   8.759
  403POPC   D2A10360  32.561  32.973   8.313
  403POPC   C3A10361  32.224  32.985   8.002
  403POPC   C4A10362  32.334  32.913   7.583
  403POPC   C1B10363  32.012  33.036   8.622
  403POPC   C2B10364  31.783  33.055   8.249
  403POPC   C3B10365  31.687  32.838   7.887
  403POPC   C4B10366  31.845  32.982   7.504
  404POPC   NC310367  20.949  30.833   9.544
  404POPC   PO410368  21.491  30.559   9.517
  404POPC   GL110369  21.685  30.718   9.125
  404POPC   GL210370  21.634  31.057   9.053
  404POPC   C1A10371  21.619  30.678   8.648
  404POPC   D2A10372  21.162  30.642   8.452
  404POPC   C3A10373  21.112  30.731   8.005
  404POPC   C4A10374  21.560  30.682   7.933
  404POPC   C1B10375  21.352  31.112   8.709
  404POPC   C2B10376  21.411  31.089   8.264
  404POPC   C3B10377  21.411  31.166   7.829
  404POPC   C4B10378  21.061  31.138   7.551
  405POPC   NC310379  10.193  21.740   9.480
  405POPC   PO410380  10.729  22.265   9.560
  405POPC   GL110381  10.728  22.230   9.139
  405POPC   GL210382  11.013  22.026   9.093
  405POPC   C1A10383  10.394  22.202   8.865
  405POPC   D2A10384  10.211  22.119   8.468
  405POPC   C3A10385  10.507  22.058   8.161
  405POPC   C4A10386  10.580  22.128   7.722
  405POPC   C1B10387  10.839  21.920   8.718
  405POPC   C2B10388  10.813  21.675   8.362
  405POPC   C3B10389  10.901  21.798   7.936
  405POPC   C4B10390  11.031  21.894   7.499
  406POPC   NC310391  13.159  12.662   9.506
  406POPC   PO410392  12.675  13.178   9.527
  406POPC   GL110393  12.942  13.060   9.155
  406POPC   GL210394  12.956  12.703   9.056
  406POPC   C1A10395  13.019  13.062   8.686
  406POPC   D2A10396  12.965  13.196   8.251
  406POPC   C3A10397  12.831  12.895   7.974
  406POPC   C4A10398  12.467  12.859   7.756
  406POPC   C1B10399  13.181  12.514   8.757
  406POPC   C2B10400  13.068  12.611   8.355
  406POPC   C3B10401  13.191  12.476   7.961
  406POPC   C4B10402  13.162  12.618   7.543
  407POPC   NC310403   6.945  36.653   9.388
  407POPC   PO410404   7.612  36.474   9.476
  407POPC   GL110405   7.408  36.840   9.233
  407POPC   GL210406   7.546  37.174   9.139
  407POPC   C1A10407   7.274  36.833   8.796
  407POPC   D2A10408   7.465  36.576   8.478
  407POPC   C3A10409   7.390  36.669   8.078
  407POPC   C4A10410   7.594  36.597   7.704
  407POPC   C1B10411   7.544  37.265   8.700
  407POPC   C2B10412   7.492  37.211   8.244
  407POPC   C3B10413   7.490  37.109   7.830
  407POPC   C4B10414   7.580  37.243   7.442
  408POPC   NC310415   9.438  24.105   9.506
  408POPC   PO410416   9.783  23.498   9.460
  408POPC   GL110417   9.994  23.714   9.126
  408POPC   GL210418   9.711  23.902   9.108
  408POPC   C1A10419  10.124  23.534   8.721
  408POPC   D2A10420   9.884  23.267   8.409
  408POPC   C3A10421   9.648  23.501   8.118
  408POPC   C4A10422   9.831  23.619   7.711
  408POPC   C1B10423   9.631  23.711   8.713
  408POPC   C2B10424   9.540  23.939   8.343
  408POPC   C3B10425   9.802  24.046   8.024
  408POPC   C4B10426   9.712  24.113   7.599
  409POPC   NC310427  40.342  35.150   9.488
  409POPC   PO410428  40.952  35.447   9.331
  409POPC   GL110429  40.637  35.331   9.074
  409POPC   GL210430  40.476  35.687   9.111
  409POPC   C1A10431  40.733  35.153   8.649
  409POPC   D2A10432  40.682  35.331   8.214
  409POPC   C3A10433  40.773  35.059   7.876
  409POPC   C4A10434  40.841  35.072   7.405
  409POPC   C1B10435  40.467  35.573   8.661
  409POPC   C2B10436  40.359  35.721   8.263
  409POPC   C3B10437  40.389  35.603   7.824
  409POPC   C4B10438  40.739  35.509   7.642
  410POPC   NC310439  35.761  19.855   9.661
  410POPC   PO410440  35.204  20.175   9.534
  410POPC   GL110441  35.211  19.929   9.176
  410POPC   GL210442  35.464  19.733   9.249
  410POPC   C1A10443  35.121  19.906   8.734
  410POPC   D2A10444  35.104  19.735   8.347
  410POPC   C3A10445  35.264  19.958   8.041
  410POPC   C4A10446  35.125  19.950   7.649
  410POPC   C1B10447  35.613  19.880   8.854
  410POPC   C2B10448  35.597  19.899   8.431
  410POPC   C3B10449  35.776  20.021   8.034
  410POPC   C4B10450  35.625  19.810   7.671
  411POPC   NC310451  26.119   8.557   9.345
  411POPC   PO410452  25.740   7.968   9.275
  411POPC   GL110453  25.829   8.179   9.015
  411POPC   GL210454  25.645   8.460   9.141
  411POPC   C1A10455  25.899   8.080   8.598
  411POPC   D2A10456  26.178   8.354   8.390
  411POPC   C3A10457  26.314   8.148   8.048
  411POPC   C4A10458  26.149   7.952   7.716
  411POPC   C1B10459  25.854   8.590   8.732
  411POPC   C2B10460  25.826   8.744   8.344
  411POPC   C3B10461  26.049   8.607   7.965
  411POPC   C4B10462  25.966   8.425   7.606
  412POPC   NC310463  43.023  24.717   9.581
  412POPC   PO410464  42.535  24.152   9.466
  412POPC   GL110465  42.837  24.446   9.181
  412POPC   GL210466  43.215  24.506   9.156
  412POPC   C1A10467  42.856  24.693   8.787
  412POPC   D2A10468  42.960  24.796   8.364
  412POPC   C3A10469  42.857  24.658   7.988
  412POPC   C4A10470  43.083  24.681   7.634
  412POPC   C1B10471  43.363  24.670   8.746
  412POPC   C2B10472  43.357  24.493   8.326
  412POPC   C3B10473  43.500  24.589   7.922
  412POPC   C4B10474  43.498  24.374   7.521
  413POPC   NC310475  27.027  15.414   9.620
  413POPC   PO410476  26.818  14.835   9.477
  413POPC   GL110477  26.727  15.190   9.209
  413POPC   GL210478  27.041  15.298   9.110
  413POPC   C1A10479  26.448  15.173   8.845
  413POPC   D2A10480  26.520  14.971   8.474
  413POPC   C3A10481  26.607  15.117   8.073
  413POPC   C4A10482  26.625  15.006   7.645
  413POPC   C1B10483  26.942  15.186   8.675
  413POPC   C2B10484  27.077  15.080   8.239
  413POPC   C3B10485  27.049  15.276   7.796
  413POPC   C4B10486  27.091  15.500   7.376
  414POPC   NC310487  13.764  20.042   9.463
  414POPC   PO410488  13.276  19.565   9.588
  414POPC   GL110489  13.373  19.554   9.157
  414POPC   GL210490  13.462  19.870   9.096
  414POPC   C1A10491  13.718  19.505   8.816
  414POPC   D2A10492  13.987  19.706   8.498
  414POPC   C3A10493  13.748  19.736   8.130
  414POPC   C4A10494  13.733  19.463   7.780
  414POPC   C1B10495  13.640  20.037   8.720
  414POPC   C2B10496  13.855  20.204   8.347
  414POPC   C3B10497  13.745  20.205   7.928
  414POPC   C4B10498  13.854  19.914   7.637
  415POPC   NC310499  39.847  20.367   9.602
  415POPC   PO410500  40.493  20.066   9.628
  415POPC   GL110501  40.203  20.238   9.249
  415POPC   GL210502  40.181  20.563   9.090
  415POPC   C1A10503  39.944  20.197   8.839
  415POPC   D2A10504  39.776  20.289   8.401
  415POPC   C3A10505  40.064  20.361   8.033
  415POPC   C4A10506  40.190  20.496   7.621
  415POPC   C1B10507  39.972  20.690   8.703
  415POPC   C2B10508  39.874  20.795   8.257
  415POPC   C3B10509  39.738  20.715   7.811
  415POPC   C4B10510  39.856  20.733   7.341
  416POPC   NC310511   1.288   8.624   9.501
  416POPC   PO410512   0.893   8.035   9.598
  416POPC   GL110513   1.053   8.255   9.272
  416POPC   GL210514   1.426   8.156   9.314
  416POPC   C1A10515   1.138   8.267   8.849
  416POPC   D2A10516   1.204   8.011   8.497
  416POPC   C3A10517   1.059   8.091   8.088
  416POPC   C4A10518   1.110   7.873   7.713
  416POPC   C1B10519   1.646   8.341   8.952
  416POPC   C2B10520   1.610   8.309   8.532
  416POPC   C3B10521   1.585   8.143   8.146
  416POPC   C4B10522   1.444   8.261   7.768
  417POPC   NC310523  30.403  19.784   9.339
  417POPC   PO410524  31.064  19.718   9.517
  417POPC   GL110525  31.014  19.865   9.126
  417POPC   GL210526  30.706  19.999   9.020
  417POPC   C1A10527  31.062  19.924   8.687
  417POPC   D2A10528  30.734  20.125   8.472
  417POPC   C3A10529  30.704  19.984   8.048
  417POPC   C4A10530  30.785  19.802   7.648
  417POPC   C1B10531  30.662  19.621   8.739
  417POPC   C2B10532  30.459  19.631   8.348
  417POPC   C3B10533  30.380  19.599   7.919
  417POPC   C4B10534  30.240  19.288   7.664
  418POPC   NC310535  39.187  39.673   9.896
  418POPC   PO410536  39.099  39.095   9.588
  418POPC   GL110537  39.253  39.070   9.187
  418POPC   GL210538  38.927  39.051   9.068
  418POPC   C1A10539  39.359  39.121   8.751
  418POPC   D2A10540  39.141  39.101   8.368
  418POPC   C3A10541  39.400  39.200   8.027
  418POPC   C4A10542  39.347  39.073   7.596
  418POPC   C1B10543  38.833  39.393   8.797
  418POPC   C2B10544  38.703  39.409   8.362
  418POPC   C3B10545  38.877  39.302   7.956
  418POPC   C4B10546  38.856  39.153   7.536
  419POPC   NC310547   4.564   3.424   9.609
  419POPC   PO410548   4.250   4.019   9.759
  419POPC   GL110549   4.459   3.834   9.328
  419POPC   GL210550   4.234   3.549   9.240
  419POPC   C1A10551   4.458   3.857   8.820
  419POPC   D2A10552   4.212   3.782   8.410
  419POPC   C3A10553   4.365   3.727   7.956
  419POPC   C4A10554   4.116   3.548   7.606
  419POPC   C1B10555   4.465   3.367   8.903
  419POPC   C2B10556   4.450   3.305   8.438
  419POPC   C3B10557   4.275   3.225   8.010
  419POPC   C4B10558   4.423   3.123   7.606
  420POPC   NC310559  32.594  33.706   9.668
  420POPC   PO410560  33.198  33.514   9.581
  420POPC   GL110561  33.366  33.495   9.172
  420POPC   GL210562  33.443  33.842   9.087
  420POPC   C1A10563  33.154  33.590   8.782
  420POPC   D2A10564  33.063  33.828   8.397
  420POPC   C3A10565  33.070  33.740   7.940
  420POPC   C4A10566  32.709  33.808   7.655
  420POPC   C1B10567  33.527  33.929   8.629
  420POPC   C2B10568  33.509  33.933   8.148
  420POPC   C3B10569  33.337  34.156   7.763
  420POPC   C4B10570  33.537  34.139   7.322
  421POPC   NC310571  10.427  40.363   9.233
  421POPC   PO410572  10.849  40.922   9.457
  421POPC   GL110573  10.750  40.731   9.111
  421POPC   GL210574  10.426  40.867   9.116
  421POPC   C1A10575  10.649  40.757   8.675
  421POPC   D2A10576  10.811  40.982   8.346
  421POPC   C3A10577  10.642  40.761   7.999
  421POPC   C4A10578  10.504  40.750   7.579
  421POPC   C1B10579  10.329  41.177   8.779
  421POPC   C2B10580  10.317  41.081   8.322
  421POPC   C3B10581  10.137  40.988   7.912
  421POPC   C4B10582  10.190  41.140   7.472
  422POPC   NC310583  22.013  15.352   9.547
  422POPC   PO410584  22.694  15.415   9.621
  422POPC   GL110585  22.428  15.404   9.233
  422POPC   GL210586  22.300  15.095   9.184
  422POPC   C1A10587  22.460  15.302   8.763
  422POPC   D2A10588  22.317  15.105   8.386
  422POPC   C3A10589  22.499  15.162   7.976
  422POPC   C4A10590  22.629  15.031   7.539
  422POPC   C1B10591  22.024  15.006   8.798
  422POPC   C2B10592  21.849  14.875   8.360
  422POPC   C3B10593  21.841  14.821   7.881
  422POPC   C4B10594  21.752  14.892   7.386
  423POPC   NC310595  42.090  24.271   9.372
  423POPC   PO410596  42.397  24.585   9.899
  423POPC   GL110597  42.438  24.661   9.395
  423POPC   GL210598  42.158  24.747   9.234
  423POPC   C1A10599  42.414  24.484   8.889
  423POPC   D2A10600  42.480  24.594   8.459
  423POPC   C3A10601  42.476  24.335   8.099
  423POPC   C4A10602  42.500  24.438   7.665
  423POPC   C1B10603  42.002  24.805   8.798
  423POPC   C2B10604  42.123  24.962   8.420
  423POPC   C3B10605  42.222  24.769   8.055
  423POPC   C4B10606  42.100  24.787   7.664
  424POPC   NC310607  29.597  40.826   9.719
  424POPC   PO410608  30.063  40.422   9.608
  424POPC   GL110609  30.038  40.784   9.275
  424POPC   GL210610  29.733  40.997   9.229
  424POPC   C1A10611  30.010  40.820   8.806
  424POPC   D2A10612  29.814  40.896   8.380
  424POPC   C3A10613  30.035  40.778   7.986
  424POPC   C4A10614  30.012  40.392   7.720
  424POPC   C1B10615  29.615  41.170   8.799
  424POPC   C2B10616  29.657  41.385   8.350
  424POPC   C3B10617  29.679  41.160   7.955
  424POPC   C4B10618  29.765  41.082   7.524
  425POPC   NC310619  15.689  18.872   9.434
  425POPC   PO410620  16.317  19.183   9.563
  425POPC   GL110621  16.174  18.950   9.241
  425POPC   GL210622  15.951  19.220   9.125
  425POPC   C1A10623  16.135  18.887   8.793
  425POPC   D2A10624  15.951  18.793   8.415
  425POPC   C3A10625  16.044  19.004   8.061
  425POPC   C4A10626  16.118  18.776   7.706
  425POPC   C1B10627  15.676  19.113   8.785
  425POPC   C2B10628  15.570  19.170   8.371
  425POPC   C3B10629  15.549  18.914   8.025
  425POPC   C4B10630  15.691  19.156   7.703
  426POPC   NC310631  10.232   9.712   9.829
  426POPC   PO410632  10.660  10.003   9.404
  426POPC   GL110633  10.436   9.771   9.054
  426POPC   GL210634  10.336  10.013   8.861
  426POPC   C1A10635  10.534   9.542   8.695
  426POPC   D2A10636  10.763   9.309   8.413
  426POPC   C3A10637  10.631   9.444   8.062
  426POPC   C4A10638  10.760   9.389   7.671
  426POPC   C1B10639  10.803   9.966   8.780
  426POPC   C2B10640  10.967   9.831   8.402
  426POPC   C3B10641  10.810   9.908   7.979
  426POPC   C4B10642  10.403   9.789   7.772
  427POPC   NC310643  14.248  21.617   9.495
  427POPC   PO410644  14.773  21.165   9.534
  427POPC   GL110645  14.536  21.320   9.177
  427POPC   GL210646  14.707  21.632   9.219
  427POPC   C1A10647  14.288  21.557   8.847
  427POPC   D2A10648  13.927  21.509   8.584
  427POPC   C3A10649  13.983  21.549   8.147
  427POPC   C4A10650  14.201  21.378   7.849
  427POPC   C1B10651  14.801  21.544   8.788
  427POPC   C2B10652  14.588  21.527   8.396
  427POPC   C3B10653  14.674  21.582   7.965
  427POPC   C4B10654  14.413  21.809   7.657
  428POPC   NC310655  21.976  38.273   9.502
  428POPC   PO410656  22.369  38.700   9.199
  428POPC   GL110657  22.161  38.358   8.991
  428POPC   GL210658  21.792  38.217   9.046
  428POPC   C1A10659  22.307  38.365   8.579
  428POPC   D2A10660  22.458  38.779   8.337
  428POPC   C3A10661  22.306  38.787   7.911
  428POPC   C4A10662  22.319  38.381   7.746
  428POPC   C1B10663  21.739  38.638   8.887
  428POPC   C2B10664  21.986  38.759   8.539
  428POPC   C3B10665  22.022  38.469   8.174
  428POPC   C4B10666  21.786  38.438   7.801
  429POPC   NC310667  11.808  26.058   9.553
  429POPC   PO410668  12.358  25.596   9.448
  429POPC   GL110669  12.395  25.954   9.179
  429POPC   GL210670  12.100  26.167   9.137
  429POPC   C1A10671  12.461  26.089   8.755
  429POPC   D2A10672  12.313  25.939   8.344
  429POPC   C3A10673  12.380  26.068   7.898
  429POPC   C4A10674  12.438  25.752   7.546
  429POPC   C1B10675  11.962  25.980   8.769
  429POPC   C2B10676  11.834  26.093   8.409
  429POPC   C3B10677  11.883  26.024   8.015
  429POPC   C4B10678  11.944  25.828   7.661
  430POPC   NC310679  27.171  11.522   9.887
  430POPC   PO410680  26.677  11.267   9.526
  430POPC   GL110681  26.685  10.988   9.193
  430POPC   GL210682  26.997  11.031   9.026
  430POPC   C1A10683  26.537  10.995   8.764
  430POPC   D2A10684  26.511  11.241   8.385
  430POPC   C3A10685  26.782  11.080   8.119
  430POPC   C4A10686  26.694  11.154   7.710
  430POPC   C1B10687  26.865  11.388   8.722
  430POPC   C2B10688  27.039  11.489   8.310
  430POPC   C3B10689  27.092  11.411   7.870
  430POPC   C4B10690  27.131  11.282   7.449
  431POPC   NC310691  30.385  30.791   9.394
  431POPC   PO410692  29.949  30.430   9.705
  431POPC   GL110693  29.911  30.642   9.245
  431POPC   GL210694  29.688  30.939   9.184
  431POPC   C1A10695  30.025  30.768   8.794
  431POPC   D2A10696  29.876  30.596   8.383
  431POPC   C3A10697  29.976  30.786   7.966
  431POPC   C4A10698  30.155  30.775   7.539
  431POPC   C1B10699  29.522  30.759   8.808
  431POPC   C2B10700  29.362  30.798   8.419
  431POPC   C3B10701  29.465  30.820   7.999
  431POPC   C4B10702  29.626  30.894   7.581
  432POPC   NC310703  28.284   3.510   9.617
  432POPC   PO410704  28.818   3.819   9.376
  432POPC   GL110705  28.498   3.613   9.142
  432POPC   GL210706  28.495   3.230   9.218
  432POPC   C1A10707  28.357   3.785   8.721
  432POPC   D2A10708  28.241   3.909   8.271
  432POPC   C3A10709  28.422   3.739   7.868
  432POPC   C4A10710  28.516   3.848   7.415
  432POPC   C1B10711  28.313   3.250   8.803
  432POPC   C2B10712  28.468   3.392   8.392
  432POPC   C3B10713  28.482   3.249   7.993
  432POPC   C4B10714  28.079   3.279   7.815
  433POPC   NC310715  34.383  42.165   9.532
  433POPC   PO410716  34.976  42.626   9.546
  433POPC   GL110717  34.745  42.374   9.210
  433POPC   GL210718  34.390  42.426   9.092
  433POPC   C1A10719  34.773  42.262   8.766
  433POPC   D2A10720  34.738  42.527   8.411
  433POPC   C3A10721  34.730  42.380   8.021
  433POPC   C4A10722  34.522  42.534   7.683
  433POPC   C1B10723  34.369  42.003   8.914
  433POPC   C2B10724  34.380  41.981   8.472
  433POPC   C3B10725  34.261  42.094   8.076
  433POPC   C4B10726  34.506  42.018   7.737
  434POPC   NC310727  38.472  11.719   9.289
  434POPC   PO410728  37.998  11.260   9.446
  434POPC   GL110729  38.280  11.249   9.097
  434POPC   GL210730  38.648  11.238   9.137
  434POPC   C1A10731  38.425  11.387   8.700
  434POPC   D2A10732  38.409  11.635   8.354
  434POPC   C3A10733  38.255  11.387   8.038
  434POPC   C4A10734  38.259  11.523   7.668
  434POPC   C1B10735  38.826  11.093   8.711
  434POPC   C2B10736  38.670  11.205   8.251
  434POPC   C3B10737  38.657  11.127   7.766
  434POPC   C4B10738  38.721  10.946   7.324
  435POPC   NC310739   4.264  26.643   9.862
  435POPC   PO410740   4.776  26.889   9.537
  435POPC   GL110741   4.647  26.783   9.134
  435POPC   GL210742   4.528  27.116   9.099
  435POPC   C1A10743   4.681  26.721   8.643
  435POPC   D2A10744   4.638  26.961   8.241
  435POPC   C3A10745   4.465  26.768   7.849
  435POPC   C4A10746   4.591  26.322   7.633
  435POPC   C1B10747   4.384  27.141   8.654
  435POPC   C2B10748   4.138  27.030   8.246
  435POPC   C3B10749   4.033  27.029   7.788
  435POPC   C4B10750   3.819  26.849   7.438
  436POPC   NC310751  31.894  18.342   9.586
  436POPC   PO410752  32.549  18.302   9.508
  436POPC   GL110753  32.554  18.438   9.069
  436POPC   GL210754  32.661  18.125   8.999
  436POPC   C1A10755  32.222  18.454   8.714
  436POPC   D2A10756  31.952  18.199   8.387
  436POPC   C3A10757  32.174  18.199   7.969
  436POPC   C4A10758  32.222  18.596   7.806
  436POPC   C1B10759  32.598  18.142   8.561
  436POPC   C2B10760  32.556  18.429   8.217
  436POPC   C3B10761  32.715  18.314   7.821
  436POPC   C4B10762  32.676  17.933   7.541
  437POPC   NC310763  40.260  40.242   9.532
  437POPC   PO410764  39.914  39.647   9.410
  437POPC   GL110765  40.126  39.937   9.146
  437POPC   GL210766  39.865  40.174   9.174
  437POPC   C1A10767  40.242  40.171   8.793
  437POPC   D2A10768  40.349  40.090   8.419
  437POPC   C3A10769  40.025  39.965   8.176
  437POPC   C4A10770  40.060  40.021   7.759
  437POPC   C1B10771  39.760  39.980   8.743
  437POPC   C2B10772  39.713  39.638   8.410
  437POPC   C3B10773  39.752  39.608   7.951
  437POPC   C4B10774  39.482  39.555   7.650
  438POPC   NC310775  40.298  36.716   9.359
  438POPC   PO410776  40.039  37.352   9.480
  438POPC   GL110777  40.003  37.034   9.107
  438POPC   GL210778  39.979  36.673   8.970
  438POPC   C1A10779  40.083  37.059   8.677
  438POPC   D2A10780  39.727  37.042   8.446
  438POPC   C3A10781  39.903  36.982   8.078
  438POPC   C4A10782  39.804  36.800   7.758
  438POPC   C1B10783  40.347  36.596   8.706
  438POPC   C2B10784  40.482  36.704   8.304
  438POPC   C3B10785  40.245  36.587   7.942
  438POPC   C4B10786  40.043  36.401   7.588
  439POPC   NC310787  26.685  41.855   9.322
  439POPC   PO410788  26.626  42.508   9.684
  439POPC   GL110789  26.665  42.364   9.284
  439POPC   GL210790  27.020  42.306   9.326
  439POPC   C1A10791  26.493  42.424   8.858
  439POPC   D2A10792  26.613  42.504   8.383
  439POPC   C3A10793  26.740  42.136   8.107
  439POPC   C4A10794  26.484  41.825   7.857
  439POPC   C1B10795  27.008  42.369   8.872
  439POPC   C2B10796  27.121  42.450   8.454
  439POPC   C3B10797  27.015  42.577   8.047
  439POPC   C4B10798  27.063  42.335   7.692
  440POPC   NC310799  24.129  28.515   9.692
  440POPC   PO410800  23.447  28.350   9.486
  440POPC   GL110801  23.621  28.329   9.098
  440POPC   GL210802  23.596  28.715   9.144
  440POPC   C1A10803  23.747  28.077   8.707
  440POPC   D2A10804  23.622  27.978   8.252
  440POPC   C3A10805  23.860  28.112   7.874
  440POPC   C4A10806  23.652  28.133   7.459
  440POPC   C1B10807  23.449  28.672   8.768
  440POPC   C2B10808  23.726  28.536   8.475
  440POPC   C3B10809  23.655  28.543   8.073
  440POPC   C4B10810  23.728  28.594   7.669
  441POPC   NC310811  28.975  24.648   9.363
  441POPC   PO410812  28.681  24.103   9.398
  441POPC   GL110813  28.844  24.260   9.032
  441POPC   GL210814  29.193  24.262   9.073
  441POPC   C1A10815  28.924  24.512   8.658
  441POPC   D2A10816  28.824  24.732   8.266
  441POPC   C3A10817  28.960  24.537   7.865
  441POPC   C4A10818  29.274  24.203   7.804
  441POPC   C1B10819  29.276  24.129   8.645
  441POPC   C2B10820  29.232  24.371   8.275
  441POPC   C3B10821  29.449  24.654   7.956
  441POPC   C4B10822  29.307  24.778   7.533
  442POPC   NC310823  36.102  35.578   9.534
  442POPC   PO410824  36.193  34.903   9.571
  442POPC   GL110825  36.168  35.186   9.180
  442POPC   GL210826  35.956  35.458   9.081
  442POPC   C1A10827  36.244  35.215   8.720
  442POPC   D2A10828  36.054  35.402   8.322
  442POPC   C3A10829  35.958  35.179   7.937
  442POPC   C4A10830  36.048  35.094   7.457
  442POPC   C1B10831  36.052  35.721   8.742
  442POPC   C2B10832  35.838  35.867   8.372
  442POPC   C3B10833  35.819  35.725   7.943
  442POPC   C4B10834  36.142  35.561   7.666
  443POPC   NC310835  28.367   1.016   9.672
  443POPC   PO410836  28.735   1.606   9.544
  443POPC   GL110837  28.792   1.364   9.169
  443POPC   GL210838  28.445   1.257   9.215
  443POPC   C1A10839  28.705   1.145   8.750
  443POPC   D2A10840  28.773   0.983   8.319
  443POPC   C3A10841  28.438   1.082   8.031
  443POPC   C4A10842  28.190   0.983   7.658
  443POPC   C1B10843  28.377   1.519   8.861
  443POPC   C2B10844  28.456   1.464   8.426
  443POPC   C3B10845  28.475   1.599   8.018
  443POPC   C4B10846  28.119   1.501   7.765
  444POPC   NC310847  12.222   0.818   9.655
  444POPC   PO410848  12.150   1.480   9.725
  444POPC   GL110849  12.025   1.238   9.280
  444POPC   GL210850  12.264   1.004   9.158
  444POPC   C1A10851  12.023   1.398   8.813
  444POPC   D2A10852  12.026   1.254   8.379
  444POPC   C3A10853  12.223   1.480   8.054
  444POPC   C4A10854  12.009   1.360   7.672
  444POPC   C1B10855  12.061   0.891   8.757
  444POPC   C2B10856  12.216   0.784   8.354
  444POPC   C3B10857  12.272   0.959   7.953
  444POPC   C4B10858  12.293   0.706   7.597
  445POPC   NC310859   1.419   3.509   9.870
  445POPC   PO410860   0.840   3.668   9.515
  445POPC   GL110861   1.018   3.554   9.166
  445POPC   GL210862   1.338   3.470   9.324
  445POPC   C1A10863   1.028   3.555   8.717
  445POPC   D2A10864   1.099   3.562   8.269
  445POPC   C3A10865   0.927   3.466   7.903
  445POPC   C4A10866   1.108   3.829   7.726
  445POPC   C1B10867   1.336   3.209   8.950
  445POPC   C2B10868   1.301   3.152   8.507
  445POPC   C3B10869   1.461   3.227   8.087
  445POPC   C4B10870   1.438   3.461   7.718
  446POPC   NC310871  40.980  38.223   9.471
  446POPC   PO410872  40.567  38.725   9.405
  446POPC   GL110873  40.838  38.579   9.131
  446POPC   GL210874  40.633  38.310   9.041
  446POPC   C1A10875  40.966  38.585   8.730
  446POPC   D2A10876  40.985  38.916   8.394
  446POPC   C3A10877  40.825  38.833   7.987
  446POPC   C4A10878  40.883  38.515   7.687
  446POPC   C1B10879  40.468  38.615   8.702
  446POPC   C2B10880  40.481  38.540   8.251
  446POPC   C3B10881  40.440  38.344   7.839
  446POPC   C4B10882  40.498  38.213   7.385
  447POPC   NC310883  25.876  26.992   9.449
  447POPC   PO410884  26.147  26.478   9.337
  447POPC   GL110885  25.928  26.700   9.041
  447POPC   GL210886  26.127  26.987   9.013
  447POPC   C1A10887  25.743  26.585   8.697
  447POPC   D2A10888  25.889  26.391   8.283
  447POPC   C3A10889  26.009  26.634   7.936
  447POPC   C4A10890  26.404  26.868   7.897
  447POPC   C1B10891  26.165  26.856   8.573
  447POPC   C2B10892  26.026  27.058   8.206
  447POPC   C3B10893  25.956  27.151   7.782
  447POPC   C4B10894  26.193  27.286   7.421
  448POPC   NC310895  38.017  17.701   9.497
  448POPC   PO410896  38.676  17.401   9.391
  448POPC   GL110897  38.361  17.523   9.155
  448POPC   GL210898  38.444  17.839   9.192
  448POPC   C1A10899  38.247  17.403   8.765
  448POPC   D2A10900  38.452  17.104   8.489
  448POPC   C3A10901  38.445  17.197   8.051
  448POPC   C4A10902  38.249  17.462   7.766
  448POPC   C1B10903  38.503  17.840   8.749
  448POPC   C2B10904  38.529  17.601   8.377
  448POPC   C3B10905  38.715  17.635   7.987
  448POPC   C4B10906  38.833  17.798   7.571
  449POPC   NC310907  26.803   3.614   9.610
  449POPC   PO410908  26.598   3.202   9.318
  449POPC   GL110909  26.727   3.592   9.078
  449POPC   GL210910  27.044   3.755   9.170
  449POPC   C1A10911  26.644   3.790   8.669
  449POPC   D2A10912  26.533   3.849   8.227
  449POPC   C3A10913  26.750   3.695   7.837
  449POPC   C4A10914  26.609   3.832   7.421
  449POPC   C1B10915  27.134   3.645   8.714
  449POPC   C2B10916  27.149   3.388   8.299
  449POPC   C3B10917  27.095   3.265   7.842
  449POPC   C4B10918  27.244   3.403   7.450
  450POPC   NC310919   5.406  15.413   9.385
  450POPC   PO410920   4.798  15.544   9.543
  450POPC   GL110921   4.870  15.791   9.165
  450POPC   GL210922   5.216  15.828   9.086
  450POPC   C1A10923   4.874  16.046   8.765
  450POPC   D2A10924   5.021  15.919   8.334
  450POPC   C3A10925   4.966  16.150   7.942
  450POPC   C4A10926   5.122  16.210   7.504
  450POPC   C1B10927   5.040  15.565   8.724
  450POPC   C2B10928   4.990  15.425   8.276
  450POPC   C3B10929   5.088  15.639   7.883
  450POPC   C4B10930   5.307  15.749   7.530
  451POPC   NC310931  26.764  37.331   9.491
  451POPC   PO410932  27.020  37.958   9.568
  451POPC   GL110933  27.008  37.692   9.170
  451POPC   GL210934  26.638  37.593   9.041
  451POPC   C1A10935  26.995  37.748   8.709
  451POPC   D2A10936  26.721  37.527   8.417
  451POPC   C3A10937  26.959  37.425   8.037
  451POPC   C4A10938  27.143  37.660   7.713
  451POPC   C1B10939  26.534  37.950   8.708
  451POPC   C2B10940  26.545  37.981   8.245
  451POPC   C3B10941  26.652  37.775   7.823
  451POPC   C4B10942  26.552  37.721   7.361
  452POPC   NC310943  17.142  31.241   9.949
  452POPC   PO410944  17.604  31.471   9.543
  452POPC   GL110945  17.493  31.354   9.136
  452POPC   GL210946  17.503  31.736   9.115
  452POPC   C1A10947  17.452  31.400   8.714
  452POPC   D2A10948  17.247  31.205   8.383
  452POPC   C3A10949  17.545  31.352   8.121
  452POPC   C4A10950  17.490  31.528   7.781
  452POPC   C1B10951  17.819  31.764   8.825
  452POPC   C2B10952  17.839  31.682   8.404
  452POPC   C3B10953  17.822  31.839   7.992
  452POPC   C4B10954  18.042  31.764   7.608
  453POPC   NC310955  40.303  31.125   9.508
  453POPC   PO410956  39.746  31.515   9.583
  453POPC   GL110957  39.888  31.354   9.217
  453POPC   GL210958  40.213  31.498   9.152
  453POPC   C1A10959  39.844  31.596   8.835
  453POPC   D2A10960  39.871  31.831   8.470
  453POPC   C3A10961  40.087  31.697   8.100
  453POPC   C4A10962  39.841  31.574   7.742
  453POPC   C1B10963  40.175  31.143   8.838
  453POPC   C2B10964  40.200  31.125   8.382
  453POPC   C3B10965  40.251  31.230   7.944
  453POPC   C4B10966  40.258  31.404   7.502
  454POPC   NC310967   8.864  40.361   9.430
  454POPC   PO410968   8.836  39.691   9.435
  454POPC   GL110969   8.866  39.943   9.105
  454POPC   GL210970   9.197  40.055   9.159
  454POPC   C1A10971   8.802  40.032   8.683
  454POPC   D2A10972   8.595  39.841   8.348
  454POPC   C3A10973   8.884  39.910   8.034
  454POPC   C4A10974   8.929  40.117   7.688
  454POPC   C1B10975   9.266  39.867   8.778
  454POPC   C2B10976   9.249  40.086   8.364
  454POPC   C3B10977   9.457  40.006   7.966
  454POPC   C4B10978   9.395  40.083   7.494
  455POPC   NC310979  28.649   8.085   9.412
  455POPC   PO410980  28.219   8.541   9.449
  455POPC   GL110981  28.047   8.464   9.055
  455POPC   GL210982  28.330   8.252   9.038
  455POPC   C1A10983  28.078   8.446   8.594
  455POPC   D2A10984  28.279   8.201   8.253
  455POPC   C3A10985  28.198   8.335   7.870
  455POPC   C4A10986  28.568   8.446   7.694
  455POPC   C1B10987  28.475   8.061   8.692
  455POPC   C2B10988  28.406   7.725   8.438
  455POPC   C3B10989  28.378   7.690   8.031
  455POPC   C4B10990  28.512   7.953   7.748
  456POPC   NC310991  35.758  34.768   9.495
  456POPC   PO410992  35.381  34.241   9.641
  456POPC   GL110993  35.378  34.443   9.211
  456POPC   GL210994  35.651  34.502   9.021
  456POPC   C1A10995  35.222  34.311   8.760
  456POPC   D2A10996  35.160  34.549   8.357
  456POPC   C3A10997  35.165  34.318   7.963
  456POPC   C4A10998  35.254  34.252   7.520
  456POPC   C1B10999  35.467  34.760   8.722
  456POPC   C2B11000  35.566  34.907   8.340
  456POPC   C3B11001  35.391  34.832   7.986
  456POPC   C4B11002  35.628  34.905   7.659
  457POPC   NC311003  29.262  37.576   9.604
  457POPC   PO411004  28.721  37.546   9.713
  457POPC   GL111005  28.868  37.648   9.276
  457POPC   GL211006  28.607  37.538   9.077
  457POPC   C1A11007  29.192  37.647   8.911
  457POPC   D2A11008  29.343  37.768   8.472
  457POPC   C3A11009  29.241  37.523   8.075
  457POPC   C4A11010  28.828  37.475   7.853
  457POPC   C1B11011  28.741  37.804   8.721
  457POPC   C2B11012  28.841  37.752   8.292
  457POPC   C3B11013  28.986  37.962   7.921
  457POPC   C4B11014  28.844  38.103   7.504
  458POPC   NC311015  43.259  23.062   9.589
  458POPC   PO411016  42.691  23.166   9.395
  458POPC   GL111017  42.992  22.920   9.176
  458POPC   GL211018  43.273  23.110   9.093
  458POPC   C1A11019  43.087  22.711   8.785
  458POPC   D2A11020  43.037  22.869   8.354
  458POPC   C3A11021  43.257  22.734   7.987
  458POPC   C4A11022  43.581  22.670   7.692
  458POPC   C1B11023  42.997  23.221   8.755
  458POPC   C2B11024  43.120  23.364   8.365
  458POPC   C3B11025  43.128  23.235   7.948
  458POPC   C4B11026  43.502  23.169   7.721
  459POPC   NC311027  39.120   1.429   9.494
  459POPC   PO411028  39.429   2.016   9.580
  459POPC   GL111029  39.521   1.909   9.171
  459POPC   GL211030  39.406   1.601   9.111
  459POPC   C1A11031  39.323   2.116   8.815
  459POPC   D2A11032  39.465   2.204   8.392
  459POPC   C3A11033  39.206   2.147   8.025
  459POPC   C4A11034  39.225   2.396   7.650
  459POPC   C1B11035  39.385   1.632   8.727
  459POPC   C2B11036  39.200   1.746   8.354
  459POPC   C3B11037  39.335   1.647   7.952
  459POPC   C4B11038  39.498   1.893   7.665
  460POPC   NC311039   7.420   6.039   9.400
  460POPC   PO411040   7.549   5.391   9.250
  460POPC   GL111041   7.256   5.488   8.923
  460POPC   GL211042   7.262   5.838   8.975
  460POPC   C1A11043   7.236   5.693   8.501
  460POPC   D2A11044   7.500   5.916   8.245
  460POPC   C3A11045   7.322   5.857   7.885
  460POPC   C4A11046   7.544   5.843   7.545
  460POPC   C1B11047   7.049   6.128   8.711
  460POPC   C2B11048   7.031   6.128   8.271
  460POPC   C3B11049   7.076   6.334   7.914
  460POPC   C4B11050   7.174   6.177   7.507
  461POPC   NC311051  11.776  10.634   9.510
  461POPC   PO411052  12.066   9.994   9.668
  461POPC   GL111053  12.075  10.072   9.183
  461POPC   GL211054  12.110  10.428   9.185
  461POPC   C1A11055  12.153  10.189   8.739
  461POPC   D2A11056  12.097  10.035   8.332
  461POPC   C3A11057  12.074  10.298   7.975
  461POPC   C4A11058  11.763  10.361   7.669
  461POPC   C1B11059  11.971  10.704   8.841
  461POPC   C2B11060  12.028  10.615   8.404
  461POPC   C3B11061  11.838  10.759   8.033
  461POPC   C4B11062  11.813  10.877   7.640
  462POPC   NC311063  35.429   5.808   9.533
  462POPC   PO411064  35.011   5.351   9.436
  462POPC   GL111065  35.052   5.721   9.171
  462POPC   GL211066  34.887   5.989   9.325
  462POPC   C1A11067  35.355   5.959   8.880
  462POPC   D2A11068  35.540   5.952   8.448
  462POPC   C3A11069  35.518   6.078   8.009
  462POPC   C4A11070  35.418   5.792   7.660
  462POPC   C1B11071  34.888   6.123   8.902
  462POPC   C2B11072  35.025   6.033   8.491
  462POPC   C3B11073  35.044   5.885   8.073
  462POPC   C4B11074  35.090   6.179   7.724
  463POPC   NC311075  15.715  42.643   9.632
  463POPC   PO411076  15.771  41.975   9.558
  463POPC   GL111077  15.892  42.217   9.173
  463POPC   GL211078  15.838  42.581   9.154
  463POPC   C1A11079  15.861  42.026   8.731
  463POPC   D2A11080  15.905  41.797   8.346
  463POPC   C3A11081  15.779  42.010   8.012
  463POPC   C4A11082  15.917  42.257   7.671
  463POPC   C1B11083  15.675  42.487   8.768
  463POPC   C2B11084  15.845  42.396   8.358
  463POPC   C3B11085  15.534  42.445   8.035
  463POPC   C4B11086  15.522  42.599   7.671
  464POPC   NC311087   2.995  12.692   9.572
  464POPC   PO411088   2.446  12.954   9.467
  464POPC   GL111089   2.738  12.881   9.140
  464POPC   GL211090   2.543  13.106   8.939
  464POPC   C1A11091   2.947  12.891   8.712
  464POPC   D2A11092   2.905  12.797   8.279
  464POPC   C3A11093   2.888  13.132   7.919
  464POPC   C4A11094   2.962  13.103   7.448
  464POPC   C1B11095   2.521  12.641   8.722
  464POPC   C2B11096   2.608  12.370   8.328
  464POPC   C3B11097   2.383  12.278   7.892
  464POPC   C4B11098   2.509  12.455   7.439
  465POPC   NC311099  23.571  16.272   9.287
  465POPC   PO411100  23.602  15.716   9.668
  465POPC   GL111101  23.499  15.604   9.244
  465POPC   GL211102  23.834  15.703   9.179
  465POPC   C1A11103  23.566  15.627   8.755
  465POPC   D2A11104  23.611  15.950   8.404
  465POPC   C3A11105  23.443  15.866   7.967
  465POPC   C4A11106  23.474  15.749   7.521
  465POPC   C1B11107  24.098  15.792   8.833
  465POPC   C2B11108  24.185  15.905   8.405
  465POPC   C3B11109  23.960  15.944   8.027
  465POPC   C4B11110  23.797  16.166   7.702
  466POPC   NC311111   0.354  10.105   9.526
  466POPC   PO411112   0.795   9.562   9.506
  466POPC   GL111113   0.499   9.617   9.165
  466POPC   GL211114   0.483   9.963   9.062
  466POPC   C1A11115   0.415   9.413   8.764
  466POPC   D2A11116   0.575   9.440   8.360
  466POPC   C3A11117   0.346   9.428   8.031
  466POPC   C4A11118   0.303   9.723   7.781
  466POPC   C1B11119   0.587   9.899   8.655
  466POPC   C2B11120   0.384   9.916   8.276
  466POPC   C3B11121   0.483  10.160   7.928
  466POPC   C4B11122   0.748   9.948   7.647
  467POPC   NC311123  34.904   7.428   9.889
  467POPC   PO411124  35.348   7.552   9.443
  467POPC   GL111125  35.183   7.570   9.024
  467POPC   GL211126  35.385   7.318   8.962
  467POPC   C1A11127  35.188   7.562   8.539
  467POPC   D2A11128  35.097   7.418   8.122
  467POPC   C3A11129  35.305   7.611   7.814
  467POPC   C4A11130  35.558   7.614   7.453
  467POPC   C1B11131  35.103   7.103   8.722
  467POPC   C2B11132  35.274   6.996   8.368
  467POPC   C3B11133  35.514   7.102   8.018
  467POPC   C4B11134  35.343   7.150   7.610
  468POPC   NC311135   3.368  21.269   9.472
  468POPC   PO411136   3.709  21.843   9.312
  468POPC   GL111137   3.526  21.552   9.059
  468POPC   GL211138   3.754  21.346   9.136
  468POPC   C1A11139   3.403  21.366   8.671
  468POPC   D2A11140   3.406  21.151   8.259
  468POPC   C3A11141   3.349  21.407   7.931
  468POPC   C4A11142   3.550  21.820   7.761
  468POPC   C1B11143   3.842  21.163   8.749
  468POPC   C2B11144   3.886  21.008   8.346
  468POPC   C3B11145   3.834  21.237   7.969
  468POPC   C4B11146   3.687  21.382   7.560
  469POPC   NC311147  42.461  11.814   9.428
  469POPC   PO411148  41.933  12.222   9.443
  469POPC   GL111149  42.083  11.971   9.142
  469POPC   GL211150  42.352  12.248   9.143
  469POPC   C1A11151  42.326  11.945   8.756
  469POPC   D2A11152  42.574  12.112   8.410
  469POPC   C3A11153  42.439  12.040   7.980
  469POPC   C4A11154  42.507  11.884   7.546
  469POPC   C1B11155  42.266  12.452   8.743
  469POPC   C2B11156  42.305  12.587   8.307
  469POPC   C3B11157  42.166  12.455   7.887
  469POPC   C4B11158  42.355  12.363   7.442
  470POPC   NC311159  43.508  29.164   9.491
  470POPC   PO411160  43.092  28.734   9.792
  470POPC   GL111161  43.135  28.849   9.306
  470POPC   GL211162  43.062  29.206   9.232
  470POPC   C1A11163  43.073  28.919   8.811
  470POPC   D2A11164  43.163  29.181   8.414
  470POPC   C3A11165  42.863  29.113   8.053
  470POPC   C4A11166  42.991  28.951   7.645
  470POPC   C1B11167  42.736  29.306   8.910
  470POPC   C2B11168  42.741  29.440   8.489
  470POPC   C3B11169  42.927  29.616   8.138
  470POPC   C4B11170  42.902  29.667   7.710
  471POPC   NC311171  25.294  22.229   9.547
  471POPC   PO411172  24.772  21.760   9.424
  471POPC   GL111173  25.041  21.986   9.124
  471POPC   GL211174  25.396  22.034   9.104
  471POPC   C1A11175  25.103  22.222   8.723
  471POPC   D2A11176  25.092  22.454   8.319
  471POPC   C3A11177  25.036  22.252   7.909
  471POPC   C4A11178  25.214  21.935   7.631
  471POPC   C1B11179  25.597  22.266   8.769
  471POPC   C2B11180  25.585  22.110   8.363
  471POPC   C3B11181  25.559  22.210   7.918
  471POPC   C4B11182  25.460  22.418   7.523
  472POPC   NC311183  24.173   6.423   9.529
  472POPC   PO411184  24.650   6.895   9.649
  472POPC   GL111185  24.628   6.947   9.225
  472POPC   GL211186  24.362   6.743   9.180
  472POPC   C1A11187  24.784   6.826   8.838
  472POPC   D2A11188  24.696   6.621   8.475
  472POPC   C3A11189  24.727   6.826   8.101
  472POPC   C4A11190  24.703   6.621   7.721
  472POPC   C1B11191  24.275   6.639   8.762
  472POPC   C2B11192  24.261   6.872   8.358
  472POPC   C3B11193  24.238   6.800   7.924
  472POPC   C4B11194  23.897   6.748   7.663
  473POPC   NC311195  35.499  41.040   9.672
  473POPC   PO411196  34.915  40.718   9.561
  473POPC   GL111197  35.213  40.781   9.246
  473POPC   GL211198  34.944  40.849   9.036
  473POPC   C1A11199  35.408  40.916   8.841
  473POPC   D2A11200  35.720  40.728   8.519
  473POPC   C3A11201  35.656  40.824   8.044
  473POPC   C4A11202  35.590  40.527   7.700
  473POPC   C1B11203  34.971  40.797   8.621
  473POPC   C2B11204  35.250  40.867   8.339
  473POPC   C3B11205  35.161  40.671   7.975
  473POPC   C4B11206  34.957  40.629   7.589
  474POPC   NC311207  15.244  23.954   9.457
  474POPC   PO411208  14.951  23.403   9.684
  474POPC   GL111209  15.191  23.528   9.184
  474POPC   GL211210  15.520  23.410   9.120
  474POPC   C1A11211  15.094  23.886   8.790
  474POPC   D2A11212  15.163  24.130   8.368
  474POPC   C3A11213  15.098  23.905   7.971
  474POPC   C4A11214  15.001  23.736   7.561
  474POPC   C1B11215  15.435  23.522   8.728
  474POPC   C2B11216  15.485  23.719   8.395
  474POPC   C3B11217  15.483  23.557   8.046
  474POPC   C4B11218  15.511  23.646   7.675
  475POPC   NC311219   9.445   4.895   9.440
  475POPC   PO411220  10.122   5.118   9.417
  475POPC   GL111221   9.979   5.229   9.043
  475POPC   GL211222   9.643   5.153   9.041
  475POPC   C1A11223   9.952   5.022   8.635
  475POPC   D2A11224  10.231   5.015   8.271
  475POPC   C3A11225  10.037   5.111   7.911
  475POPC   C4A11226   9.855   4.960   7.522
  475POPC   C1B11227   9.454   5.320   8.654
  475POPC   C2B11228   9.434   5.366   8.206
  475POPC   C3B11229   9.523   5.080   7.887
  475POPC   C4B11230   9.354   4.831   7.529
  476POPC   NC311231  11.545  13.245   9.499
  476POPC   PO411232  11.436  12.605   9.514
  476POPC   GL111233  11.250  12.441   9.151
  476POPC   GL211234  10.911  12.444   9.272
  476POPC   C1A11235  11.365  12.531   8.720
  476POPC   D2A11236  11.458  12.806   8.371
  476POPC   C3A11237  11.435  12.654   7.947
  476POPC   C4A11238  11.457  12.990   7.653
  476POPC   C1B11239  10.855  12.487   8.815
  476POPC   C2B11240  10.948  12.713   8.424
  476POPC   C3B11241  11.046  12.961   8.047
  476POPC   C4B11242  10.957  12.888   7.612
  477POPC   NC311243  19.174   1.297   9.556
  477POPC   PO411244  18.759   0.847   9.477
  477POPC   GL111245  18.971   1.040   9.164
  477POPC   GL211246  19.285   1.066   9.128
  477POPC   C1A11247  18.889   1.229   8.800
  477POPC   D2A11248  18.998   1.417   8.448
  477POPC   C3A11249  18.895   1.253   8.051
  477POPC   C4A11250  18.779   1.209   7.607
  477POPC   C1B11251  19.336   1.473   8.888
  477POPC   C2B11252  19.523   1.481   8.481
  477POPC   C3B11253  19.311   1.553   8.064
  477POPC   C4B11254  19.284   1.242   7.743
  478POPC   NC311255   9.544  10.352   9.530
  478POPC   PO411256   9.837  10.941   9.449
  478POPC   GL111257   9.855  10.582   9.169
  478POPC   GL211258  10.165  10.599   9.054
  478POPC   C1A11259   9.701  10.408   8.762
  478POPC   D2A11260   9.433  10.545   8.388
  478POPC   C3A11261   9.571  10.418   7.974
  478POPC   C4A11262   9.663  10.707   7.642
  478POPC   C1B11263  10.077  10.760   8.628
  478POPC   C2B11264  10.002  10.515   8.243
  478POPC   C3B11265  10.062  10.441   7.782
  478POPC   C4B11266  10.223  10.573   7.408
  479POPC   NC311267  14.133  26.382   9.658
  479POPC   PO411268  14.657  26.002   9.655
  479POPC   GL111269  14.551  25.957   9.219
  479POPC   GL211270  14.813  25.727   9.129
  479POPC   C1A11271  14.275  26.183   8.902
  479POPC   D2A11272  14.187  26.414   8.504
  479POPC   C3A11273  14.176  26.203   8.098
  479POPC   C4A11274  14.353  26.281   7.722
  479POPC   C1B11275  14.631  25.841   8.716
  479POPC   C2B11276  14.641  26.036   8.295
  479POPC   C3B11277  14.699  25.941   7.841
  479POPC   C4B11278  14.615  25.690   7.440
  480POPC   NC311279  13.361  41.723   9.517
  480POPC   PO411280  13.928  42.018   9.614
  480POPC   GL111281  13.780  41.779   9.221
  480POPC   GL211282  13.411  41.835   9.034
  480POPC   C1A11283  13.848  41.842   8.798
  480POPC   D2A11284  13.628  41.875   8.434
  480POPC   C3A11285  13.923  41.851   8.102
  480POPC   C4A11286  13.971  41.729   7.665
  480POPC   C1B11287  13.515  41.458   8.782
  480POPC   C2B11288  13.694  41.369   8.377
  480POPC   C3B11289  13.568  41.483   7.963
  480POPC   C4B11290  13.718  41.252   7.612
  481POPC   NC311291   8.549   8.408   9.336
  481POPC   PO411292   8.060   8.135   9.551
  481POPC   GL111293   8.204   8.088   9.147
  481POPC   GL211294   8.476   7.869   9.240
  481POPC   C1A11295   8.292   8.241   8.694
  481POPC   D2A11296   7.977   8.350   8.378
  481POPC   C3A11297   7.887   8.114   8.018
  481POPC   C4A11298   7.932   8.231   7.594
  481POPC   C1B11299   8.290   7.723   8.818
  481POPC   C2B11300   8.196   7.848   8.400
  481POPC   C3B11301   8.372   7.936   8.023
  481POPC   C4B11302   8.307   7.847   7.608
  482POPC   NC311303  13.623   9.995   9.621
  482POPC   PO411304  13.895   9.462   9.320
  482POPC   GL111305  13.579   9.625   9.039
  482POPC   GL211306  13.463   9.937   9.139
  482POPC   C1A11307  13.584   9.798   8.627
  482POPC   D2A11308  13.610   9.865   8.186
  482POPC   C3A11309  13.885   9.604   7.965
  482POPC   C4A11310  14.020   9.685   7.558
  482POPC   C1B11311  13.159  10.003   8.812
  482POPC   C2B11312  13.073   9.891   8.381
  482POPC   C3B11313  13.181   9.920   7.933
  482POPC   C4B11314  13.548   9.879   7.651
  483POPC   NC311315   6.985   2.181   9.469
  483POPC   PO411316   6.558   1.760   9.689
  483POPC   GL111317   6.644   1.890   9.228
  483POPC   GL211318   6.964   1.899   9.044
  483POPC   C1A11319   6.462   1.757   8.860
  483POPC   D2A11320   6.304   1.837   8.466
  483POPC   C3A11321   6.527   1.692   8.095
  483POPC   C4A11322   6.673   1.747   7.659
  483POPC   C1B11323   6.719   2.164   8.756
  483POPC   C2B11324   6.666   2.165   8.330
  483POPC   C3B11325   6.769   2.141   7.935
  483POPC   C4B11326   6.462   2.235   7.634
  484POPC   NC311327   0.134   3.192   9.791
  484POPC   PO411328   0.458   2.752   9.392
  484POPC   GL111329   0.164   2.814   9.136
  484POPC   GL211330   0.084   3.144   9.244
  484POPC   C1A11331   0.193   2.672   8.709
  484POPC   D2A11332   0.565   2.767   8.508
  484POPC   C3A11333   0.675   2.627   8.131
  484POPC   C4A11334   0.581   2.653   7.750
  484POPC   C1B11335   0.351   3.153   8.822
  484POPC   C2B11336   0.301   3.173   8.389
  484POPC   C3B11337   0.174   2.783   8.168
  484POPC   C4B11338   0.056   2.712   7.748
  485POPC   NC311339   8.600  43.989   9.528
  485POPC   PO411340   8.101  43.647   9.438
  485POPC   GL111341   8.280  43.929   9.098
  485POPC   GL211342   8.583  44.177   9.047
  485POPC   C1A11343   8.123  43.973   8.681
  485POPC   D2A11344   8.297  43.732   8.358
  485POPC   C3A11345   8.407  43.828   7.947
  485POPC   C4A11346   8.320  43.599   7.580
  485POPC   C1B11347   8.591  44.119   8.578
  485POPC   C2B11348   8.316  44.251   8.250
  485POPC   C3B11349   7.998  44.161   7.971
  485POPC   C4B11350   8.011  43.999   7.601
  486POPC   NC311351  43.179  37.514   9.582
  486POPC   PO411352  42.609  37.831   9.827
  486POPC   GL111353  42.805  37.734   9.345
  486POPC   GL211354  42.875  37.464   9.148
  486POPC   C1A11355  42.916  37.889   8.880
  486POPC   D2A11356  42.970  38.126   8.471
  486POPC   C3A11357  43.203  37.948   8.118
  486POPC   C4A11358  43.583  37.820   7.869
  486POPC   C1B11359  42.747  37.406   8.737
  486POPC   C2B11360  42.854  37.539   8.315
  486POPC   C3B11361  43.238  37.438   8.085
  486POPC   C4B11362  43.134  37.621   7.726
  487POPC   NC311363  17.803   5.367   9.527
  487POPC   PO411364  17.263   4.903   9.445
  487POPC   GL111365  17.510   5.138   9.175
  487POPC   GL211366  17.565   4.858   8.939
  487POPC   C1A11367  17.656   5.326   8.785
  487POPC   D2A11368  17.604   5.057   8.400
  487POPC   C3A11369  17.727   5.200   7.969
  487POPC   C4A11370  17.528   5.385   7.590
  487POPC   C1B11371  17.317   4.654   8.621
  487POPC   C2B11372  17.269   4.592   8.188
  487POPC   C3B11373  17.051   4.765   7.831
  487POPC   C4B11374  17.005   4.577   7.408
  488POPC   NC311375   9.044  36.729   9.511
  488POPC   PO411376   9.062  37.316   9.733
  488POPC   GL111377   8.920  37.197   9.212
  488POPC   GL211378   8.919  36.842   9.055
  488POPC   C1A11379   8.694  37.163   8.766
  488POPC   D2A11380   8.786  37.217   8.324
  488POPC   C3A11381   8.999  36.896   8.092
  488POPC   C4A11382   9.381  36.892   7.837
  488POPC   C1B11383   8.661  36.628   8.774
  488POPC   C2B11384   8.571  36.692   8.347
  488POPC   C3B11385   8.707  36.485   7.960
  488POPC   C4B11386   9.103  36.472   7.743
  489POPC   NC311387   1.887  33.621   9.652
  489POPC   PO411388   2.024  34.302   9.731
  489POPC   GL111389   1.988  33.956   9.305
  489POPC   GL211390   2.095  33.638   9.183
  489POPC   C1A11391   1.815  33.885   8.858
  489POPC   D2A11392   2.023  33.814   8.471
  489POPC   C3A11393   1.846  33.830   8.053
  489POPC   C4A11394   2.071  33.974   7.721
  489POPC   C1B11395   2.354  33.564   8.814
  489POPC   C2B11396   2.336  33.410   8.388
  489POPC   C3B11397   2.334  33.630   8.017
  489POPC   C4B11398   2.341  33.567   7.572
  490POPC   NC311399  13.608  23.376   9.507
  490POPC   PO411400  13.380  22.751   9.673
  490POPC   GL111401  13.518  22.923   9.249
  490POPC   GL211402  13.804  23.129   9.136
  490POPC   C1A11403  13.512  22.932   8.774
  490POPC   D2A11404  13.772  22.910   8.374
  490POPC   C3A11405  13.516  23.045   8.006
  490POPC   C4A11406  13.326  23.021   7.568
  490POPC   C1B11407  13.851  23.323   8.750
  490POPC   C2B11408  13.724  23.440   8.330
  490POPC   C3B11409  13.990  23.312   7.989
  490POPC   C4B11410  13.888  23.077   7.638
  491POPC   NC311411  18.496  19.829   9.225
  491POPC   PO411412  18.076  19.359   9.562
  491POPC   GL111413  18.129  19.541   9.098
  491POPC   GL211414  18.165  19.804   8.828
  491POPC   C1A11415  18.386  19.408   8.675
  491POPC   D2A11416  18.375  19.722   8.360
  491POPC   C3A11417  18.424  19.620   7.963
  491POPC   C4A11418  18.057  19.715   7.814
  491POPC   C1B11419  18.247  20.185   8.586
  491POPC   C2B11420  18.432  20.222   8.197
  491POPC   C3B11421  18.513  20.198   7.765
  491POPC   C4B11422  18.490  20.390   7.350
  492POPC   NC311423   3.296  10.278   9.435
  492POPC   PO411424   3.670  10.853   9.414
  492POPC   GL111425   3.423  10.694   9.135
  492POPC   GL211426   3.667  10.790   8.887
  492POPC   C1A11427   3.215  10.546   8.801
  492POPC   D2A11428   3.396  10.636   8.433
  492POPC   C3A11429   3.371  10.372   8.104
  492POPC   C4A11430   3.659  10.487   7.802
  492POPC   C1B11431   3.715  10.351   8.732
  492POPC   C2B11432   3.823  10.152   8.310
  492POPC   C3B11433   3.926  10.024   7.869
  492POPC   C4B11434   3.872  10.209   7.444
  493POPC   NC311435   3.047   6.640   9.413
  493POPC   PO411436   2.442   7.015   9.367
  493POPC   GL111437   2.752   6.957   8.992
  493POPC   GL211438   3.140   6.934   9.000
  493POPC   C1A11439   2.643   6.854   8.554
  493POPC   D2A11440   2.845   6.569   8.257
  493POPC   C3A11441   2.688   6.596   7.861
  493POPC   C4A11442   2.838   6.719   7.458
  493POPC   C1B11443   3.065   6.629   8.718
  493POPC   C2B11444   3.138   6.194   8.509
  493POPC   C3B11445   3.178   6.214   8.069
  493POPC   C4B11446   3.206   6.093   7.667
  494POPC   NC311447  21.718  21.536   9.613
  494POPC   PO411448  21.900  20.950   9.564
  494POPC   GL111449  21.752  21.252   9.197
  494POPC   GL211450  21.396  21.447   9.215
  494POPC   C1A11451  21.624  21.358   8.783
  494POPC   D2A11452  21.451  21.231   8.405
  494POPC   C3A11453  21.618  21.407   8.035
  494POPC   C4A11454  21.540  21.259   7.618
  494POPC   C1B11455  21.185  21.604   8.817
  494POPC   C2B11456  21.120  21.632   8.356
  494POPC   C3B11457  21.125  21.512   7.903
  494POPC   C4B11458  21.301  21.674   7.511
  495POPC   NC311459   6.509  24.654   9.441
  495POPC   PO411460   6.794  24.166   9.759
  495POPC   GL111461   6.917  24.334   9.321
  495POPC   GL211462   6.611  24.281   9.127
  495POPC   C1A11463   6.981  24.511   8.876
  495POPC   D2A11464   6.849  24.501   8.406
  495POPC   C3A11465   7.008  24.691   8.007
  495POPC   C4A11466   6.837  24.566   7.592
  495POPC   C1B11467   6.477  24.559   8.783
  495POPC   C2B11468   6.441  24.829   8.429
  495POPC   C3B11469   6.514  24.825   7.978
  495POPC   C4B11470   6.386  24.826   7.542
  496POPC   NC311471  16.728  44.790   9.511
  496POPC   PO411472  17.016  44.164   9.521
  496POPC   GL111473  16.786  44.436   9.135
  496POPC   GL211474  16.509  44.713   9.073
  496POPC   C1A11475  16.762  44.639   8.667
  496POPC   D2A11476  16.877   0.018   8.462
  496POPC   C3A11477  16.935  44.866   8.062
  496POPC   C4A11478  16.818  44.474   7.873
  496POPC   C1B11479  16.265  44.588   8.693
  496POPC   C2B11480  16.204  44.785   8.297
  496POPC   C3B11481  16.213  44.675   7.857
  496POPC   C4B11482  16.441  44.509   7.530
  497POPC   NC311483  43.331  40.188   9.457
  497POPC   PO411484  42.807  39.853   9.700
  497POPC   GL111485  42.928  39.909   9.269
  497POPC   GL211486  43.230  39.790   9.133
  497POPC   C1A11487  42.836  40.049   8.837
  497POPC   D2A11488  42.994  40.285   8.464
  497POPC   C3A11489  42.945  40.043   8.070
  497POPC   C4A11490  42.829  40.065   7.664
  497POPC   C1B11491  43.353  40.032   8.794
  497POPC   C2B11492  43.302  39.855   8.400
  497POPC   C3B11493  43.405  39.861   7.986
  497POPC   C4B11494  43.352  40.109   7.674
  498POPC   NC311495   2.262  12.498   9.611
  498POPC   PO411496   2.028  11.877   9.422
  498POPC   GL111497   2.086  12.268   9.189
  498POPC   GL211498   2.439  12.349   9.149
  498POPC   C1A11499   2.059  12.405   8.758
  498POPC   D2A11500   2.141  12.210   8.366
  498POPC   C3A11501   1.868  12.245   8.003
  498POPC   C4A11502   1.755  12.381   7.596
  498POPC   C1B11503   2.387  11.999   8.846
  498POPC   C2B11504   2.161  11.733   8.540
  498POPC   C3B11505   2.250  11.781   8.104
  498POPC   C4B11506   2.006  11.805   7.732
  499POPC   NC311507  10.239  25.772   9.660
  499POPC   PO411508  10.834  25.929   9.465
  499POPC   GL111509  10.452  26.001   9.202
  499POPC   GL211510  10.206  25.698   9.164
  499POPC   C1A11511  10.478  26.253   8.801
  499POPC   D2A11512  10.649  26.422   8.406
  499POPC   C3A11513  10.500  26.210   8.047
  499POPC   C4A11514  10.345  26.320   7.674
  499POPC   C1B11515  10.343  25.755   8.763
  499POPC   C2B11516  10.250  25.931   8.399
  499POPC   C3B11517  10.295  25.740   8.009
  499POPC   C4B11518  10.715  25.661   7.989
  500POPC   NC311519  42.503   2.317   9.529
  500POPC   PO411520  42.581   1.663   9.584
  500POPC   GL111521  42.505   1.921   9.167
  500POPC   GL211522  42.656   2.237   9.051
  500POPC   C1A11523  42.612   1.858   8.733
  500POPC   D2A11524  42.360   1.936   8.374
  500POPC   C3A11525  42.510   1.847   7.964
  500POPC   C4A11526  42.651   1.608   7.617
  500POPC   C1B11527  42.300   2.302   8.806
  500POPC   C2B11528  42.189   2.403   8.373
  500POPC   C3B11529  42.163   2.231   7.950
  500POPC   C4B11530  42.192   2.135   7.492
  501POPC   NC311531  14.627  25.556   9.577
  501POPC   PO411532  14.707  24.947   9.517
  501POPC   GL111533  14.437  25.171   9.228
  501POPC   GL211534  14.333  25.485   9.167
  501POPC   C1A11535  14.389  25.122   8.804
  501POPC   D2A11536  14.552  25.348   8.480
  501POPC   C3A11537  14.363  25.182   8.110
  501POPC   C4A11538  14.515  25.313   7.747
  501POPC   C1B11539  14.059  25.703   8.902
  501POPC   C2B11540  14.174  25.870   8.494
  501POPC   C3B11541  14.335  25.687   8.130
  501POPC   C4B11542  14.209  25.754   7.737
  502POPC   NC311543  11.131  40.507   9.497
  502POPC   PO411544  11.643  40.967   9.375
  502POPC   GL111545  11.271  40.823   9.115
  502POPC   GL211546  11.092  41.096   8.932
  502POPC   C1A11547  11.099  40.519   8.805
  502POPC   D2A11548  11.039  40.518   8.350
  502POPC   C3A11549  11.154  40.831   8.011
  502POPC   C4A11550  11.195  40.473   7.769
  502POPC   C1B11551  11.392  40.895   8.620
  502POPC   C2B11552  11.580  40.721   8.231
  502POPC   C3B11553  11.655  40.701   7.784
  502POPC   C4B11554  11.520  41.040   7.492
  503POPC   NC311555  37.864  12.208   9.417
  503POPC   PO411556  37.243  11.911   9.526
  503POPC   GL111557  37.500  11.922   9.212
  503POPC   GL211558  37.417  12.234   9.114
  503POPC   C1A11559  37.750  12.018   8.810
  503POPC   D2A11560  37.744  12.209   8.372
  503POPC   C3A11561  37.860  11.921   8.063
  503POPC   C4A11562  37.781  11.756   7.624
  503POPC   C1B11563  37.415  12.389   8.720
  503POPC   C2B11564  37.239  12.190   8.351
  503POPC   C3B11565  37.395  12.258   7.961
  503POPC   C4B11566  37.219  12.534   7.687
  504POPC   NC311567  29.581  44.035   9.495
  504POPC   PO411568  30.198  43.660   9.456
  504POPC   GL111569  29.892  43.802   9.173
  504POPC   GL211570  29.988  44.151   9.184
  504POPC   C1A11571  29.857  43.753   8.748
  504POPC   D2A11572  30.139  43.835   8.399
  504POPC   C3A11573  29.973  43.826   7.972
  504POPC   C4A11574  29.531  43.962   7.828
  504POPC   C1B11575  29.916  44.252   8.771
  504POPC   C2B11576  29.735  44.127   8.378
  504POPC   C3B11577  29.845  44.311   8.012
  504POPC   C4B11578  29.974  44.239   7.612
  505POPC   NC311579  36.138   3.307   9.523
  505POPC   PO411580  35.516   3.383   9.544
  505POPC   GL111581  35.773   3.357   9.140
  505POPC   GL211582  36.138   3.419   9.036
  505POPC   C1A11583  35.777   3.493   8.692
  505POPC   D2A11584  35.875   3.286   8.314
  505POPC   C3A11585  35.989   3.483   7.867
  505POPC   C4A11586  36.315   3.643   7.560
  505POPC   C1B11587  36.367   3.162   8.738
  505POPC   C2B11588  36.532   3.112   8.321
  505POPC   C3B11589  36.471   3.290   7.901
  505POPC   C4B11590  36.407   3.090   7.501
  506POPC   NC311591  41.435  20.606   9.557
  506POPC   PO411592  41.376  21.159   9.326
  506POPC   GL111593  41.297  20.802   9.027
  506POPC   GL211594  41.436  20.460   9.050
  506POPC   C1A11595  41.379  20.698   8.574
  506POPC   D2A11596  41.312  20.651   8.133
  506POPC   C3A11597  41.613  20.736   7.757
  506POPC   C4A11598  41.784  21.090   7.490
  506POPC   C1B11599  41.411  20.183   8.680
  506POPC   C2B11600  41.417  20.178   8.241
  506POPC   C3B11601  41.338  20.267   7.824
  506POPC   C4B11602  41.430  20.377   7.440
  507POPC   NC311603  28.778  22.959   9.522
  507POPC   PO411604  28.102  22.806   9.629
  507POPC   GL111605  28.358  22.797   9.213
  507POPC   GL211606  28.575  23.069   9.063
  507POPC   C1A11607  28.498  22.691   8.757
  507POPC   D2A11608  28.340  22.840   8.361
  507POPC   C3A11609  28.403  22.632   7.972
  507POPC   C4A11610  28.235  22.740   7.585
  507POPC   C1B11611  28.264  23.172   8.763
  507POPC   C2B11612  28.187  23.347   8.358
  507POPC   C3B11613  28.349  23.178   7.958
  507POPC   C4B11614  28.737  22.977   7.779
  508POPC   NC311615  23.572  38.541   9.545
  508POPC   PO411616  24.173  38.555   9.349
  508POPC   GL111617  23.948  38.336   9.063
  508POPC   GL211618  23.576  38.317   9.105
  508POPC   C1A11619  23.782  38.379   8.655
  508POPC   D2A11620  23.738  38.608   8.332
  508POPC   C3A11621  23.932  38.449   8.035
  508POPC   C4A11622  23.989  38.160   7.745
  508POPC   C1B11623  23.314  38.495   8.812
  508POPC   C2B11624  23.260  38.397   8.445
  508POPC   C3B11625  23.308  38.546   8.075
  508POPC   C4B11626  23.525  38.385   7.748
  509POPC   NC311627  19.084  32.716   9.409
  509POPC   PO411628  19.414  33.328   9.448
  509POPC   GL111629  19.149  33.344   9.121
  509POPC   GL211630  19.035  33.015   9.017
  509POPC   C1A11631  19.060  33.390   8.707
  509POPC   D2A11632  18.978  33.015   8.505
  509POPC   C3A11633  18.925  33.033   8.112
  509POPC   C4A11634  18.847  33.154   7.739
  509POPC   C1B11635  19.236  32.675   8.779
  509POPC   C2B11636  19.398  32.735   8.384
  509POPC   C3B11637  19.226  32.630   8.028
  509POPC   C4B11638  19.227  32.799   7.623
  510POPC   NC311639  37.549  42.157   9.428
  510POPC   PO411640  37.900  42.697   9.484
  510POPC   GL111641  37.798  42.487   9.130
  510POPC   GL211642  37.982  42.169   9.123
  510POPC   C1A11643  37.680  42.345   8.733
  510POPC   D2A11644  37.882  42.436   8.353
  510POPC   C3A11645  37.577  42.510   8.083
  510POPC   C4A11646  37.568  42.681   7.700
  510POPC   C1B11647  37.946  41.906   8.731
  510POPC   C2B11648  37.781  41.954   8.308
  510POPC   C3B11649  37.805  42.088   7.882
  510POPC   C4B11650  38.060  42.021   7.495
  511POPC   NC311651  36.091  10.154   9.665
  511POPC   PO411652  36.122  10.829   9.577
  511POPC   GL111653  36.129  10.686   9.188
  511POPC   GL211654  35.984  10.380   9.221
  511POPC   C1A11655  36.262  10.825   8.817
  511POPC   D2A11656  36.247  10.638   8.428
  511POPC   C3A11657  36.235  10.825   8.022
  511POPC   C4A11658  36.506  10.790   7.651
  511POPC   C1B11659  35.976  10.380   8.780
  511POPC   C2B11660  35.894  10.254   8.343
  511POPC   C3B11661  36.216  10.315   8.039
  511POPC   C4B11662  36.333  10.331   7.654
  512POPC   NC311663  28.906  33.018   9.546
  512POPC   PO411664  29.460  33.103   9.111
  512POPC   GL111665  29.002  33.069   9.056
  512POPC   GL211666  28.790  32.738   9.124
  512POPC   C1A11667  28.788  33.224   8.702
  512POPC   D2A11668  29.114  33.230   8.376
  512POPC   C3A11669  29.193  33.014   8.008
  512POPC   C4A11670  29.233  33.255   7.633
  512POPC   C1B11671  28.875  32.724   8.678
  512POPC   C2B11672  28.699  32.894   8.281
  512POPC   C3B11673  28.774  32.780   7.851
  512POPC   C4B11674  29.085  32.794   7.524
  513POPC   NC311675  34.350  33.024   9.561
  513POPC   PO411676  34.862  33.386   9.649
  513POPC   GL111677  34.699  33.295   9.205
  513POPC   GL211678  34.342  33.280   9.140
  513POPC   C1A11679  34.716  33.037   8.792
  513POPC   D2A11680  34.637  32.773   8.403
  513POPC   C3A11681  34.708  32.992   8.002
  513POPC   C4A11682  34.930  32.872   7.609
  513POPC   C1B11683  34.185  33.325   8.763
  513POPC   C2B11684  34.405  33.220   8.403
  513POPC   C3B11685  34.231  33.195   8.015
  513POPC   C4B11686  34.260  33.437   7.673
  514POPC   NC311687  21.836  20.571   9.844
  514POPC   PO411688  21.373  20.235   9.438
  514POPC   GL111689  21.247  20.596   9.157
  514POPC   GL211690  21.552  20.789   9.149
  514POPC   C1A11691  21.220  20.889   8.754
  514POPC   D2A11692  21.370  20.720   8.337
  514POPC   C3A11693  21.361  20.929   7.968
  514POPC   C4A11694  21.394  20.772   7.559
  514POPC   C1B11695  21.627  20.601   8.745
  514POPC   C2B11696  21.635  20.248   8.479
  514POPC   C3B11697  21.780  20.298   8.096
  514POPC   C4B11698  21.804  20.595   7.817
  515POPC   NC311699  25.810   6.032   9.905
  515POPC   PO411700  25.727   6.124   9.249
  515POPC   GL111701  26.026   5.763   9.209
  515POPC   GL211702  26.340   5.946   9.142
  515POPC   C1A11703  26.125   5.592   8.799
  515POPC   D2A11704  25.945   5.860   8.451
  515POPC   C3A11705  26.056   5.904   7.991
  515POPC   C4A11706  26.048   5.810   7.494
  515POPC   C1B11707  26.279   6.141   8.743
  515POPC   C2B11708  26.206   6.307   8.308
  515POPC   C3B11709  26.390   6.351   7.881
  515POPC   C4B11710  26.447   6.237   7.400
  516POPC   NC311711  14.592  23.198   9.462
  516POPC   PO411712  14.103  22.785   9.358
  516POPC   GL111713  14.283  23.011   9.021
  516POPC   GL211714  14.063  22.819   8.825
  516POPC   C1A11715  14.496  22.950   8.609
  516POPC   D2A11716  14.856  22.985   8.367
  516POPC   C3A11717  14.704  22.994   7.955
  516POPC   C4A11718  14.404  23.137   7.623
  516POPC   C1B11719  14.253  22.468   8.574
  516POPC   C2B11720  14.481  22.578   8.234
  516POPC   C3B11721  14.225  22.792   7.936
  516POPC   C4B11722  14.180  22.687   7.482
  517POPC   NC311723  33.545  18.847   9.404
  517POPC   PO411724  33.522  19.485   9.683
  517POPC   GL111725  33.737  19.322   9.280
  517POPC   GL211726  33.501  19.195   9.007
  517POPC   C1A11727  33.981  19.186   8.890
  517POPC   D2A11728  33.806  19.187   8.469
  517POPC   C3A11729  33.984  19.154   8.060
  517POPC   C4A11730  33.939  19.111   7.609
  517POPC   C1B11731  33.642  18.810   8.772
  517POPC   C2B11732  33.650  18.618   8.376
  517POPC   C3B11733  33.749  18.718   7.976
  517POPC   C4B11734  33.482  18.932   7.698
  518POPC   NC311735  39.951  10.799   9.503
  518POPC   PO411736  40.595  10.750   9.446
  518POPC   GL111737  40.253  10.868   9.092
  518POPC   GL211738  39.901  10.701   9.016
  518POPC   C1A11739  40.252  10.776   8.647
  518POPC   D2A11740  40.307  10.427   8.358
  518POPC   C3A11741  40.205  10.585   7.964
  518POPC   C4A11742  40.034  10.967   7.845
  518POPC   C1B11743  39.842  10.469   8.636
  518POPC   C2B11744  39.749  10.498   8.197
  518POPC   C3B11745  39.558  10.712   7.860
  518POPC   C4B11746  39.688  10.734   7.443
  519POPC   NC311747   9.549  11.338   9.427
  519POPC   PO411748  10.166  11.570   9.455
  519POPC   GL111749   9.915  11.426   9.083
  519POPC   GL211750   9.804  11.074   8.971
  519POPC   C1A11751   9.520  11.434   8.775
  519POPC   D2A11752   9.417  11.099   8.462
  519POPC   C3A11753   9.604  11.148   8.049
  519POPC   C4A11754   9.941  11.423   7.866
  519POPC   C1B11755   9.983  11.270   8.603
  519POPC   C2B11756  10.185  11.180   8.237
  519POPC   C3B11757  10.044  10.930   7.923
  519POPC   C4B11758  10.038  11.036   7.502
  520POPC   NC311759   4.507  23.249   9.798
  520POPC   PO411760   4.637  23.860   9.454
  520POPC   GL111761   4.491  23.715   9.130
  520POPC   GL211762   4.347  23.422   9.161
  520POPC   C1A11763   4.521  23.830   8.757
  520POPC   D2A11764   4.530  23.600   8.438
  520POPC   C3A11765   4.340  23.790   8.132
  520POPC   C4A11766   4.456  24.019   7.791
  520POPC   C1B11767   4.114  23.499   8.773
  520POPC   C2B11768   3.888  23.547   8.358
  520POPC   C3B11769   4.034  23.423   7.943
  520POPC   C4B11770   4.415  23.478   7.726
  521POPC   NC311771  44.099  22.518   9.569
  521POPC   PO411772  43.704  22.984   9.489
  521POPC   GL111773  43.768  23.020   9.035
  521POPC   GL211774  44.091  22.860   9.018
  521POPC   C1A11775  43.497  22.968   8.642
  521POPC   D2A11776  43.556  23.078   8.218
  521POPC   C3A11777  43.955  23.266   8.079
  521POPC   C4A11778  44.286  23.143   7.794
  521POPC   C1B11779  43.789  22.567   8.781
  521POPC   C2B11780  43.657  22.592   8.320
  521POPC   C3B11781  43.965  22.759   8.010
  521POPC   C4B11782  44.408  22.650   7.968
  522POPC   NC311783  39.057  42.660   9.341
  522POPC   PO411784  39.440  42.092   9.466
  522POPC   GL111785  39.047  42.161   9.198
  522POPC   GL211786  39.299  42.315   9.026
  522POPC   C1A11787  38.857  42.417   8.782
  522POPC   D2A11788  38.844  42.697   8.435
  522POPC   C3A11789  38.822  42.474   8.074
  522POPC   C4A11790  39.042  42.561   7.708
  522POPC   C1B11791  39.158  42.013   8.726
  522POPC   C2B11792  39.214  42.297   8.383
  522POPC   C3B11793  39.413  42.499   8.049
  522POPC   C4B11794  39.471  42.222   7.703
  523POPC   NC311795  38.861  23.524   9.476
  523POPC   PO411796  39.496  23.750   9.413
  523POPC   GL111797  39.230  23.639   9.081
  523POPC   GL211798  39.068  23.303   9.060
  523POPC   C1A11799  39.140  23.900   8.738
  523POPC   D2A11800  38.982  24.121   8.420
  523POPC   C3A11801  39.126  23.992   8.054
  523POPC   C4A11802  38.930  23.771   7.733
  523POPC   C1B11803  39.473  23.234   8.811
  523POPC   C2B11804  39.747  23.262   8.409
  523POPC   C3B11805  39.813  23.481   8.024
  523POPC   C4B11806  39.437  23.585   7.764
  524POPC   NC311807  32.778  18.774   9.407
  524POPC   PO411808  33.317  18.356   9.511
  524POPC   GL111809  33.104  18.340   9.150
  524POPC   GL211810  33.273  18.018   9.118
  524POPC   C1A11811  32.968  18.468   8.732
  524POPC   D2A11812  33.043  18.277   8.315
  524POPC   C3A11813  33.275  18.498   8.013
  524POPC   C4A11814  33.272  18.514   7.546
  524POPC   C1B11815  33.079  17.961   8.749
  524POPC   C2B11816  32.938  17.780   8.398
  524POPC   C3B11817  32.924  17.852   7.998
  524POPC   C4B11818  33.177  18.061   7.726
  525POPC   NC311819  41.067   3.037   9.601
  525POPC   PO411820  40.625   2.634   9.452
  525POPC   GL111821  40.935   2.497   9.126
  525POPC   GL211822  40.633   2.448   8.944
  525POPC   C1A11823  41.235   2.502   8.753
  525POPC   D2A11824  41.253   2.438   8.285
  525POPC   C3A11825  41.073   2.781   8.003
  525POPC   C4A11826  40.762   3.085   7.779
  525POPC   C1B11827  40.791   2.285   8.572
  525POPC   C2B11828  40.674   2.133   8.193
  525POPC   C3B11829  40.906   2.301   7.894
  525POPC   C4B11830  40.665   2.597   7.660
  526POPC   NC311831  22.899  27.035   9.435
  526POPC   PO411832  22.917  27.813   9.528
  526POPC   GL111833  22.998  27.583   9.165
  526POPC   GL211834  22.694  27.430   9.170
  526POPC   C1A11835  22.931  27.716   8.736
  526POPC   D2A11836  23.070  27.573   8.315
  526POPC   C3A11837  23.047  27.840   7.917
  526POPC   C4A11838  23.176  27.849   7.453
  526POPC   C1B11839  22.780  27.226   8.785
  526POPC   C2B11840  22.660  27.216   8.353
  526POPC   C3B11841  22.747  27.379   7.948
  526POPC   C4B11842  23.133  27.393   7.690
  527POPC   NC311843   2.654  10.898   9.814
  527POPC   PO411844   2.936  11.460   9.453
  527POPC   GL111845   2.875  11.285   9.054
  527POPC   GL211846   2.563  11.150   9.121
  527POPC   C1A11847   2.905  11.356   8.572
  527POPC   D2A11848   3.137  11.603   8.257
  527POPC   C3A11849   3.094  11.379   7.862
  527POPC   C4A11850   2.816  11.374   7.500
  527POPC   C1B11851   2.457  11.414   8.805
  527POPC   C2B11852   2.423  11.312   8.392
  527POPC   C3B11853   2.599  11.405   8.011
  527POPC   C4B11854   2.323  11.370   7.666
  528POPC   NC311855  24.011  20.882   9.554
  528POPC   PO411856  23.794  21.579   9.521
  528POPC   GL111857  23.718  21.468   9.095
  528POPC   GL211858  23.814  21.117   9.145
  528POPC   C1A11859  23.675  21.589   8.667
  528POPC   D2A11860  23.971  21.688   8.325
  528POPC   C3A11861  23.890  21.504   7.902
  528POPC   C4A11862  23.991  21.083   7.747
  528POPC   C1B11863  23.720  21.011   8.732
  528POPC   C2B11864  23.388  21.048   8.415
  528POPC   C3B11865  23.513  21.119   7.988
  528POPC   C4B11866  23.541  20.834   7.680
  529POPC   NC311867  15.568  31.035   9.486
  529POPC   PO411868  14.919  31.091   9.370
  529POPC   GL111869  15.274  31.344   9.206
  529POPC   GL211870  15.231  31.689   9.112
  529POPC   C1A11871  15.553  31.362   8.860
  529POPC   D2A11872  15.592  31.453   8.432
  529POPC   C3A11873  15.249  31.229   8.258
  529POPC   C4A11874  15.130  31.270   7.845
  529POPC   C1B11875  15.114  31.563   8.665
  529POPC   C2B11876  14.966  31.643   8.218
  529POPC   C3B11877  14.784  31.655   7.801
  529POPC   C4B11878  14.819  31.949   7.454
  530POPC   NC311879   8.204  26.538   9.695
  530POPC   PO411880   8.279  25.923   9.468
  530POPC   GL111881   8.317  26.174   9.142
  530POPC   GL211882   8.525  25.975   8.973
  530POPC   C1A11883   8.130  26.348   8.751
  530POPC   D2A11884   8.078  26.507   8.370
  530POPC   C3A11885   8.196  26.297   8.006
  530POPC   C4A11886   7.940  26.146   7.688
  530POPC   C1B11887   8.191  25.860   8.749
  530POPC   C2B11888   8.131  25.921   8.341
  530POPC   C3B11889   8.150  25.729   7.937
  530POPC   C4B11890   7.791  25.660   7.705
  531POPC   NC311891  42.676  39.439   9.559
  531POPC   PO411892  43.097  38.876   9.517
  531POPC   GL111893  43.168  39.276   9.284
  531POPC   GL211894  42.881  39.415   9.088
  531POPC   C1A11895  43.380  39.351   8.897
  531POPC   D2A11896  43.346  39.192   8.491
  531POPC   C3A11897  43.219  39.390   8.116
  531POPC   C4A11898  43.321  39.176   7.749
  531POPC   C1B11899  42.964  39.560   8.663
  531POPC   C2B11900  42.757  39.594   8.254
  531POPC   C3B11901  42.753  39.551   7.818
  531POPC   C4B11902  42.876  39.243   7.551
  532POPC   NC311903  28.760  44.513   9.511
  532POPC   PO411904  28.225  44.887   9.504
  532POPC   GL111905  28.322  44.626   9.181
  532POPC   GL211906  28.584  44.887   9.139
  532POPC   C1A11907  28.274  44.280   8.860
  532POPC   D2A11908  28.358  44.373   8.415
  532POPC   C3A11909  28.089  44.457   8.058
  532POPC   C4A11910  28.109  44.629   7.631
  532POPC   C1B11911  28.649  44.606   8.781
  532POPC   C2B11912  28.863  44.619   8.376
  532POPC   C3B11913  28.720  44.463   7.981
  532POPC   C4B11914  28.559  44.414   7.556
  533POPC   NC311915  11.833  41.562   9.568
  533POPC   PO411916  12.523  41.565   9.443
  533POPC   GL111917  12.154  41.653   9.149
  533POPC   GL211918  11.833  41.902   9.197
  533POPC   C1A11919  12.253  41.599   8.688
  533POPC   D2A11920  12.193  41.302   8.353
  533POPC   C3A11921  12.353  41.416   7.929
  533POPC   C4A11922  12.175  41.556   7.497
  533POPC   C1B11923  11.803  41.799   8.779
  533POPC   C2B11924  11.845  41.682   8.347
  533POPC   C3B11925  12.052  41.818   7.986
  533POPC   C4B11926  11.941  42.010   7.614
  534POPC   NC311927  18.154  18.900   9.558
  534POPC   PO411928  18.614  19.357   9.279
  534POPC   GL111929  18.248  19.067   9.062
  534POPC   GL211930  17.897  19.091   9.155
  534POPC   C1A11931  18.224  18.875   8.660
  534POPC   D2A11932  18.389  19.063   8.300
  534POPC   C3A11933  18.411  18.810   7.976
  534POPC   C4A11934  18.353  18.910   7.556
  534POPC   C1B11935  17.905  19.288   8.727
  534POPC   C2B11936  17.960  19.425   8.284
  534POPC   C3B11937  18.076  19.208   7.905
  534POPC   C4B11938  17.925  18.797   7.805
  535POPC   NC311939  24.046  19.284   9.636
  535POPC   PO411940  23.329  19.163   9.620
  535POPC   GL111941  23.510  19.053   9.225
  535POPC   GL211942  23.851  19.140   9.201
  535POPC   C1A11943  23.551  19.092   8.772
  535POPC   D2A11944  23.447  19.021   8.319
  535POPC   C3A11945  23.688  19.158   7.947
  535POPC   C4A11946  23.689  19.045   7.502
  535POPC   C1B11947  24.040  18.922   8.887
  535POPC   C2B11948  23.930  18.909   8.473
  535POPC   C3B11949  24.157  18.951   8.123
  535POPC   C4B11950  24.133  18.856   7.725
  536POPC   NC311951  26.988  12.458   9.583
  536POPC   PO411952  26.956  13.074   9.566
  536POPC   GL111953  26.723  12.958   9.195
  536POPC   GL211954  26.430  13.164   9.129
  536POPC   C1A11955  26.895  12.855   8.782
  536POPC   D2A11956  26.898  13.001   8.347
  536POPC   C3A11957  26.877  12.705   8.005
  536POPC   C4A11958  27.067  12.622   7.602
  536POPC   C1B11959  26.385  12.896   8.768
  536POPC   C2B11960  26.233  12.701   8.382
  536POPC   C3B11961  26.385  12.548   7.964
  536POPC   C4B11962  26.574  12.748   7.573
  537POPC   NC311963  32.352  23.592   9.506
  537POPC   PO411964  32.045  24.123   9.362
  537POPC   GL111965  32.259  23.756   9.041
  537POPC   GL211966  32.454  23.378   9.062
  537POPC   C1A11967  32.437  23.669   8.625
  537POPC   D2A11968  32.541  23.832   8.202
  537POPC   C3A11969  32.177  23.766   7.898
  537POPC   C4A11970  31.858  23.439   7.937
  537POPC   C1B11971  32.782  23.305   8.746
  537POPC   C2B11972  32.702  23.348   8.324
  537POPC   C3B11973  32.516  23.404   7.917
  537POPC   C4B11974  32.647  23.473   7.488
  538POPC   NC311975  38.796   0.484   9.460
  538POPC   PO411976  39.476   0.330   9.511
  538POPC   GL111977  39.196   0.293   9.199
  538POPC   GL211978  39.217   0.634   9.139
  538POPC   C1A11979  39.258   0.294   8.767
  538POPC   D2A11980  39.423   0.501   8.419
  538POPC   C3A11981  39.271   0.427   8.036
  538POPC   C4A11982  39.093   0.075   7.870
  538POPC   C1B11983  39.054   0.774   8.727
  538POPC   C2B11984  39.077   0.857   8.277
  538POPC   C3B11985  39.117   0.872   7.812
  538POPC   C4B11986  39.521   0.742   7.701
  539POPC   NC311987   9.010  43.203   9.536
  539POPC   PO411988   8.721  42.723   9.191
  539POPC   GL111989   9.069  42.983   9.083
  539POPC   GL211990   8.939  43.346   9.049
  539POPC   C1A11991   9.251  43.075   8.713
  539POPC   D2A11992   8.993  43.181   8.400
  539POPC   C3A11993   9.136  43.026   8.022
  539POPC   C4A11994   8.892  42.899   7.693
  539POPC   C1B11995   8.739  43.670   8.771
  539POPC   C2B11996   8.828  43.722   8.365
  539POPC   C3B11997   8.926  43.515   8.018
  539POPC   C4B11998   8.783  43.416   7.626
  540POPC   NC311999  14.591   5.250   9.685
  540POPC   PO412000  14.027   4.903   9.545
  540POPC   GL112001  14.181   5.182   9.220
  540POPC   GL212002  14.537   5.195   9.171
  540POPC   C1A12003  14.259   5.214   8.763
  540POPC   D2A12004  14.274   5.330   8.339
  540POPC   C3A12005  14.150   4.988   8.017
  540POPC   C4A12006  14.416   4.762   7.750
  540POPC   C1B12007  14.784   5.280   8.777
  540POPC   C2B12008  14.779   5.160   8.300
  540POPC   C3B12009  14.541   5.297   7.909
  540POPC   C4B12010  14.440   5.492   7.546
  541POPC   NC312011   3.353  41.571   9.684
  541POPC   PO412012   3.002  41.331   9.311
  541POPC   GL112013   3.238  41.646   9.151
  541POPC   GL212014   3.539  41.510   9.091
  541POPC   C1A12015   3.227  41.812   8.722
  541POPC   D2A12016   3.208  41.642   8.301
  541POPC   C3A12017   3.485  41.703   7.936
  541POPC   C4A12018   3.487  41.468   7.526
  541POPC   C1B12019   3.370  41.320   8.680
  541POPC   C2B12020   3.591  41.291   8.274
  541POPC   C3B12021   3.855  41.358   7.902
  541POPC   C4B12022   3.973  41.252   7.516
  542POPC   NC312023  42.657  11.215   9.575
  542POPC   PO412024  42.086  11.519   9.468
  542POPC   GL112025  42.277  11.443   9.111
  542POPC   GL212026  42.292  11.128   9.157
  542POPC   C1A12027  42.442  11.472   8.689
  542POPC   D2A12028  42.228  11.697   8.324
  542POPC   C3A12029  42.269  11.549   7.913
  542POPC   C4A12030  42.695  11.489   7.812
  542POPC   C1B12031  42.141  11.057   8.746
  542POPC   C2B12032  42.255  11.193   8.311
  542POPC   C3B12033  42.471  11.029   7.950
  542POPC   C4B12034  42.425  11.183   7.534
  543POPC   NC312035  25.324   9.003   9.757
  543POPC   PO412036  24.763   9.082   9.769
  543POPC   GL112037  24.982   8.907   9.299
  543POPC   GL212038  25.298   8.834   9.237
  543POPC   C1A12039  25.035   9.073   8.809
  543POPC   D2A12040  25.158   9.322   8.379
  543POPC   C3A12041  25.298   9.121   7.961
  543POPC   C4A12042  25.061   8.825   7.671
  543POPC   C1B12043  25.372   8.711   8.808
  543POPC   C2B12044  25.289   8.806   8.371
  543POPC   C3B12045  25.470   8.632   7.975
  543POPC   C4B12046  25.554   8.752   7.549
  544POPC   NC312047  12.899  22.746   9.785
  544POPC   PO412048  12.500  23.114   9.368
  544POPC   GL112049  12.685  22.784   9.103
  544POPC   GL212050  13.041  22.754   9.143
  544POPC   C1A12051  12.869  22.931   8.683
  544POPC   D2A12052  12.719  23.143   8.305
  544POPC   C3A12053  12.962  23.045   7.936
  544POPC   C4A12054  12.809  22.951   7.501
  544POPC   C1B12055  13.205  22.521   8.742
  544POPC   C2B12056  13.360  22.573   8.314
  544POPC   C3B12057  13.265  22.608   7.871
  544POPC   C4B12058  13.174  22.509   7.415
  545POPC   NC312059   4.474  12.450   9.404
  545POPC   PO412060   4.522  11.747   9.415
  545POPC   GL112061   4.334  11.789   9.079
  545POPC   GL212062   4.164  12.058   9.196
  545POPC   C1A12063   4.481  11.819   8.701
  545POPC   D2A12064   4.672  11.916   8.351
  545POPC   C3A12065   4.420  11.845   8.012
  545POPC   C4A12066   4.266  12.188   7.787
  545POPC   C1B12067   4.155  12.205   8.788
  545POPC   C2B12068   4.235  12.375   8.390
  545POPC   C3B12069   3.983  12.522   8.074
  545POPC   C4B12070   4.052  12.684   7.673
  546POPC   NC312071  16.053  16.240   9.339
  546POPC   PO412072  16.104  16.849   9.653
  546POPC   GL112073  15.933  16.764   9.233
  546POPC   GL212074  16.229  16.937   9.109
  546POPC   C1A12075  15.983  16.624   8.783
  546POPC   D2A12076  16.223  16.715   8.423
  546POPC   C3A12077  16.176  16.392   8.134
  546POPC   C4A12078  16.093  16.494   7.729
  546POPC   C1B12079  16.013  17.134   8.748
  546POPC   C2B12080  15.785  17.036   8.382
  546POPC   C3B12081  15.922  16.878   8.010
  546POPC   C4B12082  16.011  17.001   7.611
  547POPC   NC312083  39.001  25.009   9.512
  547POPC   PO412084  39.370  25.541   9.758
  547POPC   GL112085  39.473  25.375   9.279
  547POPC   GL212086  39.135  25.277   9.112
  547POPC   C1A12087  39.521  25.254   8.789
  547POPC   D2A12088  39.594  25.308   8.304
  547POPC   C3A12089  39.200  25.276   8.000
  547POPC   C4A12090  39.025  25.031   7.665
  547POPC   C1B12091  38.811  25.567   8.952
  547POPC   C2B12092  38.700  25.750   8.526
  547POPC   C3B12093  38.863  25.723   8.102
  547POPC   C4B12094  38.830  25.506   7.697
  548POPC   NC312095  15.348  23.185   9.533
  548POPC   PO412096  14.749  22.732   9.445
  548POPC   GL112097  14.996  23.021   9.204
  548POPC   GL212098  14.776  23.135   8.976
  548POPC   C1A12099  15.255  23.063   8.843
  548POPC   D2A12100  15.399  23.113   8.425
  548POPC   C3A12101  15.277  22.796   8.173
  548POPC   C4A12102  15.226  22.888   7.774
  548POPC   C1B12103  14.904  23.413   8.648
  548POPC   C2B12104  15.041  23.489   8.286
  548POPC   C3B12105  15.061  23.353   7.886
  548POPC   C4B12106  14.891  23.186   7.517
  549POPC   NC312107   8.692   9.146   9.202
  549POPC   PO412108   8.173   8.629   9.180
  549POPC   GL112109   8.188   9.057   9.041
  549POPC   GL212110   8.459   8.914   8.829
  549POPC   C1A12111   8.265   9.346   8.699
  549POPC   D2A12112   8.451   9.220   8.291
  549POPC   C3A12113   8.145   9.032   7.991
  549POPC   C4A12114   8.023   9.217   7.573
  549POPC   C1B12115   8.329   8.734   8.476
  549POPC   C2B12116   8.495   8.419   8.227
  549POPC   C3B12117   8.265   8.448   7.903
  549POPC   C4B12118   7.826   8.620   7.914
  550POPC   NC312119  19.005  19.422   9.504
  550POPC   PO412120  19.413  19.918   9.495
  550POPC   GL112121  19.288  19.746   9.163
  550POPC   GL212122  19.410  19.413   9.173
  550POPC   C1A12123  19.012  19.832   8.845
  550POPC   D2A12124  18.860  19.720   8.457
  550POPC   C3A12125  18.899  20.026   8.110
  550POPC   C4A12126  18.844  19.808   7.725
  550POPC   C1B12127  19.280  19.407   8.788
  550POPC   C2B12128  19.363  19.689   8.486
  550POPC   C3B12129  19.223  19.635   8.085
  550POPC   C4B12130  19.340  19.922   7.793
  551POPC   NC312131   6.218  37.321   9.520
  551POPC   PO412132   5.685  37.758   9.680
  551POPC   GL112133   5.759  37.517   9.317
  551POPC   GL212134   5.653  37.834   9.168
  551POPC   C1A12135   6.049  37.534   8.934
  551POPC   D2A12136   6.245  37.634   8.518
  551POPC   C3A12137   6.067  37.850   8.133
  551POPC   C4A12138   5.799  37.669   7.809
  551POPC   C1B12139   5.831  37.961   8.777
  551POPC   C2B12140   5.622  37.924   8.392
  551POPC   C3B12141   5.558  38.076   8.021
  551POPC   C4B12142   5.853  38.179   7.712
  552POPC   NC312143  23.388   7.015   9.446
  552POPC   PO412144  23.594   7.646   9.459
  552POPC   GL112145  23.336   7.497   9.102
  552POPC   GL212146  23.404   7.153   8.946
  552POPC   C1A12147  23.341   7.633   8.671
  552POPC   D2A12148  23.492   7.396   8.342
  552POPC   C3A12149  23.588   7.559   7.956
  552POPC   C4A12150  23.553   7.662   7.512
  552POPC   C1B12151  23.779   7.378   8.777
  552POPC   C2B12152  24.020   7.338   8.395
  552POPC   C3B12153  23.865   7.117   8.043
  552POPC   C4B12154  23.639   7.165   7.617
  553POPC   NC312155  22.906  16.698   9.517
  553POPC   PO412156  22.801  17.293   9.786
  553POPC   GL112157  22.811  17.085   9.231
  553POPC   GL212158  23.068  16.921   9.097
  553POPC   C1A12159  22.746  17.062   8.736
  553POPC   D2A12160  22.705  16.773   8.363
  553POPC   C3A12161  22.842  16.843   7.940
  553POPC   C4A12162  23.172  16.715   7.640
  553POPC   C1B12163  22.978  16.588   8.770
  553POPC   C2B12164  23.173  16.577   8.325
  553POPC   C3B12165  23.422  16.407   7.976
  553POPC   C4B12166  23.309  16.223   7.559
  554POPC   NC312167  23.040   8.737   9.492
  554POPC   PO412168  22.682   8.056   9.460
  554POPC   GL112169  22.991   8.258   9.235
  554POPC   GL212170  22.750   8.476   9.129
  554POPC   C1A12171  23.134   8.276   8.818
  554POPC   D2A12172  23.038   8.259   8.402
  554POPC   C3A12173  23.318   7.949   8.230
  554POPC   C4A12174  23.253   7.914   7.812
  554POPC   C1B12175  22.696   8.568   8.708
  554POPC   C2B12176  22.682   8.610   8.276
  554POPC   C3B12177  22.738   8.423   7.895
  554POPC   C4B12178  22.808   8.775   7.596
  555POPC   NC312179  30.162  18.880   9.737
  555POPC   PO412180  30.701  18.684   9.336
  555POPC   GL112181  30.756  18.591   8.951
  555POPC   GL212182  30.700  18.237   8.992
  555POPC   C1A12183  30.642  18.597   8.539
  555POPC   D2A12184  30.445  18.275   8.334
  555POPC   C3A12185  30.409  18.464   7.992
  555POPC   C4A12186  30.659  18.360   7.684
  555POPC   C1B12187  30.929  18.184   8.593
  555POPC   C2B12188  30.925  18.268   8.142
  555POPC   C3B12189  30.881  17.913   7.846
  555POPC   C4B12190  30.634  17.919   7.435
  556POPC   NC312191  37.193  41.051   9.740
  556POPC   PO412192  36.559  40.755   9.708
  556POPC   GL112193  36.795  40.857   9.274
  556POPC   GL212194  37.094  41.074   9.211
  556POPC   C1A12195  36.918  40.752   8.817
  556POPC   D2A12196  37.190  40.857   8.453
  556POPC   C3A12197  36.987  40.818   8.066
  556POPC   C4A12198  36.669  40.754   7.754
  556POPC   C1B12199  37.227  41.248   8.784
  556POPC   C2B12200  37.051  41.345   8.335
  556POPC   C3B12201  37.190  41.381   7.915
  556POPC   C4B12202  37.111  41.035   7.623
  557POPC   NC312203   8.477  42.386   9.420
  557POPC   PO412204   8.039  41.836   9.492
  557POPC   GL112205   8.136  42.077   9.165
  557POPC   GL212206   7.985  42.407   9.269
  557POPC   C1A12207   8.231  42.061   8.728
  557POPC   D2A12208   8.368  42.355   8.382
  557POPC   C3A12209   8.102  42.325   8.025
  557POPC   C4A12210   7.978  41.965   7.786
  557POPC   C1B12211   8.130  42.560   8.852
  557POPC   C2B12212   8.262  42.843   8.512
  557POPC   C3B12213   8.477  42.818   8.117
  557POPC   C4B12214   8.444  42.585   7.737
  558POPC   NC312215  23.034  34.344   9.389
  558POPC   PO412216  22.533  34.808   9.408
  558POPC   GL112217  22.677  34.553   9.083
  558POPC   GL212218  22.984  34.748   9.072
  558POPC   C1A12219  22.950  34.352   8.739
  558POPC   D2A12220  23.114  34.423   8.324
  558POPC   C3A12221  22.830  34.441   7.957
  558POPC   C4A12222  22.841  34.310   7.524
  558POPC   C1B12223  22.810  34.867   8.686
  558POPC   C2B12224  23.101  34.923   8.359
  558POPC   C3B12225  23.230  34.802   7.979
  558POPC   C4B12226  23.005  34.805   7.615
  559POPC   NC312227   4.922  35.968   9.444
  559POPC   PO412228   5.533  36.260   9.260
  559POPC   GL112229   5.144  36.286   9.092
  559POPC   GL212230   5.133  35.924   9.004
  559POPC   C1A12231   4.916  36.302   8.718
  559POPC   D2A12232   4.851  36.095   8.324
  559POPC   C3A12233   4.944  36.220   7.933
  559POPC   C4A12234   5.156  36.537   7.771
  559POPC   C1B12235   5.218  35.879   8.622
  559POPC   C2B12236   5.359  36.177   8.352
  559POPC   C3B12237   5.410  36.050   7.971
  559POPC   C4B12238   5.448  36.113   7.563
  560POPC   NC312239  15.333  14.883   9.379
  560POPC   PO412240  15.070  15.442   9.536
  560POPC   GL112241  15.091  15.234   9.108
  560POPC   GL212242  15.456  15.220   9.044
  560POPC   C1A12243  15.172  15.237   8.638
  560POPC   D2A12244  15.393  15.323   8.263
  560POPC   C3A12245  15.161  15.133   7.961
  560POPC   C4A12246  15.012  15.261   7.582
  560POPC   C1B12247  15.582  14.916   8.725
  560POPC   C2B12248  15.351  14.821   8.358
  560POPC   C3B12249  15.485  14.731   7.936
  560POPC   C4B12250  15.390  14.912   7.538
  561POPC   NC312251   4.133  21.687   9.337
  561POPC   PO412252   3.939  21.007   9.494
  561POPC   GL112253   4.198  21.098   9.114
  561POPC   GL212254   4.534  21.141   9.198
  561POPC   C1A12255   4.261  21.435   8.765
  561POPC   D2A12256   4.426  21.612   8.385
  561POPC   C3A12257   4.293  21.470   8.022
  561POPC   C4A12258   4.170  21.492   7.635
  561POPC   C1B12259   4.579  21.053   8.735
  561POPC   C2B12260   4.426  21.052   8.293
  561POPC   C3B12261   4.621  21.128   7.851
  561POPC   C4B12262   4.519  21.196   7.384
  562POPC   NC312263  22.328  14.274   9.817
  562POPC   PO412264  22.008  14.812   9.479
  562POPC   GL112265  22.310  14.589   9.134
  562POPC   GL212266  22.429  14.238   9.235
  562POPC   C1A12267  22.283  14.584   8.651
  562POPC   D2A12268  22.299  14.602   8.189
  562POPC   C3A12269  22.013  14.325   7.972
  562POPC   C4A12270  21.769  14.387   7.626
  562POPC   C1B12271  22.513  14.142   8.794
  562POPC   C2B12272  22.293  14.077   8.388
  562POPC   C3B12273  22.437  14.047   7.954
  562POPC   C4B12274  22.310  14.231   7.527
  563POPC   NC312275   7.155  28.127   9.360
  563POPC   PO412276   7.740  28.511   9.466
  563POPC   GL112277   7.526  28.452   9.086
  563POPC   GL212278   7.541  28.097   9.016
  563POPC   C1A12279   7.510  28.699   8.702
  563POPC   D2A12280   7.527  28.789   8.231
  563POPC   C3A12281   7.392  28.480   7.959
  563POPC   C4A12282   7.208  28.431   7.599
  563POPC   C1B12283   7.285  28.136   8.665
  563POPC   C2B12284   7.096  28.086   8.250
  563POPC   C3B12285   7.083  27.866   7.881
  563POPC   C4B12286   7.027  27.961   7.451
  564POPC   NC312287  14.433  10.177   9.920
  564POPC   PO412288  14.164  10.748   9.609
  564POPC   GL112289  14.420  10.809   9.229
  564POPC   GL212290  14.473  10.509   9.019
  564POPC   C1A12291  14.467  10.961   8.800
  564POPC   D2A12292  14.392  10.801   8.386
  564POPC   C3A12293  14.231  10.968   8.032
  564POPC   C4A12294  14.307  10.782   7.645
  564POPC   C1B12295  14.346  10.334   8.551
  564POPC   C2B12296  13.978  10.101   8.454
  564POPC   C3B12297  14.013  10.137   8.048
  564POPC   C4B12298  14.362  10.420   8.000
  565POPC   NC312299  24.553  12.131   9.408
  565POPC   PO412300  24.206  11.463   9.360
  565POPC   GL112301  24.491  11.728   9.071
  565POPC   GL212302  24.306  12.072   8.980
  565POPC   C1A12303  24.541  11.818   8.609
  565POPC   D2A12304  24.245  12.074   8.343
  565POPC   C3A12305  24.440  12.210   7.966
  565POPC   C4A12306  24.848  11.995   7.802
  565POPC   C1B12307  24.565  12.330   8.699
  565POPC   C2B12308  24.807  12.205   8.330
  565POPC   C3B12309  24.929  12.448   7.978
  565POPC   C4B12310  24.691  12.420   7.574
  566POPC   NC312311  18.637  24.636   9.591
  566POPC   PO412312  18.067  24.757   9.298
  566POPC   GL112313  18.296  24.475   9.019
  566POPC   GL212314  18.553  24.227   9.220
  566POPC   C1A12315  18.455  24.685   8.619
  566POPC   D2A12316  18.312  24.819   8.231
  566POPC   C3A12317  18.181  24.573   7.923
  566POPC   C4A12318  17.880  24.640   7.571
  566POPC   C1B12319  18.468  24.054   8.789
  566POPC   C2B12320  18.382  24.230   8.421
  566POPC   C3B12321  18.390  24.099   8.038
  566POPC   C4B12322  18.481  24.250   7.668
  567POPC   NC312323  39.893  17.850   9.595
  567POPC   PO412324  40.024  18.493   9.620
  567POPC   GL112325  40.083  18.294   9.222
  567POPC   GL212326  40.259  17.981   9.280
  567POPC   C1A12327  40.064  18.475   8.793
  567POPC   D2A12328  40.131  18.572   8.331
  567POPC   C3A12329  39.796  18.374   8.103
  567POPC   C4A12330  39.643  18.401   7.701
  567POPC   C1B12331  40.251  17.951   8.832
  567POPC   C2B12332  40.088  18.078   8.444
  567POPC   C3B12333  40.264  18.133   8.049
  567POPC   C4B12334  40.151  18.218   7.666
  568POPC   NC312335  40.990  16.967   9.502
  568POPC   PO412336  40.459  16.596   9.575
  568POPC   GL112337  40.665  16.673   9.176
  568POPC   GL212338  40.643  17.040   9.080
  568POPC   C1A12339  40.716  16.713   8.716
  568POPC   D2A12340  40.872  16.842   8.322
  568POPC   C3A12341  40.814  16.543   7.998
  568POPC   C4A12342  40.700  16.575   7.569
  568POPC   C1B12343  40.721  17.211   8.640
  568POPC   C2B12344  40.519  17.213   8.247
  568POPC   C3B12345  40.608  17.009   7.881
  568POPC   C4B12346  40.885  17.049   7.554
  569POPC   NC312347  13.865  22.528   9.648
  569POPC   PO412348  13.537  21.988   9.409
  569POPC   GL112349  13.577  22.156   9.035
  569POPC   GL212350  13.742  22.495   9.110
  569POPC   C1A12351  13.468  22.059   8.643
  569POPC   D2A12352  13.653  21.886   8.323
  569POPC   C3A12353  13.512  22.108   7.986
  569POPC   C4A12354  13.547  22.121   7.554
  569POPC   C1B12355  13.732  22.483   8.687
  569POPC   C2B12356  13.830  22.367   8.315
  569POPC   C3B12357  13.777  22.559   7.938
  569POPC   C4B12358  13.669  22.617   7.530
  570POPC   NC312359  11.682   3.504   9.481
  570POPC   PO412360  12.263   3.796   9.519
  570POPC   GL112361  12.037   3.619   9.148
  570POPC   GL212362  12.231   3.410   9.008
  570POPC   C1A12363  11.729   3.411   8.833
  570POPC   D2A12364  11.499   3.586   8.481
  570POPC   C3A12365  11.782   3.751   8.186
  570POPC   C4A12366  11.963   3.697   7.777
  570POPC   C1B12367  12.126   3.127   8.687
  570POPC   C2B12368  11.899   3.258   8.346
  570POPC   C3B12369  12.021   3.231   7.949
  570POPC   C4B12370  12.356   3.394   7.664
  571POPC   NC312371  42.986  30.608   9.995
  571POPC   PO412372  43.549  30.805   9.712
  571POPC   GL112373  43.299  30.964   9.283
  571POPC   GL212374  43.467  31.081   8.988
  571POPC   C1A12375  43.013  30.908   8.854
  571POPC   D2A12376  43.118  30.966   8.360
  571POPC   C3A12377  42.925  30.672   8.020
  571POPC   C4A12378  43.002  30.665   7.543
  571POPC   C1B12379  43.444  30.682   8.704
  571POPC   C2B12380  43.412  30.554   8.258
  571POPC   C3B12381  43.421  30.690   7.838
  571POPC   C4B12382  43.494  30.727   7.392
  572POPC   NC312383  37.325  23.222   9.362
  572POPC   PO412384  37.897  23.509   9.518
  572POPC   GL112385  37.820  23.046   9.302
  572POPC   GL212386  37.535  22.752   9.304
  572POPC   C1A12387  37.747  22.861   8.863
  572POPC   D2A12388  37.431  22.962   8.560
  572POPC   C3A12389  37.466  22.943   8.104
  572POPC   C4A12390  37.806  22.747   7.875
  572POPC   C1B12391  37.267  22.611   8.917
  572POPC   C2B12392  37.101  22.571   8.493
  572POPC   C3B12393  37.111  22.478   8.061
  572POPC   C4B12394  37.330  22.630   7.705
  573POPC   NC312395  39.360  36.379   9.357
  573POPC   PO412396  38.860  35.991   9.503
  573POPC   GL112397  38.941  36.128   9.131
  573POPC   GL212398  39.131  35.826   9.111
  573POPC   C1A12399  39.168  36.194   8.742
  573POPC   D2A12400  39.476  36.178   8.411
  573POPC   C3A12401  39.264  36.160   8.019
  573POPC   C4A12402  38.952  36.375   7.833
  573POPC   C1B12403  38.977  35.675   8.770
  573POPC   C2B12404  38.983  35.868   8.390
  573POPC   C3B12405  38.961  35.685   8.014
  573POPC   C4B12406  38.967  35.900   7.657
  574POPC   NC312407   3.882   8.987   9.305
  574POPC   PO412408   3.256   8.793   9.447
  574POPC   GL112409   3.282   8.708   8.990
  574POPC   GL212410   3.539   8.976   8.924
  574POPC   C1A12411   3.447   8.684   8.543
  574POPC   D2A12412   3.563   9.074   8.321
  574POPC   C3A12413   3.540   8.958   7.885
  574POPC   C4A12414   3.491   8.659   7.574
  574POPC   C1B12415   3.843   9.281   8.737
  574POPC   C2B12416   4.050   9.314   8.372
  574POPC   C3B12417   3.907   9.391   7.978
  574POPC   C4B12418   3.960   9.146   7.630
  575POPC   NC312419  29.645   4.238   9.376
  575POPC   PO412420  29.050   4.543   9.425
  575POPC   GL112421  29.226   4.434   9.078
  575POPC   GL212422  29.210   4.079   9.128
  575POPC   C1A12423  29.320   4.548   8.651
  575POPC   D2A12424  29.574   4.480   8.256
  575POPC   C3A12425  29.400   4.346   7.837
  575POPC   C4A12426  29.069   4.514   7.543
  575POPC   C1B12427  29.024   4.126   8.728
  575POPC   C2B12428  29.126   4.194   8.322
  575POPC   C3B12429  28.921   4.264   7.987
  575POPC   C4B12430  28.937   4.005   7.655
  576POPC   NC312431  29.451  44.693   9.590
  576POPC   PO412432  28.908   0.043   9.554
  576POPC   GL112433  29.085  44.794   9.215
  576POPC   GL212434  29.348  44.977   9.164
  576POPC   C1A12435  29.132  44.534   8.832
  576POPC   D2A12436  29.358  44.443   8.443
  576POPC   C3A12437  29.306  44.405   8.013
  576POPC   C4A12438  29.201  44.671   7.714
  576POPC   C1B12439  29.352   0.205   8.825
  576POPC   C2B12440  29.320  44.966   8.465
  576POPC   C3B12441  29.282   0.059   8.048
  576POPC   C4B12442  29.555   0.213   7.727
  577POPC   NC312443   7.481  28.963   9.594
  577POPC   PO412444   7.870  29.484   9.659
  577POPC   GL112445   7.583  29.350   9.253
  577POPC   GL212446   7.339  29.052   9.129
  577POPC   C1A12447   7.716  29.168   8.830
  577POPC   D2A12448   7.530  29.254   8.423
  577POPC   C3A12449   7.647  29.242   7.990
  577POPC   C4A12450   7.591  28.879   7.699
  577POPC   C1B12451   7.159  29.221   8.768
  577POPC   C2B12452   7.070  29.047   8.366
  577POPC   C3B12453   7.159  29.037   7.938
  577POPC   C4B12454   7.278  29.387   7.648
  578POPC   NC312455  38.112  13.488   9.796
  578POPC   PO412456  37.525  13.408   9.438
  578POPC   GL112457  37.610  13.501   9.057
  578POPC   GL212458  37.935  13.678   9.090
  578POPC   C1A12459  37.666  13.373   8.650
  578POPC   D2A12460  37.714  13.598   8.275
  578POPC   C3A12461  37.481  13.487   7.913
  578POPC   C4A12462  37.205  13.827   7.775
  578POPC   C1B12463  38.114  13.690   8.641
  578POPC   C2B12464  38.151  13.847   8.191
  578POPC   C3B12465  37.897  13.743   7.809
  578POPC   C4B12466  38.007  13.816   7.334
  579POPC   NC312467  14.379   1.749   9.446
  579POPC   PO412468  14.604   2.373   9.673
  579POPC   GL112469  14.510   2.209   9.227
  579POPC   GL212470  14.154   2.040   9.098
  579POPC   C1A12471  14.532   2.137   8.771
  579POPC   D2A12472  14.272   1.972   8.443
  579POPC   C3A12473  14.348   2.130   8.065
  579POPC   C4A12474  14.407   1.970   7.669
  579POPC   C1B12475  13.983   1.696   8.778
  579POPC   C2B12476  14.071   1.457   8.395
  579POPC   C3B12477  14.208   1.622   7.998
  579POPC   C4B12478  14.005   1.610   7.552
  580POPC   NC312479  39.235  44.925   9.573
  580POPC   PO412480  39.086  44.264   9.489
  580POPC   GL112481  39.266  44.607   9.190
  580POPC   GL212482  39.517  44.900   9.135
  580POPC   C1A12483  39.170  44.740   8.775
  580POPC   D2A12484  39.141  44.339   8.601
  580POPC   C3A12485  39.219  44.319   8.160
  580POPC   C4A12486  39.281  44.269   7.729
  580POPC   C1B12487  39.640  44.984   8.714
  580POPC   C2B12488  39.399  44.992   8.312
  580POPC   C3B12489  39.456  44.728   7.929
  580POPC   C4B12490  39.606  44.715   7.500
  581POPC   NC312491  34.002   6.350   9.528
  581POPC   PO412492  33.958   7.033   9.429
  581POPC   GL112493  33.763   6.717   9.123
  581POPC   GL212494  33.864   6.358   9.040
  581POPC   C1A12495  33.591   6.619   8.691
  581POPC   D2A12496  33.476   6.446   8.278
  581POPC   C3A12497  33.751   6.584   7.949
  581POPC   C4A12498  33.856   6.670   7.513
  581POPC   C1B12499  34.093   6.592   8.711
  581POPC   C2B12500  34.168   6.488   8.277
  581POPC   C3B12501  34.209   6.377   7.844
  581POPC   C4B12502  34.239   6.371   7.384
  582POPC   NC312503  25.437  30.490   9.504
  582POPC   PO412504  25.097  31.076   9.434
  582POPC   GL112505  25.191  30.777   9.119
  582POPC   GL212506  25.524  30.621   9.033
  582POPC   C1A12507  25.279  30.919   8.704
  582POPC   D2A12508  25.089  31.043   8.341
  582POPC   C3A12509  25.371  30.784   8.123
  582POPC   C4A12510  25.362  30.757   7.688
  582POPC   C1B12511  25.255  30.371   8.777
  582POPC   C2B12512  25.390  30.268   8.364
  582POPC   C3B12513  25.255  30.323   7.946
  582POPC   C4B12514  25.398  30.266   7.529
  583POPC   NC312515   0.953   9.407   9.919
  583POPC   PO412516   0.883   8.787   9.346
  583POPC   GL112517   1.180   8.898   9.070
  583POPC   GL212518   1.426   9.157   9.068
  583POPC   C1A12519   1.345   8.720   8.725
  583POPC   D2A12520   1.194   8.529   8.359
  583POPC   C3A12521   1.111   8.769   8.010
  583POPC   C4A12522   1.143   8.634   7.601
  583POPC   C1B12523   1.467   9.216   8.616
  583POPC   C2B12524   1.554   9.230   8.150
  583POPC   C3B12525   1.430   9.471   7.749
  583POPC   C4B12526   1.362   9.333   7.284
  584POPC   NC312527  44.636  23.965   9.520
  584POPC   PO412528  44.434  24.477   9.752
  584POPC   GL112529  44.506  24.441   9.300
  584POPC   GL212530  44.245  24.267   9.161
  584POPC   C1A12531  44.485  24.528   8.814
  584POPC   D2A12532  44.308  24.695   8.421
  584POPC   C3A12533  44.492  24.579   7.994
  584POPC   C4A12534  44.783  24.441   7.640
  584POPC   C1B12535  44.133  24.147   8.759
  584POPC   C2B12536  44.287  24.190   8.345
  584POPC   C3B12537  44.341  24.101   7.900
  584POPC   C4B12538  44.339  24.257   7.471
  585POPC   NC312539  38.257  10.154   9.601
  585POPC   PO412540  38.292   9.528   9.762
  585POPC   GL112541  38.240   9.580   9.279
  585POPC   GL212542  38.258   9.920   9.154
  585POPC   C1A12543  38.364   9.587   8.794
  585POPC   D2A12544  38.653   9.718   8.440
  585POPC   C3A12545  38.570   9.830   8.013
  585POPC   C4A12546  38.514   9.528   7.715
  585POPC   C1B12547  38.226  10.086   8.729
  585POPC   C2B12548  38.183   9.877   8.352
  585POPC   C3B12549  38.066   9.799   7.909
  585POPC   C4B12550  38.167   9.790   7.474
  586POPC   NC312551  26.978  40.615   9.630
  586POPC   PO412552  26.396  40.725   9.784
  586POPC   GL112553  26.660  40.707   9.273
  586POPC   GL212554  26.914  40.943   9.182
  586POPC   C1A12555  26.732  40.675   8.789
  586POPC   D2A12556  27.056  40.740   8.441
  586POPC   C3A12557  26.930  40.690   8.015
  586POPC   C4A12558  26.675  40.845   7.670
  586POPC   C1B12559  27.002  41.142   8.753
  586POPC   C2B12560  26.997  41.213   8.275
  586POPC   C3B12561  27.062  41.144   7.814
  586POPC   C4B12562  26.946  41.153   7.343
  587POPC   NC312563   6.144  40.613   9.445
  587POPC   PO412564   5.638  41.163   9.494
  587POPC   GL112565   5.802  40.868   9.161
  587POPC   GL212566   6.138  40.974   9.067
  587POPC   C1A12567   5.957  40.616   8.771
  587POPC   D2A12568   6.133  40.690   8.338
  587POPC   C3A12569   5.950  40.505   7.970
  587POPC   C4A12570   5.759  40.707   7.612
  587POPC   C1B12571   6.123  41.117   8.643
  587POPC   C2B12572   6.185  41.210   8.194
  587POPC   C3B12573   6.200  40.930   7.833
  587POPC   C4B12574   6.105  40.946   7.342
  588POPC   NC312575   9.637  40.989   9.473
  588POPC   PO412576  10.009  40.471   9.421
  588POPC   GL112577   9.722  40.653   9.101
  588POPC   GL212578   9.933  40.963   9.071
  588POPC   C1A12579   9.534  40.919   8.764
  588POPC   D2A12580   9.802  40.964   8.396
  588POPC   C3A12581   9.606  41.073   8.024
  588POPC   C4A12582   9.395  40.925   7.667
  588POPC   C1B12583  10.101  40.709   8.731
  588POPC   C2B12584  10.260  40.561   8.330
  588POPC   C3B12585  10.227  40.456   7.893
  588POPC   C4B12586  10.025  40.652   7.472
  589POPC   NC312587  17.706  36.714   9.283
  589POPC   PO412588  17.713  37.200   9.770
  589POPC   GL112589  17.498  37.200   9.334
  589POPC   GL212590  17.274  36.954   9.137
  589POPC   C1A12591  17.598  37.211   8.870
  589POPC   D2A12592  17.560  36.857   8.596
  589POPC   C3A12593  17.705  37.015   8.230
  589POPC   C4A12594  17.743  37.070   7.811
  589POPC   C1B12595  17.099  37.148   8.742
  589POPC   C2B12596  17.216  37.251   8.294
  589POPC   C3B12597  17.282  36.917   7.968
  589POPC   C4B12598  17.478  36.520   8.125
  590POPC   NC312599  34.082  43.744   9.393
  590POPC   PO412600  33.526  44.061   9.443
  590POPC   GL112601  33.699  43.908   9.055
  590POPC   GL212602  34.015  44.105   8.987
  590POPC   C1A12603  33.654  44.003   8.614
  590POPC   D2A12604  33.899  44.049   8.212
  590POPC   C3A12605  33.715  43.889   7.885
  590POPC   C4A12606  33.787  44.009   7.473
  590POPC   C1B12607  34.215  43.945   8.586
  590POPC   C2B12608  34.275  43.702   8.214
  590POPC   C3B12609  34.184  43.742   7.756
  590POPC   C4B12610  34.197  43.814   7.295
  591POPC   NC312611  18.348  13.933   9.525
  591POPC   PO412612  18.372  14.618   9.506
  591POPC   GL112613  18.196  14.452   9.095
  591POPC   GL212614  18.185  14.101   9.095
  591POPC   C1A12615  17.915  14.472   8.741
  591POPC   D2A12616  18.010  14.661   8.343
  591POPC   C3A12617  17.911  14.487   7.993
  591POPC   C4A12618  18.293  14.473   7.796
  591POPC   C1B12619  18.282  14.052   8.719
  591POPC   C2B12620  18.194  14.170   8.311
  591POPC   C3B12621  18.127  14.003   7.917
  591POPC   C4B12622  18.457  14.033   7.621
  592POPC   NC312623  17.880  37.519   9.455
  592POPC   PO412624  18.528  37.703   9.461
  592POPC   GL112625  18.220  37.748   9.154
  592POPC   GL212626  18.056  37.426   8.996
  592POPC   C1A12627  18.228  37.817   8.749
  592POPC   D2A12628  18.386  37.595   8.403
  592POPC   C3A12629  18.268  37.735   7.983
  592POPC   C4A12630  18.065  37.909   7.638
  592POPC   C1B12631  18.010  37.290   8.554
  592POPC   C2B12632  18.162  37.235   8.117
  592POPC   C3B12633  18.514  37.320   7.813
  592POPC   C4B12634  18.475  37.573   7.445
  593POPC   NC312635  33.732  15.533   9.525
  593POPC   PO412636  34.247  15.714   9.607
  593POPC   GL112637  34.002  15.868   9.209
  593POPC   GL212638  33.773  15.637   9.009
  593POPC   C1A12639  34.016  16.019   8.753
  593POPC   D2A12640  34.102  15.864   8.308
  593POPC   C3A12641  34.134  16.128   7.918
  593POPC   C4A12642  34.093  16.117   7.455
  593POPC   C1B12643  33.585  15.793   8.593
  593POPC   C2B12644  33.629  15.972   8.149
  593POPC   C3B12645  33.737  15.838   7.717
  593POPC   C4B12646  33.622  16.016   7.288
  594POPC   NC312647  16.097  35.640   9.623
  594POPC   PO412648  15.924  34.993   9.522
  594POPC   GL112649  16.082  35.269   9.204
  594POPC   GL212650  16.251  35.592   9.148
  594POPC   C1A12651  15.830  35.523   8.895
  594POPC   D2A12652  15.925  35.637   8.464
  594POPC   C3A12653  15.929  35.314   8.165
  594POPC   C4A12654  15.650  35.399   7.809
  594POPC   C1B12655  16.309  35.418   8.756
  594POPC   C2B12656  16.407  35.569   8.362
  594POPC   C3B12657  16.258  35.654   7.972
  594POPC   C4B12658  16.162  35.305   7.702
  595POPC   NC312659  23.744  33.230   9.506
  595POPC   PO412660  23.950  32.607   9.498
  595POPC   GL112661  23.689  32.886   9.110
  595POPC   GL212662  23.529  33.224   9.057
  595POPC   C1A12663  23.619  32.933   8.662
  595POPC   D2A12664  23.572  32.717   8.306
  595POPC   C3A12665  23.730  32.879   7.977
  595POPC   C4A12666  23.551  32.918   7.624
  595POPC   C1B12667  23.468  33.412   8.661
  595POPC   C2B12668  23.472  33.218   8.259
  595POPC   C3B12669  23.224  33.150   7.927
  595POPC   C4B12670  23.064  33.310   7.567
  596POPC   NC312671  41.843  27.379   9.628
  596POPC   PO412672  41.159  27.458   9.463
  596POPC   GL112673  41.363  27.603   9.132
  596POPC   GL212674  41.612  27.820   9.276
  596POPC   C1A12675  41.399  27.403   8.732
  596POPC   D2A12676  41.327  27.117   8.368
  596POPC   C3A12677  41.268  27.298   7.977
  596POPC   C4A12678  41.560  27.359   7.692
  596POPC   C1B12679  41.730  27.804   8.826
  596POPC   C2B12680  41.541  27.796   8.413
  596POPC   C3B12681  41.706  27.757   7.988
  596POPC   C4B12682  41.514  27.892   7.653
  597POPC   NC312683  36.855  20.940   9.422
  597POPC   PO412684  37.193  20.437   9.649
  597POPC   GL112685  37.091  20.516   9.199
  597POPC   GL212686  36.724  20.517   9.161
  597POPC   C1A12687  36.993  20.478   8.732
  597POPC   D2A12688  37.195  20.586   8.345
  597POPC   C3A12689  36.992  20.507   7.950
  597POPC   C4A12690  36.894  20.427   7.499
  597POPC   C1B12691  36.646  20.857   8.845
  597POPC   C2B12692  36.754  20.867   8.456
  597POPC   C3B12693  36.711  20.948   8.056
  597POPC   C4B12694  36.570  20.724   7.741
  598POPC   NC312695  15.347  40.537   9.575
  598POPC   PO412696  15.244  41.156   9.563
  598POPC   GL112697  15.136  41.070   9.145
  598POPC   GL212698  15.095  40.690   9.139
  598POPC   C1A12699  14.999  41.011   8.703
  598POPC   D2A12700  15.075  40.651   8.410
  598POPC   C3A12701  15.215  40.715   7.963
  598POPC   C4A12702  15.348  40.492   7.575
  598POPC   C1B12703  14.788  40.561   8.832
  598POPC   C2B12704  14.573  40.690   8.476
  598POPC   C3B12705  14.707  40.652   8.038
  598POPC   C4B12706  14.862  40.457   7.665
  599POPC   NC312707  21.317  41.185   9.613
  599POPC   PO412708  21.672  40.616   9.511
  599POPC   GL112709  21.379  40.853   9.217
  599POPC   GL212710  21.073  41.137   9.183
  599POPC   C1A12711  21.514  40.704   8.820
  599POPC   D2A12712  21.271  40.488   8.515
  599POPC   C3A12713  21.362  40.477   8.068
  599POPC   C4A12714  21.525  40.731   7.724
  599POPC   C1B12715  21.071  40.947   8.802
  599POPC   C2B12716  21.317  40.994   8.442
  599POPC   C3B12717  21.215  40.985   8.048
  599POPC   C4B12718  21.368  41.272   7.760
  600POPC   NC312719  38.338  21.393   9.658
  600POPC   PO412720  38.934  21.294   9.453
  600POPC   GL112721  38.580  21.419   9.200
  600POPC   GL212722  38.333  21.112   9.224
  600POPC   C1A12723  38.626  21.617   8.798
  600POPC   D2A12724  38.342  21.611   8.426
  600POPC   C3A12725  38.469  21.445   8.036
  600POPC   C4A12726  38.408  21.491   7.597
  600POPC   C1B12727  38.512  21.081   8.796
  600POPC   C2B12728  38.772  20.879   8.475
  600POPC   C3B12729  38.815  20.993   8.071
  600POPC   C4B12730  38.813  21.210   7.709
  601POPC   NC312731  17.515  34.904   9.463
  601POPC   PO412732  17.316  35.574   9.663
  601POPC   GL112733  17.507  35.396   9.316
  601POPC   GL212734  17.227  35.427   9.118
  601POPC   C1A12735  17.660  35.238   8.906
  601POPC   D2A12736  17.691  35.450   8.513
  601POPC   C3A12737  17.571  35.205   8.176
  601POPC   C4A12738  17.636  35.414   7.817
  601POPC   C1B12739  17.203  35.434   8.682
  601POPC   C2B12740  17.246  35.603   8.259
  601POPC   C3B12741  17.125  35.361   7.901
  601POPC   C4B12742  17.238  35.343   7.493
  602POPC   NC312743  13.475  28.357   9.895
  602POPC   PO412744  13.484  28.154   9.322
  602POPC   GL112745  13.613  28.271   9.001
  602POPC   GL212746  13.533  28.610   9.083
  602POPC   C1A12747  13.579  28.182   8.619
  602POPC   D2A12748  13.715  28.325   8.258
  602POPC   C3A12749  13.455  28.310   7.881
  602POPC   C4A12750  13.331  28.198   7.468
  602POPC   C1B12751  13.721  28.657   8.686
  602POPC   C2B12752  13.892  28.807   8.317
  602POPC   C3B12753  13.773  28.708   7.925
  602POPC   C4B12754  13.405  28.828   7.761
  603POPC   NC312755  32.798  32.296   9.472
  603POPC   PO412756  33.277  31.918   9.637
  603POPC   GL112757  33.200  32.074   9.186
  603POPC   GL212758  33.227  32.411   9.090
  603POPC   C1A12759  32.954  32.146   8.763
  603POPC   D2A12760  33.127  32.305   8.374
  603POPC   C3A12761  32.932  32.164   8.019
  603POPC   C4A12762  32.897  32.376   7.628
  603POPC   C1B12763  33.426  32.579   8.703
  603POPC   C2B12764  33.593  32.521   8.259
  603POPC   C3B12765  33.342  32.425   7.879
  603POPC   C4B12766  33.351  32.487   7.390
  604POPC   NC312767  16.725  26.497   9.372
  604POPC   PO412768  16.996  25.890   9.491
  604POPC   GL112769  16.762  26.039   9.106
  604POPC   GL212770  16.467  25.906   8.971
  604POPC   C1A12771  16.802  26.056   8.627
  604POPC   D2A12772  16.428  25.978   8.384
  604POPC   C3A12773  16.501  25.944   7.948
  604POPC   C4A12774  16.874  26.077   7.752
  604POPC   C1B12775  16.465  26.375   8.807
  604POPC   C2B12776  16.724  26.579   8.512
  604POPC   C3B12777  16.682  26.414   8.101
  604POPC   C4B12778  16.436  26.411   7.710
  605POPC   NC312779  31.036  21.087   9.775
  605POPC   PO412780  30.459  21.402   9.628
  605POPC   GL112781  30.570  21.397   9.192
  605POPC   GL212782  30.925  21.278   9.206
  605POPC   C1A12783  30.569  21.155   8.813
  605POPC   D2A12784  30.748  21.083   8.426
  605POPC   C3A12785  30.580  20.982   8.033
  605POPC   C4A12786  30.858  21.059   7.705
  605POPC   C1B12787  30.972  21.562   8.842
  605POPC   C2B12788  30.767  21.603   8.451
  605POPC   C3B12789  30.768  21.474   8.048
  605POPC   C4B12790  31.103  21.492   7.785
  606POPC   NC312791  12.472  15.690   9.546
  606POPC   PO412792  12.082  16.101   9.672
  606POPC   GL112793  12.139  15.901   9.206
  606POPC   GL212794  12.086  15.510   9.239
  606POPC   C1A12795  12.220  16.046   8.717
  606POPC   D2A12796  12.426  16.040   8.254
  606POPC   C3A12797  12.143  16.108   7.829
  606POPC   C4A12798  12.002  16.395   7.497
  606POPC   C1B12799  12.316  15.566   8.838
  606POPC   C2B12800  12.157  15.620   8.424
  606POPC   C3B12801  12.107  15.623   7.980
  606POPC   C4B12802  11.847  15.690   7.627
  607POPC   NC312803  20.549  16.135   9.463
  607POPC   PO412804  20.635  16.755   9.591
  607POPC   GL112805  20.687  16.851   9.166
  607POPC   GL212806  20.985  17.064   9.121
  607POPC   C1A12807  20.475  16.726   8.786
  607POPC   D2A12808  20.297  16.583   8.435
  607POPC   C3A12809  20.469  16.752   8.093
  607POPC   C4A12810  20.429  16.688   7.664
  607POPC   C1B12811  20.944  16.898   8.695
  607POPC   C2B12812  20.953  16.930   8.220
  607POPC   C3B12813  20.868  16.904   7.774
  607POPC   C4B12814  20.749  16.925   7.295
  608POPC   NC312815  42.639  44.533   9.363
  608POPC   PO412816  42.210   0.021   9.396
  608POPC   GL112817  42.301  44.739   9.043
  608POPC   GL212818  42.204  44.356   9.095
  608POPC   C1A12819  42.616  44.580   8.716
  608POPC   D2A12820  42.548  44.336   8.347
  608POPC   C3A12821  42.466  44.561   7.955
  608POPC   C4A12822  42.658  44.858   7.696
  608POPC   C1B12823  42.123  44.471   8.655
  608POPC   C2B12824  42.157  44.739   8.318
  608POPC   C3B12825  41.933  44.711   7.920
  608POPC   C4B12826  41.797  44.509   7.526
  609POPC   NC312827   9.829   5.469   9.487
  609POPC   PO412828   9.715   6.154   9.477
  609POPC   GL112829   9.699   6.021   9.063
  609POPC   GL212830   9.604   5.674   9.040
  609POPC   C1A12831   9.628   6.040   8.636
  609POPC   D2A12832   9.466   5.887   8.264
  609POPC   C3A12833   9.660   6.144   7.948
  609POPC   C4A12834   9.732   6.142   7.522
  609POPC   C1B12835   9.888   5.604   8.739
  609POPC   C2B12836   9.935   5.449   8.358
  609POPC   C3B12837   9.849   5.600   8.004
  609POPC   C4B12838   9.876   5.497   7.619
  610POPC   NC312839  26.227  42.647   9.496
  610POPC   PO412840  26.203  41.985   9.349
  610POPC   GL112841  25.773  42.082   9.169
  610POPC   GL212842  25.694  42.454   9.189
  610POPC   C1A12843  25.768  42.203   8.712
  610POPC   D2A12844  26.189  42.202   8.498
  610POPC   C3A12845  26.237  42.282   8.065
  610POPC   C4A12846  26.168  42.164   7.648
  610POPC   C1B12847  25.940  42.638   8.893
  610POPC   C2B12848  26.186  42.715   8.568
  610POPC   C3B12849  26.196  42.782   8.155
  610POPC   C4B12850  25.961  42.647   7.799
  611POPC   NC312851  10.234   6.313   9.412
  611POPC   PO412852  10.593   5.675   9.511
  611POPC   GL112853  10.522   5.914   9.155
  611POPC   GL212854  10.158   5.804   9.153
  611POPC   C1A12855  10.715   6.127   8.782
  611POPC   D2A12856  10.547   6.175   8.373
  611POPC   C3A12857  10.542   5.869   8.043
  611POPC   C4A12858  10.592   5.918   7.557
  611POPC   C1B12859  10.197   6.007   8.728
  611POPC   C2B12860  10.058   5.998   8.264
  611POPC   C3B12861  10.122   5.966   7.777
  611POPC   C4B12862  10.153   5.773   7.313
  612POPC   NC312863  37.036  38.699   9.510
  612POPC   PO412864  36.722  38.036   9.540
  612POPC   GL112865  36.786  38.338   9.219
  612POPC   GL212866  37.146  38.365   9.145
  612POPC   C1A12867  36.760  38.595   8.856
  612POPC   D2A12868  36.515  38.683   8.532
  612POPC   C3A12869  36.559  38.455   8.120
  612POPC   C4A12870  36.656  38.592   7.677
  612POPC   C1B12871  37.248  38.618   8.793
  612POPC   C2B12872  37.005  38.527   8.407
  612POPC   C3B12873  37.078  38.589   7.993
  612POPC   C4B12874  37.168  38.814   7.616
  613POPC   NC312875  34.205  44.467   9.368
  613POPC   PO412876  34.560  44.997   9.609
  613POPC   GL112877  34.545  44.818   9.209
  613POPC   GL212878  34.721  44.501   9.223
  613POPC   C1A12879  34.338  44.857   8.808
  613POPC   D2A12880  34.600  44.774   8.489
  613POPC   C3A12881  34.463  44.976   8.148
  613POPC   C4A12882  34.278  44.706   7.844
  613POPC   C1B12883  34.911  44.471   8.817
  613POPC   C2B12884  34.778  44.296   8.399
  613POPC   C3B12885  34.733  44.552   8.026
  613POPC   C4B12886  34.805  44.476   7.571
  614POPC   NC312887  17.817  41.774   9.423
  614POPC   PO412888  18.460  41.461   9.487
  614POPC   GL112889  18.220  41.580   9.156
  614POPC   GL212890  17.980  41.308   9.161
  614POPC   C1A12891  18.144  41.827   8.797
  614POPC   D2A12892  18.320  41.776   8.387
  614POPC   C3A12893  18.040  41.641   8.089
  614POPC   C4A12894  17.943  41.782   7.708
  614POPC   C1B12895  18.137  41.296   8.727
  614POPC   C2B12896  18.286  41.242   8.311
  614POPC   C3B12897  18.416  41.321   7.878
  614POPC   C4B12898  18.152  41.361   7.513
  615POPC   NC312899  38.894  27.468   9.427
  615POPC   PO412900  39.470  27.753   9.430
  615POPC   GL112901  39.191  27.774   9.095
  615POPC   GL212902  38.930  28.039   9.060
  615POPC   C1A12903  39.294  27.596   8.701
  615POPC   D2A12904  39.415  27.775   8.299
  615POPC   C3A12905  39.706  27.475   8.105
  615POPC   C4A12906  39.446  27.429   7.803
  615POPC   C1B12907  39.048  28.041   8.635
  615POPC   C2B12908  38.911  27.694   8.356
  615POPC   C3B12909  38.978  27.596   7.947
  615POPC   C4B12910  38.869  27.784   7.547
  616POPC   NC312911  23.761   9.426   9.571
  616POPC   PO412912  23.575  10.063   9.513
  616POPC   GL112913  23.615   9.823   9.115
  616POPC   GL212914  23.905   9.628   9.124
  616POPC   C1A12915  23.589   9.588   8.683
  616POPC   D2A12916  23.348   9.384   8.369
  616POPC   C3A12917  23.356   9.582   7.974
  616POPC   C4A12918  23.725   9.857   7.856
  616POPC   C1B12919  24.055   9.753   8.722
  616POPC   C2B12920  23.942   9.586   8.302
  616POPC   C3B12921  24.175   9.662   7.943
  616POPC   C4B12922  24.266   9.917   7.564
  617POPC   NC312923  14.194  24.815   9.473
  617POPC   PO412924  14.701  24.329   9.402
  617POPC   GL112925  14.354  24.402   9.131
  617POPC   GL212926  14.543  24.701   9.047
  617POPC   C1A12927  14.137  24.617   8.772
  617POPC   D2A12928  14.080  24.858   8.380
  617POPC   C3A12929  14.257  24.669   8.006
  617POPC   C4A12930  14.391  24.469   7.620
  617POPC   C1B12931  14.756  24.396   8.746
  617POPC   C2B12932  14.699  24.362   8.330
  617POPC   C3B12933  14.770  24.537   7.975
  617POPC   C4B12934  14.722  24.850   7.695
  618POPC   NC312935  33.524   3.771   9.728
  618POPC   PO412936  33.860   4.339   9.547
  618POPC   GL112937  33.794   4.298   9.153
  618POPC   GL212938  34.082   4.472   9.068
  618POPC   C1A12939  33.630   4.326   8.741
  618POPC   D2A12940  33.763   4.518   8.369
  618POPC   C3A12941  33.735   4.304   7.973
  618POPC   C4A12942  34.081   4.528   7.824
  618POPC   C1B12943  34.109   4.120   8.797
  618POPC   C2B12944  33.942   4.043   8.405
  618POPC   C3B12945  34.194   4.078   8.066
  618POPC   C4B12946  34.107   4.000   7.716
  619POPC   NC312947   9.311   1.952   9.390
  619POPC   PO412948   8.738   2.101   9.726
  619POPC   GL112949   8.776   1.930   9.235
  619POPC   GL212950   8.909   2.158   8.907
  619POPC   C1A12951   8.814   1.673   8.836
  619POPC   D2A12952   8.877   1.874   8.443
  619POPC   C3A12953   8.754   1.815   8.039
  619POPC   C4A12954   8.895   2.143   7.799
  619POPC   C1B12955   9.274   1.901   8.766
  619POPC   C2B12956   9.475   1.728   8.420
  619POPC   C3B12957   9.278   1.779   8.009
  619POPC   C4B12958   9.453   1.761   7.593
  620POPC   NC312959  41.986   3.127   9.542
  620POPC   PO412960  42.546   3.392   9.408
  620POPC   GL112961  42.652   3.206   9.041
  620POPC   GL212962  42.311   3.174   8.983
  620POPC   C1A12963  42.668   3.229   8.603
  620POPC   D2A12964  42.400   3.355   8.277
  620POPC   C3A12965  42.599   3.231   7.906
  620POPC   C4A12966  42.773   3.368   7.524
  620POPC   C1B12967  42.366   3.604   8.771
  620POPC   C2B12968  42.420   3.861   8.362
  620POPC   C3B12969  42.416   3.725   7.903
  620POPC   C4B12970  42.259   3.401   7.565
  621POPC   NC312971   9.773  37.981   9.431
  621POPC   PO412972  10.160  38.516   9.476
  621POPC   GL112973  10.008  38.551   9.083
  621POPC   GL212974   9.699  38.383   9.141
  621POPC   C1A12975  10.056  38.515   8.611
  621POPC   D2A12976   9.764  38.435   8.328
  621POPC   C3A12977   9.793  38.339   7.904
  621POPC   C4A12978   9.551  38.041   7.714
  621POPC   C1B12979   9.591  38.591   8.801
  621POPC   C2B12980   9.585  38.869   8.518
  621POPC   C3B12981   9.444  38.742   8.113
  621POPC   C4B12982   9.565  38.739   7.664
  622POPC   NC312983   0.593   9.139   9.433
  622POPC   PO412984  44.939   9.059   9.394
  622POPC   GL112985   0.288   8.849   9.139
  622POPC   GL212986   0.623   8.985   8.964
  622POPC   C1A12987   0.260   8.762   8.703
  622POPC   D2A12988   0.218   9.053   8.380
  622POPC   C3A12989   0.270   8.925   7.979
  622POPC   C4A12990   0.236   8.602   7.723
  622POPC   C1B12991   0.918   9.020   8.659
  622POPC   C2B12992   0.732   8.961   8.318
  622POPC   C3B12993   0.739   9.099   7.954
  622POPC   C4B12994   0.680   8.824   7.676
  623POPC   NC312995  30.824   9.514   9.611
  623POPC   PO412996  31.333   9.298   9.385
  623POPC   GL112997  30.980   9.490   9.103
  623POPC   GL212998  30.834   9.831   9.184
  623POPC   C1A12999  30.681   9.573   8.736
  623POPC   D2A13000  30.525   9.369   8.348
  623POPC   C3A13001  30.630   9.560   7.939
  623POPC   C4A13002  30.878   9.563   7.556
  623POPC   C1B13003  30.936  10.010   8.752
  623POPC   C2B13004  30.798   9.886   8.312
  623POPC   C3B13005  30.912   9.986   7.858
  623POPC   C4B13006  30.856  10.065   7.391
  624POPC   NC313007  10.140   1.750   9.548
  624POPC   PO413008  10.760   1.621   9.449
  624POPC   GL113009  10.631   1.957   9.153
  624POPC   GL213010  10.284   2.091   9.187
  624POPC   C1A13011  10.819   2.040   8.752
  624POPC   D2A13012  10.939   2.216   8.371
  624POPC   C3A13013  10.974   2.067   7.957
  624POPC   C4A13014  10.618   2.016   7.667
  624POPC   C1B13015  10.303   1.968   8.757
  624POPC   C2B13016  10.441   2.081   8.374
  624POPC   C3B13017  10.240   2.039   8.004
  624POPC   C4B13018  10.218   1.720   7.716
  625POPC   NC313019   5.792  25.835   9.482
  625POPC   PO413020   5.494  26.369   9.323
  625POPC   GL113021   5.896  26.115   9.079
  625POPC   GL213022   5.980  25.676   9.051
  625POPC   C1A13023   6.060  25.998   8.671
  625POPC   D2A13024   6.196  26.024   8.252
  625POPC   C3A13025   6.105  25.960   7.816
  625POPC   C4A13026   6.143  26.207   7.450
  625POPC   C1B13027   5.617  25.787   8.801
  625POPC   C2B13028   5.616  26.014   8.399
  625POPC   C3B13029   5.623  25.869   7.961
  625POPC   C4B13030   5.400  25.641   7.622
  626POPC   NC313031  12.467  44.075   9.325
  626POPC   PO413032  13.087  44.053   9.589
  626POPC   GL113033  12.911  43.766   9.250
  626POPC   GL213034  12.602  43.543   9.178
  626POPC   C1A13035  12.969  43.587   8.835
  626POPC   D2A13036  12.885  43.752   8.446
  626POPC   C3A13037  12.970  43.578   8.056
  626POPC   C4A13038  12.797  43.708   7.697
  626POPC   C1B13039  12.478  43.725   8.756
  626POPC   C2B13040  12.383  43.829   8.316
  626POPC   C3B13041  12.351  43.912   7.852
  626POPC   C4B13042  12.346  43.638   7.482
  627POPC   NC313043   0.461   3.770   9.755
  627POPC   PO413044  44.873   3.535   9.605
  627POPC   GL113045   0.229   3.662   9.271
  627POPC   GL213046   0.481   3.456   9.189
  627POPC   C1A13047   0.559   3.823   8.868
  627POPC   D2A13048   0.614   3.630   8.450
  627POPC   C3A13049   0.731   3.911   8.094
  627POPC   C4A13050   0.391   4.098   7.841
  627POPC   C1B13051   0.128   3.598   8.783
  627POPC   C2B13052   0.110   3.699   8.324
  627POPC   C3B13053   0.383   3.531   8.011
  627POPC   C4B13054   0.498   3.125   7.898
  628POPC   NC313055  31.897  15.171   9.861
  628POPC   PO413056  32.075  15.470   9.566
  628POPC   GL113057  31.995  15.230   9.160
  628POPC   GL213058  32.274  15.078   8.962
  628POPC   C1A13059  31.845  15.328   8.717
  628POPC   D2A13060  31.996  15.456   8.303
  628POPC   C3A13061  32.099  15.146   7.975
  628POPC   C4A13062  32.372  15.139   7.601
  628POPC   C1B13063  32.296  15.076   8.487
  628POPC   C2B13064  32.486  14.840   8.104
  628POPC   C3B13065  32.298  14.643   7.722
  628POPC   C4B13066  32.152  14.781   7.289
  629POPC   NC313067   7.963  40.678   9.711
  629POPC   PO413068   8.622  40.544   9.771
  629POPC   GL113069   8.427  40.722   9.337
  629POPC   GL213070   8.063  40.729   9.210
  629POPC   C1A13071   8.466  40.896   8.874
  629POPC   D2A13072   8.395  41.045   8.425
  629POPC   C3A13073   8.444  40.719   8.081
  629POPC   C4A13074   8.537  40.443   7.700
  629POPC   C1B13075   7.961  40.850   8.776
  629POPC   C2B13076   8.018  40.629   8.380
  629POPC   C3B13077   7.970  40.530   7.939
  629POPC   C4B13078   7.801  40.644   7.507
  630POPC   NC313079  28.099   9.948   9.467
  630POPC   PO413080  28.568   9.476   9.517
  630POPC   GL113081  28.435   9.722   9.188
  630POPC   GL213082  28.559  10.063   9.268
  630POPC   C1A13083  28.168   9.714   8.815
  630POPC   D2A13084  28.265   9.552   8.435
  630POPC   C3A13085  28.106   9.619   8.055
  630POPC   C4A13086  28.233   9.394   7.711
  630POPC   C1B13087  28.441  10.131   8.845
  630POPC   C2B13088  28.249  10.133   8.455
  630POPC   C3B13089  28.387  10.135   8.020
  630POPC   C4B13090  28.275   9.910   7.661
  631POPC   NC313091   0.234  35.626   9.441
  631POPC   PO413092   0.575  35.043   9.488
  631POPC   GL113093   0.624  35.306   9.150
  631POPC   GL213094   0.332  35.433   8.994
  631POPC   C1A13095   0.762  35.397   8.717
  631POPC   D2A13096   0.545  35.616   8.386
  631POPC   C3A13097   0.650  35.524   7.976
  631POPC   C4A13098   0.505  35.167   7.785
  631POPC   C1B13099   0.181  35.771   8.775
  631POPC   C2B13100  44.992  35.789   8.399
  631POPC   C3B13101   0.185  35.737   8.056
  631POPC   C4B13102   0.144  35.502   7.758
  632POPC   NC313103  44.197  12.785   9.583
  632POPC   PO413104  44.725  13.189   9.648
  632POPC   GL113105  44.644  13.033   9.205
  632POPC   GL213106  44.469  12.689   9.164
  632POPC   C1A13107  44.841  13.087   8.761
  632POPC   D2A13108  44.860  12.844   8.330
  632POPC   C3A13109  44.915  12.987   7.882
  632POPC   C4A13110   0.039  13.071   7.449
  632POPC   C1B13111  44.566  12.651   8.729
  632POPC   C2B13112  44.381  12.626   8.329
  632POPC   C3B13113  44.563  12.634   7.926
  632POPC   C4B13114  44.512  12.889   7.534
  633POPC   NC313115  20.377  28.505   9.354
  633POPC   PO413116  20.979  28.224   9.432
  633POPC   GL113117  20.866  27.986   9.049
  633POPC   GL213118  20.536  28.064   9.041
  633POPC   C1A13119  20.800  28.023   8.585
  633POPC   D2A13120  20.711  28.399   8.332
  633POPC   C3A13121  20.909  28.346   7.951
  633POPC   C4A13122  20.851  28.048   7.622
  633POPC   C1B13123  20.333  28.245   8.693
  633POPC   C2B13124  20.211  28.218   8.257
  633POPC   C3B13125  20.373  28.403   7.890
  633POPC   C4B13126  20.397  28.852   7.819
  634POPC   NC313127  20.698  38.746   9.634
  634POPC   PO413128  20.758  38.093   9.301
  634POPC   GL113129  20.737  38.537   9.131
  634POPC   GL213130  20.410  38.690   9.180
  634POPC   C1A13131  20.611  38.760   8.732
  634POPC   D2A13132  20.508  38.848   8.315
  634POPC   C3A13133  20.779  38.614   8.017
  634POPC   C4A13134  20.795  38.189   7.806
  634POPC   C1B13135  20.315  38.341   8.849
  634POPC   C2B13136  20.342  38.118   8.424
  634POPC   C3B13137  20.298  38.265   7.984
  634POPC   C4B13138  20.343  38.666   7.773
  635POPC   NC313139  14.211   6.048   9.451
  635POPC   PO413140  14.770   5.849   9.835
  635POPC   GL113141  14.621   5.815   9.346
  635POPC   GL213142  14.641   6.118   9.156
  635POPC   C1A13143  14.439   5.673   8.915
  635POPC   D2A13144  14.240   5.839   8.499
  635POPC   C3A13145  14.335   5.763   8.077
  635POPC   C4A13146  14.183   5.953   7.688
  635POPC   C1B13147  14.437   6.199   8.794
  635POPC   C2B13148  14.620   6.142   8.377
  635POPC   C3B13149  14.466   6.261   8.004
  635POPC   C4B13150  14.640   6.333   7.622
  636POPC   NC313151   1.301  10.156   9.355
  636POPC   PO413152   1.370  10.776   9.629
  636POPC   GL113153   1.331  10.686   9.191
  636POPC   GL213154   1.022  10.542   9.127
  636POPC   C1A13155   1.370  10.533   8.762
  636POPC   D2A13156   1.469  10.296   8.412
  636POPC   C3A13157   1.398  10.561   8.084
  636POPC   C4A13158   1.415  10.400   7.717
  636POPC   C1B13159   0.900  10.314   8.758
  636POPC   C2B13160   0.988  10.464   8.361
  636POPC   C3B13161   0.953  10.351   7.904
  636POPC   C4B13162   1.041  10.278   7.419
  637POPC   NC313163  24.844  20.574   9.511
  637POPC   PO413164  24.126  20.415   9.586
  637POPC   GL113165  24.251  20.620   9.202
  637POPC   GL213166  24.523  20.470   9.140
  637POPC   C1A13167  24.319  20.854   8.815
  637POPC   D2A13168  24.467  20.897   8.366
  637POPC   C3A13169  24.313  20.739   7.967
  637POPC   C4A13170  24.397  20.860   7.516
  637POPC   C1B13171  24.374  20.310   8.784
  637POPC   C2B13172  24.488  20.183   8.398
  637POPC   C3B13173  24.617  20.323   8.024
  637POPC   C4B13174  24.423  20.365   7.605
  638POPC   NC313175  33.214  39.888   9.583
  638POPC   PO413176  32.726  39.555   9.596
  638POPC   GL113177  32.963  39.457   9.218
  638POPC   GL213178  33.225  39.677   9.127
  638POPC   C1A13179  32.858  39.574   8.777
  638POPC   D2A13180  32.672  39.419   8.373
  638POPC   C3A13181  32.776  39.406   7.917
  638POPC   C4A13182  32.573  39.107   7.571
  638POPC   C1B13183  33.358  39.564   8.707
  638POPC   C2B13184  33.161  39.649   8.302
  638POPC   C3B13185  33.266  39.542   7.870
  638POPC   C4B13186  33.423  39.669   7.453
  639POPC   NC313187  28.005  32.584   9.534
  639POPC   PO413188  27.326  32.337   9.514
  639POPC   GL113189  27.697  32.344   9.230
  639POPC   GL213190  27.831  32.057   9.092
  639POPC   C1A13191  27.860  32.498   8.816
  639POPC   D2A13192  27.660  32.446   8.415
  639POPC   C3A13193  27.785  32.537   8.010
  639POPC   C4A13194  27.549  32.496   7.639
  639POPC   C1B13195  27.459  32.168   8.825
  639POPC   C2B13196  27.319  32.043   8.415
  639POPC   C3B13197  27.444  32.136   8.023
  639POPC   C4B13198  27.291  32.016   7.630
  640POPC   NC313199  21.350  19.758   9.524
  640POPC   PO413200  21.886  20.159   9.656
  640POPC   GL113201  21.765  20.014   9.231
  640POPC   GL213202  21.672  20.219   9.028
  640POPC   C1A13203  21.502  19.767   8.894
  640POPC   D2A13204  21.237  19.805   8.520
  640POPC   C3A13205  21.439  19.908   8.131
  640POPC   C4A13206  21.329  19.781   7.732
  640POPC   C1B13207  21.254  20.228   8.806
  640POPC   C2B13208  21.112  20.280   8.371
  640POPC   C3B13209  21.296  20.375   7.960
  640POPC   C4B13210  21.086  20.243   7.614
  641POPC   NC313211  28.055   5.630   9.414
  641POPC   PO413212  27.528   5.989   9.639
  641POPC   GL113213  27.633   5.833   9.185
  641POPC   GL213214  27.961   5.944   9.040
  641POPC   C1A13215  27.583   5.843   8.737
  641POPC   D2A13216  27.844   5.947   8.372
  641POPC   C3A13217  27.669   5.788   8.012
  641POPC   C4A13218  27.300   5.963   7.841
  641POPC   C1B13219  28.055   5.606   8.675
  641POPC   C2B13220  28.123   5.556   8.182
  641POPC   C3B13221  28.022   5.543   7.711
  641POPC   C4B13222  27.865   5.509   7.236
  642POPC   NC313223  44.270  42.918   9.517
  642POPC   PO413224  43.623  42.979   9.554
  642POPC   GL113225  43.799  42.780   9.185
  642POPC   GL213226  43.428  42.680   9.125
  642POPC   C1A13227  44.033  42.972   8.816
  642POPC   D2A13228  44.156  43.167   8.389
  642POPC   C3A13229  43.874  43.300   8.007
  642POPC   C4A13230  43.448  43.479   7.848
  642POPC   C1B13231  43.524  42.940   8.794
  642POPC   C2B13232  43.716  42.936   8.410
  642POPC   C3B13233  43.517  42.940   8.031
  642POPC   C4B13234  43.415  42.982   7.661
  643POPC   NC313235  15.654  41.225   9.769
  643POPC   PO413236  15.057  41.649   9.557
  643POPC   GL113237  14.978  41.693   9.131
  643POPC   GL213238  14.727  41.455   9.124
  643POPC   C1A13239  15.110  41.523   8.732
  643POPC   D2A13240  15.265  41.610   8.325
  643POPC   C3A13241  15.248  41.239   8.092
  643POPC   C4A13242  15.335  41.119   7.675
  643POPC   C1B13243  14.603  41.556   8.704
  643POPC   C2B13244  14.758  41.465   8.302
  643POPC   C3B13245  14.898  41.637   7.922
  643POPC   C4B13246  14.941  41.922   7.561
  644POPC   NC313247   2.273  34.805   9.426
  644POPC   PO413248   2.888  34.449   9.471
  644POPC   GL113249   2.770  34.328   9.095
  644POPC   GL213250   2.553  34.592   9.047
  644POPC   C1A13251   2.827  34.380   8.657
  644POPC   D2A13252   2.844  34.274   8.238
  644POPC   C3A13253   2.927  34.584   7.930
  644POPC   C4A13254   3.114  34.710   7.542
  644POPC   C1B13255   2.417  34.741   8.655
  644POPC   C2B13256   2.507  34.634   8.283
  644POPC   C3B13257   2.410  34.645   7.888
  644POPC   C4B13258   2.604  34.845   7.532
  645POPC   NC313259  18.401   4.497   9.935
  645POPC   PO413260  18.021   4.928   9.475
  645POPC   GL113261  18.229   4.671   9.161
  645POPC   GL213262  18.376   4.294   9.194
  645POPC   C1A13263  18.180   4.459   8.766
  645POPC   D2A13264  18.136   4.097   8.515
  645POPC   C3A13265  18.037   4.234   8.100
  645POPC   C4A13266  17.985   4.044   7.697
  645POPC   C1B13267  18.598   4.164   8.778
  645POPC   C2B13268  18.523   4.368   8.342
  645POPC   C3B13269  18.645   4.313   7.909
  645POPC   C4B13270  18.383   4.384   7.541
  646POPC   NC313271  13.554  37.402   9.524
  646POPC   PO413272  14.150  37.665   9.609
  646POPC   GL113273  13.777  37.853   9.264
  646POPC   GL213274  13.619  37.555   9.058
  646POPC   C1A13275  13.509  37.981   8.852
  646POPC   D2A13276  13.579  37.661   8.546
  646POPC   C3A13277  13.489  37.731   8.136
  646POPC   C4A13278  13.596  37.763   7.753
  646POPC   C1B13279  13.908  37.317   8.784
  646POPC   C2B13280  13.837  37.285   8.323
  646POPC   C3B13281  13.676  37.254   7.924
  646POPC   C4B13282  13.384  37.319   7.616
  647POPC   NC313283  28.705   5.646   9.475
  647POPC   PO413284  29.156   6.078   9.836
  647POPC   GL113285  29.176   6.142   9.330
  647POPC   GL213286  28.957   5.927   9.131
  647POPC   C1A13287  29.279   6.201   8.847
  647POPC   D2A13288  29.180   6.025   8.406
  647POPC   C3A13289  29.402   6.160   7.992
  647POPC   C4A13290  29.336   5.945   7.582
  647POPC   C1B13291  29.183   5.679   8.797
  647POPC   C2B13292  29.199   5.475   8.387
  647POPC   C3B13293  29.177   5.694   7.987
  647POPC   C4B13294  28.905   6.058   7.850
  648POPC   NC313295  19.323  13.906   9.440
  648POPC   PO413296  18.961  13.268   9.403
  648POPC   GL113297  19.215  13.424   9.075
  648POPC   GL213298  19.023  13.708   9.093
  648POPC   C1A13299  19.189  13.618   8.645
  648POPC   D2A13300  19.125  13.879   8.322
  648POPC   C3A13301  19.294  13.626   8.026
  648POPC   C4A13302  19.179  13.437   7.657
  648POPC   C1B13303  18.798  13.952   8.792
  648POPC   C2B13304  18.684  14.087   8.413
  648POPC   C3B13305  18.660  13.877   8.055
  648POPC   C4B13306  18.944  13.883   7.749
  649POPC   NC313307  23.061  28.221   9.722
  649POPC   PO413308  22.804  28.797   9.665
  649POPC   GL113309  22.939  28.483   9.301
  649POPC   GL213310  22.660  28.274   9.198
  649POPC   C1A13311  23.078  28.241   8.894
  649POPC   D2A13312  22.761  28.195   8.525
  649POPC   C3A13313  22.892  28.313   8.078
  649POPC   C4A13314  23.273  28.297   7.768
  649POPC   C1B13315  22.763  28.622   8.845
  649POPC   C2B13316  23.016  28.743   8.459
  649POPC   C3B13317  23.173  28.741   8.016
  649POPC   C4B13318  22.843  28.671   7.703
  650POPC   NC313319   8.638  22.860   9.884
  650POPC   PO413320   9.173  22.770   9.502
  650POPC   GL113321   9.162  22.956   9.111
  650POPC   GL213322   8.832  23.066   9.080
  650POPC   C1A13323   9.102  22.864   8.678
  650POPC   D2A13324   8.768  22.665   8.440
  650POPC   C3A13325   8.884  22.753   8.034
  650POPC   C4A13326   9.209  22.761   7.754
  650POPC   C1B13327   8.659  23.113   8.673
  650POPC   C2B13328   8.886  23.219   8.262
  650POPC   C3B13329   8.916  23.199   7.774
  650POPC   C4B13330   8.737  23.195   7.317
  651POPC   NC313331  14.436  11.178   9.631
  651POPC   PO413332  13.800  11.431   9.526
  651POPC   GL113333  14.203  11.503   9.263
  651POPC   GL213334  14.567  11.320   9.173
  651POPC   C1A13335  14.201  11.396   8.837
  651POPC   D2A13336  14.375  11.314   8.438
  651POPC   C3A13337  14.079  11.440   8.132
  651POPC   C4A13338  14.229  11.470   7.722
  651POPC   C1B13339  14.760  11.402   8.774
  651POPC   C2B13340  14.839  11.084   8.434
  651POPC   C3B13341  14.748  10.959   8.029
  651POPC   C4B13342  14.633  11.159   7.664
  652POPC   NC313343  42.073  40.137   9.524
  652POPC   PO413344  41.565  39.849   9.465
  652POPC   GL113345  41.704  40.111   9.154
  652POPC   GL213346  41.947  39.862   9.083
  652POPC   C1A13347  41.431  40.232   8.815
  652POPC   D2A13348  41.294  39.897   8.536
  652POPC   C3A13349  41.473  39.888   8.130
  652POPC   C4A13350  41.324  39.813   7.734
  652POPC   C1B13351  41.815  39.917   8.664
  652POPC   C2B13352  42.002  39.969   8.244
  652POPC   C3B13353  41.905  39.967   7.788
  652POPC   C4B13354  41.593  40.244   7.613
  653POPC   NC313355   8.693  37.519   9.553
  653POPC   PO413356   9.308  37.953   9.371
  653POPC   GL113357   8.969  37.705   9.148
  653POPC   GL213358   8.815  37.960   9.095
  653POPC   C1A13359   8.686  37.664   8.725
  653POPC   D2A13360   8.430  37.610   8.344
  653POPC   C3A13361   8.701  37.570   7.963
  653POPC   C4A13362   9.098  37.343   7.848
  653POPC   C1B13363   9.163  37.852   8.713
  653POPC   C2B13364   9.055  37.844   8.261
  653POPC   C3B13365   9.099  37.849   7.794
  653POPC   C4B13366   9.172  37.787   7.347
  654POPC   NC313367  12.554   1.812   9.629
  654POPC   PO413368  13.036   2.294   9.531
  654POPC   GL113369  12.833   2.022   9.207
  654POPC   GL213370  12.712   2.251   8.956
  654POPC   C1A13371  12.919   1.673   8.871
  654POPC   D2A13372  12.999   1.560   8.428
  654POPC   C3A13373  12.784   1.799   8.106
  654POPC   C4A13374  12.973   1.834   7.725
  654POPC   C1B13375  12.791   2.056   8.555
  654POPC   C2B13376  12.994   2.240   8.209
  654POPC   C3B13377  13.186   2.344   7.835
  654POPC   C4B13378  13.281   2.161   7.467
  655POPC   NC313379  30.247  41.575   9.588
  655POPC   PO413380  29.647  41.281   9.673
  655POPC   GL113381  29.723  41.535   9.255
  655POPC   GL213382  30.071  41.683   9.145
  655POPC   C1A13383  29.759  41.650   8.780
  655POPC   D2A13384  29.978  41.766   8.378
  655POPC   C3A13385  29.861  41.653   7.943
  655POPC   C4A13386  29.852  41.612   7.486
  655POPC   C1B13387  30.096  41.282   9.003
  655POPC   C2B13388  30.101  41.271   8.582
  655POPC   C3B13389  30.139  41.284   8.169
  655POPC   C4B13390  30.165  41.269   7.753
  656POPC   NC313391   8.191  26.986   9.364
  656POPC   PO413392   7.770  26.490   9.548
  656POPC   GL113393   7.995  26.579   9.155
  656POPC   GL213394   8.371  26.667   9.046
  656POPC   C1A13395   8.013  26.869   8.748
  656POPC   D2A13396   8.237  26.997   8.373
  656POPC   C3A13397   8.091  26.836   7.973
  656POPC   C4A13398   7.739  26.617   7.821
  656POPC   C1B13399   8.535  27.039   8.807
  656POPC   C2B13400   8.766  27.127   8.411
  656POPC   C3B13401   8.578  27.060   8.008
  656POPC   C4B13402   8.562  26.641   7.887
  657POPC   NC313403  41.918  39.461   9.446
  657POPC   PO413404  41.465  39.029   9.461
  657POPC   GL113405  41.629  39.138   9.107
  657POPC   GL213406  41.969  39.071   9.100
  657POPC   C1A13407  41.566  39.469   8.812
  657POPC   D2A13408  41.718  39.508   8.394
  657POPC   C3A13409  41.572  39.280   8.074
  657POPC   C4A13410  41.672  39.460   7.694
  657POPC   C1B13411  41.944  38.793   8.786
  657POPC   C2B13412  41.774  38.837   8.368
  657POPC   C3B13413  41.972  38.992   7.986
  657POPC   C4B13414  41.973  39.068   7.583
  658POPC   NC313415  19.404  26.668   9.613
  658POPC   PO413416  18.794  27.074   9.654
  658POPC   GL113417  18.970  26.780   9.319
  658POPC   GL213418  19.304  26.851   9.162
  658POPC   C1A13419  18.953  26.702   8.849
  658POPC   D2A13420  19.130  26.737   8.428
  658POPC   C3A13421  18.806  26.874   8.123
  658POPC   C4A13422  18.692  26.724   7.723
  658POPC   C1B13423  19.310  27.110   8.803
  658POPC   C2B13424  19.505  27.241   8.428
  658POPC   C3B13425  19.335  27.061   8.084
  658POPC   C4B13426  19.199  26.697   7.846
  659POPC   NC313427  29.500  19.387   9.502
  659POPC   PO413428  29.421  20.051   9.442
  659POPC   GL113429  29.128  19.956   9.163
  659POPC   GL213430  29.122  20.282   9.077
  659POPC   C1A13431  28.947  19.901   8.767
  659POPC   D2A13432  29.185  19.868   8.388
  659POPC   C3A13433  29.047  20.086   8.036
  659POPC   C4A13434  28.764  19.836   7.800
  659POPC   C1B13435  29.445  20.133   8.746
  659POPC   C2B13436  29.591  20.164   8.292
  659POPC   C3B13437  29.532  20.048   7.843
  659POPC   C4B13438  29.200  19.962   7.528
  660POPC   NC313439  37.956  23.882   9.249
  660POPC   PO413440  37.251  23.683   9.406
  660POPC   GL113441  37.472  23.812   9.099
  660POPC   GL213442  37.649  23.499   9.075
  660POPC   C1A13443  37.582  23.845   8.685
  660POPC   D2A13444  37.311  23.903   8.396
  660POPC   C3A13445  37.493  23.817   8.048
  660POPC   C4A13446  37.573  23.783   7.663
  660POPC   C1B13447  37.765  23.346   8.698
  660POPC   C2B13448  37.876  23.554   8.332
  660POPC   C3B13449  37.791  23.394   7.955
  660POPC   C4B13450  37.939  23.400   7.561
  661POPC   NC313451  33.621  24.493   9.482
  661POPC   PO413452  34.232  24.275   9.598
  661POPC   GL113453  34.117  24.382   9.160
  661POPC   GL213454  33.772  24.329   9.020
  661POPC   C1A13455  34.206  24.227   8.728
  661POPC   D2A13456  34.117  23.971   8.376
  661POPC   C3A13457  34.140  24.195   7.990
  661POPC   C4A13458  34.024  24.201   7.544
  661POPC   C1B13459  33.462  24.194   8.712
  661POPC   C2B13460  33.642  24.167   8.298
  661POPC   C3B13461  33.651  24.342   7.863
  661POPC   C4B13462  33.512  24.720   7.626
  662POPC   NC313463   5.385   3.173   9.503
  662POPC   PO413464   4.883   2.676   9.545
  662POPC   GL113465   5.174   2.830   9.207
  662POPC   GL213466   5.380   2.551   9.076
  662POPC   C1A13467   5.285   2.954   8.773
  662POPC   D2A13468   5.246   2.700   8.389
  662POPC   C3A13469   5.218   2.948   7.994
  662POPC   C4A13470   5.296   2.941   7.559
  662POPC   C1B13471   4.997   2.516   8.836
  662POPC   C2B13472   4.825   2.334   8.471
  662POPC   C3B13473   4.899   2.481   8.066
  662POPC   C4B13474   5.145   2.472   7.683
  663POPC   NC313475   2.333   3.780   9.567
  663POPC   PO413476   1.676   3.776   9.584
  663POPC   GL113477   1.891   3.733   9.201
  663POPC   GL213478   2.204   3.960   9.127
  663POPC   C1A13479   1.795   3.425   8.880
  663POPC   D2A13480   1.806   3.197   8.483
  663POPC   C3A13481   2.052   3.267   8.098
  663POPC   C4A13482   2.163   3.126   7.654
  663POPC   C1B13483   2.222   3.667   8.818
  663POPC   C2B13484   2.020   3.678   8.429
  663POPC   C3B13485   2.025   3.799   8.020
  663POPC   C4B13486   1.924   3.569   7.705
  664POPC   NC313487  21.611   5.665   9.461
  664POPC   PO413488  21.212   5.074   9.665
  664POPC   GL113489  21.332   5.253   9.270
  664POPC   GL213490  21.610   5.064   9.188
  664POPC   C1A13491  21.198   5.258   8.824
  664POPC   D2A13492  21.148   5.365   8.370
  664POPC   C3A13493  21.235   5.040   8.036
  664POPC   C4A13494  21.043   4.946   7.616
  664POPC   C1B13495  21.700   5.141   8.738
  664POPC   C2B13496  21.639   5.229   8.306
  664POPC   C3B13497  21.770   5.224   7.896
  664POPC   C4B13498  21.576   4.923   7.639
  665POPC   NC313499  21.596  39.513   9.576
  665POPC   PO413500  20.977  39.155   9.563
  665POPC   GL113501  21.244  39.367   9.204
  665POPC   GL213502  21.630  39.480   9.087
  665POPC   C1A13503  21.233  39.549   8.774
  665POPC   D2A13504  21.319  39.346   8.385
  665POPC   C3A13505  21.549  39.338   8.018
  665POPC   C4A13506  21.422  39.274   7.608
  665POPC   C1B13507  21.512  39.115   8.865
  665POPC   C2B13508  21.509  38.905   8.502
  665POPC   C3B13509  21.746  38.882   8.100
  665POPC   C4B13510  21.826  38.963   7.681
  666POPC   NC313511  20.750   7.742   9.506
  666POPC   PO413512  20.533   7.094   9.558
  666POPC   GL113513  20.612   7.201   9.153
  666POPC   GL213514  20.489   7.540   9.111
  666POPC   C1A13515  20.439   7.181   8.727
  666POPC   D2A13516  20.356   7.455   8.349
  666POPC   C3A13517  20.462   7.186   8.012
  666POPC   C4A13518  20.885   7.162   7.867
  666POPC   C1B13519  20.718   7.608   8.715
  666POPC   C2B13520  20.877   7.428   8.339
  666POPC   C3B13521  20.847   7.669   8.000
  666POPC   C4B13522  20.525   7.899   7.786
  667POPC   NC313523  10.582  36.505   9.608
  667POPC   PO413524  10.462  37.118   9.573
  667POPC   GL113525  10.377  37.104   9.156
  667POPC   GL213526  10.437  36.772   9.139
  667POPC   C1A13527  10.171  37.240   8.795
  667POPC   D2A13528  10.366  37.368   8.406
  667POPC   C3A13529  10.297  37.196   8.010
  667POPC   C4A13530  10.636  36.920   7.865
  667POPC   C1B13531  10.507  36.878   8.695
  667POPC   C2B13532  10.316  36.778   8.302
  667POPC   C3B13533  10.267  36.580   7.909
  667POPC   C4B13534  10.634  36.421   7.741
  668POPC   NC313535  21.432  25.494   9.396
  668POPC   PO413536  21.225  24.955   9.556
  668POPC   GL113537  21.141  25.124   9.171
  668POPC   GL213538  21.487  25.098   9.086
  668POPC   C1A13539  21.175  25.279   8.736
  668POPC   D2A13540  21.344  25.192   8.338
  668POPC   C3A13541  21.195  25.354   7.965
  668POPC   C4A13542  21.549  25.538   7.797
  668POPC   C1B13543  21.566  24.916   8.719
  668POPC   C2B13544  21.564  24.709   8.337
  668POPC   C3B13545  21.605  24.946   7.938
  668POPC   C4B13546  21.698  25.111   7.550
  669POPC   NC313547   0.883  13.352   9.363
  669POPC   PO413548   1.554  13.398   9.556
  669POPC   GL113549   1.563  13.657   9.213
  669POPC   GL213550   1.222  13.658   9.117
  669POPC   C1A13551   1.614  13.747   8.779
  669POPC   D2A13552   1.473  13.847   8.375
  669POPC   C3A13553   1.452  13.585   8.047
  669POPC   C4A13554   1.413  13.726   7.651
  669POPC   C1B13555   1.121  13.836   8.729
  669POPC   C2B13556   0.987  13.654   8.352
  669POPC   C3B13557   0.998  13.824   7.963
  669POPC   C4B13558   0.984  13.985   7.538
  670POPC   NC313559   5.481  23.423   9.943
  670POPC   PO413560   5.886  22.934   9.725
  670POPC   GL113561   6.001  23.083   9.329
  670POPC   GL213562   5.870  22.799   9.191
  670POPC   C1A13563   6.146  23.110   8.876
  670POPC   D2A13564   6.121  22.891   8.470
  670POPC   C3A13565   6.125  23.097   8.067
  670POPC   C4A13566   6.154  23.012   7.628
  670POPC   C1B13567   5.687  22.824   8.794
  670POPC   C2B13568   5.657  22.693   8.376
  670POPC   C3B13569   5.695  22.833   7.953
  670POPC   C4B13570   5.626  22.469   7.700
  671POPC   NC313571  18.543  13.405   9.555
  671POPC   PO413572  17.915  13.770   9.553
  671POPC   GL113573  18.151  13.574   9.204
  671POPC   GL213574  18.512  13.683   9.114
  671POPC   C1A13575  18.211  13.482   8.773
  671POPC   D2A13576  18.408  13.650   8.426
  671POPC   C3A13577  18.257  13.524   8.037
  671POPC   C4A13578  18.246  13.589   7.604
  671POPC   C1B13579  18.731  13.434   8.756
  671POPC   C2B13580  18.857  13.407   8.295
  671POPC   C3B13581  18.706  13.398   7.860
  671POPC   C4B13582  18.733  13.548   7.403
  672POPC   NC313583  20.437  43.365   9.566
  672POPC   PO413584  21.052  43.154   9.316
  672POPC   GL113585  20.674  42.928   9.269
  672POPC   GL213586  20.501  43.180   9.113
  672POPC   C1A13587  20.456  42.723   8.930
  672POPC   D2A13588  20.439  42.687   8.505
  672POPC   C3A13589  20.569  43.033   8.260
  672POPC   C4A13590  20.743  43.049   7.835
  672POPC   C1B13591  20.209  43.407   8.908
  672POPC   C2B13592  20.199  43.402   8.480
  672POPC   C3B13593  20.231  43.421   8.047
  672POPC   C4B13594  20.404  43.350   7.623
  673POPC   NC313595  37.271  10.319   9.551
  673POPC   PO413596  37.889  10.414   9.532
  673POPC   GL113597  37.659  10.625   9.184
  673POPC   GL213598  37.583  10.985   9.199
  673POPC   C1A13599  37.488  10.645   8.771
  673POPC   D2A13600  37.394  10.423   8.382
  673POPC   C3A13601  37.633  10.553   8.064
  673POPC   C4A13602  37.413  10.563   7.711
  673POPC   C1B13603  37.879  11.058   8.832
  673POPC   C2B13604  38.172  10.995   8.464
  673POPC   C3B13605  37.989  10.940   8.052
  673POPC   C4B13606  37.894  10.751   7.666
  674POPC   NC313607  17.394  25.868   9.734
  674POPC   PO413608  17.272  26.533   9.741
  674POPC   GL113609  17.466  26.278   9.407
  674POPC   GL213610  17.194  26.287   9.209
  674POPC   C1A13611  17.656  26.130   8.978
  674POPC   D2A13612  17.839  25.767   8.658
  674POPC   C3A13613  17.787  25.827   8.169
  674POPC   C4A13614  17.606  26.081   7.813
  674POPC   C1B13615  17.214  25.921   8.893
  674POPC   C2B13616  17.365  25.862   8.484
  674POPC   C3B13617  17.220  25.838   8.057
  674POPC   C4B13618  17.254  25.768   7.617
  675POPC   NC313619  36.419  41.160   9.464
  675POPC   PO413620  37.111  41.477   9.527
  675POPC   GL113621  37.018  41.583   9.129
  675POPC   GL213622  36.655  41.532   9.162
  675POPC   C1A13623  36.901  41.655   8.719
  675POPC   D2A13624  36.584  41.605   8.433
  675POPC   C3A13625  36.746  41.784   8.106
  675POPC   C4A13626  36.917  41.846   7.759
  675POPC   C1B13627  36.717  41.204   8.851
  675POPC   C2B13628  36.638  41.071   8.411
  675POPC   C3B13629  36.706  41.225   7.949
  675POPC   C4B13630  36.665  41.188   7.442
  676POPC   NC313631  18.794  11.054  10.039
  676POPC   PO413632  18.992  10.857   9.399
  676POPC   GL113633  19.010  11.252   9.146
  676POPC   GL213634  18.714  11.481   9.278
  676POPC   C1A13635  19.253  11.371   8.749
  676POPC   D2A13636  19.352  11.590   8.334
  676POPC   C3A13637  19.366  11.328   7.993
  676POPC   C4A13638  19.103  10.991   7.846
  676POPC   C1B13639  18.835  11.650   8.878
  676POPC   C2B13640  18.779  11.455   8.480
  676POPC   C3B13641  18.862  11.485   8.054
  676POPC   C4B13642  18.987  11.435   7.648
  677POPC   NC313643   2.128  36.537   9.485
  677POPC   PO413644   1.737  37.167   9.505
  677POPC   GL113645   2.001  36.951   9.195
  677POPC   GL213646   2.384  36.948   9.223
  677POPC   C1A13647   1.956  36.773   8.808
  677POPC   D2A13648   1.929  36.984   8.437
  677POPC   C3A13649   1.940  36.792   8.068
  677POPC   C4A13650   1.775  36.858   7.684
  677POPC   C1B13651   2.452  36.667   8.838
  677POPC   C2B13652   2.269  36.562   8.410
  677POPC   C3B13653   2.430  36.627   7.987
  677POPC   C4B13654   2.275  36.963   7.712
  678POPC   NC313655   7.897  23.821   9.477
  678POPC   PO413656   7.316  23.852   9.643
  678POPC   GL113657   7.388  23.597   9.260
  678POPC   GL213658   7.718  23.499   9.126
  678POPC   C1A13659   7.246  23.541   8.825
  678POPC   D2A13660   7.337  23.575   8.376
  678POPC   C3A13661   7.057  23.670   8.012
  678POPC   C4A13662   7.022  23.425   7.636
  678POPC   C1B13663   7.715  23.856   8.859
  678POPC   C2B13664   7.670  23.982   8.426
  678POPC   C3B13665   7.563  23.849   7.993
  678POPC   C4B13666   7.760  23.904   7.583
  679POPC   NC313667  32.631   7.003   9.413
  679POPC   PO413668  31.891   7.026   9.439
  679POPC   GL113669  32.154   7.313   9.146
  679POPC   GL213670  32.329   7.644   9.189
  679POPC   C1A13671  32.145   7.505   8.739
  679POPC   D2A13672  32.256   7.404   8.341
  679POPC   C3A13673  31.898   7.355   8.101
  679POPC   C4A13674  31.960   7.417   7.689
  679POPC   C1B13675  32.540   7.872   8.809
  679POPC   C2B13676  32.721   7.978   8.414
  679POPC   C3B13677  32.526   7.748   8.048
  679POPC   C4B13678  32.451   7.467   7.668
  680POPC   NC313679  40.688   9.693   9.680
  680POPC   PO413680  40.634   9.094   9.724
  680POPC   GL113681  40.649   9.146   9.275
  680POPC   GL213682  40.810   9.463   9.224
  680POPC   C1A13683  40.668   9.140   8.806
  680POPC   D2A13684  40.900   9.145   8.413
  680POPC   C3A13685  40.695   9.264   8.019
  680POPC   C4A13686  40.638   9.248   7.539
  680POPC   C1B13687  41.056   9.530   8.837
  680POPC   C2B13688  41.272   9.527   8.435
  680POPC   C3B13689  41.245   9.295   8.025
  680POPC   C4B13690  41.518   9.139   7.645
  681POPC   NC313691  13.361  19.127   9.479
  681POPC   PO413692  13.931  18.811   9.534
  681POPC   GL113693  13.746  18.875   9.125
  681POPC   GL213694  13.380  18.820   9.064
  681POPC   C1A13695  13.710  18.993   8.677
  681POPC   D2A13696  13.740  19.241   8.306
  681POPC   C3A13697  14.026  19.093   7.972
  681POPC   C4A13698  14.167  18.857   7.625
  681POPC   C1B13699  13.284  19.211   8.809
  681POPC   C2B13700  13.332  19.526   8.473
  681POPC   C3B13701  13.328  19.426   8.056
  681POPC   C4B13702  13.506  19.027   7.891
  682POPC   NC313703  22.752  29.560   9.545
  682POPC   PO413704  22.926  30.101   9.935
  682POPC   GL113705  22.833  30.063   9.431
  682POPC   GL213706  23.086  29.846   9.251
  682POPC   C1A13707  22.664  29.833   8.978
  682POPC   D2A13708  22.896  29.793   8.579
  682POPC   C3A13709  22.827  29.998   8.173
  682POPC   C4A13710  23.032  30.015   7.781
  682POPC   C1B13711  22.997  30.200   8.927
  682POPC   C2B13712  23.091  30.309   8.525
  682POPC   C3B13713  23.283  30.263   8.154
  682POPC   C4B13714  23.165  30.495   7.801
  683POPC   NC313715  22.810  11.218   9.170
  683POPC   PO413716  23.239  11.670   9.205
  683POPC   GL113717  23.154  11.473   8.888
  683POPC   GL213718  23.332  11.183   9.005
  683POPC   C1A13719  22.897  11.367   8.545
  683POPC   D2A13720  23.001  11.463   8.152
  683POPC   C3A13721  22.775  11.277   7.846
  683POPC   C4A13722  22.827  11.206   7.424
  683POPC   C1B13723  23.321  11.121   8.571
  683POPC   C2B13724  23.234  11.008   8.164
  683POPC   C3B13725  23.326  11.254   7.793
  683POPC   C4B13726  23.343  11.063   7.386
  684POPC   NC313727  43.400  38.502   9.450
  684POPC   PO413728  42.791  38.219   9.481
  684POPC   GL113729  43.054  38.321   9.117
  684POPC   GL213730  43.083  38.669   9.070
  684POPC   C1A13731  43.321  38.410   8.724
  684POPC   D2A13732  43.177  38.687   8.395
  684POPC   C3A13733  43.047  38.419   8.034
  684POPC   C4A13734  43.331  38.251   7.694
  684POPC   C1B13735  42.991  39.000   8.816
  684POPC   C2B13736  42.840  39.105   8.418
  684POPC   C3B13737  42.941  38.944   7.988
  684POPC   C4B13738  43.014  38.705   7.602
  685POPC   NC313739   9.393   7.546   9.375
  685POPC   PO413740   9.967   7.702   9.214
  685POPC   GL113741   9.770   7.424   8.983
  685POPC   GL213742   9.679   7.108   9.180
  685POPC   C1A13743   9.877   7.410   8.575
  685POPC   D2A13744   9.544   7.502   8.334
  685POPC   C3A13745   9.437   7.310   7.957
  685POPC   C4A13746   9.600   7.367   7.565
  685POPC   C1B13747   9.792   6.936   8.764
  685POPC   C2B13748   9.658   6.995   8.324
  685POPC   C3B13749   9.817   6.980   7.879
  685POPC   C4B13750   9.994   6.972   7.460
  686POPC   NC313751  41.493  30.409   9.371
  686POPC   PO413752  41.721  30.961   9.560
  686POPC   GL113753  41.772  30.793   9.147
  686POPC   GL213754  41.802  30.461   8.976
  686POPC   C1A13755  41.459  30.810   8.830
  686POPC   D2A13756  41.490  30.968   8.450
  686POPC   C3A13757  41.236  30.926   8.088
  686POPC   C4A13758  41.494  31.048   7.764
  686POPC   C1B13759  41.443  30.318   8.712
  686POPC   C2B13760  41.336  30.477   8.329
  686POPC   C3B13761  41.563  30.552   8.003
  686POPC   C4B13762  41.467  30.568   7.599
  687POPC   NC313763   7.305  18.687   9.507
  687POPC   PO413764   7.597  19.109   9.294
  687POPC   GL113765   7.378  18.809   8.982
  687POPC   GL213766   7.244  18.452   9.055
  687POPC   C1A13767   7.348  18.588   8.569
  687POPC   D2A13768   7.410  18.258   8.253
  687POPC   C3A13769   7.604  18.392   7.860
  687POPC   C4A13770   7.708  18.338   7.404
  687POPC   C1B13771   6.985  18.263   8.713
  687POPC   C2B13772   6.930  18.443   8.276
  687POPC   C3B13773   7.081  18.351   7.832
  687POPC   C4B13774   7.032  18.286   7.357
  688POPC   NC313775   6.720  41.431   9.447
  688POPC   PO413776   7.268  41.112   9.530
  688POPC   GL113777   7.029  41.310   9.091
  688POPC   GL213778   6.873  41.688   9.046
  688POPC   C1A13779   6.635  41.318   8.762
  688POPC   D2A13780   6.573  41.559   8.358
  688POPC   C3A13781   6.650  41.325   7.966
  688POPC   C4A13782   6.423  41.289   7.540
  688POPC   C1B13783   7.064  41.546   8.633
  688POPC   C2B13784   7.061  41.612   8.179
  688POPC   C3B13785   7.041  41.915   7.836
  688POPC   C4B13786   7.204  41.886   7.422
  689POPC   NC313787   1.458  32.819   9.234
  689POPC   PO413788   1.913  33.014   9.686
  689POPC   GL113789   2.029  33.127   9.231
  689POPC   GL213790   1.712  33.299   9.239
  689POPC   C1A13791   2.275  33.064   8.788
  689POPC   D2A13792   2.113  32.950   8.339
  689POPC   C3A13793   2.170  32.926   7.884
  689POPC   C4A13794   1.988  32.679   7.504
  689POPC   C1B13795   1.865  33.366   8.806
  689POPC   C2B13796   1.808  33.362   8.362
  689POPC   C3B13797   1.880  33.336   7.928
  689POPC   C4B13798   1.857  33.547   7.531
  690POPC   NC313799  32.427  21.432   9.723
  690POPC   PO413800  31.776  21.434   9.767
  690POPC   GL113801  32.044  21.656   9.410
  690POPC   GL213802  32.285  21.421   9.232
  690POPC   C1A13803  31.992  21.649   8.903
  690POPC   D2A13804  32.219  21.724   8.489
  690POPC   C3A13805  32.089  21.517   8.081
  690POPC   C4A13806  32.150  21.350   7.665
  690POPC   C1B13807  32.426  21.384   8.793
  690POPC   C2B13808  32.436  21.263   8.373
  690POPC   C3B13809  32.556  21.313   7.954
  690POPC   C4B13810  32.776  21.127   7.616
  691POPC   NC313811   0.721  34.613   9.530
  691POPC   PO413812   0.586  33.978   9.404
  691POPC   GL113813   0.347  34.334   9.204
  691POPC   GL213814   0.266  34.715   9.214
  691POPC   C1A13815   0.458  34.460   8.807
  691POPC   D2A13816   0.658  34.563   8.437
  691POPC   C3A13817   0.644  34.253   8.121
  691POPC   C4A13818   0.509  34.342   7.714
  691POPC   C1B13819   0.404  34.964   8.819
  691POPC   C2B13820   0.515  35.061   8.362
  691POPC   C3B13821   0.434  34.741   8.017
  691POPC   C4B13822   0.283  34.763   7.561
  692POPC   NC313823  27.166  19.769   9.443
  692POPC   PO413824  26.732  20.099   9.838
  692POPC   GL113825  26.739  20.011   9.316
  692POPC   GL213826  26.764  19.652   9.150
  692POPC   C1A13827  26.905  20.029   8.846
  692POPC   D2A13828  26.708  19.820   8.507
  692POPC   C3A13829  26.795  20.038   8.138
  692POPC   C4A13830  26.863  20.021   7.715
  692POPC   C1B13831  26.995  19.482   8.762
  692POPC   C2B13832  26.894  19.352   8.328
  692POPC   C3B13833  26.619  19.578   8.019
  692POPC   C4B13834  26.673  19.555   7.547
  693POPC   NC313835  27.786  23.079   9.416
  693POPC   PO413836  27.115  22.781   9.473
  693POPC   GL113837  27.447  22.714   9.142
  693POPC   GL213838  27.804  22.596   9.242
  693POPC   C1A13839  27.518  22.869   8.694
  693POPC   D2A13840  27.707  23.112   8.309
  693POPC   C3A13841  27.474  23.080   7.893
  693POPC   C4A13842  27.309  23.024   7.469
  693POPC   C1B13843  27.993  22.734   8.842
  693POPC   C2B13844  27.890  22.636   8.407
  693POPC   C3B13845  27.889  22.737   7.974
  693POPC   C4B13846  27.690  22.677   7.562
  694POPC   NC313847  16.014   6.109   9.602
  694POPC   PO413848  15.697   5.563   9.592
  694POPC   GL113849  15.788   5.815   9.239
  694POPC   GL213850  16.126   5.771   9.187
  694POPC   C1A13851  15.846   5.805   8.794
  694POPC   D2A13852  15.789   6.039   8.456
  694POPC   C3A13853  15.911   5.812   8.104
  694POPC   C4A13854  15.697   5.698   7.748
  694POPC   C1B13855  16.290   5.533   8.868
  694POPC   C2B13856  16.283   5.670   8.455
  694POPC   C3B13857  16.367   5.528   8.044
  694POPC   C4B13858  16.213   5.755   7.689
  695POPC   NC313859  16.837  24.000   9.511
  695POPC   PO413860  16.508  23.357   9.644
  695POPC   GL113861  16.568  23.609   9.216
  695POPC   GL213862  16.799  23.853   9.044
  695POPC   C1A13863  16.429  23.695   8.773
  695POPC   D2A13864  16.682  23.807   8.417
  695POPC   C3A13865  16.505  23.686   8.020
  695POPC   C4A13866  16.523  23.922   7.629
  695POPC   C1B13867  17.022  24.101   8.750
  695POPC   C2B13868  17.133  24.042   8.309
  695POPC   C3B13869  16.975  23.853   7.932
  695POPC   C4B13870  17.028  24.037   7.522
  696POPC   NC313871   7.080   9.133   9.580
  696POPC   PO413872   6.478   8.866   9.560
  696POPC   GL113873   6.436   9.059   9.160
  696POPC   GL213874   6.810   9.018   9.153
  696POPC   C1A13875   6.576   9.265   8.774
  696POPC   D2A13876   6.769   9.227   8.387
  696POPC   C3A13877   6.597   9.360   8.006
  696POPC   C4A13878   6.378   9.029   7.773
  696POPC   C1B13879   7.063   9.148   8.818
  696POPC   C2B13880   7.289   9.249   8.455
  696POPC   C3B13881   7.179   9.300   8.025
  696POPC   C4B13882   6.917   9.098   7.714
  697POPC   NC313883  26.465   9.489   9.234
  697POPC   PO413884  26.990   9.383   9.595
  697POPC   GL113885  27.023   9.560   9.102
  697POPC   GL213886  27.044   9.920   8.985
  697POPC   C1A13887  26.898   9.586   8.636
  697POPC   D2A13888  26.920   9.565   8.171
  697POPC   C3A13889  26.567   9.652   7.957
  697POPC   C4A13890  26.493   9.844   7.566
  697POPC   C1B13891  26.896  10.114   8.625
  697POPC   C2B13892  26.807  10.073   8.182
  697POPC   C3B13893  26.969   9.927   7.790
  697POPC   C4B13894  26.943   9.987   7.363
  698POPC   NC313895  25.042  23.194   9.479
  698POPC   PO413896  24.953  22.562   9.486
  698POPC   GL113897  25.169  22.757   9.122
  698POPC   GL213898  25.223  23.106   9.030
  698POPC   C1A13899  25.334  22.720   8.700
  698POPC   D2A13900  25.597  22.641   8.350
  698POPC   C3A13901  25.408  22.692   7.958
  698POPC   C4A13902  25.069  22.708   7.671
  698POPC   C1B13903  25.062  23.175   8.650
  698POPC   C2B13904  25.072  22.967   8.257
  698POPC   C3B13905  24.870  23.121   7.882
  698POPC   C4B13906  24.986  23.228   7.454
  699POPC   NC313907  23.178  14.108   9.526
  699POPC   PO413908  22.659  14.503   9.607
  699POPC   GL113909  22.841  14.568   9.166
  699POPC   GL213910  23.113  14.348   9.061
  699POPC   C1A13911  22.809  14.580   8.684
  699POPC   D2A13912  22.751  14.316   8.282
  699POPC   C3A13913  22.803  14.371   7.796
  699POPC   C4A13914  22.686  14.555   7.362
  699POPC   C1B13915  23.024  14.116   8.685
  699POPC   C2B13916  23.148  13.980   8.264
  699POPC   C3B13917  22.954  13.861   7.855
  699POPC   C4B13918  22.978  13.798   7.385
  700POPC   NC313919  36.474   1.648   9.537
  700POPC   PO413920  35.945   2.136   9.389
  700POPC   GL113921  36.197   1.884   9.117
  700POPC   GL213922  36.005   1.593   9.208
  700POPC   C1A13923  36.143   1.893   8.650
  700POPC   D2A13924  35.830   1.767   8.319
  700POPC   C3A13925  35.933   1.852   7.892
  700POPC   C4A13926  36.241   2.168   7.742
  700POPC   C1B13927  36.141   1.411   8.838
  700POPC   C2B13928  36.363   1.457   8.467
  700POPC   C3B13929  36.342   1.733   8.141
  700POPC   C4B13930  36.419   1.678   7.707
  701POPC   NC313931  18.312  33.166   9.505
  701POPC   PO413932  18.665  32.717   9.193
  701POPC   GL113933  18.453  33.085   9.027
  701POPC   GL213934  18.066  33.075   9.064
  701POPC   C1A13935  18.524  33.184   8.629
  701POPC   D2A13936  18.494  32.883   8.324
  701POPC   C3A13937  18.386  33.097   7.955
  701POPC   C4A13938  18.398  33.015   7.501
  701POPC   C1B13939  18.052  33.006   8.622
  701POPC   C2B13940  17.917  33.210   8.236
  701POPC   C3B13941  17.881  33.052   7.787
  701POPC   C4B13942  17.926  33.111   7.334
  702POPC   NC313943  17.051   1.984   9.504
  702POPC   PO413944  16.445   1.827   9.442
  702POPC   GL113945  16.698   2.000   9.110
  702POPC   GL213946  16.844   2.349   9.158
  702POPC   C1A13947  16.839   1.784   8.741
  702POPC   D2A13948  16.949   1.585   8.333
  702POPC   C3A13949  16.898   1.873   8.011
  702POPC   C4A13950  16.694   1.876   7.644
  702POPC   C1B13951  16.588   2.380   8.747
  702POPC   C2B13952  16.702   2.266   8.309
  702POPC   C3B13953  16.560   2.300   7.874
  702POPC   C4B13954  16.751   2.288   7.382
  703POPC   NC313955  38.717  38.843   9.506
  703POPC   PO413956  38.271  38.444   9.738
  703POPC   GL113957  38.333  38.541   9.271
  703POPC   GL213958  38.619  38.639   9.056
  703POPC   C1A13959  38.240  38.444   8.807
  703POPC   D2A13960  38.380  38.528   8.415
  703POPC   C3A13961  38.145  38.619   8.057
  703POPC   C4A13962  38.273  38.469   7.657
  703POPC   C1B13963  38.742  38.290   8.784
  703POPC   C2B13964  38.801  38.243   8.353
  703POPC   C3B13965  38.714  38.438   7.972
  703POPC   C4B13966  38.691  38.166   7.648
  704POPC   NC313967  22.997  11.592   9.586
  704POPC   PO413968  22.946  12.318   9.501
  704POPC   GL113969  22.987  12.090   9.097
  704POPC   GL213970  22.763  11.766   9.124
  704POPC   C1A13971  22.843  12.083   8.661
  704POPC   D2A13972  23.062  12.326   8.344
  704POPC   C3A13973  23.041  12.138   8.015
  704POPC   C4A13974  22.902  12.170   7.635
  704POPC   C1B13975  22.556  11.673   8.772
  704POPC   C2B13976  22.586  11.719   8.354
  704POPC   C3B13977  22.667  11.798   7.950
  704POPC   C4B13978  22.997  11.687   7.669
  705POPC   NC313979  15.321   5.275   9.562
  705POPC   PO413980  14.853   4.857   9.713
  705POPC   GL113981  14.998   4.977   9.228
  705POPC   GL213982  15.244   5.229   9.073
  705POPC   C1A13983  15.088   4.883   8.752
  705POPC   D2A13984  15.284   5.132   8.443
  705POPC   C3A13985  15.229   4.912   8.089
  705POPC   C4A13986  14.918   4.985   7.806
  705POPC   C1B13987  15.397   5.537   8.797
  705POPC   C2B13988  15.673   5.491   8.455
  705POPC   C3B13989  15.661   5.315   8.093
  705POPC   C4B13990  15.354   5.312   7.800
  706POPC   NC313991  42.382  35.347   9.541
  706POPC   PO413992  41.930  34.877   9.425
  706POPC   GL113993  42.162  35.150   9.111
  706POPC   GL213994  42.240  35.527   9.082
  706POPC   C1A13995  42.411  35.229   8.724
  706POPC   D2A13996  42.229  35.165   8.349
  706POPC   C3A13997  42.422  35.341   8.011
  706POPC   C4A13998  42.302  35.219   7.664
  706POPC   C1B13999  42.215  35.724   8.670
  706POPC   C2B14000  41.983  35.615   8.266
  706POPC   C3B14001  42.018  35.615   7.790
  706POPC   C4B14002  42.140  35.562   7.327
  707POPC   NC314003  11.070   4.602   9.488
  707POPC   PO414004  11.529   4.042   9.533
  707POPC   GL114005  11.349   4.267   9.216
  707POPC   GL214006  11.594   4.516   9.297
  707POPC   C1A14007  11.149   4.294   8.807
  707POPC   D2A14008  11.052   4.376   8.366
  707POPC   C3A14009  11.120   4.123   7.997
  707POPC   C4A14010  11.068   4.347   7.590
  707POPC   C1B14011  11.653   4.398   8.825
  707POPC   C2B14012  11.515   4.117   8.463
  707POPC   C3B14013  11.632   4.220   8.031
  707POPC   C4B14014  11.829   4.615   7.872
  708POPC   NC314015  12.273  43.266   9.482
  708POPC   PO414016  11.814  42.760   9.575
  708POPC   GL114017  12.022  42.891   9.190
  708POPC   GL214018  11.935  43.229   9.090
  708POPC   C1A14019  11.974  42.811   8.747
  708POPC   D2A14020  11.807  42.776   8.319
  708POPC   C3A14021  12.126  42.934   7.995
  708POPC   C4A14022  12.073  43.278   7.697
  708POPC   C1B14023  12.283  43.241   8.791
  708POPC   C2B14024  12.232  43.331   8.360
  708POPC   C3B14025  12.473  43.415   7.995
  708POPC   C4B14026  12.585  43.201   7.617
  709POPC   NC314027  20.391  18.812   9.556
  709POPC   PO414028  21.036  18.907   9.511
  709POPC   GL114029  20.720  19.123   9.219
  709POPC   GL214030  20.361  19.131   9.134
  709POPC   C1A14031  20.692  19.125   8.762
  709POPC   D2A14032  20.814  18.834   8.456
  709POPC   C3A14033  20.620  18.956   8.078
  709POPC   C4A14034  20.558  18.987   7.652
  709POPC   C1B14035  20.200  19.306   8.730
  709POPC   C2B14036  20.362  19.371   8.322
  709POPC   C3B14037  20.525  19.434   7.898
  709POPC   C4B14038  20.190  19.334   7.596
  710POPC   NC314039  43.095   0.948   9.665
  710POPC   PO414040  43.307   1.560   9.563
  710POPC   GL114041  43.245   1.354   9.191
  710POPC   GL214042  43.599   1.439   9.100
  710POPC   C1A14043  42.924   1.252   8.853
  710POPC   D2A14044  42.755   1.128   8.417
  710POPC   C3A14045  42.901   1.355   8.046
  710POPC   C4A14046  43.080   1.313   7.628
  710POPC   C1B14047  43.410   1.495   8.719
  710POPC   C2B14048  43.279   1.568   8.311
  710POPC   C3B14049  43.460   1.560   7.897
  710POPC   C4B14050  43.389   1.671   7.443
  711POPC   NC314051  24.944   7.232   9.506
  711POPC   PO414052  25.353   7.731   9.658
  711POPC   GL114053  25.320   7.650   9.178
  711POPC   GL214054  24.985   7.530   9.083
  711POPC   C1A14055  25.227   7.739   8.700
  711POPC   D2A14056  25.471   7.854   8.351
  711POPC   C3A14057  25.325   7.647   7.985
  711POPC   C4A14058  25.456   7.234   7.828
  711POPC   C1B14059  24.995   7.285   8.689
  711POPC   C2B14060  25.056   7.220   8.213
  711POPC   C3B14061  24.857   7.472   7.836
  711POPC   C4B14062  24.904   7.420   7.379
  712POPC   NC314063  19.997  15.721   9.499
  712POPC   PO414064  19.363  15.503   9.373
  712POPC   GL114065  19.622  15.759   9.034
  712POPC   GL214066  20.007  15.833   9.012
  712POPC   C1A14067  19.691  16.065   8.658
  712POPC   D2A14068  19.732  16.166   8.199
  712POPC   C3A14069  19.506  15.825   7.986
  712POPC   C4A14070  19.782  15.480   7.949
  712POPC   C1B14071  20.271  16.140   8.760
  712POPC   C2B14072  20.478  16.116   8.343
  712POPC   C3B14073  20.240  16.269   8.006
  712POPC   C4B14074  19.988  15.956   7.785
  713POPC   NC314075  38.589  44.390   9.499
  713POPC   PO414076  38.718   0.011   9.523
  713POPC   GL114077  38.491  44.739   9.131
  713POPC   GL214078  38.411  44.369   9.031
  713POPC   C1A14079  38.603  44.708   8.679
  713POPC   D2A14080  38.842  44.629   8.314
  713POPC   C3A14081  38.678  44.810   7.965
  713POPC   C4A14082  38.435   0.135   7.863
  713POPC   C1B14083  38.172  44.459   8.684
  713POPC   C2B14084  38.318  44.534   8.271
  713POPC   C3B14085  38.288  44.507   7.841
  713POPC   C4B14086  38.151  44.316   7.491
  714POPC   NC314087  21.829  42.584   9.775
  714POPC   PO414088  22.319  42.903   9.361
  714POPC   GL114089  22.183  42.974   8.942
  714POPC   GL214090  21.833  43.052   8.982
  714POPC   C1A14091  22.075  43.173   8.542
  714POPC   D2A14092  22.324  43.171   8.168
  714POPC   C3A14093  22.127  43.148   7.774
  714POPC   C4A14094  22.333  43.117   7.359
  714POPC   C1B14095  21.855  42.723   8.645
  714POPC   C2B14096  22.014  42.757   8.227
  714POPC   C3B14097  21.825  42.678   7.859
  714POPC   C4B14098  21.901  42.826   7.459
  715POPC   NC314099  16.781  10.213   9.551
  715POPC   PO414100  16.540  10.792   9.771
  715POPC   GL114101  16.638  10.677   9.325
  715POPC   GL214102  16.979  10.546   9.207
  715POPC   C1A14103  16.668  10.758   8.859
  715POPC   D2A14104  16.962  10.740   8.496
  715POPC   C3A14105  16.743  10.720   8.078
  715POPC   C4A14106  16.442  10.402   7.891
  715POPC   C1B14107  16.996  10.293   8.781
  715POPC   C2B14108  16.985  10.255   8.288
  715POPC   C3B14109  16.960  10.319   7.816
  715POPC   C4B14110  17.090  10.421   7.369
  716POPC   NC314111   5.887  32.016   9.432
  716POPC   PO414112   5.986  32.661   9.335
  716POPC   GL114113   5.846  32.388   9.041
  716POPC   GL214114   5.547  32.343   9.185
  716POPC   C1A14115   5.760  32.042   8.759
  716POPC   D2A14116   5.548  31.959   8.389
  716POPC   C3A14117   5.806  32.052   8.031
  716POPC   C4A14118   6.061  32.447   8.038
  716POPC   C1B14119   5.428  32.449   8.743
  716POPC   C2B14120   5.497  32.467   8.290
  716POPC   C3B14121   5.574  32.455   7.844
  716POPC   C4B14122   5.639  32.540   7.394
  717POPC   NC314123  24.298  24.151   9.572
  717POPC   PO414124  24.641  24.684   9.502
  717POPC   GL114125  24.452  24.537   9.177
  717POPC   GL214126  24.202  24.778   9.163
  717POPC   C1A14127  24.624  24.311   8.813
  717POPC   D2A14128  24.498  24.290   8.411
  717POPC   C3A14129  24.736  24.360   8.045
  717POPC   C4A14130  24.618  24.522   7.653
  717POPC   C1B14131  24.162  24.517   8.757
  717POPC   C2B14132  24.097  24.591   8.330
  717POPC   C3B14133  24.197  24.536   7.920
  717POPC   C4B14134  24.151  24.624   7.422
  718POPC   NC314135  27.878  21.579   9.544
  718POPC   PO414136  27.237  21.202   9.435
  718POPC   GL114137  27.627  21.303   9.190
  718POPC   GL214138  27.558  21.660   9.151
  718POPC   C1A14139  27.800  21.328   8.764
  718POPC   D2A14140  27.639  21.149   8.394
  718POPC   C3A14141  27.721  21.275   7.973
  718POPC   C4A14142  27.612  21.006   7.671
  718POPC   C1B14143  27.590  21.809   8.718
  718POPC   C2B14144  27.749  21.673   8.293
  718POPC   C3B14145  27.844  21.771   7.836
  718POPC   C4B14146  27.649  21.496   7.497
  719POPC   NC314147   0.792  14.435   9.466
  719POPC   PO414148   0.133  14.270   9.587
  719POPC   GL114149   0.287  14.332   9.161
  719POPC   GL214150   0.528  14.140   9.154
  719POPC   C1A14151   0.384  14.563   8.753
  719POPC   D2A14152   0.152  14.695   8.373
  719POPC   C3A14153   0.422  14.591   8.034
  719POPC   C4A14154   0.519  14.638   7.601
  719POPC   C1B14155   0.363  14.026   8.770
  719POPC   C2B14156   0.577  13.946   8.418
  719POPC   C3B14157   0.504  14.056   8.019
  719POPC   C4B14158   0.499  14.137   7.606
  720POPC   NC314159  14.483  27.266   9.348
  720POPC   PO414160  14.054  26.763   9.415
  720POPC   GL114161  14.402  26.578   9.212
  720POPC   GL214162  14.706  26.425   9.353
  720POPC   C1A14163  14.483  26.753   8.825
  720POPC   D2A14164  14.445  26.977   8.425
  720POPC   C3A14165  14.349  26.735   8.065
  720POPC   C4A14166  14.389  26.917   7.666
  720POPC   C1B14167  14.775  26.331   8.896
  720POPC   C2B14168  14.714  26.504   8.458
  720POPC   C3B14169  14.781  26.459   8.025
  720POPC   C4B14170  14.761  26.574   7.618
  721POPC   NC314171  22.176  10.057   9.468
  721POPC   PO414172  22.113   9.408   9.361
  721POPC   GL114173  21.966   9.753   9.133
  721POPC   GL214174  21.701  10.015   9.205
  721POPC   C1A14175  22.182   9.829   8.779
  721POPC   D2A14176  22.106   9.655   8.369
  721POPC   C3A14177  22.414   9.569   8.047
  721POPC   C4A14178  22.377   9.460   7.586
  721POPC   C1B14179  21.815  10.195   8.802
  721POPC   C2B14180  22.081  10.175   8.423
  721POPC   C3B14181  21.992  10.136   8.032
  721POPC   C4B14182  22.132   9.870   7.727
  722POPC   NC314183  18.108  43.429   9.395
  722POPC   PO414184  18.566  43.934   9.374
  722POPC   GL114185  18.331  44.006   9.055
  722POPC   GL214186  18.123  43.801   9.076
  722POPC   C1A14187  18.433  43.869   8.653
  722POPC   D2A14188  18.243  43.735   8.303
  722POPC   C3A14189  18.436  43.749   7.893
  722POPC   C4A14190  18.530  44.148   7.733
  722POPC   C1B14191  17.919  43.734   8.738
  722POPC   C2B14192  17.784  43.934   8.355
  722POPC   C3B14193  17.924  43.871   7.908
  722POPC   C4B14194  18.025  43.595   7.544
  723POPC   NC314195   5.473  40.070   9.256
  723POPC   PO414196   4.924  39.863   9.738
  723POPC   GL114197   4.961  39.932   9.266
  723POPC   GL214198   5.183  39.702   9.103
  723POPC   C1A14199   5.000  40.102   8.840
  723POPC   D2A14200   5.389  40.091   8.600
  723POPC   C3A14201   5.317  40.178   8.186
  723POPC   C4A14202   5.003  40.341   7.873
  723POPC   C1B14203   5.126  39.629   8.682
  723POPC   C2B14204   5.108  39.728   8.256
  723POPC   C3B14205   5.207  39.848   7.807
  723POPC   C4B14206   5.254  39.669   7.350
  724POPC   NC314207   0.883  10.718   9.575
  724POPC   PO414208   0.183  10.581   9.635
  724POPC   GL114209   0.212  10.640   9.198
  724POPC   GL214210   0.527  10.808   9.200
  724POPC   C1A14211   0.405  10.425   8.824
  724POPC   D2A14212   0.488  10.451   8.373
  724POPC   C3A14213   0.174  10.549   8.053
  724POPC   C4A14214   0.093  10.434   7.649
  724POPC   C1B14215   0.744  10.804   8.818
  724POPC   C2B14216   0.695  10.925   8.429
  724POPC   C3B14217   0.764  10.801   8.045
  724POPC   C4B14218   0.568  10.613   7.694
  725POPC   NC314219  37.456  39.600   9.575
  725POPC   PO414220  36.962  39.163   9.570
  725POPC   GL114221  36.875  39.239   9.146
  725POPC   GL214222  36.604  39.053   9.035
  725POPC   C1A14223  37.011  39.075   8.727
  725POPC   D2A14224  36.950  39.023   8.289
  725POPC   C3A14225  37.240  39.180   7.982
  725POPC   C4A14226  37.159  39.324   7.563
  725POPC   C1B14227  36.601  39.400   8.740
  725POPC   C2B14228  36.780  39.527   8.340
  725POPC   C3B14229  36.768  39.366   7.906
  725POPC   C4B14230  36.502  39.469   7.555
  726POPC   NC314231  12.685   6.135   9.358
  726POPC   PO414232  13.189   6.255   9.732
  726POPC   GL114233  13.099   5.892   9.278
  726POPC   GL214234  12.792   5.632   9.267
  726POPC   C1A14235  13.040   5.754   8.840
  726POPC   D2A14236  13.123   5.922   8.437
  726POPC   C3A14237  12.876   5.895   8.064
  726POPC   C4A14238  12.994   6.038   7.657
  726POPC   C1B14239  12.557   5.548   8.853
  726POPC   C2B14240  12.408   5.744   8.428
  726POPC   C3B14241  12.449   5.603   7.977
  726POPC   C4B14242  12.396   5.749   7.547
  727POPC   NC314243  32.651   9.589   9.580
  727POPC   PO414244  31.972   9.801   9.536
  727POPC   GL114245  32.151   9.739   9.123
  727POPC   GL214246  32.416   9.531   9.133
  727POPC   C1A14247  32.257   9.825   8.668
  727POPC   D2A14248  32.243   9.728   8.186
  727POPC   C3A14249  31.982   9.974   7.887
  727POPC   C4A14250  31.783  10.047   7.470
  727POPC   C1B14251  32.266   9.330   8.739
  727POPC   C2B14252  32.241   9.197   8.318
  727POPC   C3B14253  32.454   9.311   7.936
  727POPC   C4B14254  32.329   9.671   7.638
  728POPC   NC314255  36.299  16.701   9.763
  728POPC   PO414256  35.603  16.800   9.661
  728POPC   GL114257  35.897  16.585   9.339
  728POPC   GL214258  36.106  16.854   9.230
  728POPC   C1A14259  35.927  16.416   8.873
  728POPC   D2A14260  36.082  16.542   8.455
  728POPC   C3A14261  35.861  16.563   8.097
  728POPC   C4A14262  35.979  16.589   7.709
  728POPC   C1B14263  36.328  16.750   8.830
  728POPC   C2B14264  36.449  16.893   8.391
  728POPC   C3B14265  36.308  16.903   7.954
  728POPC   C4B14266  36.205  17.001   7.510
  729POPC   NC314267  21.650  17.780   9.466
  729POPC   PO414268  21.297  17.148   9.521
  729POPC   GL114269  21.414  17.404   9.192
  729POPC   GL214270  21.179  17.693   9.216
  729POPC   C1A14271  21.583  17.500   8.789
  729POPC   D2A14272  21.354  17.650   8.427
  729POPC   C3A14273  21.487  17.683   8.039
  729POPC   C4A14274  21.508  17.471   7.684
  729POPC   C1B14275  21.039  17.502   8.828
  729POPC   C2B14276  20.892  17.416   8.410
  729POPC   C3B14277  21.057  17.375   7.980
  729POPC   C4B14278  21.044  17.297   7.511
  730POPC   NC314279  42.543   5.536   9.450
  730POPC   PO414280  42.694   6.212   9.515
  730POPC   GL114281  42.665   5.935   9.136
  730POPC   GL214282  42.306   5.813   9.075
  730POPC   C1A14283  42.630   5.887   8.662
  730POPC   D2A14284  42.547   5.720   8.223
  730POPC   C3A14285  42.548   6.029   7.871
  730POPC   C4A14286  42.394   6.287   7.512
  730POPC   C1B14287  42.188   5.619   8.654
  730POPC   C2B14288  42.029   5.658   8.204
  730POPC   C3B14289  42.252   5.616   7.801
  730POPC   C4B14290  42.401   5.371   7.475
  731POPC   NC314291  14.002   8.428   9.491
  731POPC   PO414292  13.460   7.962   9.602
  731POPC   GL114293  13.623   8.194   9.256
  731POPC   GL214294  13.516   8.520   9.184
  731POPC   C1A14295  13.818   8.099   8.873
  731POPC   D2A14296  13.569   7.865   8.556
  731POPC   C3A14297  13.539   7.821   8.109
  731POPC   C4A14298  13.571   8.051   7.707
  731POPC   C1B14299  13.455   8.401   8.744
  731POPC   C2B14300  13.578   8.302   8.307
  731POPC   C3B14301  13.494   8.503   7.923
  731POPC   C4B14302  13.418   8.547   7.472
  732POPC   NC314303  24.348  18.423   9.572
  732POPC   PO414304  24.991  18.634   9.493
  732POPC   GL114305  24.674  18.396   9.171
  732POPC   GL214306  24.285  18.411   9.091
  732POPC   C1A14307  24.579  18.287   8.707
  732POPC   D2A14308  24.541  18.128   8.285
  732POPC   C3A14309  24.608  18.095   7.822
  732POPC   C4A14310  24.755  18.291   7.427
  732POPC   C1B14311  24.073  18.433   8.739
  732POPC   C2B14312  24.225  18.510   8.382
  732POPC   C3B14313  24.210  18.415   7.992
  732POPC   C4B14314  24.260  18.389   7.585
  733POPC   NC314315  36.969  24.140   9.536
  733POPC   PO414316  36.891  24.803   9.451
  733POPC   GL114317  37.131  24.737   9.090
  733POPC   GL214318  37.044  24.420   9.125
  733POPC   C1A14319  36.972  24.691   8.683
  733POPC   D2A14320  36.630  24.638   8.450
  733POPC   C3A14321  36.760  24.608   8.037
  733POPC   C4A14322  36.711  24.226   7.786
  733POPC   C1B14323  37.140  24.209   8.791
  733POPC   C2B14324  36.940  24.236   8.374
  733POPC   C3B14325  37.170  24.309   7.987
  733POPC   C4B14326  37.119  24.394   7.523
  734POPC   NC314327  18.771   7.058   9.219
  734POPC   PO414328  18.233   7.419   9.458
  734POPC   GL114329  18.415   7.387   9.060
  734POPC   GL214330  18.659   7.619   9.021
  734POPC   C1A14331  18.411   7.179   8.666
  734POPC   D2A14332  18.219   7.244   8.313
  734POPC   C3A14333  18.376   7.272   7.935
  734POPC   C4A14334  18.195   7.634   7.815
  734POPC   C1B14335  18.536   7.671   8.585
  734POPC   C2B14336  18.567   7.701   8.137
  734POPC   C3B14337  18.691   7.763   7.712
  734POPC   C4B14338  18.703   7.952   7.295
  735POPC   NC314339  33.459  31.481   9.675
  735POPC   PO414340  34.075  31.239   9.603
  735POPC   GL114341  33.957  31.417   9.186
  735POPC   GL214342  34.176  31.691   9.048
  735POPC   C1A14343  33.671  31.329   8.824
  735POPC   D2A14344  33.700  31.111   8.425
  735POPC   C3A14345  33.662  31.369   8.089
  735POPC   C4A14346  33.877  31.326   7.700
  735POPC   C1B14347  33.977  31.724   8.629
  735POPC   C2B14348  34.044  31.763   8.185
  735POPC   C3B14349  34.198  31.725   7.766
  735POPC   C4B14350  33.948  31.707   7.362
  736POPC   NC314351   4.498   7.170   9.563
  736POPC   PO414352   4.730   7.921   9.406
  736POPC   GL114353   4.542   7.715   9.042
  736POPC   GL214354   4.362   7.375   9.042
  736POPC   C1A14355   4.296   7.857   8.681
  736POPC   D2A14356   4.092   7.810   8.263
  736POPC   C3A14357   4.295   7.555   7.947
  736POPC   C4A14358   4.520   7.146   7.821
  736POPC   C1B14359   4.035   7.061   8.842
  736POPC   C2B14360   3.890   6.893   8.427
  736POPC   C3B14361   4.013   7.088   8.021
  736POPC   C4B14362   4.027   7.278   7.616
  737POPC   NC314363  21.109  13.168   9.426
  737POPC   PO414364  21.807  13.230   9.542
  737POPC   GL114365  21.513  12.902   9.281
  737POPC   GL214366  21.549  12.555   9.238
  737POPC   C1A14367  21.296  12.815   8.880
  737POPC   D2A14368  21.487  12.741   8.483
  737POPC   C3A14369  21.337  12.911   8.136
  737POPC   C4A14370  21.091  12.690   7.827
  737POPC   C1B14371  21.744  12.473   8.849
  737POPC   C2B14372  21.716  12.291   8.438
  737POPC   C3B14373  21.530  12.441   8.036
  737POPC   C4B14374  21.571  12.605   7.588
  738POPC   NC314375  42.068  28.129   9.554
  738POPC   PO414376  42.159  28.719   9.431
  738POPC   GL114377  42.275  28.424   9.131
  738POPC   GL214378  42.062  28.114   9.062
  738POPC   C1A14379  42.566  28.549   8.808
  738POPC   D2A14380  42.645  28.356   8.422
  738POPC   C3A14381  42.621  28.539   8.018
  738POPC   C4A14382  42.469  28.211   7.767
  738POPC   C1B14383  42.217  28.195   8.669
  738POPC   C2B14384  42.161  28.599   8.450
  738POPC   C3B14385  41.951  28.657   8.050
  738POPC   C4B14386  42.204  28.631   7.709
  739POPC   NC314387   4.895  31.979   9.550
  739POPC   PO414388   5.306  32.550   9.601
  739POPC   GL114389   5.033  32.454   9.276
  739POPC   GL214390   5.089  32.157   9.102
  739POPC   C1A14391   4.939  32.566   8.840
  739POPC   D2A14392   4.997  32.343   8.435
  739POPC   C3A14393   5.036  32.557   8.030
  739POPC   C4A14394   5.129  32.520   7.595
  739POPC   C1B14395   5.114  31.913   8.727
  739POPC   C2B14396   5.068  31.855   8.302
  739POPC   C3B14397   5.234  32.073   7.983
  739POPC   C4B14398   4.903  32.113   7.736
  740POPC   NC314399  32.882  31.630   9.785
  740POPC   PO414400  33.202  31.226   9.390
  740POPC   GL114401  32.865  31.303   9.192
  740POPC   GL214402  32.880  31.679   9.263
  740POPC   C1A14403  32.957  31.185   8.771
  740POPC   D2A14404  33.226  31.289   8.417
  740POPC   C3A14405  33.205  31.159   7.971
  740POPC   C4A14406  33.382  31.409   7.639
  740POPC   C1B14407  33.095  31.663   8.844
  740POPC   C2B14408  33.088  31.785   8.400
  740POPC   C3B14409  33.064  31.668   7.955
  740POPC   C4B14410  32.748  31.860   7.632
  741POPC   NC314411  24.277  38.158   9.546
  741POPC   PO414412  24.640  38.832   9.532
  741POPC   GL114413  24.544  38.748   9.085
  741POPC   GL214414  24.542  38.365   9.069
  741POPC   C1A14415  24.286  38.739   8.753
  741POPC   D2A14416  24.243  38.515   8.424
  741POPC   C3A14417  24.355  38.709   8.049
  741POPC   C4A14418  24.410  38.433   7.726
  741POPC   C1B14419  24.701  38.399   8.640
  741POPC   C2B14420  24.656  38.301   8.190
  741POPC   C3B14421  24.852  38.172   7.813
  741POPC   C4B14422  24.778  38.001   7.385
  742POPC   NC314423  29.784  18.011   9.415
  742POPC   PO414424  29.762  18.643   9.669
  742POPC   GL114425  29.895  18.496   9.204
  742POPC   GL214426  30.200  18.283   9.200
  742POPC   C1A14427  29.692  18.361   8.754
  742POPC   D2A14428  29.579  18.071   8.359
  742POPC   C3A14429  29.475  18.236   7.980
  742POPC   C4A14430  29.673  18.623   7.945
  742POPC   C1B14431  30.200  18.413   8.757
  742POPC   C2B14432  29.960  18.453   8.328
  742POPC   C3B14433  29.983  18.207   7.932
  742POPC   C4B14434  30.381  17.975   7.890
  743POPC   NC314435  18.330  26.129   9.501
  743POPC   PO414436  17.781  25.688   9.525
  743POPC   GL114437  18.060  25.868   9.141
  743POPC   GL214438  18.463  25.927   9.059
  743POPC   C1A14439  18.122  26.170   8.766
  743POPC   D2A14440  18.295  26.020   8.355
  743POPC   C3A14441  18.096  26.195   7.956
  743POPC   C4A14442  18.045  25.991   7.567
  743POPC   C1B14443  18.582  26.350   8.878
  743POPC   C2B14444  18.636  26.527   8.455
  743POPC   C3B14445  18.590  26.321   8.032
  743POPC   C4B14446  18.475  26.257   7.585
  744POPC   NC314447  15.858  15.656   9.736
  744POPC   PO414448  15.931  15.111   9.417
  744POPC   GL114449  15.940  15.347   9.042
  744POPC   GL214450  16.262  15.427   8.988
  744POPC   C1A14451  15.788  15.371   8.591
  744POPC   D2A14452  15.828  15.043   8.244
  744POPC   C3A14453  15.710  15.201   7.840
  744POPC   C4A14454  15.425  15.531   7.787
  744POPC   C1B14455  16.223  15.132   8.662
  744POPC   C2B14456  16.220  15.375   8.272
  744POPC   C3B14457  16.216  15.323   7.833
  744POPC   C4B14458  16.124  15.199   7.405
  745POPC   NC314459  42.078  40.981   9.543
  745POPC   PO414460  41.413  41.057   9.453
  745POPC   GL114461  41.699  40.851   9.154
  745POPC   GL214462  41.933  40.584   9.197
  745POPC   C1A14463  41.593  40.748   8.737
  745POPC   D2A14464  41.377  41.037   8.459
  745POPC   C3A14465  41.442  40.961   8.031
  745POPC   C4A14466  41.352  40.707   7.692
  745POPC   C1B14467  41.966  40.388   8.797
  745POPC   C2B14468  41.724  40.355   8.410
  745POPC   C3B14469  41.443  40.402   8.086
  745POPC   C4B14470  41.107  40.256   7.824
  746POPC   NC314471  11.105  20.195   9.426
  746POPC   PO414472  11.485  19.659   9.381
  746POPC   GL114473  11.302  19.880   8.992
  746POPC   GL214474  10.964  20.101   8.953
  746POPC   C1A14475  11.511  19.776   8.579
  746POPC   D2A14476  11.572  19.468   8.231
  746POPC   C3A14477  11.339  19.696   7.915
  746POPC   C4A14478  11.205  20.087   8.060
  746POPC   C1B14479  10.996  19.920   8.545
  746POPC   C2B14480  11.065  19.537   8.317
  746POPC   C3B14481  10.868  19.514   7.914
  746POPC   C4B14482  10.784  19.947   7.798
  747POPC   NC314483  31.802  33.099   9.594
  747POPC   PO414484  31.535  32.516   9.539
  747POPC   GL114485  31.346  32.832   9.280
  747POPC   GL214486  31.638  32.995   9.092
  747POPC   C1A14487  31.210  32.868   8.840
  747POPC   D2A14488  31.357  32.834   8.410
  747POPC   C3A14489  31.246  33.034   8.026
  747POPC   C4A14490  31.341  33.010   7.544
  747POPC   C1B14491  31.524  33.243   8.683
  747POPC   C2B14492  31.465  33.442   8.253
  747POPC   C3B14493  31.616  33.356   7.807
  747POPC   C4B14494  31.610  33.395   7.317
  748POPC   NC314495  40.670  43.740   9.395
  748POPC   PO414496  40.846  44.389   9.472
  748POPC   GL114497  40.828  44.163   9.068
  748POPC   GL214498  41.181  44.183   8.882
  748POPC   C1A14499  40.491  43.955   8.821
  748POPC   D2A14500  40.501  43.661   8.497
  748POPC   C3A14501  40.634  43.929   8.189
  748POPC   C4A14502  40.676  44.029   7.783
  748POPC   C1B14503  40.981  43.853   8.654
  748POPC   C2B14504  41.012  43.569   8.330
  748POPC   C3B14505  41.019  43.644   7.931
  748POPC   C4B14506  41.170  43.916   7.644
  749POPC   NC314507  27.454  34.318   9.462
  749POPC   PO414508  27.978  34.819   9.393
  749POPC   GL114509  27.644  34.749   9.093
  749POPC   GL214510  27.527  34.411   8.987
  749POPC   C1A14511  27.527  34.781   8.657
  749POPC   D2A14512  27.711  34.573   8.356
  749POPC   C3A14513  27.665  34.802   8.014
  749POPC   C4A14514  27.541  34.768   7.617
  749POPC   C1B14515  27.591  34.088   8.690
  749POPC   C2B14516  27.660  34.054   8.279
  749POPC   C3B14517  27.543  34.304   7.952
  749POPC   C4B14518  27.266  34.215   7.686
  750POPC   NC314519  17.198  27.378   9.390
  750POPC   PO414520  17.827  27.231   9.449
  750POPC   GL114521  17.643  27.514   9.148
  750POPC   GL214522  17.612  27.875   9.202
  750POPC   C1A14523  17.460  27.466   8.752
  750POPC   D2A14524  17.548  27.286   8.356
  750POPC   C3A14525  17.355  27.499   8.035
  750POPC   C4A14526  17.196  27.539   7.627
  750POPC   C1B14527  17.787  27.885   8.799
  750POPC   C2B14528  17.780  27.723   8.410
  750POPC   C3B14529  17.995  27.507   8.106
  750POPC   C4B14530  17.763  27.522   7.709
  751POPC   NC314531  16.992   5.379   9.473
  751POPC   PO414532  16.427   5.848   9.557
  751POPC   GL114533  16.679   5.710   9.206
  751POPC   GL214534  16.883   6.012   9.145
  751POPC   C1A14535  16.903   5.618   8.779
  751POPC   D2A14536  16.803   5.463   8.338
  751POPC   C3A14537  16.840   5.717   7.971
  751POPC   C4A14538  16.662   5.605   7.562
  751POPC   C1B14539  16.566   5.995   8.809
  751POPC   C2B14540  16.682   5.970   8.392
  751POPC   C3B14541  16.437   6.050   8.029
  751POPC   C4B14542  16.480   6.274   7.610
  752POPC   NC314543  31.722   0.787   9.807
  752POPC   PO414544  31.249   0.368   9.520
  752POPC   GL114545  31.418   0.355   9.115
  752POPC   GL214546  31.752   0.398   9.088
  752POPC   C1A14547  31.482   0.293   8.681
  752POPC   D2A14548  31.596   0.509   8.344
  752POPC   C3A14549  31.391   0.383   8.023
  752POPC   C4A14550  31.518   0.288   7.626
  752POPC   C1B14551  31.938   0.591   8.732
  752POPC   C2B14552  32.076   0.662   8.311
  752POPC   C3B14553  31.904   0.502   7.911
  752POPC   C4B14554  31.882   0.598   7.453
  753POPC   NC314555  18.308   1.002   9.574
  753POPC   PO414556  18.385   1.730   9.407
  753POPC   GL114557  18.230   1.352   9.193
  753POPC   GL214558  18.484   1.142   9.109
  753POPC   C1A14559  18.074   1.096   8.837
  753POPC   D2A14560  18.009   1.256   8.435
  753POPC   C3A14561  18.191   1.013   8.103
  753POPC   C4A14562  18.280   1.088   7.684
  753POPC   C1B14563  18.421   1.441   8.737
  753POPC   C2B14564  18.485   1.396   8.321
  753POPC   C3B14565  18.454   1.501   7.924
  753POPC   C4B14566  18.417   1.558   7.512
  754POPC   NC314567  19.528  29.830   9.541
  754POPC   PO414568  19.983  30.374   9.615
  754POPC   GL114569  19.824  30.168   9.283
  754POPC   GL214570  20.129  30.023   9.209
  754POPC   C1A14571  19.778  30.102   8.862
  754POPC   D2A14572  19.624  30.327   8.489
  754POPC   C3A14573  19.609  30.068   8.147
  754POPC   C4A14574  19.838  30.011   7.785
  754POPC   C1B14575  20.277  29.751   8.872
  754POPC   C2B14576  20.234  29.594   8.419
  754POPC   C3B14577  20.143  29.649   7.975
  754POPC   C4B14578  20.048  29.465   7.573
  755POPC   NC314579  36.303  18.548   9.772
  755POPC   PO414580  36.265  17.980   9.323
  755POPC   GL114581  36.246  18.122   8.959
  755POPC   GL214582  35.961  18.279   9.074
  755POPC   C1A14583  36.371  18.299   8.592
  755POPC   D2A14584  36.107  18.148   8.339
  755POPC   C3A14585  36.176  17.914   8.012
  755POPC   C4A14586  36.304  18.088   7.669
  755POPC   C1B14587  35.885  18.449   8.706
  755POPC   C2B14588  35.830  18.592   8.315
  755POPC   C3B14589  36.055  18.482   7.947
  755POPC   C4B14590  35.875  18.352   7.574
  756POPC   NC314591  41.217  26.207   9.498
  756POPC   PO414592  41.707  25.936   9.531
  756POPC   GL114593  41.568  26.048   9.139
  756POPC   GL214594  41.352  25.776   9.165
  756POPC   C1A14595  41.503  25.974   8.694
  756POPC   D2A14596  41.415  26.091   8.311
  756POPC   C3A14597  41.674  25.960   8.003
  756POPC   C4A14598  41.505  25.984   7.618
  756POPC   C1B14599  41.103  25.698   8.812
  756POPC   C2B14600  41.002  25.800   8.403
  756POPC   C3B14601  41.194  25.742   7.992
  756POPC   C4B14602  41.035  25.732   7.571
  757POPC   NC314603  16.952  37.974   9.379
  757POPC   PO414604  16.849  37.378   9.658
  757POPC   GL114605  16.728  37.412   9.181
  757POPC   GL214606  16.457  37.655   9.083
  757POPC   C1A14607  16.818  37.579   8.746
  757POPC   D2A14608  16.880  37.806   8.368
  757POPC   C3A14609  16.822  37.541   8.012
  757POPC   C4A14610  16.909  37.643   7.595
  757POPC   C1B14611  16.342  37.375   8.797
  757POPC   C2B14612  16.428  37.519   8.385
  757POPC   C3B14613  16.373  37.299   8.003
  757POPC   C4B14614  16.472  37.377   7.571
  758POPC   NC314615   0.055  33.224   9.526
  758POPC   PO414616  44.522  32.658   9.599
  758POPC   GL114617  44.504  32.960   9.255
  758POPC   GL214618  44.785  33.140   9.124
  758POPC   C1A14619  44.417  32.918   8.838
  758POPC   D2A14620  44.391  33.103   8.401
  758POPC   C3A14621  44.414  32.799   8.059
  758POPC   C4A14622  44.286  32.538   7.702
  758POPC   C1B14623  44.826  33.156   8.695
  758POPC   C2B14624  44.987  33.200   8.302
  758POPC   C3B14625  44.879  33.068   7.916
  758POPC   C4B14626  44.531  33.272   7.896
  759POPC   NC314627   6.288  23.528   9.400
  759POPC   PO414628   5.616  23.740   9.617
  759POPC   GL114629   5.814  23.693   9.192
  759POPC   GL214630   5.675  23.972   8.966
  759POPC   C1A14631   5.994  23.615   8.796
  759POPC   D2A14632   5.894  23.345   8.490
  759POPC   C3A14633   5.795  23.501   8.085
  759POPC   C4A14634   6.097  23.526   7.767
  759POPC   C1B14635   5.751  23.943   8.490
  759POPC   C2B14636   5.947  24.014   8.079
  759POPC   C3B14637   5.746  24.055   7.659
  759POPC   C4B14638   5.725  24.157   7.200
  760POPC   NC314639  42.350  10.273   9.856
  760POPC   PO414640  42.354  10.878   9.593
  760POPC   GL114641  42.579  10.678   9.224
  760POPC   GL214642  42.251  10.616   9.087
  760POPC   C1A14643  42.641  10.606   8.740
  760POPC   D2A14644  42.337  10.709   8.403
  760POPC   C3A14645  42.016  10.821   8.062
  760POPC   C4A14646  42.135  10.773   7.594
  760POPC   C1B14647  42.166  10.343   8.742
  760POPC   C2B14648  42.004  10.344   8.331
  760POPC   C3B14649  42.260  10.410   7.931
  760POPC   C4B14650  42.321  10.304   7.494
  761POPC   NC314651  19.435  43.946   9.524
  761POPC   PO414652  20.008  43.574   9.540
  761POPC   GL114653  19.904  43.779   9.141
  761POPC   GL214654  19.672  44.040   9.079
  761POPC   C1A14655  19.992  43.872   8.695
  761POPC   D2A14656  19.813  44.072   8.327
  761POPC   C3A14657  19.984  43.942   7.957
  761POPC   C4A14658  20.022  43.662   7.650
  761POPC   C1B14659  19.470  43.917   8.690
  761POPC   C2B14660  19.289  44.000   8.274
  761POPC   C3B14661  19.486  43.836   7.918
  761POPC   C4B14662  19.654  43.977   7.538
  762POPC   NC314663  32.009  43.469   9.654
  762POPC   PO414664  32.383  42.922   9.782
  762POPC   GL114665  32.193  42.991   9.280
  762POPC   GL214666  32.199  43.384   9.205
  762POPC   C1A14667  32.189  43.123   8.793
  762POPC   D2A14668  32.221  42.931   8.386
  762POPC   C3A14669  32.289  43.107   7.972
  762POPC   C4A14670  32.433  43.152   7.535
  762POPC   C1B14671  31.963  43.601   8.867
  762POPC   C2B14672  31.933  43.578   8.413
  762POPC   C3B14673  31.788  43.389   8.018
  762POPC   C4B14674  31.922  43.186   7.623
  763POPC   NC314675  22.535   5.338   9.532
  763POPC   PO414676  22.750   4.732   9.514
  763POPC   GL114677  22.685   5.030   9.136
  763POPC   GL214678  23.026   5.177   8.989
  763POPC   C1A14679  22.629   5.072   8.683
  763POPC   D2A14680  22.911   5.181   8.375
  763POPC   C3A14681  22.869   4.986   7.988
  763POPC   C4A14682  22.882   5.129   7.582
  763POPC   C1B14683  23.222   5.483   8.671
  763POPC   C2B14684  23.283   5.533   8.227
  763POPC   C3B14685  23.327   5.307   7.812
  763POPC   C4B14686  23.270   5.341   7.318
  764POPC   NC314687  13.440  21.537   9.430
  764POPC   PO414688  14.028  21.177   9.463
  764POPC   GL114689  13.859  21.317   9.098
  764POPC   GL214690  13.836  21.673   9.098
  764POPC   C1A14691  13.659  21.075   8.774
  764POPC   D2A14692  13.484  21.070   8.362
  764POPC   C3A14693  13.791  21.076   8.029
  764POPC   C4A14694  13.767  21.236   7.614
  764POPC   C1B14695  13.470  21.576   8.803
  764POPC   C2B14696  13.270  21.555   8.416
  764POPC   C3B14697  13.459  21.497   8.021
  764POPC   C4B14698  13.237  21.730   7.767
  765POPC   NC314699  10.473  20.970   9.448
  765POPC   PO414700   9.937  20.549   9.477
  765POPC   GL114701  10.181  20.608   9.132
  765POPC   GL214702  10.508  20.474   9.110
  765POPC   C1A14703  10.272  20.806   8.740
  765POPC   D2A14704  10.238  20.619   8.340
  765POPC   C3A14705  10.496  20.793   8.028
  765POPC   C4A14706  10.366  20.693   7.629
  765POPC   C1B14707  10.760  20.519   8.745
  765POPC   C2B14708  11.047  20.426   8.407
  765POPC   C3B14709  10.937  20.501   7.959
  765POPC   C4B14710  10.797  20.454   7.540
  766POPC   NC314711  42.675  31.405   9.352
  766POPC   PO414712  43.155  31.689   9.697
  766POPC   GL114713  43.347  31.536   9.249
  766POPC   GL214714  43.061  31.395   9.026
  766POPC   C1A14715  43.449  31.569   8.773
  766POPC   D2A14716  43.177  31.678   8.385
  766POPC   C3A14717  43.285  31.458   7.993
  766POPC   C4A14718  43.102  31.098   7.818
  766POPC   C1B14719  42.843  31.317   8.603
  766POPC   C2B14720  42.795  31.404   8.143
  766POPC   C3B14721  42.852  31.817   7.977
  766POPC   C4B14722  43.195  31.895   7.747
  767POPC   NC314723  15.694  28.392   9.495
  767POPC   PO414724  15.876  27.798   9.754
  767POPC   GL114725  15.706  28.014   9.190
  767POPC   GL214726  15.999  28.251   9.085
  767POPC   C1A14727  15.604  28.212   8.753
  767POPC   D2A14728  15.781  28.456   8.390
  767POPC   C3A14729  16.099  28.255   8.137
  767POPC   C4A14730  15.909  28.187   7.743
  767POPC   C1B14731  16.162  28.541   8.737
  767POPC   C2B14732  16.463  28.582   8.375
  767POPC   C3B14733  16.334  28.685   7.952
  767POPC   C4B14734  15.913  28.687   7.914
  768POPC   NC314735   6.841  30.296   9.235
  768POPC   PO414736   6.509  30.844   9.481
  768POPC   GL114737   6.377  30.729   9.090
  768POPC   GL214738   6.331  30.396   9.091
  768POPC   C1A14739   6.625  30.644   8.721
  768POPC   D2A14740   6.885  30.859   8.460
  768POPC   C3A14741   6.763  30.795   8.048
  768POPC   C4A14742   6.899  30.816   7.634
  768POPC   C1B14743   6.187  30.382   8.678
  768POPC   C2B14744   6.314  30.542   8.283
  768POPC   C3B14745   6.450  30.407   7.892
  768POPC   C4B14746   6.555  30.496   7.467
  769POPC   NC314747  21.941  12.737   9.501
  769POPC   PO414748  22.533  13.032   9.640
  769POPC   GL114749  22.348  13.055   9.218
  769POPC   GL214750  22.002  13.062   9.127
  769POPC   C1A14751  22.318  12.802   8.838
  769POPC   D2A14752  22.075  12.689   8.492
  769POPC   C3A14753  22.277  12.859   8.134
  769POPC   C4A14754  22.238  12.698   7.739
  769POPC   C1B14755  21.788  13.028   8.777
  769POPC   C2B14756  21.809  13.118   8.336
  769POPC   C3B14757  21.809  12.926   7.916
  769POPC   C4B14758  21.908  12.958   7.458
  770POPC   NC314759   5.604  37.361   9.926
  770POPC   PO414760   5.195  37.111   9.386
  770POPC   GL114761   4.953  36.822   9.118
  770POPC   GL214762   4.666  37.034   9.094
  770POPC   C1A14763   4.850  36.803   8.666
  770POPC   D2A14764   5.006  36.609   8.299
  770POPC   C3A14765   5.111  36.971   8.035
  770POPC   C4A14766   5.350  37.009   7.647
  770POPC   C1B14767   4.670  37.289   8.735
  770POPC   C2B14768   4.738  37.233   8.321
  770POPC   C3B14769   4.637  37.174   7.930
  770POPC   C4B14770   4.828  36.973   7.602
  771POPC   NC314771  39.428  38.715   9.526
  771POPC   PO414772  38.835  38.398   9.446
  771POPC   GL114773  39.120  38.556   9.135
  771POPC   GL214774  39.237  38.266   8.976
  771POPC   C1A14775  39.028  38.711   8.699
  771POPC   D2A14776  39.142  38.595   8.271
  771POPC   C3A14777  39.049  38.809   7.904
  771POPC   C4A14778  39.113  38.497   7.614
  771POPC   C1B14779  39.485  38.503   8.678
  771POPC   C2B14780  39.592  38.805   8.339
  771POPC   C3B14781  39.541  38.672   7.909
  771POPC   C4B14782  39.574  38.284   7.689
  772POPC   NC314783  17.018  36.939   9.568
  772POPC   PO414784  16.350  36.821   9.617
  772POPC   GL114785  16.412  36.943   9.159
  772POPC   GL214786  16.759  36.893   9.125
  772POPC   C1A14787  16.526  36.887   8.672
  772POPC   D2A14788  16.730  37.094   8.304
  772POPC   C3A14789  16.765  37.020   7.820
  772POPC   C4A14790  16.607  36.935   7.356
  772POPC   C1B14791  16.992  36.647   8.820
  772POPC   C2B14792  17.082  36.731   8.401
  772POPC   C3B14793  16.953  36.554   7.999
  772POPC   C4B14794  16.982  36.642   7.546
  773POPC   NC314795  38.141  27.086   9.482
  773POPC   PO414796  38.485  27.701   9.503
  773POPC   GL114797  38.541  27.617   9.100
  773POPC   GL214798  38.200  27.506   9.040
  773POPC   C1A14799  38.581  27.838   8.726
  773POPC   D2A14800  38.394  27.745   8.340
  773POPC   C3A14801  38.566  27.898   7.968
  773POPC   C4A14802  38.376  27.858   7.557
  773POPC   C1B14803  38.476  27.329   8.703
  773POPC   C2B14804  38.342  27.207   8.334
  773POPC   C3B14805  38.154  27.414   7.999
  773POPC   C4B14806  38.527  27.415   7.786
  774POPC   NC314807  23.707  14.867   9.757
  774POPC   PO414808  23.614  14.207   9.630
  774POPC   GL114809  23.598  14.449   9.246
  774POPC   GL214810  23.339  14.765   9.267
  774POPC   C1A14811  23.786  14.312   8.812
  774POPC   D2A14812  23.704  14.004   8.451
  774POPC   C3A14813  23.718  14.216   8.029
  774POPC   C4A14814  23.904  14.271   7.619
  774POPC   C1B14815  23.439  14.679   8.817
  774POPC   C2B14816  23.379  14.423   8.476
  774POPC   C3B14817  23.257  14.457   8.058
  774POPC   C4B14818  23.319  14.191   7.722
  775POPC   NC314819  21.926  23.929   9.481
  775POPC   PO414820  22.396  23.348   9.411
  775POPC   GL114821  22.154  23.610   9.132
  775POPC   GL214822  22.235  23.983   9.083
  775POPC   C1A14823  22.242  23.607   8.715
  775POPC   D2A14824  22.216  23.807   8.363
  775POPC   C3A14825  22.058  23.612   7.998
  775POPC   C4A14826  22.367  23.423   7.693
  775POPC   C1B14827  21.921  24.004   8.752
  775POPC   C2B14828  21.782  24.122   8.308
  775POPC   C3B14829  22.141  24.136   7.998
  775POPC   C4B14830  22.222  23.909   7.632
  776POPC   NC314831   6.873  43.946   9.627
  776POPC   PO414832   6.390  43.665   9.510
  776POPC   GL114833   6.530  43.988   9.213
  776POPC   GL214834   6.873  44.094   9.135
  776POPC   C1A14835   6.457  44.061   8.791
  776POPC   D2A14836   6.530  43.754   8.494
  776POPC   C3A14837   6.440  43.792   8.072
  776POPC   C4A14838   6.670  43.545   7.774
  776POPC   C1B14839   6.899  44.313   8.735
  776POPC   C2B14840   6.710  44.194   8.322
  776POPC   C3B14841   6.929  43.953   7.997
  776POPC   C4B14842   7.131  44.061   7.614
  777POPC   NC314843  26.244  26.059   9.479
  777POPC   PO414844  25.565  25.853   9.550
  777POPC   GL114845  25.773  26.084   9.179
  777POPC   GL214846  26.069  25.865   9.058
  777POPC   C1A14847  25.809  26.090   8.703
  777POPC   D2A14848  26.003  25.854   8.338
  777POPC   C3A14849  25.832  25.884   7.944
  777POPC   C4A14850  25.678  26.272   7.752
  777POPC   C1B14851  26.312  26.007   8.713
  777POPC   C2B14852  26.379  26.358   8.428
  777POPC   C3B14853  26.421  26.336   7.986
  777POPC   C4B14854  26.266  25.999   7.736
  778POPC   NC314855  40.463  25.586   9.520
  778POPC   PO414856  40.905  25.081   9.481
  778POPC   GL114857  40.795  25.160   9.087
  778POPC   GL214858  40.759  25.527   9.113
  778POPC   C1A14859  40.910  25.250   8.649
  778POPC   D2A14860  41.137  25.304   8.257
  778POPC   C3A14861  40.879  25.357   7.869
  778POPC   C4A14862  40.887  25.062   7.514
  778POPC   C1B14863  40.493  25.534   8.721
  778POPC   C2B14864  40.592  25.485   8.281
  778POPC   C3B14865  40.396  25.520   7.853
  778POPC   C4B14866  40.598  25.482   7.426
  779POPC   NC314867  14.948   8.657   9.461
  779POPC   PO414868  14.760   9.312   9.428
  779POPC   GL114869  15.046   9.039   9.135
  779POPC   GL214870  15.277   8.708   9.062
  779POPC   C1A14871  15.007   8.935   8.708
  779POPC   D2A14872  15.051   9.219   8.384
  779POPC   C3A14873  14.949   8.943   8.014
  779POPC   C4A14874  14.899   9.145   7.637
  779POPC   C1B14875  15.504   8.875   8.713
  779POPC   C2B14876  15.367   8.823   8.312
  779POPC   C3B14877  15.508   8.780   7.912
  779POPC   C4B14878  15.289   8.836   7.535
  780POPC   NC314879  24.406  15.838   9.625
  780POPC   PO414880  24.072  16.435   9.313
  780POPC   GL114881  24.394  16.084   9.160
  780POPC   GL214882  24.690  15.805   9.188
  780POPC   C1A14883  24.563  16.055   8.755
  780POPC   D2A14884  24.534  16.318   8.411
  780POPC   C3A14885  24.519  16.094   8.052
  780POPC   C4A14886  24.313  16.003   7.668
  780POPC   C1B14887  24.914  15.697   8.751
  780POPC   C2B14888  24.658  15.665   8.346
  780POPC   C3B14889  24.699  15.646   7.879
  780POPC   C4B14890  24.423  15.523   7.527
  781POPC   NC314891  35.874  26.500   9.848
  781POPC   PO414892  36.242  27.009   9.524
  781POPC   GL114893  36.338  26.883   9.138
  781POPC   GL214894  36.263  26.539   9.167
  781POPC   C1A14895  36.153  26.958   8.718
  781POPC   D2A14896  36.007  27.197   8.281
  781POPC   C3A14897  36.152  27.045   7.851
  781POPC   C4A14898  35.996  26.821   7.446
  781POPC   C1B14899  36.580  26.560   8.849
  781POPC   C2B14900  36.624  26.528   8.405
  781POPC   C3B14901  36.497  26.689   7.997
  781POPC   C4B14902  36.318  26.477   7.627
  782POPC   NC314903  15.260   4.296   9.758
  782POPC   PO414904  14.833   4.501   9.245
  782POPC   GL114905  15.012   4.121   9.104
  782POPC   GL214906  14.796   3.822   9.113
  782POPC   C1A14907  15.154   4.216   8.689
  782POPC   D2A14908  15.332   4.536   8.448
  782POPC   C3A14909  15.360   4.409   8.028
  782POPC   C4A14910  15.270   4.644   7.643
  782POPC   C1B14911  14.700   3.952   8.700
  782POPC   C2B14912  14.742   4.113   8.303
  782POPC   C3B14913  14.937   3.978   7.940
  782POPC   C4B14914  15.083   4.187   7.605
  783POPC   NC314915  41.000  34.406   9.597
  783POPC   PO414916  40.383  34.754   9.738
  783POPC   GL114917  40.665  34.750   9.335
  783POPC   GL214918  40.674  34.452   9.141
  783POPC   C1A14919  41.000  34.810   8.981
  783POPC   D2A14920  41.008  34.744   8.509
  783POPC   C3A14921  41.155  34.808   8.082
  783POPC   C4A14922  40.966  34.608   7.706
  783POPC   C1B14923  40.550  34.665   8.758
  783POPC   C2B14924  40.508  34.817   8.305
  783POPC   C3B14925  40.478  34.616   7.878
  783POPC   C4B14926  40.278  34.616   7.445
  784POPC   NC314927  40.628   2.168   9.377
  784POPC   PO414928  41.239   1.859   9.472
  784POPC   GL114929  41.025   1.694   9.080
  784POPC   GL214930  40.866   1.976   8.962
  784POPC   C1A14931  41.181   1.694   8.657
  784POPC   D2A14932  41.142   1.936   8.294
  784POPC   C3A14933  40.871   1.711   7.987
  784POPC   C4A14934  40.824   1.630   7.546
  784POPC   C1B14935  40.672   1.780   8.583
  784POPC   C2B14936  40.281   1.787   8.323
  784POPC   C3B14937  40.369   1.809   7.883
  784POPC   C4B14938  40.597   2.081   7.564
  785POPC   NC314939  42.936   1.906   9.430
  785POPC   PO414940  43.277   2.396   9.757
  785POPC   GL114941  43.324   2.201   9.240
  785POPC   GL214942  43.326   1.872   9.111
  785POPC   C1A14943  43.065   2.186   8.765
  785POPC   D2A14944  42.874   2.045   8.329
  785POPC   C3A14945  43.028   1.853   7.951
  785POPC   C4A14946  43.018   1.960   7.550
  785POPC   C1B14947  43.514   2.002   8.708
  785POPC   C2B14948  43.395   2.056   8.249
  785POPC   C3B14949  43.505   2.047   7.801
  785POPC   C4B14950  43.451   2.207   7.400
  786POPC   NC314951  29.254   3.686   9.449
  786POPC   PO414952  29.763   3.276   9.383
  786POPC   GL114953  29.379   3.342   9.093
  786POPC   GL214954  29.010   3.315   9.182
  786POPC   C1A14955  29.254   3.496   8.657
  786POPC   D2A14956  28.972   3.262   8.332
  786POPC   C3A14957  29.159   3.274   7.928
  786POPC   C4A14958  29.308   3.665   7.700
  786POPC   C1B14959  28.791   3.402   8.800
  786POPC   C2B14960  28.815   3.742   8.481
  786POPC   C3B14961  28.894   3.708   8.058
  786POPC   C4B14962  28.809   3.487   7.649
  787POPC   NC314963  14.852  36.702   9.435
  787POPC   PO414964  14.326  37.013   9.772
  787POPC   GL114965  14.457  37.026   9.294
  787POPC   GL214966  14.766  37.047   9.065
  787POPC   C1A14967  14.308  36.946   8.859
  787POPC   D2A14968  14.292  37.117   8.442
  787POPC   C3A14969  14.367  37.008   8.011
  787POPC   C4A14970  14.089  37.056   7.680
  787POPC   C1B14971  14.772  36.921   8.627
  787POPC   C2B14972  14.763  36.759   8.214
  787POPC   C3B14973  14.794  36.795   7.775
  787POPC   C4B14974  14.532  36.972   7.444
  788POPC   NC314975  12.917  18.054   9.555
  788POPC   PO414976  12.455  18.423   9.769
  788POPC   GL114977  12.739  18.477   9.361
  788POPC   GL214978  13.116  18.444   9.296
  788POPC   C1A14979  12.813  18.472   8.896
  788POPC   D2A14980  12.813  18.371   8.451
  788POPC   C3A14981  12.782  18.638   8.096
  788POPC   C4A14982  12.816  18.409   7.694
  788POPC   C1B14983  13.276  18.304   8.861
  788POPC   C2B14984  13.310  18.224   8.411
  788POPC   C3B14985  13.181  18.097   7.984
  788POPC   C4B14986  13.263  18.255   7.545
  789POPC   NC314987  14.873  28.647   9.270
  789POPC   PO414988  15.351  29.163   9.482
  789POPC   GL114989  15.255  29.272   9.085
  789POPC   GL214990  14.962  29.104   9.101
  789POPC   C1A14991  15.214  29.092   8.662
  789POPC   D2A14992  15.473  29.022   8.305
  789POPC   C3A14993  15.311  29.158   7.919
  789POPC   C4A14994  15.302  29.182   7.502
  789POPC   C1B14995  14.736  28.951   8.721
  789POPC   C2B14996  14.865  29.080   8.294
  789POPC   C3B14997  14.752  29.109   7.869
  789POPC   C4B14998  14.969  28.810   7.629
  790POPC   NC314999   9.981  37.106   9.472
  790POPC   PO415000   9.380  36.982   9.287
  790POPC   GL115001   9.698  37.133   9.051
  790POPC   GL215002   9.934  36.853   9.019
  790POPC   C1A15003   9.640  37.327   8.686
  790POPC   D2A15004   9.497  37.158   8.285
  790POPC   C3A15005   9.776  37.190   7.941
  790POPC   C4A15006   9.712  37.083   7.492
  790POPC   C1B15007   9.888  36.885   8.560
  790POPC   C2B15008   9.813  36.723   8.135
  790POPC   C3B15009   9.800  36.625   7.687
  790POPC   C4B15010   9.873  36.662   7.230
  791POPC   NC315011  25.046  28.697   9.365
  791POPC   PO415012  25.201  29.337   9.487
  791POPC   GL115013  25.463  29.287   9.169
  791POPC   GL215014  25.297  29.011   9.044
  791POPC   C1A15015  25.447  29.451   8.756
  791POPC   D2A15016  25.222  29.458   8.397
  791POPC   C3A15017  25.337  29.138   8.116
  791POPC   C4A15018  25.377  29.221   7.697
  791POPC   C1B15019  25.120  28.980   8.641
  791POPC   C2B15020  24.857  29.100   8.336
  791POPC   C3B15021  24.529  28.974   8.084
  791POPC   C4B15022  24.633  29.141   7.688
  792POPC   NC315023  21.180  30.158   9.607
  792POPC   PO415024  21.371  29.585   9.325
  792POPC   GL115025  21.279  29.938   9.099
  792POPC   GL215026  21.586  30.144   9.205
  792POPC   C1A15027  21.224  29.821   8.650
  792POPC   D2A15028  21.463  29.515   8.431
  792POPC   C3A15029  21.405  29.669   8.056
  792POPC   C4A15030  21.117  29.968   7.880
  792POPC   C1B15031  21.575  30.169   8.738
  792POPC   C2B15032  21.494  30.269   8.278
  792POPC   C3B15033  21.648  30.102   7.870
  792POPC   C4B15034  22.013  29.998   7.604
  793POPC   NC315035   3.926  14.794   9.520
  793POPC   PO415036   3.337  14.688   9.520
  793POPC   GL115037   3.527  14.682   9.135
  793POPC   GL215038   3.375  14.337   9.108
  793POPC   C1A15039   3.630  14.573   8.702
  793POPC   D2A15040   3.494  14.419   8.288
  793POPC   C3A15041   3.687  14.523   7.833
  793POPC   C4A15042   4.076  14.485   7.546
  793POPC   C1B15043   3.143  14.029   8.873
  793POPC   C2B15044   3.138  13.966   8.439
  793POPC   C3B15045   3.253  14.075   8.006
  793POPC   C4B15046   3.141  14.156   7.594
  794POPC   NC315047   6.385   1.340   9.780
  794POPC   PO415048   6.850   1.005   9.531
  794POPC   GL115049   6.747   1.363   9.194
  794POPC   GL215050   6.381   1.463   9.281
  794POPC   C1A15051   6.817   1.436   8.704
  794POPC   D2A15052   6.845   1.286   8.243
  794POPC   C3A15053   6.716   1.232   7.793
  794POPC   C4A15054   6.889   0.968   7.419
  794POPC   C1B15055   6.268   1.297   8.885
  794POPC   C2B15056   6.363   1.315   8.449
  794POPC   C3B15057   6.274   1.221   8.033
  794POPC   C4B15058   6.264   1.483   7.695
  795POPC   NC315059  38.642  24.492   9.605
  795POPC   PO415060  38.019  24.321   9.437
  795POPC   GL115061  38.315  24.579   9.148
  795POPC   GL215062  38.680  24.701   9.129
  795POPC   C1A15063  38.333  24.463   8.710
  795POPC   D2A15064  38.385  24.544   8.272
  795POPC   C3A15065  38.118  24.355   7.956
  795POPC   C4A15066  37.995  23.902   7.956
  795POPC   C1B15067  38.848  24.445   8.803
  795POPC   C2B15068  38.903  24.616   8.397
  795POPC   C3B15069  38.737  24.788   8.015
  795POPC   C4B15070  38.558  24.473   7.728
  796POPC   NC315071  43.755  15.693   9.324
  796POPC   PO415072  43.924  14.957   9.512
  796POPC   GL115073  43.820  15.176   9.143
  796POPC   GL215074  43.557  14.968   9.054
  796POPC   C1A15075  43.695  15.372   8.728
  796POPC   D2A15076  43.536  15.472   8.285
  796POPC   C3A15077  43.843  15.458   7.934
  796POPC   C4A15078  43.932  15.494   7.489
  796POPC   C1B15079  43.705  14.791   8.680
  796POPC   C2B15080  43.724  15.008   8.323
  796POPC   C3B15081  43.584  15.017   7.921
  796POPC   C4B15082  43.663  15.031   7.487
  797POPC   NC315083  11.290   0.465   9.740
  797POPC   PO415084  11.805   0.146   9.384
  797POPC   GL115085  11.397   0.355   9.234
  797POPC   GL215086  11.238   0.698   9.305
  797POPC   C1A15087  11.105   0.283   8.893
  797POPC   D2A15088  10.989   0.196   8.490
  797POPC   C3A15089  11.325   0.221   8.248
  797POPC   C4A15090  11.205   0.277   7.850
  797POPC   C1B15091  11.241   0.787   8.893
  797POPC   C2B15092  11.175   0.679   8.466
  797POPC   C3B15093  11.286   0.748   8.032
  797POPC   C4B15094  11.026   0.720   7.640
  798POPC   NC315095  12.479  10.041   9.468
  798POPC   PO415096  13.182   9.815   9.565
  798POPC   GL115097  13.004   9.680   9.189
  798POPC   GL215098  13.014   9.313   9.164
  798POPC   C1A15099  12.699   9.666   8.829
  798POPC   D2A15100  12.550   9.831   8.434
  798POPC   C3A15101  12.676   9.961   8.043
  798POPC   C4A15102  12.540  10.297   7.802
  798POPC   C1B15103  13.154   9.478   8.751
  798POPC   C2B15104  12.879   9.426   8.364
  798POPC   C3B15105  12.883   9.507   7.920
  798POPC   C4B15106  13.003   9.493   7.476
  799POPC   NC315107  37.711   3.279   9.393
  799POPC   PO415108  37.852   3.776   9.222
  799POPC   GL115109  37.618   3.438   8.927
  799POPC   GL215110  37.320   3.223   9.032
  799POPC   C1A15111  37.773   3.255   8.553
  799POPC   D2A15112  37.839   3.584   8.275
  799POPC   C3A15113  37.802   3.497   7.860
  799POPC   C4A15114  37.635   3.731   7.494
  799POPC   C1B15115  37.267   3.249   8.562
  799POPC   C2B15116  37.438   3.233   8.125
  799POPC   C3B15117  37.259   3.412   7.731
  799POPC   C4B15118  36.817   3.438   7.521
  800POPC   NC315119   9.223  21.572   9.421
  800POPC   PO415120   8.560  21.282   9.259
  800POPC   GL115121   8.916  21.400   9.061
  800POPC   GL215122   9.196  21.182   9.088
  800POPC   C1A15123   9.036  21.623   8.706
  800POPC   D2A15124   8.904  21.424   8.328
  800POPC   C3A15125   9.117  21.508   7.982
  800POPC   C4A15126   8.898  21.486   7.619
  800POPC   C1B15127   9.191  21.124   8.654
  800POPC   C2B15128   9.174  20.957   8.250
  800POPC   C3B15129   9.072  21.007   7.819
  800POPC   C4B15130   8.997  21.036   7.386
  801POPC   NC315131  11.047  23.436   9.604
  801POPC   PO415132  11.567  23.912   9.481
  801POPC   GL115133  11.264  23.727   9.160
  801POPC   GL215134  10.978  23.509   9.128
  801POPC   C1A15135  11.253  23.546   8.726
  801POPC   D2A15136  11.081  23.565   8.337
  801POPC   C3A15137  11.427  23.758   8.104
  801POPC   C4A15138  11.615  23.594   7.724
  801POPC   C1B15139  10.888  23.900   8.838
  801POPC   C2B15140  10.730  24.004   8.427
  801POPC   C3B15141  10.917  23.907   8.001
  801POPC   C4B15142  11.101  23.577   7.774
  802POPC   NC315143  19.942  11.797   9.794
  802POPC   PO415144  19.532  12.179   9.476
  802POPC   GL115145  19.646  12.011   9.099
  802POPC   GL215146  19.936  11.837   9.130
  802POPC   C1A15147  19.763  12.120   8.708
  802POPC   D2A15148  19.897  12.261   8.341
  802POPC   C3A15149  19.649  12.182   8.012
  802POPC   C4A15150  19.622  12.077   7.560
  802POPC   C1B15151  20.196  11.851   8.754
  802POPC   C2B15152  20.380  12.030   8.389
  802POPC   C3B15153  20.258  12.161   7.991
  802POPC   C4B15154  20.107  11.933   7.658
  803POPC   NC315155  36.349  13.202   9.313
  803POPC   PO415156  36.105  13.795   9.447
  803POPC   GL115157  36.192  13.630   9.070
  803POPC   GL215158  36.528  13.652   9.098
  803POPC   C1A15159  36.291  13.537   8.630
  803POPC   D2A15160  36.346  13.442   8.193
  803POPC   C3A15161  36.023  13.483   7.876
  803POPC   C4A15162  36.048  13.441   7.431
  803POPC   C1B15163  36.463  13.992   8.792
  803POPC   C2B15164  36.523  13.963   8.363
  803POPC   C3B15165  36.315  13.930   7.977
  803POPC   C4B15166  36.186  13.909   7.601
  804POPC   NC315167   9.473  22.391   9.597
  804POPC   PO415168   9.673  21.701   9.578
  804POPC   GL115169   9.532  21.950   9.235
  804POPC   GL215170   9.757  22.241   9.191
  804POPC   C1A15171   9.534  21.961   8.787
  804POPC   D2A15172   9.798  21.777   8.445
  804POPC   C3A15173   9.571  21.827   8.047
  804POPC   C4A15174   9.635  22.031   7.642
  804POPC   C1B15175   9.858  22.364   8.766
  804POPC   C2B15176   9.735  22.285   8.329
  804POPC   C3B15177  10.008  22.146   7.981
  804POPC   C4B15178  10.163  22.434   7.662
  805POPC   NC315179  39.258  21.006   9.592
  805POPC   PO415180  39.585  21.567   9.373
  805POPC   GL115181  39.367  21.255   9.134
  805POPC   GL215182  39.452  21.449   8.872
  805POPC   C1A15183  39.016  21.219   8.793
  805POPC   D2A15184  38.863  21.408   8.390
  805POPC   C3A15185  39.194  21.454   8.084
  805POPC   C4A15186  39.629  21.362   7.911
  805POPC   C1B15187  39.185  21.736   8.682
  805POPC   C2B15188  39.158  21.996   8.343
  805POPC   C3B15189  39.215  21.952   7.909
  805POPC   C4B15190  38.847  21.716   7.792
  806POPC   NC315191  11.958  18.122   9.640
  806POPC   PO415192  12.043  18.729   9.375
  806POPC   GL115193  12.018  18.432   9.104
  806POPC   GL215194  12.338  18.442   9.062
  806POPC   C1A15195  12.000  18.471   8.670
  806POPC   D2A15196  11.806  18.361   8.317
  806POPC   C3A15197  11.910  18.547   7.949
  806POPC   C4A15198  11.812  18.488   7.522
  806POPC   C1B15199  12.433  18.176   8.732
  806POPC   C2B15200  12.321  18.173   8.311
  806POPC   C3B15201  12.378  18.368   7.925
  806POPC   C4B15202  12.296  18.352   7.508
  807POPC   NC315203  26.116  14.008   9.484
  807POPC   PO415204  26.127  13.326   9.510
  807POPC   GL115205  26.156  13.618   9.157
  807POPC   GL215206  26.497  13.677   9.037
  807POPC   C1A15207  25.914  13.761   8.794
  807POPC   D2A15208  25.601  13.686   8.450
  807POPC   C3A15209  25.686  13.921   8.081
  807POPC   C4A15210  25.937  13.817   7.754
  807POPC   C1B15211  26.400  13.725   8.627
  807POPC   C2B15212  26.198  13.749   8.219
  807POPC   C3B15213  26.353  13.564   7.813
  807POPC   C4B15214  26.328  13.771   7.416
  808POPC   NC315215  13.333  30.020   9.455
  808POPC   PO415216  13.878  29.657   9.579
  808POPC   GL115217  13.930  29.717   9.158
  808POPC   GL215218  13.582  29.749   9.122
  808POPC   C1A15219  13.855  29.630   8.726
  808POPC   D2A15220  13.714  29.910   8.393
  808POPC   C3A15221  13.833  29.727   8.028
  808POPC   C4A15222  13.843  29.626   7.619
  808POPC   C1B15223  13.370  29.832   8.740
  808POPC   C2B15224  13.210  29.869   8.297
  808POPC   C3B15225  13.343  29.803   7.850
  808POPC   C4B15226  13.376  29.565   7.428
  809POPC   NC315227   6.824  42.102   9.454
  809POPC   PO415228   6.747  42.755   9.303
  809POPC   GL115229   6.797  42.363   9.024
  809POPC   GL215230   6.536  42.095   9.002
  809POPC   C1A15231   6.933  42.057   8.695
  809POPC   D2A15232   6.912  42.265   8.323
  809POPC   C3A15233   6.621  42.184   8.016
  809POPC   C4A15234   6.555  41.794   7.847
  809POPC   C1B15235   6.441  42.038   8.543
  809POPC   C2B15236   6.184  41.917   8.186
  809POPC   C3B15237   6.174  42.126   7.771
  809POPC   C4B15238   6.237  42.280   7.378
  810POPC   NC315239  32.547   4.736   9.535
  810POPC   PO415240  33.147   5.019   9.812
  810POPC   GL115241  33.166   5.138   9.290
  810POPC   GL215242  32.815   5.117   9.187
  810POPC   C1A15243  33.133   5.021   8.807
  810POPC   D2A15244  32.925   5.083   8.394
  810POPC   C3A15245  33.133   5.014   8.007
  810POPC   C4A15246  33.202   4.905   7.575
  810POPC   C1B15247  32.889   5.480   8.893
  810POPC   C2B15248  32.682   5.580   8.504
  810POPC   C3B15249  32.676   5.418   8.081
  810POPC   C4B15250  33.033   5.468   7.835
  811POPC   NC315251  34.912  13.781   9.861
  811POPC   PO415252  34.277  13.668   9.565
  811POPC   GL115253  34.747  13.663   9.327
  811POPC   GL215254  34.908  13.319   9.290
  811POPC   C1A15255  34.887  13.760   8.845
  811POPC   D2A15256  34.725  13.738   8.365
  811POPC   C3A15257  34.777  13.964   7.924
  811POPC   C4A15258  34.767  13.933   7.440
  811POPC   C1B15259  34.928  13.246   8.823
  811POPC   C2B15260  35.079  13.359   8.395
  811POPC   C3B15261  34.914  13.452   7.962
  811POPC   C4B15262  34.527  13.546   7.694
  812POPC   NC315263  37.509  20.836   9.627
  812POPC   PO415264  37.803  20.250   9.385
  812POPC   GL115265  37.873  20.695   9.230
  812POPC   GL215266  37.537  20.817   9.118
  812POPC   C1A15267  37.961  20.775   8.782
  812POPC   D2A15268  37.659  20.886   8.410
  812POPC   C3A15269  37.566  20.634   8.000
  812POPC   C4A15270  37.734  20.494   7.577
  812POPC   C1B15271  37.234  20.930   8.777
  812POPC   C2B15272  37.184  21.103   8.350
  812POPC   C3B15273  37.193  21.006   7.901
  812POPC   C4B15274  37.276  20.734   7.552
  813POPC   NC315275  40.109  43.564   9.945
  813POPC   PO415276  39.665  43.053   9.627
  813POPC   GL115277  39.945  42.935   9.226
  813POPC   GL215278  39.967  42.626   9.004
  813POPC   C1A15279  39.998  43.104   8.763
  813POPC   D2A15280  40.237  43.244   8.358
  813POPC   C3A15281  40.020  43.307   7.937
  813POPC   C4A15282  40.001  43.028   7.580
  813POPC   C1B15283  39.761  42.675   8.583
  813POPC   C2B15284  39.779  43.012   8.297
  813POPC   C3B15285  39.605  42.990   7.908
  813POPC   C4B15286  39.631  42.690   7.608
  814POPC   NC315287   6.242   4.480   9.483
  814POPC   PO415288   5.568   4.580   9.532
  814POPC   GL115289   5.665   4.350   9.150
  814POPC   GL215290   5.978   4.161   9.193
  814POPC   C1A15291   5.868   4.392   8.732
  814POPC   D2A15292   5.770   4.483   8.296
  814POPC   C3A15293   5.558   4.172   8.073
  814POPC   C4A15294   5.758   4.197   7.667
  814POPC   C1B15295   6.316   4.155   8.864
  814POPC   C2B15296   6.432   4.247   8.438
  814POPC   C3B15297   6.205   4.295   8.020
  814POPC   C4B15298   6.211   4.423   7.569
  815POPC   NC315299  39.829  13.850   9.436
  815POPC   PO415300  40.165  13.242   9.510
  815POPC   GL115301  40.032  13.459   9.193
  815POPC   GL215302  40.216  13.345   8.992
  815POPC   C1A15303  39.847  13.613   8.806
  815POPC   D2A15304  39.864  13.562   8.366
  815POPC   C3A15305  39.971  13.706   7.973
  815POPC   C4A15306  39.911  13.861   7.543
  815POPC   C1B15307  40.369  13.631   8.753
  815POPC   C2B15308  40.435  13.409   8.422
  815POPC   C3B15309  40.430  13.377   8.009
  815POPC   C4B15310  40.363  13.609   7.656
  816POPC   NC315311  27.435  33.350   9.413
  816POPC   PO415312  27.766  33.947   9.506
  816POPC   GL115313  27.655  33.826   9.127
  816POPC   GL215314  27.357  33.947   9.137
  816POPC   C1A15315  27.748  33.518   8.805
  816POPC   D2A15316  27.919  33.314   8.427
  816POPC   C3A15317  27.743  33.560   8.088
  816POPC   C4A15318  27.694  33.860   7.769
  816POPC   C1B15319  27.201  33.696   8.836
  816POPC   C2B15320  27.063  33.853   8.450
  816POPC   C3B15321  27.264  33.832   8.069
  816POPC   C4B15322  27.166  33.706   7.687
  817POPC   NC315323  16.869  13.117   9.457
  817POPC   PO415324  16.364  12.601   9.458
  817POPC   GL115325  16.699  12.735   9.180
  817POPC   GL215326  16.978  12.539   9.178
  817POPC   C1A15327  16.901  12.948   8.820
  817POPC   D2A15328  16.836  12.912   8.379
  817POPC   C3A15329  16.529  13.087   8.117
  817POPC   C4A15330  16.478  12.948   7.718
  817POPC   C1B15331  16.862  12.433   8.742
  817POPC   C2B15332  16.935  12.349   8.302
  817POPC   C3B15333  16.774  12.615   7.961
  817POPC   C4B15334  16.783  12.614   7.482
  818POPC   NC315335  24.534  34.545   9.587
  818POPC   PO415336  23.842  34.519   9.578
  818POPC   GL115337  24.163  34.614   9.216
  818POPC   GL215338  24.457  34.406   9.110
  818POPC   C1A15339  24.123  34.457   8.752
  818POPC   D2A15340  23.983  34.340   8.340
  818POPC   C3A15341  24.282  34.390   8.053
  818POPC   C4A15342  24.400  34.595   7.713
  818POPC   C1B15343  24.588  34.718   8.804
  818POPC   C2B15344  24.710  34.549   8.399
  818POPC   C3B15345  24.780  34.318   8.009
  818POPC   C4B15346  24.652  34.168   7.633
  819POPC   NC315347  35.505   7.094   9.412
  819POPC   PO415348  35.413   6.282   9.575
  819POPC   GL115349  35.170   6.448   9.180
  819POPC   GL215350  35.185   6.818   9.132
  819POPC   C1A15351  35.152   6.520   8.724
  819POPC   D2A15352  35.308   6.441   8.329
  819POPC   C3A15353  35.152   6.693   7.984
  819POPC   C4A15354  35.133   6.675   7.570
  819POPC   C1B15355  35.548   6.854   8.803
  819POPC   C2B15356  35.723   6.763   8.386
  819POPC   C3B15357  35.663   6.593   7.992
  819POPC   C4B15358  35.659   6.752   7.595
  820POPC   NC315359  20.952  37.014   9.375
  820POPC   PO415360  20.549  36.520   9.390
  820POPC   GL115361  20.287  36.794   9.148
  820POPC   GL215362  20.514  37.047   9.059
  820POPC   C1A15363  20.375  36.692   8.723
  820POPC   D2A15364  20.252  36.654   8.334
  820POPC   C3A15365  20.422  36.902   8.041
  820POPC   C4A15366  20.525  36.660   7.720
  820POPC   C1B15367  20.637  37.107   8.613
  820POPC   C2B15368  20.827  36.814   8.339
  820POPC   C3B15369  20.978  36.772   7.931
  820POPC   C4B15370  20.851  37.019   7.575
  821POPC   NC315371  29.224   0.399   9.522
  821POPC   PO415372  28.699   0.706   9.605
  821POPC   GL115373  28.917   0.659   9.177
  821POPC   GL215374  28.917   0.299   9.116
  821POPC   C1A15375  28.974   0.597   8.699
  821POPC   D2A15376  29.277   0.485   8.368
  821POPC   C3A15377  29.141   0.526   7.938
  821POPC   C4A15378  29.348   0.664   7.567
  821POPC   C1B15379  28.872   0.064   8.743
  821POPC   C2B15380  28.830   0.163   8.312
  821POPC   C3B15381  28.802  44.967   7.913
  821POPC   C4B15382  29.052   0.135   7.581
  822POPC   NC315383   4.820  38.472   9.554
  822POPC   PO415384   5.463  38.537   9.570
  822POPC   GL115385   5.175  38.433   9.180
  822POPC   GL215386   4.958  38.722   9.139
  822POPC   C1A15387   5.029  38.240   8.768
  822POPC   D2A15388   5.099  38.016   8.367
  822POPC   C3A15389   5.032  38.224   7.993
  822POPC   C4A15390   5.086  38.366   7.560
  822POPC   C1B15391   5.109  38.741   8.734
  822POPC   C2B15392   4.926  38.669   8.317
  822POPC   C3B15393   4.757  38.642   7.886
  822POPC   C4B15394   4.767  38.724   7.401
  823POPC   NC315395  23.406  21.335   9.465
  823POPC   PO415396  22.855  21.232   9.470
  823POPC   GL115397  23.034  21.369   9.085
  823POPC   GL215398  23.313  21.183   8.979
  823POPC   C1A15399  22.979  21.479   8.627
  823POPC   D2A15400  22.644  21.667   8.332
  823POPC   C3A15401  22.776  21.558   7.919
  823POPC   C4A15402  23.250  21.551   7.785
  823POPC   C1B15403  22.996  20.969   8.761
  823POPC   C2B15404  22.853  20.893   8.368
  823POPC   C3B15405  23.018  21.015   7.958
  823POPC   C4B15406  22.940  21.215   7.576
  824POPC   NC315407  12.467   2.634   9.429
  824POPC   PO415408  12.021   3.177   9.430
  824POPC   GL115409  12.129   2.872   9.128
  824POPC   GL215410  12.466   2.970   9.054
  824POPC   C1A15411  12.142   2.586   8.771
  824POPC   D2A15412  11.860   2.520   8.435
  824POPC   C3A15413  12.052   2.553   8.034
  824POPC   C4A15414  11.911   2.809   7.694
  824POPC   C1B15415  12.571   2.866   8.657
  824POPC   C2B15416  12.366   2.940   8.240
  824POPC   C3B15417  12.381   2.899   7.783
  824POPC   C4B15418  12.246   2.981   7.340
  825POPC   NC315419  40.489  37.551   9.391
  825POPC   PO415420  41.072  37.506   9.815
  825POPC   GL115421  41.015  37.495   9.323
  825POPC   GL215422  40.856  37.817   9.184
  825POPC   C1A15423  40.949  37.453   8.853
  825POPC   D2A15424  40.549  37.355   8.587
  825POPC   C3A15425  40.548  37.551   8.158
  825POPC   C4A15426  40.791  37.468   7.773
  825POPC   C1B15427  40.609  37.843   8.792
  825POPC   C2B15428  40.724  38.183   8.530
  825POPC   C3B15429  40.927  38.288   8.141
  825POPC   C4B15430  40.886  37.987   7.791
  826POPC   NC315431  22.769  40.955   9.536
  826POPC   PO415432  23.279  40.600   9.695
  826POPC   GL115433  23.143  40.812   9.254
  826POPC   GL215434  22.903  40.603   9.152
  826POPC   C1A15435  22.713  40.979   8.910
  826POPC   D2A15436  22.558  41.039   8.488
  826POPC   C3A15437  22.836  40.987   8.139
  826POPC   C4A15438  22.849  40.639   7.859
  826POPC   C1B15439  23.145  40.786   8.754
  826POPC   C2B15440  23.410  40.667   8.433
  826POPC   C3B15441  23.315  40.758   8.050
  826POPC   C4B15442  23.350  40.580   7.723
  827POPC   NC315443  12.234  13.034   9.582
  827POPC   PO415444  12.023  12.417   9.638
  827POPC   GL115445  12.251  12.445   9.271
  827POPC   GL215446  12.488  12.731   9.257
  827POPC   C1A15447  12.108  12.622   8.891
  827POPC   D2A15448  12.065  12.793   8.489
  827POPC   C3A15449  12.156  12.595   8.106
  827POPC   C4A15450  11.915  12.800   7.792
  827POPC   C1B15451  12.538  12.932   8.843
  827POPC   C2B15452  12.514  13.032   8.397
  827POPC   C3B15453  12.216  13.160   8.091
  827POPC   C4B15454  12.133  13.252   7.657
  828POPC   NC315455  22.498  17.398   9.422
  828POPC   PO415456  21.845  17.368   9.503
  828POPC   GL115457  21.999  17.477   9.116
  828POPC   GL215458  22.312  17.636   9.022
  828POPC   C1A15459  22.059  17.333   8.684
  828POPC   D2A15460  21.887  17.519   8.324
  828POPC   C3A15461  22.039  17.304   7.973
  828POPC   C4A15462  22.416  17.169   7.734
  828POPC   C1B15463  22.027  17.851   8.755
  828POPC   C2B15464  22.214  17.940   8.379
  828POPC   C3B15465  22.404  17.702   8.075
  828POPC   C4B15466  22.627  17.869   7.764
  829POPC   NC315467   6.337  20.410   9.654
  829POPC   PO415468   6.866  20.802   9.472
  829POPC   GL115469   6.599  20.864   9.129
  829POPC   GL215470   6.268  20.766   9.272
  829POPC   C1A15471   6.344  20.849   8.781
  829POPC   D2A15472   6.301  20.969   8.397
  829POPC   C3A15473   6.584  20.781   8.140
  829POPC   C4A15474   6.617  20.880   7.724
  829POPC   C1B15475   6.429  20.392   9.019
  829POPC   C2B15476   6.445  20.346   8.582
  829POPC   C3B15477   6.430  20.160   8.187
  829POPC   C4B15478   6.486  20.370   7.804
  830POPC   NC315479   7.146  33.587   9.500
  830POPC   PO415480   7.642  34.053   9.422
  830POPC   GL115481   7.496  33.761   9.165
  830POPC   GL215482   7.184  33.932   9.055
  830POPC   C1A15483   7.411  33.504   8.826
  830POPC   D2A15484   7.174  33.711   8.539
  830POPC   C3A15485   7.358  33.696   8.154
  830POPC   C4A15486   7.219  33.718   7.735
  830POPC   C1B15487   7.495  34.082   8.747
  830POPC   C2B15488   7.670  34.195   8.336
  830POPC   C3B15489   7.532  34.118   7.926
  830POPC   C4B15490   7.666  33.896   7.565
  831POPC   NC315491   8.423  38.294   9.297
  831POPC   PO415492   7.912  38.450   9.719
  831POPC   GL115493   7.914  38.264   9.222
  831POPC   GL215494   8.144  38.513   8.950
  831POPC   C1A15495   7.806  38.200   8.749
  831POPC   D2A15496   7.748  38.062   8.310
  831POPC   C3A15497   7.833  38.367   7.932
  831POPC   C4A15498   7.780  38.756   7.655
  831POPC   C1B15499   8.541  38.642   8.722
  831POPC   C2B15500   8.656  38.598   8.311
  831POPC   C3B15501   8.341  38.444   8.041
  831POPC   C4B15502   8.282  38.586   7.656
  832POPC   NC315503   7.280  10.292   9.915
  832POPC   PO415504   7.443   9.699   9.564
  832POPC   GL115505   7.510   9.973   9.229
  832POPC   GL215506   7.587   9.710   9.062
  832POPC   C1A15507   7.306  10.162   8.852
  832POPC   D2A15508   7.090  10.159   8.450
  832POPC   C3A15509   7.335  10.113   8.064
  832POPC   C4A15510   7.334   9.917   7.664
  832POPC   C1B15511   7.694   9.619   8.659
  832POPC   C2B15512   7.521   9.664   8.256
  832POPC   C3B15513   7.650   9.537   7.864
  832POPC   C4B15514   7.366   9.427   7.557
  833POPC   NC315515   4.130  11.513   9.457
  833POPC   PO415516   4.503  10.999   9.604
  833POPC   GL115517   4.435  11.149   9.237
  833POPC   GL215518   4.096  11.070   9.140
  833POPC   C1A15519   4.662  11.041   8.861
  833POPC   D2A15520   4.433  10.920   8.514
  833POPC   C3A15521   4.557  11.070   8.121
  833POPC   C4A15522   4.573  11.389   7.835
  833POPC   C1B15523   4.260  11.353   8.809
  833POPC   C2B15524   4.319  11.444   8.389
  833POPC   C3B15525   4.096  11.401   8.030
  833POPC   C4B15526   4.144  11.543   7.628
  834POPC   NC315527   1.681  34.597   9.808
  834POPC   PO415528   2.118  34.417   9.227
  834POPC   GL115529   2.048  34.752   8.986
  834POPC   GL215530   1.768  34.680   8.976
  834POPC   C1A15531   1.924  34.951   8.605
  834POPC   D2A15532   1.977  34.640   8.300
  834POPC   C3A15533   1.914  34.807   7.924
  834POPC   C4A15534   2.071  34.773   7.524
  834POPC   C1B15535   1.758  34.360   8.682
  834POPC   C2B15536   1.596  34.163   8.350
  834POPC   C3B15537   1.541  34.441   8.012
  834POPC   C4B15538   1.792  34.373   7.659
  835POPC   NC315539  28.776  30.620   9.899
  835POPC   PO415540  28.301  30.683   9.413
  835POPC   GL115541  28.385  30.942   9.101
  835POPC   GL215542  28.119  31.165   9.074
  835POPC   C1A15543  28.361  30.838   8.667
  835POPC   D2A15544  28.182  30.767   8.279
  835POPC   C3A15545  28.449  30.567   7.975
  835POPC   C4A15546  28.212  30.303   7.663
  835POPC   C1B15547  28.435  31.318   8.769
  835POPC   C2B15548  28.498  31.238   8.307
  835POPC   C3B15549  28.304  31.086   7.906
  835POPC   C4B15550  28.006  30.790   7.786
  836POPC   NC315551  17.191  25.476   9.421
  836POPC   PO415552  17.562  24.985   9.461
  836POPC   GL115553  17.448  25.167   9.098
  836POPC   GL215554  17.670  25.459   9.062
  836POPC   C1A15555  17.235  25.153   8.714
  836POPC   D2A15556  17.333  24.999   8.287
  836POPC   C3A15557  17.281  25.325   7.950
  836POPC   C4A15558  17.135  25.273   7.512
  836POPC   C1B15559  17.851  25.134   8.763
  836POPC   C2B15560  17.840  24.993   8.320
  836POPC   C3B15561  17.824  25.276   7.961
  836POPC   C4B15562  17.722  25.574   7.645
  837POPC   NC315563  41.963  12.678   9.502
  837POPC   PO415564  42.398  13.080   9.662
  837POPC   GL115565  42.247  13.151   9.223
  837POPC   GL215566  42.124  12.845   9.059
  837POPC   C1A15567  42.079  13.262   8.799
  837POPC   D2A15568  42.042  13.021   8.415
  837POPC   C3A15569  42.138  13.254   8.043
  837POPC   C4A15570  42.464  13.115   7.759
  837POPC   C1B15571  42.470  12.917   8.767
  837POPC   C2B15572  42.767  12.597   8.581
  837POPC   C3B15573  42.788  12.490   8.128
  837POPC   C4B15574  42.616  12.635   7.761
  838POPC   NC315575   8.578  11.367   9.190
  838POPC   PO415576   8.232  10.942   9.526
  838POPC   GL115577   8.109  11.070   9.120
  838POPC   GL215578   8.020  11.394   9.083
  838POPC   C1A15579   7.949  10.949   8.729
  838POPC   D2A15580   7.762  10.897   8.323
  838POPC   C3A15581   7.833  11.208   8.035
  838POPC   C4A15582   8.130  11.324   7.754
  838POPC   C1B15583   8.176  11.404   8.639
  838POPC   C2B15584   8.275  11.520   8.202
  838POPC   C3B15585   8.555  11.573   7.833
  838POPC   C4B15586   8.458  11.784   7.423
  839POPC   NC315587  28.354  43.613   9.671
  839POPC   PO415588  28.754  44.060   9.648
  839POPC   GL115589  28.575  43.837   9.244
  839POPC   GL215590  28.324  43.549   9.170
  839POPC   C1A15591  28.552  43.849   8.777
  839POPC   D2A15592  28.681  43.988   8.343
  839POPC   C3A15593  28.414  44.034   7.998
  839POPC   C4A15594  28.391  43.866   7.592
  839POPC   C1B15595  28.082  43.649   8.804
  839POPC   C2B15596  28.118  43.915   8.445
  839POPC   C3B15597  27.980  43.766   8.048
  839POPC   C4B15598  27.936  43.555   7.648
  840POPC   NC315599  42.410  32.362   9.446
  840POPC   PO415600  42.411  31.683   9.617
  840POPC   GL115601  42.449  31.904   9.233
  840POPC   GL215602  42.108  32.065   9.122
  840POPC   C1A15603  42.575  32.151   8.847
  840POPC   D2A15604  42.336  32.175   8.479
  840POPC   C3A15605  42.514  32.241   8.096
  840POPC   C4A15606  42.339  32.089   7.733
  840POPC   C1B15607  42.135  32.462   8.855
  840POPC   C2B15608  42.154  32.647   8.467
  840POPC   C3B15609  42.304  32.760   8.075
  840POPC   C4B15610  42.294  32.647   7.661
  841POPC   NC315611   2.979  37.094   9.670
  841POPC   PO415612   2.631  36.562   9.475
  841POPC   GL115613   2.896  36.765   9.205
  841POPC   GL215614   2.964  37.096   9.167
  841POPC   C1A15615   2.973  36.741   8.778
  841POPC   D2A15616   2.792  36.599   8.415
  841POPC   C3A15617   2.905  36.892   8.117
  841POPC   C4A15618   2.778  36.894   7.697
  841POPC   C1B15619   2.646  37.155   8.847
  841POPC   C2B15620   2.468  37.035   8.439
  841POPC   C3B15621   2.546  37.243   8.047
  841POPC   C4B15622   2.872  37.419   7.743
  842POPC   NC315623  12.991  20.676   9.460
  842POPC   PO415624  12.394  20.807   9.683
  842POPC   GL115625  12.505  20.687   9.253
  842POPC   GL215626  12.642  20.341   9.103
  842POPC   C1A15627  12.380  20.808   8.831
  842POPC   D2A15628  12.514  20.652   8.434
  842POPC   C3A15629  12.489  20.826   8.048
  842POPC   C4A15630  12.603  20.738   7.633
  842POPC   C1B15631  12.847  20.339   8.661
  842POPC   C2B15632  12.977  20.503   8.226
  842POPC   C3B15633  12.968  20.410   7.767
  842POPC   C4B15634  13.042  20.206   7.356
  843POPC   NC315635  28.056  20.672   9.895
  843POPC   PO415636  28.452  20.172   9.657
  843POPC   GL115637  28.576  20.478   9.311
  843POPC   GL215638  28.382  20.787   9.394
  843POPC   C1A15639  28.704  20.453   8.862
  843POPC   D2A15640  28.527  20.624   8.479
  843POPC   C3A15641  28.632  20.473   8.085
  843POPC   C4A15642  28.496  20.668   7.722
  843POPC   C1B15643  28.293  20.747   8.942
  843POPC   C2B15644  28.134  20.942   8.538
  843POPC   C3B15645  27.997  20.854   8.119
  843POPC   C4B15646  28.116  20.983   7.738
  844POPC   NC315647  41.013  35.886   9.402
  844POPC   PO415648  40.623  36.385   9.468
  844POPC   GL115649  40.756  36.178   9.092
  844POPC   GL215650  41.098  36.298   9.127
  844POPC   C1A15651  40.866  35.879   8.768
  844POPC   D2A15652  41.065  35.778   8.370
  844POPC   C3A15653  40.798  35.851   8.032
  844POPC   C4A15654  40.584  36.075   7.697
  844POPC   C1B15655  41.288  36.174   8.734
  844POPC   C2B15656  41.247  36.310   8.302
  844POPC   C3B15657  41.236  36.120   7.906
  844POPC   C4B15658  41.047  35.903   7.587
  845POPC   NC315659   8.603  44.968   9.494
  845POPC   PO415660   9.285  44.668   9.515
  845POPC   GL115661   9.029  44.904   9.249
  845POPC   GL215662   8.819  44.684   9.111
  845POPC   C1A15663   9.009   0.015   8.805
  845POPC   D2A15664   9.108  44.821   8.414
  845POPC   C3A15665   8.957  44.935   8.006
  845POPC   C4A15666   9.019  44.747   7.592
  845POPC   C1B15667   8.802  44.546   8.731
  845POPC   C2B15668   8.637  44.638   8.344
  845POPC   C3B15669   8.698  44.511   7.941
  845POPC   C4B15670   8.455  44.275   7.717
  846POPC   NC315671  22.731  14.960   9.558
  846POPC   PO415672  23.393  15.182   9.618
  846POPC   GL115673  23.088  15.278   9.242
  846POPC   GL215674  22.813  15.089   9.087
  846POPC   C1A15675  22.973  15.497   8.820
  846POPC   D2A15676  22.835  15.314   8.403
  846POPC   C3A15677  23.123  15.359   8.029
  846POPC   C4A15678  23.067  15.324   7.570
  846POPC   C1B15679  23.076  15.011   8.767
  846POPC   C2B15680  23.117  14.866   8.357
  846POPC   C3B15681  22.930  14.867   7.956
  846POPC   C4B15682  23.129  14.714   7.601
  847POPC   NC315683  37.333  17.366   9.382
  847POPC   PO415684  37.987  17.150   9.463
  847POPC   GL115685  37.849  17.378   9.106
  847POPC   GL215686  37.642  17.682   9.149
  847POPC   C1A15687  37.620  17.309   8.733
  847POPC   D2A15688  37.462  17.517   8.364
  847POPC   C3A15689  37.734  17.460   7.993
  847POPC   C4A15690  37.626  17.160   7.684
  847POPC   C1B15691  37.601  17.818   8.750
  847POPC   C2B15692  37.933  17.684   8.479
  847POPC   C3B15693  38.127  17.804   8.127
  847POPC   C4B15694  37.967  17.893   7.711
  848POPC   NC315695  37.467  31.705   9.656
  848POPC   PO415696  36.774  31.594   9.569
  848POPC   GL115697  36.657  31.431   9.174
  848POPC   GL215698  36.968  31.285   9.062
  848POPC   C1A15699  36.548  31.235   8.795
  848POPC   D2A15700  36.667  31.429   8.456
  848POPC   C3A15701  36.805  31.331   8.068
  848POPC   C4A15702  36.689  31.535   7.721
  848POPC   C1B15703  36.961  31.664   8.813
  848POPC   C2B15704  37.106  31.677   8.371
  848POPC   C3B15705  37.169  31.683   7.905
  848POPC   C4B15706  37.134  31.455   7.487
  849POPC   NC315707  27.013  14.411   9.531
  849POPC   PO415708  26.561  13.869   9.486
  849POPC   GL115709  26.739  14.153   9.149
  849POPC   GL215710  26.622  14.506   9.136
  849POPC   C1A15711  26.651  14.205   8.695
  849POPC   D2A15712  26.641  14.019   8.280
  849POPC   C3A15713  26.840  14.238   7.929
  849POPC   C4A15714  26.640  14.430   7.545
  849POPC   C1B15715  26.834  14.676   8.760
  849POPC   C2B15716  26.825  14.608   8.291
  849POPC   C3B15717  26.979  14.722   7.862
  849POPC   C4B15718  27.143  14.429   7.532
  850POPC   NC315719  21.381   8.485   9.729
  850POPC   PO415720  21.087   9.093   9.653
  850POPC   GL115721  21.365   8.846   9.303
  850POPC   GL215722  21.536   9.062   9.089
  850POPC   C1A15723  21.279   8.706   8.836
  850POPC   D2A15724  21.037   8.860   8.464
  850POPC   C3A15725  21.172   8.827   8.030
  850POPC   C4A15726  21.422   8.882   7.664
  850POPC   C1B15727  21.336   9.225   8.735
  850POPC   C2B15728  21.488   9.396   8.365
  850POPC   C3B15729  21.441   9.302   7.949
  850POPC   C4B15730  21.061   9.271   7.766
  851POPC   NC315731  17.932  15.588   9.438
  851POPC   PO415732  17.644  16.233   9.422
  851POPC   GL115733  17.471  15.870   9.204
  851POPC   GL215734  17.158  15.817   9.031
  851POPC   C1A15735  17.572  15.738   8.771
  851POPC   D2A15736  17.395  15.877   8.387
  851POPC   C3A15737  17.603  16.130   8.097
  851POPC   C4A15738  17.505  15.860   7.775
  851POPC   C1B15739  17.001  15.741   8.682
  851POPC   C2B15740  16.877  15.925   8.304
  851POPC   C3B15741  17.016  16.002   7.879
  851POPC   C4B15742  17.127  15.917   7.443
  852POPC   NC315743  20.310   8.228   9.662
  852POPC   PO415744  21.027   8.252   9.541
  852POPC   GL115745  20.685   8.187   9.236
  852POPC   GL215746  20.862   8.409   9.042
  852POPC   C1A15747  20.555   8.092   8.787
  852POPC   D2A15748  20.347   8.393   8.498
  852POPC   C3A15749  20.333   8.300   8.052
  852POPC   C4A15750  20.468   8.445   7.684
  852POPC   C1B15751  20.930   8.379   8.613
  852POPC   C2B15752  20.772   8.165   8.269
  852POPC   C3B15753  20.891   8.257   7.880
  852POPC   C4B15754  21.038   8.529   7.593
  853POPC   NC315755  24.362  43.419   9.571
  853POPC   PO415756  23.882  43.077   9.509
  853POPC   GL115757  24.169  43.057   9.111
  853POPC   GL215758  23.962  43.018   8.826
  853POPC   C1A15759  24.448  42.984   8.690
  853POPC   D2A15760  24.790  43.052   8.347
  853POPC   C3A15761  24.687  42.935   7.901
  853POPC   C4A15762  24.592  42.775   7.484
  853POPC   C1B15763  24.096  43.330   8.527
  853POPC   C2B15764  24.319  43.236   8.136
  853POPC   C3B15765  24.156  43.014   7.772
  853POPC   C4B15766  24.062  43.193   7.339
  854POPC   NC315767  17.700  13.182   9.398
  854POPC   PO415768  17.207  12.722   9.580
  854POPC   GL115769  17.278  12.958   9.197
  854POPC   GL215770  17.561  12.759   9.159
  854POPC   C1A15771  17.423  13.106   8.767
  854POPC   D2A15772  17.734  12.956   8.413
  854POPC   C3A15773  17.633  13.046   7.965
  854POPC   C4A15774  17.326  13.359   7.819
  854POPC   C1B15775  17.325  12.607   8.830
  854POPC   C2B15776  17.277  12.703   8.469
  854POPC   C3B15777  17.324  12.652   8.084
  854POPC   C4B15778  17.166  12.858   7.740
  855POPC   NC315779  20.192  35.212   9.767
  855POPC   PO415780  19.598  35.261   9.437
  855POPC   GL115781  19.687  35.337   9.019
  855POPC   GL215782  19.449  35.204   8.811
  855POPC   C1A15783  19.979  35.400   8.694
  855POPC   D2A15784  20.129  35.293   8.289
  855POPC   C3A15785  19.988  35.391   7.877
  855POPC   C4A15786  20.193  35.119   7.569
  855POPC   C1B15787  19.505  35.596   8.574
  855POPC   C2B15788  19.588  35.617   8.144
  855POPC   C3B15789  19.483  35.280   7.866
  855POPC   C4B15790  19.675  35.101   7.522
  856POPC   NC315791  42.639  38.289   9.910
  856POPC   PO415792  42.213  38.417   9.422
  856POPC   GL115793  42.305  38.482   9.018
  856POPC   GL215794  42.557  38.232   9.004
  856POPC   C1A15795  42.270  38.449   8.575
  856POPC   D2A15796  42.182  38.570   8.154
  856POPC   C3A15797  42.126  38.225   7.878
  856POPC   C4A15798  42.376  38.049   7.625
  856POPC   C1B15799  42.764  38.522   8.711
  856POPC   C2B15800  42.663  38.638   8.290
  856POPC   C3B15801  42.583  38.496   7.844
  856POPC   C4B15802  42.648  38.418   7.402
  857POPC   NC315803  21.276   6.264   9.265
  857POPC   PO415804  21.498   6.835   9.541
  857POPC   GL115805  21.644   6.989   9.129
  857POPC   GL215806  21.400   7.138   8.967
  857POPC   C1A15807  21.690   6.785   8.723
  857POPC   D2A15808  21.867   6.698   8.322
  857POPC   C3A15809  21.554   6.526   7.989
  857POPC   C4A15810  21.230   6.318   7.686
  857POPC   C1B15811  20.951   7.088   8.785
  857POPC   C2B15812  20.866   6.919   8.353
  857POPC   C3B15813  21.056   6.699   7.999
  857POPC   C4B15814  21.149   6.813   7.564
  858POPC   NC315815  17.500  42.566   9.513
  858POPC   PO415816  17.433  41.949   9.241
  858POPC   GL115817  17.500  42.309   9.072
  858POPC   GL215818  17.177  42.481   9.132
  858POPC   C1A15819  17.667  42.263   8.689
  858POPC   D2A15820  17.813  42.357   8.309
  858POPC   C3A15821  17.661  42.136   7.950
  858POPC   C4A15822  17.724  42.196   7.492
  858POPC   C1B15823  17.186  42.464   8.691
  858POPC   C2B15824  17.297  42.225   8.335
  858POPC   C3B15825  17.144  42.082   7.970
  858POPC   C4B15826  17.229  42.251   7.604
  859POPC   NC315827  28.268  37.567   9.716
  859POPC   PO415828  27.948  38.163   9.565
  859POPC   GL115829  28.219  37.884   9.258
  859POPC   GL215830  28.531  38.041   9.176
  859POPC   C1A15831  28.222  37.734   8.784
  859POPC   D2A15832  28.091  37.680   8.308
  859POPC   C3A15833  28.257  37.418   7.927
  859POPC   C4A15834  28.280  37.483   7.479
  859POPC   C1B15835  28.427  38.208   8.753
  859POPC   C2B15836  28.448  38.072   8.301
  859POPC   C3B15837  28.479  37.883   7.851
  859POPC   C4B15838  28.369  37.966   7.386
  860POPC   NC315839  25.353   3.162   9.358
  860POPC   PO415840  25.677   3.602   9.465
  860POPC   GL115841  25.506   3.813   9.109
  860POPC   GL215842  25.416   3.500   8.974
  860POPC   C1A15843  25.402   3.880   8.656
  860POPC   D2A15844  25.566   3.684   8.273
  860POPC   C3A15845  25.280   3.619   7.944
  860POPC   C4A15846  24.895   3.801   7.808
  860POPC   C1B15847  25.335   3.322   8.559
  860POPC   C2B15848  25.479   3.186   8.134
  860POPC   C3B15849  25.563   3.259   7.667
  860POPC   C4B15850  25.533   3.374   7.186
  861POPC   NC315851  35.173  20.994   9.356
  861POPC   PO415852  35.349  21.691   9.405
  861POPC   GL115853  35.538  21.566   9.059
  861POPC   GL215854  35.673  21.206   9.042
  861POPC   C1A15855  35.278  21.374   8.773
  861POPC   D2A15856  35.116  21.160   8.454
  861POPC   C3A15857  35.351  21.194   8.108
  861POPC   C4A15858  35.194  21.262   7.716
  861POPC   C1B15859  35.802  21.422   8.650
  861POPC   C2B15860  35.860  21.259   8.234
  861POPC   C3B15861  35.748  21.213   7.772
  861POPC   C4B15862  35.760  21.072   7.313
  862POPC   NC315863  24.673  14.834   9.501
  862POPC   PO415864  24.311  15.391   9.655
  862POPC   GL115865  24.285  15.471   9.250
  862POPC   GL215866  24.282  15.121   9.206
  862POPC   C1A15867  24.486  15.457   8.851
  862POPC   D2A15868  24.687  15.198   8.562
  862POPC   C3A15869  24.561  15.185   8.151
  862POPC   C4A15870  24.707  15.143   7.762
  862POPC   C1B15871  24.013  15.269   8.856
  862POPC   C2B15872  24.158  15.397   8.448
  862POPC   C3B15873  24.185  15.491   8.004
  862POPC   C4B15874  24.157  15.137   7.729
  863POPC   NC315875   9.721   3.291   9.558
  863POPC   PO415876   9.893   3.958   9.561
  863POPC   GL115877   9.765   3.685   9.207
  863POPC   GL215878   9.984   3.382   9.125
  863POPC   C1A15879   9.552   3.606   8.813
  863POPC   D2A15880   9.458   3.809   8.415
  863POPC   C3A15881   9.433   3.583   8.054
  863POPC   C4A15882   9.763   3.429   7.809
  863POPC   C1B15883   9.890   3.160   8.735
  863POPC   C2B15884   9.785   3.192   8.276
  863POPC   C3B15885  10.013   3.006   7.895
  863POPC   C4B15886  10.234   3.285   7.629
  864POPC   NC315887   7.879  19.473   9.295
  864POPC   PO415888   7.324  19.965   9.451
  864POPC   GL115889   7.400  20.119   9.055
  864POPC   GL215890   7.547  19.781   9.000
  864POPC   C1A15891   7.494  20.100   8.603
  864POPC   D2A15892   7.342  19.787   8.342
  864POPC   C3A15893   7.364  19.860   7.912
  864POPC   C4A15894   7.716  19.843   7.638
  864POPC   C1B15895   7.119  19.682   8.807
  864POPC   C2B15896   6.953  19.471   8.403
  864POPC   C3B15897   6.988  19.524   7.955
  864POPC   C4B15898   7.145  19.595   7.513
  865POPC   NC315899  44.288  11.207   9.421
  865POPC   PO415900  44.877  11.503   9.400
  865POPC   GL115901  44.639  11.428   9.066
  865POPC   GL215902  44.671  11.095   9.101
  865POPC   C1A15903  44.309  11.288   8.770
  865POPC   D2A15904  44.211  11.153   8.371
  865POPC   C3A15905  44.460  11.331   8.027
  865POPC   C4A15906  44.229  11.417   7.628
  865POPC   C1B15907  44.795  11.151   8.666
  865POPC   C2B15908  44.664  10.906   8.324
  865POPC   C3B15909  44.844  10.969   7.931
  865POPC   C4B15910  44.951  11.376   7.779
  866POPC   NC315911   3.373  22.037   9.553
  866POPC   PO415912   3.817  22.444   9.608
  866POPC   GL115913   3.596  22.349   9.199
  866POPC   GL215914   3.386  22.094   9.024
  866POPC   C1A15915   3.750  22.384   8.771
  866POPC   D2A15916   3.900  22.209   8.374
  866POPC   C3A15917   3.556  22.204   8.092
  866POPC   C4A15918   3.426  22.352   7.669
  866POPC   C1B15919   3.632  21.876   8.678
  866POPC   C2B15920   3.512  21.717   8.296
  866POPC   C3B15921   3.156  21.884   8.066
  866POPC   C4B15922   3.029  22.013   7.666
  867POPC   NC315923  23.012  12.782   9.616
  867POPC   PO415924  23.080  13.391   9.242
  867POPC   GL115925  22.878  13.018   9.145
  867POPC   GL215926  23.075  12.708   9.138
  867POPC   C1A15927  22.791  13.021   8.717
  867POPC   D2A15928  23.024  12.881   8.362
  867POPC   C3A15929  22.787  13.084   8.090
  867POPC   C4A15930  22.622  13.024   7.718
  867POPC   C1B15931  22.967  12.555   8.785
  867POPC   C2B15932  22.620  12.577   8.467
  867POPC   C3B15933  22.689  12.552   8.014
  867POPC   C4B15934  23.083  12.625   7.778
  868POPC   NC315935   9.808  21.256   9.711
  868POPC   PO415936  10.302  21.356   9.246
  868POPC   GL115937   9.977  21.479   9.028
  868POPC   GL215938   9.673  21.365   9.199
  868POPC   C1A15939   9.991  21.273   8.626
  868POPC   D2A15940  10.136  21.115   8.254
  868POPC   C3A15941   9.942  21.406   8.047
  868POPC   C4A15942   9.860  21.587   7.701
  868POPC   C1B15943   9.532  21.463   8.779
  868POPC   C2B15944   9.502  21.365   8.320
  868POPC   C3B15945   9.523  21.219   7.870
  868POPC   C4B15946   9.368  21.398   7.479
  869POPC   NC315947  31.104  32.292   9.810
  869POPC   PO415948  31.674  31.969   9.605
  869POPC   GL115949  31.686  32.155   9.175
  869POPC   GL215950  31.571  32.473   9.004
  869POPC   C1A15951  31.902  32.159   8.778
  869POPC   D2A15952  32.029  32.033   8.349
  869POPC   C3A15953  31.653  32.068   8.116
  869POPC   C4A15954  31.559  32.160   7.713
  869POPC   C1B15955  31.260  32.383   8.645
  869POPC   C2B15956  31.186  32.409   8.181
  869POPC   C3B15957  31.206  32.579   7.764
  869POPC   C4B15958  31.088  32.641   7.289
  870POPC   NC315959  10.680  42.904   9.415
  870POPC   PO415960  10.158  43.364   9.540
  870POPC   GL115961  10.404  43.272   9.161
  870POPC   GL215962  10.078  43.338   9.042
  870POPC   C1A15963  10.724  43.128   8.784
  870POPC   D2A15964  11.005  43.226   8.405
  870POPC   C3A15965  10.842  43.140   8.001
  870POPC   C4A15966  10.619  43.210   7.611
  870POPC   C1B15967  10.208  43.097   8.707
  870POPC   C2B15968  10.447  42.889   8.383
  870POPC   C3B15969  10.360  42.925   7.946
  870POPC   C4B15970  10.113  43.213   7.704
  871POPC   NC315971  34.505  40.489   9.665
  871POPC   PO415972  34.760  40.015   9.922
  871POPC   GL115973  34.673  40.065   9.415
  871POPC   GL215974  34.801  40.373   9.226
  871POPC   C1A15975  34.498  40.084   8.958
  871POPC   D2A15976  34.670  39.968   8.541
  871POPC   C3A15977  34.510  40.051   8.106
  871POPC   C4A15978  34.594  39.799   7.718
  871POPC   C1B15979  34.939  40.334   8.800
  871POPC   C2B15980  34.875  40.388   8.332
  871POPC   C3B15981  34.924  40.228   7.891
  871POPC   C4B15982  34.751  40.206   7.455
  872POPC   NC315983  39.138  21.692   9.347
  872POPC   PO415984  39.215  22.379   9.535
  872POPC   GL115985  39.201  22.177   9.148
  872POPC   GL215986  39.501  21.994   9.069
  872POPC   C1A15987  38.909  22.162   8.809
  872POPC   D2A15988  38.909  22.445   8.461
  872POPC   C3A15989  38.878  22.329   8.028
  872POPC   C4A15990  39.167  22.452   7.726
  872POPC   C1B15991  39.432  22.282   8.691
  872POPC   C2B15992  39.424  22.406   8.243
  872POPC   C3B15993  39.664  22.382   7.858
  872POPC   C4B15994  39.540  22.177   7.494
  873POPC   NC315995  25.731  33.712   9.661
  873POPC   PO415996  26.372  33.658   9.956
  873POPC   GL115997  26.207  33.802   9.481
  873POPC   GL215998  26.400  33.777   9.210
  873POPC   C1A15999  25.945  33.765   9.011
  873POPC   D2A16000  26.038  33.705   8.538
  873POPC   C3A16001  25.847  33.648   8.105
  873POPC   C4A16002  26.001  33.458   7.710
  873POPC   C1B16003  26.351  34.030   8.814
  873POPC   C2B16004  26.228  34.202   8.419
  873POPC   C3B16005  26.420  34.162   8.054
  873POPC   C4B16006  26.288  33.861   7.806
  874POPC   NC316007  34.891   1.204   9.279
  874POPC   PO416008  34.351   1.199   9.704
  874POPC   GL116009  34.356   1.179   9.217
  874POPC   GL216010  34.490   1.461   8.993
  874POPC   C1A16011  34.479   1.000   8.778
  874POPC   D2A16012  34.794   0.998   8.448
  874POPC   C3A16013  34.522   0.993   8.109
  874POPC   C4A16014  34.461   1.116   7.695
  874POPC   C1B16015  34.592   1.458   8.568
  874POPC   C2B16016  34.784   1.420   8.173
  874POPC   C3B16017  34.894   1.367   7.778
  874POPC   C4B16018  34.712   1.737   7.693
  875POPC   NC316019   6.989  10.894   9.520
  875POPC   PO416020   7.588  10.601   9.701
  875POPC   GL116021   7.454  10.487   9.260
  875POPC   GL216022   7.342  10.772   9.161
  875POPC   C1A16023   7.620  10.556   8.792
  875POPC   D2A16024   7.441  10.520   8.389
  875POPC   C3A16025   7.718  10.472   8.030
  875POPC   C4A16026   7.517  10.395   7.644
  875POPC   C1B16027   7.120  10.691   8.766
  875POPC   C2B16028   7.115  10.897   8.351
  875POPC   C3B16029   7.292  10.769   7.946
  875POPC   C4B16030   7.298  10.955   7.538
  876POPC   NC316031  25.336  31.485   9.539
  876POPC   PO416032  24.748  31.887   9.561
  876POPC   GL116033  25.032  31.818   9.160
  876POPC   GL216034  25.099  31.453   9.065
  876POPC   C1A16035  25.191  31.810   8.690
  876POPC   D2A16036  25.226  31.552   8.295
  876POPC   C3A16037  25.065  31.601   7.861
  876POPC   C4A16038  24.935  31.495   7.409
  876POPC   C1B16039  25.485  31.392   8.792
  876POPC   C2B16040  25.581  31.197   8.375
  876POPC   C3B16041  25.489  31.231   7.925
  876POPC   C4B16042  25.720  31.080   7.529
  877POPC   NC316043   1.290  13.947   9.522
  877POPC   PO416044   1.215  14.652   9.566
  877POPC   GL116045   1.289  14.381   9.236
  877POPC   GL216046   1.047  14.160   9.117
  877POPC   C1A16047   1.284  14.464   8.799
  877POPC   D2A16048   1.342  14.765   8.519
  877POPC   C3A16049   1.315  14.719   8.064
  877POPC   C4A16050   1.598  14.557   7.745
  877POPC   C1B16051   0.828  14.258   8.747
  877POPC   C2B16052   1.028  14.181   8.348
  877POPC   C3B16053   0.913  14.336   7.955
  877POPC   C4B16054   1.112  14.480   7.650
  878POPC   NC316055  43.460  14.754   9.498
  878POPC   PO416056  42.815  14.628   9.557
  878POPC   GL116057  42.968  14.689   9.146
  878POPC   GL216058  43.177  14.426   9.130
  878POPC   C1A16059  42.817  14.518   8.742
  878POPC   D2A16060  42.686  14.372   8.320
  878POPC   C3A16061  43.044  14.370   8.073
  878POPC   C4A16062  43.354  14.561   7.877
  878POPC   C1B16063  43.386  14.161   8.838
  878POPC   C2B16064  43.458  14.261   8.411
  878POPC   C3B16065  43.469  14.059   8.019
  878POPC   C4B16066  43.356  14.112   7.605
  879POPC   NC316067  34.816  41.197   9.379
  879POPC   PO416068  34.335  40.905   9.757
  879POPC   GL116069  34.483  40.818   9.278
  879POPC   GL216070  34.468  41.109   9.039
  879POPC   C1A16071  34.516  40.638   8.835
  879POPC   D2A16072  34.461  40.814   8.398
  879POPC   C3A16073  34.600  40.629   7.975
  879POPC   C4A16074  34.331  40.415   7.650
  879POPC   C1B16075  34.716  41.219   8.663
  879POPC   C2B16076  34.831  41.113   8.224
  879POPC   C3B16077  34.876  41.097   7.779
  879POPC   C4B16078  34.901  41.366   7.424
  880POPC   NC316079   9.909  28.799   9.785
  880POPC   PO416080  10.013  28.138   9.687
  880POPC   GL116081   9.862  28.236   9.273
  880POPC   GL216082  10.198  28.286   9.150
  880POPC   C1A16083   9.549  28.128   8.911
  880POPC   D2A16084   9.441  28.338   8.492
  880POPC   C3A16085   9.398  28.176   8.059
  880POPC   C4A16086   9.504  28.459   7.676
  880POPC   C1B16087  10.002  28.309   8.776
  880POPC   C2B16088   9.911  28.173   8.376
  880POPC   C3B16089   9.838  28.424   8.068
  880POPC   C4B16090   9.964  28.680   7.760
  881POPC   NC316091  25.112  24.045   9.394
  881POPC   PO416092  25.475  23.409   9.385
  881POPC   GL116093  25.108  23.593   9.161
  881POPC   GL216094  25.318  23.607   8.895
  881POPC   C1A16095  24.862  23.802   8.804
  881POPC   D2A16096  25.083  23.841   8.404
  881POPC   C3A16097  24.889  23.867   7.999
  881POPC   C4A16098  25.010  23.731   7.601
  881POPC   C1B16099  25.613  23.895   8.731
  881POPC   C2B16100  25.806  23.728   8.367
  881POPC   C3B16101  25.665  23.623   7.976
  881POPC   C4B16102  25.403  23.954   7.851
  882POPC   NC316103   0.088  31.456   9.513
  882POPC   PO416104   0.783  31.553   9.670
  882POPC   GL116105   0.699  31.725   9.239
  882POPC   GL216106   0.438  31.508   9.132
  882POPC   C1A16107   0.602  31.838   8.770
  882POPC   D2A16108   0.294  31.851   8.416
  882POPC   C3A16109   0.329  31.674   8.030
  882POPC   C4A16110   0.359  31.779   7.629
  882POPC   C1B16111   0.135  31.584   8.801
  882POPC   C2B16112   0.047  31.407   8.381
  882POPC   C3B16113   0.063  31.253   7.933
  882POPC   C4B16114   0.243  31.307   7.499
  883POPC   NC316115  10.785   5.294   9.722
  883POPC   PO416116  11.454   5.021   9.513
  883POPC   GL116117  11.293   5.089   9.128
  883POPC   GL216118  11.262   4.766   9.027
  883POPC   C1A16119  11.111   5.181   8.730
  883POPC   D2A16120  11.140   4.946   8.331
  883POPC   C3A16121  11.103   5.198   7.974
  883POPC   C4A16122  10.864   5.185   7.561
  883POPC   C1B16123  11.520   4.872   8.685
  883POPC   C2B16124  11.529   4.613   8.348
  883POPC   C3B16125  11.313   4.608   7.979
  883POPC   C4B16126  11.394   4.890   7.718
  884POPC   NC316127  28.203  33.996   9.618
  884POPC   PO416128  28.644  33.468   9.559
  884POPC   GL116129  28.509  33.691   9.211
  884POPC   GL216130  28.150  33.703   9.205
  884POPC   C1A16131  28.582  33.802   8.763
  884POPC   D2A16132  28.519  33.966   8.335
  884POPC   C3A16133  28.674  33.706   7.984
  884POPC   C4A16134  28.783  33.295   7.931
  884POPC   C1B16135  28.077  33.925   8.833
  884POPC   C2B16136  28.060  33.781   8.429
  884POPC   C3B16137  28.176  33.815   7.985
  884POPC   C4B16138  28.467  34.147   7.811
  885POPC   NC316139  19.716  35.713   9.374
  885POPC   PO416140  20.188  36.032   9.676
  885POPC   GL116141  19.929  36.146   9.239
  885POPC   GL216142  20.146  36.318   9.039
  885POPC   C1A16143  19.668  36.214   8.807
  885POPC   D2A16144  19.867  36.296   8.355
  885POPC   C3A16145  19.699  36.171   7.917
  885POPC   C4A16146  19.637  35.766   7.644
  885POPC   C1B16147  20.067  35.925   8.790
  885POPC   C2B16148  20.002  35.789   8.383
  885POPC   C3B16149  20.094  35.880   7.990
  885POPC   C4B16150  20.215  36.286   7.857
  886POPC   NC316151  10.989  43.747   9.536
  886POPC   PO416152  11.431  44.284   9.725
  886POPC   GL116153  11.458  44.082   9.316
  886POPC   GL216154  11.104  44.107   9.215
  886POPC   C1A16155  11.547  43.957   8.866
  886POPC   D2A16156  11.346  43.985   8.459
  886POPC   C3A16157  11.451  43.961   8.032
  886POPC   C4A16158  11.214  44.007   7.651
  886POPC   C1B16159  11.033  43.832   8.857
  886POPC   C2B16160  10.902  43.730   8.447
  886POPC   C3B16161  10.920  43.847   8.029
  886POPC   C4B16162  10.882  43.627   7.601
  887POPC   NC316163  31.062  22.544   9.508
  887POPC   PO416164  31.690  22.244   9.559
  887POPC   GL116165  31.507  22.503   9.228
  887POPC   GL216166  31.327  22.811   9.157
  887POPC   C1A16167  31.507  22.496   8.787
  887POPC   D2A16168  31.576  22.797   8.480
  887POPC   C3A16169  31.501  22.736   8.054
  887POPC   C4A16170  31.675  22.997   7.757
  887POPC   C1B16171  31.158  22.946   8.745
  887POPC   C2B16172  31.083  22.967   8.287
  887POPC   C3B16173  31.129  22.999   7.816
  887POPC   C4B16174  31.303  23.176   7.422
  888POPC   NC316175   1.427   6.472   9.385
  888POPC   PO416176   0.956   6.636   9.778
  888POPC   GL116177   0.967   6.744   9.281
  888POPC   GL216178   1.298   6.958   9.235
  888POPC   C1A16179   0.952   6.563   8.805
  888POPC   D2A16180   1.265   6.479   8.498
  888POPC   C3A16181   1.199   6.336   8.059
  888POPC   C4A16182   1.065   6.607   7.749
  888POPC   C1B16183   1.305   6.924   8.790
  888POPC   C2B16184   1.140   6.991   8.367
  888POPC   C3B16185   1.347   6.970   7.969
  888POPC   C4B16186   1.514   6.784   7.580
  889POPC   NC316187  17.432  34.380   9.509
  889POPC   PO416188  17.117  34.948   9.241
  889POPC   GL116189  17.487  34.743   8.997
  889POPC   GL216190  17.498  34.381   9.006
  889POPC   C1A16191  17.733  34.610   8.630
  889POPC   D2A16192  17.490  34.289   8.400
  889POPC   C3A16193  17.257  34.512   8.076
  889POPC   C4A16194  17.380  34.896   7.757
  889POPC   C1B16195  17.841  34.126   8.746
  889POPC   C2B16196  18.000  34.199   8.309
  889POPC   C3B16197  17.777  34.332   7.939
  889POPC   C4B16198  17.469  34.407   7.626
  890POPC   NC316199  36.646  25.174   9.518
  890POPC   PO416200  35.996  25.361   9.470
  890POPC   GL116201  36.254  25.236   9.166
  890POPC   GL216202  36.498  25.540   9.195
  890POPC   C1A16203  36.062  25.081   8.777
  890POPC   D2A16204  36.154  24.807   8.437
  890POPC   C3A16205  36.072  25.012   8.084
  890POPC   C4A16206  36.021  25.090   7.672
  890POPC   C1B16207  36.306  25.552   8.786
  890POPC   C2B16208  36.207  25.418   8.370
  890POPC   C3B16209  36.215  25.507   7.915
  890POPC   C4B16210  36.087  25.564   7.482
  891POPC   NC316211   2.367   6.658   9.102
  891POPC   PO416212   1.851   6.668   9.433
  891POPC   GL116213   1.780   6.788   9.044
  891POPC   GL216214   1.832   6.429   8.982
  891POPC   C1A16215   1.766   6.838   8.591
  891POPC   D2A16216   1.652   6.627   8.195
  891POPC   C3A16217   1.937   6.712   7.858
  891POPC   C4A16218   2.314   6.942   7.773
  891POPC   C1B16219   2.056   6.413   8.586
  891POPC   C2B16220   2.313   6.485   8.210
  891POPC   C3B16221   2.231   6.305   7.795
  891POPC   C4B16222   1.900   6.400   7.444
  892POPC   NC316223  16.276   1.395   9.451
  892POPC   PO416224  16.818   0.899   9.459
  892POPC   GL116225  16.942   1.140   9.153
  892POPC   GL216226  16.736   1.460   9.141
  892POPC   C1A16227  16.795   1.022   8.773
  892POPC   D2A16228  16.527   0.866   8.512
  892POPC   C3A16229  16.673   0.834   8.075
  892POPC   C4A16230  16.805   1.018   7.697
  892POPC   C1B16231  16.431   1.405   8.782
  892POPC   C2B16232  16.364   1.333   8.327
  892POPC   C3B16233  16.598   1.423   7.943
  892POPC   C4B16234  16.554   1.441   7.479
  893POPC   NC316235  17.582   2.870   9.399
  893POPC   PO416236  17.280   2.367   9.547
  893POPC   GL116237  17.345   2.511   9.079
  893POPC   GL216238  17.413   2.881   8.940
  893POPC   C1A16239  17.540   2.492   8.631
  893POPC   D2A16240  17.774   2.313   8.256
  893POPC   C3A16241  17.854   2.614   7.915
  893POPC   C4A16242  17.704   3.063   7.799
  893POPC   C1B16243  17.396   2.988   8.509
  893POPC   C2B16244  17.441   2.731   8.165
  893POPC   C3B16245  17.394   2.668   7.737
  893POPC   C4B16246  17.233   2.460   7.423
  894POPC   NC316247  23.759  31.181   9.616
  894POPC   PO416248  23.767  31.829   9.747
  894POPC   GL116249  23.589  31.560   9.331
  894POPC   GL216250  23.816  31.542   9.078
  894POPC   C1A16251  23.451  31.234   8.960
  894POPC   D2A16252  23.518  31.105   8.504
  894POPC   C3A16253  23.580  31.366   8.134
  894POPC   C4A16254  23.738  31.285   7.695
  894POPC   C1B16255  23.718  31.584   8.654
  894POPC   C2B16256  24.038  31.434   8.392
  894POPC   C3B16257  24.129  31.455   7.985
  894POPC   C4B16258  24.066  31.637   7.567
  895POPC   NC316259  42.748  25.675   9.501
  895POPC   PO416260  43.121  25.167   9.530
  895POPC   GL116261  42.959  25.014   9.156
  895POPC   GL216262  42.774  25.295   9.139
  895POPC   C1A16263  43.085  25.144   8.724
  895POPC   D2A16264  43.397  25.036   8.373
  895POPC   C3A16265  43.260  25.056   7.935
  895POPC   C4A16266  43.409  25.349   7.587
  895POPC   C1B16267  42.676  25.539   8.791
  895POPC   C2B16268  42.845  25.512   8.398
  895POPC   C3B16269  42.734  25.575   8.007
  895POPC   C4B16270  42.905  25.345   7.702
  896POPC   NC316271  31.893  19.862   9.439
  896POPC   PO416272  32.549  19.880   9.494
  896POPC   GL116273  32.335  19.752   9.148
  896POPC   GL216274  32.194  20.085   9.090
  896POPC   C1A16275  32.464  19.606   8.742
  896POPC   D2A16276  32.242  19.755   8.390
  896POPC   C3A16277  32.339  19.762   7.969
  896POPC   C4A16278  32.523  19.469   7.709
  896POPC   C1B16279  31.942  20.047   8.775
  896POPC   C2B16280  31.781  19.946   8.423
  896POPC   C3B16281  31.683  20.116   8.094
  896POPC   C4B16282  31.933  20.013   7.782
  897POPC   NC316283  37.880  35.393   9.545
  897POPC   PO416284  37.357  34.956   9.604
  897POPC   GL116285  37.598  35.048   9.239
  897POPC   GL216286  37.571  35.380   9.148
  897POPC   C1A16287  37.704  34.946   8.817
  897POPC   D2A16288  37.651  35.177   8.424
  897POPC   C3A16289  37.551  35.003   8.054
  897POPC   C4A16290  37.810  34.986   7.727
  897POPC   C1B16291  37.550  35.678   8.835
  897POPC   C2B16292  37.511  35.687   8.424
  897POPC   C3B16293  37.682  35.770   8.037
  897POPC   C4B16294  37.610  35.648   7.648
  898POPC   NC316295  34.785  43.507   9.263
  898POPC   PO416296  34.419  44.052   9.335
  898POPC   GL116297  34.407  43.737   9.012
  898POPC   GL216298  34.647  43.975   8.872
  898POPC   C1A16299  34.540  43.524   8.635
  898POPC   D2A16300  34.827  43.761   8.354
  898POPC   C3A16301  34.704  43.760   7.928
  898POPC   C4A16302  34.601  43.573   7.527
  898POPC   C1B16303  34.416  44.366   8.757
  898POPC   C2B16304  34.241  44.437   8.346
  898POPC   C3B16305  34.357  44.186   8.001
  898POPC   C4B16306  34.370  44.213   7.565
  899POPC   NC316307  27.951  39.491   9.584
  899POPC   PO416308  27.266  39.437   9.594
  899POPC   GL116309  27.408  39.449   9.156
  899POPC   GL216310  27.534  39.145   9.213
  899POPC   C1A16311  27.559  39.518   8.716
  899POPC   D2A16312  27.576  39.269   8.329
  899POPC   C3A16313  27.413  39.385   7.931
  899POPC   C4A16314  27.536  39.399   7.499
  899POPC   C1B16315  27.371  39.052   8.805
  899POPC   C2B16316  27.233  38.874   8.428
  899POPC   C3B16317  27.265  38.907   7.973
  899POPC   C4B16318  27.631  38.933   7.686
  900POPC   NC316319   4.236  32.728   9.626
  900POPC   PO416320   4.635  33.184   9.718
  900POPC   GL116321   4.342  33.200   9.314
  900POPC   GL216322   4.188  32.862   9.151
  900POPC   C1A16323   4.326  33.226   8.845
  900POPC   D2A16324   4.173  33.011   8.465
  900POPC   C3A16325   4.270  33.207   8.023
  900POPC   C4A16326   4.482  33.125   7.599
  900POPC   C1B16327   4.440  32.682   8.829
  900POPC   C2B16328   4.626  32.703   8.432
  900POPC   C3B16329   4.343  32.699   8.095
  900POPC   C4B16330   4.154  32.751   7.694
  901POPC   NC316331  20.379   6.700   9.338
  901POPC   PO416332  19.802   6.913   9.522
  901POPC   GL116333  19.894   6.566   9.200
  901POPC   GL216334  19.584   6.463   9.027
  901POPC   C1A16335  20.031   6.420   8.779
  901POPC   D2A16336  19.888   6.617   8.413
  901POPC   C3A16337  20.040   6.590   8.021
  901POPC   C4A16338  20.130   6.823   7.660
  901POPC   C1B16339  19.458   6.403   8.588
  901POPC   C2B16340  19.475   6.482   8.151
  901POPC   C3B16341  19.604   6.750   7.826
  901POPC   C4B16342  19.601   6.793   7.386
  902POPC   NC316343  38.684  30.480   9.491
  902POPC   PO416344  38.305  31.074   9.446
  902POPC   GL116345  38.152  30.769   9.169
  902POPC   GL216346  38.419  30.562   9.054
  902POPC   C1A16347  38.067  30.805   8.742
  902POPC   D2A16348  38.162  31.065   8.390
  902POPC   C3A16349  38.259  30.875   7.990
  902POPC   C4A16350  38.585  30.977   7.711
  902POPC   C1B16351  38.266  30.323   8.724
  902POPC   C2B16352  38.480  30.248   8.351
  902POPC   C3B16353  38.533  30.412   7.930
  902POPC   C4B16354  38.345  30.279   7.567
  903POPC   NC316355  37.331  28.592   9.225
  903POPC   PO416356  37.547  28.035   9.563
  903POPC   GL116357  37.730  28.192   9.167
  903POPC   GL216358  38.026  28.408   9.123
  903POPC   C1A16359  37.697  28.296   8.725
  903POPC   D2A16360  37.596  28.237   8.294
  903POPC   C3A16361  37.490  28.586   8.024
  903POPC   C4A16362  37.670  28.320   7.722
  903POPC   C1B16363  37.997  28.715   8.802
  903POPC   C2B16364  37.854  28.706   8.388
  903POPC   C3B16365  38.018  28.585   8.009
  903POPC   C4B16366  38.228  28.828   7.709
  904POPC   NC316367  13.629  25.572   9.504
  904POPC   PO416368  13.702  26.223   9.530
  904POPC   GL116369  13.558  26.037   9.132
  904POPC   GL216370  13.314  25.740   9.129
  904POPC   C1A16371  13.736  26.063   8.704
  904POPC   D2A16372  13.691  25.765   8.371
  904POPC   C3A16373  13.765  25.893   7.956
  904POPC   C4A16374  13.867  26.146   7.615
  904POPC   C1B16375  13.254  25.907   8.726
  904POPC   C2B16376  13.305  26.094   8.333
  904POPC   C3B16377  13.271  25.798   8.020
  904POPC   C4B16378  13.332  25.836   7.610
  905POPC   NC316379  42.832  34.682   9.586
  905POPC   PO416380  43.513  34.713   9.601
  905POPC   GL116381  43.225  34.466   9.321
  905POPC   GL216382  43.257  34.788   9.136
  905POPC   C1A16383  42.882  34.480   8.951
  905POPC   D2A16384  43.029  34.750   8.589
  905POPC   C3A16385  42.932  34.700   8.140
  905POPC   C4A16386  42.767  34.482   7.776
  905POPC   C1B16387  43.371  34.453   8.837
  905POPC   C2B16388  43.332  34.346   8.400
  905POPC   C3B16389  43.450  34.606   8.036
  905POPC   C4B16390  43.199  34.761   7.695
  906POPC   NC316391   3.258  15.115   9.372
  906POPC   PO416392   3.949  15.266   9.530
  906POPC   GL116393   3.740  15.180   9.164
  906POPC   GL216394   3.520  15.459   9.082
  906POPC   C1A16395   3.699  15.093   8.730
  906POPC   D2A16396   3.408  14.940   8.389
  906POPC   C3A16397   3.604  15.009   7.976
  906POPC   C4A16398   3.972  14.970   7.698
  906POPC   C1B16399   3.237  15.307   8.735
  906POPC   C2B16400   3.180  15.405   8.307
  906POPC   C3B16401   3.348  15.434   7.896
  906POPC   C4B16402   3.285  15.552   7.474
  907POPC   NC316403  20.688  21.245   9.523
  907POPC   PO416404  20.696  21.846   9.497
  907POPC   GL116405  20.486  21.613   9.176
  907POPC   GL216406  20.793  21.470   9.082
  907POPC   C1A16407  20.409  21.206   8.885
  907POPC   D2A16408  20.397  20.871   8.560
  907POPC   C3A16409  20.302  21.077   8.142
  907POPC   C4A16410  20.436  21.285   7.741
  907POPC   C1B16411  20.683  21.619   8.663
  907POPC   C2B16412  20.650  21.500   8.211
  907POPC   C3B16413  20.668  21.748   7.836
  907POPC   C4B16414  20.816  21.559   7.447
  908POPC   NC316415  28.999  33.799   9.595
  908POPC   PO416416  29.318  33.210   9.655
  908POPC   GL116417  29.229  33.511   9.258
  908POPC   GL216418  29.276  33.865   9.182
  908POPC   C1A16419  29.153  33.584   8.789
  908POPC   D2A16420  28.967  33.718   8.405
  908POPC   C3A16421  29.197  33.649   8.000
  908POPC   C4A16422  29.412  33.733   7.601
  908POPC   C1B16423  28.993  34.075   8.913
  908POPC   C2B16424  28.935  34.224   8.513
  908POPC   C3B16425  28.930  34.148   8.080
  908POPC   C4B16426  28.957  34.070   7.660
  909POPC   NC316427   9.135   9.019   9.733
  909POPC   PO416428   9.112   9.355   9.192
  909POPC   GL116429   9.178   8.913   9.097
  909POPC   GL216430   8.890   8.693   9.014
  909POPC   C1A16431   9.269   8.881   8.651
  909POPC   D2A16432   9.143   9.264   8.385
  909POPC   C3A16433   8.936   9.148   7.995
  909POPC   C4A16434   9.032   9.040   7.534
  909POPC   C1B16435   8.778   8.515   8.649
  909POPC   C2B16436   8.941   8.703   8.290
  909POPC   C3B16437   9.010   8.656   7.880
  909POPC   C4B16438   8.649   8.716   7.632
  910POPC   NC316439  17.085   7.361   9.422
  910POPC   PO416440  16.444   7.562   9.446
  910POPC   GL116441  16.668   7.271   9.111
  910POPC   GL216442  17.021   7.370   8.933
  910POPC   C1A16443  16.606   7.261   8.660
  910POPC   D2A16444  16.706   7.623   8.390
  910POPC   C3A16445  16.545   7.556   7.984
  910POPC   C4A16446  16.551   7.193   7.719
  910POPC   C1B16447  17.037   7.789   8.772
  910POPC   C2B16448  17.142   7.918   8.394
  910POPC   C3B16449  17.066   7.727   8.020
  910POPC   C4B16450  16.967   7.499   7.666
  911POPC   NC316451  13.444  44.770   9.501
  911POPC   PO416452  13.989  44.485   9.566
  911POPC   GL116453  13.750  44.488   9.181
  911POPC   GL216454  13.412  44.326   9.253
  911POPC   C1A16455  13.676  44.787   8.826
  911POPC   D2A16456  13.564  44.937   8.418
  911POPC   C3A16457  13.663  44.703   8.075
  911POPC   C4A16458  13.811  44.845   7.718
  911POPC   C1B16459  13.290  44.445   8.844
  911POPC   C2B16460  13.453  44.391   8.437
  911POPC   C3B16461  13.238  44.414   8.047
  911POPC   C4B16462  13.430  44.445   7.647
  912POPC   NC316463  22.341   8.395   9.464
  912POPC   PO416464  21.911   7.791   9.463
  912POPC   GL116465  22.099   7.945   9.056
  912POPC   GL216466  22.256   8.251   8.995
  912POPC   C1A16467  22.049   7.958   8.591
  912POPC   D2A16468  21.830   8.126   8.211
  912POPC   C3A16469  21.961   8.168   7.760
  912POPC   C4A16470  21.861   8.508   7.452
  912POPC   C1B16471  22.536   8.093   8.694
  912POPC   C2B16472  22.432   8.159   8.281
  912POPC   C3B16473  22.215   8.502   8.072
  912POPC   C4B16474  22.315   8.536   7.651
  913POPC   NC316475  41.165  21.557   9.409
  913POPC   PO416476  40.539  21.283   9.470
  913POPC   GL116477  40.685  21.456   9.131
  913POPC   GL216478  40.503  21.770   9.137
  913POPC   C1A16479  40.729  21.235   8.740
  913POPC   D2A16480  40.556  21.408   8.338
  913POPC   C3A16481  40.572  21.245   7.944
  913POPC   C4A16482  40.941  21.206   7.704
  913POPC   C1B16483  40.679  21.743   8.691
  913POPC   C2B16484  40.794  21.863   8.268
  913POPC   C3B16485  40.835  21.699   7.847
  913POPC   C4B16486  40.813  21.664   7.358
  914POPC   NC316487  37.537  11.423   9.485
  914POPC   PO416488  38.106  11.834   9.542
  914POPC   GL116489  37.949  11.660   9.118
  914POPC   GL216490  37.609  11.481   8.988
  914POPC   C1A16491  37.969  11.583   8.662
  914POPC   D2A16492  37.762  11.300   8.402
  914POPC   C3A16493  37.751  11.419   8.016
  914POPC   C4A16494  37.829  11.257   7.641
  914POPC   C1B16495  37.372  11.153   8.754
  914POPC   C2B16496  37.412  10.937   8.349
  914POPC   C3B16497  37.462  11.017   7.920
  914POPC   C4B16498  37.455  11.006   7.452
  915POPC   NC316499  27.719  19.152   9.445
  915POPC   PO416500  27.648  18.520   9.743
  915POPC   GL116501  27.504  18.599   9.266
  915POPC   GL216502  27.270  18.851   9.173
  915POPC   C1A16503  27.601  18.668   8.808
  915POPC   D2A16504  27.796  18.995   8.524
  915POPC   C3A16505  27.671  18.941   8.113
  915POPC   C4A16506  27.897  18.955   7.759
  915POPC   C1B16507  27.423  19.146   8.843
  915POPC   C2B16508  27.412  19.345   8.476
  915POPC   C3B16509  27.515  19.443   8.094
  915POPC   C4B16510  27.402  19.214   7.753
  916POPC   NC316511   8.596  33.403   9.422
  916POPC   PO416512   8.015  33.200   9.558
  916POPC   GL116513   8.182  32.984   9.179
  916POPC   GL216514   8.386  33.153   9.009
  916POPC   C1A16515   8.142  32.779   8.747
  916POPC   D2A16516   8.053  32.863   8.283
  916POPC   C3A16517   8.195  32.910   7.821
  916POPC   C4A16518   8.090  32.700   7.414
  916POPC   C1B16519   8.451  33.153   8.575
  916POPC   C2B16520   8.527  33.126   8.155
  916POPC   C3B16521   8.632  33.173   7.738
  916POPC   C4B16522   8.688  33.488   7.435
  917POPC   NC316523   0.696   8.512   9.666
  917POPC   PO416524   0.090   8.185   9.440
  917POPC   GL116525   0.261   8.344   9.053
  917POPC   GL216526   0.618   8.448   9.062
  917POPC   C1A16527   0.309   8.261   8.621
  917POPC   D2A16528   0.217   8.502   8.255
  917POPC   C3A16529   0.319   8.164   7.982
  917POPC   C4A16530   0.606   7.857   7.804
  917POPC   C1B16531   0.744   8.539   8.626
  917POPC   C2B16532   0.711   8.477   8.152
  917POPC   C3B16533   0.762   8.328   7.724
  917POPC   C4B16534   0.741   8.490   7.293
  918POPC   NC316535  38.398  19.970   9.460
  918POPC   PO416536  38.299  19.281   9.465
  918POPC   GL116537  38.295  19.571   9.185
  918POPC   GL216538  38.663  19.577   9.225
  918POPC   C1A16539  38.247  19.672   8.759
  918POPC   D2A16540  38.055  19.880   8.400
  918POPC   C3A16541  38.311  20.057   8.109
  918POPC   C4A16542  38.551  19.813   7.787
  918POPC   C1B16543  38.717  19.894   8.922
  918POPC   C2B16544  38.574  20.051   8.557
  918POPC   C3B16545  38.809  20.061   8.174
  918POPC   C4B16546  38.889  20.187   7.776
  919POPC   NC316547  20.925  17.967   9.600
  919POPC   PO416548  20.272  18.267   9.598
  919POPC   GL116549  20.613  18.410   9.369
  919POPC   GL216550  20.628  18.160   9.196
  919POPC   C1A16551  20.631  18.629   8.955
  919POPC   D2A16552  20.646  18.369   8.609
  919POPC   C3A16553  20.509  18.428   8.212
  919POPC   C4A16554  20.703  18.509   7.821
  919POPC   C1B16555  20.917  18.042   8.915
  919POPC   C2B16556  20.933  17.939   8.504
  919POPC   C3B16557  21.053  17.926   8.090
  919POPC   C4B16558  21.057  17.791   7.684
  920POPC   NC316559  25.400  11.637   9.501
  920POPC   PO416560  25.031  11.066   9.436
  920POPC   GL116561  25.110  11.390   9.130
  920POPC   GL216562  25.466  11.372   9.075
  920POPC   C1A16563  25.159  11.520   8.696
  920POPC   D2A16564  25.265  11.292   8.299
  920POPC   C3A16565  25.393  11.501   7.919
  920POPC   C4A16566  25.416  11.378   7.464
  920POPC   C1B16567  25.396  11.050   8.748
  920POPC   C2B16568  25.572  10.867   8.362
  920POPC   C3B16569  25.472  10.954   7.917
  920POPC   C4B16570  25.337  10.842   7.491
  921POPC   NC316571  41.091  27.993   9.387
  921POPC   PO416572  41.653  28.296   9.455
  921POPC   GL116573  41.327  28.379   9.147
  921POPC   GL216574  41.330  28.102   8.938
  921POPC   C1A16575  41.315  28.638   8.776
  921POPC   D2A16576  41.527  28.684   8.388
  921POPC   C3A16577  41.269  28.589   8.059
  921POPC   C4A16578  41.192  28.287   7.742
  921POPC   C1B16579  41.699  28.316   8.774
  921POPC   C2B16580  41.796  28.243   8.383
  921POPC   C3B16581  41.631  28.248   8.021
  921POPC   C4B16582  41.906  28.223   7.690
  922POPC   NC316583  22.468  32.032   9.498
  922POPC   PO416584  22.223  32.607   9.570
  922POPC   GL116585  22.279  32.408   9.177
  922POPC   GL216586  22.038  32.102   9.162
  922POPC   C1A16587  22.289  32.378   8.728
  922POPC   D2A16588  22.273  32.129   8.332
  922POPC   C3A16589  22.135  32.315   7.943
  922POPC   C4A16590  22.377  32.277   7.572
  922POPC   C1B16591  22.164  31.884   8.780
  922POPC   C2B16592  21.982  31.715   8.405
  922POPC   C3B16593  21.940  31.840   8.016
  922POPC   C4B16594  21.990  31.950   7.586
  923POPC   NC316595  41.222  27.002   9.416
  923POPC   PO416596  41.943  26.923   9.455
  923POPC   GL116597  41.624  26.852   9.149
  923POPC   GL216598  41.346  26.587   9.155
  923POPC   C1A16599  41.611  26.943   8.749
  923POPC   D2A16600  41.874  26.872   8.410
  923POPC   C3A16601  41.655  26.925   8.012
  923POPC   C4A16602  41.796  26.855   7.617
  923POPC   C1B16603  41.520  26.462   8.790
  923POPC   C2B16604  41.420  26.603   8.364
  923POPC   C3B16605  41.526  26.443   7.952
  923POPC   C4B16606  41.375  26.495   7.552
  924POPC   NC316607  34.971  30.629   9.417
  924POPC   PO416608  35.554  30.917   9.449
  924POPC   GL116609  35.280  30.892   9.095
  924POPC   GL216610  34.908  30.985   9.057
  924POPC   C1A16611  35.350  30.589   8.769
  924POPC   D2A16612  35.597  30.351   8.471
  924POPC   C3A16613  35.645  30.576   8.094
  924POPC   C4A16614  35.377  30.608   7.738
  924POPC   C1B16615  35.088  31.006   8.635
  924POPC   C2B16616  35.151  30.709   8.310
  924POPC   C3B16617  34.949  30.839   7.979
  924POPC   C4B16618  34.979  30.880   7.573
  925POPC   NC316619   7.226  24.297   9.740
  925POPC   PO416620   7.550  24.809   9.468
  925POPC   GL116621   7.464  24.494   9.136
  925POPC   GL216622   7.430  24.133   9.220
  925POPC   C1A16623   7.444  24.578   8.685
  925POPC   D2A16624   7.475  24.437   8.281
  925POPC   C3A16625   7.542  24.778   8.018
  925POPC   C4A16626   7.340  24.760   7.613
  925POPC   C1B16627   7.277  24.095   8.780
  925POPC   C2B16628   7.119  24.054   8.363
  925POPC   C3B16629   7.150  24.204   7.961
  925POPC   C4B16630   7.523  24.313   7.759
  926POPC   NC316631  10.479  15.021  10.109
  926POPC   PO416632  10.912  15.270   9.811
  926POPC   GL116633  10.925  15.146   9.328
  926POPC   GL216634  10.602  14.998   9.195
  926POPC   C1A16635  10.934  15.121   8.826
  926POPC   D2A16636  10.714  15.282   8.405
  926POPC   C3A16637  10.697  15.132   7.943
  926POPC   C4A16638  10.558  15.289   7.512
  926POPC   C1B16639  10.450  14.951   8.734
  926POPC   C2B16640  10.333  14.960   8.274
  926POPC   C3B16641  10.176  15.198   7.904
  926POPC   C4B16642   9.980  15.293   7.494
  927POPC   NC316643  27.618  16.454   9.488
  927POPC   PO416644  27.866  17.063   9.562
  927POPC   GL116645  27.714  16.877   9.165
  927POPC   GL216646  27.362  16.884   9.068
  927POPC   C1A16647  27.727  16.800   8.704
  927POPC   D2A16648  27.630  16.547   8.327
  927POPC   C3A16649  27.511  16.768   7.975
  927POPC   C4A16650  27.751  17.142   7.926
  927POPC   C1B16651  27.320  16.512   8.766
  927POPC   C2B16652  27.140  16.391   8.332
  927POPC   C3B16653  27.301  16.296   7.878
  927POPC   C4B16654  27.626  16.279   7.525
  928POPC   NC316655  25.448  18.668   9.579
  928POPC   PO416656  25.399  19.306   9.428
  928POPC   GL116657  25.329  19.079   9.068
  928POPC   GL216658  25.278  18.740   9.095
  928POPC   C1A16659  25.298  19.191   8.644
  928POPC   D2A16660  25.348  19.136   8.217
  928POPC   C3A16661  25.026  19.039   7.977
  928POPC   C4A16662  25.203  19.217   7.628
  928POPC   C1B16663  25.041  18.741   8.728
  928POPC   C2B16664  25.239  18.671   8.348
  928POPC   C3B16665  25.367  18.677   7.919
  928POPC   C4B16666  25.059  18.737   7.545
  929POPC   NC316667  37.772  24.009   9.702
  929POPC   PO416668  38.429  23.713   9.475
  929POPC   GL116669  38.507  23.418   9.130
  929POPC   GL216670  38.160  23.359   9.091
  929POPC   C1A16671  38.713  23.583   8.748
  929POPC   D2A16672  38.505  23.970   8.524
  929POPC   C3A16673  38.582  24.077   8.077
  929POPC   C4A16674  38.444  23.961   7.667
  929POPC   C1B16675  38.214  23.569   8.720
  929POPC   C2B16676  38.382  23.415   8.341
  929POPC   C3B16677  38.343  23.528   7.921
  929POPC   C4B16678  38.432  23.356   7.528
  930POPC   NC316679   7.170  35.170   9.431
  930POPC   PO416680   7.467  35.713   9.710
  930POPC   GL116681   7.461  35.581   9.281
  930POPC   GL216682   7.252  35.423   9.014
  930POPC   C1A16683   7.624  35.718   8.872
  930POPC   D2A16684   7.382  35.590   8.528
  930POPC   C3A16685   7.551  35.648   8.118
  930POPC   C4A16686   7.643  35.476   7.730
  930POPC   C1B16687   7.212  35.109   8.700
  930POPC   C2B16688   7.094  35.146   8.279
  930POPC   C3B16689   7.340  35.092   7.919
  930POPC   C4B16690   7.334  35.024   7.477
  931POPC   NC316691  25.230  42.922   9.572
  931POPC   PO416692  24.817  43.426   9.575
  931POPC   GL116693  25.119  43.202   9.171
  931POPC   GL216694  25.366  42.851   9.109
  931POPC   C1A16695  25.175  43.110   8.715
  931POPC   D2A16696  25.401  43.235   8.339
  931POPC   C3A16697  25.160  43.141   7.950
  931POPC   C4A16698  24.995  43.128   7.497
  931POPC   C1B16699  25.421  42.632   8.734
  931POPC   C2B16700  25.235  42.745   8.325
  931POPC   C3B16701  25.426  42.707   7.913
  931POPC   C4B16702  25.158  42.651   7.527
  932POPC   NC316703  34.929  19.590   9.496
  932POPC   PO416704  34.417  19.928   9.712
  932POPC   GL116705  34.707  19.996   9.279
  932POPC   GL216706  34.769  19.709   9.035
  932POPC   C1A16707  34.663  20.116   8.805
  932POPC   D2A16708  34.620  19.816   8.480
  932POPC   C3A16709  34.735  19.972   8.075
  932POPC   C4A16710  34.587  19.872   7.690
  932POPC   C1B16711  34.945  19.428   8.730
  932POPC   C2B16712  34.757  19.311   8.354
  932POPC   C3B16713  34.781  19.467   7.973
  932POPC   C4B16714  34.905  19.489   7.556
  933POPC   NC316715  33.096  19.675   9.701
  933POPC   PO416716  33.097  19.110   9.290
  933POPC   GL116717  32.893  19.141   8.928
  933POPC   GL216718  32.602  18.965   8.975
  933POPC   C1A16719  33.103  19.175   8.547
  933POPC   D2A16720  33.380  19.031   8.221
  933POPC   C3A16721  33.264  19.306   7.931
  933POPC   C4A16722  33.013  19.376   7.595
  933POPC   C1B16723  32.613  18.797   8.581
  933POPC   C2B16724  32.922  18.787   8.264
  933POPC   C3B16725  32.972  18.868   7.835
  933POPC   C4B16726  32.638  18.748   7.558
  934POPC   NC316727  26.572  22.725   9.486
  934POPC   PO416728  26.774  22.084   9.524
  934POPC   GL116729  26.622  22.086   9.109
  934POPC   GL216730  26.454  22.405   9.105
  934POPC   C1A16731  26.456  21.975   8.742
  934POPC   D2A16732  26.570  21.967   8.295
  934POPC   C3A16733  26.615  22.053   7.859
  934POPC   C4A16734  27.028  22.217   7.806
  934POPC   C1B16735  26.646  22.439   8.662
  934POPC   C2B16736  26.727  22.480   8.189
  934POPC   C3B16737  26.565  22.564   7.745
  934POPC   C4B16738  26.389  22.582   7.309
  935POPC   NC316739   5.616  31.437   9.665
  935POPC   PO416740   6.135  31.738   9.727
  935POPC   GL116741   5.968  31.374   9.318
  935POPC   GL216742   5.586  31.351   9.176
  935POPC   C1A16743   5.958  31.339   8.816
  935POPC   D2A16744   5.911  31.601   8.427
  935POPC   C3A16745   6.062  31.572   7.985
  935POPC   C4A16746   6.000  31.791   7.560
  935POPC   C1B16747   5.508  31.581   8.803
  935POPC   C2B16748   5.414  31.454   8.386
  935POPC   C3B16749   5.520  31.622   7.990
  935POPC   C4B16750   5.549  31.521   7.567
  936POPC   NC316751  44.946  32.521   9.815
  936POPC   PO416752  44.553  32.018   9.683
  936POPC   GL116753  44.403  32.063   9.218
  936POPC   GL216754  44.454  32.457   9.112
  936POPC   C1A16755  44.469  32.109   8.767
  936POPC   D2A16756  44.537  32.478   8.506
  936POPC   C3A16757  44.418  32.290   8.122
  936POPC   C4A16758  44.569  32.055   7.782
  936POPC   C1B16759  44.862  32.663   8.896
  936POPC   C2B16760   0.125  32.772   8.539
  936POPC   C3B16761   0.030  32.631   8.116
  936POPC   C4B16762  44.779  32.523   7.783
  937POPC   NC316763  40.170  38.455   9.387
  937POPC   PO416764  39.506  38.197   9.424
  937POPC   GL116765  39.695  38.498   9.144
  937POPC   GL216766  39.854  38.220   9.014
  937POPC   C1A16767  39.947  38.660   8.780
  937POPC   D2A16768  39.955  38.439   8.398
  937POPC   C3A16769  40.034  38.683   8.064
  937POPC   C4A16770  40.040  38.606   7.653
  937POPC   C1B16771  40.223  38.180   8.742
  937POPC   C2B16772  40.291  38.045   8.292
  937POPC   C3B16773  39.993  38.122   7.964
  937POPC   C4B16774  40.019  38.122   7.523
  938POPC   NC316775  15.375   1.830   9.445
  938POPC   PO416776  14.778   1.680   9.223
  938POPC   GL116777  14.982   2.046   9.053
  938POPC   GL216778  15.330   2.075   8.991
  938POPC   C1A16779  15.024   2.176   8.601
  938POPC   D2A16780  15.130   1.962   8.227
  938POPC   C3A16781  14.872   2.044   7.890
  938POPC   C4A16782  14.978   2.324   7.579
  938POPC   C1B16783  15.504   1.889   8.626
  938POPC   C2B16784  15.604   2.133   8.265
  938POPC   C3B16785  15.409   2.201   7.863
  938POPC   C4B16786  15.275   1.924   7.548
  939POPC   NC316787  13.019  15.278   9.415
  939POPC   PO416788  13.343  14.718   9.613
  939POPC   GL116789  13.183  14.804   9.179
  939POPC   GL216790  12.821  14.876   9.151
  939POPC   C1A16791  13.236  15.069   8.784
  939POPC   D2A16792  13.086  15.257   8.352
  939POPC   C3A16793  12.752  15.137   8.040
  939POPC   C4A16794  12.458  15.279   7.713
  939POPC   C1B16795  12.736  15.000   8.719
  939POPC   C2B16796  12.733  14.732   8.346
  939POPC   C3B16797  12.838  14.654   7.897
  939POPC   C4B16798  12.702  14.863   7.510
  940POPC   NC316799  43.250  10.617   9.587
  940POPC   PO416800  42.863  10.197   9.384
  940POPC   GL116801  43.158  10.375   9.112
  940POPC   GL216802  43.375  10.659   9.119
  940POPC   C1A16803  43.279  10.362   8.699
  940POPC   D2A16804  43.005  10.280   8.356
  940POPC   C3A16805  42.749  10.595   8.132
  940POPC   C4A16806  42.778  10.445   7.708
  940POPC   C1B16807  43.132  10.844   8.806
  940POPC   C2B16808  43.203  10.770   8.374
  940POPC   C3B16809  43.211  10.639   7.959
  940POPC   C4B16810  43.358  10.678   7.566
  941POPC   NC316811  38.677  19.010   9.492
  941POPC   PO416812  39.319  18.956   9.495
  941POPC   GL116813  39.329  19.099   9.128
  941POPC   GL216814  38.993  19.162   9.125
  941POPC   C1A16815  39.539  18.956   8.766
  941POPC   D2A16816  39.424  18.743   8.402
  941POPC   C3A16817  39.570  18.889   8.024
  941POPC   C4A16818  39.236  19.081   7.769
  941POPC   C1B16819  39.005  18.945   8.746
  941POPC   C2B16820  38.881  18.799   8.378
  941POPC   C3B16821  38.810  19.001   8.031
  941POPC   C4B16822  38.793  18.829   7.662
  942POPC   NC316823  10.822  11.935   9.642
  942POPC   PO416824  10.330  12.323   9.672
  942POPC   GL116825  10.501  12.138   9.259
  942POPC   GL216826  10.553  11.801   9.214
  942POPC   C1A16827  10.548  12.071   8.796
  942POPC   D2A16828  10.655  12.236   8.402
  942POPC   C3A16829  10.341  12.134   8.072
  942POPC   C4A16830  10.312  12.358   7.672
  942POPC   C1B16831  10.838  11.657   8.845
  942POPC   C2B16832  10.809  11.700   8.438
  942POPC   C3B16833  10.910  11.938   8.097
  942POPC   C4B16834  10.699  12.015   7.739
  943POPC   NC316835  40.133  11.772   9.644
  943POPC   PO416836  39.864  11.155   9.772
  943POPC   GL116837  40.068  11.305   9.372
  943POPC   GL216838  39.818  11.201   9.165
  943POPC   C1A16839  40.222  11.397   8.926
  943POPC   D2A16840  40.052  11.596   8.546
  943POPC   C3A16841  40.050  11.419   8.121
  943POPC   C4A16842  40.352  11.410   7.782
  943POPC   C1B16843  39.836  11.119   8.739
  943POPC   C2B16844  39.908  10.979   8.343
  943POPC   C3B16845  39.616  11.153   8.095
  943POPC   C4B16846  39.626  11.182   7.657
  944POPC   NC316847  13.780   1.245   9.411
  944POPC   PO416848  13.222   0.835   9.463
  944POPC   GL116849  13.398   1.068   9.096
  944POPC   GL216850  13.183   1.328   9.156
  944POPC   C1A16851  13.644   1.032   8.672
  944POPC   D2A16852  13.588   0.704   8.284
  944POPC   C3A16853  13.546   0.958   7.906
  944POPC   C4A16854  13.794   1.329   7.928
  944POPC   C1B16855  13.423   1.519   8.795
  944POPC   C2B16856  13.520   1.483   8.352
  944POPC   C3B16857  13.255   1.398   7.981
  944POPC   C4B16858  13.039   1.326   7.610
  945POPC   NC316859  42.511  30.003   9.489
  945POPC   PO416860  41.914  30.240   9.428
  945POPC   GL116861  42.173  30.136   9.097
  945POPC   GL216862  42.114  29.818   9.068
  945POPC   C1A16863  42.331  30.124   8.658
  945POPC   D2A16864  42.488  29.935   8.240
  945POPC   C3A16865  42.286  30.193   7.891
  945POPC   C4A16866  42.236  30.287   7.421
  945POPC   C1B16867  42.325  29.611   8.743
  945POPC   C2B16868  42.273  29.399   8.345
  945POPC   C3B16869  42.447  29.503   7.930
  945POPC   C4B16870  42.431  29.833   7.568
  946POPC   NC316871  43.206   9.889   9.511
  946POPC   PO416872  42.525   9.889   9.687
  946POPC   GL116873  42.745   9.746   9.210
  946POPC   GL216874  43.080   9.759   9.060
  946POPC   C1A16875  42.718   9.605   8.743
  946POPC   D2A16876  42.770   9.805   8.341
  946POPC   C3A16877  42.816   9.573   7.974
  946POPC   C4A16878  42.912   9.424   7.602
  946POPC   C1B16879  43.158   9.858   8.662
  946POPC   C2B16880  43.226   9.633   8.285
  946POPC   C3B16881  43.124   9.956   7.955
  946POPC   C4B16882  43.397  10.200   7.751
  947POPC   NC316883  25.909  17.804   9.780
  947POPC   PO416884  26.155  17.236   9.486
  947POPC   GL116885  25.999  17.370   9.145
  947POPC   GL216886  25.654  17.255   9.198
  947POPC   C1A16887  26.119  17.411   8.738
  947POPC   D2A16888  25.949  17.592   8.367
  947POPC   C3A16889  26.124  17.347   8.023
  947POPC   C4A16890  26.089  17.502   7.643
  947POPC   C1B16891  25.575  17.375   8.762
  947POPC   C2B16892  25.470  17.344   8.347
  947POPC   C3B16893  25.604  17.553   7.974
  947POPC   C4B16894  25.619  17.391   7.591
  948POPC   NC316895  21.956  20.530   9.334
  948POPC   PO416896  22.556  20.698   9.695
  948POPC   GL116897  22.568  20.817   9.219
  948POPC   GL216898  22.230  21.001   9.152
  948POPC   C1A16899  22.448  20.769   8.750
  948POPC   D2A16900  22.345  20.715   8.312
  948POPC   C3A16901  22.280  20.396   8.021
  948POPC   C4A16902  22.332  20.723   7.720
  948POPC   C1B16903  21.965  20.968   8.792
  948POPC   C2B16904  21.855  20.878   8.365
  948POPC   C3B16905  21.998  21.043   7.995
  948POPC   C4B16906  21.953  20.995   7.564
  949POPC   NC316907  24.281  29.331   9.475
  949POPC   PO416908  24.492  28.640   9.385
  949POPC   GL116909  24.601  28.865   9.043
  949POPC   GL216910  24.286  29.050   9.065
  949POPC   C1A16911  24.474  28.959   8.617
  949POPC   D2A16912  24.296  29.337   8.430
  949POPC   C3A16913  24.250  29.393   7.977
  949POPC   C4A16914  24.166  29.377   7.525
  949POPC   C1B16915  23.971  29.061   8.765
  949POPC   C2B16916  23.942  28.988   8.378
  949POPC   C3B16917  23.902  29.000   7.997
  949POPC   C4B16918  24.176  28.910   7.706
  950POPC   NC316919   5.560  11.931   9.467
  950POPC   PO416920   5.962  11.486   9.555
  950POPC   GL116921   5.895  11.767   9.123
  950POPC   GL216922   6.112  11.748   8.805
  950POPC   C1A16923   5.630  11.900   8.736
  950POPC   D2A16924   5.869  12.001   8.314
  950POPC   C3A16925   5.797  11.895   7.858
  950POPC   C4A16926   5.628  11.978   7.390
  950POPC   C1B16927   5.999  12.250   8.766
  950POPC   C2B16928   5.884  12.509   8.388
  950POPC   C3B16929   5.912  12.394   7.943
  950POPC   C4B16930   6.056  12.194   7.545
  951POPC   NC316931  21.363  10.369   9.554
  951POPC   PO416932  21.738  11.061   9.431
  951POPC   GL116933  21.577  10.710   9.166
  951POPC   GL216934  21.211  10.613   9.154
  951POPC   C1A16935  21.491  10.603   8.729
  951POPC   D2A16936  21.709  10.508   8.364
  951POPC   C3A16937  21.568  10.721   8.020
  951POPC   C4A16938  21.566  10.641   7.610
  951POPC   C1B16939  21.081  10.299   8.792
  951POPC   C2B16940  21.244  10.281   8.339
  951POPC   C3B16941  21.461  10.216   7.931
  951POPC   C4B16942  21.279  10.230   7.499
  952POPC   NC316943  10.383  22.619   9.645
  952POPC   PO416944  10.617  23.259   9.580
  952POPC   GL116945  10.700  22.910   9.307
  952POPC   GL216946  11.015  22.985   9.323
  952POPC   C1A16947  10.643  22.686   8.898
  952POPC   D2A16948  10.274  22.624   8.583
  952POPC   C3A16949  10.344  22.549   8.135
  952POPC   C4A16950  10.470  22.820   7.775
  952POPC   C1B16951  11.072  23.062   8.891
  952POPC   C2B16952  10.964  22.846   8.512
  952POPC   C3B16953  10.985  22.926   8.072
  952POPC   C4B16954  10.953  22.718   7.677
  953POPC   NC316955  11.054   6.202   9.401
  953POPC   PO416956  11.383   6.822   9.533
  953POPC   GL116957  11.495   6.610   9.155
  953POPC   GL216958  11.494   6.265   9.049
  953POPC   C1A16959  11.598   6.721   8.752
  953POPC   D2A16960  11.531   6.629   8.316
  953POPC   C3A16961  11.404   6.955   8.067
  953POPC   C4A16962  11.270   6.829   7.687
  953POPC   C1B16963  11.167   6.435   8.771
  953POPC   C2B16964  11.037   6.309   8.370
  953POPC   C3B16965  11.010   6.430   7.938
  953POPC   C4B16966  11.089   6.103   7.621
  954POPC   NC316967  43.482  33.941   9.418
  954POPC   PO416968  43.831  33.377   9.680
  954POPC   GL116969  43.791  33.613   9.209
  954POPC   GL216970  44.052  33.747   9.074
  954POPC   C1A16971  43.681  33.781   8.761
  954POPC   D2A16972  43.951  33.651   8.392
  954POPC   C3A16973  43.861  33.827   7.966
  954POPC   C4A16974  44.044  33.954   7.536
  954POPC   C1B16975  44.165  33.999   8.757
  954POPC   C2B16976  44.386  33.913   8.397
  954POPC   C3B16977  44.362  33.759   7.961
  954POPC   C4B16978  44.386  33.590   7.545
  955POPC   NC316979  44.218   2.719   9.431
  955POPC   PO416980  44.663   2.919   9.862
  955POPC   GL116981  44.736   2.772   9.421
  955POPC   GL216982  44.578   3.034   9.246
  955POPC   C1A16983  44.752   2.620   8.956
  955POPC   D2A16984  44.737   2.802   8.506
  955POPC   C3A16985  44.461   2.635   8.149
  955POPC   C4A16986  44.544   2.708   7.711
  955POPC   C1B16987  44.386   2.934   8.846
  955POPC   C2B16988  44.319   3.105   8.422
  955POPC   C3B16989  44.436   3.125   8.024
  955POPC   C4B16990  44.558   3.282   7.667
  956POPC   NC316991  43.359  33.301   9.630
  956POPC   PO416992  43.033  33.961   9.529
  956POPC   GL116993  43.036  33.821   9.143
  956POPC   GL216994  43.238  33.539   9.168
  956POPC   C1A16995  43.182  33.974   8.753
  956POPC   D2A16996  42.995  33.836   8.384
  956POPC   C3A16997  43.172  34.023   7.998
  956POPC   C4A16998  43.002  33.799   7.635
  956POPC   C1B16999  43.260  33.473   8.709
  956POPC   C2B17000  43.450  33.649   8.322
  956POPC   C3B17001  43.407  33.580   7.887
  956POPC   C4B17002  43.510  33.879   7.595
  957POPC   NC317003  43.807   6.429   9.691
  957POPC   PO417004  44.495   6.434   9.599
  957POPC   GL117005  44.177   6.593   9.266
  957POPC   GL217006  43.785   6.684   9.244
  957POPC   C1A17007  44.100   6.760   8.849
  957POPC   D2A17008  43.926   6.537   8.454
  957POPC   C3A17009  43.954   6.711   8.031
  957POPC   C4A17010  43.838   6.648   7.581
  957POPC   C1B17011  43.596   6.790   8.802
  957POPC   C2B17012  43.547   6.866   8.326
  957POPC   C3B17013  43.447   6.770   7.865
  957POPC   C4B17014  43.415   6.847   7.377
  958POPC   NC317015  41.909  34.457   9.272
  958POPC   PO417016  42.407  34.705   9.760
  958POPC   GL117017  42.388  34.646   9.308
  958POPC   GL217018  42.407  34.304   9.159
  958POPC   C1A17019  42.372  34.739   8.870
  958POPC   D2A17020  42.534  34.747   8.459
  958POPC   C3A17021  42.399  34.802   8.007
  958POPC   C4A17022  42.369  34.709   7.529
  958POPC   C1B17023  42.248  34.260   8.711
  958POPC   C2B17024  42.303  34.344   8.267
  958POPC   C3B17025  42.259  34.310   7.842
  958POPC   C4B17026  41.857  34.258   7.750
  959POPC   NC317027  27.472  43.967   9.571
  959POPC   PO417028  27.914  43.521   9.578
  959POPC   GL117029  27.796  43.705   9.220
  959POPC   GL217030  28.028  43.987   9.222
  959POPC   C1A17031  27.562  43.635   8.830
  959POPC   D2A17032  27.617  43.790   8.409
  959POPC   C3A17033  27.484  43.604   7.991
  959POPC   C4A17034  27.458  43.715   7.542
  959POPC   C1B17035  27.793  44.109   8.842
  959POPC   C2B17036  27.747  44.300   8.424
  959POPC   C3B17037  27.641  44.140   8.011
  959POPC   C4B17038  27.947  44.112   7.683
  960POPC   NC317039  43.929   9.203   9.648
  960POPC   PO417040  43.533   8.627   9.614
  960POPC   GL117041  43.885   8.784   9.311
  960POPC   GL217042  43.915   9.157   9.135
  960POPC   C1A17043  43.978   8.728   8.868
  960POPC   D2A17044  43.780   8.768   8.468
  960POPC   C3A17045  43.829   8.651   8.049
  960POPC   C4A17046  43.496   8.839   7.804
  960POPC   C1B17047  44.165   9.168   8.711
  960POPC   C2B17048  44.211   8.987   8.278
  960POPC   C3B17049  43.972   9.124   7.902
  960POPC   C4B17050  43.917   9.437   7.578
  961POPC   NC317051  36.852  41.913   9.491
  961POPC   PO417052  37.221  42.476   9.306
  961POPC   GL117053  37.119  42.113   9.057
  961POPC   GL217054  36.774  42.046   9.014
  961POPC   C1A17055  37.125  42.085   8.582
  961POPC   D2A17056  37.092  42.361   8.223
  961POPC   C3A17057  37.214  42.272   7.796
  961POPC   C4A17058  37.196  42.503   7.422
  961POPC   C1B17059  36.630  42.331   8.712
  961POPC   C2B17060  36.583  42.256   8.278
  961POPC   C3B17061  36.707  42.403   7.877
  961POPC   C4B17062  36.788  42.244   7.478
  962POPC   NC317063  40.513  27.295   9.523
  962POPC   PO417064  40.320  27.898   9.231
  962POPC   GL117065  40.731  27.686   9.165
  962POPC   GL217066  40.799  27.311   9.080
  962POPC   C1A17067  40.998  27.721   8.787
  962POPC   D2A17068  41.076  27.568   8.367
  962POPC   C3A17069  41.147  27.841   8.022
  962POPC   C4A17070  40.783  27.944   7.765
  962POPC   C1B17071  40.581  27.012   8.757
  962POPC   C2B17072  40.403  26.975   8.318
  962POPC   C3B17073  40.567  27.012   7.901
  962POPC   C4B17074  40.742  27.440   7.861
  963POPC   NC317075  11.283   8.937   9.640
  963POPC   PO417076  10.682   9.092   9.537
  963POPC   GL117077  11.035   9.109   9.209
  963POPC   GL217078  11.199   8.762   9.153
  963POPC   C1A17079  11.000   9.012   8.763
  963POPC   D2A17080  10.913   8.786   8.390
  963POPC   C3A17081  11.092   9.033   8.068
  963POPC   C4A17082  11.238   9.172   7.668
  963POPC   C1B17083  11.332   8.596   8.709
  963POPC   C2B17084  11.408   8.677   8.241
  963POPC   C3B17085  11.567   8.812   7.805
  963POPC   C4B17086  11.632   8.975   7.378
  964POPC   NC317087  16.440   3.737   9.536
  964POPC   PO417088  16.967   3.316   9.508
  964POPC   GL117089  16.948   3.467   9.136
  964POPC   GL217090  16.862   3.811   9.167
  964POPC   C1A17091  16.779   3.440   8.743
  964POPC   D2A17092  16.943   3.608   8.394
  964POPC   C3A17093  16.924   3.329   8.064
  964POPC   C4A17094  16.802   3.533   7.711
  964POPC   C1B17095  16.503   3.848   8.888
  964POPC   C2B17096  16.482   3.840   8.448
  964POPC   C3B17097  16.295   3.782   8.042
  964POPC   C4B17098  16.333   3.700   7.617
  965POPC   NC317099  36.883  14.874   9.360
  965POPC   PO417100  36.816  15.554   9.270
  965POPC   GL117101  36.709  15.236   9.044
  965POPC   GL217102  37.025  15.171   8.980
  965POPC   C1A17103  36.677  14.919   8.698
  965POPC   D2A17104  36.672  15.013   8.251
  965POPC   C3A17105  36.737  15.426   8.111
  965POPC   C4A17106  36.684  15.265   7.732
  965POPC   C1B17107  36.937  15.376   8.605
  965POPC   C2B17108  37.221  15.384   8.302
  965POPC   C3B17109  37.158  15.172   7.943
  965POPC   C4B17110  37.153  15.310   7.533
  966POPC   NC317111  36.846  31.088   9.504
  966POPC   PO417112  36.862  30.367   9.547
  966POPC   GL117113  37.007  30.646   9.207
  966POPC   GL217114  36.726  30.817   9.115
  966POPC   C1A17115  37.084  30.849   8.782
  966POPC   D2A17116  37.248  30.649   8.451
  966POPC   C3A17117  37.087  30.749   8.043
  966POPC   C4A17118  36.827  30.575   7.781
  966POPC   C1B17119  36.577  30.741   8.729
  966POPC   C2B17120  36.721  30.902   8.372
  966POPC   C3B17121  36.516  30.907   7.992
  966POPC   C4B17122  36.347  31.161   7.668
  967POPC   NC317123  33.443  21.415   9.418
  967POPC   PO417124  32.744  21.553   9.415
  967POPC   GL117125  32.897  21.479   9.014
  967POPC   GL217126  33.106  21.205   9.012
  967POPC   C1A17127  32.904  21.341   8.568
  967POPC   D2A17128  32.890  21.045   8.215
  967POPC   C3A17129  33.177  21.191   7.920
  967POPC   C4A17130  32.972  21.569   7.885
  967POPC   C1B17131  33.384  21.439   8.764
  967POPC   C2B17132  33.392  21.757   8.499
  967POPC   C3B17133  33.399  21.819   8.061
  967POPC   C4B17134  33.348  21.758   7.635
  968POPC   NC317135  34.553  41.326   9.825
  968POPC   PO417136  34.745  41.853   9.472
  968POPC   GL117137  34.571  41.600   9.160
  968POPC   GL217138  34.917  41.552   9.037
  968POPC   C1A17139  34.327  41.521   8.762
  968POPC   D2A17140  34.212  41.294   8.395
  968POPC   C3A17141  34.236  41.578   8.027
  968POPC   C4A17142  34.512  41.520   7.709
  968POPC   C1B17143  34.782  41.745   8.691
  968POPC   C2B17144  34.663  41.592   8.307
  968POPC   C3B17145  34.920  41.560   7.979
  968POPC   C4B17146  34.992  41.803   7.659
  969POPC   NC317147  40.393  12.896   9.724
  969POPC   PO417148  39.921  12.634   9.385
  969POPC   GL117149  39.890  12.894   9.044
  969POPC   GL217150  39.634  13.203   9.000
  969POPC   C1A17151  39.957  12.630   8.675
  969POPC   D2A17152  40.201  12.575   8.313
  969POPC   C3A17153  39.999  12.629   7.881
  969POPC   C4A17154  40.093  12.388   7.471
  969POPC   C1B17155  39.891  13.138   8.623
  969POPC   C2B17156  40.092  13.071   8.256
  969POPC   C3B17157  39.977  13.145   7.861
  969POPC   C4B17158  39.607  12.939   7.710
  970POPC   NC317159   5.250  37.570   9.513
  970POPC   PO417160   4.768  38.018   9.379
  970POPC   GL117161   5.121  37.897   9.153
  970POPC   GL217162   5.006  37.520   9.074
  970POPC   C1A17163   5.317  37.792   8.778
  970POPC   D2A17164   5.152  37.516   8.451
  970POPC   C3A17165   5.342  37.611   8.046
  970POPC   C4A17166   5.264  37.884   7.674
  970POPC   C1B17167   4.788  37.789   8.769
  970POPC   C2B17168   4.620  37.734   8.404
  970POPC   C3B17169   4.837  37.658   8.029
  970POPC   C4B17170   5.014  37.435   7.693
  971POPC   NC317171  25.536   4.956   9.458
  971POPC   PO417172  25.110   5.474   9.188
  971POPC   GL117173  25.310   5.127   9.043
  971POPC   GL217174  25.598   5.274   9.027
  971POPC   C1A17175  25.420   4.970   8.644
  971POPC   D2A17176  25.095   4.893   8.326
  971POPC   C3A17177  25.278   4.885   7.925
  971POPC   C4A17178  25.714   4.948   7.835
  971POPC   C1B17179  25.660   5.424   8.599
  971POPC   C2B17180  25.500   5.240   8.217
  971POPC   C3B17181  25.347   5.395   7.829
  971POPC   C4B17182  25.443   5.494   7.411
  972POPC   NC317183  19.212  34.681   9.529
  972POPC   PO417184  18.569  34.428   9.506
  972POPC   GL117185  18.805  34.640   9.142
  972POPC   GL217186  19.181  34.632   9.044
  972POPC   C1A17187  18.855  34.529   8.694
  972POPC   D2A17188  19.076  34.425   8.329
  972POPC   C3A17189  18.869  34.586   7.986
  972POPC   C4A17190  18.858  34.627   7.551
  972POPC   C1B17191  19.380  34.672   8.681
  972POPC   C2B17192  19.569  34.581   8.286
  972POPC   C3B17193  19.391  34.736   7.883
  972POPC   C4B17194  19.433  34.607   7.454
  973POPC   NC317195  14.204  29.988   9.659
  973POPC   PO417196  14.716  29.828   9.522
  973POPC   GL117197  14.453  29.730   9.212
  973POPC   GL217198  14.602  29.442   9.156
  973POPC   C1A17199  14.396  29.765   8.773
  973POPC   D2A17200  14.198  29.812   8.383
  973POPC   C3A17201  14.349  29.930   7.978
  973POPC   C4A17202  14.599  30.137   7.665
  973POPC   C1B17203  14.809  29.448   8.748
  973POPC   C2B17204  14.842  29.806   8.488
  973POPC   C3B17205  14.860  29.889   8.064
  973POPC   C4B17206  14.735  29.621   7.731
  974POPC   NC317207   3.625  35.808   9.438
  974POPC   PO417208   3.330  35.161   9.425
  974POPC   GL117209   3.471  35.415   9.178
  974POPC   GL217210   3.231  35.631   9.096
  974POPC   C1A17211   3.691  35.506   8.839
  974POPC   D2A17212   3.567  35.516   8.418
  974POPC   C3A17213   3.719  35.230   8.116
  974POPC   C4A17214   3.937  35.279   7.748
  974POPC   C1B17215   3.201  35.328   8.756
  974POPC   C2B17216   3.262  35.107   8.364
  974POPC   C3B17217   3.211  35.315   7.984
  974POPC   C4B17218   3.266  35.467   7.575
  975POPC   NC317219   9.457   0.182   9.508
  975POPC   PO417220   8.759   0.471   9.497
  975POPC   GL117221   9.005   0.424   9.140
  975POPC   GL217222   9.256   0.645   9.253
  975POPC   C1A17223   8.924   0.500   8.695
  975POPC   D2A17224   9.047   0.352   8.288
  975POPC   C3A17225   8.840   0.414   7.866
  975POPC   C4A17226   8.830   0.189   7.425
  975POPC   C1B17227   9.318   0.800   8.826
  975POPC   C2B17228   9.505   0.721   8.408
  975POPC   C3B17229   9.370   0.599   7.982
  975POPC   C4B17230   9.081   0.844   7.762
  976POPC   NC317231  31.699   4.863   9.726
  976POPC   PO417232  31.473   4.226   9.595
  976POPC   GL117233  31.407   4.271   9.186
  976POPC   GL217234  31.630   4.565   9.194
  976POPC   C1A17235  31.190   4.083   8.820
  976POPC   D2A17236  31.223   4.229   8.425
  976POPC   C3A17237  31.202   4.096   8.026
  976POPC   C4A17238  31.612   4.061   7.817
  976POPC   C1B17239  31.435   4.668   8.810
  976POPC   C2B17240  31.562   4.610   8.390
  976POPC   C3B17241  31.476   4.530   7.975
  976POPC   C4B17242  31.450   4.689   7.563
  977POPC   NC317243  41.769  16.424   9.595
  977POPC   PO417244  41.057  16.463   9.540
  977POPC   GL117245  41.202  16.653   9.158
  977POPC   GL217246  41.545  16.589   9.141
  977POPC   C1A17247  41.230  16.706   8.722
  977POPC   D2A17248  41.182  16.454   8.381
  977POPC   C3A17249  41.286  16.739   8.032
  977POPC   C4A17250  41.637  16.672   7.790
  977POPC   C1B17251  41.740  16.647   8.712
  977POPC   C2B17252  41.725  16.837   8.275
  977POPC   C3B17253  42.038  16.946   7.931
  977POPC   C4B17254  42.208  16.940   7.504
  978POPC   NC317255   3.349  24.348   9.209
  978POPC   PO417256   2.901  24.100   9.456
  978POPC   GL117257   2.891  24.215   9.017
  978POPC   GL217258   2.900  24.584   9.051
  978POPC   C1A17259   2.872  24.207   8.542
  978POPC   D2A17260   2.750  24.460   8.159
  978POPC   C3A17261   2.657  24.317   7.709
  978POPC   C4A17262   2.325  24.301   7.344
  978POPC   C1B17263   3.078  24.670   8.648
  978POPC   C2B17264   3.254  24.460   8.275
  978POPC   C3B17265   3.147  24.494   7.825
  978POPC   C4B17266   2.969  24.609   7.407
  979POPC   NC317267  15.626  12.444   9.574
  979POPC   PO417268  15.516  11.733   9.459
  979POPC   GL117269  15.302  12.032   9.182
  979POPC   GL217270  15.521  12.329   9.099
  979POPC   C1A17271  15.072  11.919   8.809
  979POPC   D2A17272  14.856  12.040   8.463
  979POPC   C3A17273  14.971  11.985   8.036
  979POPC   C4A17274  15.018  11.856   7.601
  979POPC   C1B17275  15.532  12.150   8.707
  979POPC   C2B17276  15.396  11.974   8.347
  979POPC   C3B17277  15.433  12.209   7.981
  979POPC   C4B17278  15.492  12.104   7.566
  980POPC   NC317279  37.844  31.023   9.504
  980POPC   PO417280  37.541  30.483   9.770
  980POPC   GL117281  37.569  30.610   9.291
  980POPC   GL217282  37.804  30.406   9.055
  980POPC   C1A17283  37.579  30.870   8.907
  980POPC   D2A17284  37.659  30.999   8.485
  980POPC   C3A17285  37.593  30.787   8.112
  980POPC   C4A17286  37.792  30.829   7.766
  980POPC   C1B17287  37.722  30.435   8.617
  980POPC   C2B17288  38.003  30.539   8.279
  980POPC   C3B17289  37.953  30.362   7.860
  980POPC   C4B17290  37.786  30.478   7.412
  981POPC   NC317291  14.216  14.577   9.357
  981POPC   PO417292  14.911  14.660   9.488
  981POPC   GL117293  14.666  14.521   9.150
  981POPC   GL217294  14.693  14.174   9.184
  981POPC   C1A17295  14.474  14.535   8.749
  981POPC   D2A17296  14.658  14.550   8.356
  981POPC   C3A17297  14.449  14.548   7.974
  981POPC   C4A17298  14.481  14.537   7.529
  981POPC   C1B17299  14.407  14.029   8.839
  981POPC   C2B17300  14.201  14.138   8.434
  981POPC   C3B17301  14.315  14.041   8.022
  981POPC   C4B17302  14.391  14.045   7.596
  982POPC   NC317303  40.885  17.808   9.478
  982POPC   PO417304  41.118  17.205   9.135
  982POPC   GL117305  40.834  17.527   9.043
  982POPC   GL217306  40.500  17.539   9.096
  982POPC   C1A17307  40.728  17.711   8.676
  982POPC   D2A17308  40.882  17.595   8.308
  982POPC   C3A17309  40.949  17.426   7.912
  982POPC   C4A17310  40.908  17.744   7.572
  982POPC   C1B17311  40.284  17.459   8.706
  982POPC   C2B17312  40.349  17.677   8.318
  982POPC   C3B17313  40.543  17.721   7.925
  982POPC   C4B17314  40.511  17.411   7.573
  983POPC   NC317315  15.363  19.885   9.372
  983POPC   PO417316  14.767  19.524   9.481
  983POPC   GL117317  15.029  19.559   9.087
  983POPC   GL217318  15.430  19.580   8.975
  983POPC   C1A17319  15.038  19.709   8.658
  983POPC   D2A17320  15.360  19.660   8.329
  983POPC   C3A17321  15.242  19.850   7.909
  983POPC   C4A17322  15.220  19.673   7.451
  983POPC   C1B17323  15.472  19.985   8.716
  983POPC   C2B17324  15.380  20.168   8.302
  983POPC   C3B17325  15.583  20.250   7.905
  983POPC   C4B17326  15.508  20.052   7.522
  984POPC   NC317327   6.759  27.771   9.796
  984POPC   PO417328   7.095  27.238   9.636
  984POPC   GL117329   6.834  27.442   9.310
  984POPC   GL217330   6.623  27.747   9.252
  984POPC   C1A17331   6.766  27.482   8.847
  984POPC   D2A17332   6.766  27.881   8.601
  984POPC   C3A17333   6.643  27.856   8.148
  984POPC   C4A17334   6.613  27.720   7.725
  984POPC   C1B17335   6.335  27.841   8.881
  984POPC   C2B17336   6.276  28.002   8.465
  984POPC   C3B17337   6.117  27.967   8.072
  984POPC   C4B17338   6.194  28.095   7.665
  985POPC   NC317339   6.102   8.691   9.400
  985POPC   PO417340   5.713   9.160   9.693
  985POPC   GL117341   5.829   9.241   9.213
  985POPC   GL217342   5.918   8.947   9.014
  985POPC   C1A17343   5.601   9.262   8.788
  985POPC   D2A17344   5.741   9.016   8.446
  985POPC   C3A17345   5.909   8.975   8.011
  985POPC   C4A17346   5.759   9.154   7.635
  985POPC   C1B17347   6.230   8.877   8.713
  985POPC   C2B17348   6.283   8.732   8.310
  985POPC   C3B17349   6.315   8.520   7.925
  985POPC   C4B17350   6.175   8.622   7.508
  986POPC   NC317351  10.133   7.952   9.556
  986POPC   PO417352  10.648   8.355   9.547
  986POPC   GL117353  10.565   8.320   9.120
  986POPC   GL217354  10.344   8.049   9.088
  986POPC   C1A17355  10.598   8.239   8.667
  986POPC   D2A17356  10.402   8.165   8.263
  986POPC   C3A17357  10.686   8.228   7.928
  986POPC   C4A17358  10.893   7.846   7.868
  986POPC   C1B17359  10.113   8.048   8.693
  986POPC   C2B17360   9.987   7.873   8.304
  986POPC   C3B17361  10.283   7.833   7.890
  986POPC   C4B17362  10.363   7.710   7.410
  987POPC   NC317363  19.609   3.535  10.000
  987POPC   PO417364  20.159   3.722   9.585
  987POPC   GL117365  19.877   3.840   9.187
  987POPC   GL217366  19.503   3.909   9.231
  987POPC   C1A17367  19.904   3.945   8.727
  987POPC   D2A17368  19.948   4.146   8.285
  987POPC   C3A17369  19.967   3.831   7.936
  987POPC   C4A17370  19.824   3.778   7.506
  987POPC   C1B17371  19.479   3.656   8.841
  987POPC   C2B17372  19.396   3.468   8.413
  987POPC   C3B17373  19.510   3.567   7.971
  987POPC   C4B17374  19.350   3.556   7.564
  988POPC   NC317375   4.715  24.318   9.367
  988POPC   PO417376   5.364  24.386   9.423
  988POPC   GL117377   5.190  24.186   9.065
  988POPC   GL217378   4.923  23.983   9.045
  988POPC   C1A17379   4.961  24.389   8.703
  988POPC   D2A17380   4.835  24.545   8.287
  988POPC   C3A17381   5.132  24.621   7.940
  988POPC   C4A17382   5.168  24.817   7.539
  988POPC   C1B17383   5.040  23.902   8.635
  988POPC   C2B17384   4.783  24.042   8.339
  988POPC   C3B17385   4.911  24.151   7.948
  988POPC   C4B17386   5.260  24.170   7.728
  989POPC   NC317387   0.914  33.638   9.419
  989POPC   PO417388   1.546  33.929   9.520
  989POPC   GL117389   1.401  33.746   9.128
  989POPC   GL217390   1.238  33.409   9.086
  989POPC   C1A17391   1.253  33.959   8.732
  989POPC   D2A17392   0.908  33.926   8.428
  989POPC   C3A17393   1.059  33.949   8.002
  989POPC   C4A17394   1.423  34.023   7.761
  989POPC   C1B17395   1.388  33.471   8.676
  989POPC   C2B17396   1.400  33.658   8.251
  989POPC   C3B17397   1.414  33.524   7.801
  989POPC   C4B17398   1.402  33.483   7.333
  990POPC   NC317399  12.911  25.791   9.434
  990POPC   PO417400  12.908  26.425   9.350
  990POPC   GL117401  12.906  26.120   9.021
  990POPC   GL217402  12.812  25.752   8.952
  990POPC   C1A17403  12.898  26.247   8.599
  990POPC   D2A17404  12.603  26.397   8.279
  990POPC   C3A17405  12.809  26.415   7.891
  990POPC   C4A17406  13.142  26.314   7.572
  990POPC   C1B17407  12.779  25.718   8.530
  990POPC   C2B17408  12.818  25.962   8.178
  990POPC   C3B17409  12.853  25.939   7.751
  990POPC   C4B17410  12.894  25.762   7.324
  991POPC   NC317411  19.367  44.812   9.487
  991POPC   PO417412  19.779  44.282   9.533
  991POPC   GL117413  19.780  44.538   9.141
  991POPC   GL217414  19.573  44.843   9.029
  991POPC   C1A17415  19.673  44.410   8.710
  991POPC   D2A17416  19.492  44.494   8.283
  991POPC   C3A17417  19.678  44.379   7.897
  991POPC   C4A17418  19.619  44.519   7.456
  991POPC   C1B17419  19.341  44.858   8.634
  991POPC   C2B17420  19.411   0.002   8.166
  991POPC   C3B17421  19.695  44.982   7.762
  991POPC   C4B17422  19.866   0.208   7.378
  992POPC   NC317423  24.535  37.420   9.699
  992POPC   PO417424  24.824  36.877   9.325
  992POPC   GL117425  24.660  36.980   8.998
  992POPC   GL217426  24.364  36.864   9.055
  992POPC   C1A17427  24.706  37.020   8.613
  992POPC   D2A17428  24.489  36.808   8.350
  992POPC   C3A17429  24.690  36.716   7.981
  992POPC   C4A17430  25.027  37.055   7.801
  992POPC   C1B17431  24.198  37.052   8.718
  992POPC   C2B17432  24.012  37.027   8.333
  992POPC   C3B17433  24.162  36.821   7.973
  992POPC   C4B17434  24.178  36.956   7.591
  993POPC   NC317435   9.547  19.507   9.574
  993POPC   PO417436   9.863  20.013   9.571
  993POPC   GL117437   9.615  19.993   9.174
  993POPC   GL217438   9.461  19.695   9.128
  993POPC   C1A17439   9.714  20.019   8.712
  993POPC   D2A17440  10.065  19.967   8.389
  993POPC   C3A17441   9.819  19.922   8.018
  993POPC   C4A17442   9.926  19.912   7.607
  993POPC   C1B17443   9.499  19.535   8.764
  993POPC   C2B17444   9.352  19.706   8.412
  993POPC   C3B17445   9.434  19.512   8.022
  993POPC   C4B17446   9.499  19.597   7.623
  994POPC   NC317447   4.360  34.308   9.487
  994POPC   PO417448   4.593  34.902   9.246
  994POPC   GL117449   4.448  34.452   9.007
  994POPC   GL217450   4.182  34.129   9.051
  994POPC   C1A17451   4.409  34.486   8.566
  994POPC   D2A17452   4.223  34.883   8.443
  994POPC   C3A17453   4.155  34.892   8.017
  994POPC   C4A17454   4.407  34.690   7.686
  994POPC   C1B17455   3.946  34.390   8.768
  994POPC   C2B17456   3.943  34.459   8.325
  994POPC   C3B17457   4.293  34.350   8.060
  994POPC   C4B17458   4.255  34.122   7.690
  995POPC   NC317459   7.029  44.904   9.777
  995POPC   PO417460   6.637  44.346   9.573
  995POPC   GL117461   6.551  44.499   9.101
  995POPC   GL217462   6.795  44.770   8.953
  995POPC   C1A17463   6.473  44.553   8.618
  995POPC   D2A17464   6.847  44.692   8.359
  995POPC   C3A17465   7.004  44.463   8.000
  995POPC   C4A17466   6.820  44.491   7.586
  995POPC   C1B17467   6.966   0.098   8.667
  995POPC   C2B17468   6.959   0.187   8.225
  995POPC   C3B17469   6.813  44.940   7.860
  995POPC   C4B17470   6.530  44.922   7.477
  996POPC   NC317471  24.074  28.576   9.190
  996POPC   PO417472  24.416  28.134   9.605
  996POPC   GL117473  24.368  28.143   9.140
  996POPC   GL217474  24.658  28.005   9.039
  996POPC   C1A17475  24.248  28.274   8.678
  996POPC   D2A17476  24.239  28.580   8.360
  996POPC   C3A17477  24.276  28.469   7.949
  996POPC   C4A17478  24.619  28.615   7.685
  996POPC   C1B17479  24.630  27.941   8.606
  996POPC   C2B17480  24.558  28.162   8.283
  996POPC   C3B17481  24.763  28.202   7.932
  996POPC   C4B17482  24.985  28.240   7.573
  997POPC   NC317483  26.837  34.948   9.624
  997POPC   PO417484  26.880  34.269   9.519
  997POPC   GL117485  26.814  34.661   9.203
  997POPC   GL217486  27.155  34.718   9.246
  997POPC   C1A17487  26.696  34.927   8.788
  997POPC   D2A17488  26.952  34.929   8.386
  997POPC   C3A17489  26.777  34.977   7.965
  997POPC   C4A17490  26.656  34.595   7.780
  997POPC   C1B17491  27.081  34.559   8.793
  997POPC   C2B17492  27.228  34.441   8.382
  997POPC   C3B17493  27.166  34.646   7.964
  997POPC   C4B17494  27.069  34.717   7.499
  998POPC   NC317495  43.309   2.864   9.822
  998POPC   PO417496  42.931   2.469   9.385
  998POPC   GL117497  43.113   2.618   9.017
  998POPC   GL217498  43.115   2.918   9.075
  998POPC   C1A17499  43.093   2.793   8.576
  998POPC   D2A17500  42.847   2.933   8.230
  998POPC   C3A17501  42.991   2.796   7.857
  998POPC   C4A17502  43.118   2.372   7.842
  998POPC   C1B17503  43.478   2.998   8.808
  998POPC   C2B17504  43.617   2.998   8.427
  998POPC   C3B17505  43.469   2.985   8.055
  998POPC   C4B17506  43.621   3.155   7.733
  999POPC   NC317507   5.846  20.139   9.518
  999POPC   PO417508   5.682  19.495   9.560
  999POPC   GL117509   5.966  19.738   9.255
  999POPC   GL217510   5.650  19.805   9.151
  999POPC   C1A17511   6.082  19.978   8.885
  999POPC   D2A17512   5.999  19.675   8.523
  999POPC   C3A17513   6.034  19.786   8.108
  999POPC   C4A17514   5.990  20.158   7.880
  999POPC   C1B17515   5.604  19.898   8.736
  999POPC   C2B17516   5.521  19.685   8.359
  999POPC   C3B17517   5.548  19.850   7.957
  999POPC   C4B17518   5.288  19.656   7.734
 1000POPC   NC317519   9.877  42.705   9.538
 1000POPC   PO417520   9.506  42.164   9.458
 1000POPC   GL117521   9.590  42.463   9.127
 1000POPC   GL217522   9.942  42.553   9.068
 1000POPC   C1A17523   9.696  42.364   8.680
 1000POPC   D2A17524   9.963  42.117   8.413
 1000POPC   C3A17525   9.849  42.147   7.965
 1000POPC   C4A17526   9.609  41.874   7.670
 1000POPC   C1B17527  10.160  42.574   8.674
 1000POPC   C2B17528  10.215  42.485   8.188
 1000POPC   C3B17529   9.929  42.655   7.844
 1000POPC   C4B17530   9.879  42.787   7.392
 1001POPC   NC317531   8.267  29.452   9.973
 1001POPC   PO417532   8.194  29.967   9.509
 1001POPC   GL117533   8.120  29.902   9.098
 1001POPC   GL217534   8.034  29.571   9.160
 1001POPC   C1A17535   8.188  29.828   8.645
 1001POPC   D2A17536   8.070  30.081   8.279
 1001POPC   C3A17537   8.256  29.893   7.919
 1001POPC   C4A17538   8.377  30.004   7.500
 1001POPC   C1B17539   7.721  29.672   8.847
 1001POPC   C2B17540   7.700  29.724   8.399
 1001POPC   C3B17541   7.747  29.798   7.987
 1001POPC   C4B17542   7.906  29.666   7.627
 1002POPC   NC317543  36.098  42.092   9.632
 1002POPC   PO417544  36.681  42.332   9.471
 1002POPC   GL117545  36.334  42.243   9.186
 1002POPC   GL217546  36.304  41.903   9.207
 1002POPC   C1A17547  36.114  42.365   8.809
 1002POPC   D2A17548  36.252  42.635   8.439
 1002POPC   C3A17549  36.170  42.435   8.007
 1002POPC   C4A17550  36.313  42.496   7.556
 1002POPC   C1B17551  36.316  41.905   8.771
 1002POPC   C2B17552  36.119  42.067   8.399
 1002POPC   C3B17553  36.251  41.910   8.050
 1002POPC   C4B17554  36.398  42.025   7.694
 1003POPC   NC317555  16.374  34.842   9.473
 1003POPC   PO417556  17.053  34.605   9.657
 1003POPC   GL117557  17.006  34.475   9.183
 1003POPC   GL217558  16.704  34.675   9.112
 1003POPC   C1A17559  17.091  34.519   8.710
 1003POPC   D2A17560  16.843  34.784   8.407
 1003POPC   C3A17561  16.925  34.890   7.971
 1003POPC   C4A17562  16.972  34.578   7.645
 1003POPC   C1B17563  16.575  34.473   8.742
 1003POPC   C2B17564  16.430  34.480   8.332
 1003POPC   C3B17565  16.592  34.524   7.986
 1003POPC   C4B17566  16.489  34.728   7.656
 1004POPC   NC317567  23.050  33.405   9.517
 1004POPC   PO417568  22.697  34.018   9.385
 1004POPC   GL117569  23.103  33.862   9.168
 1004POPC   GL217570  23.110  33.510   9.039
 1004POPC   C1A17571  23.271  33.890   8.732
 1004POPC   D2A17572  23.102  33.894   8.300
 1004POPC   C3A17573  23.237  33.705   7.904
 1004POPC   C4A17574  22.940  33.802   7.572
 1004POPC   C1B17575  23.004  33.218   8.725
 1004POPC   C2B17576  22.993  33.383   8.325
 1004POPC   C3B17577  22.752  33.618   8.043
 1004POPC   C4B17578  22.543  33.514   7.713
 1005POPC   NC317579  17.605  38.407   9.535
 1005POPC   PO417580  17.538  39.073   9.716
 1005POPC   GL117581  17.404  38.761   9.244
 1005POPC   GL217582  17.378  38.391   9.092
 1005POPC   C1A17583  17.601  38.751   8.789
 1005POPC   D2A17584  17.548  38.887   8.336
 1005POPC   C3A17585  17.430  38.552   8.057
 1005POPC   C4A17586  17.166  38.286   7.821
 1005POPC   C1B17587  17.631  38.216   8.777
 1005POPC   C2B17588  17.800  38.317   8.369
 1005POPC   C3B17589  17.695  38.104   7.977
 1005POPC   C4B17590  17.641  38.262   7.596
 1006POPC   NC317591  12.447  11.965   9.418
 1006POPC   PO417592  12.972  12.268   9.360
 1006POPC   GL117593  12.928  12.047   8.994
 1006POPC   GL217594  12.554  11.998   8.935
 1006POPC   C1A17595  12.895  12.128   8.561
 1006POPC   D2A17596  12.566  12.009   8.334
 1006POPC   C3A17597  12.746  11.942   7.900
 1006POPC   C4A17598  12.859  11.710   7.505
 1006POPC   C1B17599  12.573  12.408   8.860
 1006POPC   C2B17600  12.533  12.539   8.481
 1006POPC   C3B17601  12.648  12.436   8.091
 1006POPC   C4B17602  12.731  12.420   7.698
 1007POPC   NC317603  32.261   0.870   9.448
 1007POPC   PO417604  32.710   1.357   9.517
 1007POPC   GL117605  32.556   1.233   9.136
 1007POPC   GL217606  32.485   1.556   9.015
 1007POPC   C1A17607  32.327   1.116   8.735
 1007POPC   D2A17608  32.365   1.118   8.260
 1007POPC   C3A17609  32.207   0.919   7.868
 1007POPC   C4A17610  32.551   0.908   7.563
 1007POPC   C1B17611  32.063   1.591   8.896
 1007POPC   C2B17612  31.990   1.469   8.484
 1007POPC   C3B17613  32.198   1.587   8.121
 1007POPC   C4B17614  32.293   1.395   7.719
 1008POPC   NC317615  44.258  34.424   9.350
 1008POPC   PO417616  44.910  34.432   9.482
 1008POPC   GL117617  44.735  34.565   9.120
 1008POPC   GL217618  44.478  34.818   9.115
 1008POPC   C1A17619  44.961  34.581   8.786
 1008POPC   D2A17620   0.095  34.781   8.434
 1008POPC   C3A17621  44.959  34.584   8.073
 1008POPC   C4A17622  44.938  34.418   7.691
 1008POPC   C1B17623  44.358  34.569   8.749
 1008POPC   C2B17624  44.293  34.703   8.343
 1008POPC   C3B17625  44.470  34.637   7.942
 1008POPC   C4B17626  44.430  34.306   7.639
 1009POPC   NC317627   1.238  23.661   9.832
 1009POPC   PO417628   1.705  23.375   9.746
 1009POPC   GL117629   1.522  23.561   9.298
 1009POPC   GL217630   1.357  23.900   9.171
 1009POPC   C1A17631   1.480  23.581   8.797
 1009POPC   D2A17632   1.218  23.628   8.397
 1009POPC   C3A17633   1.380  23.657   7.938
 1009POPC   C4A17634   1.265  23.736   7.475
 1009POPC   C1B17635   1.230  24.044   8.715
 1009POPC   C2B17636   1.258  24.102   8.216
 1009POPC   C3B17637   1.418  24.148   7.777
 1009POPC   C4B17638   1.732  24.109   7.424
 1010POPC   NC317639  34.771  16.947   9.526
 1010POPC   PO417640  34.841  16.355   9.498
 1010POPC   GL117641  34.628  16.623   9.149
 1010POPC   GL217642  34.734  16.994   9.027
 1010POPC   C1A17643  34.684  16.624   8.690
 1010POPC   D2A17644  34.668  16.926   8.349
 1010POPC   C3A17645  34.516  16.779   7.948
 1010POPC   C4A17646  34.721  16.680   7.550
 1010POPC   C1B17647  34.338  17.029   8.748
 1010POPC   C2B17648  34.158  17.112   8.310
 1010POPC   C3B17649  34.135  17.109   7.840
 1010POPC   C4B17650  34.184  17.042   7.389
 1011POPC   NC317651  17.372  33.419   9.578
 1011POPC   PO417652  17.667  34.019   9.645
 1011POPC   GL117653  17.673  33.924   9.195
 1011POPC   GL217654  17.661  33.566   9.139
 1011POPC   C1A17655  17.371  33.955   8.815
 1011POPC   D2A17656  17.228  33.829   8.423
 1011POPC   C3A17657  17.379  33.962   8.014
 1011POPC   C4A17658  17.334  33.658   7.702
 1011POPC   C1B17659  17.704  33.618   8.697
 1011POPC   C2B17660  17.747  33.755   8.305
 1011POPC   C3B17661  17.808  33.594   7.909
 1011POPC   C4B17662  18.170  33.464   7.655
 1012POPC   NC317663  17.885  40.429   9.412
 1012POPC   PO417664  17.948  39.761   9.553
 1012POPC   GL117665  17.662  39.960   9.243
 1012POPC   GL217666  17.601  39.688   9.044
 1012POPC   C1A17667  17.341  40.116   8.928
 1012POPC   D2A17668  17.059  39.992   8.560
 1012POPC   C3A17669  17.162  40.223   8.173
 1012POPC   C4A17670  17.412  40.092   7.808
 1012POPC   C1B17671  17.540  39.774   8.615
 1012POPC   C2B17672  17.605  39.954   8.258
 1012POPC   C3B17673  17.729  39.711   7.930
 1012POPC   C4B17674  17.569  39.657   7.558
 1013POPC   NC317675   3.769  37.050   9.653
 1013POPC   PO417676   3.135  36.675   9.823
 1013POPC   GL117677   3.366  36.823   9.408
 1013POPC   GL217678   3.717  36.733   9.277
 1013POPC   C1A17679   3.430  36.966   8.926
 1013POPC   D2A17680   3.453  37.209   8.494
 1013POPC   C3A17681   3.563  37.049   8.055
 1013POPC   C4A17682   3.280  36.842   7.745
 1013POPC   C1B17683   3.927  36.669   8.877
 1013POPC   C2B17684   3.866  36.785   8.446
 1013POPC   C3B17685   3.916  36.640   8.022
 1013POPC   C4B17686   3.794  36.784   7.632
 1014POPC   NC317687  31.295   0.806   9.352
 1014POPC   PO417688  31.872   1.149   9.560
 1014POPC   GL117689  31.610   1.178   9.233
 1014POPC   GL217690  31.755   0.895   9.113
 1014POPC   C1A17691  31.366   1.299   8.882
 1014POPC   D2A17692  31.472   1.522   8.509
 1014POPC   C3A17693  31.225   1.412   8.147
 1014POPC   C4A17694  31.435   1.290   7.778
 1014POPC   C1B17695  31.475   0.798   8.766
 1014POPC   C2B17696  31.418   1.008   8.423
 1014POPC   C3B17697  31.666   0.945   8.074
 1014POPC   C4B17698  31.485   0.781   7.716
 1015POPC   NC317699  26.586   4.563   9.394
 1015POPC   PO417700  26.976   4.041   9.709
 1015POPC   GL117701  27.013   4.258   9.296
 1015POPC   GL217702  27.066   4.613   9.211
 1015POPC   C1A17703  26.960   4.147   8.857
 1015POPC   D2A17704  26.797   4.272   8.474
 1015POPC   C3A17705  26.931   4.136   8.080
 1015POPC   C4A17706  26.624   4.195   7.784
 1015POPC   C1B17707  26.884   4.659   8.815
 1015POPC   C2B17708  26.935   4.796   8.417
 1015POPC   C3B17709  26.769   4.621   8.073
 1015POPC   C4B17710  26.945   4.633   7.734
 1016POPC   NC317711  16.399  37.531   9.558
 1016POPC   PO417712  15.811  37.631   9.796
 1016POPC   GL117713  15.923  37.817   9.373
 1016POPC   GL217714  15.625  38.005   9.249
 1016POPC   C1A17715  15.984  37.751   8.905
 1016POPC   D2A17716  15.742  37.645   8.506
 1016POPC   C3A17717  15.984  37.628   8.137
 1016POPC   C4A17718  15.979  37.447   7.733
 1016POPC   C1B17719  15.693  38.146   8.804
 1016POPC   C2B17720  15.976  38.090   8.471
 1016POPC   C3B17721  15.978  38.154   8.051
 1016POPC   C4B17722  15.905  37.946   7.685
 1017POPC   NC317723  19.398  13.062   9.452
 1017POPC   PO417724  18.945  12.601   9.665
 1017POPC   GL117725  19.109  12.705   9.216
 1017POPC   GL217726  19.482  12.618   9.225
 1017POPC   C1A17727  19.216  12.967   8.806
 1017POPC   D2A17728  19.335  13.168   8.374
 1017POPC   C3A17729  19.110  13.047   7.959
 1017POPC   C4A17730  18.845  13.056   7.527
 1017POPC   C1B17731  19.484  12.527   8.816
 1017POPC   C2B17732  19.353  12.341   8.452
 1017POPC   C3B17733  19.238  12.540   8.092
 1017POPC   C4B17734  19.474  12.537   7.707
 1018POPC   NC317735  37.858   9.450   9.623
 1018POPC   PO417736  37.380   9.870   9.550
 1018POPC   GL117737  37.764   9.827   9.285
 1018POPC   GL217738  37.770  10.121   9.118
 1018POPC   C1A17739  37.836   9.704   8.815
 1018POPC   D2A17740  37.471   9.760   8.461
 1018POPC   C3A17741  37.546   9.652   7.998
 1018POPC   C4A17742  37.801   9.444   7.653
 1018POPC   C1B17743  37.714  10.172   8.674
 1018POPC   C2B17744  37.763  10.098   8.217
 1018POPC   C3B17745  37.647  10.099   7.785
 1018POPC   C4B17746  37.731   9.986   7.351
 1019POPC   NC317747  19.677  38.187   9.545
 1019POPC   PO417748  20.103  38.671   9.584
 1019POPC   GL117749  19.941  38.461   9.196
 1019POPC   GL217750  19.587  38.566   9.196
 1019POPC   C1A17751  19.785  38.376   8.757
 1019POPC   D2A17752  19.579  38.530   8.355
 1019POPC   C3A17753  19.771  38.270   8.004
 1019POPC   C4A17754  19.756  37.977   7.650
 1019POPC   C1B17755  19.558  38.855   8.828
 1019POPC   C2B17756  19.528  39.073   8.424
 1019POPC   C3B17757  19.441  38.938   8.019
 1019POPC   C4B17758  19.508  38.602   7.710
 1020POPC   NC317759  43.180  44.181   9.538
 1020POPC   PO417760  42.962  44.855   9.427
 1020POPC   GL117761  43.162  44.804   9.079
 1020POPC   GL217762  43.119  44.450   9.106
 1020POPC   C1A17763  43.088  44.789   8.631
 1020POPC   D2A17764  42.846  44.782   8.233
 1020POPC   C3A17765  43.101  44.691   7.866
 1020POPC   C4A17766  43.020  44.441   7.504
 1020POPC   C1B17767  43.193  44.290   8.703
 1020POPC   C2B17768  43.150  44.384   8.290
 1020POPC   C3B17769  43.290  44.239   7.890
 1020POPC   C4B17770  43.532  44.446   7.630
 1021POPC   NC317771   6.514  31.933   9.530
 1021POPC   PO417772   6.622  32.571   9.664
 1021POPC   GL117773   6.634  32.381   9.268
 1021POPC   GL217774   6.321  32.289   9.197
 1021POPC   C1A17775   6.797  32.276   8.852
 1021POPC   D2A17776   6.699  32.338   8.422
 1021POPC   C3A17777   6.750  32.025   8.122
 1021POPC   C4A17778   6.982  32.147   7.753
 1021POPC   C1B17779   6.266  32.244   8.735
 1021POPC   C2B17780   6.219  32.006   8.329
 1021POPC   C3B17781   6.319  32.021   7.886
 1021POPC   C4B17782   6.536  32.417   7.786
 1022POPC   NC317783  14.421  20.881   9.452
 1022POPC   PO417784  14.151  20.312   9.483
 1022POPC   GL117785  14.209  20.507   9.108
 1022POPC   GL217786  14.023  20.811   9.107
 1022POPC   C1A17787  14.477  20.568   8.749
 1022POPC   D2A17788  14.443  20.659   8.329
 1022POPC   C3A17789  14.664  20.435   7.996
 1022POPC   C4A17790  14.610  20.396   7.531
 1022POPC   C1B17791  14.200  21.056   8.764
 1022POPC   C2B17792  14.274  21.136   8.302
 1022POPC   C3B17793  14.391  20.917   7.897
 1022POPC   C4B17794  14.163  20.914   7.534
 1023POPC   NC317795  17.759  29.579   9.327
 1023POPC   PO417796  17.721  30.231   9.522
 1023POPC   GL117797  17.596  30.035   9.169
 1023POPC   GL217798  17.910  29.978   9.078
 1023POPC   C1A17799  17.338  29.939   8.804
 1023POPC   D2A17800  17.332  29.592   8.485
 1023POPC   C3A17801  17.249  29.719   8.060
 1023POPC   C4A17802  17.341  30.089   7.814
 1023POPC   C1B17803  17.826  29.857   8.673
 1023POPC   C2B17804  17.684  29.976   8.294
 1023POPC   C3B17805  17.775  29.811   7.898
 1023POPC   C4B17806  17.487  29.647   7.589
 1024POPC   NC317807   3.578   8.482   9.622
 1024POPC   PO417808   3.730   7.914   9.403
 1024POPC   GL117809   3.485   8.233   9.179
 1024POPC   GL217810   3.729   8.506   9.125
 1024POPC   C1A17811   3.402   8.204   8.745
 1024POPC   D2A17812   3.630   7.898   8.444
 1024POPC   C3A17813   3.657   7.995   8.022
 1024POPC   C4A17814   3.401   8.160   7.698
 1024POPC   C1B17815   3.895   8.214   8.806
 1024POPC   C2B17816   3.862   8.335   8.381
 1024POPC   C3B17817   3.735   8.482   7.976
 1024POPC   C4B17818   3.865   8.311   7.548
 1025POPC   NC317819  33.189  17.130   9.621
 1025POPC   PO417820  32.865  16.723   9.478
 1025POPC   GL117821  33.027  17.029   9.141
 1025POPC   GL217822  33.403  17.115   9.100
 1025POPC   C1A17823  33.135  16.927   8.700
 1025POPC   D2A17824  33.345  16.852   8.288
 1025POPC   C3A17825  33.107  16.899   7.884
 1025POPC   C4A17826  32.955  16.741   7.440
 1025POPC   C1B17827  33.570  17.219   8.651
 1025POPC   C2B17828  33.673  17.232   8.182
 1025POPC   C3B17829  33.687  16.860   7.893
 1025POPC   C4B17830  33.464  16.733   7.542
 1026POPC   NC317831   6.969   2.890   9.446
 1026POPC   PO417832   6.538   2.359   9.428
 1026POPC   GL117833   6.758   2.556   9.118
 1026POPC   GL217834   6.597   2.904   9.109
 1026POPC   C1A17835   6.756   2.664   8.690
 1026POPC   D2A17836   6.547   2.790   8.364
 1026POPC   C3A17837   6.606   2.611   7.995
 1026POPC   C4A17838   6.423   2.747   7.608
 1026POPC   C1B17839   6.526   3.168   8.726
 1026POPC   C2B17840   6.670   3.290   8.295
 1026POPC   C3B17841   6.691   3.129   7.875
 1026POPC   C4B17842   6.863   3.064   7.469
 1027POPC   NC317843  10.748   1.095   9.626
 1027POPC   PO417844  10.094   1.323   9.741
 1027POPC   GL117845  10.283   1.274   9.294
 1027POPC   GL217846  10.292   1.569   9.094
 1027POPC   C1A17847  10.335   1.134   8.808
 1027POPC   D2A17848  10.527   1.275   8.386
 1027POPC   C3A17849  10.600   1.096   7.974
 1027POPC   C4A17850  10.526   0.810   7.663
 1027POPC   C1B17851  10.669   1.543   8.817
 1027POPC   C2B17852  10.913   1.636   8.455
 1027POPC   C3B17853  10.664   1.688   8.096
 1027POPC   C4B17854  10.790   1.528   7.737
 1028POPC   NC317855  43.616  42.518   9.586
 1028POPC   PO417856  44.272  42.448   9.444
 1028POPC   GL117857  44.019  42.265   9.124
 1028POPC   GL217858  43.672  42.228   9.142
 1028POPC   C1A17859  44.018  42.074   8.712
 1028POPC   D2A17860  43.997  42.303   8.327
 1028POPC   C3A17861  44.101  42.265   7.897
 1028POPC   C4A17862  44.130  42.567   7.559
 1028POPC   C1B17863  43.720  42.485   8.730
 1028POPC   C2B17864  43.542  42.490   8.272
 1028POPC   C3B17865  43.642  42.498   7.806
 1028POPC   C4B17866  43.641  42.631   7.359
 1029POPC   NC317867  16.428  38.520   9.408
 1029POPC   PO417868  17.115  38.369   9.537
 1029POPC   GL117869  16.880  38.452   9.159
 1029POPC   GL217870  16.656  38.208   9.010
 1029POPC   C1A17871  17.031  38.482   8.720
 1029POPC   D2A17872  16.958  38.342   8.284
 1029POPC   C3A17873  16.643  38.570   8.039
 1029POPC   C4A17874  16.492  38.877   7.742
 1029POPC   C1B17875  16.445  37.979   8.680
 1029POPC   C2B17876  16.458  38.077   8.233
 1029POPC   C3B17877  16.685  38.056   7.839
 1029POPC   C4B17878  16.562  38.043   7.381
 1030POPC   NC317879  42.811  42.600   9.571
 1030POPC   PO417880  43.331  42.150   9.583
 1030POPC   GL117881  43.145  42.249   9.203
 1030POPC   GL217882  42.790  42.183   9.260
 1030POPC   C1A17883  43.298  42.203   8.772
 1030POPC   D2A17884  43.447  42.010   8.395
 1030POPC   C3A17885  43.294  42.129   7.964
 1030POPC   C4A17886  43.314  42.240   7.488
 1030POPC   C1B17887  42.795  42.239   8.809
 1030POPC   C2B17888  42.927  42.116   8.404
 1030POPC   C3B17889  42.772  42.205   7.999
 1030POPC   C4B17890  42.816  42.273   7.569
 1031POPC   NC317891  30.198   3.392   9.599
 1031POPC   PO417892  29.721   3.805   9.497
 1031POPC   GL117893  30.043   3.653   9.182
 1031POPC   GL217894  29.831   3.510   8.925
 1031POPC   C1A17895  30.287   3.678   8.799
 1031POPC   D2A17896  29.998   3.617   8.413
 1031POPC   C3A17897  30.148   3.394   8.031
 1031POPC   C4A17898  30.549   3.280   7.856
 1031POPC   C1B17899  29.646   3.167   8.679
 1031POPC   C2B17900  29.467   3.150   8.319
 1031POPC   C3B17901  29.634   3.434   8.021
 1031POPC   C4B17902  29.744   3.358   7.595
 1032POPC   NC317903  12.610   5.141   9.516
 1032POPC   PO417904  13.194   5.457   9.545
 1032POPC   GL117905  13.005   5.182   9.158
 1032POPC   GL217906  12.628   5.030   9.028
 1032POPC   C1A17907  12.969   5.190   8.707
 1032POPC   D2A17908  12.844   5.476   8.415
 1032POPC   C3A17909  12.902   5.364   8.019
 1032POPC   C4A17910  12.863   5.553   7.654
 1032POPC   C1B17911  12.522   4.854   8.592
 1032POPC   C2B17912  12.689   4.926   8.133
 1032POPC   C3B17913  12.638   5.064   7.680
 1032POPC   C4B17914  12.470   4.876   7.262
 1033POPC   NC317915  43.605  44.171   9.974
 1033POPC   PO417916  43.542  43.956   9.354
 1033POPC   GL117917  43.412  43.642   9.058
 1033POPC   GL217918  43.621  43.323   9.093
 1033POPC   C1A17919  43.481  43.842   8.666
 1033POPC   D2A17920  43.437  43.936   8.258
 1033POPC   C3A17921  43.754  44.135   8.018
 1033POPC   C4A17922  43.690  43.974   7.635
 1033POPC   C1B17923  43.743  43.400   8.640
 1033POPC   C2B17924  43.914  43.708   8.310
 1033POPC   C3B17925  44.084  43.779   7.871
 1033POPC   C4B17926  44.145  43.891   7.420
 1034POPC   NC317927  16.083  11.725   9.504
 1034POPC   PO417928  16.030  12.314   9.756
 1034POPC   GL117929  16.047  12.186   9.287
 1034POPC   GL217930  15.825  11.910   9.121
 1034POPC   C1A17931  16.002  12.267   8.843
 1034POPC   D2A17932  15.962  12.408   8.446
 1034POPC   C3A17933  16.199  12.167   8.141
 1034POPC   C4A17934  15.914  12.244   7.791
 1034POPC   C1B17935  16.061  11.746   8.801
 1034POPC   C2B17936  15.904  11.873   8.421
 1034POPC   C3B17937  15.894  11.763   7.983
 1034POPC   C4B17938  15.868  11.780   7.517
 1035POPC   NC317939  36.383  22.461   9.429
 1035POPC   PO417940  37.049  22.867   9.473
 1035POPC   GL117941  36.835  22.930   9.127
 1035POPC   GL217942  36.738  22.622   9.113
 1035POPC   C1A17943  36.960  23.029   8.726
 1035POPC   D2A17944  36.793  23.006   8.315
 1035POPC   C3A17945  36.963  22.965   7.890
 1035POPC   C4A17946  36.694  23.002   7.518
 1035POPC   C1B17947  36.606  22.662   8.706
 1035POPC   C2B17948  36.625  22.508   8.306
 1035POPC   C3B17949  36.555  22.648   7.921
 1035POPC   C4B17950  36.834  22.527   7.602
 1036POPC   NC317951  23.954  34.149   9.312
 1036POPC   PO417952  23.534  33.655   9.586
 1036POPC   GL117953  23.624  33.732   9.141
 1036POPC   GL217954  23.923  33.555   9.144
 1036POPC   C1A17955  23.788  33.799   8.690
 1036POPC   D2A17956  23.659  33.676   8.252
 1036POPC   C3A17957  23.720  33.913   7.879
 1036POPC   C4A17958  23.798  33.944   7.425
 1036POPC   C1B17959  23.988  33.280   8.795
 1036POPC   C2B17960  24.190  33.301   8.377
 1036POPC   C3B17961  24.047  33.459   7.975
 1036POPC   C4B17962  23.643  33.415   7.758
 1037POPC   NC317963  31.286   5.991   9.459
 1037POPC   PO417964  31.952   5.992   9.588
 1037POPC   GL117965  31.699   5.853   9.161
 1037POPC   GL217966  31.497   5.564   9.155
 1037POPC   C1A17967  31.374   5.937   8.791
 1037POPC   D2A17968  31.411   6.198   8.422
 1037POPC   C3A17969  31.296   6.016   8.066
 1037POPC   C4A17970  31.511   6.012   7.686
 1037POPC   C1B17971  31.685   5.542   8.741
 1037POPC   C2B17972  31.472   5.612   8.332
 1037POPC   C3B17973  31.447   5.524   7.892
 1037POPC   C4B17974  31.775   5.367   7.683
 1038POPC   NC317975  33.776  30.097   9.687
 1038POPC   PO417976  33.717  30.408   9.176
 1038POPC   GL117977  33.822  29.997   9.116
 1038POPC   GL217978  33.513  29.870   9.219
 1038POPC   C1A17979  34.051  29.930   8.726
 1038POPC   D2A17980  33.840  29.871   8.326
 1038POPC   C3A17981  33.762  30.182   8.016
 1038POPC   C4A17982  33.998  30.084   7.644
 1038POPC   C1B17983  33.463  29.914   8.756
 1038POPC   C2B17984  33.315  29.826   8.336
 1038POPC   C3B17985  33.464  29.782   7.908
 1038POPC   C4B17986  33.505  30.048   7.554
 1039POPC   NC317987   5.507   7.256   9.585
 1039POPC   PO417988   6.119   7.328   9.854
 1039POPC   GL117989   5.968   7.131   9.440
 1039POPC   GL217990   6.090   7.339   9.227
 1039POPC   C1A17991   5.735   7.094   8.975
 1039POPC   D2A17992   5.865   7.170   8.523
 1039POPC   C3A17993   5.679   7.208   8.130
 1039POPC   C4A17994   5.832   7.085   7.777
 1039POPC   C1B17995   6.084   7.512   8.841
 1039POPC   C2B17996   6.293   7.520   8.471
 1039POPC   C3B17997   6.149   7.395   8.065
 1039POPC   C4B17998   5.920   7.650   7.797
 1040POPC   NC317999  29.875   1.450   9.653
 1040POPC   PO418000  30.409   1.118   9.396
 1040POPC   GL118001  29.998   1.193   9.218
 1040POPC   GL218002  30.139   1.368   8.941
 1040POPC   C1A18003  29.686   1.181   8.894
 1040POPC   D2A18004  29.849   1.324   8.509
 1040POPC   C3A18005  29.763   1.173   8.129
 1040POPC   C4A18006  29.863   1.391   7.782
 1040POPC   C1B18007  30.180   0.998   8.740
 1040POPC   C2B18008  30.211   0.974   8.315
 1040POPC   C3B18009  30.242   1.046   7.883
 1040POPC   C4B18010  30.296   0.835   7.485
 1041POPC   NC318011   2.356   5.104   9.458
 1041POPC   PO418012   2.965   4.836   9.511
 1041POPC   GL118013   2.834   5.192   9.256
 1041POPC   GL218014   3.099   5.339   9.070
 1041POPC   C1A18015   2.646   5.269   8.820
 1041POPC   D2A18016   2.841   5.128   8.411
 1041POPC   C3A18017   2.656   5.023   7.990
 1041POPC   C4A18018   2.742   5.216   7.570
 1041POPC   C1B18019   3.035   4.922   8.851
 1041POPC   C2B18020   3.114   4.683   8.482
 1041POPC   C3B18021   3.154   4.878   8.079
 1041POPC   C4B18022   3.009   4.781   7.679
 1042POPC   NC318023  14.782  16.700   9.503
 1042POPC   PO418024  14.223  17.103   9.526
 1042POPC   GL118025  14.222  16.776   9.176
 1042POPC   GL218026  14.579  16.674   9.040
 1042POPC   C1A18027  14.166  16.705   8.739
 1042POPC   D2A18028  14.464  16.868   8.485
 1042POPC   C3A18029  14.358  16.972   8.062
 1042POPC   C4A18030  14.356  16.619   7.792
 1042POPC   C1B18031  14.554  16.396   8.682
 1042POPC   C2B18032  14.559  16.423   8.216
 1042POPC   C3B18033  14.719  16.259   7.799
 1042POPC   C4B18034  14.735  16.531   7.407
 1043POPC   NC318035  38.923  12.013   9.649
 1043POPC   PO418036  39.582  11.804   9.538
 1043POPC   GL118037  39.315  12.033   9.200
 1043POPC   GL218038  38.977  11.881   9.159
 1043POPC   C1A18039  39.453  12.320   8.828
 1043POPC   D2A18040  39.267  12.420   8.409
 1043POPC   C3A18041  39.313  12.048   8.095
 1043POPC   C4A18042  39.182  11.935   7.622
 1043POPC   C1B18043  38.992  12.131   8.811
 1043POPC   C2B18044  38.888  12.047   8.401
 1043POPC   C3B18045  38.829  12.112   7.958
 1043POPC   C4B18046  38.880  12.356   7.586
 1044POPC   NC318047  42.633  33.702   9.567
 1044POPC   PO418048  42.089  34.130   9.538
 1044POPC   GL118049  42.101  33.854   9.168
 1044POPC   GL218050  42.442  33.784   9.122
 1044POPC   C1A18051  42.160  33.635   8.758
 1044POPC   D2A18052  42.326  33.838   8.387
 1044POPC   C3A18053  42.081  33.829   7.996
 1044POPC   C4A18054  42.128  33.501   7.696
 1044POPC   C1B18055  42.676  33.999   8.814
 1044POPC   C2B18056  42.774  34.281   8.471
 1044POPC   C3B18057  42.678  34.085   8.068
 1044POPC   C4B18058  42.523  33.829   7.760
 1045POPC   NC318059   0.342  38.839   9.378
 1045POPC   PO418060   0.518  38.173   9.522
 1045POPC   GL118061   0.580  38.415   9.191
 1045POPC   GL218062   0.223  38.400   9.136
 1045POPC   C1A18063   0.753  38.373   8.793
 1045POPC   D2A18064   0.835  38.576   8.406
 1045POPC   C3A18065   0.727  38.372   8.006
 1045POPC   C4A18066   0.309  38.254   7.825
 1045POPC   C1B18067   0.288  38.619   8.755
 1045POPC   C2B18068   0.327  38.516   8.335
 1045POPC   C3B18069   0.339  38.736   7.981
 1045POPC   C4B18070   0.283  38.989   7.632
 1046POPC   NC318071  44.182  39.725   9.703
 1046POPC   PO418072  43.564  39.761   9.502
 1046POPC   GL118073  43.738  40.018   9.193
 1046POPC   GL218074  44.080  39.939   9.239
 1046POPC   C1A18075  43.892  40.181   8.818
 1046POPC   D2A18076  44.066  40.039   8.451
 1046POPC   C3A18077  43.828  40.118   8.111
 1046POPC   C4A18078  43.861  39.965   7.718
 1046POPC   C1B18079  44.192  39.731   8.865
 1046POPC   C2B18080  44.191  39.541   8.442
 1046POPC   C3B18081  44.137  39.668   8.017
 1046POPC   C4B18082  44.155  39.523   7.561
 1047POPC   NC318083   6.971  39.334   9.900
 1047POPC   PO418084   6.389  39.377   9.574
 1047POPC   GL118085   6.383  39.181   9.179
 1047POPC   GL218086   6.725  39.208   9.173
 1047POPC   C1A18087   6.457  39.194   8.718
 1047POPC   D2A18088   6.749  39.143   8.361
 1047POPC   C3A18089   6.654  39.319   7.954
 1047POPC   C4A18090   6.636  39.241   7.497
 1047POPC   C1B18091   6.820  39.561   8.887
 1047POPC   C2B18092   7.039  39.561   8.501
 1047POPC   C3B18093   7.108  39.488   8.073
 1047POPC   C4B18094   6.979  39.569   7.659
 1048POPC   NC318095   6.592  31.308   9.490
 1048POPC   PO418096   6.215  31.780   9.206
 1048POPC   GL118097   6.576  31.871   9.040
 1048POPC   GL218098   6.671  31.565   9.060
 1048POPC   C1A18099   6.598  31.853   8.634
 1048POPC   D2A18100   6.456  31.534   8.408
 1048POPC   C3A18101   6.748  31.494   8.103
 1048POPC   C4A18102   6.785  31.680   7.706
 1048POPC   C1B18103   6.461  31.198   8.856
 1048POPC   C2B18104   6.378  31.021   8.465
 1048POPC   C3B18105   6.382  31.146   8.066
 1048POPC   C4B18106   6.591  31.215   7.695
 1049POPC   NC318107  37.325  26.837   9.481
 1049POPC   PO418108  37.791  26.363   9.702
 1049POPC   GL118109  37.736  26.583   9.251
 1049POPC   GL218110  38.052  26.740   9.110
 1049POPC   C1A18111  37.617  26.754   8.810
 1049POPC   D2A18112  37.405  26.853   8.417
 1049POPC   C3A18113  37.538  26.787   8.022
 1049POPC   C4A18114  37.817  26.576   7.758
 1049POPC   C1B18115  38.045  27.045   8.780
 1049POPC   C2B18116  37.863  27.066   8.382
 1049POPC   C3B18117  38.056  26.900   8.047
 1049POPC   C4B18118  38.216  26.991   7.667
 1050POPC   NC318119  42.804  36.599   9.435
 1050POPC   PO418120  42.812  37.224   9.574
 1050POPC   GL118121  43.101  37.000   9.280
 1050POPC   GL218122  42.840  36.961   9.068
 1050POPC   C1A18123  43.227  36.633   8.950
 1050POPC   D2A18124  43.237  36.556   8.490
 1050POPC   C3A18125  43.006  36.568   8.081
 1050POPC   C4A18126  43.269  36.614   7.680
 1050POPC   C1B18127  42.871  36.890   8.668
 1050POPC   C2B18128  42.921  37.029   8.279
 1050POPC   C3B18129  42.885  37.143   7.877
 1050POPC   C4B18130  43.186  37.137   7.572
 1051POPC   NC318131  32.705  41.927   9.429
 1051POPC   PO418132  33.342  41.879   9.214
 1051POPC   GL118133  33.042  41.692   9.004
 1051POPC   GL218134  33.097  41.336   9.082
 1051POPC   C1A18135  32.890  41.742   8.549
 1051POPC   D2A18136  32.820  42.063   8.248
 1051POPC   C3A18137  33.024  42.014   7.847
 1051POPC   C4A18138  33.279  41.761   7.588
 1051POPC   C1B18139  33.316  41.453   8.672
 1051POPC   C2B18140  33.290  41.611   8.242
 1051POPC   C3B18141  33.399  41.363   7.886
 1051POPC   C4B18142  33.513  41.299   7.439
 1052POPC   NC318143   5.071  26.546   9.379
 1052POPC   PO418144   5.375  26.961   9.877
 1052POPC   GL118145   5.245  27.015   9.386
 1052POPC   GL218146   5.429  26.870   9.149
 1052POPC   C1A18147   5.031  26.991   8.887
 1052POPC   D2A18148   5.132  26.985   8.375
 1052POPC   C3A18149   4.998  26.932   7.890
 1052POPC   C4A18150   4.796  26.753   7.485
 1052POPC   C1B18151   5.436  26.733   8.726
 1052POPC   C2B18152   5.622  26.858   8.345
 1052POPC   C3B18153   5.498  26.796   7.955
 1052POPC   C4B18154   5.458  26.988   7.588
 1053POPC   NC318155   3.679   6.003   9.587
 1053POPC   PO418156   3.158   5.529   9.545
 1053POPC   GL118157   3.297   5.804   9.229
 1053POPC   GL218158   3.657   5.746   9.145
 1053POPC   C1A18159   3.276   5.767   8.788
 1053POPC   D2A18160   3.510   5.681   8.426
 1053POPC   C3A18161   3.320   5.730   8.015
 1053POPC   C4A18162   3.588   5.687   7.646
 1053POPC   C1B18163   3.582   6.159   8.916
 1053POPC   C2B18164   3.644   6.183   8.480
 1053POPC   C3B18165   3.713   6.044   8.065
 1053POPC   C4B18166   3.698   6.202   7.669
 1054POPC   NC318167  26.589   7.024   9.595
 1054POPC   PO418168  27.054   7.413   9.462
 1054POPC   GL118169  26.831   7.510   9.105
 1054POPC   GL218170  26.653   7.227   9.124
 1054POPC   C1A18171  26.773   7.419   8.650
 1054POPC   D2A18172  27.011   7.294   8.304
 1054POPC   C3A18173  26.955   7.525   7.934
 1054POPC   C4A18174  26.668   7.850   7.776
 1054POPC   C1B18175  26.474   6.868   8.918
 1054POPC   C2B18176  26.438   6.770   8.486
 1054POPC   C3B18177  26.448   7.099   8.177
 1054POPC   C4B18178  26.666   7.136   7.810
 1055POPC   NC318179   0.967   7.550   9.654
 1055POPC   PO418180   1.562   7.440   9.581
 1055POPC   GL118181   1.324   7.491   9.231
 1055POPC   GL218182   1.087   7.757   9.180
 1055POPC   C1A18183   1.164   7.416   8.808
 1055POPC   D2A18184   1.014   7.551   8.437
 1055POPC   C3A18185   1.228   7.479   8.055
 1055POPC   C4A18186   1.288   7.347   7.627
 1055POPC   C1B18187   1.478   7.843   8.911
 1055POPC   C2B18188   1.676   7.789   8.517
 1055POPC   C3B18189   1.714   7.631   8.077
 1055POPC   C4B18190   1.612   7.730   7.658
 1056POPC   NC318191  20.230  29.138   9.373
 1056POPC   PO418192  20.017  29.732   9.586
 1056POPC   GL118193  19.839  29.602   9.161
 1056POPC   GL218194  19.577  29.339   9.151
 1056POPC   C1A18195  19.977  29.333   8.794
 1056POPC   D2A18196  19.817  29.075   8.458
 1056POPC   C3A18197  20.018  29.166   8.072
 1056POPC   C4A18198  19.932  28.975   7.704
 1056POPC   C1B18199  19.482  29.425   8.706
 1056POPC   C2B18200  19.659  29.542   8.276
 1056POPC   C3B18201  19.627  29.395   7.835
 1056POPC   C4B18202  19.622  29.240   7.376
 1057POPC   NC318203  19.234  22.491   9.386
 1057POPC   PO418204  19.161  23.141   9.375
 1057POPC   GL118205  18.939  22.962   9.097
 1057POPC   GL218206  18.640  23.223   9.160
 1057POPC   C1A18207  19.094  22.697   8.731
 1057POPC   D2A18208  19.391  22.748   8.355
 1057POPC   C3A18209  19.201  22.793   7.942
 1057POPC   C4A18210  19.052  22.564   7.570
 1057POPC   C1B18211  18.594  23.017   8.753
 1057POPC   C2B18212  18.881  23.013   8.384
 1057POPC   C3B18213  18.771  23.102   7.972
 1057POPC   C4B18214  18.892  23.035   7.568
 1058POPC   NC318215  25.297  29.755   9.335
 1058POPC   PO418216  24.998  30.316   9.459
 1058POPC   GL118217  24.873  29.990   9.128
 1058POPC   GL218218  24.820  29.610   9.205
 1058POPC   C1A18219  25.034  29.885   8.680
 1058POPC   D2A18220  25.027  29.936   8.197
 1058POPC   C3A18221  25.348  29.720   7.906
 1058POPC   C4A18222  25.639  29.720   7.551
 1058POPC   C1B18223  24.812  29.400   8.798
 1058POPC   C2B18224  24.730  29.576   8.396
 1058POPC   C3B18225  24.912  29.465   7.976
 1058POPC   C4B18226  25.030  29.531   7.523
 1059POPC   NC318227  13.376  16.210   9.362
 1059POPC   PO418228  12.995  15.700   9.608
 1059POPC   GL118229  12.820  15.834   9.192
 1059POPC   GL218230  13.126  15.889   9.037
 1059POPC   C1A18231  12.731  15.952   8.720
 1059POPC   D2A18232  12.991  15.786   8.371
 1059POPC   C3A18233  12.992  15.998   7.973
 1059POPC   C4A18234  12.647  16.152   7.767
 1059POPC   C1B18235  12.925  15.497   8.803
 1059POPC   C2B18236  12.621  15.444   8.452
 1059POPC   C3B18237  12.627  15.629   8.037
 1059POPC   C4B18238  13.029  15.520   7.862
 1060POPC   NC318239   1.908   7.137   9.505
 1060POPC   PO418240   2.225   7.683   9.628
 1060POPC   GL118241   2.208   7.480   9.242
 1060POPC   GL218242   1.860   7.543   9.173
 1060POPC   C1A18243   2.147   7.258   8.834
 1060POPC   D2A18244   2.015   7.428   8.456
 1060POPC   C3A18245   2.217   7.428   8.041
 1060POPC   C4A18246   2.390   7.754   7.767
 1060POPC   C1B18247   1.647   7.300   8.877
 1060POPC   C2B18248   1.530   7.286   8.455
 1060POPC   C3B18249   1.792   7.118   8.143
 1060POPC   C4B18250   1.771   7.209   7.748
 1061POPC   NC318251  10.862  39.094   9.642
 1061POPC   PO418252  10.506  39.631   9.641
 1061POPC   GL118253  10.389  39.396   9.200
 1061POPC   GL218254  10.071  39.350   9.159
 1061POPC   C1A18255  10.535  39.214   8.815
 1061POPC   D2A18256  10.559  39.167   8.352
 1061POPC   C3A18257  10.910  39.058   8.056
 1061POPC   C4A18258  10.905  39.035   7.595
 1061POPC   C1B18259   9.977  39.460   8.732
 1061POPC   C2B18260  10.108  39.593   8.337
 1061POPC   C3B18261  10.224  39.415   7.984
 1061POPC   C4B18262  10.423  39.059   7.849
 1062POPC   NC318263  39.075  38.014   9.419
 1062POPC   PO418264  39.404  37.430   9.492
 1062POPC   GL118265  39.127  37.551   9.191
 1062POPC   GL218266  39.392  37.773   9.059
 1062POPC   C1A18267  38.940  37.701   8.801
 1062POPC   D2A18268  39.113  37.845   8.407
 1062POPC   C3A18269  39.132  37.586   8.033
 1062POPC   C4A18270  39.227  37.503   7.591
 1062POPC   C1B18271  39.552  37.976   8.677
 1062POPC   C2B18272  39.490  38.189   8.258
 1062POPC   C3B18273  39.148  38.119   7.954
 1062POPC   C4B18274  39.166  37.989   7.509
 1063POPC   NC318275  36.045  22.135   9.783
 1063POPC   PO418276  35.942  22.440   9.247
 1063POPC   GL118277  36.287  22.335   8.971
 1063POPC   GL218278  36.272  22.024   9.104
 1063POPC   C1A18279  36.412  22.163   8.621
 1063POPC   D2A18280  36.139  22.361   8.391
 1063POPC   C3A18281  36.188  22.245   8.003
 1063POPC   C4A18282  35.896  22.264   7.697
 1063POPC   C1B18283  35.944  21.990   8.758
 1063POPC   C2B18284  35.919  21.880   8.375
 1063POPC   C3B18285  35.695  21.969   8.047
 1063POPC   C4B18286  35.700  21.777   7.637
 1064POPC   NC318287  28.866  17.332   9.369
 1064POPC   PO418288  29.415  17.706   9.624
 1064POPC   GL118289  29.332  17.839   9.205
 1064POPC   GL218290  29.070  17.643   9.021
 1064POPC   C1A18291  29.363  17.976   8.799
 1064POPC   D2A18292  29.168  17.742   8.482
 1064POPC   C3A18293  29.256  17.768   8.055
 1064POPC   C4A18294  29.045  17.666   7.692
 1064POPC   C1B18295  29.019  17.304   8.688
 1064POPC   C2B18296  28.902  17.374   8.229
 1064POPC   C3B18297  29.088  17.174   7.868
 1064POPC   C4B18298  29.002  17.070   7.421
 1065POPC   NC318299  11.873   9.259   9.618
 1065POPC   PO418300  12.145   8.714   9.551
 1065POPC   GL118301  12.014   8.994   9.214
 1065POPC   GL218302  11.668   8.928   9.281
 1065POPC   C1A18303  12.074   9.121   8.796
 1065POPC   D2A18304  12.186   8.898   8.398
 1065POPC   C3A18305  12.079   9.141   8.052
 1065POPC   C4A18306  12.073   9.046   7.644
 1065POPC   C1B18307  11.535   9.043   8.866
 1065POPC   C2B18308  11.693   9.054   8.447
 1065POPC   C3B18309  11.575   9.232   8.076
 1065POPC   C4B18310  11.697   9.387   7.714
 1066POPC   NC318311  36.248  41.037   9.978
 1066POPC   PO418312  36.125  41.608   9.600
 1066POPC   GL118313  36.107  41.430   9.185
 1066POPC   GL218314  35.896  41.647   8.981
 1066POPC   C1A18315  36.268  41.400   8.776
 1066POPC   D2A18316  36.040  41.555   8.437
 1066POPC   C3A18317  36.253  41.408   8.093
 1066POPC   C4A18318  36.404  41.534   7.696
 1066POPC   C1B18319  35.736  41.917   8.705
 1066POPC   C2B18320  35.581  42.039   8.311
 1066POPC   C3B18321  35.773  42.028   7.937
 1066POPC   C4B18322  35.910  41.675   7.717
 1067POPC   NC318323  29.210  27.767   9.464
 1067POPC   PO418324  29.729  27.713   9.332
 1067POPC   GL118325  29.398  27.598   8.995
 1067POPC   GL218326  29.021  27.503   9.074
 1067POPC   C1A18327  29.299  27.518   8.549
 1067POPC   D2A18328  29.469  27.345   8.163
 1067POPC   C3A18329  29.229  27.541   7.837
 1067POPC   C4A18330  29.013  27.926   7.746
 1067POPC   C1B18331  28.810  27.444   8.679
 1067POPC   C2B18332  28.906  27.308   8.253
 1067POPC   C3B18333  28.747  27.501   7.884
 1067POPC   C4B18334  28.889  27.498   7.451
 1068POPC   NC318335  44.258  15.269   9.637
 1068POPC   PO418336  44.921  15.367   9.554
 1068POPC   GL118337  44.673  15.030   9.353
 1068POPC   GL218338  44.339  15.054   9.194
 1068POPC   C1A18339  44.705  14.957   8.871
 1068POPC   D2A18340  44.612  15.172   8.496
 1068POPC   C3A18341  44.698  14.973   8.111
 1068POPC   C4A18342  44.855  15.185   7.784
 1068POPC   C1B18343  44.220  15.307   8.853
 1068POPC   C2B18344  44.109  15.328   8.431
 1068POPC   C3B18345  44.323  15.313   8.059
 1068POPC   C4B18346  44.403  15.369   7.656
 1069POPC   NC318347  16.597  33.261   9.658
 1069POPC   PO418348  17.197  32.988   9.631
 1069POPC   GL118349  16.911  32.877   9.316
 1069POPC   GL218350  17.150  32.647   9.192
 1069POPC   C1A18351  16.659  32.972   8.914
 1069POPC   D2A18352  16.539  32.991   8.449
 1069POPC   C3A18353  16.594  33.202   8.032
 1069POPC   C4A18354  16.619  32.871   7.705
 1069POPC   C1B18355  17.157  32.933   8.880
 1069POPC   C2B18356  17.101  32.930   8.455
 1069POPC   C3B18357  17.024  32.922   8.024
 1069POPC   C4B18358  16.980  33.246   7.684
 1070POPC   NC318359  23.158   7.819   9.478
 1070POPC   PO418360  22.959   7.185   9.548
 1070POPC   GL118361  22.882   7.205   9.165
 1070POPC   GL218362  22.800   7.543   9.188
 1070POPC   C1A18363  22.938   7.304   8.751
 1070POPC   D2A18364  23.016   7.120   8.381
 1070POPC   C3A18365  23.057   7.429   8.070
 1070POPC   C4A18366  23.167   7.331   7.682
 1070POPC   C1B18367  22.911   7.808   8.876
 1070POPC   C2B18368  22.881   7.768   8.449
 1070POPC   C3B18369  22.784   7.873   8.030
 1070POPC   C4B18370  22.661   7.559   7.719
 1071POPC   NC318371  11.619  25.077   9.525
 1071POPC   PO418372  11.011  25.276   9.655
 1071POPC   GL118373  11.144  25.265   9.202
 1071POPC   GL218374  11.433  25.449   9.104
 1071POPC   C1A18375  11.106  25.338   8.740
 1071POPC   D2A18376  11.123  25.544   8.331
 1071POPC   C3A18377  11.066  25.307   7.940
 1071POPC   C4A18378  11.237  25.203   7.532
 1071POPC   C1B18379  11.540  25.646   8.701
 1071POPC   C2B18380  11.795  25.590   8.323
 1071POPC   C3B18381  11.709  25.438   7.891
 1071POPC   C4B18382  11.651  25.479   7.418
 1072POPC   NC318383  21.634  41.885   9.540
 1072POPC   PO418384  21.010  41.551   9.648
 1072POPC   GL118385  21.262  41.634   9.244
 1072POPC   GL218386  21.537  41.378   9.161
 1072POPC   C1A18387  21.097  41.825   8.836
 1072POPC   D2A18388  21.128  41.668   8.407
 1072POPC   C3A18389  21.342  41.761   7.997
 1072POPC   C4A18390  21.063  41.743   7.625
 1072POPC   C1B18391  21.376  41.397   8.762
 1072POPC   C2B18392  21.607  41.468   8.361
 1072POPC   C3B18393  21.832  41.440   7.954
 1072POPC   C4B18394  21.790  41.330   7.489
 1073POPC   NC318395  26.557  17.000   9.539
 1073POPC   PO418396  27.182  16.632   9.459
 1073POPC   GL118397  26.941  16.551   9.110
 1073POPC   GL218398  26.646  16.691   9.140
 1073POPC   C1A18399  26.858  16.678   8.680
 1073POPC   D2A18400  26.933  16.896   8.324
 1073POPC   C3A18401  26.972  16.692   7.957
 1073POPC   C4A18402  26.903  16.954   7.676
 1073POPC   C1B18403  26.535  17.035   8.816
 1073POPC   C2B18404  26.420  17.066   8.402
 1073POPC   C3B18405  26.483  16.900   8.006
 1073POPC   C4B18406  26.505  16.551   7.738
 1074POPC   NC318407  38.596  32.389   9.928
 1074POPC   PO418408  38.257  32.072   9.404
 1074POPC   GL118409  38.492  32.367   9.125
 1074POPC   GL218410  38.823  32.509   9.212
 1074POPC   C1A18411  38.525  32.260   8.688
 1074POPC   D2A18412  38.458  32.035   8.285
 1074POPC   C3A18413  38.538  31.951   7.855
 1074POPC   C4A18414  38.400  32.223   7.498
 1074POPC   C1B18415  38.931  32.562   8.770
 1074POPC   C2B18416  38.778  32.534   8.333
 1074POPC   C3B18417  38.706  32.435   7.890
 1074POPC   C4B18418  38.818  32.558   7.445
 1075POPC   NC318419  39.746  25.245  10.137
 1075POPC   PO418420  40.148  25.252   9.627
 1075POPC   GL118421  40.002  25.180   9.200
 1075POPC   GL218422  40.310  25.263   9.126
 1075POPC   C1A18423  40.017  25.282   8.717
 1075POPC   D2A18424  40.090  25.498   8.319
 1075POPC   C3A18425  39.967  25.256   7.942
 1075POPC   C4A18426  39.589  25.298   7.660
 1075POPC   C1B18427  40.436  24.992   8.780
 1075POPC   C2B18428  40.304  25.006   8.364
 1075POPC   C3B18429  40.544  25.024   8.016
 1075POPC   C4B18430  40.400  25.051   7.601
 1076POPC   NC318431  26.446  33.322   9.502
 1076POPC   PO418432  26.804  32.783   9.747
 1076POPC   GL118433  26.816  32.863   9.265
 1076POPC   GL218434  26.485  32.889   9.225
 1076POPC   C1A18435  26.787  33.109   8.840
 1076POPC   D2A18436  26.865  33.354   8.418
 1076POPC   C3A18437  26.764  33.211   7.979
 1076POPC   C4A18438  26.993  33.237   7.573
 1076POPC   C1B18439  26.367  32.795   8.808
 1076POPC   C2B18440  26.540  32.930   8.413
 1076POPC   C3B18441  26.599  32.711   8.052
 1076POPC   C4B18442  26.776  32.792   7.655
 1077POPC   NC318443  39.474  33.793   9.522
 1077POPC   PO418444  38.804  33.539   9.537
 1077POPC   GL118445  39.063  33.755   9.208
 1077POPC   GL218446  39.446  33.708   9.033
 1077POPC   C1A18447  39.068  33.980   8.842
 1077POPC   D2A18448  39.267  33.846   8.528
 1077POPC   C3A18449  39.179  33.959   8.112
 1077POPC   C4A18450  39.433  33.810   7.797
 1077POPC   C1B18451  39.596  33.353   8.744
 1077POPC   C2B18452  39.767  33.237   8.335
 1077POPC   C3B18453  39.490  33.315   7.985
 1077POPC   C4B18454  39.556  33.370   7.543
 1078POPC   NC318455   7.807  30.929   9.462
 1078POPC   PO418456   7.410  30.411   9.519
 1078POPC   GL118457   7.265  30.571   9.141
 1078POPC   GL218458   7.377  30.881   9.171
 1078POPC   C1A18459   7.202  30.478   8.704
 1078POPC   D2A18460   7.325  30.649   8.316
 1078POPC   C3A18461   7.219  30.519   7.927
 1078POPC   C4A18462   7.480  30.575   7.564
 1078POPC   C1B18463   7.329  30.980   8.733
 1078POPC   C2B18464   7.606  31.049   8.373
 1078POPC   C3B18465   7.602  30.954   7.913
 1078POPC   C4B18466   7.747  31.136   7.494
 1079POPC   NC318467  43.016  14.091   9.486
 1079POPC   PO418468  43.245  13.429   9.408
 1079POPC   GL118469  43.044  13.598   9.067
 1079POPC   GL218470  42.945  13.923   9.014
 1079POPC   C1A18471  43.161  13.578   8.625
 1079POPC   D2A18472  43.309  13.283   8.297
 1079POPC   C3A18473  43.189  13.489   7.906
 1079POPC   C4A18474  42.864  13.414   7.575
 1079POPC   C1B18475  42.959  14.039   8.585
 1079POPC   C2B18476  42.981  13.876   8.177
 1079POPC   C3B18477  42.898  13.899   7.731
 1079POPC   C4B18478  42.930  14.006   7.269
 1080POPC   NC318479  12.412  21.993   9.504
 1080POPC   PO418480  11.876  22.323   9.463
 1080POPC   GL118481  12.056  22.351   9.109
 1080POPC   GL218482  12.396  22.318   9.114
 1080POPC   C1A18483  12.043  22.196   8.709
 1080POPC   D2A18484  11.954  22.126   8.288
 1080POPC   C3A18485  12.119  22.437   8.031
 1080POPC   C4A18486  11.921  22.648   7.721
 1080POPC   C1B18487  12.508  21.996   8.826
 1080POPC   C2B18488  12.476  22.081   8.388
 1080POPC   C3B18489  12.532  22.149   7.968
 1080POPC   C4B18490  12.258  22.023   7.665
 1081POPC   NC318491  14.519  13.856   9.551
 1081POPC   PO418492  14.374  13.195   9.488
 1081POPC   GL118493  14.597  13.309   9.115
 1081POPC   GL218494  14.651  13.660   9.115
 1081POPC   C1A18495  14.445  13.416   8.724
 1081POPC   D2A18496  14.370  13.678   8.438
 1081POPC   C3A18497  14.220  13.503   8.094
 1081POPC   C4A18498  14.177  13.599   7.693
 1081POPC   C1B18499  14.842  13.720   8.730
 1081POPC   C2B18500  14.837  13.531   8.366
 1081POPC   C3B18501  14.684  13.659   7.978
 1081POPC   C4B18502  14.661  13.433   7.623
 1082POPC   NC318503   9.112  42.577   9.395
 1082POPC   PO418504   8.773  42.004   9.510
 1082POPC   GL118505   8.659  42.021   9.078
 1082POPC   GL218506   8.922  42.284   9.020
 1082POPC   C1A18507   8.731  42.071   8.615
 1082POPC   D2A18508   9.026  42.314   8.383
 1082POPC   C3A18509   8.885  42.471   8.008
 1082POPC   C4A18510   8.716  42.150   7.758
 1082POPC   C1B18511   9.234  42.567   8.767
 1082POPC   C2B18512   9.410  42.693   8.355
 1082POPC   C3B18513   9.401  42.546   7.922
 1082POPC   C4B18514   9.153  42.353   7.574
 1083POPC   NC318515   9.039  44.304   9.372
 1083POPC   PO418516   8.930  43.659   9.498
 1083POPC   GL118517   9.013  43.866   9.123
 1083POPC   GL218518   9.341  43.812   9.086
 1083POPC   C1A18519   9.093  44.087   8.707
 1083POPC   D2A18520   8.994  44.282   8.298
 1083POPC   C3A18521   8.868  44.024   7.956
 1083POPC   C4A18522   8.733  43.909   7.509
 1083POPC   C1B18523   9.229  43.581   8.694
 1083POPC   C2B18524   9.437  43.391   8.324
 1083POPC   C3B18525   9.414  43.461   7.902
 1083POPC   C4B18526   9.201  43.758   7.663
 1084POPC   NC318527  35.694  22.026   9.325
 1084POPC   PO418528  35.663  22.429   9.848
 1084POPC   GL118529  35.472  22.556   9.362
 1084POPC   GL218530  35.242  22.268   9.236
 1084POPC   C1A18531  35.412  22.569   8.862
 1084POPC   D2A18532  35.556  22.283   8.496
 1084POPC   C3A18533  35.361  22.366   8.090
 1084POPC   C4A18534  35.125  22.495   7.735
 1084POPC   C1B18535  35.260  22.005   8.838
 1084POPC   C2B18536  35.422  21.762   8.480
 1084POPC   C3B18537  35.259  21.710   8.070
 1084POPC   C4B18538  35.264  22.003   7.732
 1085POPC   NC318539  42.077  13.421   9.639
 1085POPC   PO418540  42.627  13.821   9.434
 1085POPC   GL118541  42.538  13.579   9.150
 1085POPC   GL218542  42.243  13.670   9.047
 1085POPC   C1A18543  42.641  13.573   8.746
 1085POPC   D2A18544  42.441  13.383   8.449
 1085POPC   C3A18545  42.689  13.454   8.103
 1085POPC   C4A18546  42.453  13.610   7.818
 1085POPC   C1B18547  42.082  13.777   8.633
 1085POPC   C2B18548  42.009  13.793   8.163
 1085POPC   C3B18549  42.003  13.806   7.697
 1085POPC   C4B18550  41.969  13.691   7.249
 1086POPC   NC318551   0.936   4.999   9.569
 1086POPC   PO418552   1.290   5.598   9.531
 1086POPC   GL118553   1.333   5.294   9.158
 1086POPC   GL218554   1.218   4.953   9.154
 1086POPC   C1A18555   1.072   5.258   8.756
 1086POPC   D2A18556   1.046   5.037   8.384
 1086POPC   C3A18557   1.100   5.308   8.046
 1086POPC   C4A18558   1.415   5.325   7.720
 1086POPC   C1B18559   1.162   4.736   8.786
 1086POPC   C2B18560   1.407   4.649   8.402
 1086POPC   C3B18561   1.268   4.770   7.978
 1086POPC   C4B18562   1.464   4.780   7.575
 1087POPC   NC318563  10.273  20.225   9.528
 1087POPC   PO418564  10.805  19.840   9.386
 1087POPC   GL118565  10.467  19.958   9.106
 1087POPC   GL218566  10.109  20.071   9.079
 1087POPC   C1A18567  10.482  19.807   8.698
 1087POPC   D2A18568  10.548  19.657   8.296
 1087POPC   C3A18569  10.318  19.782   7.941
 1087POPC   C4A18570  10.396  19.656   7.491
 1087POPC   C1B18571  10.284  20.272   8.724
 1087POPC   C2B18572  10.562  20.203   8.375
 1087POPC   C3B18573  10.470  20.291   7.977
 1087POPC   C4B18574  10.376  20.157   7.583
 1088POPC   NC318575  31.896   7.516   9.540
 1088POPC   PO418576  31.170   7.465   9.486
 1088POPC   GL118577  31.557   7.429   9.176
 1088POPC   GL218578  31.821   7.704   9.082
 1088POPC   C1A18579  31.665   7.234   8.789
 1088POPC   D2A18580  31.343   7.276   8.469
 1088POPC   C3A18581  31.368   7.142   8.046
 1088POPC   C4A18582  31.541   7.152   7.651
 1088POPC   C1B18583  31.631   7.728   8.685
 1088POPC   C2B18584  31.534   7.723   8.270
 1088POPC   C3B18585  31.543   7.637   7.865
 1088POPC   C4B18586  31.608   7.702   7.437
 1089POPC   NC318587  20.936  20.277   9.522
 1089POPC   PO418588  20.543  20.807   9.482
 1089POPC   GL118589  20.464  20.652   9.058
 1089POPC   GL218590  20.654  20.328   9.110
 1089POPC   C1A18591  20.356  20.342   8.718
 1089POPC   D2A18592  20.586  20.320   8.370
 1089POPC   C3A18593  20.404  20.572   8.114
 1089POPC   C4A18594  20.313  20.276   7.860
 1089POPC   C1B18595  20.851  20.535   8.761
 1089POPC   C2B18596  20.863  20.742   8.364
 1089POPC   C3B18597  20.879  20.663   7.931
 1089POPC   C4B18598  20.896  21.060   7.750
 1090POPC   NC318599  31.345   6.988   9.405
 1090POPC   PO418600  31.583   6.312   9.331
 1090POPC   GL118601  31.257   6.556   9.137
 1090POPC   GL218602  31.444   6.446   8.851
 1090POPC   C1A18603  31.184   6.862   8.777
 1090POPC   D2A18604  31.462   6.762   8.416
 1090POPC   C3A18605  31.319   6.597   8.031
 1090POPC   C4A18606  31.187   6.779   7.629
 1090POPC   C1B18607  31.797   6.737   8.806
 1090POPC   C2B18608  31.935   6.964   8.426
 1090POPC   C3B18609  31.790   6.858   8.011
 1090POPC   C4B18610  31.707   6.516   7.705
 1091POPC   NC318611  33.383   7.198   9.276
 1091POPC   PO418612  32.748   7.470   9.441
 1091POPC   GL118613  32.970   7.364   9.051
 1091POPC   GL218614  32.774   7.067   8.936
 1091POPC   C1A18615  33.302   7.372   8.664
 1091POPC   D2A18616  33.543   7.434   8.249
 1091POPC   C3A18617  33.257   7.435   7.926
 1091POPC   C4A18618  32.910   7.658   7.733
 1091POPC   C1B18619  32.664   7.399   8.667
 1091POPC   C2B18620  32.898   7.498   8.339
 1091POPC   C3B18621  32.771   7.253   8.028
 1091POPC   C4B18622  32.965   7.112   7.683
 1092POPC   NC318623  39.394  31.177   9.593
 1092POPC   PO418624  38.889  31.742   9.688
 1092POPC   GL118625  39.013  31.673   9.263
 1092POPC   GL218626  39.366  31.518   9.201
 1092POPC   C1A18627  38.991  31.552   8.843
 1092POPC   D2A18628  39.312  31.558   8.528
 1092POPC   C3A18629  39.233  31.300   8.170
 1092POPC   C4A18630  38.978  31.351   7.778
 1092POPC   C1B18631  39.507  31.205   8.876
 1092POPC   C2B18632  39.721  31.257   8.476
 1092POPC   C3B18633  39.756  31.091   8.080
 1092POPC   C4B18634  39.492  31.189   7.753
 1093POPC   NC318635  28.584  19.107   9.419
 1093POPC   PO418636  27.989  18.778   9.319
 1093POPC   GL118637  28.284  18.944   9.017
 1093POPC   GL218638  28.444  19.278   8.960
 1093POPC   C1A18639  28.257  18.783   8.620
 1093POPC   D2A18640  28.189  18.817   8.199
 1093POPC   C3A18641  28.439  19.098   8.015
 1093POPC   C4A18642  28.331  19.251   7.675
 1093POPC   C1B18643  28.020  19.397   8.825
 1093POPC   C2B18644  27.893  19.545   8.445
 1093POPC   C3B18645  27.995  19.331   8.089
 1093POPC   C4B18646  27.859  19.457   7.688
 1094POPC   NC318647  38.169  32.524   9.512
 1094POPC   PO418648  37.552  32.152   9.538
 1094POPC   GL118649  37.729  32.344   9.195
 1094POPC   GL218650  37.819  32.687   9.166
 1094POPC   C1A18651  37.596  32.367   8.782
 1094POPC   D2A18652  37.800  32.227   8.424
 1094POPC   C3A18653  37.617  32.331   8.048
 1094POPC   C4A18654  37.626  31.977   7.749
 1094POPC   C1B18655  38.083  32.493   8.814
 1094POPC   C2B18656  38.232  32.486   8.354
 1094POPC   C3B18657  38.139  32.290   7.953
 1094POPC   C4B18658  37.866  32.445   7.626
 1095POPC   NC318659  29.723  30.853   9.676
 1095POPC   PO418660  29.062  30.883   9.632
 1095POPC   GL118661  28.956  30.768   9.191
 1095POPC   GL218662  29.161  31.010   9.064
 1095POPC   C1A18663  29.048  30.575   8.771
 1095POPC   D2A18664  28.964  30.436   8.339
 1095POPC   C3A18665  29.026  30.557   7.910
 1095POPC   C4A18666  29.314  30.490   7.597
 1095POPC   C1B18667  28.855  31.036   8.687
 1095POPC   C2B18668  28.910  30.956   8.220
 1095POPC   C3B18669  28.794  30.984   7.764
 1095POPC   C4B18670  28.696  31.124   7.325
 1096POPC   NC318671  39.855   1.783   9.563
 1096POPC   PO418672  40.489   1.705   9.217
 1096POPC   GL118673  40.089   1.804   9.086
 1096POPC   GL218674  40.136   2.136   9.162
 1096POPC   C1A18675  39.814   1.947   8.738
 1096POPC   D2A18676  39.719   1.779   8.323
 1096POPC   C3A18677  39.863   2.032   7.989
 1096POPC   C4A18678  40.017   1.939   7.558
 1096POPC   C1B18679  40.301   2.128   8.719
 1096POPC   C2B18680  40.190   2.288   8.302
 1096POPC   C3B18681  40.256   2.331   7.846
 1096POPC   C4B18682  40.215   2.398   7.383
 1097POPC   NC318683  25.437  12.323   9.328
 1097POPC   PO418684  24.951  11.773   9.451
 1097POPC   GL118685  25.194  11.910   9.109
 1097POPC   GL218686  24.905  12.028   8.928
 1097POPC   C1A18687  25.377  11.983   8.707
 1097POPC   D2A18688  25.185  11.842   8.292
 1097POPC   C3A18689  25.344  12.020   7.911
 1097POPC   C4A18690  25.321  11.885   7.508
 1097POPC   C1B18691  25.099  12.399   8.689
 1097POPC   C2B18692  25.357  12.330   8.320
 1097POPC   C3B18693  25.437  12.522   7.929
 1097POPC   C4B18694  25.241  12.461   7.571
 1098POPC   NC318695  12.916  16.773   9.926
 1098POPC   PO418696  12.521  16.979   9.458
 1098POPC   GL118697  12.735  16.682   9.116
 1098POPC   GL218698  12.905  16.362   9.215
 1098POPC   C1A18699  12.853  16.795   8.673
 1098POPC   D2A18700  12.757  16.838   8.227
 1098POPC   C3A18701  12.985  17.005   7.856
 1098POPC   C4A18702  12.887  16.816   7.435
 1098POPC   C1B18703  13.089  16.342   8.780
 1098POPC   C2B18704  12.924  16.329   8.361
 1098POPC   C3B18705  12.998  16.493   7.934
 1098POPC   C4B18706  13.140  16.350   7.530
 1099POPC   NC318707  26.303  11.874   9.536
 1099POPC   PO418708  25.889  12.399   9.423
 1099POPC   GL118709  25.862  12.162   9.041
 1099POPC   GL218710  26.136  11.897   9.050
 1099POPC   C1A18711  25.890  12.118   8.567
 1099POPC   D2A18712  26.245  12.085   8.263
 1099POPC   C3A18713  26.175  12.078   7.808
 1099POPC   C4A18714  26.259  12.365   7.452
 1099POPC   C1B18715  25.782  11.699   8.858
 1099POPC   C2B18716  25.626  11.622   8.465
 1099POPC   C3B18717  25.776  11.838   8.112
 1099POPC   C4B18718  25.777  11.753   7.678
 1100POPC   NC318719  31.199  32.287   9.305
 1100POPC   PO418720  30.678  32.020   9.677
 1100POPC   GL118721  30.679  32.088   9.220
 1100POPC   GL218722  30.538  32.389   9.085
 1100POPC   C1A18723  30.741  32.085   8.752
 1100POPC   D2A18724  30.568  32.319   8.398
 1100POPC   C3A18725  30.759  32.188   8.000
 1100POPC   C4A18726  30.589  32.019   7.611
 1100POPC   C1B18727  30.790  32.596   8.765
 1100POPC   C2B18728  30.833  32.775   8.364
 1100POPC   C3B18729  30.579  32.679   8.012
 1100POPC   C4B18730  30.721  32.503   7.604
 1101POPC   NC318731   2.748   5.686   9.408
 1101POPC   PO418732   2.636   6.350   9.310
 1101POPC   GL118733   2.846   6.045   9.074
 1101POPC   GL218734   3.086   6.244   9.017
 1101POPC   C1A18735   2.770   5.769   8.722
 1101POPC   D2A18736   2.551   5.562   8.366
 1101POPC   C3A18737   2.865   5.493   8.049
 1101POPC   C4A18738   2.932   5.679   7.654
 1101POPC   C1B18739   2.684   6.294   8.674
 1101POPC   C2B18740   2.640   6.079   8.301
 1101POPC   C3B18741   2.684   6.050   7.897
 1101POPC   C4B18742   2.682   6.234   7.516
 1102POPC   NC318743   0.129   5.518   9.500
 1102POPC   PO418744   0.485   4.897   9.503
 1102POPC   GL118745   0.468   5.227   9.235
 1102POPC   GL218746   0.798   5.290   9.165
 1102POPC   C1A18747   0.348   5.347   8.816
 1102POPC   D2A18748   0.106   5.244   8.430
 1102POPC   C3A18749   0.319   5.135   8.049
 1102POPC   C4A18750   0.253   4.949   7.655
 1102POPC   C1B18751   0.680   4.942   8.842
 1102POPC   C2B18752   0.568   4.856   8.404
 1102POPC   C3B18753   0.755   4.903   7.958
 1102POPC   C4B18754   0.961   5.125   7.608
 1103POPC   NC318755  44.142   4.343   9.449
 1103POPC   PO418756  43.620   4.058   9.609
 1103POPC   GL118757  43.801   4.073   9.182
 1103POPC   GL218758  43.679   4.405   9.160
 1103POPC   C1A18759  44.033   4.294   8.805
 1103POPC   D2A18760  43.942   4.165   8.358
 1103POPC   C3A18761  44.056   4.398   7.994
 1103POPC   C4A18762  44.080   4.327   7.556
 1103POPC   C1B18763  43.545   4.227   8.736
 1103POPC   C2B18764  43.448   4.380   8.316
 1103POPC   C3B18765  43.571   4.480   7.859
 1103POPC   C4B18766  43.619   4.492   7.397
 1104POPC   NC318767  35.647  17.245   9.509
 1104POPC   PO418768  35.300  17.853   9.553
 1104POPC   GL118769  35.349  17.672   9.134
 1104POPC   GL218770  35.487  17.347   9.033
 1104POPC   C1A18771  35.167  17.608   8.714
 1104POPC   D2A18772  35.372  17.524   8.314
 1104POPC   C3A18773  35.206  17.573   7.898
 1104POPC   C4A18774  35.396  17.659   7.472
 1104POPC   C1B18775  35.673  17.233   8.627
 1104POPC   C2B18776  35.944  17.027   8.315
 1104POPC   C3B18777  35.833  17.065   7.874
 1104POPC   C4B18778  35.443  17.175   7.687
 1105POPC   NC318779  26.390  32.943   9.869
 1105POPC   PO418780  25.981  33.338   9.521
 1105POPC   GL118781  26.147  33.308   9.108
 1105POPC   GL218782  26.004  33.016   9.094
 1105POPC   C1A18783  26.306  33.295   8.699
 1105POPC   D2A18784  26.103  33.206   8.310
 1105POPC   C3A18785  26.246  33.051   7.921
 1105POPC   C4A18786  26.457  33.158   7.514
 1105POPC   C1B18787  25.875  32.940   8.713
 1105POPC   C2B18788  25.561  32.723   8.496
 1105POPC   C3B18789  25.489  32.681   8.066
 1105POPC   C4B18790  25.799  32.779   7.772
 1106POPC   NC318791  38.907  17.887   9.434
 1106POPC   PO418792  39.327  17.490   9.735
 1106POPC   GL118793  39.130  17.503   9.197
 1106POPC   GL218794  38.897  17.666   8.987
 1106POPC   C1A18795  39.345  17.551   8.770
 1106POPC   D2A18796  39.387  17.341   8.417
 1106POPC   C3A18797  39.256  17.528   8.082
 1106POPC   C4A18798  39.333  17.578   7.715
 1106POPC   C1B18799  38.884  17.334   8.691
 1106POPC   C2B18800  38.905  17.202   8.259
 1106POPC   C3B18801  38.910  17.216   7.785
 1106POPC   C4B18802  39.029  17.397   7.360
 1107POPC   NC318803  12.467  18.897   9.265
 1107POPC   PO418804  11.971  19.180   9.742
 1107POPC   GL118805  11.915  19.154   9.160
 1107POPC   GL218806  12.105  18.925   8.913
 1107POPC   C1A18807  12.124  19.406   8.769
 1107POPC   D2A18808  12.444  19.219   8.540
 1107POPC   C3A18809  12.435  19.339   8.141
 1107POPC   C4A18810  12.147  19.324   7.785
 1107POPC   C1B18811  12.436  18.722   8.655
 1107POPC   C2B18812  12.293  18.683   8.311
 1107POPC   C3B18813  12.318  18.880   7.991
 1107POPC   C4B18814  12.202  18.826   7.634
 1108POPC   NC318815  35.256   3.782   9.513
 1108POPC   PO418816  34.798   3.389   9.825
 1108POPC   GL118817  34.998   3.391   9.309
 1108POPC   GL218818  34.964   3.735   9.097
 1108POPC   C1A18819  35.306   3.431   8.914
 1108POPC   D2A18820  35.363   3.252   8.495
 1108POPC   C3A18821  35.441   3.519   8.142
 1108POPC   C4A18822  35.502   3.560   7.682
 1108POPC   C1B18823  35.089   3.857   8.707
 1108POPC   C2B18824  35.221   3.960   8.321
 1108POPC   C3B18825  35.302   3.967   7.927
 1108POPC   C4B18826  35.400   4.020   7.512
 1109POPC   NC318827   8.189  28.624   9.492
 1109POPC   PO418828   8.594  29.117   9.593
 1109POPC   GL118829   8.355  29.159   9.231
 1109POPC   GL218830   8.002  29.062   9.292
 1109POPC   C1A18831   8.308  29.318   8.803
 1109POPC   D2A18832   8.027  29.336   8.458
 1109POPC   C3A18833   8.131  29.402   8.031
 1109POPC   C4A18834   8.433  29.130   7.858
 1109POPC   C1B18835   8.112  28.851   8.891
 1109POPC   C2B18836   7.959  28.815   8.498
 1109POPC   C3B18837   8.021  28.873   8.066
 1109POPC   C4B18838   8.182  28.702   7.695
 1110POPC   NC318839  31.884  31.549   9.520
 1110POPC   PO418840  32.467  31.948   9.649
 1110POPC   GL118841  32.366  31.642   9.283
 1110POPC   GL218842  32.087  31.834   9.153
 1110POPC   C1A18843  32.605  31.553   8.851
 1110POPC   D2A18844  32.711  31.427   8.415
 1110POPC   C3A18845  32.588  31.581   8.053
 1110POPC   C4A18846  32.312  31.568   7.771
 1110POPC   C1B18847  32.106  31.490   8.827
 1110POPC   C2B18848  32.186  31.532   8.373
 1110POPC   C3B18849  31.881  31.591   8.015
 1110POPC   C4B18850  31.849  31.666   7.535
 1111POPC   NC318851   7.938  10.619   9.364
 1111POPC   PO418852   8.258  10.048   9.385
 1111POPC   GL118853   8.249  10.309   9.016
 1111POPC   GL218854   8.382  10.640   9.102
 1111POPC   C1A18855   8.197  10.333   8.530
 1111POPC   D2A18856   8.478  10.100   8.191
 1111POPC   C3A18857   8.320  10.115   7.760
 1111POPC   C4A18858   8.049  10.435   7.618
 1111POPC   C1B18859   8.464  10.914   8.719
 1111POPC   C2B18860   8.279  11.017   8.321
 1111POPC   C3B18861   8.168  10.816   7.966
 1111POPC   C4B18862   8.292  10.886   7.549
 1112POPC   NC318863  32.261  42.502   9.641
 1112POPC   PO418864  32.717  42.782   9.273
 1112POPC   GL118865  32.465  42.368   9.155
 1112POPC   GL218866  32.115  42.416   9.180
 1112POPC   C1A18867  32.221  42.138   8.770
 1112POPC   D2A18868  32.364  41.910   8.422
 1112POPC   C3A18869  32.132  42.111   8.105
 1112POPC   C4A18870  32.144  42.202   7.673
 1112POPC   C1B18871  32.147  42.624   8.807
 1112POPC   C2B18872  31.961  42.495   8.412
 1112POPC   C3B18873  32.137  42.612   7.999
 1112POPC   C4B18874  32.334  42.658   7.566
 1113POPC   NC318875  24.190  23.428   9.448
 1113POPC   PO418876  24.681  23.920   9.481
 1113POPC   GL118877  24.404  23.814   9.179
 1113POPC   GL218878  24.601  23.504   9.146
 1113POPC   C1A18879  24.345  23.893   8.762
 1113POPC   D2A18880  24.532  23.786   8.376
 1113POPC   C3A18881  24.365  24.020   8.000
 1113POPC   C4A18882  24.569  24.007   7.611
 1113POPC   C1B18883  24.390  23.394   8.769
 1113POPC   C2B18884  24.099  23.500   8.450
 1113POPC   C3B18885  24.247  23.541   8.028
 1113POPC   C4B18886  24.562  23.498   7.737
 1114POPC   NC318887  11.979  37.960   9.490
 1114POPC   PO418888  12.319  37.439   9.623
 1114POPC   GL118889  12.257  37.651   9.218
 1114POPC   GL218890  11.923  37.533   9.194
 1114POPC   C1A18891  12.098  37.779   8.796
 1114POPC   D2A18892  12.257  37.877   8.384
 1114POPC   C3A18893  12.211  37.600   8.045
 1114POPC   C4A18894  11.997  37.830   7.731
 1114POPC   C1B18895  11.685  37.448   8.854
 1114POPC   C2B18896  11.855  37.489   8.443
 1114POPC   C3B18897  11.711  37.634   8.090
 1114POPC   C4B18898  11.665  37.462   7.672
 1115POPC   NC318899  18.809  29.656   9.461
 1115POPC   PO418900  19.190  30.268   9.458
 1115POPC   GL118901  19.139  29.972   9.142
 1115POPC   GL218902  19.121  29.598   9.050
 1115POPC   C1A18903  19.333  29.917   8.746
 1115POPC   D2A18904  19.178  29.739   8.409
 1115POPC   C3A18905  19.087  30.003   8.089
 1115POPC   C4A18906  19.319  29.800   7.794
 1115POPC   C1B18907  18.805  29.737   8.795
 1115POPC   C2B18908  18.678  29.583   8.423
 1115POPC   C3B18909  18.877  29.506   8.055
 1115POPC   C4B18910  18.792  29.638   7.679
 1116POPC   NC318911  19.184  36.758   9.655
 1116POPC   PO418912  18.552  36.707   9.542
 1116POPC   GL118913  18.862  36.924   9.200
 1116POPC   GL218914  19.266  36.926   9.189
 1116POPC   C1A18915  19.024  37.109   8.782
 1116POPC   D2A18916  18.794  37.260   8.392
 1116POPC   C3A18917  19.001  37.243   7.985
 1116POPC   C4A18918  19.127  36.946   7.701
 1116POPC   C1B18919  19.370  36.665   8.849
 1116POPC   C2B18920  19.398  36.500   8.429
 1116POPC   C3B18921  19.353  36.553   7.967
 1116POPC   C4B18922  19.193  36.485   7.520
 1117POPC   NC318923   2.830  23.836   9.822
 1117POPC   PO418924   3.520  24.008   9.471
 1117POPC   GL118925   3.237  23.822   9.172
 1117POPC   GL218926   2.985  23.572   9.276
 1117POPC   C1A18927   3.139  23.824   8.756
 1117POPC   D2A18928   2.977  23.702   8.351
 1117POPC   C3A18929   2.940  23.904   7.939
 1117POPC   C4A18930   2.687  23.845   7.538
 1117POPC   C1B18931   2.798  23.455   8.860
 1117POPC   C2B18932   2.872  23.220   8.475
 1117POPC   C3B18933   2.728  23.341   8.057
 1117POPC   C4B18934   2.458  23.431   7.718
 1118POPC   NC318935  20.428  10.718   9.510
 1118POPC   PO418936  20.846  10.235   9.587
 1118POPC   GL118937  20.687  10.300   9.138
 1118POPC   GL218938  20.711  10.640   9.093
 1118POPC   C1A18939  20.485  10.458   8.696
 1118POPC   D2A18940  20.391  10.692   8.282
 1118POPC   C3A18941  20.549  10.503   7.894
 1118POPC   C4A18942  20.920  10.187   7.916
 1118POPC   C1B18943  20.956  10.809   8.779
 1118POPC   C2B18944  20.884  10.646   8.422
 1118POPC   C3B18945  20.874  10.832   8.077
 1118POPC   C4B18946  21.101  10.639   7.784
 1119POPC   NC318947  20.522  25.219   9.559
 1119POPC   PO418948  20.539  24.563   9.341
 1119POPC   GL118949  20.592  24.981   9.095
 1119POPC   GL218950  20.452  25.366   9.081
 1119POPC   C1A18951  20.677  25.141   8.675
 1119POPC   D2A18952  20.787  25.179   8.242
 1119POPC   C3A18953  20.531  25.231   7.881
 1119POPC   C4A18954  20.812  25.063   7.594
 1119POPC   C1B18955  20.777  25.639   8.872
 1119POPC   C2B18956  20.922  25.617   8.448
 1119POPC   C3B18957  20.776  25.673   8.037
 1119POPC   C4B18958  20.848  25.577   7.604
 1120POPC   NC318959  11.919   4.830   9.585
 1120POPC   PO418960  12.121   5.451   9.469
 1120POPC   GL118961  12.119   5.123   9.170
 1120POPC   GL218962  11.802   4.940   9.109
 1120POPC   C1A18963  12.126   5.266   8.728
 1120POPC   D2A18964  12.358   5.253   8.338
 1120POPC   C3A18965  12.167   5.133   7.943
 1120POPC   C4A18966  12.190   5.277   7.510
 1120POPC   C1B18967  12.022   4.773   8.782
 1120POPC   C2B18968  11.960   4.912   8.377
 1120POPC   C3B18969  11.645   5.069   8.128
 1120POPC   C4B18970  11.698   5.310   7.768
 1121POPC   NC318971  23.524  11.942   9.435
 1121POPC   PO418972  24.088  12.279   9.440
 1121POPC   GL118973  23.802  12.258   9.112
 1121POPC   GL218974  23.461  12.381   9.160
 1121POPC   C1A18975  23.863  12.026   8.746
 1121POPC   D2A18976  23.734  11.903   8.361
 1121POPC   C3A18977  23.584  12.241   8.132
 1121POPC   C4A18978  23.905  12.118   7.839
 1121POPC   C1B18979  23.361  12.159   8.749
 1121POPC   C2B18980  23.242  11.813   8.447
 1121POPC   C3B18981  23.382  11.767   7.998
 1121POPC   C4B18982  23.412  12.077   7.669
 1122POPC   NC318983   0.429  36.404   9.416
 1122POPC   PO418984   0.695  35.776   9.418
 1122POPC   GL118985   0.555  35.945   9.100
 1122POPC   GL218986   0.747  36.275   9.057
 1122POPC   C1A18987   0.739  35.923   8.720
 1122POPC   D2A18988   0.770  36.232   8.397
 1122POPC   C3A18989   0.681  36.050   8.005
 1122POPC   C4A18990   0.314  36.116   7.757
 1122POPC   C1B18991   0.370  36.256   8.734
 1122POPC   C2B18992   0.225  36.225   8.270
 1122POPC   C3B18993   0.143  36.563   7.932
 1122POPC   C4B18994   0.098  36.709   7.471
 1123POPC   NC318995  34.588  24.540   9.735
 1123POPC   PO418996  34.886  23.962   9.442
 1123POPC   GL118997  34.905  24.253   9.123
 1123POPC   GL218998  34.655  24.471   9.237
 1123POPC   C1A18999  34.766  24.240   8.700
 1123POPC   D2A19000  34.590  24.164   8.321
 1123POPC   C3A19001  34.834  24.264   7.976
 1123POPC   C4A19002  34.542  24.237   7.679
 1123POPC   C1B19003  34.517  24.630   8.871
 1123POPC   C2B19004  34.647  24.687   8.448
 1123POPC   C3B19005  34.468  24.618   8.061
 1123POPC   C4B19006  34.628  24.744   7.710
 1124POPC   NC319007  20.684  27.840   9.493
 1124POPC   PO419008  20.378  27.210   9.495
 1124POPC   GL119009  20.516  27.454   9.179
 1124POPC   GL219010  20.849  27.468   9.148
 1124POPC   C1A19011  20.535  27.623   8.787
 1124POPC   D2A19012  20.340  27.771   8.464
 1124POPC   C3A19013  20.592  27.917   8.103
 1124POPC   C4A19014  20.338  27.907   7.737
 1124POPC   C1B19015  20.943  27.295   8.755
 1124POPC   C2B19016  20.852  27.522   8.363
 1124POPC   C3B19017  20.861  27.510   7.904
 1124POPC   C4B19018  20.690  27.572   7.502
 1125POPC   NC319019  28.905  20.188   9.569
 1125POPC   PO419020  29.335  20.582   9.585
 1125POPC   GL119021  29.182  20.778   9.184
 1125POPC   GL219022  28.851  20.938   9.211
 1125POPC   C1A19023  29.257  20.662   8.733
 1125POPC   D2A19024  29.529  20.804   8.373
 1125POPC   C3A19025  29.488  20.583   7.975
 1125POPC   C4A19026  29.294  20.466   7.579
 1125POPC   C1B19027  28.826  20.952   8.745
 1125POPC   C2B19028  28.968  20.845   8.307
 1125POPC   C3B19029  28.988  20.775   7.853
 1125POPC   C4B19030  28.879  20.750   7.393
 1126POPC   NC319031  14.520  17.653   9.650
 1126POPC   PO419032  14.019  18.067   9.356
 1126POPC   GL119033  14.207  17.624   9.215
 1126POPC   GL219034  14.571  17.481   9.199
 1126POPC   C1A19035  14.247  17.289   8.873
 1126POPC   D2A19036  14.109  17.245   8.471
 1126POPC   C3A19037  14.280  17.510   8.185
 1126POPC   C4A19038  14.452  17.431   7.800
 1126POPC   C1B19039  14.784  17.697   8.922
 1126POPC   C2B19040  14.555  17.661   8.580
 1126POPC   C3B19041  14.728  17.771   8.190
 1126POPC   C4B19042  14.803  17.798   7.780
 1127POPC   NC319043  36.655  10.952   9.498
 1127POPC   PO419044  36.814  10.249   9.517
 1127POPC   GL119045  36.742  10.532   9.172
 1127POPC   GL219046  37.088  10.682   9.104
 1127POPC   C1A19047  36.672  10.547   8.723
 1127POPC   D2A19048  36.968  10.698   8.444
 1127POPC   C3A19049  36.892  10.611   8.006
 1127POPC   C4A19050  37.018  10.883   7.676
 1127POPC   C1B19051  37.098  10.296   8.794
 1127POPC   C2B19052  36.941  10.190   8.327
 1127POPC   C3B19053  37.149  10.156   7.905
 1127POPC   C4B19054  37.271  10.170   7.448
 1128POPC   NC319055  22.527   4.355   9.692
 1128POPC   PO419056  21.917   4.494   9.785
 1128POPC   GL119057  22.152   4.376   9.368
 1128POPC   GL219058  22.302   4.672   9.259
 1128POPC   C1A19059  22.231   4.301   8.896
 1128POPC   D2A19060  22.306   4.554   8.485
 1128POPC   C3A19061  22.211   4.414   8.027
 1128POPC   C4A19062  22.311   4.212   7.604
 1128POPC   C1B19063  21.860   4.627   9.045
 1128POPC   C2B19064  21.792   4.664   8.582
 1128POPC   C3B19065  21.794   4.740   8.117
 1128POPC   C4B19066  21.796   4.461   7.723
 1129POPC   NC319067  10.159   7.302   9.286
 1129POPC   PO419068  10.658   7.508   9.605
 1129POPC   GL119069  10.616   7.569   9.149
 1129POPC   GL219070  10.346   7.568   8.910
 1129POPC   C1A19071  10.801   7.362   8.789
 1129POPC   D2A19072  10.684   7.164   8.433
 1129POPC   C3A19073  10.777   7.442   8.142
 1129POPC   C4A19074  10.609   7.436   7.760
 1129POPC   C1B19075  10.493   7.719   8.560
 1129POPC   C2B19076  10.303   7.487   8.293
 1129POPC   C3B19077   9.963   7.427   8.060
 1129POPC   C4B19078  10.095   7.390   7.698
 1130POPC   NC319079  40.222  29.566   9.581
 1130POPC   PO419080  39.698  29.947   9.385
 1130POPC   GL119081  40.077  30.108   9.189
 1130POPC   GL219082  40.311  29.831   9.157
 1130POPC   C1A19083  40.129  30.190   8.740
 1130POPC   D2A19084  40.304  30.158   8.326
 1130POPC   C3A19085  39.975  30.031   8.014
 1130POPC   C4A19086  39.814  30.079   7.594
 1130POPC   C1B19087  40.019  29.701   8.818
 1130POPC   C2B19088  40.098  29.691   8.390
 1130POPC   C3B19089  39.995  29.511   8.001
 1130POPC   C4B19090  39.701  29.571   7.723
 1131POPC   NC319091  27.434   6.444   9.726
 1131POPC   PO419092  27.892   6.868   9.433
 1131POPC   GL119093  27.519   6.664   9.250
 1131POPC   GL219094  27.650   6.340   9.269
 1131POPC   C1A19095  27.405   6.746   8.819
 1131POPC   D2A19096  27.680   6.725   8.468
 1131POPC   C3A19097  27.611   6.811   8.046
 1131POPC   C4A19098  27.935   6.754   7.773
 1131POPC   C1B19099  27.698   6.330   8.837
 1131POPC   C2B19100  27.472   6.278   8.472
 1131POPC   C3B19101  27.617   6.303   8.084
 1131POPC   C4B19102  27.697   6.333   7.681
 1132POPC   NC319103  10.378  24.077   9.492
 1132POPC   PO419104  10.347  24.703   9.487
 1132POPC   GL119105  10.618  24.767   9.145
 1132POPC   GL219106  10.750  24.398   9.221
 1132POPC   C1A19107  10.564  24.914   8.705
 1132POPC   D2A19108  10.405  24.630   8.407
 1132POPC   C3A19109  10.363  24.685   7.991
 1132POPC   C4A19110  10.148  24.346   7.778
 1132POPC   C1B19111  10.699  24.401   8.787
 1132POPC   C2B19112  10.910  24.486   8.418
 1132POPC   C3B19113  10.730  24.362   8.056
 1132POPC   C4B19114  10.865  24.370   7.665
 1133POPC   NC319115  15.633   7.754   9.397
 1133POPC   PO419116  15.084   8.243   9.623
 1133POPC   GL119117  15.079   8.253   9.173
 1133POPC   GL219118  15.375   8.183   9.076
 1133POPC   C1A19119  14.978   7.996   8.776
 1133POPC   D2A19120  15.209   7.906   8.398
 1133POPC   C3A19121  15.010   8.073   8.056
 1133POPC   C4A19122  15.115   8.460   7.854
 1133POPC   C1B19123  15.301   8.385   8.676
 1133POPC   C2B19124  15.483   8.328   8.277
 1133POPC   C3B19125  15.515   8.113   7.902
 1133POPC   C4B19126  15.563   8.364   7.558
 1134POPC   NC319127  38.985  26.585   9.491
 1134POPC   PO419128  39.330  27.168   9.443
 1134POPC   GL119129  39.163  26.932   9.137
 1134POPC   GL219130  39.337  26.628   9.144
 1134POPC   C1A19131  39.183  27.028   8.716
 1134POPC   D2A19132  39.397  27.191   8.380
 1134POPC   C3A19133  39.461  26.952   8.009
 1134POPC   C4A19134  39.070  27.106   7.869
 1134POPC   C1B19135  39.067  26.533   8.808
 1134POPC   C2B19136  39.072  26.630   8.377
 1134POPC   C3B19137  39.076  26.618   7.951
 1134POPC   C4B19138  38.773  26.532   7.645
 1135POPC   NC319139  29.991  21.466   9.628
 1135POPC   PO419140  29.907  20.838   9.382
 1135POPC   GL119141  29.845  21.298   9.175
 1135POPC   GL219142  30.058  21.659   9.172
 1135POPC   C1A19143  29.803  21.468   8.760
 1135POPC   D2A19144  29.759  21.278   8.370
 1135POPC   C3A19145  29.770  21.439   7.957
 1135POPC   C4A19146  29.730  21.237   7.538
 1135POPC   C1B19147  30.317  21.635   8.823
 1135POPC   C2B19148  30.295  21.428   8.454
 1135POPC   C3B19149  30.252  21.374   8.030
 1135POPC   C4B19150  30.448  21.348   7.646
 1136POPC   NC319151  18.503   7.845   9.470
 1136POPC   PO419152  17.925   8.233   9.424
 1136POPC   GL119153  18.124   8.165   9.066
 1136POPC   GL219154  18.147   7.817   9.085
 1136POPC   C1A19155  18.217   8.094   8.642
 1136POPC   D2A19156  18.545   8.157   8.344
 1136POPC   C3A19157  18.389   8.126   7.909
 1136POPC   C4A19158  18.372   8.357   7.546
 1136POPC   C1B19159  18.046   7.591   8.716
 1136POPC   C2B19160  18.082   7.728   8.320
 1136POPC   C3B19161  17.949   8.103   8.164
 1136POPC   C4B19162  17.862   7.994   7.750
 1137POPC   NC319163   3.075  36.352   9.479
 1137POPC   PO419164   3.712  36.240   9.315
 1137POPC   GL119165   3.358  36.130   9.106
 1137POPC   GL219166   3.306  36.467   9.046
 1137POPC   C1A19167   3.408  35.916   8.714
 1137POPC   D2A19168   3.592  36.020   8.331
 1137POPC   C3A19169   3.440  35.805   8.006
 1137POPC   C4A19170   3.289  35.968   7.644
 1137POPC   C1B19171   3.507  36.437   8.652
 1137POPC   C2B19172   3.440  36.567   8.227
 1137POPC   C3B19173   3.501  36.388   7.822
 1137POPC   C4B19174   3.704  36.251   7.446
 1138POPC   NC319175  10.740   9.521   9.378
 1138POPC   PO419176  11.426   9.382   9.565
 1138POPC   GL119177  11.232   9.638   9.212
 1138POPC   GL219178  11.151  10.025   9.176
 1138POPC   C1A19179  11.078   9.519   8.810
 1138POPC   D2A19180  11.266   9.355   8.453
 1138POPC   C3A19181  11.159   9.532   8.048
 1138POPC   C4A19182  11.202   9.665   7.645
 1138POPC   C1B19183  11.356   9.948   8.761
 1138POPC   C2B19184  11.478   9.853   8.337
 1138POPC   C3B19185  11.354  10.024   7.951
 1138POPC   C4B19186  11.085  10.172   7.660
 1139POPC   NC319187  16.557  44.032   9.420
 1139POPC   PO419188  16.890  43.512   9.682
 1139POPC   GL119189  16.829  43.580   9.217
 1139POPC   GL219190  16.873  43.935   9.041
 1139POPC   C1A19191  16.590  43.582   8.811
 1139POPC   D2A19192  16.477  43.759   8.406
 1139POPC   C3A19193  16.431  43.517   8.047
 1139POPC   C4A19194  16.573  43.576   7.645
 1139POPC   C1B19195  16.570  44.156   8.754
 1139POPC   C2B19196  16.510  44.270   8.303
 1139POPC   C3B19197  16.663  43.997   7.942
 1139POPC   C4B19198  16.753  44.053   7.477
 1140POPC   NC319199  26.457  34.335   9.368
 1140POPC   PO419200  25.889  34.325   9.388
 1140POPC   GL119201  25.948  34.741   9.156
 1140POPC   GL219202  26.312  34.797   9.167
 1140POPC   C1A19203  25.707  34.824   8.753
 1140POPC   D2A19204  25.927  34.626   8.424
 1140POPC   C3A19205  25.708  34.675   8.073
 1140POPC   C4A19206  25.793  34.812   7.649
 1140POPC   C1B19207  26.364  34.558   8.754
 1140POPC   C2B19208  26.432  34.692   8.305
 1140POPC   C3B19209  26.181  34.586   7.935
 1140POPC   C4B19210  26.244  34.323   7.586
 1141POPC   NC319211   7.784  32.820   9.437
 1141POPC   PO419212   7.203  33.158   9.354
 1141POPC   GL119213   7.340  32.833   9.114
 1141POPC   GL219214   7.037  32.654   9.095
 1141POPC   C1A19215   7.521  32.962   8.713
 1141POPC   D2A19216   7.544  33.264   8.364
 1141POPC   C3A19217   7.370  33.085   7.969
 1141POPC   C4A19218   7.685  32.871   7.680
 1141POPC   C1B19219   7.143  32.607   8.668
 1141POPC   C2B19220   7.063  32.736   8.262
 1141POPC   C3B19221   7.009  32.657   7.842
 1141POPC   C4B19222   7.226  32.837   7.493
 1142POPC   NC319223  13.628  35.689   9.652
 1142POPC   PO419224  13.390  35.206   9.532
 1142POPC   GL119225  13.609  35.453   9.143
 1142POPC   GL219226  13.854  35.728   9.139
 1142POPC   C1A19227  13.759  35.467   8.677
 1142POPC   D2A19228  13.752  35.413   8.212
 1142POPC   C3A19229  13.390  35.525   7.936
 1142POPC   C4A19230  13.173  35.420   7.510
 1142POPC   C1B19231  13.998  35.936   8.726
 1142POPC   C2B19232  14.126  35.792   8.295
 1142POPC   C3B19233  13.909  35.756   7.865
 1142POPC   C4B19234  14.088  35.674   7.423
 1143POPC   NC319235  44.588   1.253   9.438
 1143POPC   PO419236  44.015   1.602   9.516
 1143POPC   GL119237  44.262   1.554   9.113
 1143POPC   GL219238  44.275   1.219   9.033
 1143POPC   C1A19239  44.538   1.456   8.691
 1143POPC   D2A19240  44.894   1.377   8.405
 1143POPC   C3A19241  44.876   1.365   7.946
 1143POPC   C4A19242   0.009   1.049   7.626
 1143POPC   C1B19243  44.318   0.938   8.670
 1143POPC   C2B19244  44.398   0.859   8.197
 1143POPC   C3B19245  44.462   1.106   7.838
 1143POPC   C4B19246  44.325   1.526   7.851
 1144POPC   NC319247  31.283   2.356   9.749
 1144POPC   PO419248  31.387   2.933   9.463
 1144POPC   GL119249  31.426   3.026   9.068
 1144POPC   GL219250  31.740   2.896   9.032
 1144POPC   C1A19251  31.416   2.937   8.643
 1144POPC   D2A19252  31.213   2.750   8.308
 1144POPC   C3A19253  31.363   2.920   7.925
 1144POPC   C4A19254  31.356   2.846   7.487
 1144POPC   C1B19255  31.861   2.632   8.716
 1144POPC   C2B19256  32.060   2.553   8.347
 1144POPC   C3B19257  31.816   2.688   8.044
 1144POPC   C4B19258  31.773   2.623   7.649
 1145POPC   NC319259  36.515  39.221   9.543
 1145POPC   PO419260  35.861  39.113   9.576
 1145POPC   GL119261  36.135  39.194   9.189
 1145POPC   GL219262  36.363  39.517   9.183
 1145POPC   C1A19263  36.202  39.084   8.722
 1145POPC   D2A19264  36.443  39.142   8.317
 1145POPC   C3A19265  36.296  39.114   7.892
 1145POPC   C4A19266  36.256  38.997   7.464
 1145POPC   C1B19267  36.096  39.584   8.854
 1145POPC   C2B19268  36.231  39.620   8.453
 1145POPC   C3B19269  36.347  39.605   8.057
 1145POPC   C4B19270  36.028  39.563   7.741
 1146POPC   NC319271  25.008  18.161   9.542
 1146POPC   PO419272  25.700  18.178   9.542
 1146POPC   GL119273  25.399  18.263   9.244
 1146POPC   GL219274  25.590  18.185   9.012
 1146POPC   C1A19275  25.067  18.253   8.906
 1146POPC   D2A19276  25.015  18.200   8.457
 1146POPC   C3A19277  24.981  18.362   8.041
 1146POPC   C4A19278  25.200  18.274   7.655
 1146POPC   C1B19279  25.490  18.440   8.727
 1146POPC   C2B19280  25.511  18.232   8.346
 1146POPC   C3B19281  25.560  18.080   7.960
 1146POPC   C4B19282  25.729  18.256   7.577
 1147POPC   NC319283   7.913   9.729   9.478
 1147POPC   PO419284   8.452   9.460   9.418
 1147POPC   GL119285   8.411   9.735   9.011
 1147POPC   GL219286   8.085   9.738   9.011
 1147POPC   C1A19287   8.212   9.820   8.548
 1147POPC   D2A19288   8.017   9.513   8.264
 1147POPC   C3A19289   8.191   9.600   7.883
 1147POPC   C4A19290   8.293   9.618   7.455
 1147POPC   C1B19291   7.838  10.085   8.848
 1147POPC   C2B19292   7.708  10.105   8.460
 1147POPC   C3B19293   7.927  10.001   8.111
 1147POPC   C4B19294   7.835   9.983   7.699
 1148POPC   NC319295   3.865   0.883   9.751
 1148POPC   PO419296   4.248   1.238   9.522
 1148POPC   GL119297   4.386   1.409   9.098
 1148POPC   GL219298   4.191   1.708   9.112
 1148POPC   C1A19299   4.486   1.265   8.665
 1148POPC   D2A19300   4.240   1.090   8.306
 1148POPC   C3A19301   4.391   1.228   7.896
 1148POPC   C4A19302   4.738   1.535   7.836
 1148POPC   C1B19303   4.141   1.630   8.662
 1148POPC   C2B19304   4.373   1.599   8.266
 1148POPC   C3B19305   4.227   1.702   7.866
 1148POPC   C4B19306   3.834   1.534   7.686
 1149POPC   NC319307   6.196  36.058   9.489
 1149POPC   PO419308   6.722  36.370   9.685
 1149POPC   GL119309   6.681  36.239   9.237
 1149POPC   GL219310   6.519  35.948   9.120
 1149POPC   C1A19311   6.594  36.364   8.802
 1149POPC   D2A19312   6.666  36.207   8.395
 1149POPC   C3A19313   6.727  36.342   7.977
 1149POPC   C4A19314   6.843  35.927   7.733
 1149POPC   C1B19315   6.442  35.812   8.727
 1149POPC   C2B19316   6.221  35.959   8.395
 1149POPC   C3B19317   6.389  35.939   8.000
 1149POPC   C4B19318   6.407  36.149   7.625
 1150POPC   NC319319  21.196  40.427   9.507
 1150POPC   PO419320  21.169  39.753   9.545
 1150POPC   GL119321  21.313  39.902   9.145
 1150POPC   GL219322  21.241  40.258   9.023
 1150POPC   C1A19323  21.595  39.917   8.777
 1150POPC   D2A19324  21.486  40.054   8.356
 1150POPC   C3A19325  21.346  39.805   8.033
 1150POPC   C4A19326  21.590  39.741   7.650
 1150POPC   C1B19327  21.071  40.042   8.667
 1150POPC   C2B19328  20.962  40.162   8.248
 1150POPC   C3B19329  21.035  40.137   7.800
 1150POPC   C4B19330  21.091  40.387   7.459
 1151POPC   NC319331  18.362  15.094   9.610
 1151POPC   PO419332  18.098  15.425   9.045
 1151POPC   GL119333  18.214  14.990   9.121
 1151POPC   GL219334  18.575  14.910   9.160
 1151POPC   C1A19335  18.291  14.804   8.738
 1151POPC   D2A19336  18.402  15.066   8.380
 1151POPC   C3A19337  18.352  14.935   8.011
 1151POPC   C4A19338  17.972  14.962   7.836
 1151POPC   C1B19339  18.727  15.028   8.761
 1151POPC   C2B19340  18.727  15.435   8.504
 1151POPC   C3B19341  18.458  15.564   8.138
 1151POPC   C4B19342  18.360  15.380   7.711
 1152POPC   NC319343   6.134  29.756   9.505
 1152POPC   PO419344   5.721  30.241   9.495
 1152POPC   GL119345   5.955  30.047   9.112
 1152POPC   GL219346   5.930  29.657   9.052
 1152POPC   C1A19347   5.898  29.968   8.656
 1152POPC   D2A19348   5.961  29.731   8.273
 1152POPC   C3A19349   6.067  30.006   7.932
 1152POPC   C4A19350   5.971  29.863   7.534
 1152POPC   C1B19351   5.704  29.494   8.698
 1152POPC   C2B19352   5.464  29.729   8.422
 1152POPC   C3B19353   5.530  29.860   8.001
 1152POPC   C4B19354   5.601  30.191   7.751
 1153POPC   NC319355  11.911  23.508   9.586
 1153POPC   PO419356  12.336  24.002   9.378
 1153POPC   GL119357  12.073  23.800   9.068
 1153POPC   GL219358  11.761  23.622   9.107
 1153POPC   C1A19359  12.041  23.538   8.680
 1153POPC   D2A19360  12.211  23.293   8.319
 1153POPC   C3A19361  12.072  23.487   7.932
 1153POPC   C4A19362  12.298  23.733   7.626
 1153POPC   C1B19363  11.622  23.915   8.788
 1153POPC   C2B19364  11.717  24.094   8.362
 1153POPC   C3B19365  11.877  24.002   7.945
 1153POPC   C4B19366  11.863  23.961   7.484
 1154POPC   NC319367  41.386  35.276   9.506
 1154POPC   PO419368  42.016  35.614   9.615
 1154POPC   GL119369  41.761  35.488   9.197
 1154POPC   GL219370  41.419  35.472   9.043
 1154POPC   C1A19371  41.835  35.380   8.734
 1154POPC   D2A19372  41.705  35.113   8.359
 1154POPC   C3A19373  41.669  35.274   7.953
 1154POPC   C4A19374  41.748  35.283   7.505
 1154POPC   C1B19375  41.327  35.150   8.738
 1154POPC   C2B19376  41.170  35.249   8.346
 1154POPC   C3B19377  41.160  35.398   7.924
 1154POPC   C4B19378  41.296  35.073   7.632
 1155POPC   NC319379  19.987  12.280   9.386
 1155POPC   PO419380  19.852  12.951   9.432
 1155POPC   GL119381  19.911  12.895   9.051
 1155POPC   GL219382  19.959  12.574   8.991
 1155POPC   C1A19383  19.726  12.990   8.695
 1155POPC   D2A19384  19.676  12.732   8.344
 1155POPC   C3A19385  19.614  12.939   7.964
 1155POPC   C4A19386  19.855  12.944   7.566
 1155POPC   C1B19387  20.227  12.381   8.729
 1155POPC   C2B19388  20.296  12.567   8.356
 1155POPC   C3B19389  20.090  12.693   8.001
 1155POPC   C4B19390  19.968  12.449   7.661
 1156POPC   NC319391  43.970  37.057   9.437
 1156POPC   PO419392  44.030  36.348   9.499
 1156POPC   GL119393  43.744  36.615   9.254
 1156POPC   GL219394  44.056  36.679   9.082
 1156POPC   C1A19395  43.652  36.905   8.868
 1156POPC   D2A19396  43.676  36.816   8.421
 1156POPC   C3A19397  43.421  36.941   8.056
 1156POPC   C4A19398  43.666  36.991   7.659
 1156POPC   C1B19399  44.296  36.902   8.785
 1156POPC   C2B19400  44.580  37.045   8.456
 1156POPC   C3B19401  44.397  36.963   8.064
 1156POPC   C4B19402  44.181  37.031   7.689
 1157POPC   NC319403  29.004   9.567   9.657
 1157POPC   PO419404  29.656   9.804   9.668
 1157POPC   GL119405  29.315   9.728   9.282
 1157POPC   GL219406  28.978   9.516   9.159
 1157POPC   C1A19407  29.271   9.778   8.828
 1157POPC   D2A19408  29.112   9.643   8.432
 1157POPC   C3A19409  29.092   9.891   8.077
 1157POPC   C4A19410  29.237   9.644   7.741
 1157POPC   C1B19411  28.759   9.724   8.821
 1157POPC   C2B19412  28.672   9.880   8.420
 1157POPC   C3B19413  28.624   9.692   8.022
 1157POPC   C4B19414  28.785   9.875   7.635
 1158POPC   NC319415  21.758  22.432   9.405
 1158POPC   PO419416  21.413  21.865   9.530
 1158POPC   GL119417  21.396  21.989   9.083
 1158POPC   GL219418  21.421  22.343   9.026
 1158POPC   C1A19419  21.463  21.961   8.594
 1158POPC   D2A19420  21.253  22.110   8.239
 1158POPC   C3A19421  21.383  22.078   7.861
 1158POPC   C4A19422  21.272  22.502   7.700
 1158POPC   C1B19423  21.772  22.344   8.707
 1158POPC   C2B19424  21.749  22.320   8.239
 1158POPC   C3B19425  21.770  22.385   7.779
 1158POPC   C4B19426  21.903  22.427   7.332
 1159POPC   NC319427  39.795  43.403   9.361
 1159POPC   PO419428  40.208  43.938   9.578
 1159POPC   GL119429  40.125  43.781   9.187
 1159POPC   GL219430  39.788  43.923   9.166
 1159POPC   C1A19431  39.984  43.640   8.771
 1159POPC   D2A19432  39.807  43.553   8.383
 1159POPC   C3A19433  40.109  43.773   8.163
 1159POPC   C4A19434  40.207  43.835   7.764
 1159POPC   C1B19435  40.024  44.167   8.847
 1159POPC   C2B19436  40.205  44.219   8.424
 1159POPC   C3B19437  40.262  44.281   7.964
 1159POPC   C4B19438  40.127  44.268   7.487
 1160POPC   NC319439  18.422  10.266   9.588
 1160POPC   PO419440  18.001  10.729   9.363
 1160POPC   GL119441  18.268  10.513   9.130
 1160POPC   GL219442  18.362  10.162   9.093
 1160POPC   C1A19443  18.483  10.575   8.760
 1160POPC   D2A19444  18.494  10.300   8.402
 1160POPC   C3A19445  18.519  10.558   8.018
 1160POPC   C4A19446  18.192  10.793   7.802
 1160POPC   C1B19447  18.056  10.072   8.791
 1160POPC   C2B19448  17.949  10.174   8.420
 1160POPC   C3B19449  18.136  10.190   8.044
 1160POPC   C4B19450  17.985  10.292   7.654
 1161POPC   NC319451  15.855  34.701   9.869
 1161POPC   PO419452  16.341  34.376   9.506
 1161POPC   GL119453  16.210  34.484   9.095
 1161POPC   GL219454  15.997  34.753   9.092
 1161POPC   C1A19455  16.041  34.512   8.640
 1161POPC   D2A19456  15.932  34.492   8.162
 1161POPC   C3A19457  16.160  34.332   7.781
 1161POPC   C4A19458  16.183  34.481   7.316
 1161POPC   C1B19459  16.315  34.916   8.829
 1161POPC   C2B19460  16.390  35.033   8.411
 1161POPC   C3B19461  16.228  34.901   8.045
 1161POPC   C4B19462  15.977  34.813   7.693
 1162POPC   NC319463  43.799  10.910   9.517
 1162POPC   PO419464  43.588  10.306   9.474
 1162POPC   GL119465  43.733  10.314   9.043
 1162POPC   GL219466  43.906  10.628   9.087
 1162POPC   C1A19467  43.795  10.355   8.603
 1162POPC   D2A19468  43.534  10.369   8.242
 1162POPC   C3A19469  43.731  10.590   7.915
 1162POPC   C4A19470  44.038  10.525   7.617
 1162POPC   C1B19471  44.157  10.755   8.720
 1162POPC   C2B19472  44.163  10.653   8.262
 1162POPC   C3B19473  44.212  10.915   7.895
 1162POPC   C4B19474  44.211  10.955   7.408
 1163POPC   NC319475  17.886   6.065   9.514
 1163POPC   PO419476  17.394   5.605   9.480
 1163POPC   GL119477  17.649   5.772   9.152
 1163POPC   GL219478  17.554   6.156   9.136
 1163POPC   C1A19479  17.503   5.825   8.732
 1163POPC   D2A19480  17.315   5.536   8.436
 1163POPC   C3A19481  17.454   5.657   8.024
 1163POPC   C4A19482  17.234   5.791   7.664
 1163POPC   C1B19483  17.339   6.347   8.779
 1163POPC   C2B19484  17.164   6.181   8.386
 1163POPC   C3B19485  17.362   6.167   8.009
 1163POPC   C4B19486  17.778   6.227   7.929
 1164POPC   NC319487  36.496  19.434   9.392
 1164POPC   PO419488  36.158  20.066   9.558
 1164POPC   GL119489  35.965  19.950   9.194
 1164POPC   GL219490  36.000  19.598   9.267
 1164POPC   C1A19491  36.094  20.018   8.756
 1164POPC   D2A19492  36.387  20.008   8.397
 1164POPC   C3A19493  36.311  19.777   8.042
 1164POPC   C4A19494  36.150  19.889   7.661
 1164POPC   C1B19495  35.965  19.486   8.845
 1164POPC   C2B19496  36.024  19.623   8.446
 1164POPC   C3B19497  35.852  19.528   8.069
 1164POPC   C4B19498  36.101  19.386   7.738
 1165POPC   NC319499  10.655  35.761   9.875
 1165POPC   PO419500  10.894  36.225   9.446
 1165POPC   GL119501  11.128  36.101   9.088
 1165POPC   GL219502  10.950  35.895   8.876
 1165POPC   C1A19503  11.447  36.288   8.810
 1165POPC   D2A19504  11.477  36.518   8.408
 1165POPC   C3A19505  11.582  36.327   7.989
 1165POPC   C4A19506  11.687  36.436   7.525
 1165POPC   C1B19507  10.987  36.262   8.590
 1165POPC   C2B19508  11.070  36.365   8.141
 1165POPC   C3B19509  11.122  36.301   7.714
 1165POPC   C4B19510  11.013  35.915   7.480
 1166POPC   NC319511  33.408   4.746   9.538
 1166POPC   PO419512  33.509   5.373   9.921
 1166POPC   GL119513  33.659   5.174   9.402
 1166POPC   GL219514  33.813   4.859   9.268
 1166POPC   C1A19515  33.856   5.264   8.937
 1166POPC   D2A19516  33.800   5.202   8.495
 1166POPC   C3A19517  34.025   4.937   8.216
 1166POPC   C4A19518  34.037   5.034   7.782
 1166POPC   C1B19519  33.619   4.828   8.830
 1166POPC   C2B19520  33.419   4.870   8.391
 1166POPC   C3B19521  33.590   4.796   7.929
 1166POPC   C4B19522  33.735   4.665   7.484
 1167POPC   NC319523  26.808   7.825   9.543
 1167POPC   PO419524  26.534   8.493   9.580
 1167POPC   GL119525  26.641   8.373   9.114
 1167POPC   GL219526  26.894   8.098   9.106
 1167POPC   C1A19527  26.934   8.425   8.716
 1167POPC   D2A19528  26.931   8.653   8.297
 1167POPC   C3A19529  26.557   8.613   8.064
 1167POPC   C4A19530  26.626   8.356   7.711
 1167POPC   C1B19531  27.001   7.864   8.749
 1167POPC   C2B19532  26.911   7.859   8.315
 1167POPC   C3B19533  26.994   8.179   8.019
 1167POPC   C4B19534  27.185   8.313   7.659
 1168POPC   NC319535  20.690  39.691   9.961
 1168POPC   PO419536  20.346  40.041   9.466
 1168POPC   GL119537  20.418  39.918   9.077
 1168POPC   GL219538  20.788  39.967   9.077
 1168POPC   C1A19539  20.482  40.105   8.676
 1168POPC   D2A19540  20.505  39.912   8.293
 1168POPC   C3A19541  20.536  40.174   7.947
 1168POPC   C4A19542  20.372  40.163   7.555
 1168POPC   C1B19543  20.722  39.670   8.733
 1168POPC   C2B19544  20.928  39.656   8.350
 1168POPC   C3B19545  20.801  39.671   7.930
 1168POPC   C4B19546  21.086  39.649   7.600
 1169POPC   NC319547  30.315   8.660   9.505
 1169POPC   PO419548  30.780   9.077   9.707
 1169POPC   GL119549  30.754   9.050   9.258
 1169POPC   GL219550  30.787   8.718   9.167
 1169POPC   C1A19551  30.671   9.073   8.798
 1169POPC   D2A19552  30.681   8.879   8.362
 1169POPC   C3A19553  30.690   9.066   7.927
 1169POPC   C4A19554  30.881   9.056   7.519
 1169POPC   C1B19555  30.571   8.550   8.779
 1169POPC   C2B19556  30.382   8.480   8.352
 1169POPC   C3B19557  30.459   8.617   7.920
 1169POPC   C4B19558  30.438   8.820   7.487
 1170POPC   NC319559  21.177   9.458   9.923
 1170POPC   PO419560  21.265   9.910   9.527
 1170POPC   GL119561  21.442   9.576   9.240
 1170POPC   GL219562  21.149   9.360   9.217
 1170POPC   C1A19563  21.612   9.669   8.792
 1170POPC   D2A19564  21.636   9.921   8.398
 1170POPC   C3A19565  21.740   9.703   8.023
 1170POPC   C4A19566  21.607   9.794   7.634
 1170POPC   C1B19567  21.104   9.671   8.878
 1170POPC   C2B19568  21.143   9.798   8.487
 1170POPC   C3B19569  21.237   9.770   8.069
 1170POPC   C4B19570  21.094   9.775   7.663
 1171POPC   NC319571  23.825  40.236   9.326
 1171POPC   PO419572  23.679  39.684   9.729
 1171POPC   GL119573  23.783  39.618   9.281
 1171POPC   GL219574  23.499  39.780   9.136
 1171POPC   C1A19575  23.928  39.739   8.837
 1171POPC   D2A19576  23.932  39.999   8.438
 1171POPC   C3A19577  23.955  39.803   8.029
 1171POPC   C4A19578  23.966  39.986   7.642
 1171POPC   C1B19579  23.422  39.876   8.682
 1171POPC   C2B19580  23.444  39.881   8.240
 1171POPC   C3B19581  23.584  40.164   7.930
 1171POPC   C4B19582  23.493  40.160   7.486
 1172POPC   NC319583   8.374  39.761   9.530
 1172POPC   PO419584   7.995  40.274   9.489
 1172POPC   GL119585   8.073  40.055   9.151
 1172POPC   GL219586   7.980  39.719   9.179
 1172POPC   C1A19587   8.307  40.075   8.784
 1172POPC   D2A19588   8.463  40.365   8.473
 1172POPC   C3A19589   8.334  40.207   8.093
 1172POPC   C4A19590   8.415  39.861   7.842
 1172POPC   C1B19591   7.893  39.766   8.765
 1172POPC   C2B19592   7.983  39.965   8.387
 1172POPC   C3B19593   7.839  39.980   7.985
 1172POPC   C4B19594   7.831  39.738   7.602
 1173POPC   NC319595  39.656  25.844   9.518
 1173POPC   PO419596  40.329  26.066   9.455
 1173POPC   GL119597  40.300  25.829   9.092
 1173POPC   GL219598  39.956  25.673   9.074
 1173POPC   C1A19599  40.152  25.997   8.705
 1173POPC   D2A19600  40.086  26.317   8.385
 1173POPC   C3A19601  40.199  26.137   7.972
 1173POPC   C4A19602  40.071  26.201   7.579
 1173POPC   C1B19603  39.731  25.718   8.647
 1173POPC   C2B19604  39.802  25.926   8.238
 1173POPC   C3B19605  39.842  25.769   7.785
 1173POPC   C4B19606  39.690  25.717   7.323
 1174POPC   NC319607   4.753  23.118   9.330
 1174POPC   PO419608   4.284  22.839   9.743
 1174POPC   GL119609   4.274  22.932   9.306
 1174POPC   GL219610   4.426  22.650   9.171
 1174POPC   C1A19611   4.253  22.991   8.810
 1174POPC   D2A19612   4.250  23.195   8.364
 1174POPC   C3A19613   4.291  22.965   7.970
 1174POPC   C4A19614   4.331  22.512   7.855
 1174POPC   C1B19615   4.701  22.726   8.775
 1174POPC   C2B19616   4.650  22.890   8.357
 1174POPC   C3B19617   4.764  22.761   7.944
 1174POPC   C4B19618   4.837  22.838   7.477
 1175POPC   NC319619  38.158  26.337   9.387
 1175POPC   PO419620  38.538  25.913   9.774
 1175POPC   GL119621  38.515  25.958   9.317
 1175POPC   GL219622  38.803  26.141   9.354
 1175POPC   C1A19623  38.385  25.999   8.863
 1175POPC   D2A19624  38.190  26.094   8.456
 1175POPC   C3A19625  38.386  25.936   8.096
 1175POPC   C4A19626  38.407  25.891   7.649
 1175POPC   C1B19627  38.902  26.068   8.910
 1175POPC   C2B19628  38.709  26.265   8.533
 1175POPC   C3B19629  38.774  26.250   8.087
 1175POPC   C4B19630  38.879  26.031   7.692
 1176POPC   NC319631  37.419  14.031   9.321
 1176POPC   PO419632  37.534  14.623   9.455
 1176POPC   GL119633  37.813  14.585   9.139
 1176POPC   GL219634  37.910  14.252   9.270
 1176POPC   C1A19635  37.722  14.601   8.696
 1176POPC   D2A19636  37.405  14.468   8.380
 1176POPC   C3A19637  37.501  14.688   8.006
 1176POPC   C4A19638  37.670  14.571   7.603
 1176POPC   C1B19639  37.850  14.118   8.835
 1176POPC   C2B19640  37.838  14.194   8.378
 1176POPC   C3B19641  37.603  14.159   7.981
 1176POPC   C4B19642  37.599  14.045   7.534
 1177POPC   NC319643  12.640  23.560   9.339
 1177POPC   PO419644  13.293  23.719   9.435
 1177POPC   GL119645  13.053  23.792   9.095
 1177POPC   GL219646  12.854  24.062   9.239
 1177POPC   C1A19647  12.955  23.531   8.717
 1177POPC   D2A19648  13.172  23.410   8.325
 1177POPC   C3A19649  12.925  23.568   7.961
 1177POPC   C4A19650  12.973  23.429   7.535
 1177POPC   C1B19651  12.666  23.995   8.815
 1177POPC   C2B19652  12.488  23.747   8.477
 1177POPC   C3B19653  12.381  23.934   8.088
 1177POPC   C4B19654  12.658  24.085   7.755
 1178POPC   NC319655  14.438  22.542   9.166
 1178POPC   PO419656  14.528  22.001   9.549
 1178POPC   GL119657  14.352  22.004   9.158
 1178POPC   GL219658  14.051  22.124   9.254
 1178POPC   C1A19659  14.542  22.000   8.760
 1178POPC   D2A19660  14.820  21.979   8.422
 1178POPC   C3A19661  14.578  22.068   8.072
 1178POPC   C4A19662  14.434  22.354   7.783
 1178POPC   C1B19663  14.002  22.038   8.784
 1178POPC   C2B19664  14.177  21.964   8.385
 1178POPC   C3B19665  14.049  22.079   7.961
 1178POPC   C4B19666  14.056  22.189   7.497
 1179POPC   NC319667  16.912   4.581   9.460
 1179POPC   PO419668  16.403   4.996   9.510
 1179POPC   GL119669  16.581   5.195   9.167
 1179POPC   GL219670  16.899   5.017   9.127
 1179POPC   C1A19671  16.639   5.185   8.730
 1179POPC   D2A19672  16.530   4.946   8.421
 1179POPC   C3A19673  16.668   5.020   8.058
 1179POPC   C4A19674  16.494   5.094   7.684
 1179POPC   C1B19675  17.151   5.140   8.792
 1179POPC   C2B19676  17.070   5.032   8.396
 1179POPC   C3B19677  17.216   5.196   8.051
 1179POPC   C4B19678  16.983   5.275   7.746
 1180POPC   NC319679  21.135  28.714   9.408
 1180POPC   PO419680  21.563  29.098   9.739
 1180POPC   GL119681  21.638  29.063   9.252
 1180POPC   GL219682  21.471  28.755   9.017
 1180POPC   C1A19683  21.569  29.207   8.828
 1180POPC   D2A19684  21.503  28.970   8.475
 1180POPC   C3A19685  21.299  29.127   8.129
 1180POPC   C4A19686  21.531  29.247   7.778
 1180POPC   C1B19687  21.096  28.802   8.765
 1180POPC   C2B19688  20.855  28.966   8.418
 1180POPC   C3B19689  20.865  28.885   7.986
 1180POPC   C4B19690  21.088  29.030   7.638
 1181POPC   NC319691   2.690  36.315   9.869
 1181POPC   PO419692   3.137  35.871   9.535
 1181POPC   GL119693   2.830  35.938   9.234
 1181POPC   GL219694   2.798  36.275   9.068
 1181POPC   C1A19695   2.463  35.905   8.975
 1181POPC   D2A19696   2.517  36.189   8.632
 1181POPC   C3A19697   2.606  36.159   8.185
 1181POPC   C4A19698   2.434  36.115   7.766
 1181POPC   C1B19699   3.020  36.228   8.706
 1181POPC   C2B19700   3.114  36.178   8.298
 1181POPC   C3B19701   3.009  36.417   7.968
 1181POPC   C4B19702   2.885  36.317   7.619
 1182POPC   NC319703  18.490  17.971   9.400
 1182POPC   PO419704  18.205  18.578   9.234
 1182POPC   GL119705  18.420  18.324   9.023
 1182POPC   GL219706  18.156  18.062   8.994
 1182POPC   C1A19707  18.494  18.385   8.617
 1182POPC   D2A19708  18.453  18.134   8.275
 1182POPC   C3A19709  18.648  18.375   8.041
 1182POPC   C4A19710  18.631  18.486   7.642
 1182POPC   C1B19711  17.982  18.357   8.665
 1182POPC   C2B19712  18.099  18.510   8.255
 1182POPC   C3B19713  18.161  18.338   7.828
 1182POPC   C4B19714  18.071  18.477   7.397
 1183POPC   NC319715  18.003   3.700   9.462
 1183POPC   PO419716  18.600   3.335   9.442
 1183POPC   GL119717  18.568   3.524   9.064
 1183POPC   GL219718  18.234   3.674   9.007
 1183POPC   C1A19719  18.598   3.646   8.659
 1183POPC   D2A19720  18.628   3.880   8.323
 1183POPC   C3A19721  18.386   3.887   7.994
 1183POPC   C4A19722  18.477   3.893   7.551
 1183POPC   C1B19723  18.160   3.421   8.629
 1183POPC   C2B19724  18.379   3.390   8.224
 1183POPC   C3B19725  18.248   3.456   7.796
 1183POPC   C4B19726  18.069   3.612   7.434
 1184POPC   NC319727  18.397   2.781   9.479
 1184POPC   PO419728  17.845   2.548   9.210
 1184POPC   GL119729  18.158   2.794   9.051
 1184POPC   GL219730  18.152   3.152   9.103
 1184POPC   C1A19731  18.345   2.675   8.711
 1184POPC   D2A19732  18.109   2.676   8.368
 1184POPC   C3A19733  18.311   2.469   8.029
 1184POPC   C4A19734  18.295   2.603   7.617
 1184POPC   C1B19735  17.863   3.034   8.730
 1184POPC   C2B19736  17.891   3.134   8.281
 1184POPC   C3B19737  18.183   2.986   7.952
 1184POPC   C4B19738  18.140   3.067   7.475
 1185POPC   NC319739  16.236   9.795   9.340
 1185POPC   PO419740  15.588   9.764   9.444
 1185POPC   GL119741  15.840   9.673   9.039
 1185POPC   GL219742  16.039   9.359   9.007
 1185POPC   C1A19743  16.168   9.757   8.691
 1185POPC   D2A19744  16.253   9.625   8.264
 1185POPC   C3A19745  16.132   9.963   8.000
 1185POPC   C4A19746  16.207  10.052   7.595
 1185POPC   C1B19747  15.806   9.417   8.568
 1185POPC   C2B19748  15.742   9.531   8.109
 1185POPC   C3B19749  15.883   9.658   7.670
 1185POPC   C4B19750  15.712   9.576   7.221
 1186POPC   NC319751  29.547  42.214   9.438
 1186POPC   PO419752  29.059  42.601   9.463
 1186POPC   GL119753  29.117  42.463   9.030
 1186POPC   GL219754  29.381  42.201   8.945
 1186POPC   C1A19755  29.192  42.544   8.597
 1186POPC   D2A19756  29.269  42.298   8.221
 1186POPC   C3A19757  29.423  42.488   7.866
 1186POPC   C4A19758  29.003  42.509   7.726
 1186POPC   C1B19759  29.530  42.031   8.556
 1186POPC   C2B19760  29.328  41.789   8.203
 1186POPC   C3B19761  29.220  41.996   7.804
 1186POPC   C4B19762  29.601  42.052   7.598
 1187POPC   NC319763  35.192  26.103   9.695
 1187POPC   PO419764  35.814  26.295   9.435
 1187POPC   GL119765  35.503  26.083   9.151
 1187POPC   GL219766  35.432  25.706   9.154
 1187POPC   C1A19767  35.593  26.022   8.697
 1187POPC   D2A19768  35.725  26.326   8.359
 1187POPC   C3A19769  35.653  26.166   7.961
 1187POPC   C4A19770  35.294  26.170   7.646
 1187POPC   C1B19771  35.673  25.470   8.819
 1187POPC   C2B19772  35.665  25.547   8.362
 1187POPC   C3B19773  35.403  25.735   8.027
 1187POPC   C4B19774  35.117  25.640   7.694
 1188POPC   NC319775  33.433   3.336   9.439
 1188POPC   PO419776  33.985   3.713   9.768
 1188POPC   GL119777  33.808   3.705   9.285
 1188POPC   GL219778  33.846   3.406   9.021
 1188POPC   C1A19779  33.667   3.823   8.834
 1188POPC   D2A19780  33.646   3.600   8.424
 1188POPC   C3A19781  33.996   3.607   8.122
 1188POPC   C4A19782  34.032   3.499   7.676
 1188POPC   C1B19783  33.498   3.195   8.781
 1188POPC   C2B19784  33.457   3.063   8.334
 1188POPC   C3B19785  33.591   3.339   7.967
 1188POPC   C4B19786  33.589   3.801   7.875
 1189POPC   NC319787  39.144  14.576   9.385
 1189POPC   PO419788  39.670  14.258   9.295
 1189POPC   GL119789  39.447  14.401   8.978
 1189POPC   GL219790  39.100  14.276   8.959
 1189POPC   C1A19791  39.372  14.350   8.551
 1189POPC   D2A19792  39.109  14.049   8.411
 1189POPC   C3A19793  39.076  14.191   8.026
 1189POPC   C4A19794  39.314  14.421   7.716
 1189POPC   C1B19795  39.122  14.740   8.776
 1189POPC   C2B19796  39.078  14.988   8.426
 1189POPC   C3B19797  38.943  14.862   8.002
 1189POPC   C4B19798  38.966  14.775   7.540
 1190POPC   NC319799  23.652  13.773   9.796
 1190POPC   PO419800  23.950  13.222   9.447
 1190POPC   GL119801  23.900  13.483   9.057
 1190POPC   GL219802  23.739  13.838   9.026
 1190POPC   C1A19803  23.781  13.493   8.639
 1190POPC   D2A19804  23.777  13.423   8.221
 1190POPC   C3A19805  23.529  13.729   8.032
 1190POPC   C4A19806  23.393  13.679   7.636
 1190POPC   C1B19807  24.097  13.881   8.778
 1190POPC   C2B19808  24.237  13.668   8.435
 1190POPC   C3B19809  24.056  13.832   8.069
 1190POPC   C4B19810  23.890  13.760   7.670
 1191POPC   NC319811  38.301  23.260   9.578
 1191POPC   PO419812  38.249  22.634   9.555
 1191POPC   GL119813  38.469  22.889   9.248
 1191POPC   GL219814  38.225  22.841   9.055
 1191POPC   C1A19815  38.689  23.017   8.864
 1191POPC   D2A19816  38.658  22.922   8.412
 1191POPC   C3A19817  38.706  23.138   8.001
 1191POPC   C4A19818  38.628  22.898   7.628
 1191POPC   C1B19819  38.201  23.046   8.675
 1191POPC   C2B19820  37.985  23.042   8.290
 1191POPC   C3B19821  38.200  23.044   7.885
 1191POPC   C4B19822  38.134  22.905   7.445
 1192POPC   NC319823  44.234   2.002   9.420
 1192POPC   PO419824  44.850   2.059   9.387
 1192POPC   GL119825  44.568   2.158   9.063
 1192POPC   GL219826  44.291   2.400   9.038
 1192POPC   C1A19827  44.384   1.922   8.771
 1192POPC   D2A19828  44.254   1.855   8.366
 1192POPC   C3A19829  44.449   2.027   8.016
 1192POPC   C4A19830  44.730   1.815   7.733
 1192POPC   C1B19831  44.468   2.383   8.596
 1192POPC   C2B19832  44.856   2.371   8.308
 1192POPC   C3B19833  44.898   2.264   7.906
 1192POPC   C4B19834   0.094   2.138   7.527
 1193POPC   NC319835  18.380  35.565   9.566
 1193POPC   PO419836  17.916  35.102   9.568
 1193POPC   GL119837  18.044  35.342   9.242
 1193POPC   GL219838  18.368  35.214   9.157
 1193POPC   C1A19839  18.102  35.492   8.824
 1193POPC   D2A19840  18.144  35.184   8.499
 1193POPC   C3A19841  18.102  35.351   8.077
 1193POPC   C4A19842  18.147  35.204   7.633
 1193POPC   C1B19843  18.591  35.355   8.796
 1193POPC   C2B19844  18.508  35.547   8.417
 1193POPC   C3B19845  18.613  35.436   8.023
 1193POPC   C4B19846  18.673  35.343   7.597
 1194POPC   NC319847   6.228   6.885   9.849
 1194POPC   PO419848   5.609   6.726   9.572
 1194POPC   GL119849   5.921   6.654   9.239
 1194POPC   GL219850   6.090   6.321   9.224
 1194POPC   C1A19851   5.774   6.597   8.831
 1194POPC   D2A19852   5.788   6.415   8.453
 1194POPC   C3A19853   5.949   6.711   8.194
 1194POPC   C4A19854   5.933   6.587   7.779
 1194POPC   C1B19855   6.255   6.439   8.837
 1194POPC   C2B19856   6.415   6.544   8.438
 1194POPC   C3B19857   6.560   6.285   8.102
 1194POPC   C4B19858   6.381   6.341   7.708
 1195POPC   NC319859  35.361  31.342   9.424
 1195POPC   PO419860  34.862  31.833   9.431
 1195POPC   GL119861  35.215  31.731   9.090
 1195POPC   GL219862  35.196  31.393   8.957
 1195POPC   C1A19863  35.430  31.700   8.655
 1195POPC   D2A19864  35.274  31.423   8.319
 1195POPC   C3A19865  35.295  31.629   7.910
 1195POPC   C4A19866  35.658  31.837   7.681
 1195POPC   C1B19867  35.548  31.182   8.756
 1195POPC   C2B19868  35.592  31.020   8.335
 1195POPC   C3B19869  35.404  31.096   7.896
 1195POPC   C4B19870  35.432  31.031   7.412
 1196POPC   NC319871  13.755  13.766   9.616
 1196POPC   PO419872  13.582  13.240   9.330
 1196POPC   GL119873  13.761  13.618   9.132
 1196POPC   GL219874  14.124  13.551   9.120
 1196POPC   C1A19875  13.907  13.879   8.785
 1196POPC   D2A19876  13.872  13.702   8.398
 1196POPC   C3A19877  13.855  13.851   8.018
 1196POPC   C4A19878  13.634  13.726   7.692
 1196POPC   C1B19879  13.931  13.329   8.723
 1196POPC   C2B19880  13.956  13.124   8.317
 1196POPC   C3B19881  13.750  13.311   7.952
 1196POPC   C4B19882  13.827  13.325   7.449
 1197POPC   NC319883   6.201   2.630   9.577
 1197POPC   PO419884   5.610   2.717   9.529
 1197POPC   GL119885   5.711   2.937   9.157
 1197POPC   GL219886   6.076   2.932   9.174
 1197POPC   C1A19887   5.735   2.758   8.737
 1197POPC   D2A19888   5.727   2.513   8.350
 1197POPC   C3A19889   5.595   2.623   7.926
 1197POPC   C4A19890   5.810   2.952   7.666
 1197POPC   C1B19891   6.228   2.757   8.797
 1197POPC   C2B19892   6.073   2.927   8.392
 1197POPC   C3B19893   6.102   2.685   8.016
 1197POPC   C4B19894   5.996   2.438   7.661
 1198POPC   NC319895  40.398  23.086   9.565
 1198POPC   PO419896  39.763  22.801   9.581
 1198POPC   GL119897  39.961  22.972   9.240
 1198POPC   GL219898  40.074  22.674   9.103
 1198POPC   C1A19899  39.983  23.080   8.807
 1198POPC   D2A19900  40.313  23.196   8.527
 1198POPC   C3A19901  40.190  23.119   8.130
 1198POPC   C4A19902  40.163  23.208   7.728
 1198POPC   C1B19903  40.266  22.684   8.668
 1198POPC   C2B19904  40.166  22.621   8.223
 1198POPC   C3B19905  40.064  22.710   7.805
 1198POPC   C4B19906  39.971  22.540   7.428
 1199POPC   NC319907  17.556  44.384   9.676
 1199POPC   PO419908  17.165  44.962   9.489
 1199POPC   GL119909  17.480  44.719   9.247
 1199POPC   GL219910  17.362  44.365   9.207
 1199POPC   C1A19911  17.707  44.611   8.842
 1199POPC   D2A19912  17.725  44.454   8.387
 1199POPC   C3A19913  17.762  44.769   8.061
 1199POPC   C4A19914  17.830  44.814   7.636
 1199POPC   C1B19915  17.207  44.530   8.859
 1199POPC   C2B19916  17.219  44.588   8.441
 1199POPC   C3B19917  17.314  44.516   8.042
 1199POPC   C4B19918  17.339  44.810   7.718
 1200POPC   NC319919  25.805  23.834   9.396
 1200POPC   PO419920  26.367  23.442   9.537
 1200POPC   GL119921  26.199  23.590   9.120
 1200POPC   GL219922  25.836  23.491   9.017
 1200POPC   C1A19923  26.158  23.845   8.732
 1200POPC   D2A19924  26.222  24.033   8.327
 1200POPC   C3A19925  26.157  23.817   7.926
 1200POPC   C4A19926  26.278  23.954   7.495
 1200POPC   C1B19927  26.087  23.331   8.690
 1200POPC   C2B19928  26.245  23.476   8.338
 1200POPC   C3B19929  26.127  23.309   7.961
 1200POPC   C4B19930  25.843  23.231   7.631
 1201POPC   NC319931   5.571  32.888   9.417
 1201POPC   PO419932   6.070  33.350   9.600
 1201POPC   GL119933   5.941  33.183   9.234
 1201POPC   GL219934   5.668  33.411   9.199
 1201POPC   C1A19935   5.809  33.097   8.798
 1201POPC   D2A19936   5.914  32.786   8.487
 1201POPC   C3A19937   5.758  32.869   8.084
 1201POPC   C4A19938   5.934  32.838   7.673
 1201POPC   C1B19939   6.016  33.559   8.910
 1201POPC   C2B19940   5.854  33.550   8.480
 1201POPC   C3B19941   5.902  33.348   8.091
 1201POPC   C4B19942   5.730  33.300   7.711
 1202POPC   NC319943  21.385  27.992   9.544
 1202POPC   PO419944  21.576  28.619   9.484
 1202POPC   GL119945  21.629  28.285   9.226
 1202POPC   GL219946  21.343  28.177   9.062
 1202POPC   C1A19947  21.776  28.311   8.828
 1202POPC   D2A19948  21.696  28.486   8.437
 1202POPC   C3A19949  21.509  28.256   8.118
 1202POPC   C4A19950  21.690  28.353   7.730
 1202POPC   C1B19951  21.266  28.263   8.619
 1202POPC   C2B19952  21.196  28.599   8.305
 1202POPC   C3B19953  21.319  28.665   7.889
 1202POPC   C4B19954  21.227  28.424   7.510
 1203POPC   NC319955  37.493  36.329   9.515
 1203POPC   PO419956  37.519  35.705   9.548
 1203POPC   GL119957  37.753  35.912   9.237
 1203POPC   GL219958  38.008  35.679   9.155
 1203POPC   C1A19959  37.671  36.185   8.873
 1203POPC   D2A19960  37.384  36.197   8.525
 1203POPC   C3A19961  37.590  36.336   8.169
 1203POPC   C4A19962  37.681  36.219   7.785
 1203POPC   C1B19963  38.069  35.851   8.763
 1203POPC   C2B19964  37.910  36.024   8.423
 1203POPC   C3B19965  38.108  36.044   8.045
 1203POPC   C4B19966  38.047  35.911   7.632
 1204POPC   NC319967   2.736  10.070   9.591
 1204POPC   PO419968   2.504   9.442   9.567
 1204POPC   GL119969   2.800   9.610   9.209
 1204POPC   GL219970   2.864   9.958   9.107
 1204POPC   C1A19971   2.854   9.554   8.768
 1204POPC   D2A19972   2.513   9.616   8.503
 1204POPC   C3A19973   2.582   9.617   8.068
 1204POPC   C4A19974   2.940   9.557   7.842
 1204POPC   C1B19975   3.122  10.004   8.733
 1204POPC   C2B19976   2.976   9.895   8.319
 1204POPC   C3B19977   2.949  10.063   7.903
 1204POPC   C4B19978   2.977  10.061   7.440
 1205POPC   NC319979   5.670  11.139   9.450
 1205POPC   PO419980   6.315  10.933   9.616
 1205POPC   GL119981   6.299  11.065   9.174
 1205POPC   GL219982   6.071  11.293   9.120
 1205POPC   C1A19983   6.164  11.037   8.724
 1205POPC   D2A19984   5.953  11.071   8.360
 1205POPC   C3A19985   6.050  11.370   8.053
 1205POPC   C4A19986   5.877  11.155   7.727
 1205POPC   C1B19987   5.737  11.359   8.813
 1205POPC   C2B19988   5.732  11.526   8.415
 1205POPC   C3B19989   5.560  11.472   8.026
 1205POPC   C4B19990   5.418  11.618   7.695
 1206POPC   NC319991  42.520  29.003   9.461
 1206POPC   PO419992  42.283  29.604   9.481
 1206POPC   GL119993  42.151  29.304   9.152
 1206POPC   GL219994  41.863  29.082   9.197
 1206POPC   C1A19995  42.280  29.084   8.776
 1206POPC   D2A19996  42.566  28.946   8.467
 1206POPC   C3A19997  42.363  28.973   8.077
 1206POPC   C4A19998  42.483  29.045   7.655
 1206POPC   C1B19999  41.827  28.854   8.792
 1206POPC   C2B20000  41.899  29.046   8.372
 1206POPC   C3B20001  41.959  29.265   7.967
 1206POPC   C4B20002  41.919  29.005   7.593
 1207POPC   NC320003  29.203  41.411   9.598
 1207POPC   PO420004  29.120  42.060   9.356
 1207POPC   GL120005  29.241  41.717   9.112
 1207POPC   GL220006  28.949  41.540   9.153
 1207POPC   C1A20007  29.260  41.542   8.681
 1207POPC   D2A20008  29.251  41.133   8.420
 1207POPC   C3A20009  29.172  41.266   8.014
 1207POPC   C4A20010  29.408  41.527   7.735
 1207POPC   C1B20011  28.726  41.665   8.780
 1207POPC   C2B20012  28.861  41.594   8.330
 1207POPC   C3B20013  28.853  41.621   7.856
 1207POPC   C4B20014  28.761  41.671   7.415
 1208POPC   NC320015  16.635  42.717   9.573
 1208POPC   PO420016  16.719  42.052   9.525
 1208POPC   GL120017  16.665  42.387   9.192
 1208POPC   GL220018  16.351  42.585   9.178
 1208POPC   C1A20019  16.693  42.357   8.760
 1208POPC   D2A20020  16.788  42.194   8.357
 1208POPC   C3A20021  16.822  42.500   8.044
 1208POPC   C4A20022  16.717  42.256   7.726
 1208POPC   C1B20023  16.189  42.417   8.799
 1208POPC   C2B20024  16.296  42.111   8.477
 1208POPC   C3B20025  16.297  42.107   8.035
 1208POPC   C4B20026  16.294  42.515   7.878
 1209POPC   NC320027  44.088  32.972   9.568
 1209POPC   PO420028  43.582  33.176   9.241
 1209POPC   GL120029  43.949  33.055   9.022
 1209POPC   GL220030  43.953  33.301   8.782
 1209POPC   C1A20031  44.006  32.808   8.607
 1209POPC   D2A20032  43.885  32.973   8.228
 1209POPC   C3A20033  44.049  33.300   8.029
 1209POPC   C4A20034  44.130  33.032   7.683
 1209POPC   C1B20035  43.561  33.066   8.614
 1209POPC   C2B20036  43.414  33.158   8.217
 1209POPC   C3B20037  43.624  33.139   7.793
 1209POPC   C4B20038  43.889  33.470   7.566
 1210POPC   NC320039  17.263   6.775   9.629
 1210POPC   PO420040  17.807   6.514   9.439
 1210POPC   GL120041  17.536   6.781   9.154
 1210POPC   GL220042  17.162   6.675   9.140
 1210POPC   C1A20043  17.421   6.894   8.720
 1210POPC   D2A20044  17.491   6.638   8.340
 1210POPC   C3A20045  17.807   6.772   8.030
 1210POPC   C4A20046  17.891   6.592   7.603
 1210POPC   C1B20047  16.922   6.889   8.839
 1210POPC   C2B20048  16.940   6.922   8.411
 1210POPC   C3B20049  17.087   6.734   8.044
 1210POPC   C4B20050  17.406   6.623   7.781
 1211POPC   NC320051  22.888  23.372   9.471
 1211POPC   PO420052  23.125  23.985   9.662
 1211POPC   GL120053  22.968  23.892   9.245
 1211POPC   GL220054  22.674  23.717   9.145
 1211POPC   C1A20055  23.112  23.866   8.816
 1211POPC   D2A20056  23.053  23.655   8.400
 1211POPC   C3A20057  23.027  23.884   8.039
 1211POPC   C4A20058  23.357  23.809   7.814
 1211POPC   C1B20059  22.735  23.517   8.753
 1211POPC   C2B20060  22.592  23.415   8.334
 1211POPC   C3B20061  22.827  23.398   7.918
 1211POPC   C4B20062  22.822  23.340   7.440
 1212POPC   NC320063   5.654  35.827   9.289
 1212POPC   PO420064   6.079  36.493   9.471
 1212POPC   GL120065   6.168  36.304   9.059
 1212POPC   GL220066   6.024  35.981   8.989
 1212POPC   C1A20067   6.043  36.367   8.660
 1212POPC   D2A20068   5.874  36.317   8.277
 1212POPC   C3A20069   6.160  36.440   7.956
 1212POPC   C4A20070   6.025  36.449   7.501
 1212POPC   C1B20071   5.736  35.950   8.643
 1212POPC   C2B20072   5.765  35.799   8.231
 1212POPC   C3B20073   5.901  36.036   7.841
 1212POPC   C4B20074   6.021  35.886   7.453
 1213POPC   NC320075  23.949  12.739   9.527
 1213POPC   PO420076  24.550  12.952   9.666
 1213POPC   GL120077  24.623  12.977   9.186
 1213POPC   GL220078  24.263  12.958   9.148
 1213POPC   C1A20079  24.534  12.869   8.733
 1213POPC   D2A20080  24.718  12.714   8.352
 1213POPC   C3A20081  24.522  12.774   7.951
 1213POPC   C4A20082  24.743  12.949   7.578
 1213POPC   C1B20083  24.084  13.094   8.752
 1213POPC   C2B20084  24.251  13.154   8.329
 1213POPC   C3B20085  24.206  13.356   7.922
 1213POPC   C4B20086  24.253  13.059   7.599
 1214POPC   NC320087  11.046   2.030   9.437
 1214POPC   PO420088  11.557   1.637   9.443
 1214POPC   GL120089  11.486   1.994   9.165
 1214POPC   GL220090  11.183   1.795   9.025
 1214POPC   C1A20091  11.314   2.217   8.795
 1214POPC   D2A20092  11.370   1.966   8.436
 1214POPC   C3A20093  11.651   2.128   8.167
 1214POPC   C4A20094  11.462   2.054   7.773
 1214POPC   C1B20095  11.519   1.627   8.792
 1214POPC   C2B20096  11.439   1.452   8.405
 1214POPC   C3B20097  11.245   1.624   8.033
 1214POPC   C4B20098  11.427   1.576   7.629
 1215POPC   NC320099  35.845  29.684   9.477
 1215POPC   PO420100  35.143  29.744   9.730
 1215POPC   GL120101  35.353  29.825   9.293
 1215POPC   GL220102  35.503  29.537   9.118
 1215POPC   C1A20103  35.378  30.088   8.890
 1215POPC   D2A20104  35.092  30.182   8.508
 1215POPC   C3A20105  35.266  30.234   8.085
 1215POPC   C4A20106  35.353  30.082   7.670
 1215POPC   C1B20107  35.563  29.648   8.695
 1215POPC   C2B20108  35.478  29.824   8.307
 1215POPC   C3B20109  35.355  29.638   7.896
 1215POPC   C4B20110  35.518  29.651   7.433
 1216POPC   NC320111  13.783   4.511   9.688
 1216POPC   PO420112  13.289   4.792   9.328
 1216POPC   GL120113  13.690   4.606   9.198
 1216POPC   GL220114  13.710   4.227   9.181
 1216POPC   C1A20115  13.791   4.557   8.781
 1216POPC   D2A20116  13.533   4.667   8.440
 1216POPC   C3A20117  13.758   4.609   8.067
 1216POPC   C4A20118  13.510   4.441   7.765
 1216POPC   C1B20119  13.571   4.031   8.775
 1216POPC   C2B20120  13.589   3.806   8.385
 1216POPC   C3B20121  13.657   4.019   8.012
 1216POPC   C4B20122  13.992   4.208   7.824
 1217POPC   NC320123   8.259  20.928   9.343
 1217POPC   PO420124   8.214  20.252   9.363
 1217POPC   GL120125   8.254  20.523   9.041
 1217POPC   GL220126   7.917  20.662   9.077
 1217POPC   C1A20127   8.416  20.643   8.646
 1217POPC   D2A20128   8.378  20.532   8.213
 1217POPC   C3A20129   8.571  20.251   7.917
 1217POPC   C4A20130   8.298  20.453   7.572
 1217POPC   C1B20131   7.920  20.547   8.644
 1217POPC   C2B20132   7.879  20.374   8.276
 1217POPC   C3B20133   7.948  20.631   7.913
 1217POPC   C4B20134   7.638  20.827   7.684
 1218POPC   NC320135  28.080  41.313   9.634
 1218POPC   PO420136  28.705  41.607   9.596
 1218POPC   GL120137  28.433  41.619   9.247
 1218POPC   GL220138  28.428  41.299   9.239
 1218POPC   C1A20139  28.191  41.721   8.881
 1218POPC   D2A20140  27.986  41.754   8.469
 1218POPC   C3A20141  28.318  41.852   8.128
 1218POPC   C4A20142  28.296  41.705   7.702
 1218POPC   C1B20143  28.414  41.246   8.822
 1218POPC   C2B20144  28.380  41.444   8.441
 1218POPC   C3B20145  28.459  41.330   8.021
 1218POPC   C4B20146  28.581  41.222   7.601
 1219POPC   NC320147  13.214  26.742   9.498
 1219POPC   PO420148  12.675  27.127   9.507
 1219POPC   GL120149  12.849  26.946   9.123
 1219POPC   GL220150  13.065  27.187   9.116
 1219POPC   C1A20151  12.647  26.683   8.743
 1219POPC   D2A20152  12.453  26.874   8.356
 1219POPC   C3A20153  12.738  26.904   8.002
 1219POPC   C4A20154  12.673  26.767   7.553
 1219POPC   C1B20155  13.014  26.998   8.649
 1219POPC   C2B20156  13.048  26.650   8.335
 1219POPC   C3B20157  13.247  26.699   7.937
 1219POPC   C4B20158  13.188  27.138   7.843
 1220POPC   NC320159  40.713  20.127  10.040
 1220POPC   PO420160  40.796  19.574   9.666
 1220POPC   GL120161  40.793  19.646   9.215
 1220POPC   GL220162  40.595  19.919   9.151
 1220POPC   C1A20163  40.613  19.547   8.804
 1220POPC   D2A20164  40.644  19.739   8.407
 1220POPC   C3A20165  40.688  19.473   8.070
 1220POPC   C4A20166  40.656  19.694   7.717
 1220POPC   C1B20167  40.482  20.137   8.777
 1220POPC   C2B20168  40.241  20.038   8.402
 1220POPC   C3B20169  40.515  20.093   8.055
 1220POPC   C4B20170  40.628  20.261   7.663
 1221POPC   NC320171  30.193   3.964   9.545
 1221POPC   PO420172  29.894   4.626   9.427
 1221POPC   GL120173  30.014   4.467   9.046
 1221POPC   GL220174  30.177   4.146   9.060
 1221POPC   C1A20175  29.962   4.610   8.600
 1221POPC   D2A20176  30.118   4.472   8.199
 1221POPC   C3A20177  29.884   4.165   7.975
 1221POPC   C4A20178  29.801   4.216   7.545
 1221POPC   C1B20179  30.181   4.134   8.591
 1221POPC   C2B20180  30.327   3.953   8.187
 1221POPC   C3B20181  30.336   3.782   7.755
 1221POPC   C4B20182  30.425   3.977   7.331
 1222POPC   NC320183  43.789   3.617   9.535
 1222POPC   PO420184  43.443   3.091   9.424
 1222POPC   GL120185  43.559   3.406   9.091
 1222POPC   GL220186  43.885   3.578   9.052
 1222POPC   C1A20187  43.603   3.475   8.627
 1222POPC   D2A20188  43.603   3.481   8.197
 1222POPC   C3A20189  43.935   3.273   8.110
 1222POPC   C4A20190  44.089   3.419   7.773
 1222POPC   C1B20191  44.005   3.797   8.712
 1222POPC   C2B20192  44.143   3.693   8.297
 1222POPC   C3B20193  44.052   3.898   7.887
 1222POPC   C4B20194  44.126   3.785   7.425
 1223POPC   NC320195  25.500  15.395   9.477
 1223POPC   PO420196  25.142  14.821   9.574
 1223POPC   GL120197  25.141  15.063   9.259
 1223POPC   GL220198  25.462  14.977   9.169
 1223POPC   C1A20199  25.084  15.234   8.880
 1223POPC   D2A20200  25.183  15.124   8.457
 1223POPC   C3A20201  25.117  15.447   8.164
 1223POPC   C4A20202  25.192  15.381   7.728
 1223POPC   C1B20203  25.579  15.171   8.804
 1223POPC   C2B20204  25.650  15.351   8.435
 1223POPC   C3B20205  25.604  15.263   8.033
 1223POPC   C4B20206  25.713  15.200   7.630
 1224POPC   NC320207  42.792  13.234   9.453
 1224POPC   PO420208  43.192  12.733   9.311
 1224POPC   GL120209  43.061  13.073   9.041
 1224POPC   GL220210  43.342  13.204   8.907
 1224POPC   C1A20211  42.903  13.131   8.609
 1224POPC   D2A20212  42.659  12.973   8.253
 1224POPC   C3A20213  42.941  12.995   7.930
 1224POPC   C4A20214  43.118  12.633   7.720
 1224POPC   C1B20215  43.352  12.834   8.680
 1224POPC   C2B20216  43.190  12.749   8.314
 1224POPC   C3B20217  43.472  12.812   8.015
 1224POPC   C4B20218  43.657  12.520   7.743
 1225POPC   NC320219  40.866  30.294   9.815
 1225POPC   PO420220  40.731  30.861   9.467
 1225POPC   GL120221  40.947  30.826   9.081
 1225POPC   GL220222  40.615  30.762   8.966
 1225POPC   C1A20223  40.999  30.671   8.647
 1225POPC   D2A20224  40.744  30.522   8.313
 1225POPC   C3A20225  40.956  30.526   7.913
 1225POPC   C4A20226  41.045  30.842   7.609
 1225POPC   C1B20227  40.640  31.033   8.618
 1225POPC   C2B20228  40.688  31.014   8.154
 1225POPC   C3B20229  40.544  30.837   7.773
 1225POPC   C4B20230  40.392  30.948   7.355
 1226POPC   NC320231  31.798   9.355   9.427
 1226POPC   PO420232  32.473   9.155   9.508
 1226POPC   GL120233  32.174   9.077   9.160
 1226POPC   GL220234  32.414   8.925   9.012
 1226POPC   C1A20235  31.993   8.887   8.734
 1226POPC   D2A20236  31.987   8.660   8.315
 1226POPC   C3A20237  32.172   8.869   7.939
 1226POPC   C4A20238  32.017   9.248   7.701
 1226POPC   C1B20239  32.531   8.882   8.597
 1226POPC   C2B20240  32.647   8.857   8.163
 1226POPC   C3B20241  32.634   8.712   7.731
 1226POPC   C4B20242  32.681   8.799   7.276
 1227POPC   NC320243  36.301  38.245   9.512
 1227POPC   PO420244  36.579  38.775   9.457
 1227POPC   GL120245  36.349  38.606   9.140
 1227POPC   GL220246  36.025  38.673   9.251
 1227POPC   C1A20247  36.371  38.248   8.824
 1227POPC   D2A20248  36.025  38.132   8.527
 1227POPC   C3A20249  36.089  38.147   8.072
 1227POPC   C4A20250  36.344  38.173   7.730
 1227POPC   C1B20251  36.010  38.609   8.762
 1227POPC   C2B20252  36.081  38.624   8.289
 1227POPC   C3B20253  36.111  38.634   7.820
 1227POPC   C4B20254  35.816  38.743   7.434
 1228POPC   NC320255  43.522  41.723   9.546
 1228POPC   PO420256  43.240  41.154   9.570
 1228POPC   GL120257  43.212  41.430   9.262
 1228POPC   GL220258  42.896  41.539   9.272
 1228POPC   C1A20259  43.261  41.425   8.843
 1228POPC   D2A20260  43.069  41.631   8.516
 1228POPC   C3A20261  43.223  41.626   8.097
 1228POPC   C4A20262  42.947  41.761   7.789
 1228POPC   C1B20263  42.762  41.363   8.870
 1228POPC   C2B20264  42.698  41.263   8.451
 1228POPC   C3B20265  42.840  41.287   8.038
 1228POPC   C4B20266  42.732  41.187   7.626
 1229POPC   NC320267  35.273  32.039   9.482
 1229POPC   PO420268  35.486  32.623   9.480
 1229POPC   GL120269  35.193  32.563   9.161
 1229POPC   GL220270  34.984  32.269   9.138
 1229POPC   C1A20271  35.137  32.711   8.753
 1229POPC   D2A20272  35.121  32.915   8.348
 1229POPC   C3A20273  35.269  32.715   7.987
 1229POPC   C4A20274  35.338  32.525   7.581
 1229POPC   C1B20275  35.210  32.153   8.774
 1229POPC   C2B20276  35.470  32.171   8.389
 1229POPC   C3B20277  35.336  32.171   7.953
 1229POPC   C4B20278  35.193  31.997   7.542
 1230POPC   NC320279   7.792   5.000   9.280
 1230POPC   PO420280   8.304   5.384   9.510
 1230POPC   GL120281   8.298   5.124   9.130
 1230POPC   GL220282   8.432   4.786   9.215
 1230POPC   C1A20283   8.153   5.072   8.680
 1230POPC   D2A20284   8.089   5.344   8.319
 1230POPC   C3A20285   8.088   5.153   7.965
 1230POPC   C4A20286   8.350   5.276   7.656
 1230POPC   C1B20287   8.615   4.874   8.808
 1230POPC   C2B20288   8.559   4.807   8.362
 1230POPC   C3B20289   8.496   4.864   7.914
 1230POPC   C4B20290   8.266   4.807   7.472
 1231POPC   NC320291   9.943   2.590   9.613
 1231POPC   PO420292   9.422   2.960   9.955
 1231POPC   GL120293   9.427   2.904   9.397
 1231POPC   GL220294   9.768   2.858   9.199
 1231POPC   C1A20295   9.433   2.923   8.861
 1231POPC   D2A20296   9.678   2.727   8.500
 1231POPC   C3A20297   9.571   2.775   8.052
 1231POPC   C4A20298   9.758   2.587   7.687
 1231POPC   C1B20299   9.990   2.534   8.935
 1231POPC   C2B20300  10.128   2.467   8.527
 1231POPC   C3B20301  10.088   2.525   8.083
 1231POPC   C4B20302  10.238   2.408   7.649
 1232POPC   NC320303  21.943  14.364   9.406
 1232POPC   PO420304  21.361  14.541   9.671
 1232POPC   GL120305  21.406  14.556   9.213
 1232POPC   GL220306  21.196  14.821   9.086
 1232POPC   C1A20307  21.676  14.605   8.828
 1232POPC   D2A20308  21.829  14.375   8.457
 1232POPC   C3A20309  21.527  14.484   8.117
 1232POPC   C4A20310  21.292  14.261   7.799
 1232POPC   C1B20311  21.143  14.479   8.764
 1232POPC   C2B20312  21.022  14.374   8.336
 1232POPC   C3B20313  21.016  14.649   7.987
 1232POPC   C4B20314  21.359  14.744   7.673
 1233POPC   NC320315   1.114  36.004   9.377
 1233POPC   PO420316   1.687  36.336   9.453
 1233POPC   GL120317   1.423  36.310   9.104
 1233POPC   GL220318   1.177  36.566   9.144
 1233POPC   C1A20319   1.175  36.224   8.738
 1233POPC   D2A20320   1.284  36.305   8.340
 1233POPC   C3A20321   1.416  36.073   8.000
 1233POPC   C4A20322   1.200  36.082   7.635
 1233POPC   C1B20323   0.903  36.673   8.785
 1233POPC   C2B20324   0.965  36.713   8.364
 1233POPC   C3B20325   0.940  36.514   7.961
 1233POPC   C4B20326   0.593  36.545   7.680
 1234POPC   NC320327  39.707  32.610   9.467
 1234POPC   PO420328  39.720  33.339   9.445
 1234POPC   GL120329  39.931  33.211   9.108
 1234POPC   GL220330  40.050  32.861   9.164
 1234POPC   C1A20331  40.114  33.177   8.712
 1234POPC   D2A20332  40.401  33.083   8.398
 1234POPC   C3A20333  40.188  33.097   8.050
 1234POPC   C4A20334  39.972  33.402   7.847
 1234POPC   C1B20335  39.772  32.808   8.807
 1234POPC   C2B20336  39.973  32.766   8.412
 1234POPC   C3B20337  39.851  32.731   8.017
 1234POPC   C4B20338  39.623  32.894   7.737
 1235POPC   NC320339   8.892   0.925   9.510
 1235POPC   PO420340   9.375   1.331   9.687
 1235POPC   GL120341   9.248   1.273   9.270
 1235POPC   GL220342   8.886   1.399   9.263
 1235POPC   C1A20343   9.170   1.296   8.832
 1235POPC   D2A20344   9.073   1.406   8.430
 1235POPC   C3A20345   9.252   1.129   8.157
 1235POPC   C4A20346   9.311   1.297   7.769
 1235POPC   C1B20347   8.675   1.170   8.898
 1235POPC   C2B20348   8.816   0.980   8.530
 1235POPC   C3B20349   8.739   1.044   8.106
 1235POPC   C4B20350   8.659   1.107   7.681
 1236POPC   NC320351  13.422  36.550   9.313
 1236POPC   PO420352  13.873  36.077   9.545
 1236POPC   GL120353  13.808  36.241   9.154
 1236POPC   GL220354  13.479  36.070   9.164
 1236POPC   C1A20355  13.663  36.336   8.746
 1236POPC   D2A20356  13.670  36.424   8.348
 1236POPC   C3A20357  13.980  36.257   8.160
 1236POPC   C4A20358  13.895  36.268   7.772
 1236POPC   C1B20359  13.470  35.867   8.777
 1236POPC   C2B20360  13.630  35.894   8.361
 1236POPC   C3B20361  13.490  36.030   7.981
 1236POPC   C4B20362  13.195  35.912   7.632
 1237POPC   NC320363  20.969  24.572   9.504
 1237POPC   PO420364  21.521  24.211   9.497
 1237POPC   GL120365  21.402  24.251   9.097
 1237POPC   GL220366  21.421  24.596   9.135
 1237POPC   C1A20367  21.362  24.264   8.654
 1237POPC   D2A20368  21.158  24.357   8.272
 1237POPC   C3A20369  21.460  24.429   7.926
 1237POPC   C4A20370  21.702  24.102   7.746
 1237POPC   C1B20371  21.117  24.726   8.873
 1237POPC   C2B20372  21.045  24.807   8.474
 1237POPC   C3B20373  21.114  24.832   8.032
 1237POPC   C4B20374  21.246  24.810   7.613
 1238POPC   NC320375  11.663  18.877   9.591
 1238POPC   PO420376  10.946  18.876   9.610
 1238POPC   GL120377  11.096  19.020   9.188
 1238POPC   GL220378  11.412  19.187   9.191
 1238POPC   C1A20379  11.323  18.894   8.786
 1238POPC   D2A20380  11.477  18.818   8.354
 1238POPC   C3A20381  11.236  19.086   8.053
 1238POPC   C4A20382  10.842  19.010   7.832
 1238POPC   C1B20383  11.632  19.290   8.760
 1238POPC   C2B20384  11.920  19.079   8.426
 1238POPC   C3B20385  11.797  19.031   7.999
 1238POPC   C4B20386  11.641  19.332   7.736
 1239POPC   NC320387  40.491  28.751   9.583
 1239POPC   PO420388  40.560  29.371   9.333
 1239POPC   GL120389  40.785  29.176   9.097
 1239POPC   GL220390  40.514  28.921   9.072
 1239POPC   C1A20391  40.925  29.249   8.695
 1239POPC   D2A20392  40.748  29.185   8.311
 1239POPC   C3A20393  40.906  29.344   7.919
 1239POPC   C4A20394  40.700  29.476   7.528
 1239POPC   C1B20395  40.825  28.737   8.846
 1239POPC   C2B20396  40.945  28.721   8.422
 1239POPC   C3B20397  40.847  28.836   7.970
 1239POPC   C4B20398  41.132  28.918   7.663
 1240POPC   NC320399  19.512   6.494   9.542
 1240POPC   PO420400  19.166   7.061   9.484
 1240POPC   GL120401  19.228   6.789   9.185
 1240POPC   GL220402  19.057   6.487   9.270
 1240POPC   C1A20403  19.379   6.875   8.771
 1240POPC   D2A20404  19.509   6.967   8.356
 1240POPC   C3A20405  19.183   6.921   8.086
 1240POPC   C4A20406  19.148   6.910   7.631
 1240POPC   C1B20407  18.999   6.483   8.815
 1240POPC   C2B20408  19.008   6.345   8.349
 1240POPC   C3B20409  19.013   6.453   7.920
 1240POPC   C4B20410  19.357   6.358   7.624
 1241POPC   NC320411   5.732  27.395   9.624
 1241POPC   PO420412   6.361  27.601   9.676
 1241POPC   GL120413   6.134  27.529   9.279
 1241POPC   GL220414   6.358  27.285   9.180
 1241POPC   C1A20415   5.839  27.571   8.904
 1241POPC   D2A20416   5.808  27.800   8.496
 1241POPC   C3A20417   5.717  27.660   8.057
 1241POPC   C4A20418   5.725  27.856   7.676
 1241POPC   C1B20419   6.266  27.352   8.783
 1241POPC   C2B20420   6.412  27.506   8.450
 1241POPC   C3B20421   6.283  27.457   8.075
 1241POPC   C4B20422   6.135  27.573   7.724
 1242POPC   NC320423  31.375  43.626   9.504
 1242POPC   PO420424  31.752  43.071   9.552
 1242POPC   GL120425  31.455  43.182   9.234
 1242POPC   GL220426  31.730  43.198   9.039
 1242POPC   C1A20427  31.266  43.223   8.827
 1242POPC   D2A20428  31.457  43.345   8.457
 1242POPC   C3A20429  31.309  43.200   8.074
 1242POPC   C4A20430  31.434  43.267   7.652
 1242POPC   C1B20431  31.719  42.904   8.705
 1242POPC   C2B20432  31.724  42.938   8.278
 1242POPC   C3B20433  31.644  42.856   7.887
 1242POPC   C4B20434  31.838  42.633   7.609
 1243POPC   NC320435  19.185   4.680   9.552
 1243POPC   PO420436  18.656   4.201   9.624
 1243POPC   GL120437  18.884   4.354   9.253
 1243POPC   GL220438  18.737   4.680   9.276
 1243POPC   C1A20439  19.074   4.377   8.827
 1243POPC   D2A20440  19.013   4.251   8.392
 1243POPC   C3A20441  19.112   4.491   8.060
 1243POPC   C4A20442  19.262   4.449   7.669
 1243POPC   C1B20443  18.646   4.681   8.845
 1243POPC   C2B20444  18.841   4.745   8.455
 1243POPC   C3B20445  18.738   4.861   8.030
 1243POPC   C4B20446  18.800   4.701   7.607
 1244POPC   NC320447   1.962  35.533   9.505
 1244POPC   PO420448   1.811  34.849   9.455
 1244POPC   GL120449   1.787  35.171   9.162
 1244POPC   GL220450   2.112  35.254   9.075
 1244POPC   C1A20451   1.710  35.433   8.799
 1244POPC   D2A20452   1.960  35.455   8.431
 1244POPC   C3A20453   1.764  35.281   8.071
 1244POPC   C4A20454   1.805  35.228   7.615
 1244POPC   C1B20455   2.343  35.237   8.710
 1244POPC   C2B20456   2.276  35.087   8.251
 1244POPC   C3B20457   2.281  35.164   7.792
 1244POPC   C4B20458   2.216  35.192   7.305
 1245POPC   NC320459  13.415  24.872   9.488
 1245POPC   PO420460  13.994  25.267   9.510
 1245POPC   GL120461  13.806  25.053   9.203
 1245POPC   GL220462  13.500  25.230   9.136
 1245POPC   C1A20463  13.877  25.063   8.801
 1245POPC   D2A20464  14.040  25.377   8.506
 1245POPC   C3A20465  13.914  25.419   8.085
 1245POPC   C4A20466  14.020  25.278   7.722
 1245POPC   C1B20467  13.562  25.481   8.774
 1245POPC   C2B20468  13.261  25.492   8.430
 1245POPC   C3B20469  13.237  25.260   8.084
 1245POPC   C4B20470  13.501  25.389   7.792
 1246POPC   NC320471  19.636   1.743   9.478
 1246POPC   PO420472  20.130   2.108   9.495
 1246POPC   GL120473  19.970   1.941   9.106
 1246POPC   GL220474  20.072   1.609   9.201
 1246POPC   C1A20475  19.691   1.969   8.682
 1246POPC   D2A20476  19.674   1.869   8.210
 1246POPC   C3A20477  19.635   2.069   7.784
 1246POPC   C4A20478  19.623   1.945   7.327
 1246POPC   C1B20479  19.967   1.564   8.777
 1246POPC   C2B20480  20.058   1.522   8.370
 1246POPC   C3B20481  20.084   1.720   7.958
 1246POPC   C4B20482  20.112   1.821   7.524
 1247POPC   NC320483  33.490  22.607   9.494
 1247POPC   PO420484  33.770  23.292   9.603
 1247POPC   GL120485  33.887  23.038   9.225
 1247POPC   GL220486  33.552  23.000   9.175
 1247POPC   C1A20487  34.117  22.916   8.822
 1247POPC   D2A20488  33.975  22.827   8.378
 1247POPC   C3A20489  34.182  22.806   7.984
 1247POPC   C4A20490  33.982  22.931   7.613
 1247POPC   C1B20491  33.628  22.819   8.782
 1247POPC   C2B20492  33.502  22.655   8.391
 1247POPC   C3B20493  33.618  22.837   7.971
 1247POPC   C4B20494  33.478  23.005   7.539
 1248POPC   NC320495  14.136  15.897   9.490
 1248POPC   PO420496  14.804  16.237   9.524
 1248POPC   GL120497  14.595  16.067   9.175
 1248POPC   GL220498  14.277  16.255   9.141
 1248POPC   C1A20499  14.405  15.880   8.818
 1248POPC   D2A20500  14.300  16.040   8.428
 1248POPC   C3A20501  14.456  15.890   8.046
 1248POPC   C4A20502  14.555  15.710   7.659
 1248POPC   C1B20503  13.991  16.227   8.792
 1248POPC   C2B20504  13.853  16.317   8.380
 1248POPC   C3B20505  14.082  16.237   7.999
 1248POPC   C4B20506  14.277  16.140   7.591
 1249POPC   NC320507  25.889  32.140   9.489
 1249POPC   PO420508  26.107  32.783   9.552
 1249POPC   GL120509  26.090  32.505   9.164
 1249POPC   GL220510  26.216  32.147   9.101
 1249POPC   C1A20511  25.959  32.431   8.730
 1249POPC   D2A20512  26.116  32.662   8.355
 1249POPC   C3A20513  26.131  32.455   7.993
 1249POPC   C4A20514  25.786  32.263   7.885
 1249POPC   C1B20515  26.370  31.832   8.797
 1249POPC   C2B20516  26.236  31.755   8.356
 1249POPC   C3B20517  26.155  31.913   7.907
 1249POPC   C4B20518  26.258  32.167   7.509
 1250POPC   NC320519   1.452  39.149   9.497
 1250POPC   PO420520   0.793  38.939   9.261
 1250POPC   GL120521   1.114  39.287   9.127
 1250POPC   GL220522   1.463  39.367   9.054
 1250POPC   C1A20523   1.050  39.382   8.730
 1250POPC   D2A20524   0.701  39.510   8.451
 1250POPC   C3A20525   0.830  39.609   8.032
 1250POPC   C4A20526   1.097  39.370   7.745
 1250POPC   C1B20527   1.674  39.438   8.713
 1250POPC   C2B20528   1.698  39.245   8.361
 1250POPC   C3B20529   1.540  39.078   7.989
 1250POPC   C4B20530   1.673  39.101   7.538
 1251POPC   NC320531   3.968   4.341   9.569
 1251POPC   PO420532   3.473   3.968   9.685
 1251POPC   GL120533   3.459   4.328   9.338
 1251POPC   GL220534   3.751   4.476   9.146
 1251POPC   C1A20535   3.336   4.320   8.878
 1251POPC   D2A20536   3.354   4.188   8.431
 1251POPC   C3A20537   3.185   4.379   8.050
 1251POPC   C4A20538   3.347   4.406   7.620
 1251POPC   C1B20539   3.844   4.336   8.744
 1251POPC   C2B20540   3.862   4.161   8.348
 1251POPC   C3B20541   3.707   4.316   7.966
 1251POPC   C4B20542   3.863   4.535   7.596
 1252POPC   NC320543  22.693  20.181   9.508
 1252POPC   PO420544  22.518  19.489   9.616
 1252POPC   GL120545  22.791  19.705   9.243
 1252POPC   GL220546  23.126  19.884   9.078
 1252POPC   C1A20547  22.734  19.754   8.784
 1252POPC   D2A20548  22.525  19.844   8.385
 1252POPC   C3A20549  22.810  19.733   8.088
 1252POPC   C4A20550  22.876  19.707   7.671
 1252POPC   C1B20551  23.112  20.071   8.672
 1252POPC   C2B20552  23.186  20.050   8.252
 1252POPC   C3B20553  23.022  20.159   7.875
 1252POPC   C4B20554  23.088  20.129   7.428
 1253POPC   NC320555  26.424  20.431   9.551
 1253POPC   PO420556  27.112  20.323   9.402
 1253POPC   GL120557  26.891  20.507   9.048
 1253POPC   GL220558  26.620  20.773   9.077
 1253POPC   C1A20559  26.747  20.555   8.607
 1253POPC   D2A20560  26.552  20.479   8.204
 1253POPC   C3A20561  26.933  20.484   7.923
 1253POPC   C4A20562  27.211  20.713   7.669
 1253POPC   C1B20563  26.567  21.048   8.696
 1253POPC   C2B20564  26.691  20.993   8.246
 1253POPC   C3B20565  26.591  20.849   7.840
 1253POPC   C4B20566  26.788  20.890   7.467
 1254POPC   NC320567   3.265  11.105   9.415
 1254POPC   PO420568   3.681  11.566   9.550
 1254POPC   GL120569   3.657  11.346   9.172
 1254POPC   GL220570   3.345  11.483   9.056
 1254POPC   C1A20571   3.748  11.278   8.736
 1254POPC   D2A20572   3.678  11.523   8.352
 1254POPC   C3A20573   3.590  11.298   7.973
 1254POPC   C4A20574   3.778  11.175   7.611
 1254POPC   C1B20575   3.274  11.091   8.777
 1254POPC   C2B20576   3.279  11.110   8.325
 1254POPC   C3B20577   3.256  10.869   7.939
 1254POPC   C4B20578   3.104  10.516   7.687
 1255POPC   NC320579   7.681  41.038   9.364
 1255POPC   PO420580   7.211  41.648   9.459
 1255POPC   GL120581   7.378  41.677   9.047
 1255POPC   GL220582   7.554  41.450   9.142
 1255POPC   C1A20583   7.443  41.876   8.666
 1255POPC   D2A20584   7.563  41.662   8.336
 1255POPC   C3A20585   7.511  41.786   7.914
 1255POPC   C4A20586   7.637  41.659   7.530
 1255POPC   C1B20587   7.535  41.289   8.735
 1255POPC   C2B20588   7.338  41.190   8.383
 1255POPC   C3B20589   7.443  41.296   7.985
 1255POPC   C4B20590   7.191  41.424   7.695
 1256POPC   NC320591  17.918   1.737   9.425
 1256POPC   PO420592  18.202   2.358   9.620
 1256POPC   GL120593  18.172   2.158   9.224
 1256POPC   GL220594  18.425   2.360   9.093
 1256POPC   C1A20595  18.292   1.968   8.816
 1256POPC   D2A20596  18.266   2.190   8.450
 1256POPC   C3A20597  18.210   1.940   8.091
 1256POPC   C4A20598  18.003   1.701   7.775
 1256POPC   C1B20599  18.713   2.298   8.710
 1256POPC   C2B20600  18.754   2.291   8.216
 1256POPC   C3B20601  18.583   2.095   7.795
 1256POPC   C4B20602  18.225   2.109   7.504
 1257POPC   NC320603  26.241  11.106   9.604
 1257POPC   PO420604  25.873  11.657   9.528
 1257POPC   GL120605  25.979  11.397   9.219
 1257POPC   GL220606  26.307  11.427   9.225
 1257POPC   C1A20607  25.888  11.206   8.815
 1257POPC   D2A20608  26.041  11.070   8.449
 1257POPC   C3A20609  25.815  11.267   8.163
 1257POPC   C4A20610  25.833  11.274   7.767
 1257POPC   C1B20611  26.332  11.460   8.820
 1257POPC   C2B20612  26.130  11.604   8.471
 1257POPC   C3B20613  26.203  11.570   8.043
 1257POPC   C4B20614  26.252  11.556   7.629
 1258POPC   NC320615  34.229   3.966   9.468
 1258POPC   PO420616  34.661   4.442   9.664
 1258POPC   GL120617  34.568   4.488   9.220
 1258POPC   GL220618  34.530   4.141   9.117
 1258POPC   C1A20619  34.484   4.487   8.759
 1258POPC   D2A20620  34.262   4.465   8.404
 1258POPC   C3A20621  34.522   4.483   8.074
 1258POPC   C4A20622  34.521   4.301   7.695
 1258POPC   C1B20623  34.591   3.925   8.759
 1258POPC   C2B20624  34.537   3.896   8.376
 1258POPC   C3B20625  34.764   3.973   8.027
 1258POPC   C4B20626  34.908   4.007   7.620
 1259POPC   NC320627  25.640  29.330   9.652
 1259POPC   PO420628  26.216  28.956   9.664
 1259POPC   GL120629  26.094  29.234   9.336
 1259POPC   GL220630  26.389  29.320   9.125
 1259POPC   C1A20631  25.899  29.250   8.914
 1259POPC   D2A20632  25.895  29.342   8.448
 1259POPC   C3A20633  25.878  29.015   8.115
 1259POPC   C4A20634  25.653  28.803   7.803
 1259POPC   C1B20635  26.375  29.118   8.733
 1259POPC   C2B20636  26.354  28.997   8.297
 1259POPC   C3B20637  26.314  29.252   7.910
 1259POPC   C4B20638  25.988  29.591   7.914
 1260POPC   NC320639  30.848  15.783   9.602
 1260POPC   PO420640  30.426  16.151   9.546
 1260POPC   GL120641  30.745  16.082   9.178
 1260POPC   GL220642  30.953  15.774   9.086
 1260POPC   C1A20643  30.804  16.088   8.712
 1260POPC   D2A20644  30.590  15.939   8.337
 1260POPC   C3A20645  30.627  16.174   7.956
 1260POPC   C4A20646  30.856  16.101   7.572
 1260POPC   C1B20647  30.750  15.570   8.712
 1260POPC   C2B20648  30.709  15.441   8.273
 1260POPC   C3B20649  30.699  15.670   7.855
 1260POPC   C4B20650  30.759  15.581   7.406
 1261POPC   NC320651  41.349  42.350   9.209
 1261POPC   PO420652  41.802  42.789   9.433
 1261POPC   GL120653  41.813  42.555   9.050
 1261POPC   GL220654  41.825  42.204   9.052
 1261POPC   C1A20655  41.960  42.572   8.616
 1261POPC   D2A20656  41.869  42.920   8.364
 1261POPC   C3A20657  41.720  42.806   7.983
 1261POPC   C4A20658  41.809  42.540   7.676
 1261POPC   C1B20659  41.603  42.219   8.639
 1261POPC   C2B20660  41.580  42.378   8.225
 1261POPC   C3B20661  41.575  42.117   7.844
 1261POPC   C4B20662  41.586  42.195   7.367
 1262POPC   NC320663   0.747   3.109   9.500
 1262POPC   PO420664   1.360   2.831   9.657
 1262POPC   GL120665   1.196   2.806   9.239
 1262POPC   GL220666   0.872   2.740   9.110
 1262POPC   C1A20667   1.277   2.680   8.807
 1262POPC   D2A20668   1.080   2.698   8.416
 1262POPC   C3A20669   1.296   2.539   8.030
 1262POPC   C4A20670   1.605   2.610   7.657
 1262POPC   C1B20671   0.862   3.069   8.787
 1262POPC   C2B20672   0.817   3.152   8.323
 1262POPC   C3B20673   1.024   2.969   7.959
 1262POPC   C4B20674   1.301   3.010   7.574
 1263POPC   NC320675  17.001   0.386   9.598
 1263POPC   PO420676  17.571   0.610   9.494
 1263POPC   GL120677  17.221   0.634   9.213
 1263POPC   GL220678  17.226   0.298   9.105
 1263POPC   C1A20679  17.241   0.754   8.822
 1263POPC   D2A20680  17.445   0.511   8.505
 1263POPC   C3A20681  17.445   0.764   8.167
 1263POPC   C4A20682  17.223   0.729   7.806
 1263POPC   C1B20683  17.324   0.038   8.737
 1263POPC   C2B20684  17.370   0.046   8.274
 1263POPC   C3B20685  17.504   0.287   7.929
 1263POPC   C4B20686  17.847   0.314   7.645
 1264POPC   NC320687  34.831  43.048   9.675
 1264POPC   PO420688  34.281  43.327   9.388
 1264POPC   GL120689  34.436  43.155   9.076
 1264POPC   GL220690  34.551  42.867   9.283
 1264POPC   C1A20691  34.246  43.071   8.675
 1264POPC   D2A20692  34.291  43.010   8.220
 1264POPC   C3A20693  34.432  43.301   7.946
 1264POPC   C4A20694  34.511  43.038   7.635
 1264POPC   C1B20695  34.718  42.794   8.869
 1264POPC   C2B20696  34.725  43.035   8.481
 1264POPC   C3B20697  34.832  42.985   8.047
 1264POPC   C4B20698  34.989  43.296   7.737
 1265POPC   NC320699  16.562   6.281   9.481
 1265POPC   PO420700  16.837   6.902   9.494
 1265POPC   GL120701  16.532   6.759   9.141
 1265POPC   GL220702  16.627   6.467   9.032
 1265POPC   C1A20703  16.425   6.759   8.664
 1265POPC   D2A20704  16.456   6.952   8.224
 1265POPC   C3A20705  16.615   6.712   7.855
 1265POPC   C4A20706  16.601   6.774   7.405
 1265POPC   C1B20707  16.827   6.419   8.684
 1265POPC   C2B20708  16.709   6.465   8.289
 1265POPC   C3B20709  16.879   6.265   7.935
 1265POPC   C4B20710  16.981   6.442   7.555
 1266POPC   NC320711  16.243  27.293   9.370
 1266POPC   PO420712  16.816  27.721   9.424
 1266POPC   GL120713  16.837  27.757   9.014
 1266POPC   GL220714  17.158  27.818   8.986
 1266POPC   C1A20715  16.761  27.638   8.589
 1266POPC   D2A20716  16.540  27.309   8.343
 1266POPC   C3A20717  16.707  27.374   7.954
 1266POPC   C4A20718  16.675  27.723   7.714
 1266POPC   C1B20719  17.245  27.887   8.529
 1266POPC   C2B20720  17.001  27.870   8.138
 1266POPC   C3B20721  17.058  28.033   7.707
 1266POPC   C4B20722  16.964  27.848   7.287
 1267POPC   NC320723  11.972   4.121   9.638
 1267POPC   PO420724  12.377   4.697   9.563
 1267POPC   GL120725  12.103   4.460   9.218
 1267POPC   GL220726  11.890   4.109   9.147
 1267POPC   C1A20727  12.190   4.303   8.785
 1267POPC   D2A20728  11.985   4.395   8.392
 1267POPC   C3A20729  12.286   4.616   8.122
 1267POPC   C4A20730  12.513   4.562   7.737
 1267POPC   C1B20731  11.910   3.888   8.715
 1267POPC   C2B20732  12.218   3.948   8.342
 1267POPC   C3B20733  12.126   4.164   7.931
 1267POPC   C4B20734  11.820   4.117   7.551
 1268POPC   NC320735   7.011  30.393   9.744
 1268POPC   PO420736   6.495  30.023   9.405
 1268POPC   GL120737   6.478  29.906   9.042
 1268POPC   GL220738   6.420  29.559   9.096
 1268POPC   C1A20739   6.632  30.087   8.630
 1268POPC   D2A20740   6.900  30.313   8.310
 1268POPC   C3A20741   6.864  30.109   7.895
 1268POPC   C4A20742   6.502  29.998   7.581
 1268POPC   C1B20743   6.318  29.657   8.646
 1268POPC   C2B20744   6.470  29.771   8.205
 1268POPC   C3B20745   6.294  29.572   7.820
 1268POPC   C4B20746   6.377  29.484   7.367
 1269POPC   NC320747   9.256  38.432   9.417
 1269POPC   PO420748   8.651  38.699   9.361
 1269POPC   GL120749   8.865  38.449   9.053
 1269POPC   GL220750   9.211  38.297   8.948
 1269POPC   C1A20751   8.841  38.235   8.633
 1269POPC   D2A20752   9.253  38.309   8.422
 1269POPC   C3A20753   9.190  38.304   7.993
 1269POPC   C4A20754   8.759  38.348   7.777
 1269POPC   C1B20755   9.108  38.711   8.706
 1269POPC   C2B20756   9.118  39.052   8.405
 1269POPC   C3B20757   8.949  38.927   8.050
 1269POPC   C4B20758   9.078  38.729   7.748
 1270POPC   NC320759  39.337  34.820   9.375
 1270POPC   PO420760  39.174  34.165   9.488
 1270POPC   GL120761  39.320  34.307   9.136
 1270POPC   GL220762  39.659  34.180   9.199
 1270POPC   C1A20763  39.162  34.452   8.709
 1270POPC   D2A20764  38.945  34.389   8.291
 1270POPC   C3A20765  39.028  34.751   7.959
 1270POPC   C4A20766  39.024  34.790   7.471
 1270POPC   C1B20767  39.613  34.156   8.749
 1270POPC   C2B20768  39.576  34.221   8.310
 1270POPC   C3B20769  39.620  34.324   7.888
 1270POPC   C4B20770  39.488  34.732   7.702
 1271POPC   NC320771  19.154  18.016   9.616
 1271POPC   PO420772  18.670  18.410   9.478
 1271POPC   GL120773  18.926  18.180   9.195
 1271POPC   GL220774  19.258  18.360   9.198
 1271POPC   C1A20775  18.825  18.044   8.804
 1271POPC   D2A20776  18.945  18.188   8.432
 1271POPC   C3A20777  18.971  17.982   8.062
 1271POPC   C4A20778  19.079  18.289   7.773
 1271POPC   C1B20779  19.006  18.530   8.824
 1271POPC   C2B20780  18.854  18.708   8.398
 1271POPC   C3B20781  18.966  18.779   7.952
 1271POPC   C4B20782  19.308  18.730   7.634
 1272POPC   NC320783  13.966   7.410   9.382
 1272POPC   PO420784  14.600   7.372   9.535
 1272POPC   GL120785  14.429   7.644   9.227
 1272POPC   GL220786  14.354   7.377   9.059
 1272POPC   C1A20787  14.462   7.787   8.806
 1272POPC   D2A20788  14.308   7.643   8.437
 1272POPC   C3A20789  14.455   7.865   8.072
 1272POPC   C4A20790  14.396   7.562   7.747
 1272POPC   C1B20791  14.290   7.204   8.705
 1272POPC   C2B20792  14.130   7.016   8.384
 1272POPC   C3B20793  14.018   7.118   8.002
 1272POPC   C4B20794  14.267   7.092   7.680
 1273POPC   NC320795  21.772  27.451   9.379
 1273POPC   PO420796  21.118  27.600   9.563
 1273POPC   GL120797  21.325  27.644   9.177
 1273POPC   GL220798  21.341  27.297   9.091
 1273POPC   C1A20799  21.205  27.744   8.775
 1273POPC   D2A20800  21.329  27.711   8.381
 1273POPC   C3A20801  21.131  27.905   8.078
 1273POPC   C4A20802  21.365  27.950   7.713
 1273POPC   C1B20803  21.620  27.437   8.758
 1273POPC   C2B20804  21.796  27.460   8.362
 1273POPC   C3B20805  21.626  27.567   7.963
 1273POPC   C4B20806  21.314  27.421   7.692
 1274POPC   NC320807  41.043  38.851   9.523
 1274POPC   PO420808  40.691  39.497   9.517
 1274POPC   GL120809  40.756  39.183   9.261
 1274POPC   GL220810  41.102  39.264   9.185
 1274POPC   C1A20811  40.773  39.042   8.858
 1274POPC   D2A20812  40.648  39.271   8.524
 1274POPC   C3A20813  40.422  39.047   8.250
 1274POPC   C4A20814  40.363  38.993   7.797
 1274POPC   C1B20815  41.035  39.499   8.785
 1274POPC   C2B20816  41.136  39.436   8.326
 1274POPC   C3B20817  41.116  39.308   7.866
 1274POPC   C4B20818  41.202  39.429   7.411
 1275POPC   NC320819  20.231  31.471   9.528
 1275POPC   PO420820  19.677  31.810   9.527
 1275POPC   GL120821  19.817  31.555   9.182
 1275POPC   GL220822  20.125  31.762   9.126
 1275POPC   C1A20823  19.654  31.355   8.747
 1275POPC   D2A20824  19.603  31.288   8.300
 1275POPC   C3A20825  19.860  31.374   7.928
 1275POPC   C4A20826  19.507  31.509   7.654
 1275POPC   C1B20827  20.138  31.442   8.816
 1275POPC   C2B20828  20.041  31.606   8.398
 1275POPC   C3B20829  20.200  31.862   8.090
 1275POPC   C4B20830  20.279  31.775   7.694
 1276POPC   NC320831  35.631  43.579   9.349
 1276POPC   PO420832  35.992  43.045   9.603
 1276POPC   GL120833  36.253  43.052   9.200
 1276POPC   GL220834  36.352  42.750   9.021
 1276POPC   C1A20835  36.252  43.173   8.728
 1276POPC   D2A20836  36.382  43.155   8.284
 1276POPC   C3A20837  36.112  43.301   7.885
 1276POPC   C4A20838  35.861  43.263   7.489
 1276POPC   C1B20839  35.899  42.820   8.888
 1276POPC   C2B20840  35.682  42.983   8.529
 1276POPC   C3B20841  35.909  42.929   8.149
 1276POPC   C4B20842  35.952  42.812   7.707
 1277POPC   NC320843  12.767  44.406   9.727
 1277POPC   PO420844  13.077   0.035   9.596
 1277POPC   GL120845  12.998  44.705   9.237
 1277POPC   GL220846  12.895  44.349   9.232
 1277POPC   C1A20847  12.759  44.611   8.828
 1277POPC   D2A20848  12.496  44.559   8.460
 1277POPC   C3A20849  12.732  44.590   8.081
 1277POPC   C4A20850  12.751  44.759   7.684
 1277POPC   C1B20851  12.905  44.107   8.853
 1277POPC   C2B20852  12.946  44.255   8.449
 1277POPC   C3B20853  12.788  44.088   8.073
 1277POPC   C4B20854  12.800  44.243   7.664
 1278POPC   NC320855   3.568  13.511   9.534
 1278POPC   PO420856   3.939  13.073   9.174
 1278POPC   GL120857   3.587  13.391   9.041
 1278POPC   GL220858   3.596  13.786   9.107
 1278POPC   C1A20859   3.414  13.574   8.664
 1278POPC   D2A20860   3.504  13.388   8.262
 1278POPC   C3A20861   3.604  13.607   7.888
 1278POPC   C4A20862   3.870  13.512   7.543
 1278POPC   C1B20863   3.636  14.036   8.745
 1278POPC   C2B20864   3.639  13.895   8.342
 1278POPC   C3B20865   3.788  14.070   8.022
 1278POPC   C4B20866   3.899  14.009   7.639
 1279POPC   NC320867  39.030  10.469   9.296
 1279POPC   PO420868  39.515  10.838   9.370
 1279POPC   GL120869  39.409  10.878   8.967
 1279POPC   GL220870  39.360  10.508   8.900
 1279POPC   C1A20871  39.475  10.804   8.527
 1279POPC   D2A20872  39.224  10.558   8.249
 1279POPC   C3A20873  38.998  10.742   7.901
 1279POPC   C4A20874  38.898  10.526   7.522
 1279POPC   C1B20875  38.946  10.371   8.672
 1279POPC   C2B20876  38.605  10.235   8.383
 1279POPC   C3B20877  38.798  10.290   7.977
 1279POPC   C4B20878  39.267  10.302   7.799
 1280POPC   NC320879  37.469  29.363   9.635
 1280POPC   PO420880  37.737  28.658   9.444
 1280POPC   GL120881  37.644  28.957   9.096
 1280POPC   GL220882  37.640  29.292   9.150
 1280POPC   C1A20883  37.527  28.979   8.683
 1280POPC   D2A20884  37.536  29.191   8.291
 1280POPC   C3A20885  37.795  29.042   7.962
 1280POPC   C4A20886  37.722  28.801   7.586
 1280POPC   C1B20887  37.756  29.445   8.747
 1280POPC   C2B20888  37.901  29.550   8.312
 1280POPC   C3B20889  37.751  29.553   7.891
 1280POPC   C4B20890  37.692  29.316   7.497
 1281POPC   NC320891  17.991  38.982   9.818
 1281POPC   PO420892  18.537  39.388   9.656
 1281POPC   GL120893  18.405  39.564   9.219
 1281POPC   GL220894  18.056  39.467   9.149
 1281POPC   C1A20895  18.349  39.525   8.765
 1281POPC   D2A20896  18.287  39.326   8.377
 1281POPC   C3A20897  18.222  39.543   8.001
 1281POPC   C4A20898  18.119  39.674   7.596
 1281POPC   C1B20899  18.051  39.105   8.786
 1281POPC   C2B20900  18.044  38.843   8.405
 1281POPC   C3B20901  18.104  39.028   7.991
 1281POPC   C4B20902  18.482  39.155   7.785
 1282POPC   NC320903  35.205  26.929   9.610
 1282POPC   PO420904  34.585  27.229   9.654
 1282POPC   GL120905  34.700  27.018   9.252
 1282POPC   GL220906  35.013  27.182   9.169
 1282POPC   C1A20907  34.730  26.724   8.860
 1282POPC   D2A20908  34.899  26.627   8.418
 1282POPC   C3A20909  34.653  26.649   8.041
 1282POPC   C4A20910  34.415  26.527   7.646
 1282POPC   C1B20911  34.781  27.215   8.772
 1282POPC   C2B20912  34.558  27.028   8.428
 1282POPC   C3B20913  34.368  27.047   8.040
 1282POPC   C4B20914  34.570  27.014   7.632
 1283POPC   NC320915  10.953  26.412   9.377
 1283POPC   PO420916  10.462  26.803   9.706
 1283POPC   GL120917  10.434  26.923   9.240
 1283POPC   GL220918  10.787  27.006   9.161
 1283POPC   C1A20919  10.370  26.819   8.805
 1283POPC   D2A20920  10.161  26.553   8.521
 1283POPC   C3A20921  10.241  26.652   8.122
 1283POPC   C4A20922  10.431  26.841   7.786
 1283POPC   C1B20923  10.755  27.151   8.767
 1283POPC   C2B20924  10.818  26.914   8.419
 1283POPC   C3B20925  10.906  26.904   8.009
 1283POPC   C4B20926  10.778  27.231   7.765
 1284POPC   NC320927  22.172  13.286   9.815
 1284POPC   PO420928  22.103  13.932   9.566
 1284POPC   GL120929  22.152  13.554   9.267
 1284POPC   GL220930  22.392  13.739   9.102
 1284POPC   C1A20931  22.203  13.376   8.802
 1284POPC   D2A20932  22.353  13.315   8.372
 1284POPC   C3A20933  22.083  13.375   7.992
 1284POPC   C4A20934  22.231  13.324   7.572
 1284POPC   C1B20935  22.054  13.873   8.838
 1284POPC   C2B20936  21.918  13.679   8.450
 1284POPC   C3B20937  21.784  13.811   8.052
 1284POPC   C4B20938  22.036  13.831   7.709
 1285POPC   NC320939  41.305  24.225   9.677
 1285POPC   PO420940  40.758  24.465   9.538
 1285POPC   GL120941  40.723  24.625   9.161
 1285POPC   GL220942  41.013  24.452   9.083
 1285POPC   C1A20943  40.529  24.467   8.782
 1285POPC   D2A20944  40.453  24.191   8.431
 1285POPC   C3A20945  40.601  24.453   8.105
 1285POPC   C4A20946  40.663  24.619   7.703
 1285POPC   C1B20947  40.963  24.748   8.735
 1285POPC   C2B20948  41.059  24.654   8.309
 1285POPC   C3B20949  41.136  24.698   7.871
 1285POPC   C4B20950  41.099  24.547   7.449
 1286POPC   NC320951  40.872  31.888   9.638
 1286POPC   PO420952  41.162  32.477   9.530
 1286POPC   GL120953  40.898  32.279   9.250
 1286POPC   GL220954  41.067  31.994   9.186
 1286POPC   C1A20955  40.737  32.261   8.818
 1286POPC   D2A20956  40.977  32.266   8.432
 1286POPC   C3A20957  40.831  32.423   8.043
 1286POPC   C4A20958  41.006  32.496   7.632
 1286POPC   C1B20959  41.193  31.903   8.782
 1286POPC   C2B20960  40.989  31.746   8.434
 1286POPC   C3B20961  40.905  31.906   8.065
 1286POPC   C4B20962  40.766  32.043   7.668
 1287POPC   NC320963   0.130  39.702   9.384
 1287POPC   PO420964  44.549  39.932   9.497
 1287POPC   GL120965  44.596  39.962   9.084
 1287POPC   GL220966  44.930  39.888   8.958
 1287POPC   C1A20967  44.540  40.038   8.665
 1287POPC   D2A20968  44.548  39.880   8.275
 1287POPC   C3A20969  44.345  40.202   8.046
 1287POPC   C4A20970  44.380  39.988   7.711
 1287POPC   C1B20971   0.028  40.164   8.629
 1287POPC   C2B20972  44.805  40.309   8.277
 1287POPC   C3B20973  44.833  40.186   7.845
 1287POPC   C4B20974  44.979  39.993   7.461
 1288POPC   NC320975  14.767   7.884   9.521
 1288POPC   PO420976  14.107   7.929   9.509
 1288POPC   GL120977  14.255   8.146   9.142
 1288POPC   GL220978  14.593   8.162   9.112
 1288POPC   C1A20979  14.280   8.252   8.695
 1288POPC   D2A20980  14.016   8.048   8.395
 1288POPC   C3A20981  13.970   8.183   7.996
 1288POPC   C4A20982  14.137   7.983   7.669
 1288POPC   C1B20983  14.781   8.479   8.811
 1288POPC   C2B20984  14.914   8.544   8.372
 1288POPC   C3B20985  14.639   8.483   8.037
 1288POPC   C4B20986  14.341   8.437   7.745
 1289POPC   NC320987  28.887  23.655   9.447
 1289POPC   PO420988  29.498  23.351   9.339
 1289POPC   GL120989  29.310  23.533   8.929
 1289POPC   GL220990  29.041  23.776   8.962
 1289POPC   C1A20991  29.119  23.585   8.504
 1289POPC   D2A20992  29.069  23.868   8.173
 1289POPC   C3A20993  29.158  23.720   7.781
 1289POPC   C4A20994  29.485  23.864   7.481
 1289POPC   C1B20995  28.790  24.004   8.602
 1289POPC   C2B20996  28.712  24.211   8.199
 1289POPC   C3B20997  28.773  24.078   7.749
 1289POPC   C4B20998  28.574  24.182   7.325
 1290POPC   NC320999   7.841  28.047   9.418
 1290POPC   PO421000   8.495  28.127   9.525
 1290POPC   GL121001   8.389  28.330   9.124
 1290POPC   GL221002   8.045  28.371   9.074
 1290POPC   C1A21003   8.394  28.471   8.687
 1290POPC   D2A21004   8.190  28.405   8.309
 1290POPC   C3A21005   8.350  28.240   7.933
 1290POPC   C4A21006   8.211  28.251   7.482
 1290POPC   C1B21007   7.886  28.278   8.702
 1290POPC   C2B21008   7.670  28.302   8.342
 1290POPC   C3B21009   7.864  28.359   7.928
 1290POPC   C4B21010   7.744  28.430   7.530
 1291POPC   NC321011   7.836   6.802   9.305
 1291POPC   PO421012   8.171   6.317   9.700
 1291POPC   GL121013   8.203   6.466   9.187
 1291POPC   GL221014   7.903   6.479   8.933
 1291POPC   C1A21015   8.350   6.652   8.785
 1291POPC   D2A21016   8.432   6.446   8.380
 1291POPC   C3A21017   8.308   6.639   7.962
 1291POPC   C4A21018   8.390   6.485   7.528
 1291POPC   C1B21019   7.895   6.854   8.676
 1291POPC   C2B21020   7.740   6.969   8.321
 1291POPC   C3B21021   7.906   7.068   7.923
 1291POPC   C4B21022   7.595   7.096   7.584
 1292POPC   NC321023  42.257  26.500   9.541
 1292POPC   PO421024  42.652  27.092   9.520
 1292POPC   GL121025  42.389  26.746   9.116
 1292POPC   GL221026  42.090  26.919   8.926
 1292POPC   C1A21027  42.071  26.435   8.836
 1292POPC   D2A21028  41.862  26.333   8.412
 1292POPC   C3A21029  42.022  26.547   8.018
 1292POPC   C4A21030  42.292  26.603   7.656
 1292POPC   C1B21031  42.369  27.170   8.665
 1292POPC   C2B21032  42.284  27.277   8.288
 1292POPC   C3B21033  42.459  27.037   7.939
 1292POPC   C4B21034  42.608  27.317   7.671
 1293POPC   NC321035  40.488  42.771   9.468
 1293POPC   PO421036  41.217  42.687   9.492
 1293POPC   GL121037  40.838  42.495   9.208
 1293POPC   GL221038  40.700  42.170   9.145
 1293POPC   C1A21039  40.531  42.497   8.821
 1293POPC   D2A21040  40.541  42.107   8.495
 1293POPC   C3A21041  40.428  42.234   8.076
 1293POPC   C4A21042  40.661  42.334   7.688
 1293POPC   C1B21043  40.947  42.223   8.761
 1293POPC   C2B21044  41.135  42.177   8.376
 1293POPC   C3B21045  41.108  42.337   7.983
 1293POPC   C4B21046  41.125  42.158   7.573
 1294POPC   NC321047  18.610  37.241   9.506
 1294POPC   PO421048  18.006  37.045   9.371
 1294POPC   GL121049  18.317  37.016   9.161
 1294POPC   GL221050  18.070  36.914   8.892
 1294POPC   C1A21051  18.519  37.109   8.809
 1294POPC   D2A21052  18.457  36.794   8.515
 1294POPC   C3A21053  18.535  36.874   8.098
 1294POPC   C4A21054  18.242  36.891   7.743
 1294POPC   C1B21055  18.003  36.555   8.710
 1294POPC   C2B21056  17.932  36.353   8.373
 1294POPC   C3B21057  17.985  36.607   8.066
 1294POPC   C4B21058  17.835  36.574   7.689
 1295POPC   NC321059  35.487   2.204   9.501
 1295POPC   PO421060  35.196   1.522   9.495
 1295POPC   GL121061  35.495   1.779   9.226
 1295POPC   GL221062  35.257   2.012   9.060
 1295POPC   C1A21063  35.653   1.708   8.810
 1295POPC   D2A21064  35.348   1.857   8.504
 1295POPC   C3A21065  35.196   1.750   8.112
 1295POPC   C4A21066  35.252   1.940   7.717
 1295POPC   C1B21067  35.117   2.256   8.688
 1295POPC   C2B21068  35.252   2.361   8.292
 1295POPC   C3B21069  35.553   2.145   8.055
 1295POPC   C4B21070  35.728   2.220   7.625
 1296POPC   NC321071  17.045   8.955   9.457
 1296POPC   PO421072  16.410   9.205   9.342
 1296POPC   GL121073  16.686   8.925   9.085
 1296POPC   GL221074  17.055   9.040   8.969
 1296POPC   C1A21075  16.819   8.671   8.744
 1296POPC   D2A21076  16.886   8.914   8.411
 1296POPC   C3A21077  16.787   8.711   8.074
 1296POPC   C4A21078  16.840   8.811   7.664
 1296POPC   C1B21079  16.997   9.361   8.665
 1296POPC   C2B21080  16.795   9.437   8.286
 1296POPC   C3B21081  16.981   9.193   7.959
 1296POPC   C4B21082  17.026   9.270   7.498
 1297POPC   NC321083  23.285  39.438   9.627
 1297POPC   PO421084  22.747  39.063   9.721
 1297POPC   GL121085  22.881  39.017   9.261
 1297POPC   GL221086  22.951  39.345   9.204
 1297POPC   C1A21087  23.066  39.008   8.810
 1297POPC   D2A21088  23.015  38.841   8.385
 1297POPC   C3A21089  23.075  39.020   7.982
 1297POPC   C4A21090  22.727  38.993   7.704
 1297POPC   C1B21091  23.050  39.531   8.799
 1297POPC   C2B21092  23.165  39.442   8.355
 1297POPC   C3B21093  23.096  39.542   7.889
 1297POPC   C4B21094  22.893  39.411   7.494
 1298POPC   NC321095  34.039   1.522   9.507
 1298POPC   PO421096  33.519   2.150   9.513
 1298POPC   GL121097  33.731   2.030   9.165
 1298POPC   GL221098  33.618   1.685   9.143
 1298POPC   C1A21099  33.821   2.240   8.766
 1298POPC   D2A21100  33.806   2.065   8.342
 1298POPC   C3A21101  33.578   2.223   7.993
 1298POPC   C4A21102  33.902   2.206   7.676
 1298POPC   C1B21103  33.813   1.725   8.730
 1298POPC   C2B21104  33.730   1.543   8.314
 1298POPC   C3B21105  33.759   1.739   7.904
 1298POPC   C4B21106  33.755   1.746   7.442
 1299POPC   NC321107  42.283  24.147   9.871
 1299POPC   PO421108  41.994  23.813   9.407
 1299POPC   GL121109  42.261  23.925   9.050
 1299POPC   GL221110  42.565  23.806   8.907
 1299POPC   C1A21111  42.095  23.839   8.648
 1299POPC   D2A21112  42.085  23.603   8.265
 1299POPC   C3A21113  42.312  23.866   8.014
 1299POPC   C4A21114  42.689  23.967   7.782
 1299POPC   C1B21115  42.583  23.510   8.572
 1299POPC   C2B21116  42.699  23.558   8.146
 1299POPC   C3B21117  42.534  23.461   7.752
 1299POPC   C4B21118  42.718  23.216   7.415
 1300POPC   NC321119  29.259  18.451   9.756
 1300POPC   PO421120  29.118  19.098   9.457
 1300POPC   GL121121  29.155  19.110   9.078
 1300POPC   GL221122  29.195  19.454   9.066
 1300POPC   C1A21123  28.854  18.982   8.819
 1300POPC   D2A21124  28.635  19.117   8.489
 1300POPC   C3A21125  28.920  19.050   8.160
 1300POPC   C4A21126  28.862  18.962   7.729
 1300POPC   C1B21127  29.063  19.408   8.649
 1300POPC   C2B21128  29.274  19.390   8.284
 1300POPC   C3B21129  29.122  19.448   7.869
 1300POPC   C4B21130  29.235  19.197   7.455
 1301POPC   NC321131  24.993  13.017   9.552
 1301POPC   PO421132  24.982  12.346   9.327
 1301POPC   GL121133  25.123  12.747   9.115
 1301POPC   GL221134  25.206  13.126   9.116
 1301POPC   C1A21135  25.027  12.904   8.710
 1301POPC   D2A21136  25.243  12.825   8.344
 1301POPC   C3A21137  25.116  12.924   7.927
 1301POPC   C4A21138  25.239  12.961   7.477
 1301POPC   C1B21139  25.509  12.991   8.794
 1301POPC   C2B21140  25.672  13.153   8.441
 1301POPC   C3B21141  25.649  12.959   8.053
 1301POPC   C4B21142  25.702  13.058   7.646
 1302POPC   NC321143   7.116   3.180   9.960
 1302POPC   PO421144   7.658   3.338   9.571
 1302POPC   GL121145   7.481   3.625   9.228
 1302POPC   GL221146   7.219   3.408   9.117
 1302POPC   C1A21147   7.340   3.798   8.804
 1302POPC   D2A21148   7.196   3.762   8.385
 1302POPC   C3A21149   7.542   3.623   8.148
 1302POPC   C4A21150   7.745   3.663   7.797
 1302POPC   C1B21151   7.472   3.297   8.732
 1302POPC   C2B21152   7.459   3.133   8.311
 1302POPC   C3B21153   7.142   3.338   8.066
 1302POPC   C4B21154   7.237   3.548   7.680
 1303POPC   NC321155  39.628  26.839   9.612
 1303POPC   PO421156  40.290  26.893   9.402
 1303POPC   GL121157  40.062  26.866   9.057
 1303POPC   GL221158  39.719  26.947   9.050
 1303POPC   C1A21159  40.074  26.765   8.638
 1303POPC   D2A21160  39.878  27.030   8.328
 1303POPC   C3A21161  39.979  26.990   7.897
 1303POPC   C4A21162  40.208  26.662   7.721
 1303POPC   C1B21163  39.569  26.694   8.709
 1303POPC   C2B21164  39.580  26.491   8.343
 1303POPC   C3B21165  39.792  26.489   7.966
 1303POPC   C4B21166  39.662  26.644   7.572
 1304POPC   NC321167  12.003   1.750   9.368
 1304POPC   PO421168  12.050   2.437   9.454
 1304POPC   GL121169  12.002   2.213   9.107
 1304POPC   GL221170  12.326   2.075   9.203
 1304POPC   C1A21171  11.803   2.082   8.718
 1304POPC   D2A21172  11.880   1.736   8.429
 1304POPC   C3A21173  11.760   1.675   7.997
 1304POPC   C4A21174  11.900   1.848   7.571
 1304POPC   C1B21175  12.312   1.965   8.765
 1304POPC   C2B21176  12.197   2.146   8.376
 1304POPC   C3B21177  12.130   2.035   7.975
 1304POPC   C4B21178  12.431   1.837   7.709
 1305POPC   NC321179   6.308  18.666   9.578
 1305POPC   PO421180   6.647  19.240   9.578
 1305POPC   GL121181   6.520  19.239   9.170
 1305POPC   GL221182   6.512  18.871   9.106
 1305POPC   C1A21183   6.684  19.206   8.744
 1305POPC   D2A21184   6.516  18.989   8.405
 1305POPC   C3A21185   6.636  19.157   8.031
 1305POPC   C4A21186   6.783  19.202   7.631
 1305POPC   C1B21187   6.882  18.757   8.809
 1305POPC   C2B21188   7.030  18.949   8.399
 1305POPC   C3B21189   7.045  18.856   7.939
 1305POPC   C4B21190   6.819  18.708   7.553
 1306POPC   NC321191  40.325  28.073   9.655
 1306POPC   PO421192  40.905  28.424   9.508
 1306POPC   GL121193  40.701  28.280   9.167
 1306POPC   GL221194  40.365  28.406   9.231
 1306POPC   C1A21195  40.880  28.237   8.759
 1306POPC   D2A21196  41.174  28.228   8.413
 1306POPC   C3A21197  40.832  28.328   8.101
 1306POPC   C4A21198  40.688  28.445   7.672
 1306POPC   C1B21199  40.367  28.500   8.824
 1306POPC   C2B21200  40.436  28.769   8.486
 1306POPC   C3B21201  40.371  28.696   8.048
 1306POPC   C4B21202  40.264  28.733   7.595
 1307POPC   NC321203  40.789   8.706   9.554
 1307POPC   PO421204  41.147   8.317   9.357
 1307POPC   GL121205  40.738   8.348   9.156
 1307POPC   GL221206  40.708   8.002   9.044
 1307POPC   C1A21207  40.514   8.397   8.734
 1307POPC   D2A21208  40.584   8.163   8.326
 1307POPC   C3A21209  40.500   8.371   7.918
 1307POPC   C4A21210  40.243   8.350   7.524
 1307POPC   C1B21211  40.972   8.185   8.712
 1307POPC   C2B21212  41.102   8.059   8.307
 1307POPC   C3B21213  40.932   8.066   7.871
 1307POPC   C4B21214  40.981   7.941   7.416
 1308POPC   NC321215  39.758  37.725   9.437
 1308POPC   PO421216  40.378  38.017   9.384
 1308POPC   GL121217  40.125  37.787   9.068
 1308POPC   GL221218  40.209  37.467   8.975
 1308POPC   C1A21219  40.015  37.744   8.606
 1308POPC   D2A21220  40.055  37.424   8.301
 1308POPC   C3A21221  40.087  37.582   7.892
 1308POPC   C4A21222  40.394  37.841   7.737
 1308POPC   C1B21223  39.732  37.407   8.838
 1308POPC   C2B21224  39.548  37.525   8.396
 1308POPC   C3B21225  39.604  37.372   7.936
 1308POPC   C4B21226  39.875  37.267   7.541
 1309POPC   NC321227  42.085  41.931   9.417
 1309POPC   PO421228  42.378  41.321   9.445
 1309POPC   GL121229  42.420  41.635   9.121
 1309POPC   GL221230  42.143  41.639   8.996
 1309POPC   C1A21231  42.562  41.796   8.677
 1309POPC   D2A21232  42.648  41.731   8.222
 1309POPC   C3A21233  42.391  41.470   7.927
 1309POPC   C4A21234  42.463  41.694   7.582
 1309POPC   C1B21235  42.242  41.398   8.663
 1309POPC   C2B21236  42.165  41.645   8.336
 1309POPC   C3B21237  41.930  41.689   7.951
 1309POPC   C4B21238  41.996  41.509   7.529
 1310POPC   NC321239  15.572  16.520   9.550
 1310POPC   PO421240  15.121  17.017   9.585
 1310POPC   GL121241  15.357  16.881   9.239
 1310POPC   GL221242  15.182  16.566   9.187
 1310POPC   C1A21243  15.508  16.830   8.808
 1310POPC   D2A21244  15.500  16.570   8.417
 1310POPC   C3A21245  15.424  16.770   8.010
 1310POPC   C4A21246  15.617  16.628   7.579
 1310POPC   C1B21247  15.053  16.549   8.749
 1310POPC   C2B21248  14.969  16.802   8.379
 1310POPC   C3B21249  14.834  16.782   7.953
 1310POPC   C4B21250  15.050  16.913   7.610
 1311POPC   NC321251  42.838   3.004   9.481
 1311POPC   PO421252  42.208   2.702   9.595
 1311POPC   GL121253  42.188   2.673   9.179
 1311POPC   GL221254  42.525   2.725   9.185
 1311POPC   C1A21255  42.137   2.782   8.737
 1311POPC   D2A21256  42.365   2.870   8.390
 1311POPC   C3A21257  42.196   2.777   8.005
 1311POPC   C4A21258  42.467   2.781   7.686
 1311POPC   C1B21259  42.647   2.747   8.813
 1311POPC   C2B21260  42.691   2.480   8.507
 1311POPC   C3B21261  42.625   2.466   8.082
 1311POPC   C4B21262  42.638   2.270   7.696
 1312POPC   NC321263   4.990  19.897   9.619
 1312POPC   PO421264   5.415  20.361   9.518
 1312POPC   GL121265   5.191  20.041   9.166
 1312POPC   GL221266   4.879  19.802   9.132
 1312POPC   C1A21267   5.117  19.955   8.712
 1312POPC   D2A21268   5.292  20.113   8.324
 1312POPC   C3A21269   5.049  20.057   7.977
 1312POPC   C4A21270   5.221  20.156   7.595
 1312POPC   C1B21271   4.822  19.553   8.742
 1312POPC   C2B21272   4.961  19.646   8.305
 1312POPC   C3B21273   4.823  19.525   7.895
 1312POPC   C4B21274   4.842  19.814   7.536
 1313POPC   NC321275  22.474  30.087   9.903
 1313POPC   PO421276  21.939  29.951   9.577
 1313POPC   GL121277  22.108  29.923   9.185
 1313POPC   GL221278  22.364  30.151   9.223
 1313POPC   C1A21279  22.005  29.831   8.756
 1313POPC   D2A21280  21.815  29.869   8.324
 1313POPC   C3A21281  21.905  29.624   7.946
 1313POPC   C4A21282  22.299  29.565   7.699
 1313POPC   C1B21283  22.454  30.249   8.802
 1313POPC   C2B21284  22.412  29.974   8.481
 1313POPC   C3B21285  22.280  29.974   8.068
 1313POPC   C4B21286  22.523  30.024   7.709
 1314POPC   NC321287  11.240  28.442   9.542
 1314POPC   PO421288  11.727  27.995   9.655
 1314POPC   GL121289  11.503  28.107   9.185
 1314POPC   GL221290  11.177  28.057   9.126
 1314POPC   C1A21291  11.434  28.413   8.810
 1314POPC   D2A21292  11.471  28.320   8.356
 1314POPC   C3A21293  11.519  28.577   7.972
 1314POPC   C4A21294  11.294  28.771   7.611
 1314POPC   C1B21295  11.260  27.961   8.700
 1314POPC   C2B21296  11.294  27.847   8.290
 1314POPC   C3B21297  11.250  28.107   7.923
 1314POPC   C4B21298  10.985  28.001   7.582
 1315POPC   NC321299  11.186  24.180   9.433
 1315POPC   PO421300  11.724  24.658   9.366
 1315POPC   GL121301  11.373  24.579   9.139
 1315POPC   GL221302  11.116  24.760   9.296
 1315POPC   C1A21303  11.202  24.319   8.813
 1315POPC   D2A21304  11.225  24.061   8.472
 1315POPC   C3A21305  11.271  24.272   8.085
 1315POPC   C4A21306  11.390  24.087   7.700
 1315POPC   C1B21307  11.061  24.829   8.825
 1315POPC   C2B21308  10.995  24.981   8.385
 1315POPC   C3B21309  10.998  24.787   7.966
 1315POPC   C4B21310  11.322  24.602   7.683
 1316POPC   NC321311  38.134  39.633   9.313
 1316POPC   PO421312  37.705  39.220   9.643
 1316POPC   GL121313  37.722  39.071   9.227
 1316POPC   GL221314  37.353  38.998   9.181
 1316POPC   C1A21315  37.747  39.129   8.777
 1316POPC   D2A21316  37.542  39.026   8.380
 1316POPC   C3A21317  37.758  39.134   7.975
 1316POPC   C4A21318  37.618  39.051   7.535
 1316POPC   C1B21319  37.329  39.410   8.950
 1316POPC   C2B21320  37.281  39.487   8.501
 1316POPC   C3B21321  37.551  39.550   8.172
 1316POPC   C4B21322  37.543  39.600   7.738
 1317POPC   NC321323  13.224   0.383   9.308
 1317POPC   PO421324  12.655   0.626   9.601
 1317POPC   GL121325  12.545   0.550   9.172
 1317POPC   GL221326  12.849   0.359   8.969
 1317POPC   C1A21327  12.533   0.698   8.762
 1317POPC   D2A21328  12.855   0.640   8.474
 1317POPC   C3A21329  12.656   0.555   8.067
 1317POPC   C4A21330  12.548   0.260   7.703
 1317POPC   C1B21331  13.135  44.972   8.821
 1317POPC   C2B21332  13.086  44.761   8.425
 1317POPC   C3B21333  13.162  44.914   7.990
 1317POPC   C4B21334  13.327  44.966   7.574
 1318POPC   NC321335  42.588   9.441   9.566
 1318POPC   PO421336  42.655   8.776   9.471
 1318POPC   GL121337  42.351   9.053   9.243
 1318POPC   GL221338  42.477   9.330   9.087
 1318POPC   C1A21339  42.173   9.010   8.810
 1318POPC   D2A21340  42.328   9.013   8.363
 1318POPC   C3A21341  42.215   8.765   7.976
 1318POPC   C4A21342  42.148   8.575   7.530
 1318POPC   C1B21343  42.684   9.099   8.758
 1318POPC   C2B21344  42.814   9.201   8.325
 1318POPC   C3B21345  42.588   9.132   7.918
 1318POPC   C4B21346  42.412   9.488   7.662
 1319POPC   NC321347  35.219  36.493   9.737
 1319POPC   PO421348  35.776  36.763   9.769
 1319POPC   GL121349  35.580  36.677   9.299
 1319POPC   GL221350  35.209  36.716   9.244
 1319POPC   C1A21351  35.612  36.692   8.791
 1319POPC   D2A21352  35.443  36.847   8.339
 1319POPC   C3A21353  35.564  36.795   7.862
 1319POPC   C4A21354  35.621  36.829   7.389
 1319POPC   C1B21355  35.088  36.808   8.786
 1319POPC   C2B21356  34.919  36.820   8.332
 1319POPC   C3B21357  35.072  36.990   7.923
 1319POPC   C4B21358  35.273  37.171   7.525
 1320POPC   NC321359  22.992  20.791   9.571
 1320POPC   PO421360  23.184  20.085   9.532
 1320POPC   GL121361  23.015  20.411   9.201
 1320POPC   GL221362  23.209  20.713   9.141
 1320POPC   C1A21363  22.860  20.488   8.795
 1320POPC   D2A21364  22.742  20.338   8.373
 1320POPC   C3A21365  22.752  20.574   7.988
 1320POPC   C4A21366  22.648  20.365   7.596
 1320POPC   C1B21367  23.388  20.619   8.782
 1320POPC   C2B21368  23.224  20.537   8.424
 1320POPC   C3B21369  23.282  20.579   8.034
 1320POPC   C4B21370  23.103  20.601   7.612
 1321POPC   NC321371  19.231   7.890   9.530
 1321POPC   PO421372  18.705   8.299   9.522
 1321POPC   GL121373  18.873   8.086   9.193
 1321POPC   GL221374  19.144   8.292   9.214
 1321POPC   C1A21375  18.858   8.034   8.759
 1321POPC   D2A21376  18.989   7.855   8.355
 1321POPC   C3A21377  18.917   8.104   7.988
 1321POPC   C4A21378  18.871   8.329   7.628
 1321POPC   C1B21379  19.356   8.123   8.882
 1321POPC   C2B21380  19.478   8.040   8.473
 1321POPC   C3B21381  19.424   8.149   8.068
 1321POPC   C4B21382  19.398   8.338   7.699
 1322POPC   NC321383  19.457  31.366   9.490
 1322POPC   PO421384  18.908  31.829   9.584
 1322POPC   GL121385  18.966  31.513   9.247
 1322POPC   GL221386  19.297  31.532   9.052
 1322POPC   C1A21387  18.829  31.603   8.824
 1322POPC   D2A21388  19.060  31.600   8.441
 1322POPC   C3A21389  18.834  31.794   8.108
 1322POPC   C4A21390  18.996  31.756   7.705
 1322POPC   C1B21391  19.153  31.192   8.789
 1322POPC   C2B21392  19.130  31.082   8.345
 1322POPC   C3B21393  19.116  31.340   7.981
 1322POPC   C4B21394  18.834  31.281   7.627
 1323POPC   NC321395   9.331   5.888   9.411
 1323POPC   PO421396   8.676   5.926   9.444
 1323POPC   GL121397   8.902   5.866   9.095
 1323POPC   GL221398   8.689   6.164   8.982
 1323POPC   C1A21399   9.169   5.753   8.737
 1323POPC   D2A21400   9.001   5.620   8.343
 1323POPC   C3A21401   9.041   5.816   7.949
 1323POPC   C4A21402   9.443   5.742   7.739
 1323POPC   C1B21403   8.634   5.841   8.663
 1323POPC   C2B21404   8.569   5.921   8.242
 1323POPC   C3B21405   8.673   6.195   7.890
 1323POPC   C4B21406   8.702   6.067   7.430
 1324POPC   NC321407   3.845   3.663   9.591
 1324POPC   PO421408   3.288   3.290   9.427
 1324POPC   GL121409   3.500   3.516   9.112
 1324POPC   GL221410   3.508   3.868   9.139
 1324POPC   C1A21411   3.605   3.370   8.694
 1324POPC   D2A21412   3.916   3.375   8.343
 1324POPC   C3A21413   3.723   3.367   7.927
 1324POPC   C4A21414   3.274   3.450   7.839
 1324POPC   C1B21415   3.656   3.867   8.717
 1324POPC   C2B21416   3.528   3.721   8.311
 1324POPC   C3B21417   3.377   3.925   7.955
 1324POPC   C4B21418   3.565   3.950   7.579
 1325POPC   NC321419   0.774  37.778   9.498
 1325POPC   PO421420   0.179  37.413   9.665
 1325POPC   GL121421   0.280  37.654   9.253
 1325POPC   GL221422   0.524  37.909   9.077
 1325POPC   C1A21423   0.287  37.565   8.788
 1325POPC   D2A21424   0.407  37.493   8.372
 1325POPC   C3A21425   0.208  37.512   7.963
 1325POPC   C4A21426   0.227  37.549   7.492
 1325POPC   C1B21427   0.869  37.875   8.754
 1325POPC   C2B21428   0.944  37.697   8.377
 1325POPC   C3B21429   0.621  37.875   8.119
 1325POPC   C4B21430   0.562  37.833   7.716
 1326POPC   NC321431  28.544   9.016   9.586
 1326POPC   PO421432  27.877   8.825   9.784
 1326POPC   GL121433  28.123   8.994   9.297
 1326POPC   GL221434  28.064   9.326   9.144
 1326POPC   C1A21435  28.484   8.799   8.941
 1326POPC   D2A21436  28.568   8.550   8.555
 1326POPC   C3A21437  28.430   8.703   8.130
 1326POPC   C4A21438  28.274   8.873   7.700
 1326POPC   C1B21439  28.465   9.304   8.895
 1326POPC   C2B21440  28.717   9.323   8.504
 1326POPC   C3B21441  28.613   9.183   8.086
 1326POPC   C4B21442  28.775   8.891   7.772
 1327POPC   NC321443  17.664  26.790   9.553
 1327POPC   PO421444  17.004  26.932   9.453
 1327POPC   GL121445  17.372  26.960   9.160
 1327POPC   GL221446  17.556  26.662   9.073
 1327POPC   C1A21447  17.346  26.964   8.723
 1327POPC   D2A21448  17.326  26.758   8.359
 1327POPC   C3A21449  17.376  26.958   7.998
 1327POPC   C4A21450  17.490  27.085   7.628
 1327POPC   C1B21451  17.706  26.547   8.670
 1327POPC   C2B21452  17.659  26.373   8.251
 1327POPC   C3B21453  17.732  26.576   7.841
 1327POPC   C4B21454  17.809  26.417   7.402
 1328POPC   NC321455  27.209  20.159   9.830
 1328POPC   PO421456  27.599  19.656   9.599
 1328POPC   GL121457  27.711  19.850   9.217
 1328POPC   GL221458  27.418  20.016   9.102
 1328POPC   C1A21459  27.875  19.924   8.803
 1328POPC   D2A21460  27.691  20.088   8.401
 1328POPC   C3A21461  27.823  19.877   8.013
 1328POPC   C4A21462  27.840  20.041   7.598
 1328POPC   C1B21463  27.378  19.821   8.716
 1328POPC   C2B21464  27.184  19.773   8.329
 1328POPC   C3B21465  27.104  19.635   7.909
 1328POPC   C4B21466  27.424  19.720   7.642
 1329POPC   NC321467   1.790   7.848   9.605
 1329POPC   PO421468   1.733   8.516   9.572
 1329POPC   GL121469   2.011   8.280   9.317
 1329POPC   GL221470   2.147   8.508   9.062
 1329POPC   C1A21471   2.060   7.968   8.996
 1329POPC   D2A21472   2.277   7.825   8.639
 1329POPC   C3A21473   2.111   7.912   8.226
 1329POPC   C4A21474   1.965   8.053   7.814
 1329POPC   C1B21475   2.085   8.340   8.656
 1329POPC   C2B21476   2.032   8.421   8.227
 1329POPC   C3B21477   2.037   8.552   7.835
 1329POPC   C4B21478   1.736   8.595   7.509
 1330POPC   NC321479  34.604  27.699   9.661
 1330POPC   PO421480  35.118  28.050   9.528
 1330POPC   GL121481  34.972  27.712   9.201
 1330POPC   GL221482  34.611  27.526   9.168
 1330POPC   C1A21483  34.854  27.726   8.745
 1330POPC   D2A21484  34.987  27.619   8.324
 1330POPC   C3A21485  34.771  27.677   7.915
 1330POPC   C4A21486  34.768  27.456   7.532
 1330POPC   C1B21487  34.360  27.480   8.744
 1330POPC   C2B21488  34.447  27.504   8.274
 1330POPC   C3B21489  34.288  27.465   7.806
 1330POPC   C4B21490  33.980  27.668   7.546
 1331POPC   NC321491  41.686  15.430   9.520
 1331POPC   PO421492  41.337  14.813   9.493
 1331POPC   GL121493  41.408  14.990   9.069
 1331POPC   GL221494  41.597  15.301   9.029
 1331POPC   C1A21495  41.472  15.001   8.604
 1331POPC   D2A21496  41.646  15.346   8.397
 1331POPC   C3A21497  41.809  15.258   7.979
 1331POPC   C4A21498  41.643  15.171   7.554
 1331POPC   C1B21499  41.218  15.409   8.757
 1331POPC   C2B21500  41.106  15.346   8.317
 1331POPC   C3B21501  41.329  15.373   7.920
 1331POPC   C4B21502  41.284  15.534   7.484
 1332POPC   NC321503  41.011  36.736   9.482
 1332POPC   PO421504  40.505  37.110   9.254
 1332POPC   GL121505  40.829  37.010   9.074
 1332POPC   GL221506  40.739  36.687   9.049
 1332POPC   C1A21507  40.961  36.982   8.655
 1332POPC   D2A21508  41.019  36.764   8.284
 1332POPC   C3A21509  40.804  36.973   7.966
 1332POPC   C4A21510  40.377  37.102   7.925
 1332POPC   C1B21511  40.868  36.477   8.704
 1332POPC   C2B21512  40.759  36.227   8.399
 1332POPC   C3B21513  40.793  36.388   8.021
 1332POPC   C4B21514  41.104  36.605   7.781
 1333POPC   NC321515  16.966  19.717   9.633
 1333POPC   PO421516  16.541  20.145   9.406
 1333POPC   GL121517  16.886  20.018   9.193
 1333POPC   GL221518  16.818  19.651   9.159
 1333POPC   C1A21519  16.886  20.144   8.771
 1333POPC   D2A21520  16.887  19.848   8.441
 1333POPC   C3A21521  16.711  20.043   8.099
 1333POPC   C4A21522  16.756  19.863   7.716
 1333POPC   C1B21523  16.919  19.423   8.808
 1333POPC   C2B21524  16.908  19.283   8.416
 1333POPC   C3B21525  16.830  19.491   8.051
 1333POPC   C4B21526  17.101  19.494   7.685
 1334POPC   NC321527  28.081  18.427   9.597
 1334POPC   PO421528  28.797  18.383   9.696
 1334POPC   GL121529  28.561  18.226   9.276
 1334POPC   GL221530  28.307  18.434   9.136
 1334POPC   C1A21531  28.399  18.068   8.812
 1334POPC   D2A21532  28.364  18.323   8.425
 1334POPC   C3A21533  28.345  18.169   8.007
 1334POPC   C4A21534  28.234  18.164   7.589
 1334POPC   C1B21535  28.629  18.537   8.862
 1334POPC   C2B21536  28.797  18.619   8.451
 1334POPC   C3B21537  28.637  18.600   8.046
 1334POPC   C4B21538  28.338  18.691   7.715
 1335POPC   NC321539  37.209  35.371   9.536
 1335POPC   PO421540  36.554  35.506   9.375
 1335POPC   GL121541  36.867  35.309   9.118
 1335POPC   GL221542  37.094  35.031   9.150
 1335POPC   C1A21543  36.765  35.209   8.705
 1335POPC   D2A21544  36.566  35.511   8.426
 1335POPC   C3A21545  36.479  35.333   8.019
 1335POPC   C4A21546  36.856  35.238   7.842
 1335POPC   C1B21547  37.271  35.226   8.784
 1335POPC   C2B21548  37.143  35.264   8.353
 1335POPC   C3B21549  37.262  35.488   8.015
 1335POPC   C4B21550  37.108  35.638   7.640
 1336POPC   NC321551  39.667  16.339   9.416
 1336POPC   PO421552  40.249  15.876   9.487
 1336POPC   GL121553  40.049  16.053   9.162
 1336POPC   GL221554  40.187  16.352   9.223
 1336POPC   C1A21555  39.860  16.089   8.768
 1336POPC   D2A21556  39.884  15.834   8.384
 1336POPC   C3A21557  39.968  16.019   7.981
 1336POPC   C4A21558  39.911  15.922   7.571
 1336POPC   C1B21559  40.299  16.405   8.802
 1336POPC   C2B21560  40.168  16.276   8.391
 1336POPC   C3B21561  40.419  16.230   8.026
 1336POPC   C4B21562  40.328  16.226   7.617
 1337POPC   NC321563   3.207  31.642   9.805
 1337POPC   PO421564   3.073  31.195   9.311
 1337POPC   GL121565   3.313  31.451   9.020
 1337POPC   GL221566   3.235  31.746   9.160
 1337POPC   C1A21567   3.153  31.514   8.591
 1337POPC   D2A21568   3.079  31.454   8.136
 1337POPC   C3A21569   2.665  31.548   7.941
 1337POPC   C4A21570   2.615  31.347   7.505
 1337POPC   C1B21571   3.106  31.989   8.782
 1337POPC   C2B21572   2.929  31.941   8.332
 1337POPC   C3B21573   3.154  31.904   7.927
 1337POPC   C4B21574   3.035  31.623   7.623
 1338POPC   NC321575   8.396  25.492   9.601
 1338POPC   PO421576   8.546  24.849   9.418
 1338POPC   GL121577   8.276  25.131   9.159
 1338POPC   GL221578   8.207  25.516   9.140
 1338POPC   C1A21579   8.083  25.005   8.777
 1338POPC   D2A21580   8.311  24.953   8.398
 1338POPC   C3A21581   8.122  24.935   8.024
 1338POPC   C4A21582   8.287  25.011   7.615
 1338POPC   C1B21583   8.418  25.406   8.771
 1338POPC   C2B21584   8.600  25.358   8.392
 1338POPC   C3B21585   8.499  25.327   7.990
 1338POPC   C4B21586   8.682  25.695   7.846
 1339POPC   NC321587  11.236  41.231   9.423
 1339POPC   PO421588  11.401  41.929   9.507
 1339POPC   GL121589  11.370  41.664   9.176
 1339POPC   GL221590  11.634  41.423   9.130
 1339POPC   C1A21591  11.315  41.571   8.759
 1339POPC   D2A21592  11.178  41.342   8.447
 1339POPC   C3A21593  11.286  41.542   8.100
 1339POPC   C4A21594  11.141  41.322   7.746
 1339POPC   C1B21595  11.754  41.298   8.737
 1339POPC   C2B21596  11.666  41.214   8.340
 1339POPC   C3B21597  11.588  41.180   7.966
 1339POPC   C4B21598  11.682  41.538   7.683
 1340POPC   NC321599  27.884  14.899   9.598
 1340POPC   PO421600  28.392  15.103   9.583
 1340POPC   GL121601  28.279  15.126   9.123
 1340POPC   GL221602  28.045  14.840   9.057
 1340POPC   C1A21603  28.362  15.373   8.705
 1340POPC   D2A21604  28.207  15.322   8.238
 1340POPC   C3A21605  28.332  15.032   7.887
 1340POPC   C4A21606  28.545  15.109   7.489
 1340POPC   C1B21607  28.164  14.930   8.610
 1340POPC   C2B21608  27.972  14.833   8.198
 1340POPC   C3B21609  27.839  14.925   7.780
 1340POPC   C4B21610  28.026  15.135   7.428
 1341POPC   NC321611  15.282   4.570   9.278
 1341POPC   PO421612  15.675   4.128   9.633
 1341POPC   GL121613  15.741   4.322   9.194
 1341POPC   GL221614  16.056   4.479   9.044
 1341POPC   C1A21615  15.727   4.268   8.719
 1341POPC   D2A21616  16.025   4.090   8.406
 1341POPC   C3A21617  15.837   4.063   8.009
 1341POPC   C4A21618  15.715   4.355   7.680
 1341POPC   C1B21619  16.334   4.460   8.678
 1341POPC   C2B21620  16.187   4.604   8.282
 1341POPC   C3B21621  16.141   4.598   7.845
 1341POPC   C4B21622  16.237   4.195   7.713
 1342POPC   NC321623  20.665   6.046   9.318
 1342POPC   PO421624  20.430   5.489   9.353
 1342POPC   GL121625  20.525   5.667   8.973
 1342POPC   GL221626  20.861   5.632   9.020
 1342POPC   C1A21627  20.527   6.043   8.672
 1342POPC   D2A21628  20.326   6.305   8.358
 1342POPC   C3A21629  20.292   6.143   7.946
 1342POPC   C4A21630  20.475   5.769   7.805
 1342POPC   C1B21631  21.036   5.957   8.749
 1342POPC   C2B21632  21.103   5.927   8.358
 1342POPC   C3B21633  20.914   5.690   8.057
 1342POPC   C4B21634  20.990   5.851   7.691
 1343POPC   NC321635   4.596  17.639   9.675
 1343POPC   PO421636   4.272  17.140   9.531
 1343POPC   GL121637   4.288  17.528   9.204
 1343POPC   GL221638   4.536  17.832   9.206
 1343POPC   C1A21639   4.194  17.684   8.773
 1343POPC   D2A21640   4.324  17.503   8.329
 1343POPC   C3A21641   4.261  17.268   7.910
 1343POPC   C4A21642   4.136  17.399   7.501
 1343POPC   C1B21643   4.557  18.044   8.791
 1343POPC   C2B21644   4.416  18.012   8.350
 1343POPC   C3B21645   4.554  17.768   7.953
 1343POPC   C4B21646   4.765  17.387   7.852
 1344POPC   NC321647   4.111  31.217   9.850
 1344POPC   PO421648   4.731  31.458   9.535
 1344POPC   GL121649   4.410  31.449   9.153
 1344POPC   GL221650   4.302  31.794   9.121
 1344POPC   C1A21651   4.220  31.160   8.856
 1344POPC   D2A21652   4.458  31.287   8.491
 1344POPC   C3A21653   4.377  31.283   8.074
 1344POPC   C4A21654   4.645  31.281   7.715
 1344POPC   C1B21655   4.145  31.635   8.751
 1344POPC   C2B21656   4.033  31.637   8.381
 1344POPC   C3B21657   4.175  31.833   8.067
 1344POPC   C4B21658   4.215  31.616   7.723
 1345POPC   NC321659  10.922  39.733   9.498
 1345POPC   PO421660  11.406  40.150   9.668
 1345POPC   GL121661  11.316  40.042   9.243
 1345POPC   GL221662  11.305  39.692   9.162
 1345POPC   C1A21663  11.322  40.046   8.794
 1345POPC   D2A21664  11.055  39.893   8.489
 1345POPC   C3A21665  11.117  40.046   8.079
 1345POPC   C4A21666  11.017  39.873   7.693
 1345POPC   C1B21667  11.460  39.548   8.751
 1345POPC   C2B21668  11.553  39.736   8.360
 1345POPC   C3B21669  11.555  39.765   7.905
 1345POPC   C4B21670  11.488  40.088   7.642
 1346POPC   NC321671  42.386  10.186   9.347
 1346POPC   PO421672  42.108   9.546   9.465
 1346POPC   GL121673  42.059   9.624   9.060
 1346POPC   GL221674  42.303   9.860   8.980
 1346POPC   C1A21675  42.229   9.493   8.650
 1346POPC   D2A21676  42.393   9.495   8.253
 1346POPC   C3A21677  42.064   9.387   8.021
 1346POPC   C4A21678  41.916   9.549   7.649
 1346POPC   C1B21679  42.625  10.098   8.742
 1346POPC   C2B21680  42.486  10.206   8.339
 1346POPC   C3B21681  42.448   9.940   7.953
 1346POPC   C4B21682  42.680   9.926   7.566
 1347POPC   NC321683   6.619  21.874   9.596
 1347POPC   PO421684   6.479  22.527   9.618
 1347POPC   GL121685   6.657  22.375   9.172
 1347POPC   GL221686   6.622  21.991   9.117
 1347POPC   C1A21687   6.559  22.275   8.708
 1347POPC   D2A21688   6.500  22.036   8.325
 1347POPC   C3A21689   6.646  22.247   7.942
 1347POPC   C4A21690   6.804  22.428   7.582
 1347POPC   C1B21691   6.718  21.722   8.763
 1347POPC   C2B21692   6.819  21.589   8.361
 1347POPC   C3B21693   6.675  21.723   7.953
 1347POPC   C4B21694   6.701  21.864   7.533
 1348POPC   NC321695  11.751  21.855   9.481
 1348POPC   PO421696  11.319  21.312   9.569
 1348POPC   GL121697  11.257  21.590   9.226
 1348POPC   GL221698  11.578  21.515   9.141
 1348POPC   C1A21699  11.282  21.660   8.764
 1348POPC   D2A21700  11.184  21.327   8.476
 1348POPC   C3A21701  11.260  21.449   8.095
 1348POPC   C4A21702  11.141  21.422   7.678
 1348POPC   C1B21703  11.564  21.212   8.806
 1348POPC   C2B21704  11.713  21.247   8.404
 1348POPC   C3B21705  11.633  21.094   8.015
 1348POPC   C4B21706  11.644  21.371   7.700
 1349POPC   NC321707  22.308  34.282   9.410
 1349POPC   PO421708  21.961  34.710   9.772
 1349POPC   GL121709  21.992  34.652   9.255
 1349POPC   GL221710  21.811  34.408   9.109
 1349POPC   C1A21711  22.238  34.748   8.829
 1349POPC   D2A21712  22.332  35.006   8.421
 1349POPC   C3A21713  22.197  34.778   8.006
 1349POPC   C4A21714  22.344  34.515   7.637
 1349POPC   C1B21715  21.833  34.443   8.663
 1349POPC   C2B21716  21.879  34.394   8.224
 1349POPC   C3B21717  21.794  34.387   7.795
 1349POPC   C4B21718  21.873  34.611   7.427
 1350POPC   NC321719  18.551  44.409   9.578
 1350POPC   PO421720  17.907  44.669   9.531
 1350POPC   GL121721  18.101  44.466   9.191
 1350POPC   GL221722  17.849  44.217   9.182
 1350POPC   C1A21723  18.278  44.638   8.787
 1350POPC   D2A21724  18.205  44.771   8.349
 1350POPC   C3A21725  18.535  44.643   8.074
 1350POPC   C4A21726  18.717  44.624   7.669
 1350POPC   C1B21727  18.012  44.216   8.740
 1350POPC   C2B21728  18.240  44.253   8.358
 1350POPC   C3B21729  18.122  44.380   7.958
 1350POPC   C4B21730  18.235  44.550   7.556
 1351POPC   NC321731  21.169  37.998   9.467
 1351POPC   PO421732  21.788  37.709   9.624
 1351POPC   GL121733  21.576  37.722   9.202
 1351POPC   GL221734  21.249  37.687   9.083
 1351POPC   C1A21735  21.627  37.849   8.766
 1351POPC   D2A21736  21.789  38.173   8.509
 1351POPC   C3A21737  21.633  38.030   8.082
 1351POPC   C4A21738  21.748  37.650   7.841
 1351POPC   C1B21739  21.371  37.432   8.692
 1351POPC   C2B21740  21.451  37.584   8.288
 1351POPC   C3B21741  21.186  37.789   7.989
 1351POPC   C4B21742  21.301  37.779   7.568
 1352POPC   NC321743  41.247  41.359   9.138
 1352POPC   PO421744  41.574  41.972   9.418
 1352POPC   GL121745  41.650  41.687   9.105
 1352POPC   GL221746  41.790  41.362   9.243
 1352POPC   C1A21747  41.762  41.719   8.666
 1352POPC   D2A21748  41.554  41.820   8.281
 1352POPC   C3A21749  41.479  41.493   7.946
 1352POPC   C4A21750  41.536  41.708   7.526
 1352POPC   C1B21751  41.779  41.226   8.793
 1352POPC   C2B21752  41.791  41.315   8.340
 1352POPC   C3B21753  41.896  41.177   7.920
 1352POPC   C4B21754  41.615  41.147   7.551
 1353POPC   NC321755  24.648  31.063   9.319
 1353POPC   PO421756  24.233  30.573   9.440
 1353POPC   GL121757  24.387  30.662   9.097
 1353POPC   GL221758  24.701  30.565   9.143
 1353POPC   C1A21759  24.325  30.659   8.706
 1353POPC   D2A21760  24.522  30.818   8.354
 1353POPC   C3A21761  24.332  30.683   8.024
 1353POPC   C4A21762  24.452  30.647   7.636
 1353POPC   C1B21763  24.833  30.683   8.748
 1353POPC   C2B21764  24.963  30.550   8.345
 1353POPC   C3B21765  24.897  30.743   7.936
 1353POPC   C4B21766  24.929  30.506   7.536
 1354POPC   NC321767  16.661  21.598   9.485
 1354POPC   PO421768  16.462  21.007   9.571
 1354POPC   GL121769  16.586  21.165   9.214
 1354POPC   GL221770  16.947  21.142   9.292
 1354POPC   C1A21771  16.466  21.202   8.812
 1354POPC   D2A21772  16.378  21.129   8.390
 1354POPC   C3A21773  16.683  21.160   8.096
 1354POPC   C4A21774  16.485  21.396   7.803
 1354POPC   C1B21775  16.950  21.366   8.891
 1354POPC   C2B21776  16.732  21.510   8.499
 1354POPC   C3B21777  16.838  21.658   8.082
 1354POPC   C4B21778  16.992  21.474   7.723
 1355POPC   NC321779   9.728  43.555   9.454
 1355POPC   PO421780   9.421  42.936   9.507
 1355POPC   GL121781   9.627  43.013   9.149
 1355POPC   GL221782   9.462  43.314   9.102
 1355POPC   C1A21783   9.719  42.875   8.745
 1355POPC   D2A21784   9.915  42.867   8.347
 1355POPC   C3A21785   9.769  43.112   8.061
 1355POPC   C4A21786   9.552  42.994   7.716
 1355POPC   C1B21787   9.697  43.392   8.750
 1355POPC   C2B21788  10.031  43.584   8.543
 1355POPC   C3B21789  10.041  43.589   8.094
 1355POPC   C4B21790   9.819  43.683   7.718
 1356POPC   NC321791  36.523   0.012   9.474
 1356POPC   PO421792  35.763   0.084   9.459
 1356POPC   GL121793  36.011   0.350   9.130
 1356POPC   GL221794  36.392   0.356   9.098
 1356POPC   C1A21795  36.121   0.390   8.669
 1356POPC   D2A21796  36.154   0.212   8.278
 1356POPC   C3A21797  35.944   0.406   7.943
 1356POPC   C4A21798  36.095   0.803   7.850
 1356POPC   C1B21799  36.455   0.005   8.780
 1356POPC   C2B21800  36.603  44.948   8.332
 1356POPC   C3B21801  36.563   0.267   7.968
 1356POPC   C4B21802  36.408   0.484   7.615
 1357POPC   NC321803   7.835   6.609   9.805
 1357POPC   PO421804   7.304   6.911   9.544
 1357POPC   GL121805   7.351   6.751   9.117
 1357POPC   GL221806   7.381   6.379   9.039
 1357POPC   C1A21807   7.417   6.700   8.671
 1357POPC   D2A21808   7.383   6.493   8.305
 1357POPC   C3A21809   7.502   6.710   7.968
 1357POPC   C4A21810   7.346   6.635   7.609
 1357POPC   C1B21811   7.605   6.181   8.670
 1357POPC   C2B21812   7.845   6.324   8.263
 1357POPC   C3B21813   7.662   6.254   7.807
 1357POPC   C4B21814   7.614   6.296   7.293
 1358POPC   NC321815  31.924  19.168   9.604
 1358POPC   PO421816  32.558  19.199   9.458
 1358POPC   GL121817  32.205  19.229   9.136
 1358POPC   GL221818  31.917  19.418   9.176
 1358POPC   C1A21819  32.229  19.155   8.669
 1358POPC   D2A21820  32.572  19.266   8.360
 1358POPC   C3A21821  32.509  19.013   7.995
 1358POPC   C4A21822  32.228  19.075   7.643
 1358POPC   C1B21823  31.964  19.559   8.803
 1358POPC   C2B21824  31.842  19.436   8.402
 1358POPC   C3B21825  32.102  19.323   8.098
 1358POPC   C4B21826  31.975  19.494   7.731
 1359POPC   NC321827   5.364  39.955   9.735
 1359POPC   PO421828   5.893  40.221   9.372
 1359POPC   GL121829   5.911  40.027   9.002
 1359POPC   GL221830   5.800  39.702   9.139
 1359POPC   C1A21831   6.119  40.104   8.636
 1359POPC   D2A21832   5.923  39.849   8.363
 1359POPC   C3A21833   5.800  40.020   8.022
 1359POPC   C4A21834   6.123  40.060   7.717
 1359POPC   C1B21835   5.636  39.636   8.726
 1359POPC   C2B21836   5.557  39.467   8.284
 1359POPC   C3B21837   5.780  39.530   7.869
 1359POPC   C4B21838   5.669  39.851   7.556
 1360POPC   NC321839  41.471  37.619   9.574
 1360POPC   PO421840  41.301  38.081   9.189
 1360POPC   GL121841  41.406  37.684   9.020
 1360POPC   GL221842  41.671  37.441   9.138
 1360POPC   C1A21843  41.531  37.841   8.621
 1360POPC   D2A21844  41.377  38.048   8.284
 1360POPC   C3A21845  41.600  37.874   7.964
 1360POPC   C4A21846  41.287  37.603   7.802
 1360POPC   C1B21847  41.667  37.363   8.695
 1360POPC   C2B21848  41.506  37.457   8.277
 1360POPC   C3B21849  41.735  37.376   7.920
 1360POPC   C4B21850  42.054  37.330   7.641
 1361POPC   NC321851   8.568  23.378   9.378
 1361POPC   PO421852   8.919  23.955   9.618
 1361POPC   GL121853   8.995  24.066   9.180
 1361POPC   GL221854   8.648  23.928   9.168
 1361POPC   C1A21855   9.189  23.982   8.749
 1361POPC   D2A21856   9.094  23.697   8.392
 1361POPC   C3A21857   9.106  23.955   8.026
 1361POPC   C4A21858   9.149  24.069   7.595
 1361POPC   C1B21859   8.767  23.702   8.802
 1361POPC   C2B21860   8.542  23.551   8.458
 1361POPC   C3B21861   8.520  23.581   8.067
 1361POPC   C4B21862   8.775  23.685   7.731
 1362POPC   NC321863  21.942  36.687   9.391
 1362POPC   PO421864  22.460  37.131   9.516
 1362POPC   GL121865  22.154  37.108   9.198
 1362POPC   GL221866  21.837  37.247   9.348
 1362POPC   C1A21867  22.143  36.920   8.770
 1362POPC   D2A21868  22.384  36.749   8.414
 1362POPC   C3A21869  22.235  36.929   8.056
 1362POPC   C4A21870  21.974  36.809   7.701
 1362POPC   C1B21871  21.836  37.356   8.888
 1362POPC   C2B21872  21.806  37.252   8.440
 1362POPC   C3B21873  21.764  37.157   8.014
 1362POPC   C4B21874  21.697  37.218   7.566
 1363POPC   NC321875  30.750   0.966   9.654
 1363POPC   PO421876  30.399   0.353   9.544
 1363POPC   GL121877  30.513   0.649   9.252
 1363POPC   GL221878  30.846   0.600   9.260
 1363POPC   C1A21879  30.527   0.620   8.824
 1363POPC   D2A21880  30.664   0.341   8.483
 1363POPC   C3A21881  30.651   0.546   8.105
 1363POPC   C4A21882  30.518   0.445   7.719
 1363POPC   C1B21883  30.997   0.424   8.859
 1363POPC   C2B21884  31.108   0.579   8.444
 1363POPC   C3B21885  31.100   0.813   8.065
 1363POPC   C4B21886  31.022   0.550   7.699
 1364POPC   NC321887  28.719   4.263   9.274
 1364POPC   PO421888  28.421   4.832   9.482
 1364POPC   GL121889  28.267   4.616   9.110
 1364POPC   GL221890  28.069   4.417   9.332
 1364POPC   C1A21891  28.336   4.349   8.738
 1364POPC   D2A21892  28.610   4.243   8.422
 1364POPC   C3A21893  28.417   4.348   8.039
 1364POPC   C4A21894  28.571   4.335   7.627
 1364POPC   C1B21895  27.908   4.224   8.970
 1364POPC   C2B21896  27.841   4.220   8.509
 1364POPC   C3B21897  27.853   4.235   8.030
 1364POPC   C4B21898  28.116   4.084   7.694
 1365POPC   NC321899   6.261  34.540   9.288
 1365POPC   PO421900   5.548  34.805   9.413
 1365POPC   GL121901   5.716  34.484   9.171
 1365POPC   GL221902   5.925  34.504   8.919
 1365POPC   C1A21903   5.521  34.271   8.785
 1365POPC   D2A21904   5.378  34.395   8.351
 1365POPC   C3A21905   5.697  34.290   7.994
 1365POPC   C4A21906   5.726  34.337   7.510
 1365POPC   C1B21907   5.853  34.528   8.494
 1365POPC   C2B21908   5.960  34.771   8.163
 1365POPC   C3B21909   6.020  34.666   7.743
 1365POPC   C4B21910   5.990  34.892   7.358
 1366POPC   NC321911  16.274  30.178   9.240
 1366POPC   PO421912  15.787  30.633   9.561
 1366POPC   GL121913  15.883  30.494   9.155
 1366POPC   GL221914  15.760  30.197   9.150
 1366POPC   C1A21915  16.014  30.460   8.702
 1366POPC   D2A21916  16.120  30.731   8.349
 1366POPC   C3A21917  16.221  30.707   7.897
 1366POPC   C4A21918  16.210  30.802   7.436
 1366POPC   C1B21919  15.518  30.447   8.832
 1366POPC   C2B21920  15.529  30.446   8.389
 1366POPC   C3B21921  15.492  30.655   7.997
 1366POPC   C4B21922  15.773  30.675   7.682
 1367POPC   NC321923  18.764  21.421   9.633
 1367POPC   PO421924  19.336  21.352   9.579
 1367POPC   GL121925  19.078  21.455   9.207
 1367POPC   GL221926  18.750  21.230   9.146
 1367POPC   C1A21927  19.203  21.621   8.814
 1367POPC   D2A21928  19.386  21.487   8.449
 1367POPC   C3A21929  19.217  21.495   8.066
 1367POPC   C4A21930  19.338  21.309   7.695
 1367POPC   C1B21931  18.698  21.556   8.812
 1367POPC   C2B21932  18.895  21.700   8.409
 1367POPC   C3B21933  18.736  21.611   7.984
 1367POPC   C4B21934  18.859  21.607   7.558
 1368POPC   NC321935  20.222  26.768   9.513
 1368POPC   PO421936  19.664  27.032   9.485
 1368POPC   GL121937  19.756  27.041   9.050
 1368POPC   GL221938  20.104  27.031   9.095
 1368POPC   C1A21939  19.564  26.679   8.738
 1368POPC   D2A21940  19.585  26.330   8.394
 1368POPC   C3A21941  19.619  26.426   7.961
 1368POPC   C4A21942  19.706  26.830   7.772
 1368POPC   C1B21943  20.043  26.831   8.691
 1368POPC   C2B21944  19.842  26.808   8.290
 1368POPC   C3B21945  20.136  26.964   7.994
 1368POPC   C4B21946  20.252  26.824   7.597
 1369POPC   NC321947   6.242  28.005   9.498
 1369POPC   PO421948   5.818  28.427   9.528
 1369POPC   GL121949   5.709  28.336   9.129
 1369POPC   GL221950   5.468  28.578   9.075
 1369POPC   C1A21951   5.938  28.225   8.766
 1369POPC   D2A21952   6.113  28.496   8.426
 1369POPC   C3A21953   6.001  28.490   7.986
 1369POPC   C4A21954   5.887  28.595   7.608
 1369POPC   C1B21955   5.575  28.533   8.602
 1369POPC   C2B21956   5.665  28.224   8.240
 1369POPC   C3B21957   5.499  28.300   7.785
 1369POPC   C4B21958   5.433  28.521   7.368
 1370POPC   NC321959  33.793  10.262   9.716
 1370POPC   PO421960  33.936   9.655   9.545
 1370POPC   GL121961  34.003   9.631   9.138
 1370POPC   GL221962  34.005   9.950   9.114
 1370POPC   C1A21963  33.880   9.475   8.719
 1370POPC   D2A21964  34.091   9.352   8.324
 1370POPC   C3A21965  33.902   9.648   8.042
 1370POPC   C4A21966  33.549   9.595   7.729
 1370POPC   C1B21967  33.715   9.963   8.795
 1370POPC   C2B21968  33.576   9.824   8.415
 1370POPC   C3B21969  33.584  10.046   8.010
 1370POPC   C4B21970  33.930  10.036   7.713
 1371POPC   NC321971  20.231  40.529   9.451
 1371POPC   PO421972  20.929  40.820   9.540
 1371POPC   GL121973  20.631  40.780   9.195
 1371POPC   GL221974  20.582  40.427   9.109
 1371POPC   C1A21975  20.540  40.970   8.803
 1371POPC   D2A21976  20.352  41.108   8.407
 1371POPC   C3A21977  20.562  41.070   8.007
 1371POPC   C4A21978  20.263  41.014   7.692
 1371POPC   C1B21979  20.821  40.497   8.765
 1371POPC   C2B21980  20.832  40.729   8.385
 1371POPC   C3B21981  20.871  40.609   7.973
 1371POPC   C4B21982  20.602  40.618   7.662
 1372POPC   NC321983  16.476  25.662   9.431
 1372POPC   PO421984  16.897  25.246   9.679
 1372POPC   GL121985  16.889  25.165   9.188
 1372POPC   GL221986  16.819  25.507   9.062
 1372POPC   C1A21987  16.728  25.049   8.808
 1372POPC   D2A21988  16.829  25.057   8.399
 1372POPC   C3A21989  16.583  24.841   8.158
 1372POPC   C4A21990  16.579  25.010   7.745
 1372POPC   C1B21991  16.674  25.551   8.629
 1372POPC   C2B21992  16.537  25.452   8.180
 1372POPC   C3B21993  16.803  25.526   7.814
 1372POPC   C4B21994  16.809  25.696   7.390
 1373POPC   NC321995  26.279  15.936   9.504
 1373POPC   PO421996  25.573  15.828   9.603
 1373POPC   GL121997  25.695  16.011   9.204
 1373POPC   GL221998  25.840  15.691   9.163
 1373POPC   C1A21999  25.791  16.059   8.730
 1373POPC   D2A22000  26.136  16.172   8.414
 1373POPC   C3A22001  26.051  16.127   7.965
 1373POPC   C4A22002  26.391  16.002   7.692
 1373POPC   C1B22003  25.996  15.499   8.802
 1373POPC   C2B22004  26.048  15.681   8.443
 1373POPC   C3B22005  26.241  15.670   8.070
 1373POPC   C4B22006  26.052  15.598   7.716
 1374POPC   NC322007  27.410  18.185   9.543
 1374POPC   PO422008  27.085  17.606   9.252
 1374POPC   GL122009  27.306  18.016   9.049
 1374POPC   GL222010  27.685  18.137   9.117
 1374POPC   C1A22011  27.475  18.174   8.620
 1374POPC   D2A22012  27.796  17.982   8.314
 1374POPC   C3A22013  27.576  18.092   7.941
 1374POPC   C4A22014  27.417  18.502   8.041
 1374POPC   C1B22015  27.949  18.303   8.765
 1374POPC   C2B22016  27.839  18.490   8.357
 1374POPC   C3B22017  27.915  18.463   7.893
 1374POPC   C4B22018  27.915  18.567   7.430
 1375POPC   NC322019  41.630  23.519   9.443
 1375POPC   PO422020  41.020  23.857   9.562
 1375POPC   GL122021  41.186  23.923   9.167
 1375POPC   GL222022  41.249  23.565   9.076
 1375POPC   C1A22023  41.461  23.977   8.809
 1375POPC   D2A22024  41.653  23.859   8.378
 1375POPC   C3A22025  41.344  23.792   8.053
 1375POPC   C4A22026  41.271  23.611   7.643
 1375POPC   C1B22027  41.596  23.494   8.740
 1375POPC   C2B22028  41.551  23.336   8.293
 1375POPC   C3B22029  41.710  23.437   7.890
 1375POPC   C4B22030  41.826  23.857   7.859
 1376POPC   NC322031  34.555  32.179   9.405
 1376POPC   PO422032  34.725  32.801   9.426
 1376POPC   GL122033  34.559  32.562   9.068
 1376POPC   GL222034  34.265  32.282   9.021
 1376POPC   C1A22035  34.736  32.377   8.708
 1376POPC   D2A22036  35.017  32.404   8.357
 1376POPC   C3A22037  34.814  32.489   8.000
 1376POPC   C4A22038  34.859  32.357   7.623
 1376POPC   C1B22039  34.412  31.991   8.689
 1376POPC   C2B22040  34.561  32.131   8.280
 1376POPC   C3B22041  34.416  32.195   7.854
 1376POPC   C4B22042  34.234  32.124   7.452
 1377POPC   NC322043  26.237  18.456   9.517
 1377POPC   PO422044  26.900  18.368   9.537
 1377POPC   GL122045  26.988  18.417   9.174
 1377POPC   GL222046  26.779  18.156   9.064
 1377POPC   C1A22047  27.109  18.484   8.793
 1377POPC   D2A22048  26.952  18.460   8.387
 1377POPC   C3A22049  27.096  18.117   8.156
 1377POPC   C4A22050  27.012  18.332   7.784
 1377POPC   C1B22051  26.855  18.020   8.653
 1377POPC   C2B22052  26.611  18.035   8.278
 1377POPC   C3B22053  26.515  18.201   7.898
 1377POPC   C4B22054  26.725  18.017   7.548
 1378POPC   NC322055  40.511  22.306   9.523
 1378POPC   PO422056  41.166  22.061   9.492
 1378POPC   GL122057  40.857  22.169   9.175
 1378POPC   GL222058  41.000  21.875   9.036
 1378POPC   C1A22059  40.500  22.184   8.820
 1378POPC   D2A22060  40.436  22.220   8.366
 1378POPC   C3A22061  40.689  22.272   7.948
 1378POPC   C4A22062  40.903  22.204   7.496
 1378POPC   C1B22063  40.997  22.155   8.695
 1378POPC   C2B22064  41.027  22.328   8.316
 1378POPC   C3B22065  41.177  22.127   7.928
 1378POPC   C4B22066  41.257  21.824   7.581
 1379POPC   NC322067   2.598  32.425   9.514
 1379POPC   PO422068   3.047  32.062   9.700
 1379POPC   GL122069   3.000  32.224   9.241
 1379POPC   GL222070   3.182  32.514   9.098
 1379POPC   C1A22071   2.713  32.306   8.861
 1379POPC   D2A22072   2.695  32.419   8.401
 1379POPC   C3A22073   2.524  32.187   8.047
 1379POPC   C4A22074   2.696  32.028   7.665
 1379POPC   C1B22075   3.118  32.539   8.643
 1379POPC   C2B22076   3.164  32.612   8.228
 1379POPC   C3B22077   2.985  32.380   7.885
 1379POPC   C4B22078   2.911  32.455   7.424
 1380POPC   NC322079  38.072  22.224   9.568
 1380POPC   PO422080  37.441  22.046   9.521
 1380POPC   GL122081  37.593  22.245   9.176
 1380POPC   GL222082  37.897  22.075   9.127
 1380POPC   C1A22083  37.681  22.346   8.743
 1380POPC   D2A22084  37.609  22.527   8.351
 1380POPC   C3A22085  37.598  22.286   7.985
 1380POPC   C4A22086  37.847  22.306   7.642
 1380POPC   C1B22087  37.873  21.863   8.771
 1380POPC   C2B22088  37.957  21.952   8.347
 1380POPC   C3B22089  37.708  21.793   8.043
 1380POPC   C4B22090  37.632  21.854   7.617
 1381POPC   NC322091  13.195   8.382   9.557
 1381POPC   PO422092  12.746   7.914   9.560
 1381POPC   GL122093  12.712   8.164   9.171
 1381POPC   GL222094  13.035   8.324   9.079
 1381POPC   C1A22095  12.727   8.150   8.711
 1381POPC   D2A22096  13.129   8.097   8.492
 1381POPC   C3A22097  13.129   8.104   8.054
 1381POPC   C4A22098  12.728   8.071   7.895
 1381POPC   C1B22099  12.997   8.585   8.711
 1381POPC   C2B22100  13.143   8.568   8.294
 1381POPC   C3B22101  12.935   8.562   7.899
 1381POPC   C4B22102  12.520   8.700   7.764
 1382POPC   NC322103  26.891  31.618   9.385
 1382POPC   PO422104  26.557  31.164   9.713
 1382POPC   GL122105  26.666  31.182   9.279
 1382POPC   GL222106  26.979  31.166   9.086
 1382POPC   C1A22107  26.564  31.355   8.873
 1382POPC   D2A22108  26.558  31.346   8.450
 1382POPC   C3A22109  26.852  31.131   8.209
 1382POPC   C4A22110  26.804  31.297   7.800
 1382POPC   C1B22111  27.035  31.415   8.666
 1382POPC   C2B22112  27.185  31.571   8.226
 1382POPC   C3B22113  27.277  31.471   7.775
 1382POPC   C4B22114  27.169  31.595   7.365
 1383POPC   NC322115  33.736  10.837   9.313
 1383POPC   PO422116  34.201  10.322   9.486
 1383POPC   GL122117  34.021  10.467   9.143
 1383POPC   GL222118  33.697  10.352   9.117
 1383POPC   C1A22119  34.030  10.473   8.715
 1383POPC   D2A22120  33.781  10.317   8.397
 1383POPC   C3A22121  33.850  10.494   7.967
 1383POPC   C4A22122  34.142  10.794   7.744
 1383POPC   C1B22123  33.497  10.546   8.765
 1383POPC   C2B22124  33.479  10.730   8.349
 1383POPC   C3B22125  33.321  10.580   7.962
 1383POPC   C4B22126  33.452  10.358   7.626
 1384POPC   NC322127  13.128   0.482   9.789
 1384POPC   PO422128  13.648   0.195   9.421
 1384POPC   GL122129  13.614   0.296   9.008
 1384POPC   GL222130  13.690   0.652   9.068
 1384POPC   C1A22131  13.771   0.359   8.626
 1384POPC   D2A22132  14.130   0.367   8.368
 1384POPC   C3A22133  13.945   0.242   7.997
 1384POPC   C4A22134  13.563   0.408   7.790
 1384POPC   C1B22135  13.327   0.661   8.760
 1384POPC   C2B22136  13.264   0.345   8.503
 1384POPC   C3B22137  13.169   0.413   8.117
 1384POPC   C4B22138  13.032   0.426   7.720
 1385POPC   NC322139  40.672  32.698   9.490
 1385POPC   PO422140  40.660  33.342   9.546
 1385POPC   GL122141  40.715  33.405   9.142
 1385POPC   GL222142  40.449  33.181   9.093
 1385POPC   C1A22143  40.787  33.242   8.712
 1385POPC   D2A22144  40.862  32.848   8.468
 1385POPC   C3A22145  40.770  32.946   8.045
 1385POPC   C4A22146  40.987  33.091   7.703
 1385POPC   C1B22147  40.485  32.795   8.823
 1385POPC   C2B22148  40.444  32.542   8.405
 1385POPC   C3B22149  40.374  32.632   7.950
 1385POPC   C4B22150  40.602  32.774   7.551
 1386POPC   NC322151  27.327  27.447   9.858
 1386POPC   PO422152  27.869  27.338   9.721
 1386POPC   GL122153  27.757  27.423   9.271
 1386POPC   GL222154  27.378  27.429   9.182
 1386POPC   C1A22155  27.899  27.542   8.828
 1386POPC   D2A22156  27.973  27.551   8.358
 1386POPC   C3A22157  27.755  27.756   7.988
 1386POPC   C4A22158  27.445  27.699   7.636
 1386POPC   C1B22159  27.386  27.451   8.695
 1386POPC   C2B22160  27.344  27.465   8.212
 1386POPC   C3B22161  27.207  27.276   7.808
 1386POPC   C4B22162  27.283  27.254   7.356
 1387POPC   NC322163  16.108  27.425   9.915
 1387POPC   PO422164  16.089  27.718   9.259
 1387POPC   GL122165  15.917  27.408   9.013
 1387POPC   GL222166  15.605  27.377   9.034
 1387POPC   C1A22167  16.120  27.221   8.680
 1387POPC   D2A22168  16.054  27.518   8.356
 1387POPC   C3A22169  16.282  27.756   8.055
 1387POPC   C4A22170  16.127  27.741   7.635
 1387POPC   C1B22171  15.632  27.708   8.707
 1387POPC   C2B22172  15.733  27.911   8.287
 1387POPC   C3B22173  15.635  27.760   7.859
 1387POPC   C4B22174  15.662  27.812   7.404
 1388POPC   NC322175  32.731   4.038   9.339
 1388POPC   PO422176  32.982   4.666   9.365
 1388POPC   GL122177  32.938   4.383   9.042
 1388POPC   GL222178  32.611   4.294   8.893
 1388POPC   C1A22179  33.099   4.141   8.688
 1388POPC   D2A22180  33.334   4.251   8.325
 1388POPC   C3A22181  33.192   4.182   7.926
 1388POPC   C4A22182  33.340   4.403   7.606
 1388POPC   C1B22183  32.847   4.621   8.621
 1388POPC   C2B22184  32.932   4.582   8.174
 1388POPC   C3B22185  32.863   4.542   7.718
 1388POPC   C4B22186  32.750   4.685   7.294
 1389POPC   NC322187  22.492  35.916   9.184
 1389POPC   PO422188  22.046  36.277   9.575
 1389POPC   GL122189  22.103  36.235   9.136
 1389POPC   GL222190  22.304  36.544   9.082
 1389POPC   C1A22191  22.015  35.943   8.749
 1389POPC   D2A22192  21.986  35.727   8.349
 1389POPC   C3A22193  22.184  35.877   7.961
 1389POPC   C4A22194  22.012  35.871   7.544
 1389POPC   C1B22195  22.403  36.344   8.719
 1389POPC   C2B22196  22.256  36.213   8.361
 1389POPC   C3B22197  22.096  36.418   8.034
 1389POPC   C4B22198  22.204  36.327   7.656
 1390POPC   NC322199  25.941  28.576   9.567
 1390POPC   PO422200  26.220  28.029   9.287
 1390POPC   GL122201  26.009  28.403   9.023
 1390POPC   GL222202  25.981  28.778   9.098
 1390POPC   C1A22203  25.755  28.336   8.635
 1390POPC   D2A22204  25.661  28.528   8.232
 1390POPC   C3A22205  25.953  28.385   7.898
 1390POPC   C4A22206  26.333  28.128   7.855
 1390POPC   C1B22207  25.969  28.802   8.630
 1390POPC   C2B22208  26.184  28.522   8.331
 1390POPC   C3B22209  26.406  28.639   7.937
 1390POPC   C4B22210  26.149  28.822   7.651
 1391POPC   NC322211  21.822  11.532   9.406
 1391POPC   PO422212  22.490  11.432   9.423
 1391POPC   GL122213  22.218  11.285   9.084
 1391POPC   GL222214  22.303  10.939   9.010
 1391POPC   C1A22215  22.273  11.250   8.624
 1391POPC   D2A22216  22.505  11.183   8.259
 1391POPC   C3A22217  22.270  11.231   7.866
 1391POPC   C4A22218  21.991  11.489   7.595
 1391POPC   C1B22219  21.883  10.952   8.782
 1391POPC   C2B22220  21.759  11.221   8.429
 1391POPC   C3B22221  21.757  11.219   7.978
 1391POPC   C4B22222  21.895  11.008   7.586
 1392POPC   NC322223  18.051  29.932   9.641
 1392POPC   PO422224  18.710  30.100   9.592
 1392POPC   GL122225  18.404  30.048   9.247
 1392POPC   GL222226  18.187  30.348   9.280
 1392POPC   C1A22227  18.326  29.933   8.777
 1392POPC   D2A22228  18.224  29.831   8.315
 1392POPC   C3A22229  18.564  29.940   8.044
 1392POPC   C4A22230  18.440  30.001   7.626
 1392POPC   C1B22231  18.073  30.392   8.853
 1392POPC   C2B22232  18.133  30.307   8.407
 1392POPC   C3B22233  18.248  30.338   7.949
 1392POPC   C4B22234  18.118  30.372   7.486
 1393POPC   NC322235  27.563  37.012   9.587
 1393POPC   PO422236  27.934  36.584   9.269
 1393POPC   GL122237  27.510  36.787   9.095
 1393POPC   GL222238  27.347  37.119   9.141
 1393POPC   C1A22239  27.346  36.879   8.655
 1393POPC   D2A22240  27.225  36.704   8.223
 1393POPC   C3A22241  27.424  36.694   7.769
 1393POPC   C4A22242  27.380  36.551   7.317
 1393POPC   C1B22243  27.020  37.263   8.836
 1393POPC   C2B22244  27.202  37.342   8.475
 1393POPC   C3B22245  27.443  37.166   8.175
 1393POPC   C4B22246  27.364  37.201   7.772
 1394POPC   NC322247  32.026  10.251   9.589
 1394POPC   PO422248  32.479  10.662   9.565
 1394POPC   GL122249  32.417  10.336   9.224
 1394POPC   GL222250  32.565  10.016   9.270
 1394POPC   C1A22251  32.385  10.349   8.752
 1394POPC   D2A22252  32.450  10.534   8.303
 1394POPC   C3A22253  32.070  10.479   8.020
 1394POPC   C4A22254  31.806  10.533   7.648
 1394POPC   C1B22255  32.725   9.959   8.846
 1394POPC   C2B22256  32.607  10.041   8.382
 1394POPC   C3B22257  32.473  10.164   7.935
 1394POPC   C4B22258  32.248  10.244   7.533
 1395POPC   NC322259  24.000  10.096   9.314
 1395POPC   PO422260  23.679  10.643   9.582
 1395POPC   GL122261  23.508  10.702   9.186
 1395POPC   GL222262  23.541  10.357   9.108
 1395POPC   C1A22263  23.465  10.682   8.741
 1395POPC   D2A22264  23.432  10.436   8.391
 1395POPC   C3A22265  23.675  10.472   8.042
 1395POPC   C4A22266  23.470  10.634   7.704
 1395POPC   C1B22267  23.630  10.129   8.732
 1395POPC   C2B22268  23.858  10.085   8.348
 1395POPC   C3B22269  24.108  10.187   7.981
 1395POPC   C4B22270  23.958  10.406   7.626
 1396POPC   NC322271  15.822  22.113   9.662
 1396POPC   PO422272  15.707  22.786   9.463
 1396POPC   GL122273  15.714  22.362   9.197
 1396POPC   GL222274  15.936  22.071   9.150
 1396POPC   C1A22275  15.633  22.114   8.763
 1396POPC   D2A22276  15.966  22.005   8.443
 1396POPC   C3A22277  15.968  22.165   8.009
 1396POPC   C4A22278  15.699  22.082   7.625
 1396POPC   C1B22279  16.053  22.407   8.795
 1396POPC   C2B22280  16.271  22.434   8.372
 1396POPC   C3B22281  16.233  22.651   7.995
 1396POPC   C4B22282  15.982  22.540   7.646
 1397POPC   NC322283  26.690  36.506   9.305
 1397POPC   PO422284  27.082  36.977   9.559
 1397POPC   GL122285  26.889  36.924   9.156
 1397POPC   GL222286  26.566  36.995   9.154
 1397POPC   C1A22287  26.847  36.796   8.704
 1397POPC   D2A22288  26.821  37.018   8.307
 1397POPC   C3A22289  26.941  36.908   7.847
 1397POPC   C4A22290  26.923  36.553   7.541
 1397POPC   C1B22291  26.493  37.160   8.741
 1397POPC   C2B22292  26.343  37.197   8.302
 1397POPC   C3B22293  26.504  37.201   7.889
 1397POPC   C4B22294  26.793  37.320   7.562
 1398POPC   NC322295   7.012  32.799   9.573
 1398POPC   PO422296   7.578  32.380   9.438
 1398POPC   GL122297   7.318  32.225   9.093
 1398POPC   GL222298   7.036  32.063   9.252
 1398POPC   C1A22299   7.358  32.140   8.636
 1398POPC   D2A22300   7.196  32.240   8.223
 1398POPC   C3A22301   7.456  32.439   7.901
 1398POPC   C4A22302   7.781  32.351   7.594
 1398POPC   C1B22303   7.062  31.815   8.879
 1398POPC   C2B22304   7.047  31.768   8.441
 1398POPC   C3B22305   7.191  31.751   8.025
 1398POPC   C4B22306   7.495  31.935   7.744
 1399POPC   NC322307  21.449  14.973   9.520
 1399POPC   PO422308  21.586  15.537   9.698
 1399POPC   GL122309  21.615  15.366   9.235
 1399POPC   GL222310  21.920  15.434   9.055
 1399POPC   C1A22311  21.527  15.111   8.829
 1399POPC   D2A22312  21.345  14.852   8.487
 1399POPC   C3A22313  21.389  15.045   8.104
 1399POPC   C4A22314  21.540  15.213   7.749
 1399POPC   C1B22315  21.998  15.609   8.685
 1399POPC   C2B22316  21.752  15.393   8.391
 1399POPC   C3B22317  21.969  15.281   8.049
 1399POPC   C4B22318  22.088  15.227   7.634
 1400POPC   NC322319  39.236  40.579   9.707
 1400POPC   PO422320  38.497  40.728   9.660
 1400POPC   GL122321  38.388  40.654   9.233
 1400POPC   GL222322  38.634  40.793   9.054
 1400POPC   C1A22323  38.321  40.559   8.762
 1400POPC   D2A22324  38.589  40.719   8.437
 1400POPC   C3A22325  38.323  40.783   8.074
 1400POPC   C4A22326  38.238  40.779   7.647
 1400POPC   C1B22327  38.672  41.162   8.832
 1400POPC   C2B22328  38.811  41.225   8.412
 1400POPC   C3B22329  38.755  41.046   8.009
 1400POPC   C4B22330  38.561  41.166   7.647
 1401POPC   NC322331  37.188   1.884   9.645
 1401POPC   PO422332  36.618   2.090   9.600
 1401POPC   GL122333  36.799   1.887   9.224
 1401POPC   GL222334  37.156   1.796   9.158
 1401POPC   C1A22335  36.633   1.702   8.845
 1401POPC   D2A22336  36.660   1.939   8.463
 1401POPC   C3A22337  36.818   1.850   8.020
 1401POPC   C4A22338  36.732   2.151   7.695
 1401POPC   C1B22339  37.066   1.976   8.771
 1401POPC   C2B22340  37.175   2.040   8.337
 1401POPC   C3B22341  37.188   2.212   7.902
 1401POPC   C4B22342  37.292   2.068   7.488
 1402POPC   NC322343  42.040  25.638   9.472
 1402POPC   PO422344  42.532  26.100   9.538
 1402POPC   GL122345  42.381  25.937   9.192
 1402POPC   GL222346  42.085  26.109   9.222
 1402POPC   C1A22347  42.431  26.032   8.757
 1402POPC   D2A22348  42.503  25.897   8.346
 1402POPC   C3A22349  42.601  26.066   7.922
 1402POPC   C4A22350  42.681  25.800   7.557
 1402POPC   C1B22351  41.970  25.876   8.861
 1402POPC   C2B22352  41.981  25.828   8.415
 1402POPC   C3B22353  42.151  25.783   7.984
 1402POPC   C4B22354  41.927  25.640   7.631
 1403POPC   NC322355  42.664  40.271   9.574
 1403POPC   PO422356  42.292  39.732   9.465
 1403POPC   GL122357  42.441  39.937   9.148
 1403POPC   GL222358  42.367  40.272   9.137
 1403POPC   C1A22359  42.322  39.932   8.721
 1403POPC   D2A22360  42.536  40.043   8.366
 1403POPC   C3A22361  42.419  39.922   7.951
 1403POPC   C4A22362  42.374  39.874   7.505
 1403POPC   C1B22363  42.472  40.417   8.741
 1403POPC   C2B22364  42.264  40.468   8.356
 1403POPC   C3B22365  42.449  40.444   7.962
 1403POPC   C4B22366  42.250  40.351   7.591
 1404POPC   NC322367  21.393  37.470   9.626
 1404POPC   PO422368  21.511  36.752   9.532
 1404POPC   GL122369  21.517  36.895   9.136
 1404POPC   GL222370  21.364  37.195   9.133
 1404POPC   C1A22371  21.635  36.883   8.727
 1404POPC   D2A22372  21.849  36.740   8.347
 1404POPC   C3A22373  21.580  36.637   7.985
 1404POPC   C4A22374  21.367  36.815   7.607
 1404POPC   C1B22375  21.148  36.990   8.722
 1404POPC   C2B22376  21.323  37.033   8.277
 1404POPC   C3B22377  21.279  37.280   7.870
 1404POPC   C4B22378  21.217  37.299   7.406
 1405POPC   NC322379  28.873   2.107   9.507
 1405POPC   PO422380  29.491   1.731   9.566
 1405POPC   GL122381  29.370   2.050   9.254
 1405POPC   GL222382  29.115   1.991   9.007
 1405POPC   C1A22383  29.568   2.202   8.872
 1405POPC   D2A22384  29.700   2.188   8.437
 1405POPC   C3A22385  29.383   2.231   8.091
 1405POPC   C4A22386  29.297   2.161   7.643
 1405POPC   C1B22387  29.182   2.006   8.522
 1405POPC   C2B22388  28.994   1.883   8.091
 1405POPC   C3B22389  28.928   1.813   7.644
 1405POPC   C4B22390  29.221   1.828   7.267
 1406POPC   NC322391  32.965   0.970   9.442
 1406POPC   PO422392  33.590   1.374   9.566
 1406POPC   GL122393  33.204   1.358   9.213
 1406POPC   GL222394  32.965   1.614   9.174
 1406POPC   C1A22395  32.984   1.229   8.831
 1406POPC   D2A22396  33.074   1.295   8.398
 1406POPC   C3A22397  32.876   1.008   8.100
 1406POPC   C4A22398  33.150   0.900   7.787
 1406POPC   C1B22399  32.902   1.721   8.755
 1406POPC   C2B22400  32.614   1.530   8.468
 1406POPC   C3B22401  32.704   1.492   8.037
 1406POPC   C4B22402  32.963   1.360   7.674
 1407POPC   NC322403  21.457   7.958   9.490
 1407POPC   PO422404  21.778   8.558   9.504
 1407POPC   GL122405  21.698   8.264   9.158
 1407POPC   GL222406  21.354   8.327   9.158
 1407POPC   C1A22407  21.581   8.220   8.700
 1407POPC   D2A22408  21.376   8.458   8.363
 1407POPC   C3A22409  21.564   8.480   7.954
 1407POPC   C4A22410  21.468   8.240   7.640
 1407POPC   C1B22411  21.144   7.991   8.903
 1407POPC   C2B22412  21.179   7.939   8.462
 1407POPC   C3B22413  21.300   8.007   8.053
 1407POPC   C4B22414  21.109   7.876   7.632
 1408POPC   NC322415  42.823  27.472   9.804
 1408POPC   PO422416  43.225  27.910   9.454
 1408POPC   GL122417  42.942  27.580   9.239
 1408POPC   GL222418  42.583  27.634   9.273
 1408POPC   C1A22419  42.788  27.466   8.770
 1408POPC   D2A22420  42.780  27.378   8.260
 1408POPC   C3A22421  43.089  27.432   7.870
 1408POPC   C4A22422  43.351  27.654   7.531
 1408POPC   C1B22423  42.639  27.946   8.896
 1408POPC   C2B22424  42.574  27.840   8.408
 1408POPC   C3B22425  42.735  27.798   7.933
 1408POPC   C4B22426  42.856  27.697   7.471
 1409POPC   NC322427   5.484  10.012   9.715
 1409POPC   PO422428   5.375  10.682   9.383
 1409POPC   GL122429   5.059  10.520   9.100
 1409POPC   GL222430   4.837  10.207   9.195
 1409POPC   C1A22431   5.094  10.616   8.652
 1409POPC   D2A22432   5.017  10.852   8.283
 1409POPC   C3A22433   5.141  10.662   7.882
 1409POPC   C4A22434   5.305  10.341   7.598
 1409POPC   C1B22435   4.956  10.141   8.741
 1409POPC   C2B22436   5.104  10.236   8.287
 1409POPC   C3B22437   4.903  10.180   7.883
 1409POPC   C4B22438   4.808  10.431   7.479
 1410POPC   NC322439  24.380  22.523   9.828
 1410POPC   PO422440  24.539  23.075   9.490
 1410POPC   GL122441  24.342  23.046   9.123
 1410POPC   GL222442  24.712  23.020   9.007
 1410POPC   C1A22443  24.315  22.873   8.729
 1410POPC   D2A22444  24.586  23.042   8.444
 1410POPC   C3A22445  24.314  23.031   8.154
 1410POPC   C4A22446  24.376  22.992   7.775
 1410POPC   C1B22447  24.809  22.669   8.746
 1410POPC   C2B22448  24.561  22.534   8.411
 1410POPC   C3B22449  24.694  22.660   8.028
 1410POPC   C4B22450  24.597  22.573   7.603
 1411POPC   NC322451  16.981  15.896   9.475
 1411POPC   PO422452  16.315  15.773   9.648
 1411POPC   GL122453  16.513  15.808   9.234
 1411POPC   GL222454  16.680  16.119   9.140
 1411POPC   C1A22455  16.495  15.836   8.761
 1411POPC   D2A22456  16.314  15.899   8.336
 1411POPC   C3A22457  16.542  15.708   7.986
 1411POPC   C4A22458  16.633  15.802   7.559
 1411POPC   C1B22459  16.843  16.237   8.732
 1411POPC   C2B22460  16.686  16.433   8.325
 1411POPC   C3B22461  16.616  16.318   7.873
 1411POPC   C4B22462  16.884  16.359   7.496
 1412POPC   NC322463  43.625  40.915   9.483
 1412POPC   PO422464  43.015  40.550   9.432
 1412POPC   GL122465  43.337  40.627   9.173
 1412POPC   GL222466  43.268  40.950   9.104
 1412POPC   C1A22467  43.511  40.548   8.792
 1412POPC   D2A22468  43.409  40.663   8.390
 1412POPC   C3A22469  43.348  40.401   8.083
 1412POPC   C4A22470  42.963  40.521   7.886
 1412POPC   C1B22471  43.106  40.950   8.711
 1412POPC   C2B22472  43.217  41.140   8.346
 1412POPC   C3B22473  43.217  40.979   7.918
 1412POPC   C4B22474  43.225  41.345   7.629
 1413POPC   NC322475  35.020  44.946   9.695
 1413POPC   PO422476  35.328  44.391   9.596
 1413POPC   GL122477  35.264  44.583   9.214
 1413POPC   GL222478  35.084  44.907   9.196
 1413POPC   C1A22479  35.440  44.439   8.839
 1413POPC   D2A22480  35.601  44.617   8.470
 1413POPC   C3A22481  35.661  44.381   8.089
 1413POPC   C4A22482  35.733  44.547   7.703
 1413POPC   C1B22483  35.224  44.891   8.767
 1413POPC   C2B22484  35.107  44.700   8.388
 1413POPC   C3B22485  35.299  44.707   8.002
 1413POPC   C4B22486  35.211  44.872   7.635
 1414POPC   NC322487   2.659   7.524   9.543
 1414POPC   PO422488   3.254   7.117   9.480
 1414POPC   GL122489   2.966   7.353   9.212
 1414POPC   GL222490   3.090   7.519   9.028
 1414POPC   C1A22491   2.602   7.470   8.903
 1414POPC   D2A22492   2.516   7.381   8.483
 1414POPC   C3A22493   2.732   7.571   8.164
 1414POPC   C4A22494   2.682   7.323   7.784
 1414POPC   C1B22495   2.981   7.270   8.655
 1414POPC   C2B22496   2.944   7.094   8.229
 1414POPC   C3B22497   3.053   6.963   7.835
 1414POPC   C4B22498   3.048   7.204   7.439
 1415POPC   NC322499  36.024  28.931   9.499
 1415POPC   PO422500  36.359  29.508   9.454
 1415POPC   GL122501  36.335  29.281   9.092
 1415POPC   GL222502  35.991  29.179   9.064
 1415POPC   C1A22503  36.248  29.308   8.644
 1415POPC   D2A22504  36.092  29.054   8.315
 1415POPC   C3A22505  36.054  29.210   7.903
 1415POPC   C4A22506  35.861  29.602   7.799
 1415POPC   C1B22507  35.914  28.822   8.801
 1415POPC   C2B22508  35.776  28.686   8.435
 1415POPC   C3B22509  35.816  28.727   8.014
 1415POPC   C4B22510  35.888  28.808   7.586
 1416POPC   NC322511  17.769  23.547   9.567
 1416POPC   PO422512  17.066  23.607   9.417
 1416POPC   GL122513  17.300  23.754   9.096
 1416POPC   GL222514  17.635  23.844   9.148
 1416POPC   C1A22515  17.363  23.731   8.683
 1416POPC   D2A22516  17.634  23.854   8.398
 1416POPC   C3A22517  17.485  23.704   8.046
 1416POPC   C4A22518  17.421  24.072   7.843
 1416POPC   C1B22519  17.731  23.471   8.905
 1416POPC   C2B22520  17.826  23.394   8.498
 1416POPC   C3B22521  17.947  23.270   8.077
 1416POPC   C4B22522  17.622  23.261   7.786
 1417POPC   NC322523  38.328  14.355   9.583
 1417POPC   PO422524  38.994  14.115   9.510
 1417POPC   GL122525  38.688  14.363   9.236
 1417POPC   GL222526  38.385  14.205   9.096
 1417POPC   C1A22527  38.651  14.538   8.814
 1417POPC   D2A22528  38.845  14.490   8.407
 1417POPC   C3A22529  38.591  14.469   8.036
 1417POPC   C4A22530  38.487  14.758   7.724
 1417POPC   C1B22531  38.303  14.212   8.655
 1417POPC   C2B22532  38.224  14.543   8.399
 1417POPC   C3B22533  38.025  14.547   8.012
 1417POPC   C4B22534  38.046  14.223   7.728
 1418POPC   NC322535  15.416  37.366   9.627
 1418POPC   PO422536  14.875  37.823   9.640
 1418POPC   GL122537  15.184  37.731   9.322
 1418POPC   GL222538  15.037  37.961   9.143
 1418POPC   C1A22539  15.395  37.740   8.874
 1418POPC   D2A22540  15.340  37.991   8.452
 1418POPC   C3A22541  15.527  37.851   8.053
 1418POPC   C4A22542  15.483  37.537   7.705
 1418POPC   C1B22543  14.917  37.833   8.725
 1418POPC   C2B22544  14.743  37.797   8.304
 1418POPC   C3B22545  14.954  37.793   7.889
 1418POPC   C4B22546  15.272  37.974   7.619
 1419POPC   NC322547   9.550   6.587   9.613
 1419POPC   PO422548  10.132   6.898   9.494
 1419POPC   GL122549   9.887   6.629   9.205
 1419POPC   GL222550   9.541   6.517   9.129
 1419POPC   C1A22551   9.935   6.436   8.824
 1419POPC   D2A22552  10.145   6.479   8.469
 1419POPC   C3A22553   9.901   6.553   8.141
 1419POPC   C4A22554  10.020   6.524   7.731
 1419POPC   C1B22555   9.333   6.750   8.851
 1419POPC   C2B22556   9.230   6.674   8.430
 1419POPC   C3B22557   9.309   6.805   8.010
 1419POPC   C4B22558   9.516   6.604   7.681
 1420POPC   NC322559  21.980  28.706   9.659
 1420POPC   PO422560  21.920  27.894   9.502
 1420POPC   GL122561  22.135  28.307   9.301
 1420POPC   GL222562  21.971  28.651   9.167
 1420POPC   C1A22563  22.290  28.415   8.876
 1420POPC   D2A22564  22.183  28.227   8.509
 1420POPC   C3A22565  22.134  28.438   8.143
 1420POPC   C4A22566  22.418  28.323   7.818
 1420POPC   C1B22567  21.910  28.820   8.792
 1420POPC   C2B22568  22.016  28.875   8.402
 1420POPC   C3B22569  21.807  28.827   8.012
 1420POPC   C4B22570  22.084  28.674   7.687
 1421POPC   NC322571   6.018  22.511   9.576
 1421POPC   PO422572   5.496  22.143   9.536
 1421POPC   GL122573   5.776  22.266   9.177
 1421POPC   GL222574   6.157  22.229   9.189
 1421POPC   C1A22575   5.689  22.295   8.723
 1421POPC   D2A22576   5.745  21.986   8.363
 1421POPC   C3A22577   5.893  22.105   7.960
 1421POPC   C4A22578   6.257  21.992   7.742
 1421POPC   C1B22579   6.129  22.523   8.857
 1421POPC   C2B22580   6.111  22.385   8.431
 1421POPC   C3B22581   6.113  22.566   8.050
 1421POPC   C4B22582   6.135  22.479   7.636
 1422POPC   NC322583  26.444   5.371   9.503
 1422POPC   PO422584  25.773   5.350   9.519
 1422POPC   GL122585  26.058   5.194   9.198
 1422POPC   GL222586  26.212   4.895   9.267
 1422POPC   C1A22587  25.982   5.074   8.769
 1422POPC   D2A22588  26.213   5.139   8.416
 1422POPC   C3A22589  25.967   5.420   8.155
 1422POPC   C4A22590  25.870   5.399   7.708
 1422POPC   C1B22591  26.407   4.843   8.849
 1422POPC   C2B22592  26.446   4.640   8.473
 1422POPC   C3B22593  26.263   4.700   8.085
 1422POPC   C4B22594  26.238   5.079   7.904
 1423POPC   NC322595  19.555  25.024   9.529
 1423POPC   PO422596  20.215  24.901   9.700
 1423POPC   GL122597  20.090  25.070   9.295
 1423POPC   GL222598  19.834  25.327   9.202
 1423POPC   C1A22599  20.085  25.003   8.848
 1423POPC   D2A22600  19.841  25.023   8.453
 1423POPC   C3A22601  19.976  25.278   8.107
 1423POPC   C4A22602  20.016  25.149   7.691
 1423POPC   C1B22603  19.643  25.369   8.776
 1423POPC   C2B22604  19.497  25.387   8.327
 1423POPC   C3B22605  19.501  25.317   7.880
 1423POPC   C4B22606  19.575  25.593   7.560
 1424POPC   NC322607   5.061  22.246   9.425
 1424POPC   PO422608   5.280  21.652   9.218
 1424POPC   GL122609   4.994  21.910   9.065
 1424POPC   GL222610   5.298  22.122   9.017
 1424POPC   C1A22611   4.809  22.209   8.777
 1424POPC   D2A22612   4.833  22.415   8.368
 1424POPC   C3A22613   4.734  22.248   7.971
 1424POPC   C4A22614   4.860  22.061   7.584
 1424POPC   C1B22615   5.303  21.960   8.642
 1424POPC   C2B22616   5.303  22.244   8.343
 1424POPC   C3B22617   5.209  22.075   7.991
 1424POPC   C4B22618   5.475  21.804   7.890
 1425POPC   NC322619  14.797   6.297  10.022
 1425POPC   PO422620  15.299   6.480   9.555
 1425POPC   GL122621  15.223   6.608   9.163
 1425POPC   GL222622  14.874   6.614   9.204
 1425POPC   C1A22623  15.403   6.580   8.753
 1425POPC   D2A22624  15.578   6.490   8.332
 1425POPC   C3A22625  15.319   6.653   7.993
 1425POPC   C4A22626  15.307   6.829   7.556
 1425POPC   C1B22627  14.897   6.425   8.797
 1425POPC   C2B22628  14.951   6.535   8.367
 1425POPC   C3B22629  15.001   6.240   8.022
 1425POPC   C4B22630  15.160   6.347   7.615
 1426POPC   NC322631  23.139   4.506   9.441
 1426POPC   PO422632  22.755   3.962   9.665
 1426POPC   GL122633  22.712   4.271   9.240
 1426POPC   GL222634  23.018   4.257   9.026
 1426POPC   C1A22635  22.658   4.569   8.868
 1426POPC   D2A22636  22.828   4.667   8.458
 1426POPC   C3A22637  22.705   4.507   8.071
 1426POPC   C4A22638  23.007   4.477   7.739
 1426POPC   C1B22639  23.065   4.192   8.585
 1426POPC   C2B22640  23.039   4.144   8.140
 1426POPC   C3B22641  23.284   4.035   7.787
 1426POPC   C4B22642  23.236   4.214   7.355
 1427POPC   NC322643  24.911  32.331   9.566
 1427POPC   PO422644  25.561  32.441   9.380
 1427POPC   GL122645  25.225  32.301   9.132
 1427POPC   GL222646  24.935  32.485   9.101
 1427POPC   C1A22647  25.308  32.310   8.710
 1427POPC   D2A22648  25.540  32.185   8.354
 1427POPC   C3A22649  25.287  32.217   7.982
 1427POPC   C4A22650  25.426  32.453   7.597
 1427POPC   C1B22651  24.965  32.696   8.745
 1427POPC   C2B22652  25.073  32.604   8.352
 1427POPC   C3B22653  24.893  32.557   7.989
 1427POPC   C4B22654  24.937  32.446   7.570
 1428POPC   NC322655  19.757  19.582   9.508
 1428POPC   PO422656  20.396  19.959   9.395
 1428POPC   GL122657  20.026  19.950   9.144
 1428POPC   GL222658  20.083  19.581   9.136
 1428POPC   C1A22659  19.841  20.136   8.722
 1428POPC   D2A22660  19.624  20.071   8.272
 1428POPC   C3A22661  19.825  20.112   7.843
 1428POPC   C4A22662  20.072  20.204   7.433
 1428POPC   C1B22663  19.774  19.628   8.820
 1428POPC   C2B22664  19.864  19.575   8.388
 1428POPC   C3B22665  19.712  19.581   7.966
 1428POPC   C4B22666  19.624  19.472   7.541
 1429POPC   NC322667  43.446   4.497   9.642
 1429POPC   PO422668  42.873   4.205   9.592
 1429POPC   GL122669  43.131   4.129   9.200
 1429POPC   GL222670  43.331   3.837   9.274
 1429POPC   C1A22671  43.030   4.189   8.712
 1429POPC   D2A22672  42.905   4.142   8.243
 1429POPC   C3A22673  43.058   4.507   7.968
 1429POPC   C4A22674  43.209   4.755   7.589
 1429POPC   C1B22675  43.312   3.796   8.857
 1429POPC   C2B22676  43.299   3.842   8.400
 1429POPC   C3B22677  43.336   4.031   7.978
 1429POPC   C4B22678  43.201   4.208   7.575
 1430POPC   NC322679  28.618  21.410   9.543
 1430POPC   PO422680  28.053  21.089   9.660
 1430POPC   GL122681  28.178  21.283   9.249
 1430POPC   GL222682  28.079  21.622   9.056
 1430POPC   C1A22683  28.398  21.244   8.872
 1430POPC   D2A22684  28.555  21.306   8.454
 1430POPC   C3A22685  28.511  21.027   8.108
 1430POPC   C4A22686  28.659  21.140   7.695
 1430POPC   C1B22687  28.441  21.754   8.745
 1430POPC   C2B22688  28.499  21.811   8.286
 1430POPC   C3B22689  28.368  21.567   7.908
 1430POPC   C4B22690  28.135  21.432   7.544
 1431POPC   NC322691   8.525  27.728   9.784
 1431POPC   PO422692   9.186  27.589   9.570
 1431POPC   GL122693   9.023  27.450   9.174
 1431POPC   GL222694   8.683  27.337   9.245
 1431POPC   C1A22695   9.111  27.672   8.772
 1431POPC   D2A22696   9.105  27.960   8.429
 1431POPC   C3A22697   9.143  27.701   8.072
 1431POPC   C4A22698   8.979  27.336   7.890
 1431POPC   C1B22699   8.611  27.564   8.835
 1431POPC   C2B22700   8.715  27.630   8.377
 1431POPC   C3B22701   8.603  27.695   7.928
 1431POPC   C4B22702   8.816  27.623   7.481
 1432POPC   NC322703  15.730  43.391   9.425
 1432POPC   PO422704  16.176  42.889   9.579
 1432POPC   GL122705  16.071  43.049   9.183
 1432POPC   GL222706  16.179  43.367   9.049
 1432POPC   C1A22707  15.985  42.904   8.773
 1432POPC   D2A22708  15.720  42.885   8.422
 1432POPC   C3A22709  15.883  42.809   8.011
 1432POPC   C4A22710  15.738  43.078   7.702
 1432POPC   C1B22711  16.176  43.345   8.588
 1432POPC   C2B22712  15.962  43.286   8.193
 1432POPC   C3B22713  15.957  43.533   7.844
 1432POPC   C4B22714  16.090  43.541   7.427
 1433POPC   NC322715  20.466  19.502   9.489
 1433POPC   PO422716  20.932  19.861   9.695
 1433POPC   GL122717  20.868  19.850   9.199
 1433POPC   GL222718  20.594  19.618   9.013
 1433POPC   C1A22719  20.788  20.001   8.740
 1433POPC   D2A22720  20.635  19.816   8.334
 1433POPC   C3A22721  20.747  19.993   7.929
 1433POPC   C4A22722  20.849  19.766   7.533
 1433POPC   C1B22723  20.281  19.825   8.720
 1433POPC   C2B22724  20.153  20.029   8.333
 1433POPC   C3B22725  20.183  19.787   7.998
 1433POPC   C4B22726  20.353  19.826   7.605
 1434POPC   NC322727  41.683  43.253   9.479
 1434POPC   PO422728  41.122  43.660   9.284
 1434POPC   GL122729  41.349  43.300   9.072
 1434POPC   GL222730  41.436  42.947   9.116
 1434POPC   C1A22731  41.663  43.245   8.772
 1434POPC   D2A22732  41.463  43.308   8.392
 1434POPC   C3A22733  41.729  43.298   8.060
 1434POPC   C4A22734  41.879  43.273   7.673
 1434POPC   C1B22735  41.482  42.760   8.692
 1434POPC   C2B22736  41.250  42.808   8.309
 1434POPC   C3B22737  41.278  43.087   7.967
 1434POPC   C4B22738  41.450  42.949   7.576
 1435POPC   NC322739  26.714  17.824   9.441
 1435POPC   PO422740  26.914  17.231   9.703
 1435POPC   GL122741  26.908  17.131   9.217
 1435POPC   GL222742  26.603  17.369   9.184
 1435POPC   C1A22743  27.032  17.152   8.775
 1435POPC   D2A22744  26.948  17.402   8.415
 1435POPC   C3A22745  26.774  17.324   8.015
 1435POPC   C4A22746  27.017  17.696   7.840
 1435POPC   C1B22747  26.610  17.561   8.772
 1435POPC   C2B22748  26.459  17.571   8.336
 1435POPC   C3B22749  26.489  17.695   7.860
 1435POPC   C4B22750  26.463  17.643   7.352
 1436POPC   NC322751   7.842  26.049   9.388
 1436POPC   PO422752   7.218  25.950   9.457
 1436POPC   GL122753   7.361  25.993   9.062
 1436POPC   GL222754   7.562  26.279   9.044
 1436POPC   C1A22755   7.418  25.691   8.720
 1436POPC   D2A22756   7.658  25.709   8.333
 1436POPC   C3A22757   7.372  25.699   8.015
 1436POPC   C4A22758   7.310  25.677   7.584
 1436POPC   C1B22759   7.714  26.100   8.649
 1436POPC   C2B22760   7.688  26.216   8.189
 1436POPC   C3B22761   7.459  26.146   7.798
 1436POPC   C4B22762   7.093  26.140   7.516
 1437POPC   NC322763  22.885  36.943   9.606
 1437POPC   PO422764  23.440  37.206   9.328
 1437POPC   GL122765  23.088  37.015   9.079
 1437POPC   GL222766  22.728  36.866   9.136
 1437POPC   C1A22767  23.139  37.038   8.640
 1437POPC   D2A22768  23.383  36.901   8.326
 1437POPC   C3A22769  23.189  37.011   7.945
 1437POPC   C4A22770  22.970  36.768   7.676
 1437POPC   C1B22771  22.644  37.059   8.753
 1437POPC   C2B22772  22.747  37.101   8.301
 1437POPC   C3B22773  22.669  37.129   7.883
 1437POPC   C4B22774  22.455  36.896   7.589
 1438POPC   NC322775  22.508  18.279   9.586
 1438POPC   PO422776  23.247  18.167   9.594
 1438POPC   GL122777  23.049  18.049   9.212
 1438POPC   GL222778  22.690  17.993   9.194
 1438POPC   C1A22779  23.171  18.183   8.836
 1438POPC   D2A22780  23.212  18.216   8.428
 1438POPC   C3A22781  23.261  18.557   8.212
 1438POPC   C4A22782  23.373  18.343   7.880
 1438POPC   C1B22783  22.670  17.977   8.767
 1438POPC   C2B22784  22.707  18.237   8.444
 1438POPC   C3B22785  22.838  18.316   8.038
 1438POPC   C4B22786  22.701  18.373   7.644
 1439POPC   NC322787  44.402  36.164   9.307
 1439POPC   PO422788  44.972  36.460   9.444
 1439POPC   GL122789   0.013  36.122   9.125
 1439POPC   GL222790  44.727  35.855   9.041
 1439POPC   C1A22791  44.866  36.190   8.698
 1439POPC   D2A22792  44.607  36.122   8.352
 1439POPC   C3A22793  44.797  36.034   7.954
 1439POPC   C4A22794  44.862  36.267   7.590
 1439POPC   C1B22795  44.329  35.874   8.738
 1439POPC   C2B22796  44.115  35.982   8.320
 1439POPC   C3B22797  44.286  35.971   7.929
 1439POPC   C4B22798  44.329  35.639   7.650
 1440POPC   NC322799  42.430  37.403   9.752
 1440POPC   PO422800  42.391  36.652   9.657
 1440POPC   GL122801  42.384  36.862   9.239
 1440POPC   GL222802  42.402  37.237   9.255
 1440POPC   C1A22803  42.380  36.767   8.794
 1440POPC   D2A22804  42.526  36.663   8.371
 1440POPC   C3A22805  42.504  36.690   7.926
 1440POPC   C4A22806  42.204  36.792   7.591
 1440POPC   C1B22807  42.236  37.261   8.827
 1440POPC   C2B22808  42.439  37.177   8.416
 1440POPC   C3B22809  42.386  37.182   7.982
 1440POPC   C4B22810  42.515  37.185   7.515
 1441POPC   NC322811  40.115  14.714   9.437
 1441POPC   PO422812  39.889  14.169   9.763
 1441POPC   GL122813  40.164  14.221   9.301
 1441POPC   GL222814  40.113  13.976   9.036
 1441POPC   C1A22815  40.206  14.424   8.834
 1441POPC   D2A22816  40.297  14.326   8.354
 1441POPC   C3A22817  40.128  14.590   7.992
 1441POPC   C4A22818  39.716  14.721   7.786
 1441POPC   C1B22819  39.806  14.088   8.670
 1441POPC   C2B22820  39.607  14.006   8.248
 1441POPC   C3B22821  39.811  14.208   7.903
 1441POPC   C4B22822  40.253  14.117   7.809
 1442POPC   NC322823  37.445   1.435   9.425
 1442POPC   PO422824  37.391   0.767   9.379
 1442POPC   GL122825  37.581   1.051   9.104
 1442POPC   GL222826  37.828   0.873   8.958
 1442POPC   C1A22827  37.545   1.224   8.715
 1442POPC   D2A22828  37.321   1.118   8.364
 1442POPC   C3A22829  37.590   1.199   8.007
 1442POPC   C4A22830  37.910   1.528   7.877
 1442POPC   C1B22831  38.060   1.158   8.716
 1442POPC   C2B22832  38.006   1.259   8.309
 1442POPC   C3B22833  38.097   1.063   7.927
 1442POPC   C4B22834  38.081   1.244   7.494
 1443POPC   NC322835  18.453   5.109   9.448
 1443POPC   PO422836  18.670   5.734   9.374
 1443POPC   GL122837  18.493   5.417   9.066
 1443POPC   GL222838  18.114   5.294   9.095
 1443POPC   C1A22839  18.498   5.164   8.723
 1443POPC   D2A22840  18.459   5.327   8.336
 1443POPC   C3A22841  18.255   5.189   8.007
 1443POPC   C4A22842  18.474   5.116   7.663
 1443POPC   C1B22843  18.035   4.963   8.760
 1443POPC   C2B22844  18.286   4.813   8.391
 1443POPC   C3B22845  18.262   4.680   7.951
 1443POPC   C4B22846  17.998   4.889   7.633
 1444POPC   NC322847   6.938  37.836   9.718
 1444POPC   PO422848   6.584  37.338   9.780
 1444POPC   GL122849   6.640  37.540   9.312
 1444POPC   GL222850   6.632  37.886   9.244
 1444POPC   C1A22851   6.553  37.394   8.853
 1444POPC   D2A22852   6.550  37.160   8.454
 1444POPC   C3A22853   6.400  37.351   8.113
 1444POPC   C4A22854   6.633  37.530   7.796
 1444POPC   C1B22855   6.789  37.842   8.821
 1444POPC   C2B22856   6.784  37.651   8.428
 1444POPC   C3B22857   6.888  37.879   8.073
 1444POPC   C4B22858   6.747  38.005   7.663
 1445POPC   NC322859  37.475  42.874   9.386
 1445POPC   PO422860  37.771  43.536   9.527
 1445POPC   GL122861  37.629  43.320   9.186
 1445POPC   GL222862  37.925  43.118   9.166
 1445POPC   C1A22863  37.549  43.201   8.770
 1445POPC   D2A22864  37.359  43.280   8.369
 1445POPC   C3A22865  37.587  43.130   8.012
 1445POPC   C4A22866  37.603  43.387   7.669
 1445POPC   C1B22867  37.974  42.861   8.813
 1445POPC   C2B22868  37.897  42.940   8.399
 1445POPC   C3B22869  37.991  42.797   7.990
 1445POPC   C4B22870  37.942  43.013   7.607
 1446POPC   NC322871  37.559   2.453   9.151
 1446POPC   PO422872  37.697   1.918   9.571
 1446POPC   GL122873  37.698   1.800   9.148
 1446POPC   GL222874  37.879   1.511   9.026
 1446POPC   C1A22875  37.508   1.745   8.745
 1446POPC   D2A22876  37.538   1.584   8.336
 1446POPC   C3A22877  37.494   1.814   7.960
 1446POPC   C4A22878  37.837   2.012   7.794
 1446POPC   C1B22879  38.016   1.670   8.619
 1446POPC   C2B22880  38.096   1.988   8.296
 1446POPC   C3B22881  38.077   2.373   8.052
 1446POPC   C4B22882  38.159   2.403   7.628
 1447POPC   NC322883  24.281  35.695   9.443
 1447POPC   PO422884  24.469  35.021   9.499
 1447POPC   GL122885  24.525  35.299   9.194
 1447POPC   GL222886  24.140  35.302   9.154
 1447POPC   C1A22887  24.479  35.281   8.769
 1447POPC   D2A22888  24.242  35.332   8.414
 1447POPC   C3A22889  24.506  35.473   8.085
 1447POPC   C4A22890  24.441  35.690   7.688
 1447POPC   C1B22891  24.087  34.971   8.850
 1447POPC   C2B22892  24.071  34.845   8.426
 1447POPC   C3B22893  24.271  34.949   8.059
 1447POPC   C4B22894  24.144  35.260   7.774
 1448POPC   NC322895   2.728  39.664   9.702
 1448POPC   PO422896   2.989  39.018   9.563
 1448POPC   GL122897   2.895  39.131   9.144
 1448POPC   GL222898   3.040  39.451   9.042
 1448POPC   C1A22899   3.117  39.033   8.738
 1448POPC   D2A22900   3.034  39.169   8.314
 1448POPC   C3A22901   2.948  38.919   7.942
 1448POPC   C4A22902   2.767  39.158   7.622
 1448POPC   C1B22903   2.878  39.532   8.641
 1448POPC   C2B22904   2.520  39.628   8.328
 1448POPC   C3B22905   2.461  39.546   7.853
 1448POPC   C4B22906   2.581  39.560   7.366
 1449POPC   NC322907  43.635  31.245   9.580
 1449POPC   PO422908  43.906  31.872   9.545
 1449POPC   GL122909  43.848  31.745   9.123
 1449POPC   GL222910  43.862  31.389   9.085
 1449POPC   C1A22911  43.910  31.778   8.660
 1449POPC   D2A22912  43.676  31.575   8.311
 1449POPC   C3A22913  43.788  31.645   7.896
 1449POPC   C4A22914  44.269  31.639   7.825
 1449POPC   C1B22915  44.091  31.318   8.663
 1449POPC   C2B22916  44.114  31.335   8.209
 1449POPC   C3B22917  44.021  31.198   7.800
 1449POPC   C4B22918  43.598  31.144   7.711
 1450POPC   NC322919  18.787   0.377   9.494
 1450POPC   PO422920  19.508   0.245   9.505
 1450POPC   GL122921  19.204   0.213   9.200
 1450POPC   GL222922  19.133   0.560   9.148
 1450POPC   C1A22923  18.963   0.181   8.837
 1450POPC   D2A22924  18.788   0.213   8.441
 1450POPC   C3A22925  19.019   0.442   8.127
 1450POPC   C4A22926  19.246   0.287   7.741
 1450POPC   C1B22927  18.810   0.699   8.816
 1450POPC   C2B22928  18.691   0.938   8.426
 1450POPC   C3B22929  18.662   0.820   7.972
 1450POPC   C4B22930  19.061   0.783   7.736
 1451POPC   NC322931  37.539  41.321   9.381
 1451POPC   PO422932  37.900  41.847   9.495
 1451POPC   GL122933  37.724  41.728   9.153
 1451POPC   GL222934  37.942  41.456   9.128
 1451POPC   C1A22935  37.435  41.763   8.855
 1451POPC   D2A22936  37.428  41.626   8.472
 1451POPC   C3A22937  37.301  41.863   8.118
 1451POPC   C4A22938  37.409  41.799   7.683
 1451POPC   C1B22939  37.779  41.334   8.756
 1451POPC   C2B22940  37.917  41.475   8.399
 1451POPC   C3B22941  37.694  41.500   8.041
 1451POPC   C4B22942  37.870  41.605   7.689
 1452POPC   NC322943  13.436   6.587   9.486
 1452POPC   PO422944  13.928   7.090   9.744
 1452POPC   GL122945  13.835   6.940   9.267
 1452POPC   GL222946  13.834   6.663   9.145
 1452POPC   C1A22947  13.797   7.026   8.773
 1452POPC   D2A22948  13.667   6.765   8.370
 1452POPC   C3A22949  13.668   6.777   7.879
 1452POPC   C4A22950  13.790   7.037   7.520
 1452POPC   C1B22951  13.728   6.475   8.798
 1452POPC   C2B22952  13.986   6.279   8.514
 1452POPC   C3B22953  13.938   6.093   8.116
 1452POPC   C4B22954  13.765   6.283   7.752
 1453POPC   NC322955  44.443  13.479   9.433
 1453POPC   PO422956   0.131  13.373   9.346
 1453POPC   GL122957  44.827  13.503   9.081
 1453POPC   GL222958  44.697  13.806   9.140
 1453POPC   C1A22959  44.527  13.533   8.740
 1453POPC   D2A22960  44.651  13.676   8.337
 1453POPC   C3A22961  44.539  13.629   7.928
 1453POPC   C4A22962  44.673  13.359   7.655
 1453POPC   C1B22963  44.856  13.947   8.761
 1453POPC   C2B22964  44.942  14.139   8.359
 1453POPC   C3B22965   0.021  13.942   7.937
 1453POPC   C4B22966   0.037  13.971   7.434
 1454POPC   NC322967  16.775  34.241   9.577
 1454POPC   PO422968  16.929  33.615   9.586
 1454POPC   GL122969  17.151  33.689   9.208
 1454POPC   GL222970  17.169  34.012   9.275
 1454POPC   C1A22971  17.187  33.468   8.807
 1454POPC   D2A22972  16.903  33.397   8.428
 1454POPC   C3A22973  16.944  33.627   8.028
 1454POPC   C4A22974  16.767  33.694   7.588
 1454POPC   C1B22975  16.887  34.069   8.874
 1454POPC   C2B22976  16.833  34.158   8.383
 1454POPC   C3B22977  16.628  34.033   7.949
 1454POPC   C4B22978  16.585  34.213   7.508
 1455POPC   NC322979   6.176   7.708   9.570
 1455POPC   PO422980   6.757   7.372   9.551
 1455POPC   GL122981   6.597   7.380   9.173
 1455POPC   GL222982   6.452   7.713   9.132
 1455POPC   C1A22983   6.626   7.212   8.781
 1455POPC   D2A22984   6.822   7.336   8.421
 1455POPC   C3A22985   6.657   7.303   8.038
 1455POPC   C4A22986   6.676   7.170   7.623
 1455POPC   C1B22987   6.757   7.713   8.791
 1455POPC   C2B22988   6.676   7.847   8.375
 1455POPC   C3B22989   6.331   7.865   8.069
 1455POPC   C4B22990   6.516   7.679   7.706
 1456POPC   NC322991  16.108   4.629   9.515
 1456POPC   PO422992  16.664   4.173   9.491
 1456POPC   GL122993  16.666   4.323   9.081
 1456POPC   GL222994  16.527   4.669   9.117
 1456POPC   C1A22995  16.872   4.172   8.705
 1456POPC   D2A22996  17.091   4.100   8.300
 1456POPC   C3A22997  16.779   3.959   8.022
 1456POPC   C4A22998  16.710   4.047   7.595
 1456POPC   C1B22999  16.816   4.684   8.747
 1456POPC   C2B23000  16.772   4.512   8.311
 1456POPC   C3B23001  16.641   4.480   7.879
 1456POPC   C4B23002  16.505   4.588   7.445
 1457POPC   NC323003   6.659  39.759   9.514
 1457POPC   PO423004   6.840  40.387   9.608
 1457POPC   GL123005   6.757  40.141   9.200
 1457POPC   GL223006   6.381  40.074   9.200
 1457POPC   C1A23007   6.628  40.045   8.763
 1457POPC   D2A23008   6.820  39.996   8.380
 1457POPC   C3A23009   6.578  40.050   8.044
 1457POPC   C4A23010   6.861  40.047   7.735
 1457POPC   C1B23011   6.297  39.681   8.908
 1457POPC   C2B23012   6.446  39.641   8.460
 1457POPC   C3B23013   6.261  39.638   8.040
 1457POPC   C4B23014   6.475  39.701   7.659
 1458POPC   NC323015   1.236  36.985   9.528
 1458POPC   PO423016   0.826  37.434   9.193
 1458POPC   GL123017   1.065  37.084   9.050
 1458POPC   GL223018   1.465  37.012   9.074
 1458POPC   C1A23019   1.208  37.106   8.638
 1458POPC   D2A23020   1.308  37.303   8.258
 1458POPC   C3A23021   1.125  37.013   7.981
 1458POPC   C4A23022   1.184  36.858   7.611
 1458POPC   C1B23023   1.449  36.683   8.736
 1458POPC   C2B23024   1.473  36.783   8.304
 1458POPC   C3B23025   1.463  36.564   7.931
 1458POPC   C4B23026   1.493  36.461   7.494
 1459POPC   NC323027   2.422  34.191   9.492
 1459POPC   PO423028   2.361  33.521   9.592
 1459POPC   GL123029   2.579  33.790   9.228
 1459POPC   GL223030   2.366  34.042   8.989
 1459POPC   C1A23031   2.797  33.864   8.839
 1459POPC   D2A23032   2.568  33.891   8.450
 1459POPC   C3A23033   2.836  33.787   8.140
 1459POPC   C4A23034   2.790  33.660   7.769
 1459POPC   C1B23035   2.263  34.264   8.607
 1459POPC   C2B23036   2.233  34.197   8.165
 1459POPC   C3B23037   2.542  34.114   7.856
 1459POPC   C4B23038   2.968  34.119   7.729
 1460POPC   NC323039   0.075  11.065   9.510
 1460POPC   PO423040   0.700  11.140   9.567
 1460POPC   GL123041   0.475  11.342   9.188
 1460POPC   GL223042   0.176  11.177   9.050
 1460POPC   C1A23043   0.320  11.528   8.747
 1460POPC   D2A23044   0.400  11.395   8.316
 1460POPC   C3A23045   0.398  11.598   7.900
 1460POPC   C4A23046   0.583  11.509   7.484
 1460POPC   C1B23047   0.249  10.908   8.744
 1460POPC   C2B23048   0.185  10.948   8.336
 1460POPC   C3B23049   0.350  11.060   7.916
 1460POPC   C4B23050   0.191  10.923   7.517
 1461POPC   NC323051   7.163  36.122   9.737
 1461POPC   PO423052   6.947  35.757   9.265
 1461POPC   GL123053   7.298  36.046   9.146
 1461POPC   GL223054   7.229  36.363   9.111
 1461POPC   C1A23055   7.631  36.244   8.840
 1461POPC   D2A23056   7.632  36.052   8.463
 1461POPC   C3A23057   7.712  36.265   8.104
 1461POPC   C4A23058   7.603  36.048   7.764
 1461POPC   C1B23059   7.113  36.262   8.680
 1461POPC   C2B23060   7.183  36.198   8.212
 1461POPC   C3B23061   7.182  36.306   7.752
 1461POPC   C4B23062   7.281  36.485   7.301
 1462POPC   NC323063  33.471  23.602   9.397
 1462POPC   PO423064  32.800  23.471   9.435
 1462POPC   GL123065  33.055  23.635   9.093
 1462POPC   GL223066  33.194  23.978   9.147
 1462POPC   C1A23067  33.314  23.700   8.725
 1462POPC   D2A23068  33.180  23.481   8.368
 1462POPC   C3A23069  32.973  23.615   7.991
 1462POPC   C4A23070  33.109  23.702   7.581
 1462POPC   C1B23071  32.927  24.031   8.784
 1462POPC   C2B23072  33.057  23.978   8.362
 1462POPC   C3B23073  33.291  23.995   7.980
 1462POPC   C4B23074  33.205  24.244   7.602
 1463POPC   NC323075   6.304   3.625   9.582
 1463POPC   PO423076   5.631   3.583   9.490
 1463POPC   GL123077   5.912   3.405   9.235
 1463POPC   GL223078   6.071   3.660   9.137
 1463POPC   C1A23079   5.907   3.313   8.763
 1463POPC   D2A23080   5.684   3.540   8.376
 1463POPC   C3A23081   5.618   3.369   7.910
 1463POPC   C4A23082   5.560   3.347   7.411
 1463POPC   C1B23083   5.870   3.856   8.794
 1463POPC   C2B23084   5.975   3.989   8.388
 1463POPC   C3B23085   5.920   3.821   7.977
 1463POPC   C4B23086   5.942   3.646   7.558
 1464POPC   NC323087  24.077   5.486   9.865
 1464POPC   PO423088  23.591   5.855   9.872
 1464POPC   GL123089  23.619   5.780   9.354
 1464POPC   GL223090  23.294   5.661   9.187
 1464POPC   C1A23091  23.566   5.992   8.908
 1464POPC   D2A23092  23.673   5.815   8.503
 1464POPC   C3A23093  23.820   6.037   8.158
 1464POPC   C4A23094  24.040   5.867   7.804
 1464POPC   C1B23095  23.651   5.473   8.922
 1464POPC   C2B23096  23.691   5.307   8.476
 1464POPC   C3B23097  23.753   5.518   8.057
 1464POPC   C4B23098  23.481   5.829   7.840
 1465POPC   NC323099   8.739   3.471   9.493
 1465POPC   PO423100   9.367   3.666   9.561
 1465POPC   GL123101   9.150   3.639   9.186
 1465POPC   GL223102   9.180   3.283   9.127
 1465POPC   C1A23103   8.864   3.569   8.833
 1465POPC   D2A23104   9.071   3.470   8.452
 1465POPC   C3A23105   8.886   3.618   8.101
 1465POPC   C4A23106   8.872   3.621   7.699
 1465POPC   C1B23107   8.953   3.071   8.768
 1465POPC   C2B23108   8.980   2.963   8.325
 1465POPC   C3B23109   9.161   3.149   7.979
 1465POPC   C4B23110   9.038   3.172   7.574
 1466POPC   NC323111  14.579  37.436   9.607
 1466POPC   PO423112  14.464  38.098   9.821
 1466POPC   GL123113  14.522  37.855   9.295
 1466POPC   GL223114  14.725  37.556   9.137
 1466POPC   C1A23115  14.411  37.883   8.849
 1466POPC   D2A23116  14.134  37.698   8.519
 1466POPC   C3A23117  14.293  37.536   8.122
 1466POPC   C4A23118  14.068  37.547   7.716
 1466POPC   C1B23119  14.610  37.419   8.693
 1466POPC   C2B23120  14.741  37.284   8.245
 1466POPC   C3B23121  14.649  37.358   7.778
 1466POPC   C4B23122  14.638  37.489   7.331
 1467POPC   NC323123  38.981  43.808   9.627
 1467POPC   PO423124  38.395  44.103   9.789
 1467POPC   GL123125  38.465  43.913   9.333
 1467POPC   GL223126  38.779  43.745   9.178
 1467POPC   C1A23127  38.365  43.828   8.886
 1467POPC   D2A23128  38.577  43.656   8.534
 1467POPC   C3A23129  38.366  43.731   8.135
 1467POPC   C4A23130  38.412  43.958   7.751
 1467POPC   C1B23131  38.813  44.071   8.897
 1467POPC   C2B23132  38.602  44.190   8.539
 1467POPC   C3B23133  38.706  44.156   8.117
 1467POPC   C4B23134  38.776  44.358   7.741
 1468POPC   NC323135  14.838  42.825   9.894
 1468POPC   PO423136  15.274  43.321   9.551
 1468POPC   GL123137  15.325  43.023   9.260
 1468POPC   GL223138  15.023  43.202   9.099
 1468POPC   C1A23139  15.402  42.948   8.831
 1468POPC   D2A23140  15.194  43.093   8.448
 1468POPC   C3A23141  15.369  42.954   8.052
 1468POPC   C4A23142  15.196  43.073   7.663
 1468POPC   C1B23143  14.758  43.293   8.750
 1468POPC   C2B23144  14.836  43.446   8.335
 1468POPC   C3B23145  14.771  43.220   7.949
 1468POPC   C4B23146  14.738  43.235   7.474
 1469POPC   NC323147  35.462  13.074   9.540
 1469POPC   PO423148  35.108  12.484   9.463
 1469POPC   GL123149  35.452  12.703   9.182
 1469POPC   GL223150  35.363  13.072   9.055
 1469POPC   C1A23151  35.684  12.827   8.771
 1469POPC   D2A23152  35.483  13.055   8.440
 1469POPC   C3A23153  35.656  13.017   8.016
 1469POPC   C4A23154  35.524  12.787   7.651
 1469POPC   C1B23155  35.167  12.795   8.768
 1469POPC   C2B23156  34.995  12.805   8.364
 1469POPC   C3B23157  35.152  13.002   8.006
 1469POPC   C4B23158  35.059  12.981   7.584
 1470POPC   NC323159   2.265  16.516   9.503
 1470POPC   PO423160   1.801  16.926   9.368
 1470POPC   GL123161   1.868  16.554   9.114
 1470POPC   GL223162   2.224  16.548   9.002
 1470POPC   C1A23163   1.861  16.580   8.659
 1470POPC   D2A23164   2.134  16.637   8.307
 1470POPC   C3A23165   2.009  16.451   7.901
 1470POPC   C4A23166   1.900  16.673   7.492
 1470POPC   C1B23167   2.174  16.958   8.751
 1470POPC   C2B23168   1.958  17.100   8.337
 1470POPC   C3B23169   1.998  16.973   7.890
 1470POPC   C4B23170   2.189  17.123   7.460
 1471POPC   NC323171  29.527   5.853   9.558
 1471POPC   PO423172  30.163   5.918   9.661
 1471POPC   GL123173  30.060   5.960   9.210
 1471POPC   GL223174  29.721   6.097   9.125
 1471POPC   C1A23175  30.125   6.059   8.762
 1471POPC   D2A23176  29.905   6.184   8.349
 1471POPC   C3A23177  30.137   6.152   7.940
 1471POPC   C4A23178  30.162   5.906   7.565
 1471POPC   C1B23179  29.655   5.849   8.719
 1471POPC   C2B23180  29.607   5.775   8.271
 1471POPC   C3B23181  29.735   5.749   7.848
 1471POPC   C4B23182  29.762   5.628   7.427
 1472POPC   NC323183  10.640  35.882   9.303
 1472POPC   PO423184  10.783  35.381   9.668
 1472POPC   GL123185  10.981  35.504   9.232
 1472POPC   GL223186  11.314  35.626   9.181
 1472POPC   C1A23187  11.076  35.410   8.757
 1472POPC   D2A23188  11.268  35.493   8.300
 1472POPC   C3A23189  11.053  35.468   7.832
 1472POPC   C4A23190  10.959  35.434   7.351
 1472POPC   C1B23191  11.451  35.776   8.761
 1472POPC   C2B23192  11.364  35.992   8.378
 1472POPC   C3B23193  11.291  35.897   7.961
 1472POPC   C4B23194  11.504  35.980   7.581
 1473POPC   NC323195  24.758  39.679   9.320
 1473POPC   PO423196  24.217  39.956   9.399
 1473POPC   GL123197  24.327  40.040   9.028
 1473POPC   GL223198  24.303  40.402   9.086
 1473POPC   C1A23199  24.596  39.839   8.725
 1473POPC   D2A23200  24.799  39.821   8.352
 1473POPC   C3A23201  24.456  39.730   8.125
 1473POPC   C4A23202  24.457  39.909   7.741
 1473POPC   C1B23203  24.608  40.357   8.747
 1473POPC   C2B23204  24.430  40.191   8.354
 1473POPC   C3B23205  24.217  40.322   7.970
 1473POPC   C4B23206  24.341  40.379   7.527
 1474POPC   NC323207  39.681  37.049   9.499
 1474POPC   PO423208  39.089  36.755   9.364
 1474POPC   GL123209  39.281  37.060   9.140
 1474POPC   GL223210  39.522  36.849   9.064
 1474POPC   C1A23211  39.251  37.238   8.718
 1474POPC   D2A23212  39.252  37.113   8.257
 1474POPC   C3A23213  39.056  37.095   7.838
 1474POPC   C4A23214  39.425  37.040   7.546
 1474POPC   C1B23215  39.487  36.618   8.702
 1474POPC   C2B23216  39.210  36.600   8.341
 1474POPC   C3B23217  39.344  36.684   7.939
 1474POPC   C4B23218  39.466  36.436   7.592
 1475POPC   NC323219   4.870  27.342   9.482
 1475POPC   PO423220   5.387  27.747   9.504
 1475POPC   GL123221   5.429  27.426   9.175
 1475POPC   GL223222   5.084  27.462   9.030
 1475POPC   C1A23223   5.441  27.259   8.742
 1475POPC   D2A23224   5.352  27.474   8.386
 1475POPC   C3A23225   5.368  27.290   7.996
 1475POPC   C4A23226   5.330  27.530   7.621
 1475POPC   C1B23227   4.871  27.370   8.596
 1475POPC   C2B23228   4.894  27.438   8.123
 1475POPC   C3B23229   5.027  27.850   7.880
 1475POPC   C4B23230   4.940  28.191   7.543
 1476POPC   NC323231  16.645  18.779   9.500
 1476POPC   PO423232  17.080  19.306   9.481
 1476POPC   GL123233  16.868  19.067   9.157
 1476POPC   GL223234  16.987  18.711   9.118
 1476POPC   C1A23235  16.629  18.973   8.782
 1476POPC   D2A23236  16.409  19.126   8.402
 1476POPC   C3A23237  16.545  19.055   7.951
 1476POPC   C4A23238  16.582  19.360   7.591
 1476POPC   C1B23239  17.120  18.902   8.736
 1476POPC   C2B23240  17.277  18.918   8.357
 1476POPC   C3B23241  17.070  19.035   7.974
 1476POPC   C4B23242  16.887  18.932   7.568
 1477POPC   NC323243  28.202  33.312   9.535
 1477POPC   PO423244  28.469  32.697   9.529
 1477POPC   GL123245  28.279  32.921   9.200
 1477POPC   GL223246  28.507  33.178   9.148
 1477POPC   C1A23247  28.333  32.881   8.753
 1477POPC   D2A23248  28.070  32.798   8.387
 1477POPC   C3A23249  28.262  32.714   7.994
 1477POPC   C4A23250  28.335  32.929   7.633
 1477POPC   C1B23251  28.281  33.393   8.812
 1477POPC   C2B23252  28.446  33.441   8.391
 1477POPC   C3B23253  28.283  33.236   8.057
 1477POPC   C4B23254  28.060  33.373   7.725
 1478POPC   NC323255  37.264  15.492   9.341
 1478POPC   PO423256  36.844  15.983   9.679
 1478POPC   GL123257  36.778  16.055   9.222
 1478POPC   GL223258  37.108  15.976   9.192
 1478POPC   C1A23259  36.801  16.000   8.794
 1478POPC   D2A23260  36.676  15.824   8.427
 1478POPC   C3A23261  36.835  15.984   8.045
 1478POPC   C4A23262  36.736  15.783   7.702
 1478POPC   C1B23263  37.254  15.762   8.758
 1478POPC   C2B23264  37.268  15.892   8.319
 1478POPC   C3B23265  37.223  15.699   7.878
 1478POPC   C4B23266  37.163  15.799   7.412
 1479POPC   NC323267   4.960  11.762   9.523
 1479POPC   PO423268   5.329  12.318   9.553
 1479POPC   GL123269   5.117  12.113   9.176
 1479POPC   GL223270   4.747  12.101   9.124
 1479POPC   C1A23271   5.063  12.000   8.726
 1479POPC   D2A23272   5.251  11.775   8.369
 1479POPC   C3A23273   5.308  12.026   7.996
 1479POPC   C4A23274   5.133  11.994   7.550
 1479POPC   C1B23275   4.637  12.314   8.728
 1479POPC   C2B23276   4.728  12.406   8.275
 1479POPC   C3B23277   4.795  12.201   7.885
 1479POPC   C4B23278   4.843  12.382   7.437
 1480POPC   NC323279  44.833  32.272   9.392
 1480POPC   PO423280   0.478  32.397   9.711
 1480POPC   GL123281   0.325  32.322   9.248
 1480POPC   GL223282   0.282  32.009   9.117
 1480POPC   C1A23283   0.427  32.348   8.789
 1480POPC   D2A23284   0.322  32.340   8.392
 1480POPC   C3A23285   0.568  32.514   8.102
 1480POPC   C4A23286   0.578  32.172   7.850
 1480POPC   C1B23287  44.981  32.105   8.749
 1480POPC   C2B23288  44.855  32.100   8.314
 1480POPC   C3B23289   0.065  32.111   7.917
 1480POPC   C4B23290   0.014  32.122   7.453
 1481POPC   NC323291  23.383  41.744   9.493
 1481POPC   PO423292  22.753  41.431   9.516
 1481POPC   GL123293  23.032  41.308   9.139
 1481POPC   GL223294  23.300  41.528   9.040
 1481POPC   C1A23295  22.956  41.364   8.665
 1481POPC   D2A23296  22.693  41.502   8.283
 1481POPC   C3A23297  22.759  41.387   7.831
 1481POPC   C4A23298  23.020  41.508   7.486
 1481POPC   C1B23299  23.177  41.842   8.719
 1481POPC   C2B23300  22.937  41.959   8.338
 1481POPC   C3B23301  22.876  41.878   7.896
 1481POPC   C4B23302  23.050  42.009   7.479
 1482POPC   NC323303  11.033   8.058   9.569
 1482POPC   PO423304  11.521   8.554   9.618
 1482POPC   GL123305  11.443   8.316   9.250
 1482POPC   GL223306  11.099   8.251   9.101
 1482POPC   C1A23307  11.608   8.165   8.874
 1482POPC   D2A23308  11.446   7.943   8.526
 1482POPC   C3A23309  11.690   8.020   8.150
 1482POPC   C4A23310  11.645   8.306   7.824
 1482POPC   C1B23311  10.934   7.882   8.855
 1482POPC   C2B23312  10.953   7.869   8.396
 1482POPC   C3B23313  11.192   8.174   8.124
 1482POPC   C4B23314  11.144   8.520   7.838
 1483POPC   NC323315   9.861  18.808   9.222
 1483POPC   PO423316  10.024  18.297   9.611
 1483POPC   GL123317   9.867  18.242   9.163
 1483POPC   GL223318   9.562  18.408   9.082
 1483POPC   C1A23319   9.891  18.187   8.674
 1483POPC   D2A23320  10.051  18.112   8.213
 1483POPC   C3A23321  10.015  18.384   7.841
 1483POPC   C4A23322   9.777  18.290   7.473
 1483POPC   C1B23323   9.543  18.562   8.639
 1483POPC   C2B23324   9.689  18.484   8.218
 1483POPC   C3B23325   9.550  18.619   7.787
 1483POPC   C4B23326   9.510  18.695   7.306
 1484POPC   NC323327   5.445  36.706   9.366
 1484POPC   PO423328   5.922  37.060   9.745
 1484POPC   GL123329   5.920  36.956   9.272
 1484POPC   GL223330   5.817  36.649   9.048
 1484POPC   C1A23331   5.812  37.096   8.844
 1484POPC   D2A23332   6.053  37.124   8.464
 1484POPC   C3A23333   5.965  36.885   8.098
 1484POPC   C4A23334   5.863  36.918   7.664
 1484POPC   C1B23335   5.552  36.561   8.668
 1484POPC   C2B23336   5.506  36.665   8.224
 1484POPC   C3B23337   5.649  36.500   7.847
 1484POPC   C4B23338   5.530  36.585   7.408
 1485POPC   NC323339  12.144  25.203   9.274
 1485POPC   PO423340  11.679  25.550   9.525
 1485POPC   GL123341  11.953  25.631   9.120
 1485POPC   GL223342  11.900  25.346   8.871
 1485POPC   C1A23343  12.318  25.605   8.780
 1485POPC   D2A23344  12.352  25.400   8.390
 1485POPC   C3A23345  12.232  25.553   7.989
 1485POPC   C4A23346  12.129  25.336   7.593
 1485POPC   C1B23347  11.570  25.055   8.790
 1485POPC   C2B23348  11.464  25.158   8.382
 1485POPC   C3B23349  11.462  24.997   7.984
 1485POPC   C4B23350  11.714  24.988   7.625
 1486POPC   NC323351  23.851  15.353   9.566
 1486POPC   PO423352  24.116  14.750   9.567
 1486POPC   GL123353  23.814  14.945   9.270
 1486POPC   GL223354  23.895  14.796   9.008
 1486POPC   C1A23355  23.530  15.161   8.975
 1486POPC   D2A23356  23.535  15.133   8.528
 1486POPC   C3A23357  23.680  15.455   8.227
 1486POPC   C4A23358  23.706  15.383   7.775
 1486POPC   C1B23359  23.953  14.802   8.588
 1486POPC   C2B23360  23.720  14.721   8.218
 1486POPC   C3B23361  23.765  14.761   7.775
 1486POPC   C4B23362  24.031  14.735   7.397
 1487POPC   NC323363   5.224  40.978   9.585
 1487POPC   PO423364   5.174  40.322   9.502
 1487POPC   GL123365   4.997  40.563   9.160
 1487POPC   GL223366   5.259  40.842   9.103
 1487POPC   C1A23367   4.907  40.740   8.752
 1487POPC   D2A23368   5.056  40.577   8.375
 1487POPC   C3A23369   4.962  40.833   8.035
 1487POPC   C4A23370   4.723  40.741   7.684
 1487POPC   C1B23371   5.417  40.584   8.789
 1487POPC   C2B23372   5.608  40.566   8.398
 1487POPC   C3B23373   5.451  40.629   8.014
 1487POPC   C4B23374   5.489  40.302   7.726
 1488POPC   NC323375  17.542  10.711   9.397
 1488POPC   PO423376  17.247  10.077   9.446
 1488POPC   GL123377  17.419  10.313   9.077
 1488POPC   GL223378  17.769  10.374   9.068
 1488POPC   C1A23379  17.474  10.512   8.666
 1488POPC   D2A23380  17.476  10.851   8.385
 1488POPC   C3A23381  17.286  10.649   8.029
 1488POPC   C4A23382  17.464  10.362   7.706
 1488POPC   C1B23383  17.975  10.608   8.724
 1488POPC   C2B23384  18.106  10.647   8.322
 1488POPC   C3B23385  17.792  10.565   8.056
 1488POPC   C4B23386  17.700  10.802   7.703
 1489POPC   NC323387  35.717  33.960   9.462
 1489POPC   PO423388  36.409  33.796   9.648
 1489POPC   GL123389  36.152  33.889   9.153
 1489POPC   GL223390  36.472  33.974   8.985
 1489POPC   C1A23391  36.055  33.824   8.678
 1489POPC   D2A23392  35.904  33.863   8.230
 1489POPC   C3A23393  36.049  33.717   7.828
 1489POPC   C4A23394  35.963  33.331   7.630
 1489POPC   C1B23395  36.539  33.979   8.571
 1489POPC   C2B23396  36.425  33.846   8.175
 1489POPC   C3B23397  36.533  33.905   7.753
 1489POPC   C4B23398  36.353  33.704   7.359
 1490POPC   NC323399   7.877  44.679   9.562
 1490POPC   PO423400   8.592  44.469   9.494
 1490POPC   GL123401   8.316  44.663   9.199
 1490POPC   GL223402   8.106  44.412   9.171
 1490POPC   C1A23403   8.431  44.925   8.837
 1490POPC   D2A23404   8.622   0.124   8.492
 1490POPC   C3A23405   8.472   0.085   8.078
 1490POPC   C4A23406   8.396   0.260   7.669
 1490POPC   C1B23407   8.260  44.467   8.731
 1490POPC   C2B23408   8.154  44.763   8.390
 1490POPC   C3B23409   8.199  44.675   7.938
 1490POPC   C4B23410   8.059  44.517   7.520
 1491POPC   NC323411  44.250  35.509   9.502
 1491POPC   PO423412  44.235  34.834   9.564
 1491POPC   GL123413  44.094  35.160   9.197
 1491POPC   GL223414  43.759  35.300   9.007
 1491POPC   C1A23415  44.214  35.369   8.803
 1491POPC   D2A23416  43.900  35.446   8.481
 1491POPC   C3A23417  44.016  35.506   8.044
 1491POPC   C4A23418  43.964  35.238   7.679
 1491POPC   C1B23419  43.475  35.045   8.741
 1491POPC   C2B23420  43.319  35.074   8.304
 1491POPC   C3B23421  43.478  35.153   7.874
 1491POPC   C4B23422  43.544  35.231   7.391
 1492POPC   NC323423  44.381  38.609   9.531
 1492POPC   PO423424  43.791  38.231   9.479
 1492POPC   GL123425  43.836  38.657   9.244
 1492POPC   GL223426  44.090  38.704   8.984
 1492POPC   C1A23427  43.581  38.827   8.885
 1492POPC   D2A23428  43.745  38.670   8.486
 1492POPC   C3A23429  43.554  38.400   8.182
 1492POPC   C4A23430  43.419  38.723   7.908
 1492POPC   C1B23431  43.905  38.326   8.833
 1492POPC   C2B23432  44.019  38.195   8.427
 1492POPC   C3B23433  44.065  38.485   8.073
 1492POPC   C4B23434  43.826  38.518   7.726
 1493POPC   NC323435  15.775  29.368   9.457
 1493POPC   PO423436  16.068  28.709   9.391
 1493POPC   GL123437  16.093  29.100   9.168
 1493POPC   GL223438  15.748  29.088   9.053
 1493POPC   C1A23439  16.140  29.235   8.761
 1493POPC   D2A23440  15.983  28.941   8.445
 1493POPC   C3A23441  15.903  29.174   8.091
 1493POPC   C4A23442  16.112  29.402   7.823
 1493POPC   C1B23443  15.665  29.292   8.679
 1493POPC   C2B23444  15.704  29.581   8.368
 1493POPC   C3B23445  15.733  29.762   7.980
 1493POPC   C4B23446  15.669  29.590   7.577
 1494POPC   NC323447  36.788  42.725   9.279
 1494POPC   PO423448  37.154  43.207   9.364
 1494POPC   GL123449  37.100  43.024   9.004
 1494POPC   GL223450  36.739  43.152   8.989
 1494POPC   C1A23451  36.974  42.964   8.581
 1494POPC   D2A23452  36.742  42.753   8.271
 1494POPC   C3A23453  36.968  42.892   7.916
 1494POPC   C4A23454  37.127  43.354   7.852
 1494POPC   C1B23455  36.726  43.455   8.635
 1494POPC   C2B23456  36.754  43.523   8.170
 1494POPC   C3B23457  36.616  43.255   7.836
 1494POPC   C4B23458  36.436  42.860   7.872
 1495POPC   NC323459  36.353   2.346   9.345
 1495POPC   PO423460  36.479   3.003   9.448
 1495POPC   GL123461  36.132   2.915   9.169
 1495POPC   GL223462  36.334   2.703   8.951
 1495POPC   C1A23463  35.879   2.989   8.786
 1495POPC   D2A23464  36.077   2.809   8.440
 1495POPC   C3A23465  36.102   2.951   8.029
 1495POPC   C4A23466  36.453   2.777   7.934
 1495POPC   C1B23467  35.948   2.480   8.832
 1495POPC   C2B23468  35.784   2.333   8.462
 1495POPC   C3B23469  35.982   2.444   8.069
 1495POPC   C4B23470  36.039   2.631   7.642
 1496POPC   NC323471  22.208  33.505   9.571
 1496POPC   PO423472  21.862  34.069   9.478
 1496POPC   GL123473  22.036  33.825   9.199
 1496POPC   GL223474  21.799  33.624   9.141
 1496POPC   C1A23475  22.233  33.869   8.823
 1496POPC   D2A23476  22.283  34.198   8.511
 1496POPC   C3A23477  22.230  34.027   8.090
 1496POPC   C4A23478  22.503  34.016   7.762
 1496POPC   C1B23479  21.909  33.465   8.757
 1496POPC   C2B23480  21.722  33.413   8.367
 1496POPC   C3B23481  21.774  33.422   7.967
 1496POPC   C4B23482  22.060  33.661   7.726
 1497POPC   NC323483  34.224   0.208   9.341
 1497POPC   PO423484  33.849   0.531   9.757
 1497POPC   GL123485  33.773   0.508   9.211
 1497POPC   GL223486  33.946   0.294   8.943
 1497POPC   C1A23487  33.598   0.593   8.763
 1497POPC   D2A23488  33.692   0.320   8.422
 1497POPC   C3A23489  33.916   0.305   8.038
 1497POPC   C4A23490  33.752   0.206   7.636
 1497POPC   C1B23491  34.087   0.645   8.662
 1497POPC   C2B23492  34.070   0.753   8.265
 1497POPC   C3B23493  34.162   0.730   7.878
 1497POPC   C4B23494  33.960   0.654   7.551
 1498POPC   NC323495  13.276  14.312   9.375
 1498POPC   PO423496  14.038  14.131   9.468
 1498POPC   GL123497  13.712  14.165   9.176
 1498POPC   GL223498  13.680  14.550   9.170
 1498POPC   C1A23499  13.465  14.154   8.774
 1498POPC   D2A23500  13.654  14.174   8.367
 1498POPC   C3A23501  13.503  14.191   7.920
 1498POPC   C4A23502  13.856  14.195   7.606
 1498POPC   C1B23503  13.935  14.421   8.790
 1498POPC   C2B23504  14.093  14.617   8.421
 1498POPC   C3B23505  13.949  14.466   8.033
 1498POPC   C4B23506  13.626  14.699   7.810
 1499POPC   NC323507  23.590  24.871   9.709
 1499POPC   PO423508  24.023  25.395   9.526
 1499POPC   GL123509  23.830  25.336   9.136
 1499POPC   GL223510  23.731  25.000   9.185
 1499POPC   C1A23511  23.679  25.422   8.708
 1499POPC   D2A23512  23.790  25.641   8.313
 1499POPC   C3A23513  23.674  25.452   7.967
 1499POPC   C4A23514  23.871  25.414   7.577
 1499POPC   C1B23515  23.961  24.991   8.763
 1499POPC   C2B23516  24.028  25.105   8.321
 1499POPC   C3B23517  23.929  25.008   7.884
 1499POPC   C4B23518  23.488  25.042   7.733
 1500POPC   NC323519  16.786  32.411   9.509
 1500POPC   PO423520  16.724  31.750   9.422
 1500POPC   GL123521  16.851  32.078   9.112
 1500POPC   GL223522  16.715  32.437   9.011
 1500POPC   C1A23523  16.707  32.012   8.696
 1500POPC   D2A23524  16.914  32.028   8.319
 1500POPC   C3A23525  16.748  31.924   7.927
 1500POPC   C4A23526  16.645  32.039   7.520
 1500POPC   C1B23527  17.013  32.458   8.658
 1500POPC   C2B23528  17.200  32.443   8.222
 1500POPC   C3B23529  17.005  32.377   7.788
 1500POPC   C4B23530  16.768  32.509   7.371
 1501POPC   NC323531  16.276  41.825   9.509
 1501POPC   PO423532  16.735  41.319   9.449
 1501POPC   GL123533  16.739  41.546   9.069
 1501POPC   GL223534  16.744  41.904   9.033
 1501POPC   C1A23535  16.680  41.543   8.652
 1501POPC   D2A23536  16.806  41.208   8.431
 1501POPC   C3A23537  16.655  41.245   8.022
 1501POPC   C4A23538  16.703  41.380   7.631
 1501POPC   C1B23539  17.059  41.912   8.699
 1501POPC   C2B23540  17.029  41.706   8.290
 1501POPC   C3B23541  16.704  41.777   7.959
 1501POPC   C4B23542  16.429  41.860   7.564
 1502POPC   NC323543  24.973  37.321   9.213
 1502POPC   PO423544  24.727  37.837   9.585
 1502POPC   GL123545  24.453  37.737   9.248
 1502POPC   GL223546  24.407  37.381   9.201
 1502POPC   C1A23547  24.250  37.949   8.877
 1502POPC   D2A23548  24.073  38.023   8.450
 1502POPC   C3A23549  24.317  37.888   8.084
 1502POPC   C4A23550  24.670  37.691   7.839
 1502POPC   C1B23551  24.514  37.483   8.771
 1502POPC   C2B23552  24.460  37.378   8.333
 1502POPC   C3B23553  24.564  37.199   7.934
 1502POPC   C4B23554  24.490  37.328   7.483
 1503POPC   NC323555  31.677   0.112   9.491
 1503POPC   PO423556  31.660  44.473   9.348
 1503POPC   GL123557  31.400  44.697   9.064
 1503POPC   GL223558  31.689  44.898   9.015
 1503POPC   C1A23559  31.195  44.524   8.663
 1503POPC   D2A23560  31.433  44.405   8.266
 1503POPC   C3A23561  31.285  44.539   7.806
 1503POPC   C4A23562  31.222  44.523   7.329
 1503POPC   C1B23563  31.591  44.817   8.603
 1503POPC   C2B23564  31.488  44.930   8.227
 1503POPC   C3B23565  31.670  44.890   7.887
 1503POPC   C4B23566  31.653  44.731   7.480
 1504POPC   NC323567   5.355   9.275   9.386
 1504POPC   PO423568   5.023   9.856   9.614
 1504POPC   GL123569   4.914   9.630   9.244
 1504POPC   GL223570   5.154   9.812   9.081
 1504POPC   C1A23571   4.750   9.677   8.812
 1504POPC   D2A23572   4.953   9.767   8.396
 1504POPC   C3A23573   5.055   9.660   8.001
 1504POPC   C4A23574   4.747   9.672   7.734
 1504POPC   C1B23575   5.349   9.711   8.702
 1504POPC   C2B23576   5.380   9.424   8.355
 1504POPC   C3B23577   5.568   9.449   7.992
 1504POPC   C4B23578   5.412   9.537   7.593
 1505POPC   NC323579  35.656  13.901   9.491
 1505POPC   PO423580  35.228  13.419   9.745
 1505POPC   GL123581  35.360  13.533   9.296
 1505POPC   GL223582  35.705  13.491   9.195
 1505POPC   C1A23583  35.354  13.537   8.832
 1505POPC   D2A23584  35.502  13.756   8.482
 1505POPC   C3A23585  35.203  13.820   8.180
 1505POPC   C4A23586  35.220  13.834   7.707
 1505POPC   C1B23587  35.830  13.342   8.781
 1505POPC   C2B23588  35.843  13.386   8.341
 1505POPC   C3B23589  35.531  13.494   8.008
 1505POPC   C4B23590  35.448  13.320   7.602
 1506POPC   NC323591  17.653   4.633   9.384
 1506POPC   PO423592  17.649   4.000   9.462
 1506POPC   GL123593  17.313   4.085   9.147
 1506POPC   GL223594  17.238   4.437   9.074
 1506POPC   C1A23595  17.329   3.951   8.720
 1506POPC   D2A23596  17.618   4.096   8.366
 1506POPC   C3A23597  17.525   4.160   7.944
 1506POPC   C4A23598  17.126   4.257   7.798
 1506POPC   C1B23599  17.657   4.336   8.820
 1506POPC   C2B23600  17.808   4.571   8.449
 1506POPC   C3B23601  17.748   4.671   8.029
 1506POPC   C4B23602  17.500   4.613   7.662
 1507POPC   NC323603  20.238  30.790   9.593
 1507POPC   PO423604  20.762  30.398   9.601
 1507POPC   GL123605  20.585  30.629   9.225
 1507POPC   GL223606  20.358  30.946   9.135
 1507POPC   C1A23607  20.796  30.541   8.834
 1507POPC   D2A23608  20.587  30.398   8.462
 1507POPC   C3A23609  20.835  30.279   8.161
 1507POPC   C4A23610  20.800  30.347   7.734
 1507POPC   C1B23611  20.398  30.834   8.740
 1507POPC   C2B23612  20.712  30.880   8.416
 1507POPC   C3B23613  20.562  30.706   8.046
 1507POPC   C4B23614  20.633  30.970   7.760
 1508POPC   NC323615  24.985  13.996   9.347
 1508POPC   PO423616  25.639  14.036   9.453
 1508POPC   GL123617  25.395  14.222   9.092
 1508POPC   GL223618  25.184  14.543   9.116
 1508POPC   C1A23619  25.319  14.348   8.664
 1508POPC   D2A23620  25.286  14.143   8.307
 1508POPC   C3A23621  25.433  14.401   7.994
 1508POPC   C4A23622  25.201  14.225   7.712
 1508POPC   C1B23623  24.960  14.718   8.753
 1508POPC   C2B23624  24.895  14.510   8.331
 1508POPC   C3B23625  24.955  14.664   7.907
 1508POPC   C4B23626  25.313  14.882   7.779
 1509POPC   NC323627  40.415  15.458   9.596
 1509POPC   PO423628  39.864  15.116   9.442
 1509POPC   GL123629  40.194  15.203   9.195
 1509POPC   GL223630  40.246  15.550   9.104
 1509POPC   C1A23631  40.293  15.020   8.807
 1509POPC   D2A23632  40.106  14.799   8.478
 1509POPC   C3A23633  39.898  15.021   8.151
 1509POPC   C4A23634  40.124  15.058   7.772
 1509POPC   C1B23635  39.984  15.482   8.779
 1509POPC   C2B23636  40.144  15.374   8.402
 1509POPC   C3B23637  40.022  15.505   7.991
 1509POPC   C4B23638  39.627  15.547   7.801
 1510POPC   NC323639  43.300  12.345   9.542
 1510POPC   PO423640  42.921  11.700   9.542
 1510POPC   GL123641  43.065  11.917   9.160
 1510POPC   GL223642  43.425  12.091   9.120
 1510POPC   C1A23643  42.866  11.829   8.750
 1510POPC   D2A23644  42.825  11.581   8.356
 1510POPC   C3A23645  42.937  11.871   8.045
 1510POPC   C4A23646  42.884  12.179   7.740
 1510POPC   C1B23647  43.204  12.308   8.806
 1510POPC   C2B23648  43.101  12.222   8.412
 1510POPC   C3B23649  43.310  12.271   8.043
 1510POPC   C4B23650  43.366  11.933   7.776
 1511POPC   NC323651  29.777   7.071   9.491
 1511POPC   PO423652  29.985   6.486   9.453
 1511POPC   GL123653  30.180   6.719   9.155
 1511POPC   GL223654  29.828   6.806   9.048
 1511POPC   C1A23655  30.172   6.573   8.748
 1511POPC   D2A23656  29.815   6.649   8.532
 1511POPC   C3A23657  29.799   6.636   8.086
 1511POPC   C4A23658  29.878   6.695   7.659
 1511POPC   C1B23659  29.693   7.098   8.744
 1511POPC   C2B23660  29.484   7.028   8.349
 1511POPC   C3B23661  29.597   7.107   7.940
 1511POPC   C4B23662  29.456   6.935   7.521
 1512POPC   NC323663  30.095   0.009   9.455
 1512POPC   PO423664  29.829  44.430   9.580
 1512POPC   GL123665  29.777  44.670   9.205
 1512POPC   GL223666  30.065  44.747   8.989
 1512POPC   C1A23667  29.608  44.664   8.819
 1512POPC   D2A23668  29.867  44.645   8.445
 1512POPC   C3A23669  29.663  44.757   8.112
 1512POPC   C4A23670  29.744  44.734   7.693
 1512POPC   C1B23671  29.831   0.091   8.699
 1512POPC   C2B23672  29.756   0.236   8.274
 1512POPC   C3B23673  30.048   0.055   7.972
 1512POPC   C4B23674  30.221  44.641   7.896
 1513POPC   NC323675  10.118   0.286   9.257
 1513POPC   PO423676  10.663   0.508   9.632
 1513POPC   GL123677  10.780   0.397   9.244
 1513POPC   GL223678  10.728   0.035   9.185
 1513POPC   C1A23679  10.749   0.657   8.857
 1513POPC   D2A23680  10.583   0.763   8.452
 1513POPC   C3A23681  10.789   0.605   8.089
 1513POPC   C4A23682  10.711   0.319   7.739
 1513POPC   C1B23683  10.556   0.183   8.766
 1513POPC   C2B23684  10.482   0.237   8.296
 1513POPC   C3B23685  10.351  44.999   7.911
 1513POPC   C4B23686  10.339   0.028   7.439
 1514POPC   NC323687  37.305   0.305   9.433
 1514POPC   PO423688  36.651   0.475   9.537
 1514POPC   GL123689  36.899   0.585   9.202
 1514POPC   GL223690  36.908   0.259   9.099
 1514POPC   C1A23691  36.757   0.682   8.792
 1514POPC   D2A23692  36.557   0.541   8.410
 1514POPC   C3A23693  36.666   0.770   8.005
 1514POPC   C4A23694  36.882   0.613   7.637
 1514POPC   C1B23695  36.930   0.206   8.673
 1514POPC   C2B23696  37.190   0.133   8.331
 1514POPC   C3B23697  37.073   0.227   7.939
 1514POPC   C4B23698  36.964   0.111   7.535
 1515POPC   NC323699  16.040  40.332   9.638
 1515POPC   PO423700  16.108  39.665   9.743
 1515POPC   GL123701  15.958  39.801   9.311
 1515POPC   GL223702  15.916  40.134   9.195
 1515POPC   C1A23703  16.123  39.810   8.882
 1515POPC   D2A23704  16.248  39.890   8.470
 1515POPC   C3A23705  15.894  39.842   8.213
 1515POPC   C4A23706  15.946  39.801   7.786
 1515POPC   C1B23707  15.706  40.123   8.811
 1515POPC   C2B23708  15.788  40.359   8.433
 1515POPC   C3B23709  15.657  40.455   8.038
 1515POPC   C4B23710  15.789  40.254   7.697
 1516POPC   NC323711  18.849  43.547   9.450
 1516POPC   PO423712  19.032  44.219   9.451
 1516POPC   GL123713  19.123  43.909   9.100
 1516POPC   GL223714  19.365  43.625   9.106
 1516POPC   C1A23715  18.971  43.819   8.669
 1516POPC   D2A23716  18.779  43.734   8.279
 1516POPC   C3A23717  18.960  43.818   7.861
 1516POPC   C4A23718  18.907  43.994   7.407
 1516POPC   C1B23719  19.228  43.388   8.748
 1516POPC   C2B23720  19.255  43.487   8.284
 1516POPC   C3B23721  19.252  43.385   7.835
 1516POPC   C4B23722  19.267  43.659   7.463
 1517POPC   NC323723  19.809  16.803   9.482
 1517POPC   PO423724  20.078  16.199   9.444
 1517POPC   GL123725  20.142  16.527   9.122
 1517POPC   GL223726  20.146  16.917   9.119
 1517POPC   C1A23727  19.888  16.613   8.741
 1517POPC   D2A23728  19.813  16.686   8.277
 1517POPC   C3A23729  19.462  16.580   8.027
 1517POPC   C4A23730  19.510  16.257   7.720
 1517POPC   C1B23731  20.019  17.124   8.735
 1517POPC   C2B23732  20.099  17.094   8.290
 1517POPC   C3B23733  20.047  16.962   7.868
 1517POPC   C4B23734  19.918  16.571   7.712
 1518POPC   NC323735   7.740  23.149   9.553
 1518POPC   PO423736   8.454  22.858   9.461
 1518POPC   GL123737   8.339  22.944   9.087
 1518POPC   GL223738   8.073  23.123   9.155
 1518POPC   C1A23739   8.311  22.704   8.731
 1518POPC   D2A23740   7.968  22.635   8.465
 1518POPC   C3A23741   8.108  22.690   8.055
 1518POPC   C4A23742   8.120  22.550   7.651
 1518POPC   C1B23743   8.016  23.122   8.712
 1518POPC   C2B23744   8.245  23.115   8.362
 1518POPC   C3B23745   8.460  23.069   8.011
 1518POPC   C4B23746   8.399  23.314   7.657
 1519POPC   NC323747  10.942  21.822   9.592
 1519POPC   PO423748  10.364  21.409   9.759
 1519POPC   GL123749  10.764  21.415   9.382
 1519POPC   GL223750  10.620  21.733   9.182
 1519POPC   C1A23751  10.848  21.417   8.887
 1519POPC   D2A23752  10.567  21.239   8.549
 1519POPC   C3A23753  10.619  21.288   8.080
 1519POPC   C4A23754  10.296  21.188   7.745
 1519POPC   C1B23755  10.390  21.702   8.738
 1519POPC   C2B23756  10.289  21.624   8.323
 1519POPC   C3B23757  10.341  21.686   7.867
 1519POPC   C4B23758  10.652  21.514   7.604
 1520POPC   NC323759  17.302  43.370   9.506
 1520POPC   PO423760  17.939  43.034   9.574
 1520POPC   GL123761  17.693  43.179   9.235
 1520POPC   GL223762  17.416  42.971   9.161
 1520POPC   C1A23763  17.649  43.307   8.817
 1520POPC   D2A23764  17.831  43.377   8.409
 1520POPC   C3A23765  17.668  43.125   8.106
 1520POPC   C4A23766  17.333  43.093   7.835
 1520POPC   C1B23767  17.637  42.766   8.830
 1520POPC   C2B23768  17.506  42.738   8.396
 1520POPC   C3B23769  17.412  42.591   7.973
 1520POPC   C4B23770  17.552  42.687   7.545
 1521POPC   NC323771  29.711  33.337   9.424
 1521POPC   PO423772  29.554  33.977   9.585
 1521POPC   GL123773  29.782  33.782   9.191
 1521POPC   GL223774  30.108  33.575   9.184
 1521POPC   C1A23775  29.764  33.563   8.782
 1521POPC   D2A23776  29.522  33.551   8.417
 1521POPC   C3A23777  29.720  33.778   8.085
 1521POPC   C4A23778  29.934  33.984   7.775
 1521POPC   C1B23779  30.251  33.405   8.750
 1521POPC   C2B23780  30.064  33.449   8.299
 1521POPC   C3B23781  30.269  33.615   7.917
 1521POPC   C4B23782  30.357  33.824   7.512
 1522POPC   NC323783  28.609  40.768   9.856
 1522POPC   PO423784  29.157  40.932   9.695
 1522POPC   GL123785  29.216  41.039   9.245
 1522POPC   GL223786  28.874  41.035   9.202
 1522POPC   C1A23787  29.230  40.809   8.829
 1522POPC   D2A23788  29.005  40.672   8.425
 1522POPC   C3A23789  29.194  40.760   8.004
 1522POPC   C4A23790  29.571  40.672   7.790
 1522POPC   C1B23791  28.908  41.191   8.787
 1522POPC   C2B23792  28.760  41.106   8.375
 1522POPC   C3B23793  28.692  40.864   8.003
 1522POPC   C4B23794  28.862  40.806   7.557
 1523POPC   NC323795  37.870  34.398   9.642
 1523POPC   PO423796  38.533  34.497   9.626
 1523POPC   GL123797  38.425  34.530   9.189
 1523POPC   GL223798  38.788  34.436   9.123
 1523POPC   C1A23799  38.408  34.798   8.802
 1523POPC   D2A23800  38.287  35.102   8.465
 1523POPC   C3A23801  38.236  34.989   8.027
 1523POPC   C4A23802  38.583  34.923   7.718
 1523POPC   C1B23803  38.629  34.239   8.741
 1523POPC   C2B23804  38.404  34.313   8.376
 1523POPC   C3B23805  38.511  34.559   8.065
 1523POPC   C4B23806  38.752  34.403   7.726
 1524POPC   NC323807  29.741  17.355   9.742
 1524POPC   PO423808  30.160  17.756   9.437
 1524POPC   GL123809  29.834  17.592   9.139
 1524POPC   GL223810  29.538  17.375   9.240
 1524POPC   C1A23811  29.849  17.833   8.737
 1524POPC   D2A23812  30.064  17.911   8.332
 1524POPC   C3A23813  29.981  17.675   7.919
 1524POPC   C4A23814  30.336  17.540   7.617
 1524POPC   C1B23815  29.491  17.471   8.784
 1524POPC   C2B23816  29.638  17.543   8.346
 1524POPC   C3B23817  29.567  17.374   7.924
 1524POPC   C4B23818  29.406  17.380   7.503
 1525POPC   NC323819  29.498  20.993   9.542
 1525POPC   PO423820  29.062  21.510   9.604
 1525POPC   GL123821  29.031  21.418   9.226
 1525POPC   GL223822  29.321  21.289   9.186
 1525POPC   C1A23823  28.875  21.451   8.835
 1525POPC   D2A23824  28.949  21.678   8.469
 1525POPC   C3A23825  28.863  21.456   8.060
 1525POPC   C4A23826  29.069  21.464   7.643
 1525POPC   C1B23827  29.335  21.177   8.768
 1525POPC   C2B23828  29.248  21.263   8.352
 1525POPC   C3B23829  29.369  21.118   7.937
 1525POPC   C4B23830  29.291  21.008   7.491
 1526POPC   NC323831  21.165  43.513   9.565
 1526POPC   PO423832  21.489  42.906   9.716
 1526POPC   GL123833  21.438  42.790   9.191
 1526POPC   GL223834  21.076  42.710   9.028
 1526POPC   C1A23835  21.400  42.945   8.724
 1526POPC   D2A23836  21.507  42.788   8.291
 1526POPC   C3A23837  21.690  43.127   8.068
 1526POPC   C4A23838  21.597  43.199   7.633
 1526POPC   C1B23839  20.860  42.987   8.708
 1526POPC   C2B23840  21.077  43.091   8.290
 1526POPC   C3B23841  21.237  42.966   7.888
 1526POPC   C4B23842  21.119  43.054   7.449
 1527POPC   NC323843   2.733  20.382   9.447
 1527POPC   PO423844   2.758  19.670   9.600
 1527POPC   GL123845   2.709  19.887   9.242
 1527POPC   GL223846   3.011  19.854   9.117
 1527POPC   C1A23847   2.655  20.021   8.801
 1527POPC   D2A23848   2.778  19.862   8.404
 1527POPC   C3A23849   2.811  20.079   8.008
 1527POPC   C4A23850   2.549  19.982   7.682
 1527POPC   C1B23851   2.880  19.525   8.815
 1527POPC   C2B23852   2.770  19.341   8.398
 1527POPC   C3B23853   2.818  19.550   7.981
 1527POPC   C4B23854   3.036  19.769   7.626
 1528POPC   NC323855  28.448  31.822   9.665
 1528POPC   PO423856  28.267  31.225   9.579
 1528POPC   GL123857  28.415  31.536   9.254
 1528POPC   GL223858  28.090  31.663   9.302
 1528POPC   C1A23859  28.571  31.778   8.888
 1528POPC   D2A23860  28.827  31.588   8.538
 1528POPC   C3A23861  28.676  31.699   8.116
 1528POPC   C4A23862  28.592  31.461   7.734
 1528POPC   C1B23863  28.040  31.641   8.865
 1528POPC   C2B23864  28.254  31.686   8.464
 1528POPC   C3B23865  28.157  31.552   8.066
 1528POPC   C4B23866  28.135  31.677   7.648
 1529POPC   NC323867  13.406  24.071   9.728
 1529POPC   PO423868  13.780  24.579   9.451
 1529POPC   GL123869  13.725  24.551   9.068
 1529POPC   GL223870  13.424  24.704   9.005
 1529POPC   C1A23871  13.694  24.373   8.676
 1529POPC   D2A23872  13.631  24.613   8.349
 1529POPC   C3A23873  13.786  24.409   8.000
 1529POPC   C4A23874  13.546  24.167   7.729
 1529POPC   C1B23875  13.390  25.006   8.685
 1529POPC   C2B23876  13.624  25.120   8.356
 1529POPC   C3B23877  13.707  24.937   7.950
 1529POPC   C4B23878  13.540  24.661   7.620
 1530POPC   NC323879  20.155  44.021   9.568
 1530POPC   PO423880  20.749  43.719   9.621
 1530POPC   GL123881  20.469  43.729   9.212
 1530POPC   GL223882  20.339  44.046   9.105
 1530POPC   C1A23883  20.507  43.766   8.725
 1530POPC   D2A23884  20.368  43.860   8.291
 1530POPC   C3A23885  20.668  43.661   7.935
 1530POPC   C4A23886  21.072  43.451   7.795
 1530POPC   C1B23887  20.304  44.269   8.730
 1530POPC   C2B23888  20.085  44.496   8.422
 1530POPC   C3B23889  20.177  44.431   8.015
 1530POPC   C4B23890  20.457  44.120   7.852
 1531POPC   NC323891   2.383  10.689   9.308
 1531POPC   PO423892   2.923  10.513   9.624
 1531POPC   GL123893   2.847  10.462   9.215
 1531POPC   GL223894   2.914  10.782   9.139
 1531POPC   C1A23895   2.734  10.365   8.788
 1531POPC   D2A23896   2.934  10.419   8.382
 1531POPC   C3A23897   2.697  10.492   8.028
 1531POPC   C4A23898   2.301  10.499   7.893
 1531POPC   C1B23899   2.767  10.878   8.706
 1531POPC   C2B23900   2.796  10.956   8.247
 1531POPC   C3B23901   2.764  10.948   7.793
 1531POPC   C4B23902   2.527  10.966   7.394
 1532POPC   NC323903  35.991  27.442   9.534
 1532POPC   PO423904  36.387  27.784   9.219
 1532POPC   GL123905  36.232  27.387   9.062
 1532POPC   GL223906  35.927  27.185   9.102
 1532POPC   C1A23907  36.240  27.459   8.654
 1532POPC   D2A23908  36.526  27.563   8.387
 1532POPC   C3A23909  36.255  27.635   8.061
 1532POPC   C4A23910  36.338  27.601   7.646
 1532POPC   C1B23911  35.769  27.331   8.732
 1532POPC   C2B23912  35.866  27.719   8.441
 1532POPC   C3B23913  35.750  27.763   8.003
 1532POPC   C4B23914  35.853  27.432   7.750
 1533POPC   NC323915  30.979   7.913   9.514
 1533POPC   PO423916  30.356   8.044   9.544
 1533POPC   GL123917  30.562   8.022   9.134
 1533POPC   GL223918  30.835   8.215   9.128
 1533POPC   C1A23919  30.691   8.044   8.682
 1533POPC   D2A23920  30.437   7.985   8.325
 1533POPC   C3A23921  30.633   8.117   7.960
 1533POPC   C4A23922  30.741   7.776   7.724
 1533POPC   C1B23923  31.074   8.426   8.817
 1533POPC   C2B23924  31.064   8.540   8.397
 1533POPC   C3B23925  31.077   8.732   8.020
 1533POPC   C4B23926  30.994   8.422   7.736
 1534POPC   NC323927  19.995  22.700   9.542
 1534POPC   PO423928  19.538  23.164   9.772
 1534POPC   GL123929  19.691  23.025   9.307
 1534POPC   GL223930  19.477  22.831   9.086
 1534POPC   C1A23931  19.886  23.120   8.901
 1534POPC   D2A23932  19.885  22.782   8.620
 1534POPC   C3A23933  20.072  22.800   8.210
 1534POPC   C4A23934  19.906  22.568   7.838
 1534POPC   C1B23935  19.405  23.115   8.732
 1534POPC   C2B23936  19.682  23.188   8.382
 1534POPC   C3B23937  19.690  23.064   7.962
 1534POPC   C4B23938  19.520  23.328   7.649
 1535POPC   NC323939  18.622  40.837   9.734
 1535POPC   PO423940  18.120  40.832   9.279
 1535POPC   GL123941  18.061  40.820   8.919
 1535POPC   GL223942  17.947  40.474   8.919
 1535POPC   C1A23943  18.003  40.788   8.515
 1535POPC   D2A23944  17.892  40.391   8.347
 1535POPC   C3A23945  17.966  40.538   7.980
 1535POPC   C4A23946  18.103  40.918   7.795
 1535POPC   C1B23947  18.273  40.362   8.688
 1535POPC   C2B23948  18.404  40.260   8.304
 1535POPC   C3B23949  18.431  40.389   7.835
 1535POPC   C4B23950  18.170  40.513   7.487
 1536POPC   NC323951  18.513  23.649   9.483
 1536POPC   PO423952  17.944  24.038   9.530
 1536POPC   GL123953  18.147  23.910   9.166
 1536POPC   GL223954  18.137  23.566   9.156
 1536POPC   C1A23955  18.004  23.861   8.746
 1536POPC   D2A23956  18.185  23.756   8.385
 1536POPC   C3A23957  18.006  23.756   8.015
 1536POPC   C4A23958  18.227  23.809   7.643
 1536POPC   C1B23959  18.377  23.498   8.796
 1536POPC   C2B23960  18.542  23.398   8.408
 1536POPC   C3B23961  18.549  23.589   8.020
 1536POPC   C4B23962  18.521  23.402   7.631
 1537POPC   NC323963  16.913  36.213   9.485
 1537POPC   PO423964  16.440  35.914   9.479
 1537POPC   GL123965  16.585  36.062   9.131
 1537POPC   GL223966  16.519  36.423   9.200
 1537POPC   C1A23967  16.743  36.202   8.779
 1537POPC   D2A23968  16.653  36.425   8.435
 1537POPC   C3A23969  16.618  36.193   8.057
 1537POPC   C4A23970  16.889  36.150   7.684
 1537POPC   C1B23971  16.271  36.445   8.821
 1537POPC   C2B23972  16.168  36.596   8.412
 1537POPC   C3B23973  16.441  36.709   8.072
 1537POPC   C4B23974  16.484  36.531   7.679
 1538POPC   NC323975   8.787  12.921   9.894
 1538POPC   PO423976   8.928  12.417   9.743
 1538POPC   GL123977   9.041  12.697   9.353
 1538POPC   GL223978   9.380  12.671   9.210
 1538POPC   C1A23979   8.985  12.850   8.876
 1538POPC   D2A23980   8.980  12.690   8.392
 1538POPC   C3A23981   8.835  12.740   7.912
 1538POPC   C4A23982   8.676  12.696   7.457
 1538POPC   C1B23983   9.357  12.513   8.779
 1538POPC   C2B23984   9.493  12.659   8.370
 1538POPC   C3B23985   9.326  12.860   7.986
 1538POPC   C4B23986   9.200  12.852   7.532
 1539POPC   NC323987  28.241  23.969   9.401
 1539POPC   PO423988  27.699  24.384   9.425
 1539POPC   GL123989  27.584  24.296   9.040
 1539POPC   GL223990  27.929  24.126   9.005
 1539POPC   C1A23991  27.460  24.537   8.661
 1539POPC   D2A23992  27.296  24.748   8.269
 1539POPC   C3A23993  27.538  24.648   7.888
 1539POPC   C4A23994  27.708  24.490   7.486
 1539POPC   C1B23995  27.705  24.077   8.607
 1539POPC   C2B23996  27.601  24.271   8.239
 1539POPC   C3B23997  27.917  24.256   7.913
 1539POPC   C4B23998  28.199  24.437   7.575
 1540POPC   NC323999  27.182  22.297   9.570
 1540POPC   PO424000  27.772  22.035   9.577
 1540POPC   GL124001  27.826  22.096   9.162
 1540POPC   GL224002  27.460  22.179   9.168
 1540POPC   C1A24003  27.719  22.314   8.781
 1540POPC   D2A24004  27.881  22.130   8.429
 1540POPC   C3A24005  27.765  22.248   8.064
 1540POPC   C4A24006  27.537  22.202   7.713
 1540POPC   C1B24007  27.136  21.960   8.944
 1540POPC   C2B24008  27.050  22.019   8.502
 1540POPC   C3B24009  27.330  21.977   8.157
 1540POPC   C4B24010  27.324  21.747   7.793
 1541POPC   NC324011  12.642  37.755   9.574
 1541POPC   PO424012  13.281  37.806   9.471
 1541POPC   GL124013  13.074  37.835   9.097
 1541POPC   GL224014  12.765  37.672   9.095
 1541POPC   C1A24015  13.087  37.672   8.665
 1541POPC   D2A24016  13.138  37.396   8.290
 1541POPC   C3A24017  13.042  37.592   7.874
 1541POPC   C4A24018  12.903  37.394   7.467
 1541POPC   C1B24019  12.623  37.878   8.740
 1541POPC   C2B24020  12.789  37.920   8.315
 1541POPC   C3B24021  12.620  37.906   7.906
 1541POPC   C4B24022  12.794  37.901   7.478
 1542POPC   NC324023  19.039  12.151   9.553
 1542POPC   PO424024  19.131  11.475   9.619
 1542POPC   GL124025  19.186  11.798   9.203
 1542POPC   GL224026  19.170  12.201   9.087
 1542POPC   C1A24027  19.260  11.899   8.716
 1542POPC   D2A24028  19.028  11.975   8.283
 1542POPC   C3A24029  19.244  11.851   7.882
 1542POPC   C4A24030  19.207  11.830   7.415
 1542POPC   C1B24031  18.958  12.455   8.770
 1542POPC   C2B24032  18.722  12.395   8.372
 1542POPC   C3B24033  18.773  12.322   7.935
 1542POPC   C4B24034  18.988  12.602   7.649
 1543POPC   NC324035  19.905  27.433   9.467
 1543POPC   PO424036  20.233  28.049   9.444
 1543POPC   GL124037  20.125  27.769   9.152
 1543POPC   GL224038  19.797  27.818   9.116
 1543POPC   C1A24039  20.033  27.455   8.814
 1543POPC   D2A24040  20.045  27.266   8.418
 1543POPC   C3A24041  19.836  27.386   8.018
 1543POPC   C4A24042  19.830  27.638   7.610
 1543POPC   C1B24043  19.921  27.948   8.736
 1543POPC   C2B24044  19.814  27.744   8.395
 1543POPC   C3B24045  19.872  27.922   8.019
 1543POPC   C4B24046  19.549  28.030   7.770
 1544POPC   NC324047  14.819  38.398   9.947
 1544POPC   PO424048  14.423  38.518   9.346
 1544POPC   GL124049  14.702  38.547   9.031
 1544POPC   GL224050  14.475  38.818   8.918
 1544POPC   C1A24051  14.701  38.285   8.669
 1544POPC   D2A24052  14.361  38.151   8.382
 1544POPC   C3A24053  14.468  38.151   7.956
 1544POPC   C4A24054  14.477  37.831   7.693
 1544POPC   C1B24055  14.278  38.555   8.702
 1544POPC   C2B24056  14.038  38.554   8.406
 1544POPC   C3B24057  14.028  38.425   8.037
 1544POPC   C4B24058  14.199  38.568   7.704
 1545POPC   NC324059  14.791  39.264   9.571
 1545POPC   PO424060  14.520  38.742   9.812
 1545POPC   GL124061  14.375  39.049   9.359
 1545POPC   GL224062  14.622  39.268   9.113
 1545POPC   C1A24063  14.148  39.226   8.933
 1545POPC   D2A24064  14.094  39.486   8.520
 1545POPC   C3A24065  14.179  39.344   8.064
 1545POPC   C4A24066  14.354  39.032   7.788
 1545POPC   C1B24067  14.576  39.533   8.760
 1545POPC   C2B24068  14.548  39.247   8.431
 1545POPC   C3B24069  14.772  39.158   8.078
 1545POPC   C4B24070  14.655  39.435   7.781
 1546POPC   NC324071  15.084  21.534   9.612
 1546POPC   PO424072  15.548  21.104   9.437
 1546POPC   GL124073  15.186  21.268   9.173
 1546POPC   GL224074  15.217  21.638   9.115
 1546POPC   C1A24075  15.197  21.212   8.728
 1546POPC   D2A24076  15.371  20.904   8.471
 1546POPC   C3A24077  15.421  21.083   8.065
 1546POPC   C4A24078  15.101  21.299   7.825
 1546POPC   C1B24079  15.265  21.728   8.668
 1546POPC   C2B24080  15.134  21.603   8.253
 1546POPC   C3B24081  15.150  21.803   7.836
 1546POPC   C4B24082  14.901  21.659   7.450
 1547POPC   NC324083  10.106  18.735   9.743
 1547POPC   PO424084   9.567  19.064   9.458
 1547POPC   GL124085   9.800  19.301   9.130
 1547POPC   GL224086   9.954  19.594   9.240
 1547POPC   C1A24087   9.874  19.159   8.690
 1547POPC   D2A24088   9.732  18.992   8.312
 1547POPC   C3A24089   9.955  18.915   7.945
 1547POPC   C4A24090   9.702  19.085   7.601
 1547POPC   C1B24091  10.010  19.634   8.793
 1547POPC   C2B24092   9.829  19.528   8.348
 1547POPC   C3B24093   9.931  19.447   7.871
 1547POPC   C4B24094   9.921  19.476   7.361
 1548POPC   NC324095  19.348  24.166   9.554
 1548POPC   PO424096  19.130  24.797   9.617
 1548POPC   GL124097  19.058  24.557   9.249
 1548POPC   GL224098  18.731  24.714   9.116
 1548POPC   C1A24099  19.301  24.363   8.870
 1548POPC   D2A24100  19.389  24.116   8.481
 1548POPC   C3A24101  19.242  24.284   8.083
 1548POPC   C4A24102  19.411  24.489   7.747
 1548POPC   C1B24103  18.815  24.419   8.828
 1548POPC   C2B24104  18.963  24.530   8.464
 1548POPC   C3B24105  18.729  24.503   8.095
 1548POPC   C4B24106  18.888  24.536   7.691
 1549POPC   NC324107  30.398  32.381   9.569
 1549POPC   PO424108  29.887  32.023   9.493
 1549POPC   GL124109  30.024  32.281   9.180
 1549POPC   GL224110  29.672  32.352   9.167
 1549POPC   C1A24111  30.203  32.180   8.781
 1549POPC   D2A24112  30.069  32.074   8.393
 1549POPC   C3A24113  30.247  32.235   7.997
 1549POPC   C4A24114  30.098  32.149   7.586
 1549POPC   C1B24115  29.653  32.208   8.752
 1549POPC   C2B24116  29.700  32.410   8.333
 1549POPC   C3B24117  29.742  32.200   7.976
 1549POPC   C4B24118  29.453  32.110   7.711
 1550POPC   NC324119  17.011  35.234   9.584
 1550POPC   PO424120  16.370  35.254   9.701
 1550POPC   GL124121  16.612  35.233   9.245
 1550POPC   GL224122  16.760  35.567   9.250
 1550POPC   C1A24123  16.751  35.166   8.775
 1550POPC   D2A24124  16.840  35.307   8.342
 1550POPC   C3A24125  16.591  35.259   7.971
 1550POPC   C4A24126  16.699  35.170   7.540
 1550POPC   C1B24127  16.742  35.678   8.813
 1550POPC   C2B24128  16.813  35.849   8.407
 1550POPC   C3B24129  16.787  35.729   7.987
 1550POPC   C4B24130  16.838  35.652   7.557
 1551POPC   NC324131   7.233  21.101   9.437
 1551POPC   PO424132   7.507  21.555   9.786
 1551POPC   GL124133   7.451  21.514   9.256
 1551POPC   GL224134   7.415  21.821   9.067
 1551POPC   C1A24135   7.176  21.438   8.799
 1551POPC   D2A24136   7.325  21.450   8.343
 1551POPC   C3A24137   7.455  21.195   7.991
 1551POPC   C4A24138   7.315  21.207   7.516
 1551POPC   C1B24139   7.658  21.543   8.780
 1551POPC   C2B24140   7.832  21.395   8.393
 1551POPC   C3B24141   7.872  21.544   7.989
 1551POPC   C4B24142   7.822  21.294   7.639
 1552POPC   NC324143  19.703  28.163   9.478
 1552POPC   PO424144  19.944  28.770   9.321
 1552POPC   GL124145  19.942  28.385   9.043
 1552POPC   GL224146  19.598  28.296   8.999
 1552POPC   C1A24147  19.852  28.434   8.561
 1552POPC   D2A24148  19.958  28.657   8.140
 1552POPC   C3A24149  19.844  28.449   7.741
 1552POPC   C4A24150  19.954  28.108   7.427
 1552POPC   C1B24151  19.447  28.093   8.635
 1552POPC   C2B24152  19.303  28.197   8.229
 1552POPC   C3B24153  19.429  28.605   8.069
 1552POPC   C4B24154  19.456  28.829   7.690
 1553POPC   NC324155  34.345   8.220   9.644
 1553POPC   PO424156  34.889   8.338   9.261
 1553POPC   GL124157  34.483   8.186   9.150
 1553POPC   GL224158  34.162   8.390   9.186
 1553POPC   C1A24159  34.411   7.972   8.772
 1553POPC   D2A24160  34.717   7.939   8.427
 1553POPC   C3A24161  34.572   8.055   8.045
 1553POPC   C4A24162  34.315   7.872   7.757
 1553POPC   C1B24163  34.319   8.503   8.773
 1553POPC   C2B24164  34.296   8.307   8.395
 1553POPC   C3B24165  34.111   8.309   8.008
 1553POPC   C4B24166  34.033   8.508   7.603
 1554POPC   NC324167  25.425  40.310   9.423
 1554POPC   PO424168  24.959  40.822   9.481
 1554POPC   GL124169  25.050  40.827   9.070
 1554POPC   GL224170  25.098  40.485   9.064
 1554POPC   C1A24171  24.989  40.735   8.634
 1554POPC   D2A24172  25.309  40.804   8.372
 1554POPC   C3A24173  25.395  40.988   7.999
 1554POPC   C4A24174  25.177  40.877   7.652
 1554POPC   C1B24175  25.437  40.427   8.766
 1554POPC   C2B24176  25.512  40.340   8.350
 1554POPC   C3B24177  25.301  40.465   7.960
 1554POPC   C4B24178  25.469  40.476   7.543
 1555POPC   NC324179  33.341  30.801   9.546
 1555POPC   PO424180  32.766  30.529   9.570
 1555POPC   GL124181  32.971  30.739   9.183
 1555POPC   GL224182  33.213  30.514   9.142
 1555POPC   C1A24183  32.825  30.709   8.742
 1555POPC   D2A24184  32.852  30.934   8.332
 1555POPC   C3A24185  32.904  30.695   7.975
 1555POPC   C4A24186  33.246  30.684   7.708
 1555POPC   C1B24187  33.200  30.356   8.743
 1555POPC   C2B24188  33.033  30.381   8.361
 1555POPC   C3B24189  33.217  30.252   7.981
 1555POPC   C4B24190  33.028  30.194   7.579
 1556POPC   NC324191  11.368  42.842   9.500
 1556POPC   PO424192  10.944  43.301   9.406
 1556POPC   GL124193  11.182  43.004   9.036
 1556POPC   GL224194  11.535  42.816   9.028
 1556POPC   C1A24195  11.454  43.104   8.624
 1556POPC   D2A24196  11.497  43.492   8.326
 1556POPC   C3A24197  11.250  43.474   7.930
 1556POPC   C4A24198  11.150  43.179   7.585
 1556POPC   C1B24199  11.421  42.547   8.654
 1556POPC   C2B24200  11.269  42.463   8.224
 1556POPC   C3B24201  11.269  42.832   7.957
 1556POPC   C4B24202  11.633  43.146   7.944
 1557POPC   NC324203  27.753   8.480   9.486
 1557POPC   PO424204  27.144   8.188   9.530
 1557POPC   GL124205  27.458   8.220   9.167
 1557POPC   GL224206  27.776   8.028   9.213
 1557POPC   C1A24207  27.582   8.341   8.755
 1557POPC   D2A24208  27.329   8.224   8.404
 1557POPC   C3A24209  27.557   8.288   8.028
 1557POPC   C4A24210  27.736   8.353   7.656
 1557POPC   C1B24211  27.974   7.984   8.812
 1557POPC   C2B24212  27.814   8.033   8.407
 1557POPC   C3B24213  27.916   7.910   8.025
 1557POPC   C4B24214  28.022   7.923   7.607
 1558POPC   NC324215  21.755  29.484   9.557
 1558POPC   PO424216  22.391  29.357   9.747
 1558POPC   GL124217  22.196  29.101   9.376
 1558POPC   GL224218  22.437  28.793   9.300
 1558POPC   C1A24219  22.048  29.307   8.964
 1558POPC   D2A24220  21.967  29.382   8.489
 1558POPC   C3A24221  22.184  29.230   8.089
 1558POPC   C4A24222  22.013  29.153   7.659
 1558POPC   C1B24223  22.389  28.948   8.877
 1558POPC   C2B24224  22.528  28.963   8.448
 1558POPC   C3B24225  22.466  28.815   8.021
 1558POPC   C4B24226  22.512  29.068   7.639
 1559POPC   NC324227  35.416  24.058   9.454
 1559POPC   PO424228  35.493  24.753   9.510
 1559POPC   GL124229  35.329  24.568   9.178
 1559POPC   GL224230  35.063  24.789   9.213
 1559POPC   C1A24231  35.403  24.397   8.761
 1559POPC   D2A24232  35.158  24.374   8.371
 1559POPC   C3A24233  35.406  24.354   7.980
 1559POPC   C4A24234  35.712  24.021   7.855
 1559POPC   C1B24235  35.030  24.733   8.784
 1559POPC   C2B24236  35.144  24.899   8.403
 1559POPC   C3B24237  35.062  24.737   7.996
 1559POPC   C4B24238  35.119  24.615   7.574
 1560POPC   NC324239  14.601  19.978   9.461
 1560POPC   PO424240  13.996  19.640   9.388
 1560POPC   GL124241  14.196  19.917   9.129
 1560POPC   GL224242  14.496  19.719   9.025
 1560POPC   C1A24243  14.169  20.127   8.752
 1560POPC   D2A24244  14.379  20.155   8.368
 1560POPC   C3A24245  14.251  20.105   7.955
 1560POPC   C4A24246  14.342  19.894   7.557
 1560POPC   C1B24247  14.697  20.080   8.804
 1560POPC   C2B24248  14.881  20.129   8.403
 1560POPC   C3B24249  14.746  19.913   8.055
 1560POPC   C4B24250  14.825  19.942   7.639
 1561POPC   NC324251  26.809  21.371   9.522
 1561POPC   PO424252  26.228  21.593   9.429
 1561POPC   GL124253  26.604  21.566   9.115
 1561POPC   GL224254  26.870  21.249   9.047
 1561POPC   C1A24255  26.806  21.627   8.732
 1561POPC   D2A24256  26.706  21.482   8.382
 1561POPC   C3A24257  26.880  21.634   8.031
 1561POPC   C4A24258  26.724  21.330   7.768
 1561POPC   C1B24259  27.256  21.414   8.814
 1561POPC   C2B24260  27.258  21.519   8.391
 1561POPC   C3B24261  27.206  21.224   8.053
 1561POPC   C4B24262  27.192  21.289   7.632
 1562POPC   NC324263  34.633  15.959   9.605
 1562POPC   PO424264  35.280  15.934   9.604
 1562POPC   GL124265  35.478  15.953   9.191
 1562POPC   GL224266  35.523  16.300   9.139
 1562POPC   C1A24267  35.636  15.946   8.753
 1562POPC   D2A24268  35.780  16.138   8.368
 1562POPC   C3A24269  35.498  16.061   7.979
 1562POPC   C4A24270  35.097  15.793   7.922
 1562POPC   C1B24271  35.259  16.335   8.783
 1562POPC   C2B24272  34.902  16.179   8.513
 1562POPC   C3B24273  34.802  16.240   8.066
 1562POPC   C4B24274  35.101  16.278   7.731
 1563POPC   NC324275  28.772  10.533   9.549
 1563POPC   PO424276  28.102  10.570   9.541
 1563POPC   GL124277  28.312  10.525   9.152
 1563POPC   GL224278  28.106  10.780   9.043
 1563POPC   C1A24279  28.624  10.587   8.787
 1563POPC   D2A24280  28.678  10.415   8.355
 1563POPC   C3A24281  28.549  10.627   7.960
 1563POPC   C4A24282  28.450  10.388   7.564
 1563POPC   C1B24283  28.147  10.619   8.631
 1563POPC   C2B24284  28.114  10.536   8.179
 1563POPC   C3B24285  28.072  10.680   7.770
 1563POPC   C4B24286  28.280  10.841   7.380
 1564POPC   NC324287  14.753  15.118   9.622
 1564POPC   PO424288  14.165  15.024   9.454
 1564POPC   GL124289  14.518  15.031   9.194
 1564POPC   GL224290  14.601  15.391   9.193
 1564POPC   C1A24291  14.708  15.011   8.823
 1564POPC   D2A24292  14.453  15.024   8.474
 1564POPC   C3A24293  14.686  15.006   8.119
 1564POPC   C4A24294  14.589  15.013   7.709
 1564POPC   C1B24295  14.303  15.370   8.843
 1564POPC   C2B24296  14.348  15.531   8.419
 1564POPC   C3B24297  14.371  15.394   8.001
 1564POPC   C4B24298  14.209  15.322   7.562
 1565POPC   NC324299   8.064  33.778   9.482
 1565POPC   PO424300   8.465  33.632   9.040
 1565POPC   GL124301   8.010  33.690   8.943
 1565POPC   GL224302   7.864  33.405   9.115
 1565POPC   C1A24303   7.770  33.710   8.515
 1565POPC   D2A24304   7.844  33.723   8.036
 1565POPC   C3A24305   8.053  34.087   7.902
 1565POPC   C4A24306   8.212  34.487   7.718
 1565POPC   C1B24307   7.952  33.251   8.701
 1565POPC   C2B24308   8.083  33.362   8.285
 1565POPC   C3B24309   8.337  33.553   7.959
 1565POPC   C4B24310   8.475  33.872   7.695
 1566POPC   NC324311  26.853  32.408   9.495
 1566POPC   PO424312  26.500  31.865   9.490
 1566POPC   GL124313  26.723  32.059   9.145
 1566POPC   GL224314  26.645  32.416   9.031
 1566POPC   C1A24315  26.960  31.975   8.797
 1566POPC   D2A24316  26.786  31.820   8.436
 1566POPC   C3A24317  26.931  31.946   8.026
 1566POPC   C4A24318  26.627  31.772   7.759
 1566POPC   C1B24319  26.459  32.308   8.628
 1566POPC   C2B24320  26.492  32.177   8.196
 1566POPC   C3B24321  26.649  32.290   7.790
 1566POPC   C4B24322  27.071  32.429   7.815
 1567POPC   NC324323  18.745  44.267   9.098
 1567POPC   PO424324  18.886  44.856   9.443
 1567POPC   GL124325  19.046  44.701   9.055
 1567POPC   GL224326  19.287  44.418   9.067
 1567POPC   C1A24327  18.813  44.725   8.650
 1567POPC   D2A24328  18.997  44.717   8.287
 1567POPC   C3A24329  18.924  44.966   7.971
 1567POPC   C4A24330  19.234  44.749   7.746
 1567POPC   C1B24331  19.166  44.342   8.645
 1567POPC   C2B24332  18.808  44.247   8.391
 1567POPC   C3B24333  18.943  44.308   7.989
 1567POPC   C4B24334  19.241  44.234   7.690
 1568POPC   NC324335   9.064  11.987   9.667
 1568POPC   PO424336   8.894  11.270   9.498
 1568POPC   GL124337   9.051  11.133   9.102
 1568POPC   GL224338   8.852  10.839   9.053
 1568POPC   C1A24339   8.985  11.300   8.678
 1568POPC   D2A24340   8.723  11.312   8.313
 1568POPC   C3A24341   9.020  11.410   7.981
 1568POPC   C4A24342   9.402  11.543   7.795
 1568POPC   C1B24343   8.986  10.802   8.605
 1568POPC   C2B24344   9.004  10.920   8.184
 1568POPC   C3B24345   8.713  11.032   7.827
 1568POPC   C4B24346   8.779  10.838   7.395
 1569POPC   NC324347  41.547   5.453   9.462
 1569POPC   PO424348  42.097   5.418   9.406
 1569POPC   GL124349  41.838   5.597   9.049
 1569POPC   GL224350  41.692   5.901   9.159
 1569POPC   C1A24351  41.712   5.799   8.630
 1569POPC   D2A24352  41.468   5.704   8.255
 1569POPC   C3A24353  41.648   5.667   7.847
 1569POPC   C4A24354  41.423   5.617   7.442
 1569POPC   C1B24355  41.394   6.126   8.867
 1569POPC   C2B24356  41.367   6.202   8.408
 1569POPC   C3B24357  41.650   6.151   8.052
 1569POPC   C4B24358  42.034   6.067   7.849
 1570POPC   NC324359   0.906  12.353   9.414
 1570POPC   PO424360   0.227  12.377   9.350
 1570POPC   GL124361   0.437  12.123   9.112
 1570POPC   GL224362   0.605  11.848   9.273
 1570POPC   C1A24363   0.251  12.041   8.716
 1570POPC   D2A24364   0.032  11.814   8.416
 1570POPC   C3A24365   0.162  12.004   8.070
 1570POPC   C4A24366   0.257  12.323   7.811
 1570POPC   C1B24367   0.710  11.840   8.802
 1570POPC   C2B24368   0.621  11.846   8.379
 1570POPC   C3B24369   0.697  12.018   7.982
 1570POPC   C4B24370   0.581  12.003   7.573
 1571POPC   NC324371   0.078  43.280   9.968
 1571POPC   PO424372  44.601  43.209   9.644
 1571POPC   GL124373  44.620  43.072   9.173
 1571POPC   GL224374  44.539  42.717   9.113
 1571POPC   C1A24375  44.552  43.015   8.696
 1571POPC   D2A24376  44.640  43.081   8.223
 1571POPC   C3A24377  44.386  43.409   8.014
 1571POPC   C4A24378  44.269  43.410   7.548
 1571POPC   C1B24379  44.287  42.538   8.772
 1571POPC   C2B24380  44.346  42.669   8.360
 1571POPC   C3B24381  44.611  42.590   8.003
 1571POPC   C4B24382  44.947  42.831   7.806
 1572POPC   NC324383  29.876  43.329   9.367
 1572POPC   PO424384  30.175  42.835   9.551
 1572POPC   GL124385  30.313  42.984   9.152
 1572POPC   GL224386  30.430  43.325   9.154
 1572POPC   C1A24387  30.077  42.930   8.808
 1572POPC   D2A24388  30.072  42.826   8.399
 1572POPC   C3A24389  29.762  43.041   8.154
 1572POPC   C4A24390  29.884  43.062   7.755
 1572POPC   C1B24391  30.254  43.418   8.794
 1572POPC   C2B24392  30.033  43.336   8.476
 1572POPC   C3B24393  30.184  43.335   8.094
 1572POPC   C4B24394  30.216  43.458   7.696
 1573POPC   NC324395  21.018  14.267   9.774
 1573POPC   PO424396  20.399  14.326   9.533
 1573POPC   GL124397  20.497  14.581   9.184
 1573POPC   GL224398  20.827  14.456   9.155
 1573POPC   C1A24399  20.624  14.711   8.753
 1573POPC   D2A24400  20.523  14.518   8.391
 1573POPC   C3A24401  20.308  14.648   8.080
 1573POPC   C4A24402  20.537  14.689   7.708
 1573POPC   C1B24403  20.703  14.190   8.753
 1573POPC   C2B24404  20.526  14.013   8.358
 1573POPC   C3B24405  20.646  14.220   7.968
 1573POPC   C4B24406  20.859  14.014   7.675
 1574POPC   NC324407  13.702  26.550   9.217
 1574POPC   PO424408  13.420  27.171   9.494
 1574POPC   GL124409  13.547  27.027   9.116
 1574POPC   GL224410  13.308  26.743   8.970
 1574POPC   C1A24411  13.487  27.159   8.711
 1574POPC   D2A24412  13.436  26.981   8.321
 1574POPC   C3A24413  13.698  27.013   7.980
 1574POPC   C4A24414  13.623  26.972   7.551
 1574POPC   C1B24415  13.496  26.532   8.574
 1574POPC   C2B24416  13.753  26.520   8.160
 1574POPC   C3B24417  13.956  26.630   7.731
 1574POPC   C4B24418  13.801  26.552   7.286
 1575POPC   NC324419  16.335  31.055   9.581
 1575POPC   PO424420  15.793  31.423   9.582
 1575POPC   GL124421  15.947  31.309   9.179
 1575POPC   GL224422  16.015  30.989   9.183
 1575POPC   C1A24423  16.043  31.307   8.714
 1575POPC   D2A24424  16.098  31.234   8.269
 1575POPC   C3A24425  15.980  31.582   8.010
 1575POPC   C4A24426  15.870  31.786   7.615
 1575POPC   C1B24427  15.772  30.893   8.835
 1575POPC   C2B24428  15.657  30.949   8.412
 1575POPC   C3B24429  15.666  31.142   7.997
 1575POPC   C4B24430  15.990  31.141   7.753
 1576POPC   NC324431  35.967  20.483   9.469
 1576POPC   PO424432  36.403  21.058   9.475
 1576POPC   GL124433  36.219  20.776   9.130
 1576POPC   GL224434  36.250  20.377   9.079
 1576POPC   C1A24435  35.923  20.638   8.794
 1576POPC   D2A24436  35.842  20.365   8.438
 1576POPC   C3A24437  36.075  20.432   8.041
 1576POPC   C4A24438  35.906  20.601   7.651
 1576POPC   C1B24439  36.435  20.434   8.674
 1576POPC   C2B24440  36.568  20.453   8.233
 1576POPC   C3B24441  36.518  20.232   7.846
 1576POPC   C4B24442  36.314  20.361   7.487
 1577POPC   NC324443  22.658  13.427   9.401
 1577POPC   PO424444  23.226  13.682   9.670
 1577POPC   GL124445  23.253  13.833   9.142
 1577POPC   GL224446  22.886  13.885   9.130
 1577POPC   C1A24447  23.320  13.710   8.701
 1577POPC   D2A24448  23.114  13.393   8.444
 1577POPC   C3A24449  23.273  13.279   8.037
 1577POPC   C4A24450  23.012  13.350   7.692
 1577POPC   C1B24451  22.755  13.670   8.736
 1577POPC   C2B24452  22.691  13.720   8.300
 1577POPC   C3B24453  22.565  13.534   7.907
 1577POPC   C4B24454  22.502  13.767   7.524
 1578POPC   NC324455   1.258  15.122   9.587
 1578POPC   PO424456   0.799  15.615   9.540
 1578POPC   GL124457   0.956  15.235   9.186
 1578POPC   GL224458   1.195  14.902   9.126
 1578POPC   C1A24459   1.185  15.223   8.748
 1578POPC   D2A24460   1.076  15.128   8.321
 1578POPC   C3A24461   1.343  15.233   8.004
 1578POPC   C4A24462   1.053  15.309   7.718
 1578POPC   C1B24463   0.884  14.784   8.799
 1578POPC   C2B24464   0.855  14.656   8.353
 1578POPC   C3B24465   0.854  14.863   7.911
 1578POPC   C4B24466   0.915  14.881   7.422
 1579POPC   NC324467  22.895  37.934   9.477
 1579POPC   PO424468  23.091  37.348   9.739
 1579POPC   GL124469  23.051  37.503   9.295
 1579POPC   GL224470  23.321  37.777   9.210
 1579POPC   C1A24471  23.070  37.507   8.847
 1579POPC   D2A24472  22.761  37.527   8.562
 1579POPC   C3A24473  22.879  37.576   8.118
 1579POPC   C4A24474  22.712  37.617   7.710
 1579POPC   C1B24475  23.141  38.020   8.859
 1579POPC   C2B24476  23.002  37.952   8.452
 1579POPC   C3B24477  23.109  38.085   8.055
 1579POPC   C4B24478  23.313  37.908   7.752
 1580POPC   NC324479  17.912  14.675   9.437
 1580POPC   PO424480  17.274  14.444   9.448
 1580POPC   GL124481  17.519  14.514   9.137
 1580POPC   GL224482  17.714  14.227   9.192
 1580POPC   C1A24483  17.425  14.712   8.788
 1580POPC   D2A24484  17.505  14.663   8.394
 1580POPC   C3A24485  17.230  14.348   8.220
 1580POPC   C4A24486  17.365  14.525   7.851
 1580POPC   C1B24487  17.766  13.998   8.791
 1580POPC   C2B24488  17.695  14.187   8.363
 1580POPC   C3B24489  17.611  14.091   7.907
 1580POPC   C4B24490  17.545  14.220   7.457
 1581POPC   NC324491  15.580  38.854   9.485
 1581POPC   PO424492  15.211  39.467   9.562
 1581POPC   GL124493  15.239  39.256   9.180
 1581POPC   GL224494  15.584  39.277   9.155
 1581POPC   C1A24495  15.370  39.141   8.727
 1581POPC   D2A24496  15.198  38.979   8.335
 1581POPC   C3A24497  15.286  39.121   7.926
 1581POPC   C4A24498  15.007  39.076   7.584
 1581POPC   C1B24499  15.691  39.531   8.749
 1581POPC   C2B24500  15.531  39.467   8.287
 1581POPC   C3B24501  15.525  39.551   7.808
 1581POPC   C4B24502  15.539  39.871   7.412
 1582POPC   NC324503   3.331   5.107   9.598
 1582POPC   PO424504   3.977   4.956   9.539
 1582POPC   GL124505   3.708   5.042   9.208
 1582POPC   GL224506   3.393   4.843   9.185
 1582POPC   C1A24507   3.559   5.298   8.866
 1582POPC   D2A24508   3.346   5.164   8.496
 1582POPC   C3A24509   3.487   5.267   8.090
 1582POPC   C4A24510   3.235   5.290   7.733
 1582POPC   C1B24511   3.550   4.780   8.784
 1582POPC   C2B24512   3.613   4.629   8.394
 1582POPC   C3B24513   3.674   4.803   8.045
 1582POPC   C4B24514   3.506   4.879   7.686
 1583POPC   NC324515   5.487  20.748   9.785
 1583POPC   PO424516   4.848  20.783   9.460
 1583POPC   GL124517   4.946  20.492   9.083
 1583POPC   GL224518   4.961  20.788   8.924
 1583POPC   C1A24519   5.024  20.429   8.599
 1583POPC   D2A24520   5.158  20.585   8.197
 1583POPC   C3A24521   4.981  20.553   7.802
 1583POPC   C4A24522   5.140  20.665   7.377
 1583POPC   C1B24523   5.308  20.881   8.640
 1583POPC   C2B24524   5.366  21.042   8.224
 1583POPC   C3B24525   5.399  20.862   7.802
 1583POPC   C4B24526   5.555  21.005   7.389
 1584POPC   NC324527  27.372  24.730   9.444
 1584POPC   PO424528  27.021  24.195   9.607
 1584POPC   GL124529  26.725  24.421   9.308
 1584POPC   GL224530  26.916  24.716   9.199
 1584POPC   C1A24531  26.564  24.497   8.863
 1584POPC   D2A24532  26.479  24.478   8.404
 1584POPC   C3A24533  26.719  24.592   8.088
 1584POPC   C4A24534  26.770  24.451   7.673
 1584POPC   C1B24535  27.053  24.367   8.921
 1584POPC   C2B24536  27.014  24.364   8.458
 1584POPC   C3B24537  27.136  24.335   8.003
 1584POPC   C4B24538  27.421  24.159   7.761
 1585POPC   NC324539  24.650   7.980   9.350
 1585POPC   PO424540  24.120   8.417   9.400
 1585POPC   GL124541  24.210   8.132   9.065
 1585POPC   GL224542  24.559   8.245   8.928
 1585POPC   C1A24543  24.162   8.152   8.631
 1585POPC   D2A24544  24.513   8.261   8.400
 1585POPC   C3A24545  24.337   8.245   8.031
 1585POPC   C4A24546  24.442   8.206   7.644
 1585POPC   C1B24547  24.717   7.849   8.703
 1585POPC   C2B24548  24.868   7.682   8.304
 1585POPC   C3B24549  24.789   7.981   7.965
 1585POPC   C4B24550  24.826   8.452   7.984
 1586POPC   NC324551  24.932  19.103   9.390
 1586POPC   PO424552  24.477  19.480   9.636
 1586POPC   GL124553  24.391  19.205   9.248
 1586POPC   GL224554  24.469  18.866   9.237
 1586POPC   C1A24555  24.574  19.263   8.825
 1586POPC   D2A24556  24.821  19.202   8.443
 1586POPC   C3A24557  24.576  19.229   8.070
 1586POPC   C4A24558  24.611  19.230   7.631
 1586POPC   C1B24559  24.515  18.771   8.768
 1586POPC   C2B24560  24.696  18.708   8.324
 1586POPC   C3B24561  24.623  18.709   7.860
 1586POPC   C4B24562  24.553  18.769   7.401
 1587POPC   NC324563  44.474   3.312   9.705
 1587POPC   PO424564  44.249   3.882   9.432
 1587POPC   GL124565  44.371   3.505   9.228
 1587POPC   GL224566  44.735   3.516   9.121
 1587POPC   C1A24567  44.375   3.460   8.782
 1587POPC   D2A24568  44.624   3.720   8.510
 1587POPC   C3A24569  44.621   3.622   8.066
 1587POPC   C4A24570  44.533   3.823   7.706
 1587POPC   C1B24571  44.822   3.201   8.806
 1587POPC   C2B24572  44.814   3.268   8.360
 1587POPC   C3B24573  44.978   3.201   7.938
 1587POPC   C4B24574   0.005   3.214   7.453
 1588POPC   NC324575  24.322  24.997   9.642
 1588POPC   PO424576  24.976  25.205   9.670
 1588POPC   GL124577  24.668  25.101   9.233
 1588POPC   GL224578  24.371  25.279   9.180
 1588POPC   C1A24579  24.498  24.928   8.791
 1588POPC   D2A24580  24.578  24.803   8.343
 1588POPC   C3A24581  24.445  24.956   7.919
 1588POPC   C4A24582  24.258  25.113   7.491
 1588POPC   C1B24583  24.485  25.443   8.790
 1588POPC   C2B24584  24.482  25.361   8.353
 1588POPC   C3B24585  24.240  25.412   7.966
 1588POPC   C4B24586  24.409  25.588   7.614
 1589POPC   NC324587  15.440  20.671   9.528
 1589POPC   PO424588  15.022  20.202   9.429
 1589POPC   GL124589  15.333  20.382   9.114
 1589POPC   GL224590  15.353  20.784   9.044
 1589POPC   C1A24591  15.193  20.437   8.705
 1589POPC   D2A24592  14.943  20.638   8.423
 1589POPC   C3A24593  15.189  20.604   8.067
 1589POPC   C4A24594  15.119  20.351   7.720
 1589POPC   C1B24595  14.914  20.832   8.938
 1589POPC   C2B24596  14.697  21.054   8.610
 1589POPC   C3B24597  14.796  21.074   8.163
 1589POPC   C4B24598  14.875  20.845   7.744
 1590POPC   NC324599  38.400  19.541   9.831
 1590POPC   PO424600  38.395  18.863   9.817
 1590POPC   GL124601  38.307  18.814   9.248
 1590POPC   GL224602  38.492  19.136   9.037
 1590POPC   C1A24603  38.479  18.753   8.777
 1590POPC   D2A24604  38.445  19.051   8.438
 1590POPC   C3A24605  38.336  18.831   8.053
 1590POPC   C4A24606  38.318  19.012   7.621
 1590POPC   C1B24607  38.725  19.406   8.732
 1590POPC   C2B24608  38.565  19.581   8.340
 1590POPC   C3B24609  38.444  19.360   7.979
 1590POPC   C4B24610  38.727  19.331   7.608
 1591POPC   NC324611   3.780  16.435   9.560
 1591POPC   PO424612   3.552  17.030   9.520
 1591POPC   GL124613   3.542  16.744   9.199
 1591POPC   GL224614   3.841  16.574   9.076
 1591POPC   C1A24615   3.523  16.855   8.766
 1591POPC   D2A24616   3.439  17.021   8.358
 1591POPC   C3A24617   3.629  16.920   7.987
 1591POPC   C4A24618   3.515  16.550   7.782
 1591POPC   C1B24619   3.814  16.433   8.640
 1591POPC   C2B24620   3.929  16.562   8.211
 1591POPC   C3B24621   4.068  16.722   7.782
 1591POPC   C4B24622   4.115  16.915   7.339
 1592POPC   NC324623  12.863  41.220   9.508
 1592POPC   PO424624  12.711  40.571   9.510
 1592POPC   GL124625  12.816  40.647   9.119
 1592POPC   GL224626  13.021  40.903   9.148
 1592POPC   C1A24627  12.683  40.881   8.763
 1592POPC   D2A24628  12.887  40.923   8.389
 1592POPC   C3A24629  12.614  40.991   8.074
 1592POPC   C4A24630  12.787  40.959   7.680
 1592POPC   C1B24631  13.182  40.727   8.761
 1592POPC   C2B24632  13.210  40.456   8.397
 1592POPC   C3B24633  13.277  40.581   7.963
 1592POPC   C4B24634  13.337  40.896   7.638
 1593POPC   NC324635  20.398  17.122   9.510
 1593POPC   PO424636  20.500  17.747   9.602
 1593POPC   GL124637  20.689  17.469   9.274
 1593POPC   GL224638  20.608  17.680   9.060
 1593POPC   C1A24639  20.555  17.242   8.851
 1593POPC   D2A24640  20.386  17.453   8.485
 1593POPC   C3A24641  20.523  17.273   8.065
 1593POPC   C4A24642  20.622  17.494   7.702
 1593POPC   C1B24643  20.444  17.926   8.730
 1593POPC   C2B24644  20.175  17.919   8.394
 1593POPC   C3B24645  20.325  17.760   8.046
 1593POPC   C4B24646  20.614  17.998   7.838
 1594POPC   NC324647  40.285  36.051   9.547
 1594POPC   PO424648  39.805  36.515   9.432
 1594POPC   GL124649  39.927  36.189   9.169
 1594POPC   GL224650  40.259  36.258   9.093
 1594POPC   C1A24651  39.894  36.240   8.717
 1594POPC   D2A24652  39.904  36.559   8.392
 1594POPC   C3A24653  39.757  36.362   8.023
 1594POPC   C4A24654  39.679  35.998   7.741
 1594POPC   C1B24655  40.378  36.074   8.717
 1594POPC   C2B24656  40.267  36.219   8.305
 1594POPC   C3B24657  40.144  36.040   7.922
 1594POPC   C4B24658  40.138  35.897   7.457
 1595POPC   NC324659  18.293  16.321   9.649
 1595POPC   PO424660  18.395  15.598   9.604
 1595POPC   GL124661  18.262  15.901   9.200
 1595POPC   GL224662  17.947  16.004   9.061
 1595POPC   C1A24663  18.365  15.969   8.736
 1595POPC   D2A24664  18.687  15.984   8.405
 1595POPC   C3A24665  18.546  16.079   8.005
 1595POPC   C4A24666  18.389  15.947   7.623
 1595POPC   C1B24667  17.882  16.138   8.607
 1595POPC   C2B24668  18.086  15.949   8.231
 1595POPC   C3B24669  17.997  15.721   7.836
 1595POPC   C4B24670  18.079  15.660   7.348
 1596POPC   NC324671  24.986  38.670   9.290
 1596POPC   PO424672  25.478  38.247   9.491
 1596POPC   GL124673  25.561  38.258   9.090
 1596POPC   GL224674  25.512  38.610   9.108
 1596POPC   C1A24675  25.373  38.139   8.729
 1596POPC   D2A24676  25.148  38.272   8.363
 1596POPC   C3A24677  25.388  38.186   7.978
 1596POPC   C4A24678  25.271  38.213   7.537
 1596POPC   C1B24679  25.412  38.790   8.720
 1596POPC   C2B24680  25.523  38.944   8.312
 1596POPC   C3B24681  25.268  38.669   8.027
 1596POPC   C4B24682  24.841  38.689   7.883
 1597POPC   NC324683  36.213  12.443   9.494
 1597POPC   PO424684  35.913  13.058   9.387
 1597POPC   GL124685  36.079  12.763   9.112
 1597POPC   GL224686  35.894  12.459   9.090
 1597POPC   C1A24687  36.163  12.646   8.693
 1597POPC   D2A24688  36.020  12.883   8.365
 1597POPC   C3A24689  36.334  12.913   8.047
 1597POPC   C4A24690  36.184  13.024   7.666
 1597POPC   C1B24691  35.946  12.187   8.733
 1597POPC   C2B24692  35.913  12.349   8.309
 1597POPC   C3B24693  35.928  12.618   7.929
 1597POPC   C4B24694  35.998  12.594   7.459
 1598POPC   NC324695  34.821   1.374   9.755
 1598POPC   PO424696  35.302   0.966   9.366
 1598POPC   GL124697  35.255   1.023   8.959
 1598POPC   GL224698  35.271   1.389   8.981
 1598POPC   C1A24699  35.301   0.874   8.534
 1598POPC   D2A24700  35.073   0.601   8.243
 1598POPC   C3A24701  34.963   0.852   7.918
 1598POPC   C4A24702  35.254   0.990   7.653
 1598POPC   C1B24703  35.136   1.379   8.561
 1598POPC   C2B24704  35.259   1.228   8.140
 1598POPC   C3B24705  35.387   1.464   7.735
 1598POPC   C4B24706  35.100   1.634   7.352
 1599POPC   NC324707  35.225  18.278   9.730
 1599POPC   PO424708  35.861  18.482   9.570
 1599POPC   GL124709  35.494  18.372   9.309
 1599POPC   GL224710  35.524  18.574   9.044
 1599POPC   C1A24711  35.111  18.280   8.998
 1599POPC   D2A24712  35.182  18.115   8.545
 1599POPC   C3A24713  35.219  18.391   8.190
 1599POPC   C4A24714  35.077  18.520   7.786
 1599POPC   C1B24715  35.557  18.087   8.883
 1599POPC   C2B24716  35.677  17.909   8.496
 1599POPC   C3B24717  35.683  18.099   8.081
 1599POPC   C4B24718  35.422  18.108   7.776
 1600POPC   NC324719  26.708  33.881   9.731
 1600POPC   PO424720  26.978  33.274   9.492
 1600POPC   GL124721  26.832  33.488   9.178
 1600POPC   GL224722  26.892  33.818   9.253
 1600POPC   C1A24723  26.681  33.636   8.796
 1600POPC   D2A24724  26.531  33.775   8.397
 1600POPC   C3A24725  26.757  33.724   8.027
 1600POPC   C4A24726  26.661  33.605   7.607
 1600POPC   C1B24727  26.874  34.101   8.882
 1600POPC   C2B24728  26.741  34.271   8.481
 1600POPC   C3B24729  26.914  34.213   8.062
 1600POPC   C4B24730  26.772  34.103   7.651
 1601POPC   NC324731   8.093   3.261   9.757
 1601POPC   PO424732   8.413   3.819   9.510
 1601POPC   GL124733   8.412   3.648   9.128
 1601POPC   GL224734   8.244   3.343   9.234
 1601POPC   C1A24735   8.221   3.622   8.731
 1601POPC   D2A24736   7.925   3.408   8.466
 1601POPC   C3A24737   8.120   3.454   8.084
 1601POPC   C4A24738   8.375   3.682   7.807
 1601POPC   C1B24739   8.465   3.185   8.860
 1601POPC   C2B24740   8.565   3.306   8.409
 1601POPC   C3B24741   8.619   3.212   7.939
 1601POPC   C4B24742   8.549   3.298   7.467
 1602POPC   NC324743  23.614  34.542   9.978
 1602POPC   PO424744  23.321  34.795   9.465
 1602POPC   GL124745  23.496  34.485   9.185
 1602POPC   GL224746  23.694  34.701   9.033
 1602POPC   C1A24747  23.624  34.286   8.761
 1602POPC   D2A24748  23.528  34.145   8.359
 1602POPC   C3A24749  23.533  34.375   7.982
 1602POPC   C4A24750  23.891  34.388   7.717
 1602POPC   C1B24751  23.358  34.712   8.741
 1602POPC   C2B24752  23.575  34.703   8.364
 1602POPC   C3B24753  23.763  34.840   7.965
 1602POPC   C4B24754  23.542  34.736   7.570
 1603POPC   NC324755  24.056  14.276   9.452
 1603POPC   PO424756  24.757  14.395   9.359
 1603POPC   GL124757  24.451  14.280   9.110
 1603POPC   GL224758  24.328  14.594   9.149
 1603POPC   C1A24759  24.298  14.349   8.709
 1603POPC   D2A24760  24.081  14.348   8.345
 1603POPC   C3A24761  24.305  14.265   7.961
 1603POPC   C4A24762  24.738  14.201   7.897
 1603POPC   C1B24763  24.439  14.837   8.825
 1603POPC   C2B24764  24.445  14.752   8.413
 1603POPC   C3B24765  24.243  14.758   8.044
 1603POPC   C4B24766  24.482  14.683   7.665
 1604POPC   NC324767  30.363   4.766   9.499
 1604POPC   PO424768  30.630   5.182   9.969
 1604POPC   GL124769  30.761   5.159   9.485
 1604POPC   GL224770  31.030   5.379   9.348
 1604POPC   C1A24771  30.817   5.044   8.997
 1604POPC   D2A24772  30.915   5.049   8.511
 1604POPC   C3A24773  30.679   5.011   8.095
 1604POPC   C4A24774  30.286   5.035   7.861
 1604POPC   C1B24775  31.010   5.586   8.966
 1604POPC   C2B24776  31.018   5.542   8.550
 1604POPC   C3B24777  31.002   5.431   8.124
 1604POPC   C4B24778  30.685   5.418   7.802
 1605POPC   NC324779  33.119   8.851   9.488
 1605POPC   PO424780  32.654   8.386   9.303
 1605POPC   GL124781  32.870   8.737   9.067
 1605POPC   GL224782  33.206   8.652   9.030
 1605POPC   C1A24783  33.068   9.082   8.794
 1605POPC   D2A24784  33.171   9.302   8.406
 1605POPC   C3A24785  32.962   9.247   8.014
 1605POPC   C4A24786  33.006   9.066   7.600
 1605POPC   C1B24787  32.992   8.644   8.573
 1605POPC   C2B24788  33.163   8.807   8.201
 1605POPC   C3B24789  33.200   8.649   7.779
 1605POPC   C4B24790  32.982   8.430   7.448
 1606POPC   NC324791  19.356  25.943   9.532
 1606POPC   PO424792  18.760  26.222   9.638
 1606POPC   GL124793  18.969  26.256   9.236
 1606POPC   GL224794  19.313  26.355   9.217
 1606POPC   C1A24795  18.985  26.006   8.858
 1606POPC   D2A24796  18.850  26.063   8.439
 1606POPC   C3A24797  19.076  26.238   8.086
 1606POPC   C4A24798  18.864  25.910   7.772
 1606POPC   C1B24799  19.470  26.162   8.857
 1606POPC   C2B24800  19.377  25.850   8.520
 1606POPC   C3B24801  19.271  25.774   8.076
 1606POPC   C4B24802  19.368  26.035   7.717
 1607POPC   NC324803  36.582  26.636   9.555
 1607POPC   PO424804  37.006  27.196   9.500
 1607POPC   GL124805  36.864  26.946   9.153
 1607POPC   GL224806  37.014  26.644   9.141
 1607POPC   C1A24807  36.979  26.849   8.686
 1607POPC   D2A24808  37.009  27.146   8.323
 1607POPC   C3A24809  37.010  26.925   7.912
 1607POPC   C4A24810  36.796  26.660   7.602
 1607POPC   C1B24811  37.345  26.359   8.997
 1607POPC   C2B24812  37.381  26.352   8.558
 1607POPC   C3B24813  37.121  26.477   8.198
 1607POPC   C4B24814  37.232  26.456   7.762
 1608POPC   NC324815  31.807  41.973   9.259
 1608POPC   PO424816  31.567  41.336   9.388
 1608POPC   GL124817  31.564  41.545   8.986
 1608POPC   GL224818  31.343  41.767   9.097
 1608POPC   C1A24819  31.414  41.474   8.541
 1608POPC   D2A24820  31.361  41.123   8.249
 1608POPC   C3A24821  31.587  41.275   7.914
 1608POPC   C4A24822  31.524  41.653   7.733
 1608POPC   C1B24823  31.261  41.942   8.694
 1608POPC   C2B24824  31.399  41.958   8.252
 1608POPC   C3B24825  31.189  42.013   7.860
 1608POPC   C4B24826  31.257  41.945   7.428
 1609POPC   NC324827  16.448  28.008   9.271
 1609POPC   PO424828  16.860  28.529   9.473
 1609POPC   GL124829  16.860  28.273   9.139
 1609POPC   GL224830  16.562  28.456   9.033
 1609POPC   C1A24831  16.824  28.161   8.695
 1609POPC   D2A24832  16.549  28.067   8.382
 1609POPC   C3A24833  16.660  28.252   8.012
 1609POPC   C4A24834  16.417  28.156   7.708
 1609POPC   C1B24835  16.908  28.661   8.807
 1609POPC   C2B24836  16.917  28.862   8.393
 1609POPC   C3B24837  16.830  28.752   8.000
 1609POPC   C4B24838  16.727  28.769   7.560
 1610POPC   NC324839  41.458  32.120   9.556
 1610POPC   PO424840  41.972  32.538   9.483
 1610POPC   GL124841  41.703  32.424   9.110
 1610POPC   GL224842  41.558  32.096   9.074
 1610POPC   C1A24843  41.691  32.276   8.631
 1610POPC   D2A24844  41.464  32.013   8.289
 1610POPC   C3A24845  41.753  32.099   7.924
 1610POPC   C4A24846  41.827  32.543   7.860
 1610POPC   C1B24847  41.258  32.421   8.859
 1610POPC   C2B24848  41.336  32.643   8.444
 1610POPC   C3B24849  41.345  32.470   8.023
 1610POPC   C4B24850  41.271  32.092   7.773
 1611POPC   NC324851  42.800  41.036   9.460
 1611POPC   PO424852  42.271  40.558   9.572
 1611POPC   GL124853  42.410  40.796   9.198
 1611POPC   GL224854  42.190  41.060   9.053
 1611POPC   C1A24855  42.626  40.882   8.824
 1611POPC   D2A24856  42.722  40.747   8.392
 1611POPC   C3A24857  42.402  40.948   8.133
 1611POPC   C4A24858  42.258  40.892   7.717
 1611POPC   C1B24859  42.137  40.871   8.659
 1611POPC   C2B24860  41.889  40.818   8.298
 1611POPC   C3B24861  41.911  40.560   7.938
 1611POPC   C4B24862  41.842  40.679   7.511
 1612POPC   NC324863   8.923  27.952   9.392
 1612POPC   PO424864   9.316  28.512   9.534
 1612POPC   GL124865   9.219  28.559   9.144
 1612POPC   GL224866   8.879  28.470   9.106
 1612POPC   C1A24867   9.197  28.707   8.747
 1612POPC   D2A24868   8.927  28.560   8.419
 1612POPC   C3A24869   9.072  28.562   7.978
 1612POPC   C4A24870   9.038  28.426   7.489
 1612POPC   C1B24871   8.746  28.119   8.786
 1612POPC   C2B24872   8.638  28.145   8.353
 1612POPC   C3B24873   8.854  28.123   7.984
 1612POPC   C4B24874   8.677  28.096   7.589
 1613POPC   NC324875   9.624  40.215   9.374
 1613POPC   PO424876  10.173  40.047   9.023
 1613POPC   GL124877   9.775  39.868   8.963
 1613POPC   GL224878   9.649  40.180   8.874
 1613POPC   C1A24879   9.679  39.826   8.501
 1613POPC   D2A24880   9.869  40.143   8.234
 1613POPC   C3A24881  10.019  39.892   7.912
 1613POPC   C4A24882   9.741  39.545   7.862
 1613POPC   C1B24883   9.328  40.441   8.735
 1613POPC   C2B24884   9.369  40.665   8.330
 1613POPC   C3B24885   9.740  40.595   8.030
 1613POPC   C4B24886   9.784  40.293   7.711
 1614POPC   NC324887   0.123  33.934   9.465
 1614POPC   PO424888   0.535  33.355   9.559
 1614POPC   GL124889   0.423  33.543   9.180
 1614POPC   GL224890   0.090  33.612   9.072
 1614POPC   C1A24891   0.537  33.746   8.780
 1614POPC   D2A24892   0.388  33.817   8.383
 1614POPC   C3A24893   0.605  33.723   8.030
 1614POPC   C4A24894   0.791  33.689   7.625
 1614POPC   C1B24895   0.133  34.045   8.818
 1614POPC   C2B24896   0.191  34.277   8.413
 1614POPC   C3B24897   0.170  34.085   8.005
 1614POPC   C4B24898   0.299  33.903   7.625
 1615POPC   NC324899  34.901  21.695   9.539
 1615POPC   PO424900  34.920  21.057   9.742
 1615POPC   GL124901  34.764  21.287   9.307
 1615POPC   GL224902  34.427  21.307   9.248
 1615POPC   C1A24903  34.780  21.264   8.843
 1615POPC   D2A24904  34.835  21.596   8.516
 1615POPC   C3A24905  34.828  21.424   8.095
 1615POPC   C4A24906  34.877  21.659   7.724
 1615POPC   C1B24907  34.363  21.567   8.874
 1615POPC   C2B24908  34.281  21.617   8.402
 1615POPC   C3B24909  34.374  21.639   7.933
 1615POPC   C4B24910  34.521  21.309   7.621
 1616POPC   NC324911   4.366  14.153   9.666
 1616POPC   PO424912   4.028  13.610   9.584
 1616POPC   GL124913   4.065  13.579   9.142
 1616POPC   GL224914   4.404  13.638   9.143
 1616POPC   C1A24915   3.926  13.570   8.689
 1616POPC   D2A24916   4.014  13.386   8.274
 1616POPC   C3A24917   4.124  13.673   7.957
 1616POPC   C4A24918   4.335  13.759   7.544
 1616POPC   C1B24919   4.410  13.408   8.746
 1616POPC   C2B24920   4.465  13.622   8.351
 1616POPC   C3B24921   4.619  13.535   7.938
 1616POPC   C4B24922   4.648  13.360   7.537
 1617POPC   NC324923  26.394  27.685   9.541
 1617POPC   PO424924  26.903  27.565   9.850
 1617POPC   GL124925  26.847  27.429   9.376
 1617POPC   GL224926  26.505  27.285   9.241
 1617POPC   C1A24927  26.879  27.460   8.883
 1617POPC   D2A24928  26.798  27.360   8.396
 1617POPC   C3A24929  26.855  27.605   7.976
 1617POPC   C4A24930  26.956  27.622   7.513
 1617POPC   C1B24931  26.363  27.382   8.804
 1617POPC   C2B24932  26.261  27.474   8.369
 1617POPC   C3B24933  26.383  27.390   7.949
 1617POPC   C4B24934  26.460  27.678   7.604
 1618POPC   NC324935  17.995  43.331   9.923
 1618POPC   PO424936  18.581  43.078   9.536
 1618POPC   GL124937  18.385  43.039   9.154
 1618POPC   GL224938  18.627  42.746   9.073
 1618POPC   C1A24939  18.202  43.291   8.776
 1618POPC   D2A24940  18.356  43.253   8.353
 1618POPC   C3A24941  18.118  43.359   8.002
 1618POPC   C4A24942  18.327  43.212   7.732
 1618POPC   C1B24943  18.437  42.853   8.684
 1618POPC   C2B24944  18.026  42.890   8.476
 1618POPC   C3B24945  18.097  42.850   8.051
 1618POPC   C4B24946  17.919  42.551   7.843
 1619POPC   NC324947  24.575   9.402   9.497
 1619POPC   PO424948  24.198   9.903   9.678
 1619POPC   GL124949  24.386   9.799   9.219
 1619POPC   GL224950  24.401   9.516   9.022
 1619POPC   C1A24951  24.513   9.992   8.799
 1619POPC   D2A24952  24.375   9.932   8.345
 1619POPC   C3A24953  24.619   9.890   7.933
 1619POPC   C4A24954  24.780   9.961   7.529
 1619POPC   C1B24955  24.607   9.318   8.656
 1619POPC   C2B24956  24.648   9.481   8.233
 1619POPC   C3B24957  24.489   9.304   7.789
 1619POPC   C4B24958  24.441   9.456   7.361
 1620POPC   NC324959  32.397   6.075   9.702
 1620POPC   PO424960  32.458   5.503   9.396
 1620POPC   GL124961  32.242   5.767   9.053
 1620POPC   GL224962  32.150   6.117   9.133
 1620POPC   C1A24963  32.362   5.998   8.644
 1620POPC   D2A24964  32.362   6.121   8.191
 1620POPC   C3A24965  32.403   5.782   7.863
 1620POPC   C4A24966  32.590   5.516   7.516
 1620POPC   C1B24967  31.869   6.132   8.771
 1620POPC   C2B24968  31.858   5.932   8.400
 1620POPC   C3B24969  31.874   5.812   7.996
 1620POPC   C4B24970  32.032   6.122   7.770
 1621POPC   NC324971  14.826   1.197   9.336
 1621POPC   PO424972  14.168   0.992   9.417
 1621POPC   GL124973  14.104   1.137   9.014
 1621POPC   GL224974  14.303   1.429   9.062
 1621POPC   C1A24975  14.418   1.083   8.691
 1621POPC   D2A24976  14.550   1.234   8.310
 1621POPC   C3A24977  14.339   1.110   7.985
 1621POPC   C4A24978  14.526   0.871   7.655
 1621POPC   C1B24979  14.498   1.593   8.673
 1621POPC   C2B24980  14.694   1.721   8.288
 1621POPC   C3B24981  14.782   1.507   7.908
 1621POPC   C4B24982  14.480   1.430   7.621
 1622POPC   NC324983  41.695  11.796   9.482
 1622POPC   PO424984  41.291  12.277   9.734
 1622POPC   GL124985  41.330  12.271   9.266
 1622POPC   GL224986  41.550  12.034   9.075
 1622POPC   C1A24987  41.286  12.357   8.803
 1622POPC   D2A24988  41.456  12.171   8.424
 1622POPC   C3A24989  41.375  12.303   8.014
 1622POPC   C4A24990  41.518  12.141   7.643
 1622POPC   C1B24991  41.838  12.152   8.757
 1622POPC   C2B24992  42.035  12.162   8.382
 1622POPC   C3B24993  41.860  12.044   8.026
 1622POPC   C4B24994  42.021  12.018   7.639
 1623POPC   NC324995  26.780  18.819   9.524
 1623POPC   PO424996  27.166  19.320   9.386
 1623POPC   GL124997  26.841  19.121   9.095
 1623POPC   GL224998  26.639  18.791   9.051
 1623POPC   C1A24999  26.953  18.958   8.690
 1623POPC   D2A25000  27.290  18.839   8.438
 1623POPC   C3A25001  27.126  18.910   8.054
 1623POPC   C4A25002  26.867  19.172   7.838
 1623POPC   C1B25003  26.531  18.470   8.762
 1623POPC   C2B25004  26.440  18.495   8.332
 1623POPC   C3B25005  26.648  18.691   7.936
 1623POPC   C4B25006  26.587  18.515   7.491
 1624POPC   NC325007  11.704   2.799   9.436
 1624POPC   PO425008  11.053   2.500   9.397
 1624POPC   GL125009  11.299   2.744   9.096
 1624POPC   GL225010  11.641   2.592   8.966
 1624POPC   C1A25011  11.170   2.717   8.675
 1624POPC   D2A25012  11.346   2.499   8.348
 1624POPC   C3A25013  11.080   2.606   8.012
 1624POPC   C4A25014  11.020   3.022   7.873
 1624POPC   C1B25015  11.627   2.930   8.633
 1624POPC   C2B25016  11.610   2.886   8.148
 1624POPC   C3B25017  11.556   2.529   7.872
 1624POPC   C4B25018  11.790   2.345   7.500
 1625POPC   NC325019  17.861  22.756   9.579
 1625POPC   PO425020  18.203  23.327   9.593
 1625POPC   GL125021  18.157  23.048   9.272
 1625POPC   GL225022  18.401  22.776   9.245
 1625POPC   C1A25023  18.083  23.094   8.876
 1625POPC   D2A25024  18.173  23.041   8.471
 1625POPC   C3A25025  18.350  22.895   8.140
 1625POPC   C4A25026  18.206  22.958   7.739
 1625POPC   C1B25027  18.651  22.540   8.944
 1625POPC   C2B25028  18.619  22.578   8.485
 1625POPC   C3B25029  18.722  22.543   8.041
 1625POPC   C4B25030  18.557  22.627   7.666
 1626POPC   NC325031   9.304  29.568   9.580
 1626POPC   PO425032   9.786  30.022   9.400
 1626POPC   GL125033   9.688  29.910   9.024
 1626POPC   GL225034   9.618  29.552   9.148
 1626POPC   C1A25035   9.718  29.973   8.553
 1626POPC   D2A25036   9.595  29.792   8.130
 1626POPC   C3A25037   9.700  30.048   7.757
 1626POPC   C4A25038   9.623  30.296   7.375
 1626POPC   C1B25039   9.464  29.558   8.719
 1626POPC   C2B25040   9.498  29.276   8.355
 1626POPC   C3B25041   9.461  29.324   7.954
 1626POPC   C4B25042   9.715  29.534   7.680
 1627POPC   NC325043  15.674  33.451   9.993
 1627POPC   PO425044  15.480  32.903   9.732
 1627POPC   GL125045  15.328  32.959   9.279
 1627POPC   GL225046  15.100  32.706   9.185
 1627POPC   C1A25047  15.221  33.124   8.820
 1627POPC   D2A25048  15.048  33.100   8.356
 1627POPC   C3A25049  15.263  33.126   7.933
 1627POPC   C4A25050  15.345  33.341   7.523
 1627POPC   C1B25051  15.221  32.626   8.721
 1627POPC   C2B25052  15.210  32.622   8.252
 1627POPC   C3B25053  14.936  32.709   7.909
 1627POPC   C4B25054  14.767  32.555   7.510
 1628POPC   NC325055  34.628  25.517   9.524
 1628POPC   PO425056  34.790  24.952   9.776
 1628POPC   GL125057  34.632  24.998   9.371
 1628POPC   GL225058  34.311  24.866   9.271
 1628POPC   C1A25059  34.718  25.091   8.956
 1628POPC   D2A25060  34.651  25.227   8.540
 1628POPC   C3A25061  34.737  25.096   8.123
 1628POPC   C4A25062  34.717  25.275   7.701
 1628POPC   C1B25063  34.223  25.035   8.817
 1628POPC   C2B25064  34.233  24.985   8.343
 1628POPC   C3B25065  34.275  25.094   7.892
 1628POPC   C4B25066  34.312  25.057   7.425
 1629POPC   NC325067  14.486   4.739   9.438
 1629POPC   PO425068  14.122   4.171   9.687
 1629POPC   GL125069  14.192   4.328   9.256
 1629POPC   GL225070  14.472   4.219   9.073
 1629POPC   C1A25071  14.064   4.118   8.833
 1629POPC   D2A25072  13.955   4.238   8.391
 1629POPC   C3A25073  14.325   4.414   8.148
 1629POPC   C4A25074  14.501   4.247   7.750
 1629POPC   C1B25075  14.491   4.427   8.661
 1629POPC   C2B25076  14.806   4.624   8.372
 1629POPC   C3B25077  14.868   4.512   7.952
 1629POPC   C4B25078  14.791   4.572   7.477
 1630POPC   NC325079  25.760  28.012   9.219
 1630POPC   PO425080  25.955  27.433   9.562
 1630POPC   GL125081  25.999  27.493   9.153
 1630POPC   GL225082  25.695  27.330   9.108
 1630POPC   C1A25083  25.898  27.616   8.712
 1630POPC   D2A25084  25.844  27.846   8.310
 1630POPC   C3A25085  26.005  27.735   7.893
 1630POPC   C4A25086  25.873  28.008   7.559
 1630POPC   C1B25087  25.750  27.131   8.709
 1630POPC   C2B25088  25.644  27.356   8.336
 1630POPC   C3B25089  25.563  27.502   7.913
 1630POPC   C4B25090  25.725  27.503   7.472
 1631POPC   NC325091  38.039  37.162   9.607
 1631POPC   PO425092  37.460  36.730   9.730
 1631POPC   GL125093  37.442  36.795   9.256
 1631POPC   GL225094  37.353  37.139   9.201
 1631POPC   C1A25095  37.690  36.805   8.851
 1631POPC   D2A25096  37.901  36.992   8.462
 1631POPC   C3A25097  37.757  36.876   8.019
 1631POPC   C4A25098  37.702  36.692   7.578
 1631POPC   C1B25099  37.269  37.165   8.744
 1631POPC   C2B25100  37.242  37.272   8.278
 1631POPC   C3B25101  37.291  37.167   7.819
 1631POPC   C4B25102  37.312  36.957   7.397
 1632POPC   NC325103  39.086  28.060   9.536
 1632POPC   PO425104  39.324  28.598   9.551
 1632POPC   GL125105  39.099  28.501   9.176
 1632POPC   GL225106  39.328  28.510   8.910
 1632POPC   C1A25107  38.864  28.505   8.782
 1632POPC   D2A25108  39.044  28.533   8.395
 1632POPC   C3A25109  39.027  28.161   8.140
 1632POPC   C4A25110  38.925  28.229   7.751
 1632POPC   C1B25111  39.484  28.797   8.628
 1632POPC   C2B25112  39.448  28.787   8.188
 1632POPC   C3B25113  39.127  28.686   7.903
 1632POPC   C4B25114  39.255  28.547   7.526
 1633POPC   NC325115   2.735  13.350   9.425
 1633POPC   PO425116   2.761  13.987   9.528
 1633POPC   GL125117   2.801  13.778   9.141
 1633POPC   GL225118   3.128  13.603   9.207
 1633POPC   C1A25119   2.663  13.709   8.704
 1633POPC   D2A25120   2.692  13.807   8.267
 1633POPC   C3A25121   2.622  13.688   7.848
 1633POPC   C4A25122   2.681  13.954   7.479
 1633POPC   C1B25123   3.009  13.363   8.855
 1633POPC   C2B25124   3.003  13.336   8.405
 1633POPC   C3B25125   3.101  13.588   8.032
 1633POPC   C4B25126   3.049  13.599   7.583
 1634POPC   NC325127   3.997  19.831   9.516
 1634POPC   PO425128   4.664  19.577   9.614
 1634POPC   GL125129   4.398  19.667   9.240
 1634POPC   GL225130   4.392  20.059   9.193
 1634POPC   C1A25131   4.338  19.723   8.790
 1634POPC   D2A25132   4.609  19.989   8.531
 1634POPC   C3A25133   4.545  19.913   8.100
 1634POPC   C4A25134   4.588  20.190   7.753
 1634POPC   C1B25135   4.203  20.223   8.802
 1634POPC   C2B25136   4.095  20.068   8.404
 1634POPC   C3B25137   4.104  20.186   7.976
 1634POPC   C4B25138   4.188  19.864   7.719
 1635POPC   NC325139   6.254  15.685   9.840
 1635POPC   PO425140   5.798  15.559   9.541
 1635POPC   GL125141   5.716  15.716   9.086
 1635POPC   GL225142   5.734  16.075   9.042
 1635POPC   C1A25143   5.508  15.835   8.649
 1635POPC   D2A25144   5.471  15.696   8.210
 1635POPC   C3A25145   5.749  15.722   7.834
 1635POPC   C4A25146   6.181  15.760   7.589
 1635POPC   C1B25147   6.019  15.898   8.706
 1635POPC   C2B25148   6.010  15.818   8.256
 1635POPC   C3B25149   6.018  16.137   7.907
 1635POPC   C4B25150   6.246  16.298   7.559
 1636POPC   NC325151  22.820  26.022   9.548
 1636POPC   PO425152  23.356  25.664   9.271
 1636POPC   GL125153  22.991  25.928   9.072
 1636POPC   GL225154  22.619  25.868   9.083
 1636POPC   C1A25155  22.757  26.279   8.822
 1636POPC   D2A25156  22.571  26.240   8.397
 1636POPC   C3A25157  22.904  26.279   8.115
 1636POPC   C4A25158  22.966  26.458   7.747
 1636POPC   C1B25159  22.719  25.791   8.652
 1636POPC   C2B25160  22.866  25.785   8.228
 1636POPC   C3B25161  22.926  25.866   7.774
 1636POPC   C4B25162  22.931  25.724   7.283
 1637POPC   NC325163  35.697  41.667   9.430
 1637POPC   PO425164  35.158  41.357   9.639
 1637POPC   GL125165  35.328  41.299   9.225
 1637POPC   GL225166  35.653  41.200   9.218
 1637POPC   C1A25167  35.403  41.498   8.822
 1637POPC   D2A25168  35.191  41.534   8.418
 1637POPC   C3A25169  35.406  41.660   8.019
 1637POPC   C4A25170  35.370  41.474   7.615
 1637POPC   C1B25171  35.830  41.163   8.832
 1637POPC   C2B25172  35.629  41.227   8.439
 1637POPC   C3B25173  35.764  41.310   8.040
 1637POPC   C4B25174  35.783  41.172   7.626
 1638POPC   NC325175  12.101  28.708   9.329
 1638POPC   PO425176  12.197  29.374   9.263
 1638POPC   GL125177  12.084  29.039   8.933
 1638POPC   GL225178  11.774  28.816   8.955
 1638POPC   C1A25179  12.185  28.939   8.495
 1638POPC   D2A25180  12.396  29.159   8.159
 1638POPC   C3A25181  12.098  29.342   7.867
 1638POPC   C4A25182  11.668  29.208   7.756
 1638POPC   C1B25183  11.913  28.518   8.649
 1638POPC   C2B25184  11.966  28.439   8.228
 1638POPC   C3B25185  11.985  28.822   7.992
 1638POPC   C4B25186  12.307  28.910   7.721
 1639POPC   NC325187  21.823  31.310   9.453
 1639POPC   PO425188  21.369  31.650   9.532
 1639POPC   GL125189  21.661  31.697   9.175
 1639POPC   GL225190  21.404  31.528   9.028
 1639POPC   C1A25191  21.654  31.875   8.775
 1639POPC   D2A25192  21.505  31.557   8.501
 1639POPC   C3A25193  21.477  31.664   8.123
 1639POPC   C4A25194  21.596  31.649   7.690
 1639POPC   C1B25195  21.084  31.702   8.764
 1639POPC   C2B25196  21.011  31.403   8.433
 1639POPC   C3B25197  20.941  31.262   8.056
 1639POPC   C4B25198  21.105  31.576   7.808
 1640POPC   NC325199  22.529  22.888   9.418
 1640POPC   PO425200  21.976  22.661   9.749
 1640POPC   GL125201  22.054  22.803   9.268
 1640POPC   GL225202  22.014  23.112   9.156
 1640POPC   C1A25203  22.121  22.702   8.830
 1640POPC   D2A25204  21.928  22.765   8.426
 1640POPC   C3A25205  22.100  22.652   8.047
 1640POPC   C4A25206  22.154  22.803   7.637
 1640POPC   C1B25207  21.891  23.259   8.780
 1640POPC   C2B25208  22.071  23.255   8.369
 1640POPC   C3B25209  21.915  23.132   7.972
 1640POPC   C4B25210  21.933  23.256   7.535
 1641POPC   NC325211   6.500  21.173   9.518
 1641POPC   PO425212   6.988  21.681   9.412
 1641POPC   GL125213   6.818  21.342   9.139
 1641POPC   GL225214   6.473  21.402   9.082
 1641POPC   C1A25215   6.719  21.198   8.682
 1641POPC   D2A25216   7.001  21.035   8.332
 1641POPC   C3A25217   6.957  21.285   7.963
 1641POPC   C4A25218   6.814  21.352   7.566
 1641POPC   C1B25219   6.216  21.348   8.755
 1641POPC   C2B25220   6.317  21.484   8.366
 1641POPC   C3B25221   6.420  21.279   8.000
 1641POPC   C4B25222   6.341  21.493   7.649
 1642POPC   NC325223  10.025  44.439   9.278
 1642POPC   PO425224   9.856  44.981   9.688
 1642POPC   GL125225   9.768  44.903   9.206
 1642POPC   GL225226   9.473  44.968   9.046
 1642POPC   C1A25227   9.823  44.782   8.739
 1642POPC   D2A25228   9.956  44.572   8.368
 1642POPC   C3A25229   9.844  44.713   7.960
 1642POPC   C4A25230  10.038  44.635   7.586
 1642POPC   C1B25231   9.340  44.583   8.817
 1642POPC   C2B25232   9.470  44.399   8.407
 1642POPC   C3B25233   9.340  44.595   8.006
 1642POPC   C4B25234   9.410   0.043   7.782
 1643POPC   NC325235  18.599  38.495   9.609
 1643POPC   PO425236  19.215  38.212   9.547
 1643POPC   GL125237  18.920  38.379   9.202
 1643POPC   GL225238  18.577  38.170   9.212
 1643POPC   C1A25239  18.984  38.680   8.798
 1643POPC   D2A25240  19.069  38.839   8.366
 1643POPC   C3A25241  19.140  38.487   8.061
 1643POPC   C4A25242  19.023  38.273   7.645
 1643POPC   C1B25243  18.623  38.287   8.803
 1643POPC   C2B25244  18.746  38.424   8.412
 1643POPC   C3B25245  18.699  38.204   8.038
 1643POPC   C4B25246  18.543  38.042   7.658
 1644POPC   NC325247  25.813  37.903   9.393
 1644POPC   PO425248  26.309  37.370   9.405
 1644POPC   GL125249  26.099  37.560   9.102
 1644POPC   GL225250  25.866  37.335   8.968
 1644POPC   C1A25251  26.199  37.567   8.674
 1644POPC   D2A25252  26.051  37.747   8.350
 1644POPC   C3A25253  26.220  37.616   8.019
 1644POPC   C4A25254  26.107  37.693   7.610
 1644POPC   C1B25255  25.686  37.684   8.730
 1644POPC   C2B25256  25.536  37.827   8.334
 1644POPC   C3B25257  25.709  37.771   7.925
 1644POPC   C4B25258  25.627  37.819   7.469
 1645POPC   NC325259  33.507   9.693   9.382
 1645POPC   PO425260  32.941   9.968   9.603
 1645POPC   GL125261  33.008   9.696   9.212
 1645POPC   GL225262  32.896   9.323   9.209
 1645POPC   C1A25263  33.234   9.609   8.811
 1645POPC   D2A25264  33.052   9.803   8.462
 1645POPC   C3A25265  33.208   9.707   8.081
 1645POPC   C4A25266  33.178   9.936   7.704
 1645POPC   C1B25267  32.754   9.462   8.784
 1645POPC   C2B25268  32.659   9.503   8.372
 1645POPC   C3B25269  32.727   9.733   7.978
 1645POPC   C4B25270  32.877   9.549   7.607
 1646POPC   NC325271  17.360  37.480   9.829
 1646POPC   PO425272  17.556  37.936   9.429
 1646POPC   GL125273  17.550  37.674   9.095
 1646POPC   GL225274  17.216  37.555   9.082
 1646POPC   C1A25275  17.686  37.692   8.689
 1646POPC   D2A25276  17.908  37.802   8.342
 1646POPC   C3A25277  17.760  37.573   8.000
 1646POPC   C4A25278  17.609  37.723   7.614
 1646POPC   C1B25279  17.208  37.928   8.781
 1646POPC   C2B25280  17.362  38.022   8.363
 1646POPC   C3B25281  17.261  37.806   7.977
 1646POPC   C4B25282  17.297  37.382   7.798
 1647POPC   NC325283   7.046   9.911   9.430
 1647POPC   PO425284   6.665   9.373   9.484
 1647POPC   GL125285   6.834   9.537   9.135
 1647POPC   GL225286   7.171   9.456   9.191
 1647POPC   C1A25287   6.684   9.792   8.793
 1647POPC   D2A25288   6.457   9.652   8.443
 1647POPC   C3A25289   6.390   9.863   8.066
 1647POPC   C4A25290   6.428   9.741   7.646
 1647POPC   C1B25291   7.185   9.655   8.771
 1647POPC   C2B25292   6.995   9.672   8.381
 1647POPC   C3B25293   6.939   9.758   7.981
 1647POPC   C4B25294   6.908   9.589   7.605
 1648POPC   NC325295  10.942  42.040   9.438
 1648POPC   PO425296  10.244  42.372   9.441
 1648POPC   GL125297  10.314  42.183   9.044
 1648POPC   GL225298  10.648  42.244   9.081
 1648POPC   C1A25299  10.448  42.184   8.615
 1648POPC   D2A25300  10.649  42.182   8.261
 1648POPC   C3A25301  10.399  42.070   7.916
 1648POPC   C4A25302  10.354  42.435   7.666
 1648POPC   C1B25303  10.656  42.616   8.830
 1648POPC   C2B25304  10.914  42.725   8.486
 1648POPC   C3B25305  10.786  42.639   8.062
 1648POPC   C4B25306  10.843  42.323   7.783
 1649POPC   NC325307  34.696   2.277   9.508
 1649POPC   PO425308  34.546   1.615   9.457
 1649POPC   GL125309  34.453   1.962   9.160
 1649POPC   GL225310  34.733   2.174   9.026
 1649POPC   C1A25311  34.335   1.963   8.730
 1649POPC   D2A25312  34.210   1.744   8.365
 1649POPC   C3A25313  34.262   1.905   7.957
 1649POPC   C4A25314  34.419   2.173   7.650
 1649POPC   C1B25315  34.853   1.826   8.788
 1649POPC   C2B25316  34.760   1.899   8.351
 1649POPC   C3B25317  34.848   2.139   7.967
 1649POPC   C4B25318  34.893   2.207   7.505
 1650POPC   NC325319  39.703  27.381   9.288
 1650POPC   PO425320  40.191  27.614   9.663
 1650POPC   GL125321  40.180  27.420   9.177
 1650POPC   GL225322  39.952  27.673   8.968
 1650POPC   C1A25323  40.132  27.267   8.742
 1650POPC   D2A25324  40.330  27.474   8.412
 1650POPC   C3A25325  40.219  27.432   7.993
 1650POPC   C4A25326  40.314  27.743   7.696
 1650POPC   C1B25327  39.857  27.707   8.550
 1650POPC   C2B25328  39.873  27.959   8.168
 1650POPC   C3B25329  39.815  27.830   7.770
 1650POPC   C4B25330  39.896  27.436   7.574
 1651POPC   NC325331   0.621  41.186   9.285
 1651POPC   PO425332   0.753  40.597   9.482
 1651POPC   GL125333   0.551  40.699   9.083
 1651POPC   GL225334   0.203  40.800   9.075
 1651POPC   C1A25335   0.440  40.579   8.663
 1651POPC   D2A25336   0.308  40.441   8.285
 1651POPC   C3A25337   0.394  40.751   8.015
 1651POPC   C4A25338   0.552  41.068   7.767
 1651POPC   C1B25339   0.273  41.065   8.720
 1651POPC   C2B25340   0.239  41.127   8.301
 1651POPC   C3B25341   0.047  41.151   7.879
 1651POPC   C4B25342   0.173  40.996   7.454
 1652POPC   NC325343  23.596  29.578   9.518
 1652POPC   PO425344  23.426  30.194   9.405
 1652POPC   GL125345  23.587  30.220   9.012
 1652POPC   GL225346  23.844  29.946   9.036
 1652POPC   C1A25347  23.574  30.070   8.597
 1652POPC   D2A25348  23.398  29.664   8.493
 1652POPC   C3A25349  23.329  29.714   8.077
 1652POPC   C4A25350  23.587  30.008   7.817
 1652POPC   C1B25351  24.067  30.190   8.736
 1652POPC   C2B25352  24.054  30.390   8.356
 1652POPC   C3B25353  24.146  30.218   7.957
 1652POPC   C4B25354  24.100  29.849   7.744
 1653POPC   NC325355  20.673  32.594   9.570
 1653POPC   PO425356  20.456  31.920   9.492
 1653POPC   GL125357  20.506  32.218   9.200
 1653POPC   GL225358  20.853  32.248   9.241
 1653POPC   C1A25359  20.290  32.311   8.810
 1653POPC   D2A25360  20.051  32.156   8.480
 1653POPC   C3A25361  20.167  32.377   8.126
 1653POPC   C4A25362  20.444  32.290   7.795
 1653POPC   C1B25363  20.802  32.151   8.801
 1653POPC   C2B25364  20.625  32.273   8.409
 1653POPC   C3B25365  20.859  32.441   8.088
 1653POPC   C4B25366  20.938  32.375   7.670
 1654POPC   NC325367  22.651   6.823   9.549
 1654POPC   PO425368  23.283   6.571   9.401
 1654POPC   GL125369  22.993   6.689   9.136
 1654POPC   GL225370  22.794   6.412   9.257
 1654POPC   C1A25371  23.089   6.683   8.686
 1654POPC   D2A25372  23.111   6.589   8.233
 1654POPC   C3A25373  22.898   6.835   7.913
 1654POPC   C4A25374  22.948   6.634   7.481
 1654POPC   C1B25375  22.663   6.391   8.825
 1654POPC   C2B25376  22.772   6.243   8.431
 1654POPC   C3B25377  22.684   6.384   7.996
 1654POPC   C4B25378  22.546   6.314   7.579
 1655POPC   NC325379  12.526  25.269   9.718
 1655POPC   PO425380  13.181  25.424   9.526
 1655POPC   GL125381  12.971  25.265   9.194
 1655POPC   GL225382  12.616  25.308   9.127
 1655POPC   C1A25383  12.970  25.288   8.777
 1655POPC   D2A25384  12.826  25.187   8.384
 1655POPC   C3A25385  12.758  25.477   8.069
 1655POPC   C4A25386  12.984  25.468   7.719
 1655POPC   C1B25387  12.492  25.044   8.741
 1655POPC   C2B25388  12.437  24.882   8.275
 1655POPC   C3B25389  12.595  25.054   7.819
 1655POPC   C4B25390  12.399  24.966   7.364
 1656POPC   NC325391  25.388  25.443   9.701
 1656POPC   PO425392  25.534  24.880   9.319
 1656POPC   GL125393  25.389  24.959   8.949
 1656POPC   GL225394  25.136  25.085   9.068
 1656POPC   C1A25395  25.409  25.256   8.585
 1656POPC   D2A25396  25.368  25.465   8.168
 1656POPC   C3A25397  25.290  25.185   7.797
 1656POPC   C4A25398  25.453  25.031   7.378
 1656POPC   C1B25399  24.924  25.197   8.739
 1656POPC   C2B25400  24.971  25.159   8.324
 1656POPC   C3B25401  24.806  25.296   7.942
 1656POPC   C4B25402  24.739  25.172   7.559
 1657POPC   NC325403  25.892  24.614   9.457
 1657POPC   PO425404  26.216  24.050   9.346
 1657POPC   GL125405  26.086  24.384   9.019
 1657POPC   GL225406  25.759  24.573   8.979
 1657POPC   C1A25407  26.012  24.508   8.570
 1657POPC   D2A25408  25.830  24.539   8.176
 1657POPC   C3A25409  26.167  24.646   7.920
 1657POPC   C4A25410  26.362  24.275   7.892
 1657POPC   C1B25411  25.510  24.650   8.587
 1657POPC   C2B25412  25.465  24.911   8.203
 1657POPC   C3B25413  25.693  24.869   7.808
 1657POPC   C4B25414  25.924  24.782   7.453
 1658POPC   NC325415   5.643  21.688   9.481
 1658POPC   PO425416   6.277  21.577   9.531
 1658POPC   GL125417   5.966  21.378   9.217
 1658POPC   GL225418   5.843  21.060   9.367
 1658POPC   C1A25419   5.721  21.465   8.785
 1658POPC   D2A25420   5.618  21.482   8.314
 1658POPC   C3A25421   5.943  21.571   8.014
 1658POPC   C4A25422   5.873  21.696   7.593
 1658POPC   C1B25423   5.850  20.974   8.929
 1658POPC   C2B25424   5.805  21.032   8.514
 1658POPC   C3B25425   5.864  21.023   8.085
 1658POPC   C4B25426   5.997  21.140   7.699
 1659POPC   NC325427   4.905  32.782   9.698
 1659POPC   PO425428   5.226  33.295   9.472
 1659POPC   GL125429   5.090  32.967   9.230
 1659POPC   GL225430   4.716  32.855   9.234
 1659POPC   C1A25431   5.290  32.951   8.820
 1659POPC   D2A25432   5.112  32.890   8.418
 1659POPC   C3A25433   5.278  33.116   8.050
 1659POPC   C4A25434   5.427  32.908   7.700
 1659POPC   C1B25435   4.795  33.068   8.827
 1659POPC   C2B25436   4.676  33.214   8.412
 1659POPC   C3B25437   4.759  32.998   8.023
 1659POPC   C4B25438   4.959  33.007   7.626
 1660POPC   NC325439  33.413  44.496   9.583
 1660POPC   PO425440  33.927  44.849   9.375
 1660POPC   GL125441  33.850  44.643   9.027
 1660POPC   GL225442  33.584  44.422   9.102
 1660POPC   C1A25443  33.825  44.871   8.678
 1660POPC   D2A25444  34.004  44.901   8.319
 1660POPC   C3A25445  33.785  44.778   7.963
 1660POPC   C4A25446  33.891  44.381   7.779
 1660POPC   C1B25447  33.449  44.520   8.720
 1660POPC   C2B25448  33.703  44.470   8.389
 1660POPC   C3B25449  33.480  44.318   8.078
 1660POPC   C4B25450  33.364  44.555   7.769
 1661POPC   NC325451  26.647  13.427   9.521
 1661POPC   PO425452  27.188  13.906   9.631
 1661POPC   GL125453  27.027  13.739   9.219
 1661POPC   GL225454  26.942  13.414   9.123
 1661POPC   C1A25455  26.952  13.784   8.740
 1661POPC   D2A25456  27.028  13.674   8.273
 1661POPC   C3A25457  26.816  13.724   7.870
 1661POPC   C4A25458  26.812  13.966   7.469
 1661POPC   C1B25459  26.703  13.328   8.714
 1661POPC   C2B25460  26.607  13.405   8.249
 1661POPC   C3B25461  26.730  13.205   7.841
 1661POPC   C4B25462  26.501  13.243   7.432
 1662POPC   NC325463  40.365  17.050   9.505
 1662POPC   PO425464  39.671  17.027   9.419
 1662POPC   GL125465  39.825  16.751   9.100
 1662POPC   GL225466  40.166  16.837   9.073
 1662POPC   C1A25467  39.848  16.656   8.652
 1662POPC   D2A25468  39.910  16.946   8.276
 1662POPC   C3A25469  39.736  16.773   7.881
 1662POPC   C4A25470  39.842  16.423   7.605
 1662POPC   C1B25471  40.274  16.944   8.660
 1662POPC   C2B25472  40.386  16.715   8.286
 1662POPC   C3B25473  40.236  16.667   7.865
 1662POPC   C4B25474  40.245  16.710   7.411
 1663POPC   NC325475  44.095  37.885   9.528
 1663POPC   PO425476  43.618  37.355   9.493
 1663POPC   GL125477  43.837  37.600   9.202
 1663POPC   GL225478  44.181  37.519   9.188
 1663POPC   C1A25479  43.948  37.807   8.814
 1663POPC   D2A25480  43.835  37.657   8.408
 1663POPC   C3A25481  44.051  37.825   8.078
 1663POPC   C4A25482  44.016  38.057   7.695
 1663POPC   C1B25483  43.995  37.304   8.814
 1663POPC   C2B25484  44.047  37.162   8.399
 1663POPC   C3B25485  43.844  37.287   8.038
 1663POPC   C4B25486  43.977  37.492   7.694
 1664POPC   NC325487   3.414   7.570   9.408
 1664POPC   PO425488   4.082   7.370   9.466
 1664POPC   GL125489   3.849   7.520   9.101
 1664POPC   GL225490   3.549   7.758   8.954
 1664POPC   C1A25491   3.915   7.541   8.688
 1664POPC   D2A25492   3.753   7.384   8.354
 1664POPC   C3A25493   3.706   7.508   7.952
 1664POPC   C4A25494   3.854   7.755   7.614
 1664POPC   C1B25495   3.211   7.733   8.619
 1664POPC   C2B25496   3.259   7.501   8.282
 1664POPC   C3B25497   3.184   7.447   7.896
 1664POPC   C4B25498   3.334   7.658   7.584
 1665POPC   NC325499  41.969  31.355   9.608
 1665POPC   PO425500  41.292  31.680   9.584
 1665POPC   GL125501  41.373  31.566   9.201
 1665POPC   GL225502  41.721  31.627   9.245
 1665POPC   C1A25503  41.510  31.316   8.868
 1665POPC   D2A25504  41.454  31.537   8.521
 1665POPC   C3A25505  41.502  31.377   8.165
 1665POPC   C4A25506  41.502  31.644   7.861
 1665POPC   C1B25507  41.814  31.731   8.828
 1665POPC   C2B25508  41.969  31.479   8.471
 1665POPC   C3B25509  41.973  31.434   8.015
 1665POPC   C4B25510  41.971  31.676   7.658
 1666POPC   NC325511  40.479  20.832   9.468
 1666POPC   PO425512  40.966  20.423   9.768
 1666POPC   GL125513  40.977  20.499   9.307
 1666POPC   GL225514  40.675  20.425   9.192
 1666POPC   C1A25515  40.990  20.442   8.800
 1666POPC   D2A25516  40.893  20.250   8.393
 1666POPC   C3A25517  40.846  20.512   8.029
 1666POPC   C4A25518  41.095  20.709   7.678
 1666POPC   C1B25519  40.555  20.670   8.793
 1666POPC   C2B25520  40.415  20.523   8.394
 1666POPC   C3B25521  40.377  20.765   8.028
 1666POPC   C4B25522  40.606  20.807   7.642
 1667POPC   NC325523  13.014  40.233   9.496
 1667POPC   PO425524  12.949  39.599   9.517
 1667POPC   GL125525  12.718  39.737   9.163
 1667POPC   GL225526  13.011  39.903   9.097
 1667POPC   C1A25527  12.716  39.795   8.710
 1667POPC   D2A25528  13.040  39.972   8.444
 1667POPC   C3A25529  12.940  39.956   8.060
 1667POPC   C4A25530  13.093  40.024   7.702
 1667POPC   C1B25531  12.971  40.259   8.849
 1667POPC   C2B25532  12.719  40.410   8.560
 1667POPC   C3B25533  12.761  40.467   8.124
 1667POPC   C4B25534  12.848  40.452   7.699
 1668POPC   NC325535  25.650  13.485   9.480
 1668POPC   PO425536  24.912  13.490   9.407
 1668POPC   GL125537  25.281  13.649   9.139
 1668POPC   GL225538  25.540  13.484   8.969
 1668POPC   C1A25539  25.213  13.861   8.749
 1668POPC   D2A25540  24.939  13.732   8.414
 1668POPC   C3A25541  25.077  13.758   8.004
 1668POPC   C4A25542  25.107  13.395   7.721
 1668POPC   C1B25543  25.229  13.372   8.653
 1668POPC   C2B25544  25.247  13.326   8.226
 1668POPC   C3B25545  25.550  13.457   7.943
 1668POPC   C4B25546  25.442  13.770   7.651
 1669POPC   NC325547  36.662  29.929   9.465
 1669POPC   PO425548  36.002  30.167   9.443
 1669POPC   GL125549  36.229  29.911   9.161
 1669POPC   GL225550  36.006  29.677   9.001
 1669POPC   C1A25551  36.481  29.773   8.814
 1669POPC   D2A25552  36.570  29.901   8.386
 1669POPC   C3A25553  36.289  29.750   8.053
 1669POPC   C4A25554  36.193  30.001   7.693
 1669POPC   C1B25555  35.901  30.031   8.771
 1669POPC   C2B25556  36.010  30.065   8.352
 1669POPC   C3B25557  35.777  30.080   7.988
 1669POPC   C4B25558  35.797  30.336   7.651
 1670POPC   NC325559  11.381  27.734   9.491
 1670POPC   PO425560  11.122  27.110   9.561
 1670POPC   GL125561  11.028  27.467   9.205
 1670POPC   GL225562  11.326  27.577   9.021
 1670POPC   C1A25563  10.890  27.627   8.746
 1670POPC   D2A25564  10.983  27.404   8.309
 1670POPC   C3A25565  11.087  27.606   7.896
 1670POPC   C4A25566  11.057  27.497   7.438
 1670POPC   C1B25567  11.575  27.573   8.667
 1670POPC   C2B25568  11.555  27.417   8.289
 1670POPC   C3B25569  11.613  27.605   7.896
 1670POPC   C4B25570  11.443  27.823   7.544
 1671POPC   NC325571  36.722  29.204   9.465
 1671POPC   PO425572  37.320  28.956   9.512
 1671POPC   GL125573  37.157  29.213   9.215
 1671POPC   GL225574  37.001  28.948   9.058
 1671POPC   C1A25575  37.210  29.378   8.802
 1671POPC   D2A25576  36.958  29.400   8.404
 1671POPC   C3A25577  37.066  29.060   8.106
 1671POPC   C4A25578  37.323  29.079   7.754
 1671POPC   C1B25579  36.720  29.115   8.767
 1671POPC   C2B25580  36.592  29.035   8.324
 1671POPC   C3B25581  36.606  29.187   7.906
 1671POPC   C4B25582  36.854  28.936   7.612
 1672POPC   NC325583  40.510  10.507   9.838
 1672POPC   PO425584  41.128  10.703   9.527
 1672POPC   GL125585  41.040  10.747   9.108
 1672POPC   GL225586  41.241  10.444   9.061
 1672POPC   C1A25587  40.726  10.679   8.792
 1672POPC   D2A25588  40.739  10.694   8.354
 1672POPC   C3A25589  40.713  10.483   7.952
 1672POPC   C4A25590  40.893  10.599   7.567
 1672POPC   C1B25591  41.171  10.505   8.643
 1672POPC   C2B25592  41.196  10.484   8.238
 1672POPC   C3B25593  41.200  10.287   7.873
 1672POPC   C4B25594  40.926  10.082   7.633
 1673POPC   NC325595   5.358  18.417   9.766
 1673POPC   PO425596   4.886  17.996   9.675
 1673POPC   GL125597   4.887  18.229   9.212
 1673POPC   GL225598   4.866  18.623   9.179
 1673POPC   C1A25599   4.975  18.337   8.767
 1673POPC   D2A25600   5.095  18.387   8.355
 1673POPC   C3A25601   4.844  18.211   8.024
 1673POPC   C4A25602   4.945  18.393   7.654
 1673POPC   C1B25603   5.286  18.722   8.902
 1673POPC   C2B25604   5.407  18.804   8.431
 1673POPC   C3B25605   5.248  18.730   7.995
 1673POPC   C4B25606   5.392  18.637   7.547
 1674POPC   NC325607  25.839  10.106   9.499
 1674POPC   PO425608  26.215  10.656   9.582
 1674POPC   GL125609  26.297  10.603   9.156
 1674POPC   GL225610  26.182  10.927   9.108
 1674POPC   C1A25611  26.187  10.216   8.882
 1674POPC   D2A25612  26.399  10.007   8.524
 1674POPC   C3A25613  26.311  10.220   8.133
 1674POPC   C4A25614  26.146  10.214   7.729
 1674POPC   C1B25615  25.958  10.681   8.781
 1674POPC   C2B25616  25.948  10.514   8.372
 1674POPC   C3B25617  25.983  10.698   7.969
 1674POPC   C4B25618  26.255  11.059   7.933
 1675POPC   NC325619  13.857  12.741   9.736
 1675POPC   PO425620  14.418  12.589   9.426
 1675POPC   GL125621  14.395  12.829   9.091
 1675POPC   GL225622  14.673  12.745   8.945
 1675POPC   C1A25623  14.315  12.946   8.667
 1675POPC   D2A25624  14.678  13.028   8.416
 1675POPC   C3A25625  14.559  13.135   8.018
 1675POPC   C4A25626  14.160  13.089   7.789
 1675POPC   C1B25627  14.243  12.457   8.801
 1675POPC   C2B25628  14.083  12.586   8.414
 1675POPC   C3B25629  14.293  12.697   8.073
 1675POPC   C4B25630  14.142  12.439   7.743
 1676POPC   NC325631  17.218  28.834   9.473
 1676POPC   PO425632  17.776  29.192   9.551
 1676POPC   GL125633  17.720  29.096   9.129
 1676POPC   GL225634  17.405  29.229   9.115
 1676POPC   C1A25635  17.718  29.299   8.707
 1676POPC   D2A25636  17.810  29.482   8.305
 1676POPC   C3A25637  17.588  29.310   7.979
 1676POPC   C4A25638  17.763  28.934   7.837
 1676POPC   C1B25639  17.358  28.923   8.805
 1676POPC   C2B25640  17.387  29.068   8.403
 1676POPC   C3B25641  17.333  28.853   8.084
 1676POPC   C4B25642  17.222  28.804   7.689
 1677POPC   NC325643   2.843  17.773   9.768
 1677POPC   PO425644   2.713  17.172   9.697
 1677POPC   GL125645   2.956  17.450   9.359
 1677POPC   GL225646   2.880  17.237   9.082
 1677POPC   C1A25647   2.968  17.721   8.953
 1677POPC   D2A25648   2.893  17.772   8.474
 1677POPC   C3A25649   2.808  17.494   8.076
 1677POPC   C4A25650   2.979  17.582   7.645
 1677POPC   C1B25651   2.685  17.242   8.670
 1677POPC   C2B25652   2.466  17.047   8.332
 1677POPC   C3B25653   2.465  17.135   7.928
 1677POPC   C4B25654   2.731  17.129   7.638
 1678POPC   NC325655  30.592  33.122   9.556
 1678POPC   PO425656  30.835  32.502   9.495
 1678POPC   GL125657  30.801  32.831   9.198
 1678POPC   GL225658  30.434  32.868   9.158
 1678POPC   C1A25659  30.772  33.131   8.828
 1678POPC   D2A25660  31.005  33.254   8.454
 1678POPC   C3A25661  30.776  33.243   8.049
 1678POPC   C4A25662  30.859  32.980   7.709
 1678POPC   C1B25663  30.354  32.872   8.746
 1678POPC   C2B25664  30.416  33.084   8.371
 1678POPC   C3B25665  30.272  33.100   7.940
 1678POPC   C4B25666  30.376  32.855   7.572
 1679POPC   NC325667  29.517  32.832   9.467
 1679POPC   PO425668  30.136  33.122   9.502
 1679POPC   GL125669  29.982  33.096   9.061
 1679POPC   GL225670  29.899  32.801   9.126
 1679POPC   C1A25671  29.884  33.075   8.600
 1679POPC   D2A25672  29.663  32.929   8.239
 1679POPC   C3A25673  29.617  33.285   7.995
 1679POPC   C4A25674  29.841  33.474   7.695
 1679POPC   C1B25675  29.935  32.607   8.752
 1679POPC   C2B25676  30.148  32.637   8.338
 1679POPC   C3B25677  29.982  32.674   7.918
 1679POPC   C4B25678  29.953  32.611   7.486
 1680POPC   NC325679   3.223  19.642   9.605
 1680POPC   PO425680   3.289  20.312   9.802
 1680POPC   GL125681   3.515  20.111   9.333
 1680POPC   GL225682   3.493  19.793   9.204
 1680POPC   C1A25683   3.776  19.969   8.864
 1680POPC   D2A25684   3.606  19.909   8.434
 1680POPC   C3A25685   3.781  19.774   8.031
 1680POPC   C4A25686   3.551  19.869   7.644
 1680POPC   C1B25687   3.393  19.605   8.802
 1680POPC   C2B25688   3.203  19.597   8.391
 1680POPC   C3B25689   3.326  19.528   7.975
 1680POPC   C4B25690   3.385  19.387   7.570
 1681POPC   NC325691   9.223  39.428   9.446
 1681POPC   PO425692   9.503  38.821   9.422
 1681POPC   GL125693   9.154  39.056   9.088
 1681POPC   GL225694   9.038  39.450   8.989
 1681POPC   C1A25695   8.771  39.091   8.788
 1681POPC   D2A25696   8.594  39.146   8.368
 1681POPC   C3A25697   8.821  39.404   8.010
 1681POPC   C4A25698   8.988  39.202   7.596
 1681POPC   C1B25699   8.955  39.526   8.544
 1681POPC   C2B25700   9.251  39.596   8.203
 1681POPC   C3B25701   9.236  39.638   7.720
 1681POPC   C4B25702   9.245  39.639   7.237
 1682POPC   NC325703  40.893  12.031   9.673
 1682POPC   PO425704  40.898  12.590   9.317
 1682POPC   GL125705  40.833  12.140   9.167
 1682POPC   GL225706  41.074  11.837   9.216
 1682POPC   C1A25707  40.803  12.146   8.738
 1682POPC   D2A25708  40.960  12.092   8.327
 1682POPC   C3A25709  40.677  12.014   8.019
 1682POPC   C4A25710  40.385  12.315   7.919
 1682POPC   C1B25711  41.205  11.827   8.760
 1682POPC   C2B25712  41.162  11.635   8.324
 1682POPC   C3B25713  41.186  11.805   7.883
 1682POPC   C4B25714  41.229  11.679   7.421
 1683POPC   NC325715  42.008  36.983   9.547
 1683POPC   PO425716  41.451  36.672   9.415
 1683POPC   GL125717  41.282  36.755   9.044
 1683POPC   GL225718  41.334  37.092   8.996
 1683POPC   C1A25719  41.359  36.668   8.666
 1683POPC   D2A25720  41.497  36.967   8.424
 1683POPC   C3A25721  41.398  36.990   8.022
 1683POPC   C4A25722  41.232  37.105   7.657
 1683POPC   C1B25723  41.777  36.915   8.882
 1683POPC   C2B25724  42.002  36.928   8.477
 1683POPC   C3B25725  41.934  36.900   8.025
 1683POPC   C4B25726  41.715  36.954   7.616
 1684POPC   NC325727  44.757  36.781   9.679
 1684POPC   PO425728  44.374  37.259   9.579
 1684POPC   GL125729  44.566  36.988   9.222
 1684POPC   GL225730  44.942  36.986   9.249
 1684POPC   C1A25731  44.752  36.699   8.856
 1684POPC   D2A25732  44.915  36.612   8.419
 1684POPC   C3A25733  44.652  36.527   8.049
 1684POPC   C4A25734  44.626  36.740   7.668
 1684POPC   C1B25735  44.969  37.169   8.833
 1684POPC   C2B25736   0.129  37.071   8.428
 1684POPC   C3B25737  44.922  37.028   8.030
 1684POPC   C4B25738  44.804  37.250   7.639
 1685POPC   NC325739  21.003  26.158   9.641
 1685POPC   PO425740  20.544  25.688   9.544
 1685POPC   GL125741  20.651  26.087   9.244
 1685POPC   GL225742  20.306  26.279   9.182
 1685POPC   C1A25743  20.862  26.178   8.812
 1685POPC   D2A25744  20.998  26.102   8.351
 1685POPC   C3A25745  20.751  26.174   7.949
 1685POPC   C4A25746  20.852  26.071   7.487
 1685POPC   C1B25747  20.362  26.014   8.832
 1685POPC   C2B25748  20.509  25.968   8.437
 1685POPC   C3B25749  20.293  25.925   8.075
 1685POPC   C4B25750  20.423  25.871   7.676
 1686POPC   NC325751   0.766  32.030   9.658
 1686POPC   PO425752   1.171  32.549   9.492
 1686POPC   GL125753   1.162  32.356   9.116
 1686POPC   GL225754   0.816  32.233   9.110
 1686POPC   C1A25755   1.398  32.392   8.696
 1686POPC   D2A25756   1.631  32.624   8.357
 1686POPC   C3A25757   1.551  32.518   7.936
 1686POPC   C4A25758   1.466  32.177   7.664
 1686POPC   C1B25759   0.903  32.495   8.706
 1686POPC   C2B25760   1.112  32.531   8.274
 1686POPC   C3B25761   1.040  32.371   7.836
 1686POPC   C4B25762   0.963  31.969   7.581
 1687POPC   NC325763   5.691  28.860   9.520
 1687POPC   PO425764   6.280  29.301   9.528
 1687POPC   GL125765   6.085  29.148   9.134
 1687POPC   GL225766   5.983  28.784   9.094
 1687POPC   C1A25767   6.110  29.180   8.677
 1687POPC   D2A25768   6.270  29.284   8.263
 1687POPC   C3A25769   6.038  29.117   7.911
 1687POPC   C4A25770   5.705  29.397   7.818
 1687POPC   C1B25771   5.655  28.990   8.834
 1687POPC   C2B25772   5.565  29.072   8.378
 1687POPC   C3B25773   5.575  28.843   7.957
 1687POPC   C4B25774   5.624  28.985   7.496
 1688POPC   NC325775   3.324  32.420   9.599
 1688POPC   PO425776   3.572  31.803   9.541
 1688POPC   GL125777   3.532  32.149   9.213
 1688POPC   GL225778   3.777  32.357   9.171
 1688POPC   C1A25779   3.528  32.290   8.758
 1688POPC   D2A25780   3.370  32.158   8.367
 1688POPC   C3A25781   3.495  32.288   7.986
 1688POPC   C4A25782   3.403  32.412   7.575
 1688POPC   C1B25783   3.919  32.613   8.775
 1688POPC   C2B25784   3.695  32.650   8.347
 1688POPC   C3B25785   3.687  32.733   7.868
 1688POPC   C4B25786   3.771  32.686   7.355
 1689POPC   NC325787  25.921  37.125   9.463
 1689POPC   PO425788  26.373  36.568   9.635
 1689POPC   GL125789  26.087  36.596   9.263
 1689POPC   GL225790  26.089  36.888   9.051
 1689POPC   C1A25791  26.046  36.459   8.812
 1689POPC   D2A25792  25.919  36.527   8.411
 1689POPC   C3A25793  26.028  36.807   8.112
 1689POPC   C4A25794  25.916  36.698   7.684
 1689POPC   C1B25795  26.001  37.004   8.622
 1689POPC   C2B25796  25.837  37.280   8.264
 1689POPC   C3B25797  25.977  37.226   7.816
 1689POPC   C4B25798  26.278  37.254   7.429
 1690POPC   NC325799  21.165  29.349   9.657
 1690POPC   PO425800  20.637  28.920   9.408
 1690POPC   GL125801  20.783  29.252   9.164
 1690POPC   GL225802  21.135  29.167   9.149
 1690POPC   C1A25803  20.551  29.305   8.767
 1690POPC   D2A25804  20.344  29.074   8.463
 1690POPC   C3A25805  20.527  29.262   8.130
 1690POPC   C4A25806  20.506  29.351   7.742
 1690POPC   C1B25807  21.078  29.319   8.724
 1690POPC   C2B25808  20.957  29.480   8.322
 1690POPC   C3B25809  20.982  29.468   7.852
 1690POPC   C4B25810  20.945  29.465   7.369
 1691POPC   NC325811   6.659  38.760   9.457
 1691POPC   PO425812   7.025  38.161   9.422
 1691POPC   GL125813   6.809  38.370   9.132
 1691POPC   GL225814   7.002  38.654   9.088
 1691POPC   C1A25815   6.523  38.278   8.814
 1691POPC   D2A25816   6.768  38.239   8.446
 1691POPC   C3A25817   6.655  38.343   8.040
 1691POPC   C4A25818   6.893  38.496   7.698
 1691POPC   C1B25819   6.703  38.743   8.739
 1691POPC   C2B25820   6.461  38.702   8.350
 1691POPC   C3B25821   6.560  38.829   7.897
 1691POPC   C4B25822   6.522  38.765   7.437
 1692POPC   NC325823  14.199   9.182   9.533
 1692POPC   PO425824  14.466   8.562   9.402
 1692POPC   GL125825  14.513   8.960   9.153
 1692POPC   GL225826  14.195   9.117   9.021
 1692POPC   C1A25827  14.614   9.235   8.777
 1692POPC   D2A25828  14.593   9.020   8.385
 1692POPC   C3A25829  14.243   9.077   8.158
 1692POPC   C4A25830  14.452   8.937   7.824
 1692POPC   C1B25831  14.307   8.767   8.712
 1692POPC   C2B25832  14.104   8.584   8.304
 1692POPC   C3B25833  13.960   8.729   7.874
 1692POPC   C4B25834  14.004   9.155   7.699
 1693POPC   NC325835   9.870  17.869   9.565
 1693POPC   PO425836   9.558  17.417   9.519
 1693POPC   GL125837   9.688  17.619   9.163
 1693POPC   GL225838   9.488  17.899   9.174
 1693POPC   C1A25839   9.713  17.666   8.738
 1693POPC   D2A25840   9.999  17.648   8.417
 1693POPC   C3A25841   9.820  17.635   7.980
 1693POPC   C4A25842   9.879  17.448   7.534
 1693POPC   C1B25843   9.391  18.056   8.742
 1693POPC   C2B25844   9.573  17.962   8.332
 1693POPC   C3B25845   9.579  18.086   7.900
 1693POPC   C4B25846   9.558  17.835   7.512
 1694POPC   NC325847   0.110  12.927   9.490
 1694POPC   PO425848   0.871  12.927   9.560
 1694POPC   GL125849   0.576  12.968   9.225
 1694POPC   GL225850   0.613  12.635   9.094
 1694POPC   C1A25851   0.363  13.020   8.841
 1694POPC   D2A25852   0.304  12.723   8.553
 1694POPC   C3A25853   0.313  12.787   8.104
 1694POPC   C4A25854   0.453  13.113   7.835
 1694POPC   C1B25855   0.657  12.370   8.721
 1694POPC   C2B25856   0.491  12.340   8.301
 1694POPC   C3B25857   0.700  12.524   7.927
 1694POPC   C4B25858   0.853  12.427   7.576
 1695POPC   NC325859  35.938  21.182   9.465
 1695POPC   PO425860  36.068  21.763   9.498
 1695POPC   GL125861  36.053  21.573   9.088
 1695POPC   GL225862  36.267  21.330   9.080
 1695POPC   C1A25863  36.295  21.639   8.673
 1695POPC   D2A25864  36.408  21.808   8.239
 1695POPC   C3A25865  36.081  21.628   7.948
 1695POPC   C4A25866  36.087  21.478   7.498
 1695POPC   C1B25867  36.198  21.096   8.725
 1695POPC   C2B25868  36.219  20.819   8.388
 1695POPC   C3B25869  36.163  20.934   7.977
 1695POPC   C4B25870  36.200  20.996   7.561
 1696POPC   NC325871  28.706  42.679   9.729
 1696POPC   PO425872  28.687  43.328   9.483
 1696POPC   GL125873  28.428  43.044   9.200
 1696POPC   GL225874  28.174  42.790   9.088
 1696POPC   C1A25875  28.330  43.162   8.758
 1696POPC   D2A25876  28.407  43.484   8.421
 1696POPC   C3A25877  28.261  43.360   8.031
 1696POPC   C4A25878  28.384  43.325   7.607
 1696POPC   C1B25879  27.996  42.707   8.690
 1696POPC   C2B25880  28.026  42.937   8.323
 1696POPC   C3B25881  28.213  42.879   7.923
 1696POPC   C4B25882  28.626  42.866   7.757
 1697POPC   NC325883  11.109  22.464   9.378
 1697POPC   PO425884  11.419  23.037   9.648
 1697POPC   GL125885  11.466  23.219   9.245
 1697POPC   GL225886  11.484  22.856   9.168
 1697POPC   C1A25887  11.629  23.213   8.811
 1697POPC   D2A25888  11.398  23.105   8.428
 1697POPC   C3A25889  11.410  23.247   8.046
 1697POPC   C4A25890  11.274  23.116   7.663
 1697POPC   C1B25891  11.437  22.725   8.744
 1697POPC   C2B25892  11.351  22.543   8.331
 1697POPC   C3B25893  11.446  22.715   7.948
 1697POPC   C4B25894  11.448  22.634   7.529
 1698POPC   NC325895  22.424  39.434   9.617
 1698POPC   PO425896  21.757  39.139   9.792
 1698POPC   GL125897  22.022  39.186   9.336
 1698POPC   GL225898  22.402  39.207   9.186
 1698POPC   C1A25899  22.020  39.201   8.861
 1698POPC   D2A25900  21.843  39.292   8.472
 1698POPC   C3A25901  22.122  39.226   8.141
 1698POPC   C4A25902  21.997  39.451   7.806
 1698POPC   C1B25903  22.597  39.276   8.795
 1698POPC   C2B25904  22.592  39.501   8.400
 1698POPC   C3B25905  22.315  39.718   8.135
 1698POPC   C4B25906  22.501  39.467   7.817
 1699POPC   NC325907  34.768  29.979   9.629
 1699POPC   PO425908  34.171  29.944   9.524
 1699POPC   GL125909  34.508  29.946   9.148
 1699POPC   GL225910  34.901  30.059   9.138
 1699POPC   C1A25911  34.603  30.098   8.734
 1699POPC   D2A25912  34.503  29.887   8.383
 1699POPC   C3A25913  34.289  30.114   8.103
 1699POPC   C4A25914  34.483  30.162   7.734
 1699POPC   C1B25915  35.018  29.737   8.843
 1699POPC   C2B25916  34.998  29.679   8.401
 1699POPC   C3B25917  34.894  29.888   8.020
 1699POPC   C4B25918  34.866  29.827   7.594
 1700POPC   NC325919   2.067  13.191   9.335
 1700POPC   PO425920   1.787  12.614   9.536
 1700POPC   GL125921   1.789  12.786   9.136
 1700POPC   GL225922   2.151  12.769   9.088
 1700POPC   C1A25923   1.675  12.750   8.694
 1700POPC   D2A25924   1.940  12.683   8.291
 1700POPC   C3A25925   1.686  12.793   7.927
 1700POPC   C4A25926   1.421  13.148   7.761
 1700POPC   C1B25927   2.134  12.947   8.687
 1700POPC   C2B25928   2.438  12.999   8.339
 1700POPC   C3B25929   2.514  12.774   7.937
 1700POPC   C4B25930   2.147  12.730   7.690
 1701POPC   NC325931  16.124   5.379   9.514
 1701POPC   PO425932  15.677   4.791   9.423
 1701POPC   GL125933  15.981   5.007   9.190
 1701POPC   GL225934  15.827   5.325   9.070
 1701POPC   C1A25935  16.195   4.959   8.825
 1701POPC   D2A25936  16.094   5.200   8.473
 1701POPC   C3A25937  16.135   5.068   8.067
 1701POPC   C4A25938  16.024   5.302   7.736
 1701POPC   C1B25939  15.680   5.016   8.740
 1701POPC   C2B25940  15.715   4.843   8.282
 1701POPC   C3B25941  15.699   4.873   7.792
 1701POPC   C4B25942  15.622   4.727   7.302
 1702POPC   NC325943  14.199  10.305   9.445
 1702POPC   PO425944  13.533  10.460   9.568
 1702POPC   GL125945  13.734  10.367   9.232
 1702POPC   GL225946  13.922  10.642   9.168
 1702POPC   C1A25947  13.646  10.298   8.799
 1702POPC   D2A25948  13.411  10.269   8.417
 1702POPC   C3A25949  13.501  10.334   7.995
 1702POPC   C4A25950  13.482  10.368   7.540
 1702POPC   C1B25951  14.030  10.652   8.759
 1702POPC   C2B25952  13.911  10.583   8.315
 1702POPC   C3B25953  13.885  10.620   7.865
 1702POPC   C4B25954  13.843  10.733   7.441
 1703POPC   NC325955  23.525  24.142   9.482
 1703POPC   PO425956  23.873  24.584   9.950
 1703POPC   GL125957  23.844  24.537   9.423
 1703POPC   GL225958  23.993  24.285   9.205
 1703POPC   C1A25959  23.687  24.561   8.931
 1703POPC   D2A25960  23.652  24.400   8.499
 1703POPC   C3A25961  23.631  24.679   8.131
 1703POPC   C4A25962  23.740  24.574   7.704
 1703POPC   C1B25963  23.880  24.078   8.835
 1703POPC   C2B25964  24.021  24.051   8.403
 1703POPC   C3B25965  23.850  24.184   8.019
 1703POPC   C4B25966  24.070  24.174   7.608
 1704POPC   NC325967  33.363   8.036   9.592
 1704POPC   PO425968  33.997   7.916   9.704
 1704POPC   GL125969  33.801   8.010   9.295
 1704POPC   GL225970  33.611   8.339   9.226
 1704POPC   C1A25971  33.693   7.989   8.860
 1704POPC   D2A25972  33.852   8.059   8.450
 1704POPC   C3A25973  33.662   7.950   8.064
 1704POPC   C4A25974  33.840   8.031   7.669
 1704POPC   C1B25975  33.812   8.474   8.807
 1704POPC   C2B25976  33.758   8.565   8.366
 1704POPC   C3B25977  33.637   8.459   7.925
 1704POPC   C4B25978  33.534   8.393   7.468
 1705POPC   NC325979  27.920  30.925   9.482
 1705POPC   PO425980  27.320  30.540   9.542
 1705POPC   GL125981  27.585  30.647   9.201
 1705POPC   GL225982  27.488  30.973   9.166
 1705POPC   C1A25983  27.852  30.746   8.842
 1705POPC   D2A25984  27.693  30.792   8.448
 1705POPC   C3A25985  27.656  30.549   8.076
 1705POPC   C4A25986  27.705  30.396   7.650
 1705POPC   C1B25987  27.304  30.980   8.757
 1705POPC   C2B25988  27.358  31.135   8.347
 1705POPC   C3B25989  27.343  30.978   7.916
 1705POPC   C4B25990  27.558  30.858   7.539
 1706POPC   NC325991  25.892  19.380   9.351
 1706POPC   PO425992  26.316  18.910   9.485
 1706POPC   GL125993  26.123  18.772   9.105
 1706POPC   GL225994  25.788  18.633   9.180
 1706POPC   C1A25995  26.231  18.905   8.663
 1706POPC   D2A25996  26.199  18.896   8.202
 1706POPC   C3A25997  26.355  19.150   7.909
 1706POPC   C4A25998  26.206  19.517   7.715
 1706POPC   C1B25999  25.722  18.909   8.809
 1706POPC   C2B26000  25.811  19.157   8.418
 1706POPC   C3B26001  25.785  19.030   7.953
 1706POPC   C4B26002  25.711  18.778   7.561
 1707POPC   NC326003   5.224  43.950   9.544
 1707POPC   PO426004   4.712  43.923   9.326
 1707POPC   GL126005   5.079  43.891   9.064
 1707POPC   GL226006   5.298  43.618   9.146
 1707POPC   C1A26007   5.440  44.083   8.847
 1707POPC   D2A26008   5.605  44.043   8.406
 1707POPC   C3A26009   5.370  43.858   8.041
 1707POPC   C4A26010   5.168  43.989   7.616
 1707POPC   C1B26011   5.258  43.646   8.650
 1707POPC   C2B26012   4.977  43.626   8.258
 1707POPC   C3B26013   5.031  43.540   7.792
 1707POPC   C4B26014   5.390  43.559   7.463
 1708POPC   NC326015  17.828  21.140   9.416
 1708POPC   PO426016  18.357  21.526   9.470
 1708POPC   GL126017  18.261  21.430   9.084
 1708POPC   GL226018  18.209  21.083   9.089
 1708POPC   C1A26019  18.164  21.666   8.726
 1708POPC   D2A26020  18.395  21.614   8.377
 1708POPC   C3A26021  18.223  21.544   8.005
 1708POPC   C4A26022  18.311  21.678   7.607
 1708POPC   C1B26023  17.910  21.220   8.755
 1708POPC   C2B26024  18.100  21.168   8.361
 1708POPC   C3B26025  18.500  21.130   8.162
 1708POPC   C4B26026  18.520  21.218   7.726
 1709POPC   NC326027  15.575   0.805   9.288
 1709POPC   PO426028  15.172   1.397   9.588
 1709POPC   GL126029  15.359   1.296   9.234
 1709POPC   GL226030  15.311   1.570   9.030
 1709POPC   C1A26031  15.302   1.132   8.792
 1709POPC   D2A26032  15.034   1.077   8.447
 1709POPC   C3A26033  15.283   1.026   8.079
 1709POPC   C4A26034  15.074   1.039   7.705
 1709POPC   C1B26035  15.082   1.599   8.643
 1709POPC   C2B26036  15.330   1.503   8.290
 1709POPC   C3B26037  15.296   1.502   7.853
 1709POPC   C4B26038  15.171   1.457   7.419
 1710POPC   NC326039  15.499   8.407   9.532
 1710POPC   PO426040  16.067   8.244   9.473
 1710POPC   GL126041  15.836   8.382   9.133
 1710POPC   GL226042  15.875   8.047   9.025
 1710POPC   C1A26043  15.812   8.463   8.692
 1710POPC   D2A26044  16.000   8.288   8.321
 1710POPC   C3A26045  15.952   8.423   7.870
 1710POPC   C4A26046  16.076   8.417   7.392
 1710POPC   C1B26047  15.623   7.968   8.688
 1710POPC   C2B26048  15.710   7.837   8.289
 1710POPC   C3B26049  16.043   7.892   7.989
 1710POPC   C4B26050  15.909   7.985   7.586
 1711POPC   NC326051  27.729   9.186   9.556
 1711POPC   PO426052  27.413   8.714   9.250
 1711POPC   GL126053  27.653   8.990   9.062
 1711POPC   GL226054  27.527   9.327   9.117
 1711POPC   C1A26055  28.013   8.916   8.815
 1711POPC   D2A26056  28.295   9.033   8.500
 1711POPC   C3A26057  28.092   9.099   8.133
 1711POPC   C4A26058  27.880   8.727   7.980
 1711POPC   C1B26059  27.760   9.336   8.692
 1711POPC   C2B26060  27.680   8.956   8.432
 1711POPC   C3B26061  27.402   8.756   8.147
 1711POPC   C4B26062  27.430   8.754   7.725
 1712POPC   NC326063  23.247  10.410   9.546
 1712POPC   PO426064  22.714  10.845   9.412
 1712POPC   GL126065  22.945  10.538   9.166
 1712POPC   GL226066  23.033  10.787   8.983
 1712POPC   C1A26067  23.118  10.320   8.811
 1712POPC   D2A26068  22.952  10.236   8.433
 1712POPC   C3A26069  23.014  10.506   8.109
 1712POPC   C4A26070  22.903  10.355   7.739
 1712POPC   C1B26071  22.949  10.755   8.566
 1712POPC   C2B26072  22.579  10.657   8.335
 1712POPC   C3B26073  22.579  10.770   7.912
 1712POPC   C4B26074  23.007  10.850   7.731
 1713POPC   NC326075  26.365  14.897   9.417
 1713POPC   PO426076  25.901  15.222   9.377
 1713POPC   GL126077  26.002  15.000   9.045
 1713POPC   GL226078  25.889  14.714   9.177
 1713POPC   C1A26079  26.015  15.012   8.599
 1713POPC   D2A26080  26.118  15.216   8.252
 1713POPC   C3A26081  26.160  15.110   7.846
 1713POPC   C4A26082  26.209  15.213   7.417
 1713POPC   C1B26083  25.687  14.660   8.799
 1713POPC   C2B26084  25.591  14.811   8.381
 1713POPC   C3B26085  25.802  14.786   7.997
 1713POPC   C4B26086  25.728  14.689   7.567
 1714POPC   NC326087  17.840  30.702   9.477
 1714POPC   PO426088  17.221  30.938   9.617
 1714POPC   GL126089  17.356  30.801   9.226
 1714POPC   GL226090  17.281  30.442   9.222
 1714POPC   C1A26091  17.367  30.903   8.793
 1714POPC   D2A26092  17.684  30.988   8.472
 1714POPC   C3A26093  17.612  30.869   8.056
 1714POPC   C4A26094  17.610  30.981   7.636
 1714POPC   C1B26095  17.560  30.434   8.862
 1714POPC   C2B26096  17.665  30.486   8.434
 1714POPC   C3B26097  17.747  30.384   7.995
 1714POPC   C4B26098  17.628  30.473   7.589
 1715POPC   NC326099  19.392  15.034   9.451
 1715POPC   PO426100  20.028  15.252   9.610
 1715POPC   GL126101  20.132  15.331   9.175
 1715POPC   GL226102  19.783  15.280   9.152
 1715POPC   C1A26103  20.171  14.967   8.887
 1715POPC   D2A26104  19.977  14.748   8.526
 1715POPC   C3A26105  19.936  15.015   8.153
 1715POPC   C4A26106  20.030  14.903   7.738
 1715POPC   C1B26107  19.732  15.279   8.728
 1715POPC   C2B26108  19.508  15.489   8.401
 1715POPC   C3B26109  19.327  15.271   8.078
 1715POPC   C4B26110  19.551  15.084   7.737
 1716POPC   NC326111  23.614  42.723   9.502
 1716POPC   PO426112  23.681  42.098   9.465
 1716POPC   GL126113  23.767  42.263   9.062
 1716POPC   GL226114  23.924  42.587   9.116
 1716POPC   C1A26115  23.567  42.197   8.648
 1716POPC   D2A26116  23.395  42.168   8.216
 1716POPC   C3A26117  23.723  42.085   7.919
 1716POPC   C4A26118  23.915  42.258   7.569
 1716POPC   C1B26119  23.570  42.698   8.823
 1716POPC   C2B26120  23.527  42.649   8.361
 1716POPC   C3B26121  23.710  42.642   7.928
 1716POPC   C4B26122  23.666  42.937   7.578
 1717POPC   NC326123  20.523  33.552   9.326
 1717POPC   PO426124  20.682  33.030   9.759
 1717POPC   GL126125  20.736  33.031   9.278
 1717POPC   GL226126  20.940  32.761   9.183
 1717POPC   C1A26127  20.930  33.166   8.849
 1717POPC   D2A26128  20.898  33.414   8.431
 1717POPC   C3A26129  20.880  33.293   8.004
 1717POPC   C4A26130  20.568  33.298   7.687
 1717POPC   C1B26131  20.713  32.658   8.827
 1717POPC   C2B26132  20.756  32.844   8.414
 1717POPC   C3B26133  20.572  32.851   7.989
 1717POPC   C4B26134  20.890  32.877   7.696
 1718POPC   NC326135   7.797   3.057   9.238
 1718POPC   PO426136   7.298   2.558   9.515
 1718POPC   GL126137   7.388   2.753   9.118
 1718POPC   GL226138   7.114   2.924   8.970
 1718POPC   C1A26139   7.487   2.741   8.664
 1718POPC   D2A26140   7.583   2.457   8.323
 1718POPC   C3A26141   7.639   2.645   7.910
 1718POPC   C4A26142   7.424   2.582   7.490
 1718POPC   C1B26143   7.029   3.077   8.585
 1718POPC   C2B26144   7.017   2.861   8.204
 1718POPC   C3B26145   7.212   2.914   7.821
 1718POPC   C4B26146   7.592   3.179   7.806
 1719POPC   NC326147  29.950  29.968   9.760
 1719POPC   PO426148  30.049  29.438   9.630
 1719POPC   GL126149  29.957  29.740   9.260
 1719POPC   GL226150  29.976  30.116   9.247
 1719POPC   C1A26151  29.886  29.816   8.790
 1719POPC   D2A26152  29.942  30.065   8.368
 1719POPC   C3A26153  29.855  29.854   7.947
 1719POPC   C4A26154  29.752  29.545   7.598
 1719POPC   C1B26155  29.763  30.309   8.845
 1719POPC   C2B26156  29.480  30.299   8.445
 1719POPC   C3B26157  29.655  30.337   7.992
 1719POPC   C4B26158  30.104  30.302   7.858
 1720POPC   NC326159  16.704  11.208   9.624
 1720POPC   PO426160  16.508  11.788   9.347
 1720POPC   GL126161  16.726  11.441   9.156
 1720POPC   GL226162  16.514  11.145   9.163
 1720POPC   C1A26163  16.905  11.221   8.786
 1720POPC   D2A26164  17.100  11.208   8.364
 1720POPC   C3A26165  16.895  11.356   7.994
 1720POPC   C4A26166  16.729  11.185   7.581
 1720POPC   C1B26167  16.388  11.282   8.779
 1720POPC   C2B26168  16.552  11.110   8.400
 1720POPC   C3B26169  16.420  11.158   7.985
 1720POPC   C4B26170  16.235  11.391   7.635
 1721POPC   NC326171  17.536  19.300   9.547
 1721POPC   PO426172  17.742  18.715   9.610
 1721POPC   GL126173  17.504  18.775   9.202
 1721POPC   GL226174  17.380  19.114   9.102
 1721POPC   C1A26175  17.666  18.845   8.761
 1721POPC   D2A26176  17.827  18.937   8.338
 1721POPC   C3A26177  17.583  19.117   8.017
 1721POPC   C4A26178  17.445  18.903   7.655
 1721POPC   C1B26179  17.404  19.318   8.688
 1721POPC   C2B26180  17.380  19.541   8.308
 1721POPC   C3B26181  17.568  19.606   7.900
 1721POPC   C4B26182  17.703  19.368   7.539
 1722POPC   NC326183  37.847  16.725   9.632
 1722POPC   PO426184  37.539  16.154   9.614
 1722POPC   GL126185  37.709  16.434   9.220
 1722POPC   GL226186  37.998  16.717   9.147
 1722POPC   C1A26187  37.570  16.730   8.830
 1722POPC   D2A26188  37.501  16.945   8.390
 1722POPC   C3A26189  37.671  16.726   8.005
 1722POPC   C4A26190  37.657  16.691   7.518
 1722POPC   C1B26191  38.017  16.961   8.748
 1722POPC   C2B26192  37.984  17.086   8.272
 1722POPC   C3B26193  38.072  16.967   7.800
 1722POPC   C4B26194  38.055  17.049   7.339
 1723POPC   NC326195  28.080   5.724   9.979
 1723POPC   PO426196  28.367   5.988   9.416
 1723POPC   GL126197  28.458   6.060   9.049
 1723POPC   GL226198  28.444   5.719   8.985
 1723POPC   C1A26199  28.250   6.093   8.653
 1723POPC   D2A26200  28.345   6.033   8.228
 1723POPC   C3A26201  28.124   6.028   7.846
 1723POPC   C4A26202  28.488   6.041   7.545
 1723POPC   C1B26203  28.726   5.867   8.664
 1723POPC   C2B26204  28.758   5.725   8.266
 1723POPC   C3B26205  28.541   5.654   7.899
 1723POPC   C4B26206  28.553   5.271   7.713
 1724POPC   NC326207  42.188  15.817   9.729
 1724POPC   PO426208  42.675  16.213   9.430
 1724POPC   GL126209  42.549  15.969   9.099
 1724POPC   GL226210  42.353  15.653   9.196
 1724POPC   C1A26211  42.393  15.930   8.737
 1724POPC   D2A26212  42.517  15.871   8.331
 1724POPC   C3A26213  42.346  16.072   7.960
 1724POPC   C4A26214  42.594  16.198   7.614
 1724POPC   C1B26215  42.054  15.549   8.854
 1724POPC   C2B26216  42.008  15.719   8.460
 1724POPC   C3B26217  42.167  15.607   8.065
 1724POPC   C4B26218  42.276  15.547   7.661
 1725POPC   NC326219  26.070  12.846   9.511
 1725POPC   PO426220  25.463  13.057   9.555
 1725POPC   GL126221  25.642  12.820   9.237
 1725POPC   GL226222  25.826  13.107   9.161
 1725POPC   C1A26223  25.913  12.698   8.849
 1725POPC   D2A26224  25.725  12.638   8.460
 1725POPC   C3A26225  25.886  12.413   8.114
 1725POPC   C4A26226  25.938  12.629   7.737
 1725POPC   C1B26227  26.008  13.252   8.831
 1725POPC   C2B26228  26.171  13.276   8.466
 1725POPC   C3B26229  26.022  13.294   8.070
 1725POPC   C4B26230  26.221  13.043   7.809
 1726POPC   NC326231  14.497   9.670   9.316
 1726POPC   PO426232  14.084   9.943   9.716
 1726POPC   GL126233  14.003   9.922   9.194
 1726POPC   GL226234  14.124  10.155   8.965
 1726POPC   C1A26235  14.128   9.708   8.752
 1726POPC   D2A26236  14.410   9.822   8.380
 1726POPC   C3A26237  14.589   9.485   8.098
 1726POPC   C4A26238  14.461   9.415   7.652
 1726POPC   C1B26239  14.606  10.044   8.838
 1726POPC   C2B26240  14.877  10.043   8.495
 1726POPC   C3B26241  14.786  10.004   8.066
 1726POPC   C4B26242  14.422   9.917   7.813
 1727POPC   NC326243  19.532  21.814   9.528
 1727POPC   PO426244  18.902  22.166   9.454
 1727POPC   GL126245  19.018  21.981   9.119
 1727POPC   GL226246  19.370  22.037   9.098
 1727POPC   C1A26247  18.926  22.130   8.724
 1727POPC   D2A26248  19.061  22.340   8.354
 1727POPC   C3A26249  18.980  22.067   8.009
 1727POPC   C4A26250  18.808  22.115   7.645
 1727POPC   C1B26251  19.431  22.176   8.683
 1727POPC   C2B26252  19.416  22.004   8.253
 1727POPC   C3B26253  19.426  22.307   7.887
 1727POPC   C4B26254  19.454  22.331   7.406
 1728POPC   NC326255  20.083  35.095   9.267
 1728POPC   PO426256  20.158  34.534   9.591
 1728POPC   GL126257  19.915  34.593   9.209
 1728POPC   GL226258  19.645  34.827   9.142
 1728POPC   C1A26259  19.790  34.411   8.823
 1728POPC   D2A26260  20.075  34.317   8.489
 1728POPC   C3A26261  20.017  34.429   8.068
 1728POPC   C4A26262  19.669  34.306   7.799
 1728POPC   C1B26263  19.829  34.906   8.706
 1728POPC   C2B26264  19.660  35.091   8.336
 1728POPC   C3B26265  19.867  34.918   7.981
 1728POPC   C4B26266  19.951  34.680   7.612
 1729POPC   NC326267  22.069  40.343   9.397
 1729POPC   PO426268  22.029  39.682   9.482
 1729POPC   GL126269  22.152  39.647   9.088
 1729POPC   GL226270  22.271  39.970   9.097
 1729POPC   C1A26271  22.147  39.706   8.646
 1729POPC   D2A26272  22.000  40.061   8.413
 1729POPC   C3A26273  21.880  39.995   7.992
 1729POPC   C4A26274  22.140  39.906   7.649
 1729POPC   C1B26275  22.336  40.261   8.770
 1729POPC   C2B26276  22.501  40.187   8.367
 1729POPC   C3B26277  22.359  40.236   7.961
 1729POPC   C4B26278  22.542  40.347   7.571
 1730POPC   NC326279  20.167  13.270   9.434
 1730POPC   PO426280  19.791  13.819   9.489
 1730POPC   GL126281  19.673  13.690   9.096
 1730POPC   GL226282  19.764  13.372   9.127
 1730POPC   C1A26283  19.676  13.536   8.662
 1730POPC   D2A26284  19.605  13.918   8.476
 1730POPC   C3A26285  19.675  13.996   8.065
 1730POPC   C4A26286  19.862  13.840   7.690
 1730POPC   C1B26287  20.121  13.339   8.795
 1730POPC   C2B26288  20.135  13.100   8.398
 1730POPC   C3B26289  20.027  13.222   7.985
 1730POPC   C4B26290  20.111  13.384   7.583
 1731POPC   NC326291  36.850  44.300   9.406
 1731POPC   PO426292  37.082  44.887   9.413
 1731POPC   GL126293  36.838  44.735   9.105
 1731POPC   GL226294  37.114  44.492   9.015
 1731POPC   C1A26295  36.627  44.514   8.789
 1731POPC   D2A26296  36.488  44.376   8.415
 1731POPC   C3A26297  36.694  44.451   8.048
 1731POPC   C4A26298  36.681  44.805   7.830
 1731POPC   C1B26299  37.093  44.693   8.618
 1731POPC   C2B26300  37.152  44.615   8.180
 1731POPC   C3B26301  37.181  44.699   7.756
 1731POPC   C4B26302  37.481   0.042   7.681
 1732POPC   NC326303  20.790  39.551   9.355
 1732POPC   PO426304  20.239  39.437   9.659
 1732POPC   GL126305  20.402  39.212   9.255
 1732POPC   GL226306  20.753  39.087   9.113
 1732POPC   C1A26307  20.378  39.228   8.787
 1732POPC   D2A26308  20.467  39.411   8.379
 1732POPC   C3A26309  20.408  39.226   7.990
 1732POPC   C4A26310  20.230  39.271   7.637
 1732POPC   C1B26311  20.880  39.194   8.657
 1732POPC   C2B26312  20.875  39.176   8.204
 1732POPC   C3B26313  20.895  39.162   7.773
 1732POPC   C4B26314  21.010  39.110   7.365
 1733POPC   NC326315  26.229  40.893   9.382
 1733POPC   PO426316  26.704  41.387   9.389
 1733POPC   GL126317  26.623  41.384   8.991
 1733POPC   GL226318  26.473  41.072   8.967
 1733POPC   C1A26319  26.742  41.585   8.611
 1733POPC   D2A26320  27.053  41.752   8.317
 1733POPC   C3A26321  26.961  41.643   7.895
 1733POPC   C4A26322  27.191  41.545   7.521
 1733POPC   C1B26323  26.540  41.106   8.533
 1733POPC   C2B26324  26.536  41.383   8.167
 1733POPC   C3B26325  26.496  41.312   7.754
 1733POPC   C4B26326  26.664  41.543   7.455
 1734POPC   NC326327  42.219   1.359   9.567
 1734POPC   PO426328  42.666   0.794   9.603
 1734POPC   GL126329  42.518   1.075   9.245
 1734POPC   GL226330  42.471   1.416   9.120
 1734POPC   C1A26331  42.417   1.029   8.798
 1734POPC   D2A26332  42.208   1.047   8.388
 1734POPC   C3A26333  42.378   0.898   8.004
 1734POPC   C4A26334  42.609   1.108   7.723
 1734POPC   C1B26335  42.212   1.533   8.738
 1734POPC   C2B26336  42.050   1.531   8.303
 1734POPC   C3B26337  42.241   1.399   7.929
 1734POPC   C4B26338  42.101   1.152   7.590
 1735POPC   NC326339  34.985  20.579   9.635
 1735POPC   PO426340  35.640  20.835   9.424
 1735POPC   GL126341  35.485  20.657   9.100
 1735POPC   GL226342  35.571  20.307   9.141
 1735POPC   C1A26343  35.460  20.864   8.714
 1735POPC   D2A26344  35.328  20.708   8.338
 1735POPC   C3A26345  35.632  20.750   8.053
 1735POPC   C4A26346  35.430  20.813   7.676
 1735POPC   C1B26347  35.371  20.339   8.712
 1735POPC   C2B26348  35.014  20.306   8.376
 1735POPC   C3B26349  35.128  20.434   7.921
 1735POPC   C4B26350  35.494  20.304   7.685
 1736POPC   NC326351  32.336   8.681   9.460
 1736POPC   PO426352  32.032   7.972   9.511
 1736POPC   GL126353  32.214   8.150   9.156
 1736POPC   GL226354  32.127   8.487   9.036
 1736POPC   C1A26355  32.057   8.032   8.784
 1736POPC   D2A26356  32.208   7.922   8.415
 1736POPC   C3A26357  31.997   7.862   8.056
 1736POPC   C4A26358  32.180   7.909   7.666
 1736POPC   C1B26359  32.414   8.384   8.690
 1736POPC   C2B26360  32.424   8.385   8.249
 1736POPC   C3B26361  32.199   8.367   7.873
 1736POPC   C4B26362  32.339   8.381   7.440
 1737POPC   NC326363  23.256  25.200   9.262
 1737POPC   PO426364  22.750  25.557   9.548
 1737POPC   GL126365  22.796  25.405   9.117
 1737POPC   GL226366  22.783  25.045   9.084
 1737POPC   C1A26367  22.989  25.364   8.705
 1737POPC   D2A26368  23.285  25.195   8.421
 1737POPC   C3A26369  23.158  25.380   8.059
 1737POPC   C4A26370  23.139  25.431   7.637
 1737POPC   C1B26371  22.911  24.854   8.680
 1737POPC   C2B26372  22.905  24.887   8.227
 1737POPC   C3B26373  22.943  24.987   7.800
 1737POPC   C4B26374  23.127  24.987   7.381
 1738POPC   NC326375  30.039   0.742   9.464
 1738POPC   PO426376  29.650   0.161   9.513
 1738POPC   GL126377  29.749   0.344   9.156
 1738POPC   GL226378  29.571   0.641   9.214
 1738POPC   C1A26379  29.997   0.545   8.841
 1738POPC   D2A26380  30.188   0.469   8.443
 1738POPC   C3A26381  30.123   0.566   8.034
 1738POPC   C4A26382  30.013   0.429   7.651
 1738POPC   C1B26383  29.515   0.692   8.788
 1738POPC   C2B26384  29.736   0.750   8.423
 1738POPC   C3B26385  29.635   0.674   8.001
 1738POPC   C4B26386  29.815   0.886   7.670
 1739POPC   NC326387  41.743  14.575   9.591
 1739POPC   PO426388  41.436  14.115   9.304
 1739POPC   GL126389  41.512  14.486   9.116
 1739POPC   GL226390  41.854  14.649   9.105
 1739POPC   C1A26391  41.279  14.568   8.761
 1739POPC   D2A26392  41.377  14.426   8.358
 1739POPC   C3A26393  41.378  14.669   8.005
 1739POPC   C4A26394  41.481  14.444   7.633
 1739POPC   C1B26395  41.785  14.533   8.676
 1739POPC   C2B26396  41.835  14.762   8.282
 1739POPC   C3B26397  41.840  14.775   7.833
 1739POPC   C4B26398  41.828  14.708   7.380
 1740POPC   NC326399  25.685   6.570   9.391
 1740POPC   PO426400  26.357   6.621   9.550
 1740POPC   GL126401  26.175   6.509   9.157
 1740POPC   GL226402  26.046   6.858   9.188
 1740POPC   C1A26403  25.997   6.580   8.723
 1740POPC   D2A26404  25.706   6.688   8.367
 1740POPC   C3A26405  25.835   6.536   7.967
 1740POPC   C4A26406  25.958   6.285   7.624
 1740POPC   C1B26407  25.847   7.046   8.859
 1740POPC   C2B26408  26.000   7.082   8.449
 1740POPC   C3B26409  25.926   7.058   8.020
 1740POPC   C4B26410  26.200   6.878   7.756
 1741POPC   NC326411  28.028  11.181   9.405
 1741POPC   PO426412  27.446  11.317   9.575
 1741POPC   GL126413  27.487  11.252   9.112
 1741POPC   GL226414  27.635  10.964   9.142
 1741POPC   C1A26415  27.339  11.142   8.659
 1741POPC   D2A26416  27.349  11.089   8.183
 1741POPC   C3A26417  27.582  11.443   7.895
 1741POPC   C4A26418  27.481  11.649   7.470
 1741POPC   C1B26419  27.848  11.065   8.707
 1741POPC   C2B26420  27.840  10.961   8.238
 1741POPC   C3B26421  27.654  10.964   7.778
 1741POPC   C4B26422  27.724  11.173   7.384
 1742POPC   NC326423  35.863  26.771   9.374
 1742POPC   PO426424  35.383  26.527   9.771
 1742POPC   GL126425  35.399  26.581   9.272
 1742POPC   GL226426  35.450  26.923   9.098
 1742POPC   C1A26427  35.610  26.536   8.831
 1742POPC   D2A26428  35.671  26.863   8.523
 1742POPC   C3A26429  35.392  26.754   8.225
 1742POPC   C4A26430  35.417  26.626   7.837
 1742POPC   C1B26431  35.202  26.890   8.732
 1742POPC   C2B26432  35.055  27.115   8.345
 1742POPC   C3B26433  35.010  27.016   7.905
 1742POPC   C4B26434  34.953  26.631   7.639
 1743POPC   NC326435  40.937  11.145   9.440
 1743POPC   PO426436  40.579  11.745   9.492
 1743POPC   GL126437  40.682  11.530   9.102
 1743POPC   GL226438  40.669  11.158   9.021
 1743POPC   C1A26439  40.730  11.634   8.663
 1743POPC   D2A26440  40.527  11.579   8.269
 1743POPC   C3A26441  40.823  11.426   7.960
 1743POPC   C4A26442  40.835  11.327   7.514
 1743POPC   C1B26443  40.589  11.151   8.580
 1743POPC   C2B26444  40.424  11.050   8.171
 1743POPC   C3B26445  40.550  10.940   7.736
 1743POPC   C4B26446  40.571  10.970   7.256
 1744POPC   NC326447  19.453  28.854   9.339
 1744POPC   PO426448  19.225  29.440   9.506
 1744POPC   GL126449  19.010  29.152   9.268
 1744POPC   GL226450  18.643  29.158   9.348
 1744POPC   C1A26451  19.061  29.011   8.844
 1744POPC   D2A26452  19.054  29.236   8.473
 1744POPC   C3A26453  19.238  29.110   8.081
 1744POPC   C4A26454  19.162  29.286   7.670
 1744POPC   C1B26455  18.621  29.255   8.902
 1744POPC   C2B26456  18.568  29.044   8.517
 1744POPC   C3B26457  18.724  29.020   8.131
 1744POPC   C4B26458  18.613  29.174   7.743
 1745POPC   NC326459  13.947  42.469   9.580
 1745POPC   PO426460  13.236  42.236   9.438
 1745POPC   GL126461  13.591  42.275   9.234
 1745POPC   GL226462  13.636  42.619   9.197
 1745POPC   C1A26463  13.675  42.315   8.795
 1745POPC   D2A26464  13.651  42.518   8.423
 1745POPC   C3A26465  13.450  42.276   8.179
 1745POPC   C4A26466  13.498  42.002   7.840
 1745POPC   C1B26467  13.352  42.741   8.848
 1745POPC   C2B26468  13.159  42.708   8.413
 1745POPC   C3B26469  13.369  42.784   8.014
 1745POPC   C4B26470  13.705  42.534   7.832
 1746POPC   NC326471  21.097  16.729   9.562
 1746POPC   PO426472  21.662  16.452   9.593
 1746POPC   GL126473  21.464  16.632   9.193
 1746POPC   GL226474  21.106  16.554   9.096
 1746POPC   C1A26475  21.460  16.978   8.886
 1746POPC   D2A26476  21.327  17.157   8.504
 1746POPC   C3A26477  21.516  17.172   8.113
 1746POPC   C4A26478  21.579  16.957   7.730
 1746POPC   C1B26479  21.306  16.517   8.717
 1746POPC   C2B26480  21.392  16.670   8.325
 1746POPC   C3B26481  21.258  16.565   7.915
 1746POPC   C4B26482  21.562  16.448   7.610
 1747POPC   NC326483  23.887  30.259   9.428
 1747POPC   PO426484  23.519  30.785   9.723
 1747POPC   GL126485  23.690  30.723   9.273
 1747POPC   GL226486  23.970  30.963   9.209
 1747POPC   C1A26487  23.799  30.632   8.815
 1747POPC   D2A26488  23.588  30.590   8.409
 1747POPC   C3A26489  23.718  30.499   7.980
 1747POPC   C4A26490  23.606  30.482   7.542
 1747POPC   C1B26491  23.948  31.118   8.806
 1747POPC   C2B26492  24.005  30.923   8.424
 1747POPC   C3B26493  23.918  30.977   8.045
 1747POPC   C4B26494  23.962  30.818   7.640
 1748POPC   NC326495  34.072  23.685   9.688
 1748POPC   PO426496  33.622  24.041   9.419
 1748POPC   GL126497  33.945  23.877   9.189
 1748POPC   GL226498  33.961  23.544   9.195
 1748POPC   C1A26499  33.827  23.846   8.764
 1748POPC   D2A26500  33.684  23.653   8.365
 1748POPC   C3A26501  33.799  23.807   7.964
 1748POPC   C4A26502  33.592  23.898   7.576
 1748POPC   C1B26503  33.827  23.343   8.813
 1748POPC   C2B26504  34.075  23.321   8.433
 1748POPC   C3B26505  33.933  23.267   8.034
 1748POPC   C4B26506  33.821  23.423   7.633
 1749POPC   NC326507  35.561  42.914   9.445
 1749POPC   PO426508  35.108  43.416   9.633
 1749POPC   GL126509  35.034  43.060   9.211
 1749POPC   GL226510  35.194  42.764   9.113
 1749POPC   C1A26511  35.166  43.075   8.712
 1749POPC   D2A26512  35.146  43.333   8.317
 1749POPC   C3A26513  35.525  43.296   8.055
 1749POPC   C4A26514  35.477  42.997   7.737
 1749POPC   C1B26515  35.157  42.579   8.700
 1749POPC   C2B26516  35.241  42.456   8.303
 1749POPC   C3B26517  35.160  42.623   7.877
 1749POPC   C4B26518  34.948  42.799   7.543
 1750POPC   NC326519  30.713   1.931   9.912
 1750POPC   PO426520  30.307   2.113   9.386
 1750POPC   GL126521  30.647   2.028   9.122
 1750POPC   GL226522  30.917   2.285   9.098
 1750POPC   C1A26523  30.648   1.868   8.681
 1750POPC   D2A26524  30.756   1.700   8.255
 1750POPC   C3A26525  30.592   1.981   7.971
 1750POPC   C4A26526  30.240   2.040   7.762
 1750POPC   C1B26527  30.979   2.284   8.619
 1750POPC   C2B26528  30.960   2.303   8.153
 1750POPC   C3B26529  31.031   2.066   7.741
 1750POPC   C4B26530  31.026   1.974   7.286
 1751POPC   NC326531   7.117  11.669   9.428
 1751POPC   PO426532   6.758  11.212   9.775
 1751POPC   GL126533   6.779  11.288   9.241
 1751POPC   GL226534   6.978  11.104   9.042
 1751POPC   C1A26535   6.518  11.392   8.825
 1751POPC   D2A26536   6.440  11.629   8.379
 1751POPC   C3A26537   6.526  11.429   7.928
 1751POPC   C4A26538   6.333  11.227   7.508
 1751POPC   C1B26539   6.989  11.281   8.661
 1751POPC   C2B26540   6.915  11.383   8.267
 1751POPC   C3B26541   6.858  11.056   7.932
 1751POPC   C4B26542   6.822  11.093   7.497
 1752POPC   NC326543   1.605  32.664   9.723
 1752POPC   PO426544   2.171  32.547   9.471
 1752POPC   GL126545   1.925  32.635   9.166
 1752POPC   GL226546   1.690  32.372   9.131
 1752POPC   C1A26547   1.945  32.683   8.744
 1752POPC   D2A26548   2.179  32.451   8.402
 1752POPC   C3A26549   2.070  32.435   7.960
 1752POPC   C4A26550   2.230  32.240   7.575
 1752POPC   C1B26551   1.862  32.184   8.726
 1752POPC   C2B26552   1.782  32.128   8.261
 1752POPC   C3B26553   1.899  31.955   7.834
 1752POPC   C4B26554   1.838  32.003   7.358
 1753POPC   NC326555  15.386  18.143   9.546
 1753POPC   PO426556  15.955  18.427   9.418
 1753POPC   GL126557  16.125  18.462   9.054
 1753POPC   GL226558  16.483  18.542   9.044
 1753POPC   C1A26559  15.883  18.345   8.687
 1753POPC   D2A26560  15.570  18.467   8.393
 1753POPC   C3A26561  15.755  18.438   8.000
 1753POPC   C4A26562  15.617  18.389   7.581
 1753POPC   C1B26563  16.376  18.487   8.575
 1753POPC   C2B26564  16.295  18.438   8.114
 1753POPC   C3B26565  16.136  18.251   7.714
 1753POPC   C4B26566  16.089  18.486   7.290
 1754POPC   NC326567  16.190  20.248   9.139
 1754POPC   PO426568  15.915  20.663   9.615
 1754POPC   GL126569  15.860  20.739   9.184
 1754POPC   GL226570  16.205  20.793   9.172
 1754POPC   C1A26571  15.706  20.579   8.755
 1754POPC   D2A26572  15.700  20.547   8.299
 1754POPC   C3A26573  15.835  20.723   7.890
 1754POPC   C4A26574  16.066  20.543   7.522
 1754POPC   C1B26575  16.152  20.812   8.730
 1754POPC   C2B26576  16.205  20.666   8.294
 1754POPC   C3B26577  16.372  20.790   7.876
 1754POPC   C4B26578  16.319  21.044   7.481
 1755POPC   NC326579   0.794  33.026   9.753
 1755POPC   PO426580   0.195  32.759   9.486
 1755POPC   GL126581   0.273  33.012   9.136
 1755POPC   GL226582   0.376  32.792   8.983
 1755POPC   C1A26583   0.304  33.275   8.767
 1755POPC   D2A26584   0.475  33.318   8.368
 1755POPC   C3A26585   0.392  33.005   8.052
 1755POPC   C4A26586   0.570  33.155   7.707
 1755POPC   C1B26587   0.622  32.904   8.668
 1755POPC   C2B26588   0.826  32.947   8.302
 1755POPC   C3B26589   0.910  32.851   7.914
 1755POPC   C4B26590   0.757  32.700   7.538
 1756POPC   NC326591  19.569  37.268   9.522
 1756POPC   PO426592  19.912  37.785   9.454
 1756POPC   GL126593  19.829  37.509   9.127
 1756POPC   GL226594  20.129  37.360   9.118
 1756POPC   C1A26595  19.828  37.582   8.690
 1756POPC   D2A26596  19.861  37.947   8.408
 1756POPC   C3A26597  20.050  37.787   8.033
 1756POPC   C4A26598  19.834  37.473   7.767
 1756POPC   C1B26599  20.103  37.141   8.684
 1756POPC   C2B26600  20.049  37.231   8.209
 1756POPC   C3B26601  20.331  37.386   7.832
 1756POPC   C4B26602  20.210  37.478   7.400
 1757POPC   NC326603  10.383  37.509   9.802
 1757POPC   PO426604  10.911  37.870   9.612
 1757POPC   GL126605  10.649  37.924   9.292
 1757POPC   GL226606  10.448  37.608   9.250
 1757POPC   C1A26607  10.747  37.966   8.882
 1757POPC   D2A26608  10.517  37.835   8.542
 1757POPC   C3A26609  10.628  37.867   8.130
 1757POPC   C4A26610  10.416  37.760   7.759
 1757POPC   C1B26611  10.650  37.443   8.849
 1757POPC   C2B26612  10.874  37.490   8.417
 1757POPC   C3B26613  10.767  37.405   7.967
 1757POPC   C4B26614  10.572  37.327   7.552
 1758POPC   NC326615  37.091  13.429   9.656
 1758POPC   PO426616  37.035  14.126   9.557
 1758POPC   GL126617  36.953  13.915   9.162
 1758POPC   GL226618  37.063  13.538   9.151
 1758POPC   C1A26619  36.933  13.825   8.715
 1758POPC   D2A26620  36.830  13.540   8.373
 1758POPC   C3A26621  36.754  13.701   7.963
 1758POPC   C4A26622  36.491  13.476   7.696
 1758POPC   C1B26623  37.153  13.352   8.730
 1758POPC   C2B26624  37.254  13.225   8.301
 1758POPC   C3B26625  37.019  13.277   7.898
 1758POPC   C4B26626  36.988  13.466   7.479
 1759POPC   NC326627   2.222  39.400   9.493
 1759POPC   PO426628   1.779  38.869   9.306
 1759POPC   GL126629   1.994  39.202   9.085
 1759POPC   GL226630   2.373  39.139   9.097
 1759POPC   C1A26631   2.181  39.405   8.713
 1759POPC   D2A26632   2.270  39.208   8.311
 1759POPC   C3A26633   2.021  39.261   7.980
 1759POPC   C4A26634   1.905  39.525   7.679
 1759POPC   C1B26635   2.612  39.109   8.704
 1759POPC   C2B26636   2.615  38.830   8.341
 1759POPC   C3B26637   2.413  38.903   7.911
 1759POPC   C4B26638   2.261  39.157   7.554
 1760POPC   NC326639  43.284  32.837   9.341
 1760POPC   PO426640  42.886  33.290   9.636
 1760POPC   GL126641  42.843  33.081   9.216
 1760POPC   GL226642  42.754  33.382   9.089
 1760POPC   C1A26643  43.015  33.003   8.754
 1760POPC   D2A26644  43.155  32.742   8.376
 1760POPC   C3A26645  43.360  32.732   7.958
 1760POPC   C4A26646  43.296  32.857   7.484
 1760POPC   C1B26647  42.738  33.455   8.646
 1760POPC   C2B26648  42.894  33.202   8.270
 1760POPC   C3B26649  43.073  33.166   7.842
 1760POPC   C4B26650  42.965  33.317   7.441
 1761POPC   NC326651  32.640  23.047   9.438
 1761POPC   PO426652  32.960  22.504   9.636
 1761POPC   GL126653  33.033  22.758   9.230
 1761POPC   GL226654  33.043  23.109   9.139
 1761POPC   C1A26655  33.140  22.723   8.788
 1761POPC   D2A26656  33.067  22.947   8.398
 1761POPC   C3A26657  33.127  22.670   8.034
 1761POPC   C4A26658  32.950  22.682   7.624
 1761POPC   C1B26659  33.308  23.207   8.785
 1761POPC   C2B26660  33.562  23.161   8.387
 1761POPC   C3B26661  33.422  23.321   7.954
 1761POPC   C4B26662  33.040  23.201   7.708
 1762POPC   NC326663  16.737  29.625   9.363
 1762POPC   PO426664  16.685  30.207   9.450
 1762POPC   GL126665  16.895  30.064   9.084
 1762POPC   GL226666  16.650  30.164   8.887
 1762POPC   C1A26667  16.855  29.768   8.681
 1762POPC   D2A26668  16.762  29.928   8.256
 1762POPC   C3A26669  16.711  29.675   7.899
 1762POPC   C4A26670  16.982  29.730   7.566
 1762POPC   C1B26671  16.385  30.137   8.550
 1762POPC   C2B26672  16.423  30.335   8.173
 1762POPC   C3B26673  16.608  30.184   7.794
 1762POPC   C4B26674  16.575  30.009   7.396
 1763POPC   NC326675  32.866  10.431   9.594
 1763POPC   PO426676  33.478  10.544   9.536
 1763POPC   GL126677  33.223  10.233   9.262
 1763POPC   GL226678  32.915  10.370   9.097
 1763POPC   C1A26679  33.240  10.109   8.830
 1763POPC   D2A26680  33.290  10.248   8.393
 1763POPC   C3A26681  32.992  10.196   8.107
 1763POPC   C4A26682  32.904  10.365   7.737
 1763POPC   C1B26683  32.874  10.399   8.639
 1763POPC   C2B26684  32.969  10.670   8.334
 1763POPC   C3B26685  32.814  10.809   7.956
 1763POPC   C4B26686  32.454  10.667   7.753
 1764POPC   NC326687  31.726  21.895   9.860
 1764POPC   PO426688  32.404  22.210   9.750
 1764POPC   GL126689  32.304  22.092   9.322
 1764POPC   GL226690  32.085  22.309   9.134
 1764POPC   C1A26691  32.410  21.997   8.882
 1764POPC   D2A26692  32.358  22.252   8.497
 1764POPC   C3A26693  32.302  22.035   8.100
 1764POPC   C4A26694  32.437  21.776   7.782
 1764POPC   C1B26695  32.017  22.578   8.795
 1764POPC   C2B26696  32.070  22.675   8.378
 1764POPC   C3B26697  32.076  22.480   8.007
 1764POPC   C4B26698  31.796  22.446   7.727
 1765POPC   NC326699  16.149  23.049   9.788
 1765POPC   PO426700  16.643  22.737   9.434
 1765POPC   GL126701  16.546  22.837   9.050
 1765POPC   GL226702  16.726  23.153   9.016
 1765POPC   C1A26703  16.520  22.825   8.617
 1765POPC   D2A26704  16.635  22.943   8.223
 1765POPC   C3A26705  16.790  22.608   7.980
 1765POPC   C4A26706  16.909  22.578   7.564
 1765POPC   C1B26707  16.899  23.462   8.738
 1765POPC   C2B26708  17.083  23.486   8.322
 1765POPC   C3B26709  16.906  23.324   7.951
 1765POPC   C4B26710  16.755  23.458   7.565
 1766POPC   NC326711  34.543  34.378   9.527
 1766POPC   PO426712  34.650  34.955   9.654
 1766POPC   GL126713  34.887  34.714   9.278
 1766POPC   GL226714  34.877  34.373   9.133
 1766POPC   C1A26715  34.962  34.753   8.806
 1766POPC   D2A26716  34.688  34.802   8.445
 1766POPC   C3A26717  34.728  34.633   8.016
 1766POPC   C4A26718  34.554  34.837   7.645
 1766POPC   C1B26719  34.515  34.508   8.876
 1766POPC   C2B26720  34.246  34.254   8.607
 1766POPC   C3B26721  34.208  34.120   8.170
 1766POPC   C4B26722  34.280  34.416   7.802
 1767POPC   NC326723  34.692  12.362   9.349
 1767POPC   PO426724  34.889  11.845   9.547
 1767POPC   GL126725  35.082  11.838   9.160
 1767POPC   GL226726  35.111  12.177   9.070
 1767POPC   C1A26727  34.919  11.844   8.736
 1767POPC   D2A26728  34.603  12.061   8.484
 1767POPC   C3A26729  34.591  11.892   8.090
 1767POPC   C4A26730  34.812  11.553   7.895
 1767POPC   C1B26731  34.999  12.337   8.651
 1767POPC   C2B26732  35.091  12.114   8.296
 1767POPC   C3B26733  35.051  11.996   7.888
 1767POPC   C4B26734  34.695  12.020   7.601
 1768POPC   NC326735  16.075   2.173   9.395
 1768POPC   PO426736  15.794   1.572   9.498
 1768POPC   GL126737  15.781   1.841   9.109
 1768POPC   GL226738  16.113   1.754   9.085
 1768POPC   C1A26739  15.895   2.183   8.748
 1768POPC   D2A26740  16.169   2.274   8.350
 1768POPC   C3A26741  15.977   2.226   7.925
 1768POPC   C4A26742  15.768   2.082   7.533
 1768POPC   C1B26743  16.331   1.921   8.751
 1768POPC   C2B26744  16.484   1.821   8.375
 1768POPC   C3B26745  16.332   1.857   7.998
 1768POPC   C4B26746  16.176   1.782   7.619
 1769POPC   NC326747   6.449  33.623   9.631
 1769POPC   PO426748   6.919  34.102   9.520
 1769POPC   GL126749   6.744  33.771   9.256
 1769POPC   GL226750   6.423  33.831   9.128
 1769POPC   C1A26751   6.837  33.540   8.900
 1769POPC   D2A26752   6.657  33.581   8.507
 1769POPC   C3A26753   6.863  33.648   8.114
 1769POPC   C4A26754   6.737  33.536   7.695
 1769POPC   C1B26755   6.664  34.025   8.792
 1769POPC   C2B26756   6.682  34.074   8.326
 1769POPC   C3B26757   6.511  33.973   7.909
 1769POPC   C4B26758   6.182  34.166   7.672
 1770POPC   NC326759  15.388  17.402   9.580
 1770POPC   PO426760  14.956  17.908   9.579
 1770POPC   GL126761  15.173  17.716   9.250
 1770POPC   GL226762  15.063  17.333   9.172
 1770POPC   C1A26763  15.335  17.617   8.860
 1770POPC   D2A26764  15.107  17.566   8.486
 1770POPC   C3A26765  15.388  17.450   8.149
 1770POPC   C4A26766  15.326  17.586   7.718
 1770POPC   C1B26767  14.788  17.197   8.785
 1770POPC   C2B26768  14.722  17.260   8.321
 1770POPC   C3B26769  14.934  17.302   7.951
 1770POPC   C4B26770  14.890  17.385   7.526
 1771POPC   NC326771  19.717   9.368   9.267
 1771POPC   PO426772  19.485   9.996   9.525
 1771POPC   GL126773  19.612   9.838   9.119
 1771POPC   GL226774  19.932   9.915   9.018
 1771POPC   C1A26775  19.593   9.717   8.685
 1771POPC   D2A26776  19.603   9.907   8.297
 1771POPC   C3A26777  19.630   9.688   7.915
 1771POPC   C4A26778  19.423   9.858   7.570
 1771POPC   C1B26779  20.110   9.692   8.683
 1771POPC   C2B26780  20.048   9.668   8.248
 1771POPC   C3B26781  20.177   9.688   7.856
 1771POPC   C4B26782  20.050   9.876   7.480
 1772POPC   NC326783   7.136  20.407   9.430
 1772POPC   PO426784   7.659  20.907   9.474
 1772POPC   GL126785   7.423  20.723   9.162
 1772POPC   GL226786   7.426  21.038   8.966
 1772POPC   C1A26787   7.448  20.573   8.777
 1772POPC   D2A26788   7.540  20.901   8.475
 1772POPC   C3A26789   7.457  20.685   8.138
 1772POPC   C4A26790   7.533  20.334   7.876
 1772POPC   C1B26791   7.025  20.825   8.818
 1772POPC   C2B26792   6.936  20.497   8.481
 1772POPC   C3B26793   6.984  20.472   8.023
 1772POPC   C4B26794   7.121  20.824   7.780
 1773POPC   NC326795  37.849  14.962   9.519
 1773POPC   PO426796  37.223  15.088   9.590
 1773POPC   GL126797  37.483  15.057   9.172
 1773POPC   GL226798  37.847  15.177   9.076
 1773POPC   C1A26799  37.465  15.222   8.746
 1773POPC   D2A26800  37.613  15.025   8.406
 1773POPC   C3A26801  37.663  15.271   8.045
 1773POPC   C4A26802  37.572  15.076   7.672
 1773POPC   C1B26803  37.950  15.464   8.751
 1773POPC   C2B26804  38.002  15.598   8.336
 1773POPC   C3B26805  38.140  15.483   7.936
 1773POPC   C4B26806  37.876  15.470   7.598
 1774POPC   NC326807   5.155  23.963   9.532
 1774POPC   PO426808   5.090  23.289   9.668
 1774POPC   GL126809   5.011  23.535   9.269
 1774POPC   GL226810   5.304  23.649   9.130
 1774POPC   C1A26811   4.883  23.467   8.817
 1774POPC   D2A26812   4.969  23.331   8.376
 1774POPC   C3A26813   4.874  23.644   8.052
 1774POPC   C4A26814   4.876  23.718   7.621
 1774POPC   C1B26815   5.442  23.585   8.692
 1774POPC   C2B26816   5.346  23.708   8.252
 1774POPC   C3B26817   5.374  23.651   7.797
 1774POPC   C4B26818   5.242  23.368   7.461
 1775POPC   NC326819   9.489  20.331   9.542
 1775POPC   PO426820   9.335  21.121   9.584
 1775POPC   GL126821   9.575  20.861   9.277
 1775POPC   GL226822   9.567  20.521   9.090
 1775POPC   C1A26823   9.634  20.961   8.848
 1775POPC   D2A26824   9.683  20.886   8.401
 1775POPC   C3A26825   9.561  20.718   7.991
 1775POPC   C4A26826   9.904  20.866   7.732
 1775POPC   C1B26827   9.831  20.507   8.731
 1775POPC   C2B26828   9.786  20.375   8.298
 1775POPC   C3B26829   9.984  20.388   7.895
 1775POPC   C4B26830   9.969  20.384   7.439
 1776POPC   NC326831  13.450   9.336   9.438
 1776POPC   PO426832  13.883   8.867   9.647
 1776POPC   GL126833  13.754   8.966   9.226
 1776POPC   GL226834  13.424   9.021   9.030
 1776POPC   C1A26835  13.813   8.773   8.822
 1776POPC   D2A26836  13.610   8.788   8.424
 1776POPC   C3A26837  13.688   9.080   8.120
 1776POPC   C4A26838  13.516   8.974   7.732
 1776POPC   C1B26839  13.609   9.254   8.668
 1776POPC   C2B26840  13.385   9.442   8.296
 1776POPC   C3B26841  13.388   9.443   7.843
 1776POPC   C4B26842  13.635   9.383   7.440
 1777POPC   NC326843  24.701  17.532   9.291
 1777POPC   PO426844  25.360  17.614   9.515
 1777POPC   GL126845  25.186  17.778   9.161
 1777POPC   GL226846  25.165  17.425   9.079
 1777POPC   C1A26847  25.308  17.846   8.730
 1777POPC   D2A26848  25.271  17.785   8.303
 1777POPC   C3A26849  25.077  17.861   7.931
 1777POPC   C4A26850  25.354  17.813   7.568
 1777POPC   C1B26851  25.035  17.395   8.679
 1777POPC   C2B26852  24.982  17.165   8.329
 1777POPC   C3B26853  25.108  17.349   7.958
 1777POPC   C4B26854  25.125  17.357   7.534
 1778POPC   NC326855  11.343  38.064   9.590
 1778POPC   PO426856  11.071  38.679   9.587
 1778POPC   GL126857  11.062  38.384   9.239
 1778POPC   GL226858  11.418  38.449   9.105
 1778POPC   C1A26859  10.971  38.453   8.793
 1778POPC   D2A26860  11.321  38.437   8.486
 1778POPC   C3A26861  11.195  38.553   8.087
 1778POPC   C4A26862  11.031  38.572   7.710
 1778POPC   C1B26863  11.733  38.273   8.779
 1778POPC   C2B26864  11.715  38.079   8.369
 1778POPC   C3B26865  11.713  38.411   8.056
 1778POPC   C4B26866  11.543  38.509   7.662
 1779POPC   NC326867  41.974  34.542   9.776
 1779POPC   PO426868  41.362  34.784   9.662
 1779POPC   GL126869  41.396  34.568   9.279
 1779POPC   GL226870  41.495  34.893   9.144
 1779POPC   C1A26871  41.403  34.481   8.831
 1779POPC   D2A26872  41.507  34.635   8.438
 1779POPC   C3A26873  41.450  34.400   8.074
 1779POPC   C4A26874  41.480  34.600   7.712
 1779POPC   C1B26875  41.788  34.881   8.804
 1779POPC   C2B26876  42.016  34.696   8.500
 1779POPC   C3B26877  41.909  34.641   8.095
 1779POPC   C4B26878  41.935  34.868   7.742
 1780POPC   NC326879   6.565  27.087   9.622
 1780POPC   PO426880   6.860  26.527   9.459
 1780POPC   GL126881   6.696  26.635   9.118
 1780POPC   GL226882   6.760  26.978   9.094
 1780POPC   C1A26883   6.818  26.666   8.688
 1780POPC   D2A26884   6.762  26.965   8.377
 1780POPC   C3A26885   6.752  26.657   8.079
 1780POPC   C4A26886   6.701  26.679   7.671
 1780POPC   C1B26887   6.367  26.869   8.817
 1780POPC   C2B26888   6.240  27.008   8.387
 1780POPC   C3B26889   6.348  26.955   7.970
 1780POPC   C4B26890   6.637  27.208   7.763
 1781POPC   NC326891   1.590  37.674   9.498
 1781POPC   PO426892   1.046  37.404   9.689
 1781POPC   GL126893   1.196  37.738   9.223
 1781POPC   GL226894   1.038  38.098   9.188
 1781POPC   C1A26895   1.341  37.580   8.783
 1781POPC   D2A26896   1.533  37.775   8.392
 1781POPC   C3A26897   1.514  37.667   7.941
 1781POPC   C4A26898   1.157  37.458   7.751
 1781POPC   C1B26899   1.332  38.078   8.807
 1781POPC   C2B26900   1.186  38.172   8.372
 1781POPC   C3B26901   1.100  37.976   7.971
 1781POPC   C4B26902   1.028  37.887   7.544
 1782POPC   NC326903  19.566  18.669   9.555
 1782POPC   PO426904  20.108  19.202   9.552
 1782POPC   GL126905  19.821  19.123   9.247
 1782POPC   GL226906  19.870  18.800   9.177
 1782POPC   C1A26907  19.716  19.120   8.816
 1782POPC   D2A26908  19.768  18.844   8.462
 1782POPC   C3A26909  19.895  19.103   8.107
 1782POPC   C4A26910  19.767  19.005   7.683
 1782POPC   C1B26911  20.139  18.812   8.831
 1782POPC   C2B26912  20.267  18.831   8.403
 1782POPC   C3B26913  20.191  18.733   7.917
 1782POPC   C4B26914  20.138  18.759   7.437
 1783POPC   NC326915   5.434   1.597   9.610
 1783POPC   PO426916   5.935   1.317   9.786
 1783POPC   GL126917   5.912   1.615   9.411
 1783POPC   GL226918   5.826   1.349   9.205
 1783POPC   C1A26919   5.961   1.738   8.926
 1783POPC   D2A26920   5.911   1.531   8.538
 1783POPC   C3A26921   5.951   1.613   8.103
 1783POPC   C4A26922   5.810   1.293   7.760
 1783POPC   C1B26923   5.793   1.116   8.795
 1783POPC   C2B26924   5.880   1.073   8.325
 1783POPC   C3B26925   5.935   0.824   7.935
 1783POPC   C4B26926   5.730   0.806   7.526
 1784POPC   NC326927  42.304   0.456   9.538
 1784POPC   PO426928  41.941   1.017   9.405
 1784POPC   GL126929  42.119   0.730   9.126
 1784POPC   GL226930  42.487   0.599   9.087
 1784POPC   C1A26931  42.069   0.649   8.701
 1784POPC   D2A26932  42.067   0.286   8.436
 1784POPC   C3A26933  42.074   0.494   8.068
 1784POPC   C4A26934  41.944   0.627   7.681
 1784POPC   C1B26935  42.645   0.209   8.912
 1784POPC   C2B26936  42.530   0.054   8.523
 1784POPC   C3B26937  42.594   0.213   8.097
 1784POPC   C4B26938  42.374   0.280   7.713
 1785POPC   NC326939   1.684  14.626   9.528
 1785POPC   PO426940   1.708  15.234   9.591
 1785POPC   GL126941   1.927  15.235   9.187
 1785POPC   GL226942   2.018  14.883   9.153
 1785POPC   C1A26943   1.987  15.346   8.744
 1785POPC   D2A26944   2.306  15.402   8.417
 1785POPC   C3A26945   2.126  15.308   8.073
 1785POPC   C4A26946   2.083  15.275   7.656
 1785POPC   C1B26947   1.720  14.917   8.819
 1785POPC   C2B26948   1.704  15.102   8.390
 1785POPC   C3B26949   1.791  14.947   7.986
 1785POPC   C4B26950   1.685  15.000   7.535
 1786POPC   NC326951   4.560   9.881   9.534
 1786POPC   PO426952   4.083   9.350   9.526
 1786POPC   GL126953   4.200   9.653   9.194
 1786POPC   GL226954   4.015   9.964   9.118
 1786POPC   C1A26955   4.227   9.633   8.738
 1786POPC   D2A26956   4.506   9.517   8.389
 1786POPC   C3A26957   4.331   9.684   8.044
 1786POPC   C4A26958   4.208   9.635   7.634
 1786POPC   C1B26959   4.404  10.079   8.895
 1786POPC   C2B26960   4.513  10.027   8.471
 1786POPC   C3B26961   4.394  10.183   8.066
 1786POPC   C4B26962   4.447  10.081   7.627
 1787POPC   NC326963  12.519  21.248   9.683
 1787POPC   PO426964  13.207  21.109   9.481
 1787POPC   GL126965  12.969  21.371   9.207
 1787POPC   GL226966  12.668  21.585   9.304
 1787POPC   C1A26967  13.010  21.297   8.771
 1787POPC   D2A26968  12.954  21.085   8.380
 1787POPC   C3A26969  12.934  21.370   8.043
 1787POPC   C4A26970  12.621  21.233   7.778
 1787POPC   C1B26971  12.543  21.489   8.889
 1787POPC   C2B26972  12.689  21.609   8.485
 1787POPC   C3B26973  12.496  21.647   8.083
 1787POPC   C4B26974  12.713  21.740   7.717
 1788POPC   NC326975  27.232  13.440   9.625
 1788POPC   PO426976  27.845  13.621   9.832
 1788POPC   GL126977  27.601  13.704   9.390
 1788POPC   GL226978  27.466  13.397   9.178
 1788POPC   C1A26979  27.453  13.851   8.965
 1788POPC   D2A26980  27.451  13.702   8.543
 1788POPC   C3A26981  27.482  13.891   8.121
 1788POPC   C4A26982  27.239  13.956   7.752
 1788POPC   C1B26983  27.240  13.291   8.749
 1788POPC   C2B26984  27.333  13.270   8.291
 1788POPC   C3B26985  27.275  13.423   7.869
 1788POPC   C4B26986  27.461  13.214   7.513
 1789POPC   NC326987  36.061  33.489   9.438
 1789POPC   PO426988  36.260  32.831   9.430
 1789POPC   GL126989  36.267  33.069   9.058
 1789POPC   GL226990  36.067  33.364   8.958
 1789POPC   C1A26991  36.319  32.857   8.696
 1789POPC   D2A26992  36.062  32.868   8.363
 1789POPC   C3A26993  36.229  32.934   7.972
 1789POPC   C4A26994  36.052  32.825   7.622
 1789POPC   C1B26995  36.266  33.358   8.598
 1789POPC   C2B26996  36.176  33.387   8.193
 1789POPC   C3B26997  36.430  33.400   7.833
 1789POPC   C4B26998  36.447  33.211   7.468
 1790POPC   NC326999   0.183   2.369   9.433
 1790POPC   PO427000   0.818   2.169   9.611
 1790POPC   GL127001   0.640   2.278   9.192
 1790POPC   GL227002   0.312   2.139   9.006
 1790POPC   C1A27003   0.684   2.368   8.763
 1790POPC   D2A27004   0.362   2.293   8.405
 1790POPC   C3A27005   0.405   2.226   7.948
 1790POPC   C4A27006   0.553   1.929   7.598
 1790POPC   C1B27007  44.942   2.083   8.710
 1790POPC   C2B27008  44.874   1.873   8.281
 1790POPC   C3B27009   0.178   1.777   7.945
 1790POPC   C4B27010   0.160   1.575   7.527
 1791POPC   NC327011  23.431  26.547   9.135
 1791POPC   PO427012  22.843  26.548   9.450
 1791POPC   GL127013  22.723  26.748   9.055
 1791POPC   GL227014  22.416  26.972   9.089
 1791POPC   C1A27015  22.928  26.763   8.653
 1791POPC   D2A27016  23.188  27.077   8.430
 1791POPC   C3A27017  23.071  26.988   8.008
 1791POPC   C4A27018  23.044  26.916   7.545
 1791POPC   C1B27019  22.396  26.756   8.659
 1791POPC   C2B27020  22.603  26.725   8.242
 1791POPC   C3B27021  22.619  26.829   7.820
 1791POPC   C4B27022  22.508  26.663   7.400
 1792POPC   NC327023  37.851   0.776   9.450
 1792POPC   PO427024  37.722   0.083   9.487
 1792POPC   GL127025  37.840   0.357   9.140
 1792POPC   GL227026  37.530   0.457   8.990
 1792POPC   C1A27027  37.984   0.475   8.704
 1792POPC   D2A27028  37.789   0.808   8.441
 1792POPC   C3A27029  37.672   0.643   8.061
 1792POPC   C4A27030  37.867   0.401   7.704
 1792POPC   C1B27031  37.277   0.734   8.730
 1792POPC   C2B27032  37.068   0.665   8.333
 1792POPC   C3B27033  37.199   0.847   7.942
 1792POPC   C4B27034  37.375   0.533   7.653
 1793POPC   NC327035  31.236  44.258   9.293
 1793POPC   PO427036  31.768  43.879   9.582
 1793POPC   GL127037  31.634  43.949   9.147
 1793POPC   GL227038  31.463  43.658   8.998
 1793POPC   C1A27039  31.545  44.066   8.695
 1793POPC   D2A27040  31.506  43.838   8.288
 1793POPC   C3A27041  31.419  44.042   7.905
 1793POPC   C4A27042  31.506  44.160   7.509
 1793POPC   C1B27043  31.140  43.697   8.660
 1793POPC   C2B27044  31.036  43.644   8.253
 1793POPC   C3B27045  31.159  43.623   7.853
 1793POPC   C4B27046  31.253  43.707   7.435
 1794POPC   NC327047  36.419  28.216   9.394
 1794POPC   PO427048  35.828  28.535   9.572
 1794POPC   GL127049  36.070  28.525   9.183
 1794POPC   GL227050  36.313  28.758   9.105
 1794POPC   C1A27051  36.132  28.310   8.776
 1794POPC   D2A27052  36.299  28.011   8.462
 1794POPC   C3A27053  36.363  28.144   8.023
 1794POPC   C4A27054  36.075  28.325   7.779
 1794POPC   C1B27055  36.404  28.717   8.674
 1794POPC   C2B27056  36.254  28.579   8.266
 1794POPC   C3B27057  36.319  28.770   7.856
 1794POPC   C4B27058  36.367  29.019   7.447
 1795POPC   NC327059  13.407  11.694   9.472
 1795POPC   PO427060  13.821  12.305   9.591
 1795POPC   GL127061  13.738  12.071   9.242
 1795POPC   GL227062  13.444  12.248   9.179
 1795POPC   C1A27063  13.958  11.985   8.856
 1795POPC   D2A27064  14.098  12.089   8.442
 1795POPC   C3A27065  13.803  12.242   8.081
 1795POPC   C4A27066  13.802  12.052   7.629
 1795POPC   C1B27067  13.425  12.003   8.818
 1795POPC   C2B27068  13.396  12.162   8.420
 1795POPC   C3B27069  13.266  11.973   8.066
 1795POPC   C4B27070  13.286  12.055   7.657
 1796POPC   NC327071  18.926  27.546   9.606
 1796POPC   PO427072  19.531  27.739   9.536
 1796POPC   GL127073  19.439  27.435   9.211
 1796POPC   GL227074  19.092  27.297   9.218
 1796POPC   C1A27075  19.452  27.599   8.793
 1796POPC   D2A27076  19.171  27.708   8.445
 1796POPC   C3A27077  19.378  27.637   8.071
 1796POPC   C4A27078  19.164  27.676   7.696
 1796POPC   C1B27079  18.919  27.452   8.843
 1796POPC   C2B27080  18.949  27.242   8.458
 1796POPC   C3B27081  18.912  27.392   8.064
 1796POPC   C4B27082  18.968  27.178   7.720
 1797POPC   NC327083  31.783   3.174   9.459
 1797POPC   PO427084  31.317   3.642   9.425
 1797POPC   GL127085  31.491   3.772   9.078
 1797POPC   GL227086  31.767   3.587   9.086
 1797POPC   C1A27087  31.523   3.718   8.644
 1797POPC   D2A27088  31.733   3.585   8.299
 1797POPC   C3A27089  31.414   3.633   8.006
 1797POPC   C4A27090  31.160   3.709   7.663
 1797POPC   C1B27091  31.865   3.317   8.755
 1797POPC   C2B27092  31.866   3.061   8.388
 1797POPC   C3B27093  31.809   3.199   7.940
 1797POPC   C4B27094  31.848   3.614   7.775
 1798POPC   NC327095  19.537  40.884   9.333
 1798POPC   PO427096  20.180  41.027   9.457
 1798POPC   GL127097  20.030  40.872   9.092
 1798POPC   GL227098  20.115  40.560   8.963
 1798POPC   C1A27099  19.950  40.925   8.666
 1798POPC   D2A27100  19.886  40.673   8.302
 1798POPC   C3A27101  19.812  40.930   7.951
 1798POPC   C4A27102  19.754  41.222   7.625
 1798POPC   C1B27103  20.334  40.575   8.572
 1798POPC   C2B27104  20.373  40.627   8.144
 1798POPC   C3B27105  20.111  40.534   7.797
 1798POPC   C4B27106  20.165  40.598   7.340
 1799POPC   NC327107  36.610  27.435   9.400
 1799POPC   PO427108  36.970  28.019   9.522
 1799POPC   GL127109  36.931  27.712   9.112
 1799POPC   GL227110  36.677  27.645   8.864
 1799POPC   C1A27111  37.111  27.553   8.685
 1799POPC   D2A27112  37.060  27.650   8.251
 1799POPC   C3A27113  36.754  27.817   8.006
 1799POPC   C4A27114  36.803  27.815   7.588
 1799POPC   C1B27115  36.642  27.202   8.774
 1799POPC   C2B27116  36.511  27.046   8.374
 1799POPC   C3B27117  36.617  27.262   7.993
 1799POPC   C4B27118  36.595  27.138   7.612
 1800POPC   NC327119  13.646  20.900   9.469
 1800POPC   PO427120  13.345  20.385   9.497
 1800POPC   GL127121  13.574  20.404   9.125
 1800POPC   GL227122  13.237  20.321   8.996
 1800POPC   C1A27123  13.814  20.520   8.758
 1800POPC   D2A27124  13.935  20.773   8.424
 1800POPC   C3A27125  14.029  20.597   8.020
 1800POPC   C4A27126  14.079  20.402   7.581
 1800POPC   C1B27127  13.311  20.642   8.702
 1800POPC   C2B27128  13.485  20.548   8.324
 1800POPC   C3B27129  13.421  20.595   7.923
 1800POPC   C4B27130  13.697  20.734   7.653
 1801POPC   NC327131  33.964  17.366   9.623
 1801POPC   PO427132  34.104  17.913   9.457
 1801POPC   GL127133  34.018  17.613   9.162
 1801POPC   GL227134  33.687  17.563   9.153
 1801POPC   C1A27135  34.026  17.489   8.740
 1801POPC   D2A27136  33.903  17.729   8.387
 1801POPC   C3A27137  34.028  17.586   7.987
 1801POPC   C4A27138  34.094  17.543   7.536
 1801POPC   C1B27139  33.534  17.714   8.785
 1801POPC   C2B27140  33.406  17.619   8.374
 1801POPC   C3B27141  33.541  17.786   7.988
 1801POPC   C4B27142  33.622  17.812   7.556
 1802POPC   NC327143   4.438  31.092   9.484
 1802POPC   PO427144   4.101  30.771   9.963
 1802POPC   GL127145   4.155  30.666   9.410
 1802POPC   GL227146   4.489  30.674   9.187
 1802POPC   C1A27147   4.125  30.653   8.887
 1802POPC   D2A27148   4.359  30.797   8.494
 1802POPC   C3A27149   4.204  30.784   8.060
 1802POPC   C4A27150   4.223  30.407   7.776
 1802POPC   C1B27151   4.691  30.984   8.878
 1802POPC   C2B27152   4.875  30.935   8.493
 1802POPC   C3B27153   4.775  30.929   8.075
 1802POPC   C4B27154   4.593  30.756   7.723
 1803POPC   NC327155  28.958  17.948   9.555
 1803POPC   PO427156  29.447  18.331   9.353
 1803POPC   GL127157  29.056  18.278   9.167
 1803POPC   GL227158  28.965  18.625   9.227
 1803POPC   C1A27159  28.897  18.134   8.743
 1803POPC   D2A27160  29.076  18.210   8.336
 1803POPC   C3A27161  28.923  18.141   7.927
 1803POPC   C4A27162  29.174  18.155   7.551
 1803POPC   C1B27163  29.192  18.585   8.791
 1803POPC   C2B27164  29.382  18.606   8.393
 1803POPC   C3B27165  29.148  18.615   8.015
 1803POPC   C4B27166  29.296  18.652   7.621
 1804POPC   NC327167  42.393  37.980   9.438
 1804POPC   PO427168  41.981  37.456   9.573
 1804POPC   GL127169  42.118  37.665   9.157
 1804POPC   GL227170  42.439  37.715   8.995
 1804POPC   C1A27171  42.025  37.730   8.710
 1804POPC   D2A27172  42.026  37.476   8.331
 1804POPC   C3A27173  42.218  37.686   7.976
 1804POPC   C4A27174  42.630  37.609   7.790
 1804POPC   C1B27175  42.507  37.875   8.544
 1804POPC   C2B27176  42.629  38.040   8.101
 1804POPC   C3B27177  42.869  38.055   7.687
 1804POPC   C4B27178  42.725  37.950   7.232
 1805POPC   NC327179  37.511  40.415   9.301
 1805POPC   PO427180  38.154  40.091   9.444
 1805POPC   GL127181  37.876  40.090   9.164
 1805POPC   GL227182  37.952  40.449   9.091
 1805POPC   C1A27183  37.644  39.848   8.846
 1805POPC   D2A27184  37.532  39.984   8.434
 1805POPC   C3A27185  37.646  40.058   7.992
 1805POPC   C4A27186  37.344  40.080   7.644
 1805POPC   C1B27187  37.860  40.299   8.693
 1805POPC   C2B27188  38.031  40.446   8.321
 1805POPC   C3B27189  37.867  40.578   7.944
 1805POPC   C4B27190  37.886  40.393   7.552
 1806POPC   NC327191  24.315  21.734   9.521
 1806POPC   PO427192  24.508  21.057   9.510
 1806POPC   GL127193  24.523  21.284   9.123
 1806POPC   GL227194  24.219  21.465   9.107
 1806POPC   C1A27195  24.718  21.213   8.695
 1806POPC   D2A27196  24.841  21.237   8.234
 1806POPC   C3A27197  24.547  21.221   7.851
 1806POPC   C4A27198  24.597  21.294   7.367
 1806POPC   C1B27199  24.463  21.678   8.807
 1806POPC   C2B27200  24.530  21.614   8.388
 1806POPC   C3B27201  24.389  21.695   7.997
 1806POPC   C4B27202  24.276  21.652   7.588
 1807POPC   NC327203   7.847  35.393   9.716
 1807POPC   PO427204   8.441  35.580   9.668
 1807POPC   GL127205   8.257  35.357   9.302
 1807POPC   GL227206   7.902  35.369   9.217
 1807POPC   C1A27207   8.184  35.464   8.832
 1807POPC   D2A27208   7.929  35.541   8.463
 1807POPC   C3A27209   8.216  35.448   8.111
 1807POPC   C4A27210   8.277  35.146   7.752
 1807POPC   C1B27211   7.704  35.222   8.821
 1807POPC   C2B27212   7.605  35.157   8.378
 1807POPC   C3B27213   7.836  35.118   8.033
 1807POPC   C4B27214   7.812  34.904   7.658
 1808POPC   NC327215   3.903  33.920   9.506
 1808POPC   PO427216   3.399  33.544   9.547
 1808POPC   GL127217   3.573  33.646   9.154
 1808POPC   GL227218   3.940  33.636   9.103
 1808POPC   C1A27219   3.422  33.519   8.742
 1808POPC   D2A27220   3.260  33.570   8.330
 1808POPC   C3A27221   3.301  33.647   7.907
 1808POPC   C4A27222   3.121  33.316   7.665
 1808POPC   C1B27223   3.766  33.903   8.764
 1808POPC   C2B27224   3.706  33.809   8.342
 1808POPC   C3B27225   3.800  34.069   7.995
 1808POPC   C4B27226   3.758  34.073   7.553
 1809POPC   NC327227  24.250  17.445   9.757
 1809POPC   PO427228  24.601  17.953   9.488
 1809POPC   GL127229  24.470  17.914   9.060
 1809POPC   GL227230  24.237  17.609   9.093
 1809POPC   C1A27231  24.774  17.832   8.721
 1809POPC   D2A27232  24.785  17.662   8.322
 1809POPC   C3A27233  24.433  17.687   8.086
 1809POPC   C4A27234  24.468  17.553   7.721
 1809POPC   C1B27235  24.412  17.467   8.697
 1809POPC   C2B27236  24.460  17.257   8.319
 1809POPC   C3B27237  24.613  17.121   7.950
 1809POPC   C4B27238  24.247  17.062   7.700
 1810POPC   NC327239  38.132  18.533   9.656
 1810POPC   PO427240  38.739  18.322   9.472
 1810POPC   GL127241  38.462  18.344   9.099
 1810POPC   GL227242  38.150  18.233   9.256
 1810POPC   C1A27243  38.376  18.301   8.628
 1810POPC   D2A27244  38.601  18.116   8.307
 1810POPC   C3A27245  38.710  18.430   8.034
 1810POPC   C4A27246  38.867  18.321   7.631
 1810POPC   C1B27247  38.022  18.046   8.883
 1810POPC   C2B27248  37.919  18.203   8.446
 1810POPC   C3B27249  38.174  18.315   8.070
 1810POPC   C4B27250  38.449  18.038   7.808
 1811POPC   NC327251   5.281   2.357   9.534
 1811POPC   PO427252   4.986   1.682   9.582
 1811POPC   GL127253   5.184   1.915   9.244
 1811POPC   GL227254   5.482   1.757   9.124
 1811POPC   C1A27255   5.087   2.018   8.807
 1811POPC   D2A27256   5.314   2.179   8.423
 1811POPC   C3A27257   5.191   2.070   8.009
 1811POPC   C4A27258   5.063   1.962   7.603
 1811POPC   C1B27259   5.486   1.742   8.695
 1811POPC   C2B27260   5.457   1.693   8.249
 1811POPC   C3B27261   5.492   1.688   7.781
 1811POPC   C4B27262   5.482   1.788   7.331
 1812POPC   NC327263  16.577  17.083   9.462
 1812POPC   PO427264  16.833  16.349   9.610
 1812POPC   GL127265  16.741  16.612   9.266
 1812POPC   GL227266  17.010  16.858   9.268
 1812POPC   C1A27267  16.525  16.622   8.862
 1812POPC   D2A27268  16.527  17.039   8.681
 1812POPC   C3A27269  16.603  17.046   8.253
 1812POPC   C4A27270  16.448  16.804   7.939
 1812POPC   C1B27271  17.021  16.727   8.830
 1812POPC   C2B27272  17.064  16.870   8.404
 1812POPC   C3B27273  17.039  17.076   7.990
 1812POPC   C4B27274  16.912  16.851   7.629
 1813POPC   NC327275  23.053  22.613  10.091
 1813POPC   PO427276  22.984  22.890   9.501
 1813POPC   GL127277  23.027  22.955   9.092
 1813POPC   GL227278  22.747  23.137   9.051
 1813POPC   C1A27279  22.992  22.981   8.640
 1813POPC   D2A27280  22.898  22.993   8.226
 1813POPC   C3A27281  23.070  22.716   7.956
 1813POPC   C4A27282  23.152  23.048   7.699
 1813POPC   C1B27283  22.416  23.114   8.770
 1813POPC   C2B27284  22.422  22.891   8.413
 1813POPC   C3B27285  22.423  23.043   8.022
 1813POPC   C4B27286  22.650  22.934   7.690
 1814POPC   NC327287  33.935  21.953   9.494
 1814POPC   PO427288  33.960  22.604   9.483
 1814POPC   GL127289  33.769  22.449   9.093
 1814POPC   GL227290  33.742  22.078   9.009
 1814POPC   C1A27291  33.893  22.403   8.655
 1814POPC   D2A27292  33.805  22.046   8.405
 1814POPC   C3A27293  33.974  22.003   7.997
 1814POPC   C4A27294  33.772  22.001   7.579
 1814POPC   C1B27295  33.400  22.248   8.733
 1814POPC   C2B27296  33.254  22.223   8.320
 1814POPC   C3B27297  33.556  22.310   7.998
 1814POPC   C4B27298  33.504  22.490   7.613
 1815POPC   NC327299  24.452  32.752   9.579
 1815POPC   PO427300  24.222  33.436   9.573
 1815POPC   GL127301  24.343  33.239   9.200
 1815POPC   GL227302  24.177  32.952   9.189
 1815POPC   C1A27303  24.463  33.058   8.777
 1815POPC   D2A27304  24.685  33.072   8.387
 1815POPC   C3A27305  24.561  33.246   7.987
 1815POPC   C4A27306  24.677  32.905   7.698
 1815POPC   C1B27307  24.053  32.734   8.804
 1815POPC   C2B27308  24.084  32.770   8.376
 1815POPC   C3B27309  24.239  32.851   7.966
 1815POPC   C4B27310  24.049  33.081   7.627
 1816POPC   NC327311   7.253   1.218   9.475
 1816POPC   PO427312   7.809   0.765   9.384
 1816POPC   GL127313   7.627   1.116   9.106
 1816POPC   GL227314   7.238   1.168   8.981
 1816POPC   C1A27315   7.614   1.216   8.668
 1816POPC   D2A27316   7.342   1.362   8.360
 1816POPC   C3A27317   7.569   1.367   8.034
 1816POPC   C4A27318   7.683   1.264   7.622
 1816POPC   C1B27319   7.300   1.612   8.800
 1816POPC   C2B27320   7.095   1.835   8.427
 1816POPC   C3B27321   7.063   1.668   7.979
 1816POPC   C4B27322   7.192   1.315   7.672
 1817POPC   NC327323  15.687  44.813   9.351
 1817POPC   PO427324  16.308  44.447   9.455
 1817POPC   GL127325  16.021  44.512   9.131
 1817POPC   GL227326  16.038  44.902   9.018
 1817POPC   C1A27327  15.812  44.327   8.790
 1817POPC   D2A27328  15.983  44.289   8.375
 1817POPC   C3A27329  15.795  44.366   7.959
 1817POPC   C4A27330  15.746  44.731   7.676
 1817POPC   C1B27331  15.781  44.817   8.683
 1817POPC   C2B27332  15.688  44.805   8.265
 1817POPC   C3B27333  15.573   0.109   7.944
 1817POPC   C4B27334  15.981   0.171   7.703
 1818POPC   NC327335  23.320  17.703   9.494
 1818POPC   PO427336  23.880  17.370   9.505
 1818POPC   GL127337  23.723  17.597   9.156
 1818POPC   GL227338  23.448  17.775   9.007
 1818POPC   C1A27339  23.821  17.507   8.736
 1818POPC   D2A27340  23.611  17.275   8.405
 1818POPC   C3A27341  23.890  17.208   8.077
 1818POPC   C4A27342  23.984  17.578   7.842
 1818POPC   C1B27343  23.619  17.970   8.626
 1818POPC   C2B27344  23.509  17.893   8.181
 1818POPC   C3B27345  23.378  17.519   7.978
 1818POPC   C4B27346  23.594  17.291   7.656
 1819POPC   NC327347  15.185   0.204   9.548
 1819POPC   PO427348  15.131   0.832   9.380
 1819POPC   GL127349  15.197   0.494   9.100
 1819POPC   GL227350  14.968   0.203   9.089
 1819POPC   C1A27351  15.221   0.551   8.670
 1819POPC   D2A27352  14.988   0.459   8.301
 1819POPC   C3A27353  15.256   0.521   7.954
 1819POPC   C4A27354  15.423   0.652   7.568
 1819POPC   C1B27355  15.282   0.062   8.803
 1819POPC   C2B27356  15.219  44.985   8.360
 1819POPC   C3B27357  15.033   0.042   7.946
 1819POPC   C4B27358  15.090   0.258   7.545
 1820POPC   NC327359  31.796   3.896   9.490
 1820POPC   PO427360  32.372   4.324   9.389
 1820POPC   GL127361  32.102   4.382   9.065
 1820POPC   GL227362  31.887   4.131   9.068
 1820POPC   C1A27363  32.130   4.348   8.627
 1820POPC   D2A27364  32.423   4.510   8.384
 1820POPC   C3A27365  32.458   4.376   7.984
 1820POPC   C4A27366  32.363   4.674   7.680
 1820POPC   C1B27367  31.661   4.207   8.738
 1820POPC   C2B27368  31.717   4.110   8.333
 1820POPC   C3B27369  31.959   4.368   8.101
 1820POPC   C4B27370  31.910   4.448   7.700
 1821POPC   NC327371  17.292   3.695   9.484
 1821POPC   PO427372  17.808   3.267   9.489
 1821POPC   GL127373  17.479   3.333   9.181
 1821POPC   GL227374  17.742   3.472   9.012
 1821POPC   C1A27375  17.305   3.433   8.754
 1821POPC   D2A27376  17.457   3.605   8.338
 1821POPC   C3A27377  17.246   3.718   7.945
 1821POPC   C4A27378  17.292   3.381   7.641
 1821POPC   C1B27379  17.801   3.756   8.696
 1821POPC   C2B27380  17.953   3.703   8.238
 1821POPC   C3B27381  17.747   3.591   7.854
 1821POPC   C4B27382  17.586   3.788   7.480
 1822POPC   NC327383   4.201   7.913   9.378
 1822POPC   PO427384   4.039   8.623   9.542
 1822POPC   GL127385   4.233   8.382   9.144
 1822POPC   GL227386   4.577   8.296   9.108
 1822POPC   C1A27387   4.360   8.358   8.653
 1822POPC   D2A27388   4.312   8.526   8.250
 1822POPC   C3A27389   4.169   8.216   7.969
 1822POPC   C4A27390   4.293   7.980   7.646
 1822POPC   C1B27391   4.765   8.057   8.722
 1822POPC   C2B27392   4.595   8.053   8.274
 1822POPC   C3B27393   4.735   7.888   7.856
 1822POPC   C4B27394   4.735   8.003   7.392
 1823POPC   NC327395  43.524   2.644   9.415
 1823POPC   PO427396  44.054   3.026   9.734
 1823POPC   GL127397  43.946   3.099   9.252
 1823POPC   GL227398  43.867   2.741   9.056
 1823POPC   C1A27399  43.953   3.146   8.786
 1823POPC   D2A27400  44.021   2.715   8.545
 1823POPC   C3A27401  43.970   2.774   8.102
 1823POPC   C4A27402  44.083   2.918   7.682
 1823POPC   C1B27403  43.567   2.516   8.738
 1823POPC   C2B27404  43.436   2.544   8.290
 1823POPC   C3B27405  43.598   2.540   7.850
 1823POPC   C4B27406  43.790   2.573   7.454
 1824POPC   NC327407   6.975  22.795   9.434
 1824POPC   PO427408   7.569  23.018   9.152
 1824POPC   GL127409   7.204  22.987   8.971
 1824POPC   GL227410   7.166  22.649   8.997
 1824POPC   C1A27411   7.222  22.978   8.519
 1824POPC   D2A27412   7.048  23.176   8.164
 1824POPC   C3A27413   7.421  23.250   7.916
 1824POPC   C4A27414   7.762  22.969   7.721
 1824POPC   C1B27415   6.975  22.560   8.655
 1824POPC   C2B27416   6.966  22.299   8.334
 1824POPC   C3B27417   7.124  22.502   7.971
 1824POPC   C4B27418   7.029  22.897   7.720
 1825POPC   NC327419  37.382  26.185   9.824
 1825POPC   PO427420  37.884  25.900   9.454
 1825POPC   GL127421  37.789  26.059   9.097
 1825POPC   GL227422  37.920  25.796   8.900
 1825POPC   C1A27423  37.858  26.319   8.778
 1825POPC   D2A27424  37.850  26.532   8.375
 1825POPC   C3A27425  37.600  26.260   8.103
 1825POPC   C4A27426  37.537  26.056   7.723
 1825POPC   C1B27427  37.577  25.658   8.633
 1825POPC   C2B27428  37.579  25.729   8.189
 1825POPC   C3B27429  37.922  25.802   7.931
 1825POPC   C4B27430  37.929  25.616   7.551
 1826POPC   NC327431  40.317  41.866   9.455
 1826POPC   PO427432  39.966  41.329   9.389
 1826POPC   GL127433  40.065  41.596   9.086
 1826POPC   GL227434  40.398  41.506   9.082
 1826POPC   C1A27435  40.165  41.788   8.697
 1826POPC   D2A27436  40.102  41.758   8.261
 1826POPC   C3A27437  39.806  41.406   8.118
 1826POPC   C4A27438  39.624  41.263   7.708
 1826POPC   C1B27439  40.593  41.195   8.811
 1826POPC   C2B27440  40.627  41.059   8.394
 1826POPC   C3B27441  40.310  41.239   8.141
 1826POPC   C4B27442  40.195  41.373   7.758
 1827POPC   NC327443  33.410  42.315   9.359
 1827POPC   PO427444  34.036  42.514   9.551
 1827POPC   GL127445  33.890  42.295   9.137
 1827POPC   GL227446  33.573  42.235   8.909
 1827POPC   C1A27447  34.012  42.260   8.686
 1827POPC   D2A27448  34.226  42.532   8.400
 1827POPC   C3A27449  34.113  42.577   7.959
 1827POPC   C4A27450  34.014  42.244   7.623
 1827POPC   C1B27451  33.587  42.467   8.522
 1827POPC   C2B27452  33.787  42.277   8.192
 1827POPC   C3B27453  33.572  42.130   7.844
 1827POPC   C4B27454  33.455  42.249   7.464
 1828POPC   NC327455  36.585   0.926   9.467
 1828POPC   PO427456  36.944   1.496   9.542
 1828POPC   GL127457  36.755   1.343   9.209
 1828POPC   GL227458  37.031   1.091   9.133
 1828POPC   C1A27459  36.598   1.174   8.833
 1828POPC   D2A27460  36.790   1.079   8.453
 1828POPC   C3A27461  36.683   1.300   8.093
 1828POPC   C4A27462  36.798   1.186   7.683
 1828POPC   C1B27463  37.078   1.418   8.817
 1828POPC   C2B27464  37.010   1.557   8.417
 1828POPC   C3B27465  37.146   1.449   8.002
 1828POPC   C4B27466  37.257   1.416   7.592
 1829POPC   NC327467   9.413   8.459   9.291
 1829POPC   PO427468   9.662   7.870   9.609
 1829POPC   GL127469   9.837   8.197   9.224
 1829POPC   GL227470   9.628   8.038   9.080
 1829POPC   C1A27471   9.737   8.374   8.735
 1829POPC   D2A27472   9.932   8.419   8.340
 1829POPC   C3A27473   9.899   8.210   7.948
 1829POPC   C4A27474   9.964   8.375   7.549
 1829POPC   C1B27475   9.595   7.873   8.685
 1829POPC   C2B27476   9.483   7.995   8.281
 1829POPC   C3B27477   9.600   7.795   7.912
 1829POPC   C4B27478   9.868   7.826   7.596
 1830POPC   NC327479  41.555  28.744   9.438
 1830POPC   PO427480  41.408  29.378   9.461
 1830POPC   GL127481  41.377  29.367   9.043
 1830POPC   GL227482  41.683  29.518   9.019
 1830POPC   C1A27483  41.427  29.145   8.654
 1830POPC   D2A27484  41.254  29.107   8.241
 1830POPC   C3A27485  41.547  28.990   7.944
 1830POPC   C4A27486  41.578  28.628   7.670
 1830POPC   C1B27487  41.854  29.444   8.679
 1830POPC   C2B27488  41.624  29.483   8.313
 1830POPC   C3B27489  41.443  29.501   7.930
 1830POPC   C4B27490  41.672  29.440   7.550
 1831POPC   NC327491  25.642  32.898   9.441
 1831POPC   PO427492  24.919  32.802   9.516
 1831POPC   GL127493  25.113  32.977   9.170
 1831POPC   GL227494  25.393  32.780   9.004
 1831POPC   C1A27495  24.969  33.198   8.805
 1831POPC   D2A27496  25.211  33.108   8.436
 1831POPC   C3A27497  25.069  33.058   8.040
 1831POPC   C4A27498  25.187  32.883   7.678
 1831POPC   C1B27499  25.481  33.217   8.878
 1831POPC   C2B27500  25.652  33.351   8.495
 1831POPC   C3B27501  25.644  33.168   8.086
 1831POPC   C4B27502  25.558  33.215   7.661
 1832POPC   NC327503  38.819  37.142   9.434
 1832POPC   PO427504  38.246  36.689   9.541
 1832POPC   GL127505  38.365  36.996   9.232
 1832POPC   GL227506  38.250  36.754   8.982
 1832POPC   C1A27507  38.466  37.186   8.821
 1832POPC   D2A27508  38.436  36.908   8.453
 1832POPC   C3A27509  38.488  37.077   8.016
 1832POPC   C4A27510  38.194  37.001   7.682
 1832POPC   C1B27511  38.649  36.512   8.895
 1832POPC   C2B27512  38.742  36.370   8.464
 1832POPC   C3B27513  38.552  36.558   8.090
 1832POPC   C4B27514  38.599  36.696   7.659
 1833POPC   NC327515  16.435   0.734   9.253
 1833POPC   PO427516  16.564   0.228   9.645
 1833POPC   GL127517  16.711   0.217   9.212
 1833POPC   GL227518  16.395   0.244   9.113
 1833POPC   C1A27519  16.820   0.418   8.809
 1833POPC   D2A27520  16.956   0.600   8.434
 1833POPC   C3A27521  16.998   0.371   8.091
 1833POPC   C4A27522  16.788   0.422   7.730
 1833POPC   C1B27523  16.405   0.117   8.690
 1833POPC   C2B27524  16.500   0.347   8.311
 1833POPC   C3B27525  16.484   0.093   7.962
 1833POPC   C4B27526  16.436   0.091   7.522
 1834POPC   NC327527  19.050   8.678   9.549
 1834POPC   PO427528  19.394   9.257   9.566
 1834POPC   GL127529  19.102   9.076   9.232
 1834POPC   GL227530  19.253   8.795   9.089
 1834POPC   C1A27531  18.849   9.021   8.833
 1834POPC   D2A27532  18.776   8.810   8.421
 1834POPC   C3A27533  18.897   9.054   8.047
 1834POPC   C4A27534  18.695   9.311   7.761
 1834POPC   C1B27535  19.058   8.536   8.782
 1834POPC   C2B27536  19.035   8.364   8.400
 1834POPC   C3B27537  19.098   8.587   8.022
 1834POPC   C4B27538  19.150   8.776   7.595
 1835POPC   NC327539   2.194  22.256   9.586
 1835POPC   PO427540   2.289  21.681   9.412
 1835POPC   GL127541   2.231  22.031   9.118
 1835POPC   GL227542   1.883  22.089   9.115
 1835POPC   C1A27543   2.163  22.122   8.670
 1835POPC   D2A27544   1.906  22.050   8.287
 1835POPC   C3A27545   2.065  21.971   7.854
 1835POPC   C4A27546   2.204  22.194   7.496
 1835POPC   C1B27547   1.647  22.199   8.723
 1835POPC   C2B27548   1.612  22.466   8.345
 1835POPC   C3B27549   1.738  22.373   7.904
 1835POPC   C4B27550   1.698  22.198   7.479
 1836POPC   NC327551  12.398  13.860   9.532
 1836POPC   PO427552  11.964  13.411   9.546
 1836POPC   GL127553  12.315  13.428   9.212
 1836POPC   GL227554  12.383  13.773   9.037
 1836POPC   C1A27555  12.276  13.366   8.747
 1836POPC   D2A27556  12.476  13.543   8.391
 1836POPC   C3A27557  12.250  13.682   7.997
 1836POPC   C4A27558  11.805  13.607   7.867
 1836POPC   C1B27559  12.184  13.896   8.616
 1836POPC   C2B27560  12.032  14.111   8.215
 1836POPC   C3B27561  11.977  14.115   7.773
 1836POPC   C4B27562  12.144  14.214   7.365
 1837POPC   NC327563   2.359  33.054   9.599
 1837POPC   PO427564   2.977  32.737   9.517
 1837POPC   GL127565   2.770  33.020   9.286
 1837POPC   GL227566   2.486  32.812   9.172
 1837POPC   C1A27567   2.851  33.309   8.944
 1837POPC   D2A27568   2.817  33.451   8.537
 1837POPC   C3A27569   2.879  33.278   8.125
 1837POPC   C4A27570   2.608  33.195   7.791
 1837POPC   C1B27571   2.743  32.818   8.827
 1837POPC   C2B27572   2.674  32.946   8.442
 1837POPC   C3B27573   2.714  32.785   8.048
 1837POPC   C4B27574   2.532  32.615   7.719
 1838POPC   NC327575  38.765  39.440   9.709
 1838POPC   PO427576  38.233  39.185   9.429
 1838POPC   GL127577  38.421  39.203   9.082
 1838POPC   GL227578  38.199  38.932   8.953
 1838POPC   C1A27579  38.279  39.354   8.688
 1838POPC   D2A27580  38.147  39.058   8.371
 1838POPC   C3A27581  38.280  39.301   8.038
 1838POPC   C4A27582  38.427  39.413   7.639
 1838POPC   C1B27583  38.576  38.946   8.664
 1838POPC   C2B27584  38.687  38.896   8.248
 1838POPC   C3B27585  38.528  38.906   7.842
 1838POPC   C4B27586  38.125  38.978   7.671
 1839POPC   NC327587  26.775  36.385   9.817
 1839POPC   PO427588  27.175  35.982   9.516
 1839POPC   GL127589  27.001  36.134   9.119
 1839POPC   GL227590  26.730  35.966   8.961
 1839POPC   C1A27591  27.054  36.332   8.704
 1839POPC   D2A27592  26.824  36.402   8.305
 1839POPC   C3A27593  26.815  36.042   8.014
 1839POPC   C4A27594  26.765  35.819   7.640
 1839POPC   C1B27595  26.540  36.356   8.735
 1839POPC   C2B27596  26.408  36.687   8.462
 1839POPC   C3B27597  26.512  36.703   8.030
 1839POPC   C4B27598  26.410  36.559   7.633
 1840POPC   NC327599  18.103  34.096   9.496
 1840POPC   PO427600  18.560  33.585   9.510
 1840POPC   GL127601  18.186  33.604   9.238
 1840POPC   GL227602  18.209  33.939   9.037
 1840POPC   C1A27603  18.163  33.493   8.820
 1840POPC   D2A27604  18.230  33.793   8.518
 1840POPC   C3A27605  18.277  33.590   8.139
 1840POPC   C4A27606  18.619  33.612   7.826
 1840POPC   C1B27607  18.622  34.126   8.940
 1840POPC   C2B27608  18.785  34.052   8.527
 1840POPC   C3B27609  18.562  34.022   8.156
 1840POPC   C4B27610  18.680  34.149   7.737
 1841POPC   NC327611  24.130  38.993   9.444
 1841POPC   PO427612  24.632  39.386   9.666
 1841POPC   GL127613  24.524  39.245   9.237
 1841POPC   GL227614  24.278  39.491   9.150
 1841POPC   C1A27615  24.606  39.166   8.793
 1841POPC   D2A27616  24.660  38.910   8.404
 1841POPC   C3A27617  24.591  39.193   8.041
 1841POPC   C4A27618  24.863  39.564   7.878
 1841POPC   C1B27619  24.058  39.225   8.827
 1841POPC   C2B27620  24.042  39.020   8.411
 1841POPC   C3B27621  24.052  39.119   7.995
 1841POPC   C4B27622  24.241  39.436   7.760
 1842POPC   NC327623   2.952   8.452   9.312
 1842POPC   PO427624   3.027   7.820   9.466
 1842POPC   GL127625   2.714   7.879   9.168
 1842POPC   GL227626   2.523   8.181   9.174
 1842POPC   C1A27627   2.762   7.938   8.738
 1842POPC   D2A27628   2.997   8.197   8.450
 1842POPC   C3A27629   3.141   7.962   8.109
 1842POPC   C4A27630   2.891   7.857   7.767
 1842POPC   C1B27631   2.573   8.410   8.761
 1842POPC   C2B27632   2.494   8.229   8.362
 1842POPC   C3B27633   2.447   8.228   7.935
 1842POPC   C4B27634   2.520   8.532   7.655
 1843POPC   NC327635  24.704  40.420   9.414
 1843POPC   PO427636  24.073  40.708   9.445
 1843POPC   GL127637  24.174  40.908   9.070
 1843POPC   GL227638  24.529  40.879   9.169
 1843POPC   C1A27639  24.307  40.755   8.702
 1843POPC   D2A27640  24.525  40.683   8.358
 1843POPC   C3A27641  24.311  40.910   8.080
 1843POPC   C4A27642  24.169  40.864   7.674
 1843POPC   C1B27643  24.664  41.078   8.800
 1843POPC   C2B27644  24.733  41.149   8.394
 1843POPC   C3B27645  24.892  40.892   8.083
 1843POPC   C4B27646  24.676  40.858   7.715
 1844POPC   NC327647   9.159  32.882  10.065
 1844POPC   PO427648   9.007  33.297   9.642
 1844POPC   GL127649   8.935  33.065   9.261
 1844POPC   GL227650   8.662  32.855   9.319
 1844POPC   C1A27651   8.905  33.198   8.819
 1844POPC   D2A27652   8.936  32.978   8.434
 1844POPC   C3A27653   9.041  33.111   8.025
 1844POPC   C4A27654   9.275  33.097   7.634
 1844POPC   C1B27655   8.655  32.752   8.854
 1844POPC   C2B27656   8.534  32.668   8.399
 1844POPC   C3B27657   8.693  32.691   7.953
 1844POPC   C4B27658   8.576  32.662   7.521
 1845POPC   NC327659  34.430  22.671   9.377
 1845POPC   PO427660  34.843  22.150   9.538
 1845POPC   GL127661  34.615  22.226   9.147
 1845POPC   GL227662  34.234  22.229   9.170
 1845POPC   C1A27663  34.766  22.276   8.718
 1845POPC   D2A27664  35.035  22.108   8.395
 1845POPC   C3A27665  34.857  22.091   8.017
 1845POPC   C4A27666  34.782  22.147   7.587
 1845POPC   C1B27667  34.246  22.046   8.750
 1845POPC   C2B27668  34.435  22.123   8.338
 1845POPC   C3B27669  34.410  22.320   7.932
 1845POPC   C4B27670  34.300  22.033   7.605
 1846POPC   NC327671  43.279  28.354   9.519
 1846POPC   PO427672  43.691  28.787   9.343
 1846POPC   GL127673  43.552  28.974   8.989
 1846POPC   GL227674  43.793  28.755   8.834
 1846POPC   C1A27675  43.668  29.197   8.609
 1846POPC   D2A27676  43.932  29.231   8.243
 1846POPC   C3A27677  43.688  29.140   7.898
 1846POPC   C4A27678  43.280  29.333   7.825
 1846POPC   C1B27679  44.156  28.999   8.694
 1846POPC   C2B27680  44.387  29.013   8.294
 1846POPC   C3B27681  44.219  28.965   7.871
 1846POPC   C4B27682  43.923  28.811   7.558
 1847POPC   NC327683  38.793  41.086   9.568
 1847POPC   PO427684  38.761  41.723   9.412
 1847POPC   GL127685  38.448  41.517   9.187
 1847POPC   GL227686  38.357  41.178   9.307
 1847POPC   C1A27687  38.292  41.532   8.778
 1847POPC   D2A27688  38.440  41.616   8.379
 1847POPC   C3A27689  38.201  41.781   8.044
 1847POPC   C4A27690  38.362  41.639   7.668
 1847POPC   C1B27691  38.181  41.037   8.925
 1847POPC   C2B27692  38.280  41.115   8.482
 1847POPC   C3B27693  38.226  41.271   8.042
 1847POPC   C4B27694  37.910  41.111   7.788
 1848POPC   NC327695  37.243  28.378   9.682
 1848POPC   PO427696  36.698  28.713   9.418
 1848POPC   GL127697  36.875  28.369   9.152
 1848POPC   GL227698  37.210  28.131   9.084
 1848POPC   C1A27699  36.901  28.453   8.733
 1848POPC   D2A27700  36.685  28.348   8.389
 1848POPC   C3A27701  36.771  28.594   8.036
 1848POPC   C4A27702  36.650  28.442   7.644
 1848POPC   C1B27703  37.220  28.055   8.621
 1848POPC   C2B27704  37.109  28.165   8.175
 1848POPC   C3B27705  37.138  28.313   7.754
 1848POPC   C4B27706  37.260  28.614   7.423
 1849POPC   NC327707  14.073  38.719   9.600
 1849POPC   PO427708  13.736  39.339   9.519
 1849POPC   GL127709  13.641  39.180   9.146
 1849POPC   GL227710  13.808  38.899   9.212
 1849POPC   C1A27711  13.421  39.102   8.767
 1849POPC   D2A27712  13.241  38.951   8.396
 1849POPC   C3A27713  13.436  39.109   8.038
 1849POPC   C4A27714  13.690  39.296   7.717
 1849POPC   C1B27715  13.855  38.828   8.799
 1849POPC   C2B27716  13.841  39.036   8.412
 1849POPC   C3B27717  13.911  38.919   8.002
 1849POPC   C4B27718  13.670  38.704   7.735
 1850POPC   NC327719  17.929  16.521   9.178
 1850POPC   PO427720  18.501  16.736   9.515
 1850POPC   GL127721  18.413  16.718   9.115
 1850POPC   GL227722  18.411  16.388   9.042
 1850POPC   C1A27723  18.297  16.876   8.730
 1850POPC   D2A27724  18.508  16.892   8.345
 1850POPC   C3A27725  18.198  16.912   8.053
 1850POPC   C4A27726  18.144  16.845   7.652
 1850POPC   C1B27727  18.537  16.443   8.622
 1850POPC   C2B27728  18.264  16.436   8.273
 1850POPC   C3B27729  18.107  16.330   7.866
 1850POPC   C4B27730  18.243  16.398   7.434
 1851POPC   NC327731  43.130   6.103   9.540
 1851POPC   PO427732  43.018   5.466   9.505
 1851POPC   GL127733  43.265   5.717   9.140
 1851POPC   GL227734  43.391   6.058   9.105
 1851POPC   C1A27735  43.373   5.801   8.656
 1851POPC   D2A27736  43.408   5.839   8.174
 1851POPC   C3A27737  43.014   5.822   7.974
 1851POPC   C4A27738  42.777   5.531   7.783
 1851POPC   C1B27739  43.575   6.277   8.736
 1851POPC   C2B27740  43.507   6.345   8.248
 1851POPC   C3B27741  43.224   6.281   7.881
 1851POPC   C4B27742  42.927   6.204   7.533
 1852POPC   NC327743   5.380   3.975   9.433
 1852POPC   PO427744   5.002   3.445   9.460
 1852POPC   GL127745   5.088   3.358   9.057
 1852POPC   GL227746   5.440   3.368   9.034
 1852POPC   C1A27747   4.904   3.539   8.674
 1852POPC   D2A27748   4.739   3.729   8.300
 1852POPC   C3A27749   4.786   3.468   7.927
 1852POPC   C4A27750   5.124   3.396   7.682
 1852POPC   C1B27751   5.369   3.747   8.813
 1852POPC   C2B27752   5.269   3.854   8.414
 1852POPC   C3B27753   5.188   3.790   8.011
 1852POPC   C4B27754   5.450   3.797   7.689
 1853POPC   NC327755  42.285  42.856   9.434
 1853POPC   PO427756  42.076  43.499   9.537
 1853POPC   GL127757  42.076  43.238   9.182
 1853POPC   GL227758  42.410  43.297   9.150
 1853POPC   C1A27759  42.139  43.049   8.778
 1853POPC   D2A27760  42.314  43.303   8.439
 1853POPC   C3A27761  42.455  43.186   8.022
 1853POPC   C4A27762  42.209  42.913   7.747
 1853POPC   C1B27763  42.642  43.051   8.832
 1853POPC   C2B27764  42.662  42.882   8.421
 1853POPC   C3B27765  42.626  42.696   8.013
 1853POPC   C4B27766  42.702  42.784   7.605
 1854POPC   NC327767  28.169   6.477   9.327
 1854POPC   PO427768  28.672   6.909   9.562
 1854POPC   GL127769  28.474   6.852   9.177
 1854POPC   GL227770  28.502   6.562   8.948
 1854POPC   C1A27771  28.341   7.035   8.796
 1854POPC   D2A27772  28.080   7.053   8.420
 1854POPC   C3A27773  28.287   7.009   8.019
 1854POPC   C4A27774  28.387   6.919   7.574
 1854POPC   C1B27775  28.131   6.584   8.670
 1854POPC   C2B27776  28.082   6.499   8.228
 1854POPC   C3B27777  28.362   6.481   7.870
 1854POPC   C4B27778  28.170   6.413   7.468
 1855POPC   NC327779  13.318  22.399   9.382
 1855POPC   PO427780  12.655  22.407   9.559
 1855POPC   GL127781  12.886  22.071   9.317
 1855POPC   GL227782  12.902  22.275   9.057
 1855POPC   C1A27783  12.994  21.805   8.926
 1855POPC   D2A27784  12.970  22.053   8.560
 1855POPC   C3A27785  12.963  21.917   8.156
 1855POPC   C4A27786  13.029  22.174   7.793
 1855POPC   C1B27787  12.682  22.460   8.698
 1855POPC   C2B27788  12.839  22.492   8.266
 1855POPC   C3B27789  12.739  22.588   7.841
 1855POPC   C4B27790  12.393  22.534   7.570
 1856POPC   NC327791  15.019  44.338   9.625
 1856POPC   PO427792  15.432  44.849   9.722
 1856POPC   GL127793  15.196  44.739   9.258
 1856POPC   GL227794  14.968  44.458   9.134
 1856POPC   C1A27795  15.326  44.560   8.798
 1856POPC   D2A27796  15.161  44.454   8.362
 1856POPC   C3A27797  15.340  44.612   7.965
 1856POPC   C4A27798  15.255  44.788   7.545
 1856POPC   C1B27799  14.729  44.398   8.724
 1856POPC   C2B27800  14.638  44.437   8.266
 1856POPC   C3B27801  14.861  44.524   7.887
 1856POPC   C4B27802  14.953  44.366   7.461
 1857POPC   NC327803  33.920  41.108   9.799
 1857POPC   PO427804  33.381  41.073   9.509
 1857POPC   GL127805  33.669  41.044   9.158
 1857POPC   GL227806  34.009  41.014   9.285
 1857POPC   C1A27807  33.551  40.965   8.746
 1857POPC   D2A27808  33.411  40.682   8.447
 1857POPC   C3A27809  33.543  40.804   8.031
 1857POPC   C4A27810  33.703  40.532   7.724
 1857POPC   C1B27811  34.066  40.937   8.808
 1857POPC   C2B27812  33.925  40.826   8.384
 1857POPC   C3B27813  34.100  40.778   7.971
 1857POPC   C4B27814  34.397  41.093   7.946
 1858POPC   NC327815   4.117  36.278   9.524
 1858POPC   PO427816   4.782  36.435   9.462
 1858POPC   GL127817   4.569  36.155   9.125
 1858POPC   GL227818   4.200  36.158   9.057
 1858POPC   C1A27819   4.513  35.978   8.702
 1858POPC   D2A27820   4.394  35.874   8.295
 1858POPC   C3A27821   4.442  36.152   7.994
 1858POPC   C4A27822   4.568  36.037   7.617
 1858POPC   C1B27823   3.964  36.065   8.709
 1858POPC   C2B27824   4.033  36.241   8.322
 1858POPC   C3B27825   3.945  36.141   7.896
 1858POPC   C4B27826   4.160  36.396   7.615
 1859POPC   NC327827  20.425   1.757   9.536
 1859POPC   PO427828  21.067   1.931   9.500
 1859POPC   GL127829  20.716   1.900   9.136
 1859POPC   GL227830  20.618   1.560   9.112
 1859POPC   C1A27831  20.427   1.852   8.730
 1859POPC   D2A27832  20.517   1.701   8.256
 1859POPC   C3A27833  20.498   2.006   7.860
 1859POPC   C4A27834  20.482   2.166   7.391
 1859POPC   C1B27835  20.870   1.605   8.708
 1859POPC   C2B27836  20.969   1.478   8.278
 1859POPC   C3B27837  20.939   1.710   7.880
 1859POPC   C4B27838  20.961   2.130   7.651
 1860POPC   NC327839  28.164  22.301   9.543
 1860POPC   PO427840  28.332  21.748   9.468
 1860POPC   GL127841  28.376  22.047   9.151
 1860POPC   GL227842  28.588  22.332   9.157
 1860POPC   C1A27843  28.223  22.245   8.796
 1860POPC   D2A27844  28.349  22.322   8.375
 1860POPC   C3A27845  28.253  22.122   7.965
 1860POPC   C4A27846  28.019  22.295   7.626
 1860POPC   C1B27847  28.759  22.260   8.714
 1860POPC   C2B27848  28.802  22.542   8.328
 1860POPC   C3B27849  28.878  22.348   7.937
 1860POPC   C4B27850  28.750  21.905   7.786
 1861POPC   NC327851  21.468   6.419   9.784
 1861POPC   PO427852  21.161   5.844   9.403
 1861POPC   GL127853  21.363   5.701   9.034
 1861POPC   GL227854  21.550   5.941   9.013
 1861POPC   C1A27855  21.514   5.616   8.639
 1861POPC   D2A27856  21.563   5.767   8.272
 1861POPC   C3A27857  21.407   5.592   7.976
 1861POPC   C4A27858  21.229   5.400   7.675
 1861POPC   C1B27859  21.553   6.183   8.638
 1861POPC   C2B27860  21.822   6.181   8.274
 1861POPC   C3B27861  21.644   6.052   7.851
 1861POPC   C4B27862  21.641   6.136   7.399
 1862POPC   NC327863  11.252  20.882   9.735
 1862POPC   PO427864  10.733  20.505   9.544
 1862POPC   GL127865  11.035  20.643   9.203
 1862POPC   GL227866  11.244  20.963   9.193
 1862POPC   C1A27867  11.327  20.556   8.846
 1862POPC   D2A27868  11.417  20.822   8.466
 1862POPC   C3A27869  11.430  20.620   8.067
 1862POPC   C4A27870  11.633  20.360   7.776
 1862POPC   C1B27871  11.019  20.957   8.794
 1862POPC   C2B27872  10.902  20.904   8.358
 1862POPC   C3B27873  11.061  20.993   7.961
 1862POPC   C4B27874  10.848  20.990   7.572
 1863POPC   NC327875  25.866  16.847   9.494
 1863POPC   PO427876  26.380  16.410   9.503
 1863POPC   GL127877  26.156  16.547   9.133
 1863POPC   GL227878  26.178  16.894   9.114
 1863POPC   C1A27879  26.207  16.621   8.677
 1863POPC   D2A27880  25.864  16.589   8.374
 1863POPC   C3A27881  26.038  16.640   7.988
 1863POPC   C4A27882  26.007  16.478   7.583
 1863POPC   C1B27883  25.842  16.943   8.822
 1863POPC   C2B27884  25.893  17.082   8.414
 1863POPC   C3B27885  25.722  17.038   8.012
 1863POPC   C4B27886  25.935  16.992   7.609
 1864POPC   NC327887  43.976   0.566   9.515
 1864POPC   PO427888  43.864  44.970   9.500
 1864POPC   GL127889  43.613   0.097   9.121
 1864POPC   GL227890  43.645   0.440   9.127
 1864POPC   C1A27891  43.521   0.145   8.686
 1864POPC   D2A27892  43.566   0.442   8.368
 1864POPC   C3A27893  43.766   0.166   8.045
 1864POPC   C4A27894  44.227   0.150   7.917
 1864POPC   C1B27895  43.809   0.669   8.767
 1864POPC   C2B27896  43.917   0.852   8.357
 1864POPC   C3B27897  43.849   0.662   7.986
 1864POPC   C4B27898  43.450   0.533   7.882
 1865POPC   NC327899  33.646  18.006   9.462
 1865POPC   PO427900  33.972  18.640   9.392
 1865POPC   GL127901  33.693  18.395   9.141
 1865POPC   GL227902  33.823  18.066   8.995
 1865POPC   C1A27903  33.455  18.336   8.773
 1865POPC   D2A27904  33.513  18.101   8.440
 1865POPC   C3A27905  33.814  18.186   8.154
 1865POPC   C4A27906  33.651  18.269   7.769
 1865POPC   C1B27907  33.971  18.380   8.689
 1865POPC   C2B27908  34.174  18.530   8.296
 1865POPC   C3B27909  34.166  18.420   7.862
 1865POPC   C4B27910  34.070  18.032   7.687
 1866POPC   NC327911  17.674   9.936   9.323
 1866POPC   PO427912  17.398   9.299   9.433
 1866POPC   GL127913  17.323   9.471   9.066
 1866POPC   GL227914  17.228   9.810   9.005
 1866POPC   C1A27915  17.489   9.470   8.685
 1866POPC   D2A27916  17.274   9.648   8.332
 1866POPC   C3A27917  17.431   9.450   7.972
 1866POPC   C4A27918  17.465   9.523   7.521
 1866POPC   C1B27919  17.517   9.994   8.673
 1866POPC   C2B27920  17.485  10.150   8.234
 1866POPC   C3B27921  17.296   9.936   7.899
 1866POPC   C4B27922  17.155   9.927   7.480
 1867POPC   NC327923  11.598  12.302   9.827
 1867POPC   PO427924  11.980  11.907   9.404
 1867POPC   GL127925  12.056  12.039   9.026
 1867POPC   GL227926  11.812  11.835   8.917
 1867POPC   C1A27927  12.160  12.189   8.634
 1867POPC   D2A27928  12.044  12.009   8.293
 1867POPC   C3A27929  12.246  12.079   7.927
 1867POPC   C4A27930  11.920  11.751   7.859
 1867POPC   C1B27931  11.636  12.109   8.637
 1867POPC   C2B27932  11.718  12.382   8.305
 1867POPC   C3B27933  11.790  12.279   7.879
 1867POPC   C4B27934  11.678  12.398   7.473
 1868POPC   NC327935  17.141  31.550   9.443
 1868POPC   PO427936  16.713  31.128   9.839
 1868POPC   GL127937  16.815  31.145   9.352
 1868POPC   GL227938  16.525  31.111   9.107
 1868POPC   C1A27939  16.985  31.263   8.896
 1868POPC   D2A27940  16.875  31.533   8.494
 1868POPC   C3A27941  17.013  31.496   8.042
 1868POPC   C4A27942  17.166  31.124   7.846
 1868POPC   C1B27943  16.506  31.489   8.853
 1868POPC   C2B27944  16.381  31.644   8.445
 1868POPC   C3B27945  16.494  31.495   8.046
 1868POPC   C4B27946  16.374  31.635   7.647
 1869POPC   NC327947  27.250  32.790   9.657
 1869POPC   PO427948  27.801  33.061   9.521
 1869POPC   GL127949  27.734  32.864   9.183
 1869POPC   GL227950  27.371  32.850   9.153
 1869POPC   C1A27951  27.801  32.996   8.793
 1869POPC   D2A27952  27.560  32.948   8.403
 1869POPC   C3A27953  27.765  33.052   8.024
 1869POPC   C4A27954  27.841  32.916   7.645
 1869POPC   C1B27955  27.310  33.181   8.808
 1869POPC   C2B27956  27.380  33.430   8.430
 1869POPC   C3B27957  27.298  33.313   8.000
 1869POPC   C4B27958  27.558  33.375   7.629
 1870POPC   NC327959  24.422  13.346   9.474
 1870POPC   PO427960  23.964  13.802   9.466
 1870POPC   GL127961  24.354  13.770   9.193
 1870POPC   GL227962  24.390  13.461   8.987
 1870POPC   C1A27963  24.610  13.887   8.799
 1870POPC   D2A27964  24.561  14.068   8.373
 1870POPC   C3A27965  24.556  13.753   8.027
 1870POPC   C4A27966  24.386  13.889   7.621
 1870POPC   C1B27967  24.739  13.354   8.793
 1870POPC   C2B27968  24.779  13.224   8.399
 1870POPC   C3B27969  24.707  13.252   8.000
 1870POPC   C4B27970  24.612  13.439   7.611
 1871POPC   NC327971  10.636  38.446   9.562
 1871POPC   PO427972  10.421  39.057   9.550
 1871POPC   GL127973  10.460  38.811   9.153
 1871POPC   GL227974  10.516  38.413   9.084
 1871POPC   C1A27975  10.517  38.719   8.696
 1871POPC   D2A27976  10.565  38.364   8.409
 1871POPC   C3A27977  10.621  38.610   8.017
 1871POPC   C4A27978  10.554  38.675   7.545
 1871POPC   C1B27979  10.238  38.124   8.855
 1871POPC   C2B27980  10.105  38.061   8.369
 1871POPC   C3B27981  10.281  38.207   7.976
 1871POPC   C4B27982  10.686  38.201   7.729
 1872POPC   NC327983  24.557  30.287   9.570
 1872POPC   PO427984  24.068  29.761   9.510
 1872POPC   GL127985  24.341  29.806   9.191
 1872POPC   GL227986  24.345  30.141   9.143
 1872POPC   C1A27987  24.384  29.747   8.758
 1872POPC   D2A27988  24.207  29.850   8.346
 1872POPC   C3A27989  24.518  29.838   8.032
 1872POPC   C4A27990  24.569  29.657   7.659
 1872POPC   C1B27991  24.595  30.219   8.778
 1872POPC   C2B27992  24.545  30.263   8.359
 1872POPC   C3B27993  24.686  30.297   7.959
 1872POPC   C4B27994  24.495  30.149   7.593
 1873POPC   NC327995   5.969  39.128   9.513
 1873POPC   PO427996   5.427  39.535   9.506
 1873POPC   GL127997   5.591  39.237   9.189
 1873POPC   GL227998   5.467  38.886   9.194
 1873POPC   C1A27999   5.941  39.242   8.873
 1873POPC   D2A28000   6.022  39.363   8.466
 1873POPC   C3A28001   6.248  39.138   8.180
 1873POPC   C4A28002   6.172  39.169   7.725
 1873POPC   C1B28003   5.705  38.792   8.832
 1873POPC   C2B28004   5.897  38.858   8.435
 1873POPC   C3B28005   5.774  39.041   8.051
 1873POPC   C4B28006   5.656  38.993   7.650
 1874POPC   NC328007  30.291  31.776   9.540
 1874POPC   PO428008  30.077  31.106   9.500
 1874POPC   GL128009  29.867  31.472   9.251
 1874POPC   GL228010  29.500  31.447   9.128
 1874POPC   C1A28011  29.856  31.733   8.854
 1874POPC   D2A28012  29.713  31.597   8.437
 1874POPC   C3A28013  29.921  31.724   8.062
 1874POPC   C4A28014  29.796  31.743   7.653
 1874POPC   C1B28015  29.746  31.224   8.786
 1874POPC   C2B28016  29.788  31.095   8.346
 1874POPC   C3B28017  29.743  31.267   7.915
 1874POPC   C4B28018  29.946  31.265   7.490
 1875POPC   NC328019  40.371  26.470   9.206
 1875POPC   PO428020  40.968  26.610   9.521
 1875POPC   GL128021  40.856  26.787   9.142
 1875POPC   GL228022  40.773  26.552   8.944
 1875POPC   C1A28023  41.098  26.853   8.738
 1875POPC   D2A28024  40.905  26.813   8.318
 1875POPC   C3A28025  41.157  26.798   7.933
 1875POPC   C4A28026  41.311  26.981   7.492
 1875POPC   C1B28027  40.555  26.504   8.567
 1875POPC   C2B28028  40.489  26.514   8.145
 1875POPC   C3B28029  40.641  26.417   7.783
 1875POPC   C4B28030  40.882  26.660   7.539
 1876POPC   NC328031   9.974  38.958   9.472
 1876POPC   PO428032   9.651  39.632   9.427
 1876POPC   GL128033   9.561  39.398   9.063
 1876POPC   GL228034   9.678  39.056   9.016
 1876POPC   C1A28035   9.444  39.372   8.661
 1876POPC   D2A28036   9.659  39.310   8.295
 1876POPC   C3A28037   9.390  39.191   7.925
 1876POPC   C4A28038   9.483  39.245   7.486
 1876POPC   C1B28039  10.053  38.974   8.802
 1876POPC   C2B28040  10.078  39.006   8.359
 1876POPC   C3B28041   9.898  39.014   7.940
 1876POPC   C4B28042  10.061  38.824   7.563
 1877POPC   NC328043  13.242   2.719   9.559
 1877POPC   PO428044  12.752   2.996   9.474
 1877POPC   GL128045  12.946   2.822   9.126
 1877POPC   GL228046  13.113   2.532   9.088
 1877POPC   C1A28047  13.086   3.013   8.776
 1877POPC   D2A28048  13.281   2.937   8.415
 1877POPC   C3A28049  13.000   2.752   8.159
 1877POPC   C4A28050  12.828   2.696   7.778
 1877POPC   C1B28051  12.962   2.539   8.634
 1877POPC   C2B28052  12.579   2.482   8.342
 1877POPC   C3B28053  12.563   2.291   7.942
 1877POPC   C4B28054  12.762   2.245   7.526
 1878POPC   NC328055   9.068  25.007   9.509
 1878POPC   PO428056   8.878  25.687   9.648
 1878POPC   GL128057   8.746  25.583   9.215
 1878POPC   GL228058   8.780  25.213   9.127
 1878POPC   C1A28059   8.903  25.554   8.780
 1878POPC   D2A28060   9.102  25.258   8.492
 1878POPC   C3A28061   9.032  25.298   8.059
 1878POPC   C4A28062   9.024  25.391   7.637
 1878POPC   C1B28063   8.721  24.976   8.722
 1878POPC   C2B28064   8.812  24.881   8.255
 1878POPC   C3B28065   8.785  24.950   7.774
 1878POPC   C4B28066   8.744  25.123   7.307
 1879POPC   NC328067  44.353  41.252   9.249
 1879POPC   PO428068  43.995  40.634   9.362
 1879POPC   GL128069  43.948  41.001   9.086
 1879POPC   GL228070  43.693  41.284   9.125
 1879POPC   C1A28071  44.082  40.915   8.671
 1879POPC   D2A28072  43.910  40.552   8.439
 1879POPC   C3A28073  43.855  40.621   7.994
 1879POPC   C4A28074  44.057  40.429   7.621
 1879POPC   C1B28075  43.602  41.066   8.730
 1879POPC   C2B28076  43.724  41.041   8.323
 1879POPC   C3B28077  43.626  41.277   7.992
 1879POPC   C4B28078  43.652  41.049   7.663
 1880POPC   NC328079  15.129  15.901   9.519
 1880POPC   PO428080  15.601  16.234   9.191
 1880POPC   GL128081  15.175  16.067   9.049
 1880POPC   GL228082  14.993  15.723   9.082
 1880POPC   C1A28083  14.895  16.042   8.724
 1880POPC   D2A28084  14.856  16.027   8.318
 1880POPC   C3A28085  15.087  16.360   8.148
 1880POPC   C4A28086  15.183  16.434   7.730
 1880POPC   C1B28087  14.782  15.540   8.714
 1880POPC   C2B28088  14.845  15.492   8.258
 1880POPC   C3B28089  14.983  15.741   7.900
 1880POPC   C4B28090  15.049  15.738   7.435
 1881POPC   NC328091  20.118  17.896   9.851
 1881POPC   PO428092  19.937  17.269   9.469
 1881POPC   GL128093  19.842  17.529   9.126
 1881POPC   GL228094  20.113  17.592   8.913
 1881POPC   C1A28095  19.598  17.507   8.752
 1881POPC   D2A28096  19.832  17.523   8.400
 1881POPC   C3A28097  19.745  17.352   7.993
 1881POPC   C4A28098  20.074  17.471   7.722
 1881POPC   C1B28099  19.835  17.950   8.784
 1881POPC   C2B28100  19.644  18.013   8.407
 1881POPC   C3B28101  19.819  17.874   8.024
 1881POPC   C4B28102  19.867  17.955   7.596
 1882POPC   NC328103  16.932  23.170   9.483
 1882POPC   PO428104  17.570  23.117   9.636
 1882POPC   GL128105  17.429  23.257   9.246
 1882POPC   GL228106  17.655  23.006   9.135
 1882POPC   C1A28107  17.331  23.199   8.780
 1882POPC   D2A28108  17.087  22.979   8.467
 1882POPC   C3A28109  17.252  22.942   8.040
 1882POPC   C4A28110  17.200  23.047   7.608
 1882POPC   C1B28111  17.681  22.793   8.741
 1882POPC   C2B28112  17.675  22.912   8.344
 1882POPC   C3B28113  17.785  22.800   7.957
 1882POPC   C4B28114  17.751  22.822   7.521
 1883POPC   NC328115  40.841  10.364   9.367
 1883POPC   PO428116  40.407  10.067   9.748
 1883POPC   GL128117  40.556   9.933   9.252
 1883POPC   GL228118  40.886   9.961   9.065
 1883POPC   C1A28119  40.556   9.667   8.825
 1883POPC   D2A28120  40.780   9.641   8.406
 1883POPC   C3A28121  40.573   9.779   7.985
 1883POPC   C4A28122  40.529   9.773   7.500
 1883POPC   C1B28123  40.757  10.160   8.695
 1883POPC   C2B28124  40.846  10.125   8.281
 1883POPC   C3B28125  41.095   9.828   8.054
 1883POPC   C4B28126  40.952   9.589   7.718
 1884POPC   NC328127  41.294  13.697   9.427
 1884POPC   PO428128  41.910  13.866   9.663
 1884POPC   GL128129  41.796  13.768   9.246
 1884POPC   GL228130  41.869  14.074   9.014
 1884POPC   C1A28131  41.658  13.566   8.869
 1884POPC   D2A28132  41.743  13.433   8.440
 1884POPC   C3A28133  41.467  13.429   8.101
 1884POPC   C4A28134  41.557  13.569   7.688
 1884POPC   C1B28135  41.536  14.047   8.684
 1884POPC   C2B28136  41.317  13.905   8.320
 1884POPC   C3B28137  41.554  14.009   7.952
 1884POPC   C4B28138  41.912  14.273   7.891
 1885POPC   NC328139  14.784  28.660   9.811
 1885POPC   PO428140  15.224  28.178   9.460
 1885POPC   GL128141  15.273  28.379   9.101
 1885POPC   GL228142  15.392  28.730   9.197
 1885POPC   C1A28143  15.043  28.214   8.748
 1885POPC   D2A28144  15.246  28.009   8.419
 1885POPC   C3A28145  15.383  28.243   8.083
 1885POPC   C4A28146  15.003  28.306   7.844
 1885POPC   C1B28147  15.552  28.721   8.783
 1885POPC   C2B28148  15.283  28.576   8.482
 1885POPC   C3B28149  15.153  28.705   8.094
 1885POPC   C4B28150  15.432  28.692   7.775
 1886POPC   NC328151  11.701  21.088   9.417
 1886POPC   PO428152  12.197  21.578   9.546
 1886POPC   GL128153  12.092  21.500   9.157
 1886POPC   GL228154  12.084  21.845   9.095
 1886POPC   C1A28155  12.098  21.240   8.770
 1886POPC   D2A28156  12.395  21.194   8.416
 1886POPC   C3A28157  12.154  21.250   8.027
 1886POPC   C4A28158  12.233  21.505   7.636
 1886POPC   C1B28159  11.851  21.704   8.748
 1886POPC   C2B28160  12.071  21.626   8.380
 1886POPC   C3B28161  11.930  21.727   7.961
 1886POPC   C4B28162  11.844  21.796   7.492
 1887POPC   NC328163  21.675  32.004   9.573
 1887POPC   PO428164  21.225  32.556   9.552
 1887POPC   GL128165  21.465  32.357   9.264
 1887POPC   GL228166  21.305  32.044   9.203
 1887POPC   C1A28167  21.761  32.506   8.954
 1887POPC   D2A28168  21.842  32.542   8.516
 1887POPC   C3A28169  21.667  32.206   8.261
 1887POPC   C4A28170  21.636  32.204   7.810
 1887POPC   C1B28171  21.304  32.239   8.796
 1887POPC   C2B28172  21.142  32.103   8.409
 1887POPC   C3B28173  21.198  32.067   7.993
 1887POPC   C4B28174  21.236  31.982   7.556
 1888POPC   NC328175  17.292  13.958   9.309
 1888POPC   PO428176  16.826  13.920   9.740
 1888POPC   GL128177  16.771  13.721   9.288
 1888POPC   GL228178  16.425  13.793   9.097
 1888POPC   C1A28179  16.829  13.540   8.862
 1888POPC   D2A28180  17.074  13.425   8.495
 1888POPC   C3A28181  16.853  13.492   8.097
 1888POPC   C4A28182  16.838  13.291   7.686
 1888POPC   C1B28183  16.388  13.721   8.614
 1888POPC   C2B28184  16.319  13.577   8.154
 1888POPC   C3B28185  16.336  13.454   7.701
 1888POPC   C4B28186  16.433  13.661   7.299
 1889POPC   NC328187  33.012   6.356   9.668
 1889POPC   PO428188  33.059   6.875   9.310
 1889POPC   GL128189  32.913   6.550   9.127
 1889POPC   GL228190  33.169   6.454   8.918
 1889POPC   C1A28191  32.726   6.589   8.712
 1889POPC   D2A28192  32.964   6.581   8.316
 1889POPC   C3A28193  32.759   6.720   7.979
 1889POPC   C4A28194  32.618   6.404   7.726
 1889POPC   C1B28195  33.162   6.880   8.673
 1889POPC   C2B28196  33.211   7.036   8.250
 1889POPC   C3B28197  33.273   6.769   7.903
 1889POPC   C4B28198  33.135   6.333   7.855
 1890POPC   NC328199  30.506   2.442   9.639
 1890POPC   PO428200  30.469   3.100   9.371
 1890POPC   GL128201  30.637   2.729   9.189
 1890POPC   GL228202  30.323   2.571   9.160
 1890POPC   C1A28203  30.905   2.760   8.807
 1890POPC   D2A28204  30.824   3.056   8.446
 1890POPC   C3A28205  30.795   2.860   8.035
 1890POPC   C4A28206  30.997   2.597   7.751
 1890POPC   C1B28207  30.494   2.379   8.786
 1890POPC   C2B28208  30.507   2.343   8.347
 1890POPC   C3B28209  30.460   2.498   7.917
 1890POPC   C4B28210  30.159   2.501   7.550
 1891POPC   NC328211   7.109   5.335   9.395
 1891POPC   PO428212   6.494   4.885   9.478
 1891POPC   GL128213   6.564   5.082   9.138
 1891POPC   GL228214   6.464   5.432   9.149
 1891POPC   C1A28215   6.808   5.140   8.789
 1891POPC   D2A28216   6.900   5.333   8.394
 1891POPC   C3A28217   6.822   5.124   8.004
 1891POPC   C4A28218   6.776   5.256   7.610
 1891POPC   C1B28219   6.288   5.275   8.761
 1891POPC   C2B28220   6.435   5.134   8.354
 1891POPC   C3B28221   6.324   5.253   7.930
 1891POPC   C4B28222   6.224   5.133   7.495
 1892POPC   NC328223  21.116  23.890   9.580
 1892POPC   PO428224  21.681  23.541   9.604
 1892POPC   GL128225  21.482  23.745   9.238
 1892POPC   GL228226  21.120  23.680   9.126
 1892POPC   C1A28227  21.491  23.754   8.798
 1892POPC   D2A28228  21.727  23.622   8.440
 1892POPC   C3A28229  21.527  23.494   8.065
 1892POPC   C4A28230  21.541  23.616   7.635
 1892POPC   C1B28231  20.972  23.845   8.746
 1892POPC   C2B28232  21.220  23.830   8.372
 1892POPC   C3B28233  21.280  23.948   7.980
 1892POPC   C4B28234  21.088  23.921   7.613
 1893POPC   NC328235  15.071  11.629   9.532
 1893POPC   PO428236  15.123  10.971   9.436
 1893POPC   GL128237  15.108  11.204   9.075
 1893POPC   GL228238  15.241  11.522   9.072
 1893POPC   C1A28239  15.263  11.236   8.652
 1893POPC   D2A28240  15.071  11.576   8.398
 1893POPC   C3A28241  14.879  11.475   8.016
 1893POPC   C4A28242  15.125  11.334   7.677
 1893POPC   C1B28243  15.533  11.649   8.747
 1893POPC   C2B28244  15.569  11.497   8.298
 1893POPC   C3B28245  15.396  11.695   7.900
 1893POPC   C4B28246  15.416  11.636   7.390
 1894POPC   NC328247  37.391  20.061   9.440
 1894POPC   PO428248  38.022  19.778   9.668
 1894POPC   GL128249  37.802  19.766   9.192
 1894POPC   GL228250  37.421  19.647   9.153
 1894POPC   C1A28251  37.680  19.735   8.721
 1894POPC   D2A28252  37.496  20.025   8.375
 1894POPC   C3A28253  37.767  20.056   8.016
 1894POPC   C4A28254  38.034  19.689   7.898
 1894POPC   C1B28255  37.151  19.655   8.753
 1894POPC   C2B28256  37.181  19.626   8.296
 1894POPC   C3B28257  37.308  19.820   7.887
 1894POPC   C4B28258  37.340  20.216   7.722
 1895POPC   NC328259  17.807  31.902   9.520
 1895POPC   PO428260  17.228  32.253   9.497
 1895POPC   GL128261  17.557  32.248   9.226
 1895POPC   GL228262  17.325  32.222   8.970
 1895POPC   C1A28263  17.796  32.264   8.850
 1895POPC   D2A28264  17.594  32.150   8.481
 1895POPC   C3A28265  17.716  32.332   8.107
 1895POPC   C4A28266  17.597  32.225   7.700
 1895POPC   C1B28267  17.200  31.865   8.743
 1895POPC   C2B28268  17.331  31.740   8.354
 1895POPC   C3B28269  17.290  31.954   7.984
 1895POPC   C4B28270  17.127  31.900   7.566
 1896POPC   NC328271  41.840  38.734   9.493
 1896POPC   PO428272  41.260  38.484   9.715
 1896POPC   GL128273  41.384  38.583   9.238
 1896POPC   GL228274  41.711  38.433   9.091
 1896POPC   C1A28275  41.431  38.764   8.803
 1896POPC   D2A28276  41.335  38.551   8.403
 1896POPC   C3A28277  41.308  38.644   7.975
 1896POPC   C4A28278  41.331  38.244   7.755
 1896POPC   C1B28279  41.750  38.335   8.621
 1896POPC   C2B28280  41.724  38.375   8.143
 1896POPC   C3B28281  41.747  38.555   7.724
 1896POPC   C4B28282  41.702  38.280   7.341
 1897POPC   NC328283  17.544  39.496   9.525
 1897POPC   PO428284  17.898  38.875   9.374
 1897POPC   GL128285  17.654  39.173   9.123
 1897POPC   GL228286  17.320  39.272   9.118
 1897POPC   C1A28287  17.587  39.277   8.692
 1897POPC   D2A28288  17.775  39.382   8.317
 1897POPC   C3A28289  17.599  39.217   7.926
 1897POPC   C4A28290  17.836  39.240   7.545
 1897POPC   C1B28291  17.125  39.512   8.803
 1897POPC   C2B28292  17.207  39.451   8.367
 1897POPC   C3B28293  17.229  39.599   7.954
 1897POPC   C4B28294  17.164  39.355   7.561
 1898POPC   NC328295  22.680  32.722   9.575
 1898POPC   PO428296  23.324  33.009   9.466
 1898POPC   GL128297  23.157  32.856   9.129
 1898POPC   GL228298  22.867  33.020   9.181
 1898POPC   C1A28299  23.172  32.707   8.724
 1898POPC   D2A28300  23.080  32.853   8.329
 1898POPC   C3A28301  23.201  32.611   7.956
 1898POPC   C4A28302  23.051  32.787   7.579
 1898POPC   C1B28303  22.665  32.837   8.835
 1898POPC   C2B28304  22.606  33.037   8.424
 1898POPC   C3B28305  22.715  33.096   7.975
 1898POPC   C4B28306  22.621  33.053   7.521
 1899POPC   NC328307  38.696  22.542   9.561
 1899POPC   PO428308  38.359  21.865   9.587
 1899POPC   GL128309  38.399  21.965   9.163
 1899POPC   GL228310  38.400  22.343   9.149
 1899POPC   C1A28311  38.356  22.045   8.719
 1899POPC   D2A28312  38.656  22.003   8.389
 1899POPC   C3A28313  38.480  21.996   8.003
 1899POPC   C4A28314  38.136  21.923   7.792
 1899POPC   C1B28315  38.486  22.541   8.730
 1899POPC   C2B28316  38.419  22.474   8.251
 1899POPC   C3B28317  38.323  22.467   7.770
 1899POPC   C4B28318  38.222  22.316   7.309
 1900POPC   NC328319  25.957  40.684   9.857
 1900POPC   PO428320  26.230  40.430   9.295
 1900POPC   GL128321  25.956  40.644   9.023
 1900POPC   GL228322  25.595  40.726   9.176
 1900POPC   C1A28323  26.225  40.656   8.649
 1900POPC   D2A28324  26.497  40.651   8.297
 1900POPC   C3A28325  26.300  40.555   7.890
 1900POPC   C4A28326  26.165  40.879   7.612
 1900POPC   C1B28327  25.585  40.905   8.785
 1900POPC   C2B28328  25.813  40.772   8.377
 1900POPC   C3B28329  25.789  40.680   7.917
 1900POPC   C4B28330  25.664  40.966   7.552
 1901POPC   NC328331  11.912  24.240   9.411
 1901POPC   PO428332  12.341  24.865   9.519
 1901POPC   GL128333  12.173  24.713   9.108
 1901POPC   GL228334  12.110  24.345   8.973
 1901POPC   C1A28335  12.064  24.765   8.671
 1901POPC   D2A28336  12.124  24.387   8.427
 1901POPC   C3A28337  12.223  24.431   8.007
 1901POPC   C4A28338  12.146  24.824   7.802
 1901POPC   C1B28339  11.697  24.423   8.767
 1901POPC   C2B28340  11.448  24.616   8.450
 1901POPC   C3B28341  11.707  24.565   8.090
 1901POPC   C4B28342  11.812  24.440   7.697
 1902POPC   NC328343  20.462  15.140   9.516
 1902POPC   PO428344  21.130  15.283   9.387
 1902POPC   GL128345  20.785  15.386   9.150
 1902POPC   GL228346  20.722  15.045   9.102
 1902POPC   C1A28347  20.504  15.360   8.767
 1902POPC   D2A28348  20.405  15.050   8.425
 1902POPC   C3A28349  20.491  15.139   7.990
 1902POPC   C4A28350  20.418  15.183   7.546
 1902POPC   C1B28351  20.980  15.133   8.741
 1902POPC   C2B28352  20.923  15.159   8.324
 1902POPC   C3B28353  20.980  15.356   7.947
 1902POPC   C4B28354  20.923  15.043   7.677
 1903POPC   NC328355   8.032  24.822   9.467
 1903POPC   PO428356   8.273  24.120   9.529
 1903POPC   GL128357   7.994  24.284   9.233
 1903POPC   GL228358   8.260  24.507   9.127
 1903POPC   C1A28359   7.874  24.347   8.807
 1903POPC   D2A28360   7.933  24.608   8.438
 1903POPC   C3A28361   7.966  24.418   8.032
 1903POPC   C4A28362   7.878  24.665   7.658
 1903POPC   C1B28363   8.367  24.560   8.718
 1903POPC   C2B28364   8.491  24.494   8.284
 1903POPC   C3B28365   8.432  24.571   7.838
 1903POPC   C4B28366   8.595  24.636   7.413
 1904POPC   NC328367  14.079   0.539   9.432
 1904POPC   PO428368  14.641   0.115   9.504
 1904POPC   GL128369  14.461   0.313   9.120
 1904POPC   GL228370  14.130   0.230   8.998
 1904POPC   C1A28371  14.591   0.436   8.691
 1904POPC   D2A28372  14.525   0.701   8.315
 1904POPC   C3A28373  14.436   0.451   7.948
 1904POPC   C4A28374  14.590   0.340   7.532
 1904POPC   C1B28375  14.130   0.671   8.786
 1904POPC   C2B28376  14.053   0.897   8.372
 1904POPC   C3B28377  14.000   0.744   7.930
 1904POPC   C4B28378  14.128   0.551   7.532
 1905POPC   NC328379   3.679  30.584   9.955
 1905POPC   PO428380   3.844  31.055   9.507
 1905POPC   GL128381   3.578  31.001   9.125
 1905POPC   GL228382   3.662  30.664   9.100
 1905POPC   C1A28383   3.301  31.039   8.720
 1905POPC   D2A28384   3.463  31.170   8.309
 1905POPC   C3A28385   3.347  30.962   7.904
 1905POPC   C4A28386   3.291  30.681   7.532
 1905POPC   C1B28387   3.720  30.790   8.646
 1905POPC   C2B28388   3.709  30.732   8.203
 1905POPC   C3B28389   3.773  30.665   7.768
 1905POPC   C4B28390   4.016  30.647   7.382
 1906POPC   NC328391  40.636  16.126   9.541
 1906POPC   PO428392  41.203  15.593   9.387
 1906POPC   GL128393  40.974  15.974   9.148
 1906POPC   GL228394  40.568  15.991   9.060
 1906POPC   C1A28395  40.924  16.285   8.850
 1906POPC   D2A28396  40.690  16.275   8.463
 1906POPC   C3A28397  40.883  16.030   8.140
 1906POPC   C4A28398  40.808  16.084   7.700
 1906POPC   C1B28399  40.330  15.882   8.681
 1906POPC   C2B28400  40.408  15.773   8.233
 1906POPC   C3B28401  40.421  15.740   7.760
 1906POPC   C4B28402  40.772  15.697   7.382
 1907POPC   NC328403  21.689  24.777   9.537
 1907POPC   PO428404  22.273  24.338   9.485
 1907POPC   GL128405  21.914  24.431   9.199
 1907POPC   GL228406  21.926  24.816   9.110
 1907POPC   C1A28407  21.815  24.485   8.756
 1907POPC   D2A28408  22.108  24.495   8.422
 1907POPC   C3A28409  21.978  24.608   8.010
 1907POPC   C4A28410  22.229  24.491   7.633
 1907POPC   C1B28411  22.099  24.966   8.746
 1907POPC   C2B28412  22.402  24.915   8.405
 1907POPC   C3B28413  22.458  24.869   7.965
 1907POPC   C4B28414  22.150  24.977   7.695
 1908POPC   NC328415   8.696  10.846   9.604
 1908POPC   PO428416   9.100  10.296   9.651
 1908POPC   GL128417   9.079  10.396   9.236
 1908POPC   GL228418   8.759  10.280   9.146
 1908POPC   C1A28419   9.165  10.372   8.797
 1908POPC   D2A28420   8.976  10.269   8.381
 1908POPC   C3A28421   9.061  10.449   7.989
 1908POPC   C4A28422   9.173  10.795   7.718
 1908POPC   C1B28423   8.655  10.432   8.728
 1908POPC   C2B28424   8.593  10.611   8.286
 1908POPC   C3B28425   8.582  10.542   7.825
 1908POPC   C4B28426   8.852  10.355   7.524
 1909POPC   NC328427   4.627  18.390   9.606
 1909POPC   PO428428   4.158  17.822   9.590
 1909POPC   GL128429   4.094  18.078   9.150
 1909POPC   GL228430   4.364  18.340   9.156
 1909POPC   C1A28431   4.113  18.284   8.692
 1909POPC   D2A28432   4.107  18.462   8.249
 1909POPC   C3A28433   4.330  18.219   7.897
 1909POPC   C4A28434   4.183  17.894   7.634
 1909POPC   C1B28435   4.529  18.574   8.795
 1909POPC   C2B28436   4.594  18.509   8.364
 1909POPC   C3B28437   4.560  18.656   7.936
 1909POPC   C4B28438   4.521  18.589   7.474
 1910POPC   NC328439  14.274   6.829   9.948
 1910POPC   PO428440  14.632   6.374   9.585
 1910POPC   GL128441  14.341   6.551   9.266
 1910POPC   GL228442  14.440   6.910   9.243
 1910POPC   C1A28443  14.231   6.680   8.826
 1910POPC   D2A28444  14.408   6.594   8.434
 1910POPC   C3A28445  14.098   6.592   8.108
 1910POPC   C4A28446  14.158   6.603   7.691
 1910POPC   C1B28447  14.700   6.926   8.825
 1910POPC   C2B28448  14.681   7.027   8.357
 1910POPC   C3B28449  14.593   6.776   7.953
 1910POPC   C4B28450  14.613   6.799   7.467
 1911POPC   NC328451   8.457  21.754   9.321
 1911POPC   PO428452   8.347  21.175   9.724
 1911POPC   GL128453   8.077  21.417   9.317
 1911POPC   GL228454   7.871  21.219   9.141
 1911POPC   C1A28455   8.155  21.524   8.809
 1911POPC   D2A28456   8.354  21.355   8.417
 1911POPC   C3A28457   8.380  21.574   8.036
 1911POPC   C4A28458   8.403  21.606   7.617
 1911POPC   C1B28459   7.978  21.045   8.743
 1911POPC   C2B28460   8.060  20.928   8.321
 1911POPC   C3B28461   8.201  21.099   7.931
 1911POPC   C4B28462   8.524  21.138   7.603
 1912POPC   NC328463  41.134  15.997   9.620
 1912POPC   PO428464  41.759  15.960   9.694
 1912POPC   GL128465  41.557  16.052   9.280
 1912POPC   GL228466  41.775  15.794   9.182
 1912POPC   C1A28467  41.428  16.218   8.843
 1912POPC   D2A28468  41.644  16.221   8.440
 1912POPC   C3A28469  41.474  16.227   8.035
 1912POPC   C4A28470  41.266  15.901   7.825
 1912POPC   C1B28471  41.588  15.751   8.779
 1912POPC   C2B28472  41.372  15.793   8.388
 1912POPC   C3B28473  41.674  15.760   8.078
 1912POPC   C4B28474  41.767  15.677   7.675
 1913POPC   NC328475  17.335  20.205   9.483
 1913POPC   PO428476  17.789  20.718   9.624
 1913POPC   GL128477  17.574  20.596   9.260
 1913POPC   GL228478  17.415  20.907   9.249
 1913POPC   C1A28479  17.549  20.319   8.848
 1913POPC   D2A28480  17.803  20.415   8.460
 1913POPC   C3A28481  17.666  20.624   8.077
 1913POPC   C4A28482  17.284  20.410   7.958
 1913POPC   C1B28483  17.578  20.820   8.807
 1913POPC   C2B28484  17.304  20.648   8.459
 1913POPC   C3B28485  17.131  20.862   8.087
 1913POPC   C4B28486  17.337  21.108   7.802
 1914POPC   NC328487  32.641  32.993   9.445
 1914POPC   PO428488  33.265  32.652   9.527
 1914POPC   GL128489  33.371  32.906   9.149
 1914POPC   GL228490  33.073  33.088   9.201
 1914POPC   C1A28491  33.307  33.091   8.743
 1914POPC   D2A28492  33.346  32.968   8.320
 1914POPC   C3A28493  33.008  32.754   8.109
 1914POPC   C4A28494  32.829  32.875   7.720
 1914POPC   C1B28495  32.825  33.214   8.845
 1914POPC   C2B28496  32.958  33.295   8.418
 1914POPC   C3B28497  32.913  33.266   8.013
 1914POPC   C4B28498  32.529  33.343   7.786
 1915POPC   NC328499  23.226  31.890   9.484
 1915POPC   PO428500  22.977  31.310   9.422
 1915POPC   GL128501  23.047  31.607   9.082
 1915POPC   GL228502  22.857  31.923   9.135
 1915POPC   C1A28503  23.075  31.487   8.649
 1915POPC   D2A28504  22.831  31.303   8.322
 1915POPC   C3A28505  23.061  31.240   7.965
 1915POPC   C4A28506  23.294  31.540   7.729
 1915POPC   C1B28507  22.699  31.860   8.736
 1915POPC   C2B28508  22.701  31.821   8.328
 1915POPC   C3B28509  22.868  31.700   7.967
 1915POPC   C4B28510  22.832  31.785   7.545
 1916POPC   NC328511  14.366  40.346   9.538
 1916POPC   PO428512  14.552  39.674   9.451
 1916POPC   GL128513  14.357  39.970   9.163
 1916POPC   GL228514  14.643  40.176   9.123
 1916POPC   C1A28515  14.019  40.013   8.823
 1916POPC   D2A28516  14.107  39.973   8.380
 1916POPC   C3A28517  14.461  39.742   8.194
 1916POPC   C4A28518  14.303  39.813   7.763
 1916POPC   C1B28519  14.500  40.154   8.693
 1916POPC   C2B28520  14.520  40.237   8.241
 1916POPC   C3B28521  14.416  40.303   7.805
 1916POPC   C4B28522  14.551  40.135   7.401
 1917POPC   NC328523   4.161  23.851   9.512
 1917POPC   PO428524   4.395  24.454   9.659
 1917POPC   GL128525   4.283  24.227   9.158
 1917POPC   GL228526   4.049  23.963   9.025
 1917POPC   C1A28527   4.442  24.320   8.689
 1917POPC   D2A28528   4.370  24.311   8.207
 1917POPC   C3A28529   4.577  24.524   7.820
 1917POPC   C4A28530   4.730  24.645   7.393
 1917POPC   C1B28531   4.066  23.977   8.562
 1917POPC   C2B28532   3.922  24.083   8.148
 1917POPC   C3B28533   4.026  24.333   7.771
 1917POPC   C4B28534   3.859  24.222   7.335
 1918POPC   NC328535   7.290  25.216   9.432
 1918POPC   PO428536   7.965  25.291   9.544
 1918POPC   GL128537   7.756  25.193   9.165
 1918POPC   GL228538   7.655  25.547   9.156
 1918POPC   C1A28539   7.534  25.107   8.743
 1918POPC   D2A28540   7.326  25.308   8.354
 1918POPC   C3A28541   7.282  25.206   7.880
 1918POPC   C4A28542   7.295  25.207   7.402
 1918POPC   C1B28543   7.882  25.478   8.760
 1918POPC   C2B28544   8.062  25.396   8.370
 1918POPC   C3B28545   7.768  25.291   8.058
 1918POPC   C4B28546   7.747  25.154   7.648
 1919POPC   NC328547  31.961   6.525   9.435
 1919POPC   PO428548  32.580   6.491   9.558
 1919POPC   GL128549  32.415   6.545   9.138
 1919POPC   GL228550  32.245   6.814   9.124
 1919POPC   C1A28551  32.228   6.492   8.707
 1919POPC   D2A28552  31.953   6.452   8.331
 1919POPC   C3A28553  32.193   6.567   7.941
 1919POPC   C4A28554  32.185   6.487   7.469
 1919POPC   C1B28555  32.315   7.006   8.756
 1919POPC   C2B28556  32.454   6.919   8.354
 1919POPC   C3B28557  32.304   7.057   7.955
 1919POPC   C4B28558  32.508   6.928   7.587
 1920POPC   NC328559  18.776   3.769   9.500
 1920POPC   PO428560  19.282   3.422   9.665
 1920POPC   GL128561  19.115   3.540   9.193
 1920POPC   GL228562  18.990   3.867   9.046
 1920POPC   C1A28563  19.025   3.329   8.791
 1920POPC   D2A28564  18.881   3.341   8.358
 1920POPC   C3A28565  19.054   3.296   7.954
 1920POPC   C4A28566  18.762   3.568   7.805
 1920POPC   C1B28567  19.058   3.808   8.611
 1920POPC   C2B28568  19.085   3.788   8.149
 1920POPC   C3B28569  19.070   3.984   7.765
 1920POPC   C4B28570  19.382   4.036   7.412
 1921POPC   NC328571  32.405  34.853   9.729
 1921POPC   PO428572  31.896  34.642   9.759
 1921POPC   GL128573  32.143  34.641   9.325
 1921POPC   GL228574  32.340  34.937   9.215
 1921POPC   C1A28575  32.288  34.551   8.855
 1921POPC   D2A28576  32.163  34.325   8.437
 1921POPC   C3A28577  32.270  34.401   7.980
 1921POPC   C4A28578  31.992  34.386   7.599
 1921POPC   C1B28579  32.218  35.047   8.769
 1921POPC   C2B28580  32.112  34.837   8.349
 1921POPC   C3B28581  32.072  34.863   7.883
 1921POPC   C4B28582  32.284  34.797   7.483
 1922POPC   NC328583  38.876  16.160   9.555
 1922POPC   PO428584  39.474  15.929   9.316
 1922POPC   GL128585  39.136  16.138   9.105
 1922POPC   GL228586  38.781  15.999   9.085
 1922POPC   C1A28587  39.262  16.057   8.694
 1922POPC   D2A28588  39.538  16.247   8.400
 1922POPC   C3A28589  39.469  15.973   8.061
 1922POPC   C4A28590  39.394  16.016   7.625
 1922POPC   C1B28591  38.737  16.057   8.656
 1922POPC   C2B28592  38.968  15.931   8.304
 1922POPC   C3B28593  38.987  16.100   7.940
 1922POPC   C4B28594  38.861  16.039   7.559
 1923POPC   NC328595   5.639  26.711   9.590
 1923POPC   PO428596   6.104  27.115   9.591
 1923POPC   GL128597   5.902  27.033   9.203
 1923POPC   GL228598   5.900  26.655   9.105
 1923POPC   C1A28599   5.878  27.020   8.755
 1923POPC   D2A28600   5.851  27.312   8.395
 1923POPC   C3A28601   5.869  27.156   7.943
 1923POPC   C4A28602   5.933  26.752   7.711
 1923POPC   C1B28603   5.863  26.473   8.658
 1923POPC   C2B28604   5.822  26.421   8.175
 1923POPC   C3B28605   5.678  26.324   7.751
 1923POPC   C4B28606   5.633  26.442   7.309
 1924POPC   NC328607  18.649   5.812   9.821
 1924POPC   PO428608  19.266   6.068   9.547
 1924POPC   GL128609  19.042   5.985   9.129
 1924POPC   GL228610  18.993   5.610   8.997
 1924POPC   C1A28611  19.107   5.995   8.699
 1924POPC   D2A28612  19.372   5.856   8.397
 1924POPC   C3A28613  19.284   6.019   8.012
 1924POPC   C4A28614  18.915   5.972   7.754
 1924POPC   C1B28615  18.774   5.608   8.637
 1924POPC   C2B28616  18.834   5.802   8.254
 1924POPC   C3B28617  18.743   5.515   7.952
 1924POPC   C4B28618  18.958   5.259   7.709
 1925POPC   NC328619  40.189  33.405   9.524
 1925POPC   PO428620  39.885  33.965   9.653
 1925POPC   GL128621  39.970  33.766   9.237
 1925POPC   GL228622  40.349  33.767   9.207
 1925POPC   C1A28623  39.909  33.748   8.790
 1925POPC   D2A28624  39.714  33.731   8.355
 1925POPC   C3A28625  39.918  33.884   7.987
 1925POPC   C4A28626  39.850  33.799   7.509
 1925POPC   C1B28627  40.384  33.599   8.797
 1925POPC   C2B28628  40.206  33.580   8.377
 1925POPC   C3B28629  40.448  33.538   8.021
 1925POPC   C4B28630  40.480  33.253   7.678
 1926POPC   NC328631  18.013  27.943   9.516
 1926POPC   PO428632  18.386  28.532   9.410
 1926POPC   GL128633  18.134  28.543   9.070
 1926POPC   GL228634  17.992  28.234   9.107
 1926POPC   C1A28635  18.204  28.539   8.622
 1926POPC   D2A28636  18.498  28.551   8.346
 1926POPC   C3A28637  18.405  28.349   7.994
 1926POPC   C4A28638  18.045  28.478   7.778
 1926POPC   C1B28639  18.287  28.066   8.789
 1926POPC   C2B28640  18.206  28.004   8.339
 1926POPC   C3B28641  18.058  27.970   7.906
 1926POPC   C4B28642  18.282  28.072   7.539
 1927POPC   NC328643  10.232  23.497   9.522
 1927POPC   PO428644  10.820  23.873   9.485
 1927POPC   GL128645  10.521  23.726   9.152
 1927POPC   GL228646  10.481  23.359   9.095
 1927POPC   C1A28647  10.358  23.984   8.813
 1927POPC   D2A28648  10.135  24.143   8.444
 1927POPC   C3A28649  10.337  23.983   8.084
 1927POPC   C4A28650  10.514  23.997   7.692
 1927POPC   C1B28651  10.691  23.444   8.712
 1927POPC   C2B28652  10.514  23.563   8.329
 1927POPC   C3B28653  10.574  23.529   7.894
 1927POPC   C4B28654  10.774  23.215   7.676
 1928POPC   NC328655  24.564   8.736   9.527
 1928POPC   PO428656  24.138   9.228   9.392
 1928POPC   GL128657  24.254   8.908   9.138
 1928POPC   GL228658  24.554   9.049   9.106
 1928POPC   C1A28659  24.123   8.675   8.753
 1928POPC   D2A28660  24.007   8.558   8.326
 1928POPC   C3A28661  24.235   8.753   8.006
 1928POPC   C4A28662  24.531   8.751   7.699
 1928POPC   C1B28663  24.625   8.750   8.816
 1928POPC   C2B28664  24.613   8.772   8.371
 1928POPC   C3B28665  24.813   9.031   8.064
 1928POPC   C4B28666  24.965   9.468   7.828
 1929POPC   NC328667  43.105   8.784   9.502
 1929POPC   PO428668  43.099   9.436   9.547
 1929POPC   GL128669  43.020   9.259   9.156
 1929POPC   GL228670  43.384   9.127   9.117
 1929POPC   C1A28671  43.145   9.318   8.706
 1929POPC   D2A28672  43.229   8.918   8.473
 1929POPC   C3A28673  43.032   8.821   8.056
 1929POPC   C4A28674  43.010   8.934   7.638
 1929POPC   C1B28675  43.638   9.194   8.703
 1929POPC   C2B28676  43.557   9.209   8.235
 1929POPC   C3B28677  43.273   9.279   7.916
 1929POPC   C4B28678  43.402   9.339   7.469
 1930POPC   NC328679  27.102   9.867   9.500
 1930POPC   PO428680  27.783   9.626   9.451
 1930POPC   GL128681  27.724   9.779   9.062
 1930POPC   GL228682  27.495   9.976   9.178
 1930POPC   C1A28683  27.401   9.677   8.748
 1930POPC   D2A28684  27.378   9.679   8.321
 1930POPC   C3A28685  27.656   9.391   8.164
 1930POPC   C4A28686  27.726   9.182   7.774
 1930POPC   C1B28687  27.406  10.178   8.774
 1930POPC   C2B28688  27.296  10.192   8.334
 1930POPC   C3B28689  27.413  10.072   7.938
 1930POPC   C4B28690  27.431   9.656   7.784
 1931POPC   NC328691   2.456  11.680   9.425
 1931POPC   PO428692   2.701  12.314   9.647
 1931POPC   GL128693   2.928  12.290   9.256
 1931POPC   GL228694   2.867  11.953   9.237
 1931POPC   C1A28695   2.843  12.266   8.813
 1931POPC   D2A28696   3.082  12.111   8.471
 1931POPC   C3A28697   3.059  12.321   8.082
 1931POPC   C4A28698   2.848  12.234   7.712
 1931POPC   C1B28699   2.877  11.766   8.852
 1931POPC   C2B28700   2.665  11.795   8.461
 1931POPC   C3B28701   2.751  11.897   8.065
 1931POPC   C4B28702   2.542  11.823   7.680
 1932POPC   NC328703  18.593   9.541   9.336
 1932POPC   PO428704  18.095   9.931   9.488
 1932POPC   GL128705  18.154   9.692   9.133
 1932POPC   GL228706  17.840   9.507   9.092
 1932POPC   C1A28707  18.458   9.766   8.750
 1932POPC   D2A28708  18.288   9.794   8.341
 1932POPC   C3A28709  18.474   9.766   7.957
 1932POPC   C4A28710  18.476  10.162   7.677
 1932POPC   C1B28711  17.992   9.545   8.680
 1932POPC   C2B28712  17.784   9.684   8.321
 1932POPC   C3B28713  17.800   9.826   7.932
 1932POPC   C4B28714  18.095   9.728   7.627
 1933POPC   NC328715  19.176  10.346   9.446
 1933POPC   PO428716  18.675  10.640   9.765
 1933POPC   GL128717  18.752  10.461   9.227
 1933POPC   GL228718  19.082  10.561   9.007
 1933POPC   C1A28719  18.813  10.206   8.801
 1933POPC   D2A28720  18.976  10.518   8.490
 1933POPC   C3A28721  19.053  10.537   8.047
 1933POPC   C4A28722  18.880  10.511   7.637
 1933POPC   C1B28723  19.307  10.850   8.755
 1933POPC   C2B28724  19.334  10.906   8.317
 1933POPC   C3B28725  19.540  10.759   7.956
 1933POPC   C4B28726  19.373  10.631   7.594
 1934POPC   NC328727  19.948  39.088   9.671
 1934POPC   PO428728  19.518  39.482   9.484
 1934POPC   GL128729  19.870  39.323   9.214
 1934POPC   GL228730  19.949  38.972   9.172
 1934POPC   C1A28731  19.867  39.273   8.763
 1934POPC   D2A28732  20.039  39.126   8.356
 1934POPC   C3A28733  19.841  39.270   7.942
 1934POPC   C4A28734  19.783  39.343   7.444
 1934POPC   C1B28735  20.088  38.797   8.779
 1934POPC   C2B28736  20.084  38.580   8.378
 1934POPC   C3B28737  19.915  38.761   8.001
 1934POPC   C4B28738  19.923  38.876   7.543
 1935POPC   NC328739  38.857  13.624   9.494
 1935POPC   PO428740  38.198  13.885   9.572
 1935POPC   GL128741  38.444  13.709   9.203
 1935POPC   GL228742  38.786  13.873   9.073
 1935POPC   C1A28743  38.454  13.383   8.892
 1935POPC   D2A28744  38.481  13.277   8.464
 1935POPC   C3A28745  38.453  13.462   8.074
 1935POPC   C4A28746  38.778  13.496   7.769
 1935POPC   C1B28747  38.626  13.821   8.684
 1935POPC   C2B28748  38.621  14.023   8.307
 1935POPC   C3B28749  38.639  13.956   7.919
 1935POPC   C4B28750  38.365  13.793   7.688
 1936POPC   NC328751  29.128   7.771   9.498
 1936POPC   PO428752  29.046   8.488   9.509
 1936POPC   GL128753  29.163   8.254   9.158
 1936POPC   GL228754  28.855   8.304   8.982
 1936POPC   C1A28755  29.420   8.286   8.764
 1936POPC   D2A28756  29.450   8.069   8.358
 1936POPC   C3A28757  29.276   8.138   7.977
 1936POPC   C4A28758  28.985   8.171   7.673
 1936POPC   C1B28759  28.963   8.225   8.546
 1936POPC   C2B28760  28.796   8.011   8.197
 1936POPC   C3B28761  28.950   7.719   7.908
 1936POPC   C4B28762  28.865   7.733   7.465
 1937POPC   NC328763  43.854   8.283   9.611
 1937POPC   PO428764  43.617   7.673   9.332
 1937POPC   GL128765  43.909   7.909   9.116
 1937POPC   GL228766  43.978   8.263   9.094
 1937POPC   C1A28767  44.045   7.927   8.686
 1937POPC   D2A28768  43.990   8.275   8.375
 1937POPC   C3A28769  43.925   8.111   7.955
 1937POPC   C4A28770  43.656   7.787   7.757
 1937POPC   C1B28771  44.302   8.358   8.773
 1937POPC   C2B28772  44.455   8.527   8.404
 1937POPC   C3B28773  44.339   8.401   8.009
 1937POPC   C4B28774  44.438   8.243   7.600
 1938POPC   NC328775  44.167  32.252   9.616
 1938POPC   PO428776  43.563  32.556   9.577
 1938POPC   GL128777  43.766  32.302   9.288
 1938POPC   GL228778  43.972  32.588   9.224
 1938POPC   C1A28779  43.993  32.194   8.927
 1938POPC   D2A28780  44.048  32.289   8.511
 1938POPC   C3A28781  44.004  31.994   8.194
 1938POPC   C4A28782  44.051  32.087   7.764
 1938POPC   C1B28783  43.639  32.570   8.859
 1938POPC   C2B28784  43.620  32.548   8.396
 1938POPC   C3B28785  43.911  32.506   8.051
 1938POPC   C4B28786  43.787  32.599   7.632
 1939POPC   NC328787  38.096  10.807   9.410
 1939POPC   PO428788  38.608  10.425   9.450
 1939POPC   GL128789  38.496  10.388   9.059
 1939POPC   GL228790  38.175  10.421   9.108
 1939POPC   C1A28791  38.506  10.650   8.711
 1939POPC   D2A28792  38.746  10.723   8.359
 1939POPC   C3A28793  38.472  10.747   8.060
 1939POPC   C4A28794  38.432  10.628   7.666
 1939POPC   C1B28795  38.004  10.572   8.757
 1939POPC   C2B28796  38.114  10.477   8.350
 1939POPC   C3B28797  38.243  10.271   7.993
 1939POPC   C4B28798  38.065  10.278   7.585
 1940POPC   NC328799   9.891  24.840   9.564
 1940POPC   PO428800   9.917  24.113   9.532
 1940POPC   GL128801   9.738  24.435   9.224
 1940POPC   GL228802   9.427  24.324   9.028
 1940POPC   C1A28803   9.714  24.722   8.862
 1940POPC   D2A28804   9.938  24.902   8.484
 1940POPC   C3A28805   9.861  24.751   8.048
 1940POPC   C4A28806  10.044  24.812   7.629
 1940POPC   C1B28807   9.699  24.234   8.726
 1940POPC   C2B28808   9.610  24.445   8.369
 1940POPC   C3B28809   9.429  24.398   7.961
 1940POPC   C4B28810   9.585  24.622   7.617
 1941POPC   NC328811  17.924   9.196   9.484
 1941POPC   PO428812  17.462   8.817   9.655
 1941POPC   GL128813  17.531   8.827   9.208
 1941POPC   GL228814  17.895   8.746   9.179
 1941POPC   C1A28815  17.429   8.772   8.755
 1941POPC   D2A28816  17.388   9.054   8.389
 1941POPC   C3A28817  17.286   8.799   8.052
 1941POPC   C4A28818  17.333   8.527   7.700
 1941POPC   C1B28819  17.855   9.051   8.824
 1941POPC   C2B28820  17.912   9.134   8.372
 1941POPC   C3B28821  17.744   9.027   7.968
 1941POPC   C4B28822  17.427   9.047   7.660
 1942POPC   NC328823  26.822  16.398   9.599
 1942POPC   PO428824  26.718  15.757   9.595
 1942POPC   GL128825  26.748  16.047   9.230
 1942POPC   GL228826  27.022  15.821   9.147
 1942POPC   C1A28827  26.587  16.266   8.806
 1942POPC   D2A28828  26.580  16.453   8.318
 1942POPC   C3A28829  26.790  16.184   7.977
 1942POPC   C4A28830  27.044  15.860   7.743
 1942POPC   C1B28831  26.674  15.625   8.908
 1942POPC   C2B28832  26.550  15.504   8.471
 1942POPC   C3B28833  26.744  15.608   8.078
 1942POPC   C4B28834  26.587  15.519   7.675
 1943POPC   NC328835  14.783  38.251   9.464
 1943POPC   PO428836  15.358  38.517   9.701
 1943POPC   GL128837  15.288  38.424   9.269
 1943POPC   GL228838  15.206  38.750   9.105
 1943POPC   C1A28839  15.203  38.306   8.848
 1943POPC   D2A28840  15.142  38.507   8.504
 1943POPC   C3A28841  14.936  38.270   8.207
 1943POPC   C4A28842  14.959  38.321   7.786
 1943POPC   C1B28843  14.926  38.936   8.774
 1943POPC   C2B28844  14.683  38.750   8.434
 1943POPC   C3B28845  14.606  38.644   8.017
 1943POPC   C4B28846  14.690  38.678   7.565
 1944POPC   NC328847   3.764  40.115   9.343
 1944POPC   PO428848   3.162  39.812   9.580
 1944POPC   GL128849   3.363  39.848   9.135
 1944POPC   GL228850   3.704  39.846   8.924
 1944POPC   C1A28851   3.245  39.929   8.698
 1944POPC   D2A28852   3.249  40.221   8.325
 1944POPC   C3A28853   3.328  40.025   7.942
 1944POPC   C4A28854   3.736  39.914   7.841
 1944POPC   C1B28855   4.022  40.056   8.664
 1944POPC   C2B28856   4.280  40.101   8.305
 1944POPC   C3B28857   4.049  40.310   7.983
 1944POPC   C4B28858   3.629  40.426   7.849
 1945POPC   NC328859  23.499  32.522   9.381
 1945POPC   PO428860  22.884  32.252   9.540
 1945POPC   GL128861  22.852  32.441   9.148
 1945POPC   GL228862  23.191  32.308   9.040
 1945POPC   C1A28863  22.804  32.353   8.705
 1945POPC   D2A28864  22.993  32.250   8.316
 1945POPC   C3A28865  22.748  32.206   7.944
 1945POPC   C4A28866  22.916  32.300   7.537
 1945POPC   C1B28867  23.225  31.977   8.711
 1945POPC   C2B28868  23.268  31.786   8.267
 1945POPC   C3B28869  23.245  32.043   7.866
 1945POPC   C4B28870  23.273  31.960   7.412
 1946POPC   NC328871  36.419  14.156   9.476
 1946POPC   PO428872  35.785  14.414   9.470
 1946POPC   GL128873  36.103  14.469   9.183
 1946POPC   GL228874  36.097  14.150   9.084
 1946POPC   C1A28875  36.362  14.502   8.812
 1946POPC   D2A28876  36.193  14.340   8.442
 1946POPC   C3A28877  36.303  14.443   8.024
 1946POPC   C4A28878  36.064  14.411   7.626
 1946POPC   C1B28879  35.914  13.906   8.762
 1946POPC   C2B28880  35.997  13.860   8.348
 1946POPC   C3B28881  35.786  13.942   7.961
 1946POPC   C4B28882  35.698  13.770   7.565
 1947POPC   NC328883  18.522  10.909   9.410
 1947POPC   PO428884  18.134  11.398   9.654
 1947POPC   GL128885  18.133  11.436   9.201
 1947POPC   GL228886  17.780  11.468   9.133
 1947POPC   C1A28887  18.331  11.213   8.851
 1947POPC   D2A28888  18.464  11.006   8.465
 1947POPC   C3A28889  18.368  11.217   8.086
 1947POPC   C4A28890  18.619  11.069   7.761
 1947POPC   C1B28891  17.894  11.561   8.744
 1947POPC   C2B28892  18.077  11.583   8.323
 1947POPC   C3B28893  17.982  11.754   7.913
 1947POPC   C4B28894  17.944  11.641   7.457
 1948POPC   NC328895  41.549  17.102   9.253
 1948POPC   PO428896  41.072  17.404   9.631
 1948POPC   GL128897  41.293  17.658   9.200
 1948POPC   GL228898  41.610  17.568   9.038
 1948POPC   C1A28899  41.254  17.586   8.677
 1948POPC   D2A28900  41.214  17.218   8.338
 1948POPC   C3A28901  41.458  17.237   7.942
 1948POPC   C4A28902  41.290  17.381   7.535
 1948POPC   C1B28903  41.946  17.593   8.708
 1948POPC   C2B28904  42.029  17.345   8.300
 1948POPC   C3B28905  41.951  17.463   7.862
 1948POPC   C4B28906  42.204  17.446   7.458
 1949POPC   NC328907  35.535  27.860   9.455
 1949POPC   PO428908  35.598  27.173   9.504
 1949POPC   GL128909  35.484  27.449   9.155
 1949POPC   GL228910  35.809  27.682   9.078
 1949POPC   C1A28911  35.257  27.383   8.757
 1949POPC   D2A28912  35.459  27.439   8.362
 1949POPC   C3A28913  35.470  27.229   8.035
 1949POPC   C4A28914  35.277  27.439   7.698
 1949POPC   C1B28915  35.487  27.812   8.777
 1949POPC   C2B28916  35.404  27.941   8.342
 1949POPC   C3B28917  35.241  27.884   7.938
 1949POPC   C4B28918  35.427  27.927   7.521
 1950POPC   NC328919  27.249  39.856   9.401
 1950POPC   PO428920  27.878  40.044   9.497
 1950POPC   GL128921  27.648  39.959   9.100
 1950POPC   GL228922  27.446  40.239   9.113
 1950POPC   C1A28923  27.448  40.005   8.667
 1950POPC   D2A28924  27.334  39.779   8.291
 1950POPC   C3A28925  27.726  39.755   8.071
 1950POPC   C4A28926  27.868  39.765   7.655
 1950POPC   C1B28927  27.152  40.394   8.788
 1950POPC   C2B28928  27.071  40.228   8.372
 1950POPC   C3B28929  27.236  40.265   7.955
 1950POPC   C4B28930  27.367  40.644   7.746
 1951POPC   NC328931  12.279  17.362   9.430
 1951POPC   PO428932  11.814  17.684   9.561
 1951POPC   GL128933  12.043  17.702   9.144
 1951POPC   GL228934  12.234  17.960   9.159
 1951POPC   C1A28935  12.392  17.649   8.779
 1951POPC   D2A28936  12.473  17.425   8.366
 1951POPC   C3A28937  12.289  17.597   7.980
 1951POPC   C4A28938  11.853  17.578   7.779
 1951POPC   C1B28939  11.976  17.965   8.716
 1951POPC   C2B28940  11.925  17.867   8.243
 1951POPC   C3B28941  12.004  18.053   7.815
 1951POPC   C4B28942  11.978  17.970   7.325
 1952POPC   NC328943  35.056  40.271   9.672
 1952POPC   PO428944  35.722  40.084   9.771
 1952POPC   GL128945  35.525  40.253   9.325
 1952POPC   GL228946  35.235  40.079   9.169
 1952POPC   C1A28947  35.457  40.409   8.843
 1952POPC   D2A28948  35.382  40.370   8.354
 1952POPC   C3A28949  35.488  40.091   7.973
 1952POPC   C4A28950  35.573  39.780   7.575
 1952POPC   C1B28951  35.259  39.960   8.684
 1952POPC   C2B28952  35.094  39.907   8.246
 1952POPC   C3B28953  35.102  39.757   7.785
 1952POPC   C4B28954  34.976  39.766   7.328
 1953POPC   NC328955  19.440  17.334   9.377
 1953POPC   PO428956  18.852  17.672   9.504
 1953POPC   GL128957  19.122  17.673   9.134
 1953POPC   GL228958  19.448  17.861   9.207
 1953POPC   C1A28959  19.113  17.337   8.792
 1953POPC   D2A28960  18.894  17.234   8.406
 1953POPC   C3A28961  18.918  17.477   8.026
 1953POPC   C4A28962  19.172  17.453   7.659
 1953POPC   C1B28963  19.326  18.023   8.814
 1953POPC   C2B28964  19.185  17.742   8.498
 1953POPC   C3B28965  19.370  17.652   8.135
 1953POPC   C4B28966  19.396  17.877   7.762
 1954POPC   NC328967  34.498   0.428   9.772
 1954POPC   PO428968  34.238   0.681   9.276
 1954POPC   GL128969  34.674   0.678   9.224
 1954POPC   GL228970  34.706   0.324   9.252
 1954POPC   C1A28971  34.825   0.631   8.799
 1954POPC   D2A28972  34.539   0.564   8.417
 1954POPC   C3A28973  34.609   0.459   7.973
 1954POPC   C4A28974  34.299   0.219   7.720
 1954POPC   C1B28975  34.775   0.127   8.863
 1954POPC   C2B28976  34.875   0.182   8.445
 1954POPC   C3B28977  34.952   0.074   8.061
 1954POPC   C4B28978  34.735  44.966   7.717
 1955POPC   NC328979   5.814   8.302   9.553
 1955POPC   PO428980   5.692   7.650   9.384
 1955POPC   GL128981   5.969   7.960   9.143
 1955POPC   GL228982   5.948   8.342   9.066
 1955POPC   C1A28983   6.206   8.014   8.744
 1955POPC   D2A28984   6.139   8.240   8.359
 1955POPC   C3A28985   5.810   8.071   8.111
 1955POPC   C4A28986   5.554   8.042   7.745
 1955POPC   C1B28987   5.849   8.544   8.681
 1955POPC   C2B28988   5.722   8.559   8.248
 1955POPC   C3B28989   5.774   8.500   7.808
 1955POPC   C4B28990   6.059   8.138   7.674
 1956POPC   NC328991  39.680  30.397   9.455
 1956POPC   PO428992  39.097  30.775   9.541
 1956POPC   GL128993  39.227  30.494   9.212
 1956POPC   GL228994  38.925  30.422   9.047
 1956POPC   C1A28995  39.410  30.539   8.786
 1956POPC   D2A28996  39.380  30.857   8.430
 1956POPC   C3A28997  39.337  30.761   7.989
 1956POPC   C4A28998  39.086  30.888   7.603
 1956POPC   C1B28999  38.924  30.296   8.627
 1956POPC   C2B29000  39.283  30.270   8.359
 1956POPC   C3B29001  39.425  30.255   7.952
 1956POPC   C4B29002  39.138  30.392   7.655
 1957POPC   NC329003  42.633  36.269   9.860
 1957POPC   PO429004  42.467  35.822   9.411
 1957POPC   GL129005  42.492  35.981   9.066
 1957POPC   GL229006  42.444  36.340   9.147
 1957POPC   C1A29007  42.742  35.857   8.711
 1957POPC   D2A29008  42.612  35.658   8.353
 1957POPC   C3A29009  42.365  35.877   8.047
 1957POPC   C4A29010  42.496  35.787   7.641
 1957POPC   C1B29011  42.296  36.257   8.711
 1957POPC   C2B29012  42.062  36.134   8.375
 1957POPC   C3B29013  42.097  36.366   7.999
 1957POPC   C4B29014  42.330  36.284   7.638
 1958POPC   NC329015  35.798  23.027   9.406
 1958POPC   PO429016  36.500  22.884   9.543
 1958POPC   GL129017  36.283  22.916   9.156
 1958POPC   GL229018  36.414  23.263   9.146
 1958POPC   C1A29019  36.121  22.798   8.732
 1958POPC   D2A29020  36.278  22.888   8.326
 1958POPC   C3A29021  36.036  23.021   7.977
 1958POPC   C4A29022  36.193  22.854   7.613
 1958POPC   C1B29023  36.476  23.201   8.730
 1958POPC   C2B29024  36.400  23.395   8.343
 1958POPC   C3B29025  36.490  23.229   7.951
 1958POPC   C4B29026  36.348  23.363   7.543
 1959POPC   NC329027   1.728  10.523   9.797
 1959POPC   PO429028   2.273  10.291   9.512
 1959POPC   GL129029   1.864  10.370   9.270
 1959POPC   GL229030   1.992  10.591   9.015
 1959POPC   C1A29031   1.759  10.197   8.829
 1959POPC   D2A29032   2.023  10.248   8.456
 1959POPC   C3A29033   1.845  10.326   8.056
 1959POPC   C4A29034   1.891  10.445   7.619
 1959POPC   C1B29035   2.215  10.901   8.745
 1959POPC   C2B29036   2.321  10.776   8.359
 1959POPC   C3B29037   2.311  10.985   8.005
 1959POPC   C4B29038   2.098  10.900   7.643
 1960POPC   NC329039  30.077  16.420   9.627
 1960POPC   PO429040  29.814  16.905   9.832
 1960POPC   GL129041  29.865  16.981   9.365
 1960POPC   GL229042  29.973  16.678   9.183
 1960POPC   C1A29043  29.810  17.086   8.902
 1960POPC   D2A29044  29.583  17.026   8.487
 1960POPC   C3A29045  29.812  16.914   8.089
 1960POPC   C4A29046  30.016  17.164   7.772
 1960POPC   C1B29047  29.820  16.584   8.754
 1960POPC   C2B29048  29.907  16.434   8.328
 1960POPC   C3B29049  30.131  16.430   7.925
 1960POPC   C4B29050  30.113  16.696   7.555
 1961POPC   NC329051  17.767   7.718   9.408
 1961POPC   PO429052  17.500   7.147   9.528
 1961POPC   GL129053  17.541   7.320   9.138
 1961POPC   GL229054  17.884   7.320   9.101
 1961POPC   C1A29055  17.498   7.499   8.735
 1961POPC   D2A29056  17.182   7.385   8.425
 1961POPC   C3A29057  17.315   7.268   8.004
 1961POPC   C4A29058  17.507   7.596   7.749
 1961POPC   C1B29059  17.889   7.102   8.732
 1961POPC   C2B29060  17.708   7.211   8.353
 1961POPC   C3B29061  17.844   7.272   7.940
 1961POPC   C4B29062  17.615   7.066   7.609
 1962POPC   NC329063  13.026  28.114   9.438
 1962POPC   PO429064  12.455  28.412   9.349
 1962POPC   GL129065  12.705  28.179   9.036
 1962POPC   GL229066  13.070  28.348   8.996
 1962POPC   C1A29067  12.748  28.272   8.585
 1962POPC   D2A29068  13.122  28.391   8.322
 1962POPC   C3A29069  12.966  28.510   7.890
 1962POPC   C4A29070  12.604  28.508   7.579
 1962POPC   C1B29071  13.130  27.997   8.752
 1962POPC   C2B29072  13.287  27.909   8.330
 1962POPC   C3B29073  13.055  28.006   7.978
 1962POPC   C4B29074  13.153  27.749   7.694
 1963POPC   NC329075  34.391  31.570   9.503
 1963POPC   PO429076  34.611  30.898   9.486
 1963POPC   GL129077  34.466  31.240   9.144
 1963POPC   GL229078  34.709  31.493   9.085
 1963POPC   C1A29079  34.409  31.428   8.690
 1963POPC   D2A29080  34.570  31.619   8.305
 1963POPC   C3A29081  34.824  31.365   8.023
 1963POPC   C4A29082  34.595  31.185   7.668
 1963POPC   C1B29083  34.875  31.729   8.714
 1963POPC   C2B29084  35.030  31.888   8.319
 1963POPC   C3B29085  34.848  31.905   7.911
 1963POPC   C4B29086  34.851  31.614   7.573
 1964POPC   NC329087  22.562  17.678   9.863
 1964POPC   PO429088  22.916  17.563   9.323
 1964POPC   GL129089  22.819  17.527   8.947
 1964POPC   GL229090  23.132  17.385   8.875
 1964POPC   C1A29091  22.542  17.519   8.580
 1964POPC   D2A29092  22.504  17.233   8.252
 1964POPC   C3A29093  22.819  17.390   7.959
 1964POPC   C4A29094  23.072  17.222   7.667
 1964POPC   C1B29095  23.133  17.716   8.581
 1964POPC   C2B29096  22.937  17.828   8.207
 1964POPC   C3B29097  23.111  17.928   7.801
 1964POPC   C4B29098  22.971  18.012   7.356
 1965POPC   NC329099  14.813  27.919   9.467
 1965POPC   PO429100  14.218  27.634   9.452
 1965POPC   GL129101  14.313  27.626   9.043
 1965POPC   GL229102  14.632  27.686   9.057
 1965POPC   C1A29103  14.382  27.449   8.651
 1965POPC   D2A29104  14.358  27.657   8.271
 1965POPC   C3A29105  14.486  27.370   7.955
 1965POPC   C4A29106  14.813  27.486   7.703
 1965POPC   C1B29107  14.492  27.945   8.683
 1965POPC   C2B29108  14.712  28.083   8.308
 1965POPC   C3B29109  14.619  27.934   7.903
 1965POPC   C4B29110  14.224  27.780   7.755
 1966POPC   NC329111  44.060  12.154   9.751
 1966POPC   PO429112  43.486  11.920   9.618
 1966POPC   GL129113  43.860  11.909   9.322
 1966POPC   GL229114  44.019  12.227   9.249
 1966POPC   C1A29115  43.848  11.925   8.853
 1966POPC   D2A29116  43.603  12.073   8.499
 1966POPC   C3A29117  43.753  11.938   8.121
 1966POPC   C4A29118  43.870  11.999   7.732
 1966POPC   C1B29119  44.202  12.306   8.842
 1966POPC   C2B29120  44.167  12.139   8.420
 1966POPC   C3B29121  44.172  12.306   7.980
 1966POPC   C4B29122  44.299  12.423   7.531
 1967POPC   NC329123   9.382  30.247   9.403
 1967POPC   PO429124   8.764  30.012   9.180
 1967POPC   GL129125   8.865  30.402   9.058
 1967POPC   GL229126   8.599  30.660   9.086
 1967POPC   C1A29127   8.895  30.482   8.630
 1967POPC   D2A29128   9.022  30.325   8.229
 1967POPC   C3A29129   8.927  30.588   7.880
 1967POPC   C4A29130   9.259  30.637   7.549
 1967POPC   C1B29131   8.556  30.878   8.673
 1967POPC   C2B29132   8.495  30.945   8.207
 1967POPC   C3B29133   8.707  31.171   7.865
 1967POPC   C4B29134   8.924  31.005   7.522
 1968POPC   NC329135  10.328   0.194   9.729
 1968POPC   PO429136   9.751   0.544   9.394
 1968POPC   GL129137   9.650   0.442   8.986
 1968POPC   GL229138   9.901   0.282   8.795
 1968POPC   C1A29139   9.416   0.264   8.639
 1968POPC   D2A29140   9.569   0.000   8.302
 1968POPC   C3A29141   9.826   0.253   8.015
 1968POPC   C4A29142   9.719   0.465   7.627
 1968POPC   C1B29143  10.037   0.645   8.517
 1968POPC   C2B29144  10.219   0.691   8.086
 1968POPC   C3B29145  10.211   0.432   7.713
 1968POPC   C4B29146  10.097   0.453   7.276
 1969POPC   NC329147  27.567  29.288   9.681
 1969POPC   PO429148  27.956  28.933   9.496
 1969POPC   GL129149  27.536  29.027   9.241
 1969POPC   GL229150  27.456  29.393   9.164
 1969POPC   C1A29151  27.380  29.028   8.789
 1969POPC   D2A29152  27.495  29.227   8.395
 1969POPC   C3A29153  27.274  29.165   7.998
 1969POPC   C4A29154  27.223  28.793   7.739
 1969POPC   C1B29155  27.210  29.521   8.772
 1969POPC   C2B29156  27.209  29.643   8.308
 1969POPC   C3B29157  27.592  29.584   8.042
 1969POPC   C4B29158  27.757  29.241   7.793
 1970POPC   NC329159   8.846  40.942   9.818
 1970POPC   PO429160   9.310  40.572   9.435
 1970POPC   GL129161   9.082  40.727   9.130
 1970POPC   GL229162   8.863  40.997   9.266
 1970POPC   C1A29163   8.840  40.568   8.800
 1970POPC   D2A29164   8.824  40.744   8.420
 1970POPC   C3A29165   8.904  40.445   8.106
 1970POPC   C4A29166   9.280  40.461   7.863
 1970POPC   C1B29167   8.951  41.117   8.824
 1970POPC   C2B29168   8.902  41.265   8.399
 1970POPC   C3B29169   9.086  41.039   8.076
 1970POPC   C4B29170   8.844  40.849   7.765
 1971POPC   NC329171  17.679  24.532   9.424
 1971POPC   PO429172  17.021  24.419   9.453
 1971POPC   GL129173  17.256  24.663   9.144
 1971POPC   GL229174  17.386  24.315   9.038
 1971POPC   C1A29175  17.522  24.728   8.761
 1971POPC   D2A29176  17.480  24.413   8.433
 1971POPC   C3A29177  17.551  24.566   8.004
 1971POPC   C4A29178  17.329  24.502   7.600
 1971POPC   C1B29179  17.808  24.311   8.846
 1971POPC   C2B29180  17.974  24.521   8.513
 1971POPC   C3B29181  17.911  24.234   8.190
 1971POPC   C4B29182  17.906  24.181   7.764
 1972POPC   NC329183   4.051  38.650   9.805
 1972POPC   PO429184   4.536  38.269   9.863
 1972POPC   GL129185   4.317  38.469   9.408
 1972POPC   GL229186   4.539  38.423   9.145
 1972POPC   C1A29187   4.131  38.624   8.939
 1972POPC   D2A29188   4.112  38.445   8.466
 1972POPC   C3A29189   4.288  38.469   8.017
 1972POPC   C4A29190   4.424  38.388   7.586
 1972POPC   C1B29191   4.546  38.372   8.722
 1972POPC   C2B29192   4.620  38.240   8.331
 1972POPC   C3B29193   4.503  38.024   7.961
 1972POPC   C4B29194   4.749  37.976   7.624
 1973POPC   NC329195  20.821   9.801   9.444
 1973POPC   PO429196  20.098   9.590   9.429
 1973POPC   GL129197  20.410   9.701   9.105
 1973POPC   GL229198  20.671   9.479   9.096
 1973POPC   C1A29199  20.637   9.774   8.689
 1973POPC   D2A29200  20.738  10.107   8.405
 1973POPC   C3A29201  20.439  10.057   8.088
 1973POPC   C4A29202  20.528  10.010   7.640
 1973POPC   C1B29203  20.827   9.248   8.746
 1973POPC   C2B29204  20.956   9.350   8.324
 1973POPC   C3B29205  20.744   9.638   8.060
 1973POPC   C4B29206  20.638   9.518   7.667
 1974POPC   NC329207  28.279  27.413   9.554
 1974POPC   PO429208  28.765  27.730   9.514
 1974POPC   GL129209  28.520  27.673   9.144
 1974POPC   GL229210  28.480  27.342   9.070
 1974POPC   C1A29211  28.379  27.743   8.702
 1974POPC   D2A29212  28.472  27.570   8.297
 1974POPC   C3A29213  28.296  27.771   7.927
 1974POPC   C4A29214  28.072  28.021   7.611
 1974POPC   C1B29215  28.311  27.234   8.658
 1974POPC   C2B29216  28.249  27.125   8.212
 1974POPC   C3B29217  28.032  27.333   7.883
 1974POPC   C4B29218  27.912  27.558   7.505
 1975POPC   NC329219  44.814  34.884   9.516
 1975POPC   PO429220  44.720  35.560   9.456
 1975POPC   GL129221  44.650  35.316   9.106
 1975POPC   GL229222  44.926  35.078   9.038
 1975POPC   C1A29223  44.709  35.483   8.693
 1975POPC   D2A29224  44.488  35.619   8.326
 1975POPC   C3A29225  44.682  35.496   7.980
 1975POPC   C4A29226  44.457  35.146   7.787
 1975POPC   C1B29227  44.653  34.981   8.673
 1975POPC   C2B29228  44.692  35.039   8.236
 1975POPC   C3B29229  44.953  35.039   7.855
 1975POPC   C4B29230  44.783  34.879   7.471
 1976POPC   NC329231  30.033   7.857   9.834
 1976POPC   PO429232  29.531   7.493   9.516
 1976POPC   GL129233  29.765   7.422   9.117
 1976POPC   GL229234  30.080   7.248   9.125
 1976POPC   C1A29235  29.980   7.539   8.720
 1976POPC   D2A29236  30.222   7.527   8.360
 1976POPC   C3A29237  29.993   7.502   7.991
 1976POPC   C4A29238  29.889   7.685   7.599
 1976POPC   C1B29239  30.209   7.085   8.741
 1976POPC   C2B29240  30.006   7.078   8.336
 1976POPC   C3B29241  30.159   7.020   7.943
 1976POPC   C4B29242  29.944   7.181   7.602
 1977POPC   NC329243   3.825   9.744   9.579
 1977POPC   PO429244   3.167   9.843   9.512
 1977POPC   GL129245   3.348   9.733   9.130
 1977POPC   GL229246   3.574   9.445   9.152
 1977POPC   C1A29247   3.655   9.826   8.791
 1977POPC   D2A29248   3.689   9.658   8.377
 1977POPC   C3A29249   3.444   9.872   8.080
 1977POPC   C4A29250   3.429  10.039   7.685
 1977POPC   C1B29251   3.355   9.431   8.711
 1977POPC   C2B29252   3.224   9.449   8.270
 1977POPC   C3B29253   3.426   9.433   7.833
 1977POPC   C4B29254   3.488   9.199   7.414
 1978POPC   NC329255  19.252   9.660   9.733
 1978POPC   PO429256  18.770   9.996   9.428
 1978POPC   GL129257  19.096   9.924   9.152
 1978POPC   GL229258  19.185   9.578   9.200
 1978POPC   C1A29259  19.084   9.787   8.726
 1978POPC   D2A29260  19.112  10.027   8.360
 1978POPC   C3A29261  18.832  10.094   8.062
 1978POPC   C4A29262  18.953  10.009   7.651
 1978POPC   C1B29263  19.276   9.320   8.790
 1978POPC   C2B29264  19.342   9.434   8.322
 1978POPC   C3B29265  19.105   9.627   7.962
 1978POPC   C4B29266  19.062   9.527   7.496
 1979POPC   NC329267  12.542  39.381   9.494
 1979POPC   PO429268  11.995  39.045   9.481
 1979POPC   GL129269  12.250  39.150   9.127
 1979POPC   GL229270  12.237  39.535   9.111
 1979POPC   C1A29271  12.228  39.260   8.671
 1979POPC   D2A29272  11.847  39.226   8.376
 1979POPC   C3A29273  12.001  39.088   7.976
 1979POPC   C4A29274  12.431  39.234   7.907
 1979POPC   C1B29275  11.973  39.691   8.762
 1979POPC   C2B29276  12.067  39.708   8.314
 1979POPC   C3B29277  12.053  39.613   7.870
 1979POPC   C4B29278  11.879  39.773   7.460
 1980POPC   NC329279  20.918  31.745   9.471
 1980POPC   PO429280  20.587  31.140   9.545
 1980POPC   GL129281  20.579  31.411   9.156
 1980POPC   GL229282  20.639  31.739   9.053
 1980POPC   C1A29283  20.608  31.319   8.718
 1980POPC   D2A29284  20.318  31.189   8.376
 1980POPC   C3A29285  20.410  31.389   8.007
 1980POPC   C4A29286  20.655  31.461   7.654
 1980POPC   C1B29287  20.430  31.828   8.685
 1980POPC   C2B29288  20.644  31.748   8.328
 1980POPC   C3B29289  20.726  31.899   7.933
 1980POPC   C4B29290  20.712  31.965   7.480
 1981POPC   NC329291  32.656   0.128   9.286
 1981POPC   PO429292  32.386  44.656   9.704
 1981POPC   GL129293  32.475  44.602   9.269
 1981POPC   GL229294  32.151  44.508   9.118
 1981POPC   C1A29295  32.498  44.725   8.809
 1981POPC   D2A29296  32.387  44.823   8.389
 1981POPC   C3A29297  32.493  44.565   8.033
 1981POPC   C4A29298  32.331  44.177   7.851
 1981POPC   C1B29299  32.025  44.588   8.691
 1981POPC   C2B29300  31.918  44.621   8.262
 1981POPC   C3B29301  31.808  44.394   7.909
 1981POPC   C4B29302  32.091  44.617   7.727
 1982POPC   NC329303  14.953   7.098   9.443
 1982POPC   PO429304  15.183   7.793   9.345
 1982POPC   GL129305  15.363   7.484   9.055
 1982POPC   GL229306  15.223   7.130   9.002
 1982POPC   C1A29307  15.421   7.485   8.640
 1982POPC   D2A29308  15.207   7.393   8.293
 1982POPC   C3A29309  15.284   7.633   7.942
 1982POPC   C4A29310  15.685   7.583   7.805
 1982POPC   C1B29311  14.888   7.438   8.838
 1982POPC   C2B29312  14.796   7.628   8.443
 1982POPC   C3B29313  14.785   7.453   8.034
 1982POPC   C4B29314  14.922   7.134   7.741
 1983POPC   NC329315  14.161  19.226   9.467
 1983POPC   PO429316  14.537  18.732   9.444
 1983POPC   GL129317  14.484  18.883   9.074
 1983POPC   GL229318  14.604  19.189   9.141
 1983POPC   C1A29319  14.202  19.039   8.801
 1983POPC   D2A29320  14.233  19.247   8.426
 1983POPC   C3A29321  14.534  19.090   8.122
 1983POPC   C4A29322  14.637  18.949   7.696
 1983POPC   C1B29323  14.668  19.326   8.738
 1983POPC   C2B29324  14.527  19.670   8.476
 1983POPC   C3B29325  14.314  19.611   8.067
 1983POPC   C4B29326  14.619  19.476   7.769
 1984POPC   NC329327  36.295   8.625  10.194
 1984POPC   PO429328  36.020   8.813   9.580
 1984POPC   GL129329  35.799   8.957   9.147
 1984POPC   GL229330  35.734   9.307   9.181
 1984POPC   C1A29331  35.804   8.897   8.683
 1984POPC   D2A29332  36.154   9.049   8.410
 1984POPC   C3A29333  36.220   9.056   7.941
 1984POPC   C4A29334  36.612   8.990   7.699
 1984POPC   C1B29335  35.858   9.389   8.737
 1984POPC   C2B29336  35.714   9.282   8.319
 1984POPC   C3B29337  35.839   9.393   7.902
 1984POPC   C4B29338  36.091   9.354   7.519
 1985POPC   NC329339  13.442   5.864   9.613
 1985POPC   PO429340  13.865   6.353   9.526
 1985POPC   GL129341  13.704   6.051   9.179
 1985POPC   GL229342  13.993   5.912   8.988
 1985POPC   C1A29343  13.560   5.988   8.722
 1985POPC   D2A29344  13.489   6.260   8.319
 1985POPC   C3A29345  13.414   5.963   7.969
 1985POPC   C4A29346  13.683   5.786   7.673
 1985POPC   C1B29347  13.887   5.564   8.675
 1985POPC   C2B29348  13.850   5.584   8.215
 1985POPC   C3B29349  14.020   5.447   7.815
 1985POPC   C4B29350  14.004   5.566   7.340
 1986POPC   NC329351   9.610  25.631   9.526
 1986POPC   PO429352   9.485  24.994   9.727
 1986POPC   GL129353   9.565  25.083   9.245
 1986POPC   GL229354   9.799  25.363   9.139
 1986POPC   C1A29355   9.520  25.173   8.768
 1986POPC   D2A29356   9.605  25.279   8.312
 1986POPC   C3A29357   9.493  25.086   7.884
 1986POPC   C4A29358   9.329  25.043   7.438
 1986POPC   C1B29359   9.813  25.648   8.783
 1986POPC   C2B29360   9.763  25.785   8.353
 1986POPC   C3B29361   9.790  25.594   7.964
 1986POPC   C4B29362   9.530  25.542   7.636
 1987POPC   NC329363   7.658   4.518   9.579
 1987POPC   PO429364   7.250   4.917   9.516
 1987POPC   GL129365   7.282   4.949   9.083
 1987POPC   GL229366   7.472   4.659   9.052
 1987POPC   C1A29367   7.296   5.047   8.640
 1987POPC   D2A29368   7.285   5.074   8.184
 1987POPC   C3A29369   7.300   5.150   7.733
 1987POPC   C4A29370   7.534   5.342   7.393
 1987POPC   C1B29371   7.726   4.755   8.682
 1987POPC   C2B29372   7.755   4.942   8.304
 1987POPC   C3B29373   7.604   4.757   7.921
 1987POPC   C4B29374   7.803   4.952   7.611
 1988POPC   NC329375   7.028   3.866   9.409
 1988POPC   PO429376   6.757   3.270   9.654
 1988POPC   GL129377   6.711   3.411   9.187
 1988POPC   GL229378   6.585   3.744   9.119
 1988POPC   C1A29379   6.867   3.557   8.740
 1988POPC   D2A29380   6.680   3.798   8.366
 1988POPC   C3A29381   6.801   3.686   7.940
 1988POPC   C4A29382   6.700   3.539   7.524
 1988POPC   C1B29383   6.350   3.656   8.728
 1988POPC   C2B29384   6.199   3.481   8.347
 1988POPC   C3B29385   6.326   3.526   7.917
 1988POPC   C4B29386   6.380   3.928   7.670
 1989POPC   NC329387  25.257  26.206   9.480
 1989POPC   PO429388  25.185  25.528   9.292
 1989POPC   GL129389  25.335  25.832   9.037
 1989POPC   GL229390  25.115  26.113   9.022
 1989POPC   C1A29391  25.429  25.785   8.592
 1989POPC   D2A29392  25.500  26.084   8.267
 1989POPC   C3A29393  25.299  25.966   7.931
 1989POPC   C4A29394  25.475  25.640   7.690
 1989POPC   C1B29395  25.314  26.279   8.696
 1989POPC   C2B29396  25.034  26.112   8.432
 1989POPC   C3B29397  24.807  26.189   8.105
 1989POPC   C4B29398  24.946  26.280   7.699
 1990POPC   NC329399  40.463  12.463   9.342
 1990POPC   PO429400  40.795  13.076   9.589
 1990POPC   GL129401  40.708  12.992   9.105
 1990POPC   GL229402  40.385  12.919   9.175
 1990POPC   C1A29403  40.833  12.709   8.711
 1990POPC   D2A29404  41.107  12.583   8.367
 1990POPC   C3A29405  40.898  12.510   7.944
 1990POPC   C4A29406  40.826  12.774   7.565
 1990POPC   C1B29407  40.376  12.960   8.710
 1990POPC   C2B29408  40.604  12.931   8.318
 1990POPC   C3B29409  40.475  12.840   7.938
 1990POPC   C4B29410  40.388  13.063   7.600
 1991POPC   NC329411  18.296   8.513   9.437
 1991POPC   PO429412  18.382   9.123   9.412
 1991POPC   GL129413  18.413   8.871   9.078
 1991POPC   GL229414  18.715   8.641   9.142
 1991POPC   C1A29415  18.349   9.009   8.653
 1991POPC   D2A29416  18.469   9.302   8.306
 1991POPC   C3A29417  18.215   9.262   7.932
 1991POPC   C4A29418  18.156   8.856   7.711
 1991POPC   C1B29419  18.509   8.494   8.758
 1991POPC   C2B29420  18.285   8.588   8.353
 1991POPC   C3B29421  18.559   8.605   7.986
 1991POPC   C4B29422  18.642   8.804   7.598
 1992POPC   NC329423  10.823   3.003   9.379
 1992POPC   PO429424  10.119   3.008   9.509
 1992POPC   GL129425  10.323   2.817   9.196
 1992POPC   GL229426  10.518   2.534   9.316
 1992POPC   C1A29427  10.374   2.920   8.770
 1992POPC   D2A29428  10.231   2.960   8.362
 1992POPC   C3A29429  10.515   2.903   8.018
 1992POPC   C4A29430  10.475   2.845   7.592
 1992POPC   C1B29431  10.526   2.440   8.865
 1992POPC   C2B29432  10.614   2.595   8.430
 1992POPC   C3B29433  10.603   2.413   8.007
 1992POPC   C4B29434  10.807   2.465   7.587
 1993POPC   NC329435  17.057  41.743   9.417
 1993POPC   PO429436  17.493  41.229   9.594
 1993POPC   GL129437  17.484  41.427   9.204
 1993POPC   GL229438  17.199  41.301   9.126
 1993POPC   C1A29439  17.691  41.558   8.808
 1993POPC   D2A29440  17.538  41.801   8.485
 1993POPC   C3A29441  17.519  41.664   8.092
 1993POPC   C4A29442  17.428  41.757   7.688
 1993POPC   C1B29443  17.206  41.406   8.707
 1993POPC   C2B29444  17.281  41.246   8.294
 1993POPC   C3B29445  17.160  41.355   7.878
 1993POPC   C4B29446  17.188  41.386   7.424
 1994POPC   NC329447  20.670  41.864   9.803
 1994POPC   PO429448  20.677  42.494   9.623
 1994POPC   GL129449  20.715  42.388   9.223
 1994POPC   GL229450  20.494  42.115   9.218
 1994POPC   C1A29451  20.823  42.312   8.799
 1994POPC   D2A29452  20.696  42.251   8.370
 1994POPC   C3A29453  20.480  42.489   8.034
 1994POPC   C4A29454  20.700  42.199   7.739
 1994POPC   C1B29455  20.312  42.251   8.811
 1994POPC   C2B29456  20.178  42.250   8.394
 1994POPC   C3B29457  20.297  42.021   8.073
 1994POPC   C4B29458  20.177  42.203   7.716
 1995POPC   NC329459  14.996  24.681   9.264
 1995POPC   PO429460  15.430  24.345   9.638
 1995POPC   GL129461  15.342  24.336   9.154
 1995POPC   GL229462  15.617  24.366   9.058
 1995POPC   C1A29463  15.274  24.532   8.697
 1995POPC   D2A29464  15.228  24.703   8.267
 1995POPC   C3A29465  15.269  24.489   7.861
 1995POPC   C4A29466  14.956  24.250   7.612
 1995POPC   C1B29467  15.552  24.112   8.712
 1995POPC   C2B29468  15.738  24.147   8.332
 1995POPC   C3B29469  15.592  24.064   7.960
 1995POPC   C4B29470  15.447  24.118   7.545
 1996POPC   NC329471  32.268   2.317   9.582
 1996POPC   PO429472  32.369   2.941   9.651
 1996POPC   GL129473  32.202   2.893   9.246
 1996POPC   GL229474  32.128   2.552   9.144
 1996POPC   C1A29475  32.243   2.963   8.808
 1996POPC   D2A29476  32.444   2.967   8.422
 1996POPC   C3A29477  32.258   2.941   8.028
 1996POPC   C4A29478  32.340   2.989   7.580
 1996POPC   C1B29479  32.353   2.442   8.753
 1996POPC   C2B29480  32.614   2.484   8.355
 1996POPC   C3B29481  32.638   2.412   7.936
 1996POPC   C4B29482  32.257   2.496   7.771
 1997POPC   NC329483   5.297  20.775   9.315
 1997POPC   PO429484   5.913  20.593   9.641
 1997POPC   GL129485   5.793  20.562   9.209
 1997POPC   GL229486   5.624  20.299   9.074
 1997POPC   C1A29487   5.988  20.486   8.795
 1997POPC   D2A29488   5.962  20.217   8.432
 1997POPC   C3A29489   6.117  20.552   8.166
 1997POPC   C4A29490   6.058  20.655   7.753
 1997POPC   C1B29491   5.511  20.411   8.688
 1997POPC   C2B29492   5.635  20.587   8.311
 1997POPC   C3B29493   5.551  20.394   7.914
 1997POPC   C4B29494   5.619  20.504   7.478
 1998POPC   NC329495  13.820   7.692   9.780
 1998POPC   PO429496  13.508   7.315   9.344
 1998POPC   GL129497  13.624   7.694   9.135
 1998POPC   GL229498  13.303   7.859   9.008
 1998POPC   C1A29499  13.942   7.619   8.793
 1998POPC   D2A29500  13.837   7.433   8.422
 1998POPC   C3A29501  13.989   7.627   8.053
 1998POPC   C4A29502  13.773   7.547   7.713
 1998POPC   C1B29503  13.389   7.452   8.751
 1998POPC   C2B29504  13.353   7.181   8.448
 1998POPC   C3B29505  13.514   7.239   8.072
 1998POPC   C4B29506  13.353   7.189   7.706
 1999POPC   NC329507  14.152  18.503   9.271
 1999POPC   PO429508  14.335  18.066   9.771
 1999POPC   GL129509  14.501  18.033   9.215
 1999POPC   GL229510  14.220  18.104   8.913
 1999POPC   C1A29511  14.652  18.135   8.712
 1999POPC   D2A29512  14.344  18.085   8.341
 1999POPC   C3A29513  14.527  18.200   7.927
 1999POPC   C4A29514  14.593  18.138   7.457
 1999POPC   C1B29515  14.274  18.511   8.663
 1999POPC   C2B29516  14.042  18.742   8.371
 1999POPC   C3B29517  14.125  18.525   8.012
 1999POPC   C4B29518  14.141  18.336   7.600
 2000POPC   NC329519   7.308  26.433   9.483
 2000POPC   PO429520   7.730  27.000   9.341
 2000POPC   GL129521   7.555  26.781   9.008
 2000POPC   GL229522   7.210  26.678   9.015
 2000POPC   C1A29523   7.606  26.594   8.632
 2000POPC   D2A29524   7.676  26.821   8.288
 2000POPC   C3A29525   7.266  26.848   8.096
 2000POPC   C4A29526   7.180  26.556   7.792
 2000POPC   C1B29527   7.244  26.992   8.622
 2000POPC   C2B29528   7.459  27.272   8.311
 2000POPC   C3B29529   7.624  27.158   7.873
 2000POPC   C4B29530   7.559  27.058   7.428
 2001POPC   NC329531   5.304   9.055   9.881
 2001POPC   PO429532   5.644   8.704   9.372
 2001POPC   GL129533   5.439   8.673   9.024
 2001POPC   GL229534   5.124   8.735   9.193
 2001POPC   C1A29535   5.338   8.583   8.610
 2001POPC   D2A29536   5.225   8.900   8.347
 2001POPC   C3A29537   5.409   8.903   7.963
 2001POPC   C4A29538   5.278   8.713   7.589
 2001POPC   C1B29539   5.069   9.021   8.856
 2001POPC   C2B29540   4.927   9.271   8.544
 2001POPC   C3B29541   4.869   9.209   8.123
 2001POPC   C4B29542   5.056   9.200   7.722
 2002POPC   NC329543  11.579  22.604   9.669
 2002POPC   PO429544  11.323  22.057   9.472
 2002POPC   GL129545  11.535  22.032   9.063
 2002POPC   GL229546  11.515  22.351   9.053
 2002POPC   C1A29547  11.526  22.099   8.605
 2002POPC   D2A29548  11.234  21.972   8.274
 2002POPC   C3A29549  11.440  21.854   7.854
 2002POPC   C4A29550  11.731  22.190   7.798
 2002POPC   C1B29551  11.102  22.363   8.750
 2002POPC   C2B29552  10.745  22.374   8.488
 2002POPC   C3B29553  10.859  22.412   8.072
 2002POPC   C4B29554  11.191  22.281   7.811
 2003POPC   NC329555  18.619  18.839   9.284
 2003POPC   PO429556  19.291  19.055   9.513
 2003POPC   GL129557  19.333  18.886   9.109
 2003POPC   GL229558  19.020  19.061   9.059
 2003POPC   C1A29559  19.289  18.913   8.648
 2003POPC   D2A29560  19.446  19.214   8.353
 2003POPC   C3A29561  19.365  19.131   7.969
 2003POPC   C4A29562  19.143  19.324   7.682
 2003POPC   C1B29563  18.832  19.159   8.659
 2003POPC   C2B29564  18.886  19.245   8.220
 2003POPC   C3B29565  18.684  19.199   7.819
 2003POPC   C4B29566  18.864  18.936   7.455
 2004POPC   NC329567  39.432  14.088   9.673
 2004POPC   PO429568  39.309  13.417   9.498
 2004POPC   GL129569  39.231  13.561   9.109
 2004POPC   GL229570  39.426  13.871   9.069
 2004POPC   C1A29571  38.966  13.431   8.761
 2004POPC   D2A29572  38.896  13.570   8.327
 2004POPC   C3A29573  39.216  13.663   8.041
 2004POPC   C4A29574  39.429  13.920   7.750
 2004POPC   C1B29575  39.387  13.709   8.645
 2004POPC   C2B29576  39.399  13.302   8.478
 2004POPC   C3B29577  39.553  13.275   8.091
 2004POPC   C4B29578  39.616  13.456   7.675
 2005POPC   NC329579  17.598  13.666   9.865
 2005POPC   PO429580  17.312  13.450   9.349
 2005POPC   GL129581  17.615  13.589   9.084
 2005POPC   GL229582  17.325  13.675   8.892
 2005POPC   C1A29583  17.724  13.503   8.646
 2005POPC   D2A29584  17.905  13.731   8.340
 2005POPC   C3A29585  17.757  13.610   7.943
 2005POPC   C4A29586  17.754  13.764   7.517
 2005POPC   C1B29587  17.279  14.000   8.642
 2005POPC   C2B29588  17.367  13.809   8.285
 2005POPC   C3B29589  17.160  13.867   7.960
 2005POPC   C4B29590  17.249  13.807   7.563
 2006POPC   NC329591  25.000   6.502   9.584
 2006POPC   PO429592  25.449   7.023   9.424
 2006POPC   GL129593  25.206   6.996   9.092
 2006POPC   GL229594  25.235   6.629   9.090
 2006POPC   C1A29595  25.348   6.925   8.668
 2006POPC   D2A29596  25.181   6.680   8.342
 2006POPC   C3A29597  25.320   6.768   7.949
 2006POPC   C4A29598  25.019   7.020   7.714
 2006POPC   C1B29599  25.425   6.397   8.709
 2006POPC   C2B29600  25.454   6.261   8.241
 2006POPC   C3B29601  25.123   6.309   7.922
 2006POPC   C4B29602  25.451   6.296   7.680
 2007POPC   NC329603  15.999  21.134   9.562
 2007POPC   PO429604  16.242  21.822   9.495
 2007POPC   GL129605  16.231  21.584   9.082
 2007POPC   GL229606  16.026  21.270   9.085
 2007POPC   C1A29607  16.043  21.493   8.627
 2007POPC   D2A29608  15.620  21.471   8.389
 2007POPC   C3A29609  15.655  21.598   7.941
 2007POPC   C4A29610  16.064  21.733   7.729
 2007POPC   C1B29611  15.730  21.105   8.785
 2007POPC   C2B29612  15.860  21.030   8.353
 2007POPC   C3B29613  16.026  21.201   7.967
 2007POPC   C4B29614  15.868  21.300   7.550
 2008POPC   NC329615  36.427  18.442   9.292
 2008POPC   PO429616  36.148  19.096   9.524
 2008POPC   GL129617  36.103  19.092   9.146
 2008POPC   GL229618  36.019  18.766   9.118
 2008POPC   C1A29619  36.297  19.056   8.766
 2008POPC   D2A29620  36.339  19.219   8.380
 2008POPC   C3A29621  36.319  18.939   8.046
 2008POPC   C4A29622  36.467  19.043   7.663
 2008POPC   C1B29623  35.764  18.947   8.791
 2008POPC   C2B29624  35.815  19.154   8.442
 2008POPC   C3B29625  35.816  19.024   8.045
 2008POPC   C4B29626  35.953  18.896   7.650
 2009POPC   NC329627  14.870  42.801   9.383
 2009POPC   PO429628  14.392  42.396   9.533
 2009POPC   GL129629  14.419  42.240   9.135
 2009POPC   GL229630  14.078  42.194   9.126
 2009POPC   C1A29631  14.694  42.259   8.778
 2009POPC   D2A29632  14.576  42.444   8.388
 2009POPC   C3A29633  14.596  42.327   7.950
 2009POPC   C4A29634  14.580  42.340   7.497
 2009POPC   C1B29635  14.094  42.606   8.931
 2009POPC   C2B29636  14.125  42.697   8.499
 2009POPC   C3B29637  14.098  42.397   8.175
 2009POPC   C4B29638  14.112  42.214   7.795
 2010POPC   NC329639   4.945  10.934   9.461
 2010POPC   PO429640   5.348  11.512   9.461
 2010POPC   GL129641   5.209  11.257   9.175
 2010POPC   GL229642   4.878  11.381   9.197
 2010POPC   C1A29643   5.206  11.088   8.782
 2010POPC   D2A29644   5.302  11.263   8.404
 2010POPC   C3A29645   5.114  11.233   7.978
 2010POPC   C4A29646   5.309  11.142   7.615
 2010POPC   C1B29647   4.894  11.509   8.769
 2010POPC   C2B29648   4.831  11.448   8.336
 2010POPC   C3B29649   4.934  11.700   7.951
 2010POPC   C4B29650   4.961  11.510   7.535
 2011POPC   NC329651   1.874  38.408   9.416
 2011POPC   PO429652   2.205  38.958   9.620
 2011POPC   GL129653   2.203  38.664   9.141
 2011POPC   GL229654   2.509  38.666   8.931
 2011POPC   C1A29655   1.855  38.501   8.786
 2011POPC   D2A29656   1.774  38.211   8.482
 2011POPC   C3A29657   1.937  38.295   8.088
 2011POPC   C4A29658   1.844  38.237   7.661
 2011POPC   C1B29659   2.153  38.891   8.689
 2011POPC   C2B29660   1.963  38.808   8.266
 2011POPC   C3B29661   1.910  38.746   7.825
 2011POPC   C4B29662   2.032  38.743   7.379
 2012POPC   NC329663  35.174   3.128   9.719
 2012POPC   PO429664  35.114   2.469   9.593
 2012POPC   GL129665  35.128   2.818   9.294
 2012POPC   GL229666  35.151   2.543   9.084
 2012POPC   C1A29667  35.079   2.992   8.852
 2012POPC   D2A29668  35.047   2.842   8.413
 2012POPC   C3A29669  35.205   3.053   8.026
 2012POPC   C4A29670  35.641   3.119   7.893
 2012POPC   C1B29671  35.454   2.655   8.741
 2012POPC   C2B29672  35.583   2.811   8.337
 2012POPC   C3B29673  35.541   2.643   7.944
 2012POPC   C4B29674  35.245   2.443   7.766
 2013POPC   NC329675   1.363  12.937   9.597
 2013POPC   PO429676   1.261  12.497   9.164
 2013POPC   GL129677   1.097  12.901   9.088
 2013POPC   GL229678   1.373  13.155   9.134
 2013POPC   C1A29679   0.854  12.870   8.704
 2013POPC   D2A29680   0.787  12.893   8.264
 2013POPC   C3A29681   1.135  12.784   7.986
 2013POPC   C4A29682   1.316  12.664   7.593
 2013POPC   C1B29683   1.236  13.314   8.739
 2013POPC   C2B29684   1.203  13.196   8.306
 2013POPC   C3B29685   0.957  13.294   7.940
 2013POPC   C4B29686   1.032  13.411   7.509
 2014POPC   NC329687  20.065   0.844   9.564
 2014POPC   PO429688  19.622   1.284   9.459
 2014POPC   GL129689  19.778   1.202   9.070
 2014POPC   GL229690  19.763   0.861   9.065
 2014POPC   C1A29691  19.999   1.073   8.672
 2014POPC   D2A29692  19.959   1.007   8.237
 2014POPC   C3A29693  19.758   1.323   8.020
 2014POPC   C4A29694  19.671   1.577   7.692
 2014POPC   C1B29695  19.485   1.005   8.676
 2014POPC   C2B29696  19.381   1.034   8.217
 2014POPC   C3B29697  19.628   0.856   7.845
 2014POPC   C4B29698  19.979   0.725   7.540
 2015POPC   NC329699  11.665  42.287   9.633
 2015POPC   PO429700  11.014  42.560   9.466
 2015POPC   GL129701  11.125  42.464   9.070
 2015POPC   GL229702  11.444  42.339   9.181
 2015POPC   C1A29703  10.968  42.242   8.678
 2015POPC   D2A29704  11.006  41.859   8.458
 2015POPC   C3A29705  11.064  41.984   8.066
 2015POPC   C4A29706  11.097  41.846   7.656
 2015POPC   C1B29707  11.394  42.068   8.856
 2015POPC   C2B29708  11.491  42.034   8.421
 2015POPC   C3B29709  11.554  41.969   7.973
 2015POPC   C4B29710  11.374  42.300   7.742
 2016POPC   NC329711  22.685  22.092   9.456
 2016POPC   PO429712  23.300  22.272   9.712
 2016POPC   GL129713  23.140  22.406   9.271
 2016POPC   GL229714  22.805  22.516   9.206
 2016POPC   C1A29715  23.061  22.331   8.820
 2016POPC   D2A29716  23.166  22.126   8.442
 2016POPC   C3A29717  22.894  22.118   8.075
 2016POPC   C4A29718  22.958  21.954   7.662
 2016POPC   C1B29719  22.644  22.634   8.812
 2016POPC   C2B29720  22.802  22.529   8.414
 2016POPC   C3B29721  22.599  22.555   8.044
 2016POPC   C4B29722  22.744  22.425   7.678
 2017POPC   NC329723   3.629  20.590   9.522
 2017POPC   PO429724   3.005  20.984   9.374
 2017POPC   GL129725   3.363  20.995   9.044
 2017POPC   GL229726   3.672  20.845   9.095
 2017POPC   C1A29727   3.454  20.836   8.638
 2017POPC   D2A29728   3.227  20.626   8.314
 2017POPC   C3A29729   3.378  20.717   7.927
 2017POPC   C4A29730   3.610  20.897   7.647
 2017POPC   C1B29731   3.700  20.463   8.861
 2017POPC   C2B29732   3.705  20.426   8.425
 2017POPC   C3B29733   3.589  20.260   8.041
 2017POPC   C4B29734   3.702  20.358   7.640
 2018POPC   NC329735   7.676  39.126   9.474
 2018POPC   PO429736   7.055  38.960   9.653
 2018POPC   GL129737   7.204  39.289   9.314
 2018POPC   GL229738   7.332  39.037   9.121
 2018POPC   C1A29739   7.387  39.504   8.892
 2018POPC   D2A29740   7.667  39.409   8.496
 2018POPC   C3A29741   7.603  39.547   8.064
 2018POPC   C4A29742   7.443  39.379   7.642
 2018POPC   C1B29743   7.060  39.107   8.797
 2018POPC   C2B29744   7.262  39.107   8.423
 2018POPC   C3B29745   7.405  39.066   8.032
 2018POPC   C4B29746   7.061  39.029   7.731
 2019POPC   NC329747  19.535  30.576   9.475
 2019POPC   PO429748  19.904  31.123   9.517
 2019POPC   GL129749  19.867  30.825   9.197
 2019POPC   GL229750  19.585  30.969   9.070
 2019POPC   C1A29751  19.924  30.598   8.812
 2019POPC   D2A29752  20.110  30.594   8.376
 2019POPC   C3A29753  19.914  30.505   7.966
 2019POPC   C4A29754  19.955  30.841   7.650
 2019POPC   C1B29755  19.472  30.808   8.639
 2019POPC   C2B29756  19.550  30.793   8.185
 2019POPC   C3B29757  19.501  31.016   7.781
 2019POPC   C4B29758  19.680  31.161   7.333
 2020POPC   NC329759   2.636  21.376   9.410
 2020POPC   PO429760   3.186  21.641   9.675
 2020POPC   GL129761   3.072  21.696   9.222
 2020POPC   GL229762   3.025  21.374   9.034
 2020POPC   C1A29763   3.108  21.771   8.730
 2020POPC   D2A29764   3.023  21.489   8.344
 2020POPC   C3A29765   2.854  21.500   7.880
 2020POPC   C4A29766   2.744  21.383   7.442
 2020POPC   C1B29767   2.995  21.070   8.636
 2020POPC   C2B29768   2.930  21.029   8.142
 2020POPC   C3B29769   2.621  21.025   7.792
 2020POPC   C4B29770   2.475  20.771   7.462
 2021POPC   NC329771  41.211  24.744   9.421
 2021POPC   PO429772  41.747  24.381   9.663
 2021POPC   GL129773  41.531  24.343   9.229
 2021POPC   GL229774  41.695  24.589   9.125
 2021POPC   C1A29775  41.388  24.478   8.767
 2021POPC   D2A29776  41.408  24.290   8.402
 2021POPC   C3A29777  41.544  24.424   8.037
 2021POPC   C4A29778  41.475  24.190   7.687
 2021POPC   C1B29779  41.867  24.310   8.762
 2021POPC   C2B29780  41.987  24.286   8.320
 2021POPC   C3B29781  42.021  24.324   7.868
 2021POPC   C4B29782  41.910  24.328   7.443
 2022POPC   NC329783  36.851  20.154   9.950
 2022POPC   PO429784  37.046  19.607   9.535
 2022POPC   GL129785  36.829  19.776   9.148
 2022POPC   GL229786  36.468  19.896   9.152
 2022POPC   C1A29787  36.770  20.018   8.752
 2022POPC   D2A29788  36.949  20.109   8.349
 2022POPC   C3A29789  36.823  19.872   8.004
 2022POPC   C4A29790  36.907  19.938   7.584
 2022POPC   C1B29791  36.451  19.621   8.771
 2022POPC   C2B29792  36.685  19.592   8.407
 2022POPC   C3B29793  36.651  19.385   8.005
 2022POPC   C4B29794  36.570  19.560   7.617
 2023POPC   NC329795  16.451  16.175   9.862
 2023POPC   PO429796  15.781  16.114   9.697
 2023POPC   GL129797  15.846  15.797   9.269
 2023POPC   GL229798  15.521  15.668   9.282
 2023POPC   C1A29799  15.973  15.807   8.821
 2023POPC   D2A29800  15.763  15.883   8.442
 2023POPC   C3A29801  15.891  15.736   8.035
 2023POPC   C4A29802  16.170  15.977   7.764
 2023POPC   C1B29803  15.455  15.674   8.845
 2023POPC   C2B29804  15.247  15.749   8.484
 2023POPC   C3B29805  15.387  15.954   8.117
 2023POPC   C4B29806  15.679  16.293   7.976
 2024POPC   NC329807  21.459  33.827   9.546
 2024POPC   PO429808  20.921  33.439   9.533
 2024POPC   GL129809  21.251  33.465   9.219
 2024POPC   GL229810  21.344  33.815   9.069
 2024POPC   C1A29811  21.380  33.419   8.790
 2024POPC   D2A29812  21.346  33.719   8.491
 2024POPC   C3A29813  21.299  33.604   8.064
 2024POPC   C4A29814  21.386  33.486   7.626
 2024POPC   C1B29815  21.661  33.989   8.830
 2024POPC   C2B29816  21.860  33.907   8.462
 2024POPC   C3B29817  21.729  33.914   8.065
 2024POPC   C4B29818  21.632  33.926   7.652
 2025POPC   NC329819  31.277  11.693   9.671
 2025POPC   PO429820  31.125  11.265   9.530
 2025POPC   GL129821  31.248  11.341   9.072
 2025POPC   GL229822  31.613  11.351   9.025
 2025POPC   C1A29823  31.320  11.372   8.593
 2025POPC   D2A29824  31.596  11.338   8.212
 2025POPC   C3A29825  31.484  11.081   7.847
 2025POPC   C4A29826  31.195  11.250   7.515
 2025POPC   C1B29827  31.766  11.112   8.652
 2025POPC   C2B29828  31.913  10.929   8.240
 2025POPC   C3B29829  32.004  10.983   7.794
 2025POPC   C4B29830  31.787  11.187   7.435
 2026POPC   NC329831   7.678   2.207   9.612
 2026POPC   PO429832   7.513   1.607   9.435
 2026POPC   GL129833   7.573   1.928   9.142
 2026POPC   GL229834   7.404   2.209   9.168
 2026POPC   C1A29835   7.546   2.057   8.701
 2026POPC   D2A29836   7.625   1.836   8.356
 2026POPC   C3A29837   7.459   1.991   8.043
 2026POPC   C4A29838   7.498   1.743   7.710
 2026POPC   C1B29839   7.169   2.379   8.846
 2026POPC   C2B29840   7.098   2.392   8.421
 2026POPC   C3B29841   7.182   2.425   7.990
 2026POPC   C4B29842   7.199   2.159   7.640
 2027POPC   NC329843  21.918   6.663   9.398
 2027POPC   PO429844  22.389   6.403   9.680
 2027POPC   GL129845  22.293   6.359   9.227
 2027POPC   GL229846  22.368   6.695   9.127
 2027POPC   C1A29847  22.129   6.365   8.770
 2027POPC   D2A29848  22.293   6.368   8.329
 2027POPC   C3A29849  22.087   6.446   7.920
 2027POPC   C4A29850  21.939   6.869   7.851
 2027POPC   C1B29851  22.635   6.894   8.838
 2027POPC   C2B29852  22.647   6.756   8.426
 2027POPC   C3B29853  22.380   6.845   8.116
 2027POPC   C4B29854  22.412   6.781   7.702
 2028POPC   NC329855  19.947  10.024   9.504
 2028POPC   PO429856  19.980  10.704   9.418
 2028POPC   GL129857  19.626  10.687   9.147
 2028POPC   GL229858  19.580  10.340   9.139
 2028POPC   C1A29859  19.746  10.598   8.710
 2028POPC   D2A29860  19.886  10.784   8.326
 2028POPC   C3A29861  20.009  10.550   7.945
 2028POPC   C4A29862  19.942  10.116   7.939
 2028POPC   C1B29863  19.385  10.224   8.754
 2028POPC   C2B29864  19.462  10.399   8.330
 2028POPC   C3B29865  19.439  10.232   7.907
 2028POPC   C4B29866  19.709  10.275   7.517
 2029POPC   NC329867  40.285   1.317   9.404
 2029POPC   PO429868  39.603   1.322   9.475
 2029POPC   GL129869  39.848   1.354   9.125
 2029POPC   GL229870  39.974   1.059   9.013
 2029POPC   C1A29871  39.874   1.446   8.692
 2029POPC   D2A29872  39.995   1.354   8.270
 2029POPC   C3A29873  39.858   1.537   7.872
 2029POPC   C4A29874  40.078   1.405   7.490
 2029POPC   C1B29875  40.177   0.906   8.622
 2029POPC   C2B29876  40.254   0.953   8.150
 2029POPC   C3B29877  39.937   1.043   7.820
 2029POPC   C4B29878  39.825   0.975   7.361
 2030POPC   NC329879   7.594  41.918   9.425
 2030POPC   PO429880   7.195  42.364   9.580
 2030POPC   GL129881   7.457  42.371   9.227
 2030POPC   GL229882   7.259  42.164   9.066
 2030POPC   C1A29883   7.743  42.217   8.878
 2030POPC   D2A29884   7.844  42.332   8.482
 2030POPC   C3A29885   7.554  42.201   8.196
 2030POPC   C4A29886   7.537  42.270   7.755
 2030POPC   C1B29887   7.321  42.386   8.647
 2030POPC   C2B29888   7.268  42.628   8.263
 2030POPC   C3B29889   7.072  42.437   7.874
 2030POPC   C4B29890   7.153  42.381   7.434
 2031POPC   NC329891  21.965  42.646   9.265
 2031POPC   PO429892  22.050  42.094   9.658
 2031POPC   GL129893  22.086  42.162   9.185
 2031POPC   GL229894  22.336  42.413   9.028
 2031POPC   C1A29895  21.936  42.222   8.740
 2031POPC   D2A29896  21.781  42.316   8.307
 2031POPC   C3A29897  22.122  42.255   7.969
 2031POPC   C4A29898  22.222  42.217   7.496
 2031POPC   C1B29899  22.345  42.585   8.592
 2031POPC   C2B29900  22.480  42.595   8.137
 2031POPC   C3B29901  22.318  42.677   7.715
 2031POPC   C4B29902  22.310  42.636   7.240
 2032POPC   NC329903   5.157   6.668   9.546
 2032POPC   PO429904   4.595   6.419   9.378
 2032POPC   GL129905   4.953   6.443   9.114
 2032POPC   GL229906   5.356   6.456   9.118
 2032POPC   C1A29907   5.018   6.291   8.735
 2032POPC   D2A29908   5.267   6.367   8.411
 2032POPC   C3A29909   5.031   6.653   8.203
 2032POPC   C4A29910   5.006   6.698   7.780
 2032POPC   C1B29911   5.287   6.771   8.815
 2032POPC   C2B29912   5.482   6.836   8.419
 2032POPC   C3B29913   5.479   6.756   7.970
 2032POPC   C4B29914   5.372   6.963   7.559
 2033POPC   NC329915  42.799   3.752   9.564
 2033POPC   PO429916  43.068   3.249   9.809
 2033POPC   GL129917  43.065   3.407   9.288
 2033POPC   GL229918  42.860   3.678   9.078
 2033POPC   C1A29919  43.110   3.337   8.820
 2033POPC   D2A29920  43.179   3.274   8.392
 2033POPC   C3A29921  43.122   3.318   7.928
 2033POPC   C4A29922  43.388   3.606   7.733
 2033POPC   C1B29923  42.845   3.719   8.625
 2033POPC   C2B29924  42.841   3.621   8.203
 2033POPC   C3B29925  42.918   3.790   7.791
 2033POPC   C4B29926  43.074   3.736   7.348
 2034POPC   NC329927   4.675  15.989   9.596
 2034POPC   PO429928   4.066  16.087   9.504
 2034POPC   GL129929   4.316  15.812   9.250
 2034POPC   GL229930   4.464  16.100   9.102
 2034POPC   C1A29931   4.498  15.658   8.833
 2034POPC   D2A29932   4.526  15.861   8.438
 2034POPC   C3A29933   4.580  15.655   8.041
 2034POPC   C4A29934   4.673  15.850   7.657
 2034POPC   C1B29935   4.123  16.030   8.796
 2034POPC   C2B29936   4.034  16.068   8.356
 2034POPC   C3B29937   4.331  16.116   8.035
 2034POPC   C4B29938   4.167  15.821   7.775
 2035POPC   NC329939  39.899  27.907   9.415
 2035POPC   PO429940  40.101  28.495   9.658
 2035POPC   GL129941  39.837  28.435   9.289
 2035POPC   GL229942  39.535  28.222   9.258
 2035POPC   C1A29943  39.836  28.469   8.835
 2035POPC   D2A29944  40.055  28.346   8.455
 2035POPC   C3A29945  39.932  28.450   8.030
 2035POPC   C4A29946  40.131  28.237   7.696
 2035POPC   C1B29947  39.542  28.054   8.811
 2035POPC   C2B29948  39.526  28.302   8.409
 2035POPC   C3B29949  39.471  28.286   7.953
 2035POPC   C4B29950  39.318  27.924   7.771
 2036POPC   NC329951  18.480  31.272   9.405
 2036POPC   PO429952  18.253  31.831   9.406
 2036POPC   GL129953  18.267  31.593   9.043
 2036POPC   GL229954  17.996  31.397   9.172
 2036POPC   C1A29955  18.344  31.639   8.589
 2036POPC   D2A29956  18.298  31.737   8.156
 2036POPC   C3A29957  18.453  31.526   7.831
 2036POPC   C4A29958  18.342  31.294   7.456
 2036POPC   C1B29959  17.986  31.294   8.729
 2036POPC   C2B29960  18.111  31.261   8.281
 2036POPC   C3B29961  17.977  31.304   7.842
 2036POPC   C4B29962  17.838  31.354   7.386
 2037POPC   NC329963  13.013  14.386   9.869
 2037POPC   PO429964  12.428  14.322   9.538
 2037POPC   GL129965  12.786  14.347   9.185
 2037POPC   GL229966  12.977  14.042   9.048
 2037POPC   C1A29967  12.974  14.431   8.734
 2037POPC   D2A29968  13.106  14.101   8.386
 2037POPC   C3A29969  12.964  14.139   7.947
 2037POPC   C4A29970  13.127  14.350   7.609
 2037POPC   C1B29971  12.689  13.989   8.686
 2037POPC   C2B29972  12.546  14.060   8.244
 2037POPC   C3B29973  12.449  14.313   7.850
 2037POPC   C4B29974  12.622  14.378   7.418
 2038POPC   NC329975  23.136  15.596   9.651
 2038POPC   PO429976  22.887  16.236   9.430
 2038POPC   GL129977  23.049  15.953   9.135
 2038POPC   GL229978  22.820  15.729   9.238
 2038POPC   C1A29979  22.921  16.006   8.690
 2038POPC   D2A29980  22.685  16.234   8.363
 2038POPC   C3A29981  22.932  16.208   7.965
 2038POPC   C4A29982  23.004  15.830   7.690
 2038POPC   C1B29983  22.512  15.780   8.897
 2038POPC   C2B29984  22.471  15.730   8.443
 2038POPC   C3B29985  22.689  15.654   8.047
 2038POPC   C4B29986  22.545  15.529   7.618
 2039POPC   NC329987  14.484  43.725   9.640
 2039POPC   PO429988  14.511  43.045   9.632
 2039POPC   GL129989  14.418  42.963   9.196
 2039POPC   GL229990  14.505  43.301   9.192
 2039POPC   C1A29991  14.546  42.819   8.785
 2039POPC   D2A29992  14.675  42.947   8.381
 2039POPC   C3A29993  14.420  42.812   8.057
 2039POPC   C4A29994  14.680  42.783   7.717
 2039POPC   C1B29995  14.231  43.380   8.865
 2039POPC   C2B29996  14.234  43.191   8.494
 2039POPC   C3B29997  14.269  43.300   8.092
 2039POPC   C4B29998  14.274  43.161   7.685
 2040POPC   NC329999  38.417  29.675   9.572
 2040POPC   PO430000  38.181  30.303   9.419
 2040POPC   GL130001  38.429  30.018   9.162
 2040POPC   GL230002  38.299  29.656   9.088
 2040POPC   C1A30003  38.601  29.907   8.762
 2040POPC   D2A30004  38.381  29.700   8.435
 2040POPC   C3A30005  38.351  29.902   8.009
 2040POPC   C4A30006  38.107  29.848   7.665
 2040POPC   C1B30007  38.534  29.377   8.833
 2040POPC   C2B30008  38.696  29.272   8.442
 2040POPC   C3B30009  38.713  29.550   8.082
 2040POPC   C4B30010  38.564  29.587   7.641
 2041POPC   NC330011  31.889  20.985   9.837
 2041POPC   PO430012  31.345  21.307   9.506
 2041POPC   GL130013  31.483  21.277   9.090
 2041POPC   GL230014  31.803  21.261   9.223
 2041POPC   C1A30015  31.486  21.498   8.697
 2041POPC   D2A30016  31.279  21.563   8.299
 2041POPC   C3A30017  31.577  21.492   7.973
 2041POPC   C4A30018  31.699  21.538   7.555
 2041POPC   C1B30019  32.001  21.097   8.892
 2041POPC   C2B30020  31.932  21.285   8.519
 2041POPC   C3B30021  31.756  21.074   8.207
 2041POPC   C4B30022  31.771  21.040   7.803
 2042POPC   NC330023  25.197  37.789   9.681
 2042POPC   PO430024  25.635  37.473   9.376
 2042POPC   GL130025  25.345  37.696   9.113
 2042POPC   GL230026  25.120  37.972   9.202
 2042POPC   C1A30027  25.155  37.672   8.686
 2042POPC   D2A30028  25.001  37.371   8.398
 2042POPC   C3A30029  25.333  37.362   8.125
 2042POPC   C4A30030  25.492  37.341   7.717
 2042POPC   C1B30031  24.774  37.939   8.901
 2042POPC   C2B30032  24.704  37.858   8.462
 2042POPC   C3B30033  25.038  37.822   8.165
 2042POPC   C4B30034  25.206  37.760   7.768
 2043POPC   NC330035   8.003   4.085   9.420
 2043POPC   PO430036   7.272   4.257   9.489
 2043POPC   GL130037   7.254   4.204   9.086
 2043POPC   GL230038   7.608   4.149   9.104
 2043POPC   C1A30039   7.397   4.298   8.668
 2043POPC   D2A30040   7.360   4.606   8.363
 2043POPC   C3A30041   7.121   4.558   7.981
 2043POPC   C4A30042   7.287   4.390   7.586
 2043POPC   C1B30043   7.880   4.007   8.778
 2043POPC   C2B30044   7.872   3.947   8.356
 2043POPC   C3B30045   7.489   4.143   8.178
 2043POPC   C4B30046   7.190   4.012   7.909
 2044POPC   NC330047  25.503  34.572   9.340
 2044POPC   PO430048  24.978  34.651   9.652
 2044POPC   GL130049  24.943  34.622   9.196
 2044POPC   GL230050  25.100  34.928   9.114
 2044POPC   C1A30051  25.111  34.611   8.729
 2044POPC   D2A30052  25.193  34.829   8.315
 2044POPC   C3A30053  25.242  34.568   7.929
 2044POPC   C4A30054  25.587  34.314   7.716
 2044POPC   C1B30055  24.974  35.119   8.739
 2044POPC   C2B30056  24.709  35.064   8.372
 2044POPC   C3B30057  24.768  34.842   7.993
 2044POPC   C4B30058  24.911  34.769   7.606
 2045POPC   NC330059  27.969   4.912   9.406
 2045POPC   PO430060  27.597   5.384   9.595
 2045POPC   GL130061  27.526   5.278   9.199
 2045POPC   GL230062  27.255   5.081   9.293
 2045POPC   C1A30063  27.698   5.230   8.791
 2045POPC   D2A30064  27.927   5.149   8.412
 2045POPC   C3A30065  27.706   5.244   8.041
 2045POPC   C4A30066  27.655   5.198   7.609
 2045POPC   C1B30067  27.244   5.001   8.835
 2045POPC   C2B30068  27.405   5.001   8.405
 2045POPC   C3B30069  27.274   4.951   7.988
 2045POPC   C4B30070  27.158   5.124   7.615
 2046POPC   NC330071  12.087  40.595   9.587
 2046POPC   PO430072  12.052  41.246   9.839
 2046POPC   GL130073  12.177  41.175   9.357
 2046POPC   GL230074  12.375  40.862   9.245
 2046POPC   C1A30075  12.209  41.122   8.866
 2046POPC   D2A30076  11.963  40.859   8.552
 2046POPC   C3A30077  12.035  40.902   8.095
 2046POPC   C4A30078  12.014  41.117   7.725
 2046POPC   C1B30079  12.281  40.584   8.837
 2046POPC   C2B30080  12.275  40.507   8.320
 2046POPC   C3B30081  12.358  40.608   7.818
 2046POPC   C4B30082  12.531  40.624   7.349
 2047POPC   NC330083  18.561  17.215   9.528
 2047POPC   PO430084  18.107  17.649   9.381
 2047POPC   GL130085  18.238  17.274   9.107
 2047POPC   GL230086  18.604  17.189   9.031
 2047POPC   C1A30087  18.265  17.377   8.669
 2047POPC   D2A30088  18.143  17.773   8.472
 2047POPC   C3A30089  18.162  17.759   8.013
 2047POPC   C4A30090  18.179  17.362   7.772
 2047POPC   C1B30091  18.677  17.579   8.866
 2047POPC   C2B30092  18.659  17.695   8.439
 2047POPC   C3B30093  18.454  17.377   8.184
 2047POPC   C4B30094  18.630  17.078   7.850
 2048POPC   NC330095  20.761   0.859   9.820
 2048POPC   PO430096  20.318   1.276   9.564
 2048POPC   GL130097  20.292   1.156   9.127
 2048POPC   GL230098  20.627   1.040   9.062
 2048POPC   C1A30099  20.422   1.341   8.708
 2048POPC   D2A30100  20.524   1.167   8.346
 2048POPC   C3A30101  20.345   1.263   8.012
 2048POPC   C4A30102  20.487   1.508   7.738
 2048POPC   C1B30103  20.903   1.088   8.677
 2048POPC   C2B30104  20.984   0.970   8.219
 2048POPC   C3B30105  20.866   1.175   7.835
 2048POPC   C4B30106  20.921   1.290   7.392
 2049POPC   NC330107   6.723  29.610   9.508
 2049POPC   PO430108   7.014  28.981   9.540
 2049POPC   GL130109   6.858  29.229   9.203
 2049POPC   GL230110   7.100  29.539   9.176
 2049POPC   C1A30111   6.585  29.129   8.887
 2049POPC   D2A30112   6.497  28.839   8.562
 2049POPC   C3A30113   6.613  28.935   8.143
 2049POPC   C4A30114   6.547  29.147   7.734
 2049POPC   C1B30115   6.833  29.612   8.827
 2049POPC   C2B30116   6.718  29.389   8.479
 2049POPC   C3B30117   6.828  29.406   8.079
 2049POPC   C4B30118   6.804  29.628   7.734
 2050POPC   NC330119  41.783  44.944   9.536
 2050POPC   PO430120  41.601  44.370   9.522
 2050POPC   GL130121  41.716  44.580   9.157
 2050POPC   GL230122  41.468  44.845   9.148
 2050POPC   C1A30123  41.605  44.474   8.745
 2050POPC   D2A30124  41.684  44.426   8.306
 2050POPC   C3A30125  41.426  44.689   8.040
 2050POPC   C4A30126  41.358  44.729   7.603
 2050POPC   C1B30127  41.328  44.946   8.755
 2050POPC   C2B30128  41.226   0.095   8.330
 2050POPC   C3B30129  41.225   0.126   7.868
 2050POPC   C4B30130  41.269   0.179   7.409
 2051POPC   NC330131   1.757   5.551   9.424
 2051POPC   PO430132   1.967   4.876   9.490
 2051POPC   GL130133   1.772   4.972   9.146
 2051POPC   GL230134   1.631   4.698   8.987
 2051POPC   C1A30135   2.041   5.035   8.789
 2051POPC   D2A30136   2.343   5.017   8.453
 2051POPC   C3A30137   2.203   5.249   8.107
 2051POPC   C4A30138   2.243   5.140   7.694
 2051POPC   C1B30139   1.539   5.060   8.696
 2051POPC   C2B30140   1.551   5.143   8.256
 2051POPC   C3B30141   1.781   5.004   7.892
 2051POPC   C4B30142   1.787   5.142   7.436
 2052POPC   NC330143   4.753   5.984   9.334
 2052POPC   PO430144   4.130   5.761   9.588
 2052POPC   GL130145   4.319   5.770   9.181
 2052POPC   GL230146   4.320   6.123   9.074
 2052POPC   C1A30147   4.526   5.749   8.750
 2052POPC   D2A30148   4.881   5.861   8.470
 2052POPC   C3A30149   4.748   5.913   8.031
 2052POPC   C4A30150   4.434   5.777   7.697
 2052POPC   C1B30151   4.021   5.936   8.808
 2052POPC   C2B30152   4.046   5.833   8.396
 2052POPC   C3B30153   4.239   6.069   8.074
 2052POPC   C4B30154   4.202   6.280   7.688
 2053POPC   NC330155   4.442  15.237   9.587
 2053POPC   PO430156   4.331  14.582   9.522
 2053POPC   GL130157   4.234  14.950   9.150
 2053POPC   GL230158   4.253  15.320   9.136
 2053POPC   C1A30159   4.229  15.108   8.683
 2053POPC   D2A30160   4.504  15.236   8.324
 2053POPC   C3A30161   4.469  14.993   7.914
 2053POPC   C4A30162   4.434  14.924   7.449
 2053POPC   C1B30163   3.994  15.536   8.859
 2053POPC   C2B30164   4.117  15.567   8.425
 2053POPC   C3B30165   4.099  15.365   8.024
 2053POPC   C4B30166   4.298  15.379   7.623
 2054POPC   NC330167  26.924  39.155   9.443
 2054POPC   PO430168  26.802  39.879   9.438
 2054POPC   GL130169  26.901  39.571   9.142
 2054POPC   GL230170  26.665  39.328   9.021
 2054POPC   C1A30171  27.051  39.459   8.727
 2054POPC   D2A30172  27.060  39.336   8.314
 2054POPC   C3A30173  26.803  39.339   7.963
 2054POPC   C4A30174  27.036  39.432   7.587
 2054POPC   C1B30175  26.816  38.987   8.750
 2054POPC   C2B30176  26.734  38.930   8.316
 2054POPC   C3B30177  26.775  38.836   7.874
 2054POPC   C4B30178  26.718  39.063   7.480
 2055POPC   NC330179  15.233  35.897   9.489
 2055POPC   PO430180  15.598  36.393   9.228
 2055POPC   GL130181  15.198  36.339   9.123
 2055POPC   GL230182  15.315  36.015   9.014
 2055POPC   C1A30183  14.959  36.458   8.777
 2055POPC   D2A30184  15.165  36.492   8.380
 2055POPC   C3A30185  15.021  36.342   7.974
 2055POPC   C4A30186  15.412  36.220   7.799
 2055POPC   C1B30187  14.980  35.947   8.770
 2055POPC   C2B30188  15.107  35.976   8.358
 2055POPC   C3B30189  15.179  35.797   7.986
 2055POPC   C4B30190  14.937  35.923   7.677
 2056POPC   NC330191  33.958   0.964   9.548
 2056POPC   PO430192  33.390   0.880   9.315
 2056POPC   GL130193  33.652   1.148   9.124
 2056POPC   GL230194  33.897   0.966   9.026
 2056POPC   C1A30195  33.513   1.312   8.756
 2056POPC   D2A30196  33.718   1.032   8.506
 2056POPC   C3A30197  33.706   1.069   8.070
 2056POPC   C4A30198  33.496   1.314   7.779
 2056POPC   C1B30199  34.052   1.287   8.804
 2056POPC   C2B30200  34.173   1.239   8.397
 2056POPC   C3B30201  34.129   1.370   7.994
 2056POPC   C4B30202  33.962   1.157   7.640
 2057POPC   NC330203  20.894   8.729   9.435
 2057POPC   PO430204  20.186   8.648   9.522
 2057POPC   GL130205  20.450   8.689   9.194
 2057POPC   GL230206  20.515   9.020   9.213
 2057POPC   C1A30207  20.628   8.766   8.787
 2057POPC   D2A30208  20.494   8.885   8.412
 2057POPC   C3A30209  20.681   8.687   8.095
 2057POPC   C4A30210  20.714   8.913   7.715
 2057POPC   C1B30211  20.320   9.237   8.830
 2057POPC   C2B30212  20.430   9.382   8.406
 2057POPC   C3B30213  20.369   9.237   7.973
 2057POPC   C4B30214  20.180   9.337   7.516
 2058POPC   NC330215  10.056  29.636   9.457
 2058POPC   PO430216  10.673  29.563   9.448
 2058POPC   GL130217  10.558  29.842   9.112
 2058POPC   GL230218  10.209  29.890   9.043
 2058POPC   C1A30219  10.580  30.008   8.685
 2058POPC   D2A30220  10.333  29.907   8.325
 2058POPC   C3A30221  10.426  30.139   7.933
 2058POPC   C4A30222  10.181  30.249   7.518
 2058POPC   C1B30223   9.983  29.583   8.805
 2058POPC   C2B30224   9.930  29.524   8.414
 2058POPC   C3B30225  10.094  29.566   8.035
 2058POPC   C4B30226  10.146  29.788   7.717
 2059POPC   NC330227   7.855  22.683   9.288
 2059POPC   PO430228   7.931  22.011   9.366
 2059POPC   GL130229   8.015  22.264   9.051
 2059POPC   GL230230   8.314  22.423   9.181
 2059POPC   C1A30231   7.975  22.147   8.644
 2059POPC   D2A30232   8.093  21.843   8.380
 2059POPC   C3A30233   8.124  22.048   8.016
 2059POPC   C4A30234   8.295  22.073   7.665
 2059POPC   C1B30235   8.472  22.213   8.797
 2059POPC   C2B30236   8.381  22.326   8.368
 2059POPC   C3B30237   8.532  22.400   7.963
 2059POPC   C4B30238   8.878  22.361   7.686
 2060POPC   NC330239  28.032  19.931   9.626
 2060POPC   PO430240  28.176  19.312   9.448
 2060POPC   GL130241  28.256  19.715   9.189
 2060POPC   GL230242  28.589  19.937   9.206
 2060POPC   C1A30243  28.413  19.769   8.751
 2060POPC   D2A30244  28.666  19.636   8.376
 2060POPC   C3A30245  28.362  19.658   8.035
 2060POPC   C4A30246  28.277  19.741   7.605
 2060POPC   C1B30247  28.265  20.208   9.008
 2060POPC   C2B30248  28.106  20.361   8.618
 2060POPC   C3B30249  28.093  20.347   8.144
 2060POPC   C4B30250  28.320  20.203   7.758
 2061POPC   NC330251  40.615   0.622   9.446
 2061POPC   PO430252  41.251   0.302   9.431
 2061POPC   GL130253  40.867   0.213   9.179
 2061POPC   GL230254  40.499   0.233   9.137
 2061POPC   C1A30255  40.893   0.213   8.775
 2061POPC   D2A30256  40.921   0.496   8.461
 2061POPC   C3A30257  40.813   0.314   8.080
 2061POPC   C4A30258  40.893   0.478   7.660
 2061POPC   C1B30259  40.500   0.543   8.797
 2061POPC   C2B30260  40.408   0.514   8.357
 2061POPC   C3B30261  40.397   0.536   7.905
 2061POPC   C4B30262  40.280   0.176   7.749
 2062POPC   NC330263  20.352  24.470   9.771
 2062POPC   PO430264  19.804  24.117   9.625
 2062POPC   GL130265  19.680  24.317   9.206
 2062POPC   GL230266  19.805  24.654   9.219
 2062POPC   C1A30267  19.801  24.327   8.763
 2062POPC   D2A30268  19.996  24.532   8.439
 2062POPC   C3A30269  19.803  24.350   8.065
 2062POPC   C4A30270  19.997  24.438   7.690
 2062POPC   C1B30271  19.602  24.788   8.837
 2062POPC   C2B30272  19.508  24.616   8.402
 2062POPC   C3B30273  19.671  24.842   7.999
 2062POPC   C4B30274  19.604  24.892   7.531
 2063POPC   NC330275  15.142  14.221   9.479
 2063POPC   PO430276  15.597  14.529   9.281
 2063POPC   GL130277  15.469  14.288   9.013
 2063POPC   GL230278  15.144  14.463   9.024
 2063POPC   C1A30279  15.379  14.332   8.605
 2063POPC   D2A30280  15.139  14.371   8.268
 2063POPC   C3A30281  15.393  14.229   7.974
 2063POPC   C4A30282  15.221  14.327   7.605
 2063POPC   C1B30283  14.892  14.224   8.722
 2063POPC   C2B30284  14.723  14.049   8.341
 2063POPC   C3B30285  14.815  14.157   7.906
 2063POPC   C4B30286  14.890  13.894   7.542
 2064POPC   NC330287  34.391   3.592   9.976
 2064POPC   PO430288  34.571   3.658   9.369
 2064POPC   GL130289  34.272   3.681   9.060
 2064POPC   GL230290  34.381   3.393   8.965
 2064POPC   C1A30291  34.139   3.632   8.624
 2064POPC   D2A30292  34.410   3.384   8.366
 2064POPC   C3A30293  34.481   3.564   7.971
 2064POPC   C4A30294  34.501   3.710   7.574
 2064POPC   C1B30295  34.781   3.414   8.736
 2064POPC   C2B30296  34.928   3.531   8.313
 2064POPC   C3B30297  34.996   3.530   7.861
 2064POPC   C4B30298  34.975   3.564   7.413
 2065POPC   NC330299  21.904   9.003   9.409
 2065POPC   PO430300  22.567   8.855   9.452
 2065POPC   GL130301  22.307   8.761   9.059
 2065POPC   GL230302  21.945   8.683   9.016
 2065POPC   C1A30303  22.243   8.746   8.579
 2065POPC   D2A30304  22.230   9.074   8.246
 2065POPC   C3A30305  22.415   9.011   7.839
 2065POPC   C4A30306  22.260   8.963   7.395
 2065POPC   C1B30307  21.744   8.896   8.659
 2065POPC   C2B30308  21.666   8.899   8.224
 2065POPC   C3B30309  21.900   8.915   7.833
 2065POPC   C4B30310  21.891   9.335   7.649
 2066POPC   NC330311  12.520  26.690   9.383
 2066POPC   PO430312  11.919  26.512   9.469
 2066POPC   GL130313  11.961  26.725   9.125
 2066POPC   GL230314  11.853  27.019   9.162
 2066POPC   C1A30315  12.155  26.791   8.771
 2066POPC   D2A30316  12.178  26.441   8.549
 2066POPC   C3A30317  12.106  26.476   8.138
 2066POPC   C4A30318  12.248  26.757   7.858
 2066POPC   C1B30319  11.786  27.123   8.718
 2066POPC   C2B30320  11.927  26.997   8.294
 2066POPC   C3B30321  11.874  27.130   7.854
 2066POPC   C4B30322  11.797  26.870   7.476
 2067POPC   NC330323  38.453  11.648   9.818
 2067POPC   PO430324  38.562  12.190   9.387
 2067POPC   GL130325  38.264  12.076   9.016
 2067POPC   GL230326  38.547  11.873   8.826
 2067POPC   C1A30327  38.179  12.058   8.566
 2067POPC   D2A30328  38.412  12.135   8.248
 2067POPC   C3A30329  38.304  12.010   7.837
 2067POPC   C4A30330  37.954  12.224   7.642
 2067POPC   C1B30331  38.902  11.617   8.699
 2067POPC   C2B30332  39.045  11.578   8.265
 2067POPC   C3B30333  38.747  11.613   7.911
 2067POPC   C4B30334  38.672  11.851   7.518
 2068POPC   NC330335  14.166  29.339   9.416
 2068POPC   PO430336  14.628  28.965   9.500
 2068POPC   GL130337  14.415  28.971   9.127
 2068POPC   GL230338  14.305  28.637   9.144
 2068POPC   C1A30339  14.342  29.265   8.744
 2068POPC   D2A30340  14.518  29.437   8.320
 2068POPC   C3A30341  14.276  29.435   7.927
 2068POPC   C4A30342  14.298  29.256   7.509
 2068POPC   C1B30343  14.220  28.768   8.714
 2068POPC   C2B30344  14.380  28.932   8.335
 2068POPC   C3B30345  14.240  28.933   7.919
 2068POPC   C4B30346  14.132  28.677   7.585
 2069POPC   NC330347  25.103  17.222   9.671
 2069POPC   PO430348  25.445  16.667   9.599
 2069POPC   GL130349  25.315  16.641   9.185
 2069POPC   GL230350  25.055  16.920   9.216
 2069POPC   C1A30351  25.518  16.517   8.772
 2069POPC   D2A30352  25.434  16.308   8.343
 2069POPC   C3A30353  25.528  16.446   7.905
 2069POPC   C4A30354  25.218  16.472   7.536
 2069POPC   C1B30355  25.193  16.927   8.780
 2069POPC   C2B30356  25.412  16.849   8.400
 2069POPC   C3B30357  25.229  16.849   8.005
 2069POPC   C4B30358  25.412  16.927   7.636
 2070POPC   NC330359  19.268  20.371   9.526
 2070POPC   PO430360  18.596  20.211   9.510
 2070POPC   GL130361  18.911  20.249   9.152
 2070POPC   GL230362  19.045  20.598   9.121
 2070POPC   C1A30363  19.073  20.315   8.699
 2070POPC   D2A30364  19.187  20.568   8.358
 2070POPC   C3A30365  19.286  20.393   7.980
 2070POPC   C4A30366  19.007  20.284   7.630
 2070POPC   C1B30367  18.999  20.911   8.782
 2070POPC   C2B30368  18.956  21.166   8.401
 2070POPC   C3B30369  18.974  21.052   7.954
 2070POPC   C4B30370  19.172  20.774   7.647
 2071POPC   NC330371  15.994  19.515   9.552
 2071POPC   PO430372  15.779  20.095   9.285
 2071POPC   GL130373  15.932  19.739   9.094
 2071POPC   GL230374  16.293  19.712   9.187
 2071POPC   C1A30375  15.877  19.594   8.683
 2071POPC   D2A30376  15.837  19.890   8.344
 2071POPC   C3A30377  15.733  19.734   7.960
 2071POPC   C4A30378  15.973  19.969   7.727
 2071POPC   C1B30379  16.496  19.770   8.788
 2071POPC   C2B30380  16.386  19.730   8.373
 2071POPC   C3B30381  16.343  19.705   7.960
 2071POPC   C4B30382  16.112  19.438   7.776
 2072POPC   NC330383   8.484  41.629   9.549
 2072POPC   PO430384   7.959  41.194   9.689
 2072POPC   GL130385   8.056  41.387   9.258
 2072POPC   GL230386   8.397  41.255   9.218
 2072POPC   C1A30387   7.906  41.641   8.848
 2072POPC   D2A30388   7.987  41.386   8.460
 2072POPC   C3A30389   7.923  41.496   8.010
 2072POPC   C4A30390   8.074  41.400   7.588
 2072POPC   C1B30391   8.401  41.572   8.884
 2072POPC   C2B30392   8.485  41.607   8.425
 2072POPC   C3B30393   8.430  41.473   7.967
 2072POPC   C4B30394   8.496  41.728   7.568
 2073POPC   NC330395  37.664   2.351   9.762
 2073POPC   PO430396  37.467   2.870   9.369
 2073POPC   GL130397  37.743   2.923   9.018
 2073POPC   GL230398  37.513   2.845   8.750
 2073POPC   C1A30399  38.011   2.812   8.667
 2073POPC   D2A30400  37.789   2.758   8.292
 2073POPC   C3A30401  37.822   2.938   7.892
 2073POPC   C4A30402  37.871   2.787   7.474
 2073POPC   C1B30403  37.371   2.481   8.529
 2073POPC   C2B30404  37.598   2.285   8.186
 2073POPC   C3B30405  37.615   2.453   7.751
 2073POPC   C4B30406  37.451   2.541   7.309
 2074POPC   NC330407  12.486   9.041   9.435
 2074POPC   PO430408  13.130   8.827   9.420
 2074POPC   GL130409  12.799   8.811   9.113
 2074POPC   GL230410  12.474   8.617   9.156
 2074POPC   C1A30411  12.779   9.085   8.761
 2074POPC   D2A30412  13.164   9.028   8.525
 2074POPC   C3A30413  13.142   9.039   8.094
 2074POPC   C4A30414  12.990   9.034   7.703
 2074POPC   C1B30415  12.490   8.640   8.715
 2074POPC   C2B30416  12.701   8.817   8.337
 2074POPC   C3B30417  12.601   9.108   8.052
 2074POPC   C4B30418  12.533   9.256   7.635
 2075POPC   NC330419   4.510   1.620   9.546
 2075POPC   PO430420   4.169   2.233   9.583
 2075POPC   GL130421   4.421   2.166   9.193
 2075POPC   GL230422   4.674   1.888   9.138
 2075POPC   C1A30423   4.279   2.133   8.752
 2075POPC   D2A30424   4.392   2.102   8.318
 2075POPC   C3A30425   4.145   2.191   7.924
 2075POPC   C4A30426   4.329   2.316   7.564
 2075POPC   C1B30427   4.639   1.777   8.692
 2075POPC   C2B30428   4.829   1.850   8.282
 2075POPC   C3B30429   4.655   2.048   7.887
 2075POPC   C4B30430   4.568   1.842   7.479
 2076POPC   NC330431  24.917  35.091   9.552
 2076POPC   PO430432  25.534  35.047   9.358
 2076POPC   GL130433  25.379  35.369   9.084
 2076POPC   GL230434  25.044  35.472   9.207
 2076POPC   C1A30435  25.444  35.351   8.630
 2076POPC   D2A30436  25.675  35.420   8.228
 2076POPC   C3A30437  25.553  35.143   7.976
 2076POPC   C4A30438  25.320  35.088   7.647
 2076POPC   C1B30439  24.851  35.616   8.828
 2076POPC   C2B30440  25.001  35.545   8.404
 2076POPC   C3B30441  25.061  35.273   8.067
 2076POPC   C4B30442  24.819  35.268   7.722
 2077POPC   NC330443   9.716   1.570   9.870
 2077POPC   PO430444   9.954   2.146   9.720
 2077POPC   GL130445   9.796   2.195   9.281
 2077POPC   GL230446   9.547   2.412   9.307
 2077POPC   C1A30447   9.797   2.017   8.842
 2077POPC   D2A30448   9.902   2.030   8.399
 2077POPC   C3A30449   9.794   1.785   8.003
 2077POPC   C4A30450   9.854   2.065   7.616
 2077POPC   C1B30451   9.494   2.407   8.870
 2077POPC   C2B30452   9.431   2.263   8.447
 2077POPC   C3B30453   9.591   2.249   8.041
 2077POPC   C4B30454   9.375   2.249   7.656
 2078POPC   NC330455  19.261  40.317   9.324
 2078POPC   PO430456  18.843  39.833   9.422
 2078POPC   GL130457  19.018  39.958   9.057
 2078POPC   GL230458  19.328  39.793   9.107
 2078POPC   C1A30459  19.036  39.792   8.654
 2078POPC   D2A30460  19.049  39.968   8.255
 2078POPC   C3A30461  19.035  39.700   7.908
 2078POPC   C4A30462  19.135  39.739   7.496
 2078POPC   C1B30463  19.470  40.052   8.755
 2078POPC   C2B30464  19.575  40.095   8.309
 2078POPC   C3B30465  19.380  40.114   7.886
 2078POPC   C4B30466  19.364  40.204   7.443
 2079POPC   NC330467  13.997  39.699   9.415
 2079POPC   PO430468  13.867  40.384   9.454
 2079POPC   GL130469  13.519  40.088   9.246
 2079POPC   GL230470  13.470  39.692   9.234
 2079POPC   C1A30471  13.410  40.002   8.819
 2079POPC   D2A30472  13.609  39.988   8.453
 2079POPC   C3A30473  13.438  40.080   8.072
 2079POPC   C4A30474  13.533  40.238   7.657
 2079POPC   C1B30475  13.674  39.566   8.823
 2079POPC   C2B30476  13.592  39.481   8.384
 2079POPC   C3B30477  13.806  39.693   8.053
 2079POPC   C4B30478  13.802  39.792   7.627
 2080POPC   NC330479  24.492  22.627   9.337
 2080POPC   PO430480  24.167  22.133   9.719
 2080POPC   GL130481  24.347  22.158   9.243
 2080POPC   GL230482  24.188  22.411   9.004
 2080POPC   C1A30483  24.596  22.173   8.827
 2080POPC   D2A30484  24.747  22.064   8.405
 2080POPC   C3A30485  24.544  22.173   8.020
 2080POPC   C4A30486  24.583  22.065   7.599
 2080POPC   C1B30487  23.901  22.556   8.691
 2080POPC   C2B30488  23.911  22.558   8.251
 2080POPC   C3B30489  24.193  22.545   7.930
 2080POPC   C4B30490  24.159  22.320   7.537
 2081POPC   NC330491  25.183  41.239   9.551
 2081POPC   PO430492  25.505  41.772   9.618
 2081POPC   GL130493  25.554  41.542   9.220
 2081POPC   GL230494  25.364  41.246   9.090
 2081POPC   C1A30495  25.683  41.456   8.776
 2081POPC   D2A30496  25.610  41.240   8.417
 2081POPC   C3A30497  25.657  41.441   8.087
 2081POPC   C4A30498  25.459  41.415   7.704
 2081POPC   C1B30499  25.171  41.226   8.675
 2081POPC   C2B30500  25.149  41.361   8.224
 2081POPC   C3B30501  24.979  41.330   7.818
 2081POPC   C4B30502  25.040  41.645   7.476
 2082POPC   NC330503  25.460  42.227   9.570
 2082POPC   PO430504  25.009  42.579   9.371
 2082POPC   GL130505  25.210  42.290   9.091
 2082POPC   GL230506  25.208  41.944   9.225
 2082POPC   C1A30507  25.159  42.209   8.634
 2082POPC   D2A30508  25.429  42.279   8.284
 2082POPC   C3A30509  25.133  42.290   7.901
 2082POPC   C4A30510  24.822  42.106   7.589
 2082POPC   C1B30511  25.426  41.865   8.864
 2082POPC   C2B30512  25.390  41.750   8.437
 2082POPC   C3B30513  25.402  41.867   7.988
 2082POPC   C4B30514  25.657  42.247   7.822
 2083POPC   NC330515  38.765  40.390   9.483
 2083POPC   PO430516  39.015  39.715   9.440
 2083POPC   GL130517  38.653  39.816   9.142
 2083POPC   GL230518  38.516  40.168   9.083
 2083POPC   C1A30519  38.555  39.827   8.679
 2083POPC   D2A30520  38.798  39.922   8.283
 2083POPC   C3A30521  38.732  39.777   7.827
 2083POPC   C4A30522  38.742  39.679   7.343
 2083POPC   C1B30523  38.820  40.362   8.797
 2083POPC   C2B30524  38.984  40.391   8.368
 2083POPC   C3B30525  38.685  40.427   8.018
 2083POPC   C4B30526  38.304  40.298   7.832
 2084POPC   NC330527  27.354  20.748   9.365
 2084POPC   PO430528  27.698  20.352   9.792
 2084POPC   GL130529  27.866  20.588   9.364
 2084POPC   GL230530  27.781  20.366   9.072
 2084POPC   C1A30531  27.793  20.831   8.910
 2084POPC   D2A30532  27.708  20.638   8.490
 2084POPC   C3A30533  27.475  20.720   8.124
 2084POPC   C4A30534  27.688  20.497   7.815
 2084POPC   C1B30535  27.385  20.386   8.781
 2084POPC   C2B30536  27.184  20.289   8.389
 2084POPC   C3B30537  27.329  20.130   7.986
 2084POPC   C4B30538  27.335  20.217   7.556
 2085POPC   NC330539  22.332  25.560   9.390
 2085POPC   PO430540  21.812  25.224   9.459
 2085POPC   GL130541  21.920  25.379   9.055
 2085POPC   GL230542  22.166  25.613   8.915
 2085POPC   C1A30543  21.738  25.400   8.654
 2085POPC   D2A30544  21.884  25.123   8.319
 2085POPC   C3A30545  22.183  25.330   8.072
 2085POPC   C4A30546  22.058  25.643   7.773
 2085POPC   C1B30547  22.461  25.345   8.705
 2085POPC   C2B30548  22.666  25.333   8.300
 2085POPC   C3B30549  22.653  25.431   7.869
 2085POPC   C4B30550  22.493  25.700   7.533
 2086POPC   NC330551  39.040  20.153   9.758
 2086POPC   PO430552  39.385  20.708   9.943
 2086POPC   GL130553  39.328  20.526   9.458
 2086POPC   GL230554  39.562  20.734   9.209
 2086POPC   C1A30555  39.085  20.593   9.010
 2086POPC   D2A30556  38.971  20.392   8.559
 2086POPC   C3A30557  39.089  20.543   8.114
 2086POPC   C4A30558  38.921  20.681   7.678
 2086POPC   C1B30559  39.443  20.892   8.758
 2086POPC   C2B30560  39.299  20.998   8.309
 2086POPC   C3B30561  39.279  21.000   7.823
 2086POPC   C4B30562  39.115  21.034   7.350
 2087POPC   NC330563  34.063  19.691   9.542
 2087POPC   PO430564  33.874  20.271   9.176
 2087POPC   GL130565  33.709  19.816   9.100
 2087POPC   GL230566  33.357  19.678   9.208
 2087POPC   C1A30567  33.893  19.657   8.713
 2087POPC   D2A30568  34.085  19.932   8.399
 2087POPC   C3A30569  33.869  19.997   8.020
 2087POPC   C4A30570  34.118  20.050   7.679
 2087POPC   C1B30571  33.376  19.595   8.727
 2087POPC   C2B30572  33.563  19.600   8.280
 2087POPC   C3B30573  33.710  19.536   7.841
 2087POPC   C4B30574  33.520  19.405   7.439
 2088POPC   NC330575  39.692  28.847   9.649
 2088POPC   PO430576  40.276  29.141   9.770
 2088POPC   GL130577  40.087  29.011   9.331
 2088POPC   GL230578  40.106  29.316   9.129
 2088POPC   C1A30579  40.048  28.930   8.826
 2088POPC   D2A30580  39.925  28.829   8.382
 2088POPC   C3A30581  39.923  28.958   7.924
 2088POPC   C4A30582  39.757  28.673   7.567
 2088POPC   C1B30583  40.363  29.325   8.709
 2088POPC   C2B30584  40.256  29.202   8.283
 2088POPC   C3B30585  40.407  29.171   7.845
 2088POPC   C4B30586  40.274  29.272   7.405
 2089POPC   NC330587  24.379  19.945   9.593
 2089POPC   PO430588  24.930  20.178   9.289
 2089POPC   GL130589  24.533  19.949   9.105
 2089POPC   GL230590  24.256  19.687   9.178
 2089POPC   C1A30591  24.491  19.759   8.712
 2089POPC   D2A30592  24.690  19.693   8.352
 2089POPC   C3A30593  24.508  19.824   8.007
 2089POPC   C4A30594  24.701  19.960   7.619
 2089POPC   C1B30595  24.091  19.432   8.844
 2089POPC   C2B30596  24.243  19.384   8.418
 2089POPC   C3B30597  24.129  19.460   7.965
 2089POPC   C4B30598  24.287  19.676   7.581
 2090POPC   NC330599  38.349  33.365   9.587
 2090POPC   PO430600  38.596  32.718   9.605
 2090POPC   GL130601  38.457  32.937   9.231
 2090POPC   GL230602  38.788  32.996   9.014
 2090POPC   C1A30603  38.381  33.282   8.913
 2090POPC   D2A30604  38.660  33.292   8.555
 2090POPC   C3A30605  38.510  33.389   8.150
 2090POPC   C4A30606  38.254  33.226   7.801
 2090POPC   C1B30607  38.476  32.806   8.738
 2090POPC   C2B30608  38.289  32.982   8.385
 2090POPC   C3B30609  38.495  32.866   8.034
 2090POPC   C4B30610  38.338  32.704   7.648
 2091POPC   NC330611   7.604  27.337   9.647
 2091POPC   PO430612   8.326  27.335   9.639
 2091POPC   GL130613   8.261  27.676   9.326
 2091POPC   GL230614   8.187  27.421   9.109
 2091POPC   C1A30615   8.221  27.900   8.916
 2091POPC   D2A30616   8.265  27.841   8.499
 2091POPC   C3A30617   7.987  27.928   8.195
 2091POPC   C4A30618   8.060  27.846   7.780
 2091POPC   C1B30619   8.132  27.382   8.703
 2091POPC   C2B30620   7.939  27.427   8.315
 2091POPC   C3B30621   8.103  27.347   7.935
 2091POPC   C4B30622   8.395  27.363   7.620
 2092POPC   NC330623  31.732  24.375   9.549
 2092POPC   PO430624  31.344  24.689   9.795
 2092POPC   GL130625  31.383  24.718   9.313
 2092POPC   GL230626  31.069  24.728   9.104
 2092POPC   C1A30627  31.487  24.566   8.851
 2092POPC   D2A30628  31.400  24.331   8.425
 2092POPC   C3A30629  31.533  24.455   7.975
 2092POPC   C4A30630  31.430  24.609   7.533
 2092POPC   C1B30631  31.011  24.632   8.625
 2092POPC   C2B30632  31.097  24.668   8.157
 2092POPC   C3B30633  31.053  24.366   7.807
 2092POPC   C4B30634  30.982  24.371   7.345
 2093POPC   NC330635  28.108  23.213   9.890
 2093POPC   PO430636  28.504  23.394   9.435
 2093POPC   GL130637  28.333  23.551   9.096
 2093POPC   GL230638  28.542  23.800   9.019
 2093POPC   C1A30639  28.126  23.729   8.730
 2093POPC   D2A30640  28.095  23.896   8.328
 2093POPC   C3A30641  28.156  23.680   7.956
 2093POPC   C4A30642  28.296  23.945   7.668
 2093POPC   C1B30643  28.613  23.540   8.665
 2093POPC   C2B30644  28.596  23.663   8.223
 2093POPC   C3B30645  28.640  23.568   7.766
 2093POPC   C4B30646  28.882  23.361   7.440
 2094POPC   NC330647  38.419  17.020   9.329
 2094POPC   PO430648  38.206  16.453   9.531
 2094POPC   GL130649  38.534  16.434   9.259
 2094POPC   GL230650  38.313  16.245   9.050
 2094POPC   C1A30651  38.734  16.536   8.872
 2094POPC   D2A30652  38.486  16.603   8.503
 2094POPC   C3A30653  38.677  16.733   8.113
 2094POPC   C4A30654  38.552  16.823   7.685
 2094POPC   C1B30655  37.956  16.377   8.790
 2094POPC   C2B30656  37.934  16.585   8.429
 2094POPC   C3B30657  38.158  16.540   8.075
 2094POPC   C4B30658  37.937  16.352   7.748
 2095POPC   NC330659   6.331  32.908   9.523
 2095POPC   PO430660   6.801  33.319   9.675
 2095POPC   GL130661   6.712  33.139   9.255
 2095POPC   GL230662   6.439  33.328   9.217
 2095POPC   C1A30663   6.852  33.040   8.800
 2095POPC   D2A30664   7.032  33.231   8.414
 2095POPC   C3A30665   6.813  33.135   8.014
 2095POPC   C4A30666   6.757  32.999   7.576
 2095POPC   C1B30667   6.328  33.127   8.861
 2095POPC   C2B30668   6.267  33.258   8.453
 2095POPC   C3B30669   6.383  33.480   8.076
 2095POPC   C4B30670   6.320  33.210   7.734
 2096POPC   NC330671  28.396  34.637   9.356
 2096POPC   PO430672  28.638  34.089   9.546
 2096POPC   GL130673  28.368  34.177   9.158
 2096POPC   GL230674  28.001  34.297   9.221
 2096POPC   C1A30675  28.488  34.314   8.744
 2096POPC   D2A30676  28.547  34.471   8.287
 2096POPC   C3A30677  28.348  34.714   7.964
 2096POPC   C4A30678  28.506  34.591   7.543
 2096POPC   C1B30679  27.988  34.450   8.805
 2096POPC   C2B30680  28.100  34.274   8.436
 2096POPC   C3B30681  28.044  34.300   8.038
 2096POPC   C4B30682  27.967  34.520   7.699
 2097POPC   NC330683  18.712  28.203   9.348
 2097POPC   PO430684  19.306  28.424   9.418
 2097POPC   GL130685  19.098  28.485   9.050
 2097POPC   GL230686  18.835  28.683   9.212
 2097POPC   C1A30687  18.944  28.209   8.693
 2097POPC   D2A30688  18.724  28.086   8.319
 2097POPC   C3A30689  18.906  28.058   7.915
 2097POPC   C4A30690  19.180  28.342   7.705
 2097POPC   C1B30691  18.681  28.654   8.813
 2097POPC   C2B30692  18.975  28.671   8.459
 2097POPC   C3B30693  18.909  28.553   8.058
 2097POPC   C4B30694  18.957  28.805   7.707
 2098POPC   NC330695   9.062  33.748   9.674
 2098POPC   PO430696   8.507  33.812   9.644
 2098POPC   GL130697   8.846  33.872   9.237
 2098POPC   GL230698   9.030  33.565   9.183
 2098POPC   C1A30699   8.969  33.803   8.724
 2098POPC   D2A30700   8.794  33.496   8.393
 2098POPC   C3A30701   8.853  33.587   7.946
 2098POPC   C4A30702   8.966  33.992   7.763
 2098POPC   C1B30703   9.333  33.469   8.842
 2098POPC   C2B30704   9.293  33.390   8.387
 2098POPC   C3B30705   9.359  33.514   7.936
 2098POPC   C4B30706   9.178  33.594   7.516
 2099POPC   NC330707  37.161  14.570   9.713
 2099POPC   PO430708  36.497  14.644   9.486
 2099POPC   GL130709  36.762  14.405   9.193
 2099POPC   GL230710  37.137  14.461   9.177
 2099POPC   C1A30711  36.855  14.346   8.771
 2099POPC   D2A30712  36.733  14.492   8.388
 2099POPC   C3A30713  36.885  14.206   8.093
 2099POPC   C4A30714  36.675  14.200   7.729
 2099POPC   C1B30715  37.223  14.737   8.804
 2099POPC   C2B30716  37.124  14.882   8.382
 2099POPC   C3B30717  36.984  14.693   7.952
 2099POPC   C4B30718  37.197  14.355   7.701
 2100POPC   NC330719  32.428   1.718   9.501
 2100POPC   PO430720  31.869   2.067   9.596
 2100POPC   GL130721  31.983   2.049   9.170
 2100POPC   GL230722  32.335   2.060   9.117
 2100POPC   C1A30723  31.931   2.120   8.724
 2100POPC   D2A30724  31.798   1.932   8.337
 2100POPC   C3A30725  31.885   2.191   7.967
 2100POPC   C4A30726  31.983   2.159   7.506
 2100POPC   C1B30727  32.413   1.943   8.685
 2100POPC   C2B30728  32.295   2.086   8.272
 2100POPC   C3B30729  32.352   1.980   7.831
 2100POPC   C4B30730  32.649   1.758   7.609
 2101POPC   NC330731   6.842   8.593   9.433
 2101POPC   PO430732   6.268   8.241   9.475
 2101POPC   GL130733   6.477   8.241   9.124
 2101POPC   GL230734   6.450   8.562   9.055
 2101POPC   C1A30735   6.701   8.226   8.729
 2101POPC   D2A30736   6.645   8.362   8.308
 2101POPC   C3A30737   6.738   8.113   7.930
 2101POPC   C4A30738   6.534   8.231   7.537
 2101POPC   C1B30739   6.723   8.743   8.754
 2101POPC   C2B30740   6.996   8.775   8.440
 2101POPC   C3B30741   6.755   8.811   8.089
 2101POPC   C4B30742   6.845   8.565   7.768
 2102POPC   NC330743  28.195   4.757   9.882
 2102POPC   PO430744  28.357   5.435   9.712
 2102POPC   GL130745  28.397   5.268   9.236
 2102POPC   GL230746  28.636   4.971   9.043
 2102POPC   C1A30747  28.209   5.128   8.839
 2102POPC   D2A30748  28.368   4.824   8.547
 2102POPC   C3A30749  28.284   4.846   8.123
 2102POPC   C4A30750  28.111   5.061   7.809
 2102POPC   C1B30751  28.800   4.638   8.756
 2102POPC   C2B30752  28.900   4.674   8.322
 2102POPC   C3B30753  28.749   4.758   7.902
 2102POPC   C4B30754  28.510   4.816   7.519
 2103POPC   NC330755   2.669   4.477   9.492
 2103POPC   PO430756   2.728   3.874   9.335
 2103POPC   GL130757   2.867   4.163   9.079
 2103POPC   GL230758   2.544   4.337   9.021
 2103POPC   C1A30759   2.888   4.243   8.642
 2103POPC   D2A30760   2.718   4.216   8.254
 2103POPC   C3A30761   2.684   4.490   7.922
 2103POPC   C4A30762   2.874   4.243   7.594
 2103POPC   C1B30763   2.375   4.122   8.661
 2103POPC   C2B30764   2.204   4.205   8.259
 2103POPC   C3B30765   2.421   4.066   7.856
 2103POPC   C4B30766   2.397   4.297   7.446
 2104POPC   NC330767  26.042  23.155   9.351
 2104POPC   PO430768  26.149  22.526   9.533
 2104POPC   GL130769  25.967  22.694   9.113
 2104POPC   GL230770  25.689  22.922   9.071
 2104POPC   C1A30771  25.978  22.811   8.655
 2104POPC   D2A30772  26.274  22.789   8.299
 2104POPC   C3A30773  26.120  22.804   7.878
 2104POPC   C4A30774  26.305  23.030   7.528
 2104POPC   C1B30775  25.598  23.171   8.687
 2104POPC   C2B30776  25.664  23.170   8.238
 2104POPC   C3B30777  25.386  23.182   7.864
 2104POPC   C4B30778  25.432  22.962   7.446
 2105POPC   NC330779  16.342   7.087   9.472
 2105POPC   PO430780  15.630   7.265   9.435
 2105POPC   GL130781  15.952   7.389   9.136
 2105POPC   GL230782  16.152   7.109   8.972
 2105POPC   C1A30783  15.939   7.521   8.691
 2105POPC   D2A30784  15.782   7.341   8.288
 2105POPC   C3A30785  16.074   7.255   7.947
 2105POPC   C4A30786  16.187   7.548   7.606
 2105POPC   C1B30787  15.701   7.065   8.792
 2105POPC   C2B30788  15.449   6.973   8.404
 2105POPC   C3B30789  15.466   7.136   7.939
 2105POPC   C4B30790  15.752   7.104   7.555
 2106POPC   NC330791  12.249   0.217   9.456
 2106POPC   PO430792  11.787   0.697   9.695
 2106POPC   GL130793  11.967   0.607   9.253
 2106POPC   GL230794  11.725   0.718   9.090
 2106POPC   C1A30795  12.113   0.391   8.826
 2106POPC   D2A30796  12.388   0.302   8.450
 2106POPC   C3A30797  12.182   0.366   8.036
 2106POPC   C4A30798  12.024   0.287   7.618
 2106POPC   C1B30799  11.601   0.454   8.745
 2106POPC   C2B30800  11.793   0.467   8.354
 2106POPC   C3B30801  11.808   0.695   7.962
 2106POPC   C4B30802  11.556   0.560   7.633
 2107POPC   NC330803  21.675   4.876   9.747
 2107POPC   PO430804  22.069   5.461   9.580
 2107POPC   GL130805  22.105   5.227   9.214
 2107POPC   GL230806  21.875   5.477   9.049
 2107POPC   C1A30807  22.179   4.952   8.853
 2107POPC   D2A30808  22.109   5.043   8.435
 2107POPC   C3A30809  22.364   4.908   8.114
 2107POPC   C4A30810  22.127   4.879   7.754
 2107POPC   C1B30811  22.261   5.445   8.779
 2107POPC   C2B30812  22.445   5.390   8.312
 2107POPC   C3B30813  22.363   5.353   7.846
 2107POPC   C4B30814  22.189   5.543   7.451
 2108POPC   NC330815  38.025  24.791   9.512
 2108POPC   PO430816  37.463  24.397   9.656
 2108POPC   GL130817  37.539  24.336   9.242
 2108POPC   GL230818  37.649  24.674   9.189
 2108POPC   C1A30819  37.630  24.347   8.806
 2108POPC   D2A30820  37.427  24.428   8.435
 2108POPC   C3A30821  37.660  24.271   8.152
 2108POPC   C4A30822  37.601  24.361   7.740
 2108POPC   C1B30823  37.919  24.762   8.864
 2108POPC   C2B30824  37.903  24.661   8.447
 2108POPC   C3B30825  37.709  24.771   8.089
 2108POPC   C4B30826  37.762  24.850   7.697
 2109POPC   NC330827  19.958  14.229   9.626
 2109POPC   PO430828  19.366  14.516   9.463
 2109POPC   GL130829  19.642  14.236   9.192
 2109POPC   GL230830  20.042  14.222   9.148
 2109POPC   C1A30831  19.716  14.318   8.776
 2109POPC   D2A30832  19.559  14.418   8.399
 2109POPC   C3A30833  19.793  14.528   8.060
 2109POPC   C4A30834  19.622  14.577   7.667
 2109POPC   C1B30835  20.224  14.370   8.790
 2109POPC   C2B30836  20.065  14.245   8.404
 2109POPC   C3B30837  20.148  14.160   8.016
 2109POPC   C4B30838  20.106  14.375   7.654
 2110POPC   NC330839  36.179  36.478  10.016
 2110POPC   PO430840  36.192  36.031   9.447
 2110POPC   GL130841  36.254  36.154   8.987
 2110POPC   GL230842  36.042  36.457   9.002
 2110POPC   C1A30843  36.411  36.026   8.528
 2110POPC   D2A30844  36.300  35.817   8.110
 2110POPC   C3A30845  36.301  36.096   7.740
 2110POPC   C4A30846  36.111  36.379   7.374
 2110POPC   C1B30847  35.991  36.340   8.584
 2110POPC   C2B30848  36.081  36.267   8.171
 2110POPC   C3B30849  35.860  36.358   7.819
 2110POPC   C4B30850  35.596  36.344   7.466
 2111POPC   NC330851  26.676  10.540   9.506
 2111POPC   PO430852  26.679   9.898   9.298
 2111POPC   GL130853  26.680  10.277   9.057
 2111POPC   GL230854  26.932  10.510   9.072
 2111POPC   C1A30855  26.556  10.498   8.682
 2111POPC   D2A30856  26.410  10.735   8.329
 2111POPC   C3A30857  26.572  10.649   7.942
 2111POPC   C4A30858  26.646  10.301   7.711
 2111POPC   C1B30859  27.108  10.613   8.703
 2111POPC   C2B30860  26.922  10.561   8.326
 2111POPC   C3B30861  27.055  10.478   7.952
 2111POPC   C4B30862  27.117  10.874   7.761
 2112POPC   NC330863  14.957  19.045   9.513
 2112POPC   PO430864  15.573  19.351   9.448
 2112POPC   GL130865  15.314  19.108   9.140
 2112POPC   GL230866  15.033  18.876   9.066
 2112POPC   C1A30867  15.173  19.217   8.712
 2112POPC   D2A30868  14.974  19.328   8.305
 2112POPC   C3A30869  15.247  19.350   7.925
 2112POPC   C4A30870  15.018  19.242   7.563
 2112POPC   C1B30871  15.314  18.706   8.784
 2112POPC   C2B30872  15.187  18.834   8.380
 2112POPC   C3B30873  15.037  18.907   7.983
 2112POPC   C4B30874  15.287  18.804   7.596
 2113POPC   NC330875   9.524  23.109   9.494
 2113POPC   PO430876   9.915  22.561   9.597
 2113POPC   GL130877   9.883  22.849   9.215
 2113POPC   GL230878   9.610  22.729   9.050
 2113POPC   C1A30879   9.725  23.201   8.886
 2113POPC   D2A30880   9.377  23.282   8.567
 2113POPC   C3A30881   9.367  23.027   8.188
 2113POPC   C4A30882   9.532  23.143   7.783
 2113POPC   C1B30883   9.639  22.804   8.578
 2113POPC   C2B30884   9.852  22.779   8.182
 2113POPC   C3B30885   9.971  22.910   7.762
 2113POPC   C4B30886  10.091  22.827   7.338
 2114POPC   NC330887  33.534  41.489   9.344
 2114POPC   PO430888  34.158  41.474   9.631
 2114POPC   GL130889  34.030  41.507   9.169
 2114POPC   GL230890  33.837  41.798   9.035
 2114POPC   C1A30891  33.835  41.388   8.747
 2114POPC   D2A30892  33.662  41.269   8.350
 2114POPC   C3A30893  33.872  41.224   8.003
 2114POPC   C4A30894  34.051  41.271   7.623
 2114POPC   C1B30895  33.657  41.854   8.592
 2114POPC   C2B30896  33.778  41.756   8.171
 2114POPC   C3B30897  33.771  41.682   7.728
 2114POPC   C4B30898  33.685  41.821   7.280
 2115POPC   NC330899  41.230  44.125   9.381
 2115POPC   PO430900  41.468  43.616   9.671
 2115POPC   GL130901  41.635  43.696   9.206
 2115POPC   GL230902  41.660  44.055   9.111
 2115POPC   C1A30903  41.487  43.720   8.756
 2115POPC   D2A30904  41.457  43.974   8.392
 2115POPC   C3A30905  41.562  43.770   8.007
 2115POPC   C4A30906  41.430  43.490   7.678
 2115POPC   C1B30907  41.889  44.037   8.741
 2115POPC   C2B30908  42.063  44.079   8.328
 2115POPC   C3B30909  41.903  44.161   7.913
 2115POPC   C4B30910  41.497  44.243   7.825
 2116POPC   NC330911  23.921  16.913   9.381
 2116POPC   PO430912  23.363  16.652   9.408
 2116POPC   GL130913  23.573  16.758   9.051
 2116POPC   GL230914  23.555  17.123   9.046
 2116POPC   C1A30915  23.838  16.867   8.699
 2116POPC   D2A30916  23.697  16.751   8.305
 2116POPC   C3A30917  23.977  16.492   8.054
 2116POPC   C4A30918  24.089  16.578   7.609
 2116POPC   C1B30919  23.312  16.965   8.669
 2116POPC   C2B30920  23.091  17.140   8.340
 2116POPC   C3B30921  23.344  17.002   8.026
 2116POPC   C4B30922  23.680  16.820   7.797
 2117POPC   NC330923  23.933  11.096   9.538
 2117POPC   PO430924  23.440  11.564   9.704
 2117POPC   GL130925  23.695  11.461   9.237
 2117POPC   GL230926  23.840  11.126   9.063
 2117POPC   C1A30927  23.667  11.530   8.738
 2117POPC   D2A30928  23.622  11.399   8.274
 2117POPC   C3A30929  23.835  11.565   7.895
 2117POPC   C4A30930  23.769  11.345   7.510
 2117POPC   C1B30931  23.812  11.047   8.664
 2117POPC   C2B30932  23.704  10.885   8.314
 2117POPC   C3B30933  23.788  11.009   7.916
 2117POPC   C4B30934  24.181  11.197   7.783
 2118POPC   NC330935  12.162  14.769   9.509
 2118POPC   PO430936  12.570  15.292   9.344
 2118POPC   GL130937  12.323  15.078   9.046
 2118POPC   GL230938  11.970  15.015   9.083
 2118POPC   C1A30939  12.241  15.095   8.600
 2118POPC   D2A30940  12.251  15.174   8.177
 2118POPC   C3A30941  12.351  14.825   7.920
 2118POPC   C4A30942  12.195  14.705   7.515
 2118POPC   C1B30943  11.854  15.352   8.785
 2118POPC   C2B30944  11.751  15.334   8.320
 2118POPC   C3B30945  11.817  15.199   7.867
 2118POPC   C4B30946  11.568  15.289   7.483
 2119POPC   NC330947  16.909  14.379   9.734
 2119POPC   PO430948  16.493  14.812   9.436
 2119POPC   GL130949  16.832  14.585   9.186
 2119POPC   GL230950  16.847  14.225   9.238
 2119POPC   C1A30951  16.998  14.459   8.760
 2119POPC   D2A30952  16.731  14.530   8.392
 2119POPC   C3A30953  16.813  14.509   7.957
 2119POPC   C4A30954  16.992  14.240   7.660
 2119POPC   C1B30955  16.741  14.049   8.828
 2119POPC   C2B30956  16.837  13.988   8.393
 2119POPC   C3B30957  16.650  14.012   8.006
 2119POPC   C4B30958  16.743  13.790   7.664
 2120POPC   NC330959  19.969   9.036   9.661
 2120POPC   PO430960  19.503   8.533   9.497
 2120POPC   GL130961  19.757   8.727   9.166
 2120POPC   GL230962  20.008   8.971   9.155
 2120POPC   C1A30963  19.643   8.941   8.767
 2120POPC   D2A30964  19.852   9.264   8.517
 2120POPC   C3A30965  19.843   9.218   8.056
 2120POPC   C4A30966  19.798   9.013   7.653
 2120POPC   C1B30967  20.122   8.780   8.779
 2120POPC   C2B30968  19.986   8.766   8.368
 2120POPC   C3B30969  20.177   8.784   7.978
 2120POPC   C4B30970  20.251   8.853   7.518
 2121POPC   NC330971  37.145  19.142   9.587
 2121POPC   PO430972  36.806  18.701   9.325
 2121POPC   GL130973  37.116  18.914   9.096
 2121POPC   GL230974  37.039  19.287   9.116
 2121POPC   C1A30975  37.067  18.773   8.667
 2121POPC   D2A30976  36.664  18.767   8.408
 2121POPC   C3A30977  36.814  18.794   7.955
 2121POPC   C4A30978  36.859  18.770   7.480
 2121POPC   C1B30979  36.816  19.224   8.742
 2121POPC   C2B30980  36.979  19.157   8.332
 2121POPC   C3B30981  37.143  19.252   7.931
 2121POPC   C4B30982  37.080  19.449   7.556
 2122POPC   NC330983  34.238  18.327   9.580
 2122POPC   PO430984  34.863  18.520   9.611
 2122POPC   GL130985  34.537  18.536   9.217
 2122POPC   GL230986  34.292  18.237   9.093
 2122POPC   C1A30987  34.473  18.530   8.749
 2122POPC   D2A30988  34.707  18.328   8.443
 2122POPC   C3A30989  34.647  18.459   8.046
 2122POPC   C4A30990  34.621  18.309   7.630
 2122POPC   C1B30991  34.269  17.969   8.693
 2122POPC   C2B30992  34.320  18.029   8.219
 2122POPC   C3B30993  34.480  17.801   7.850
 2122POPC   C4B30994  34.452  17.884   7.391
 2123POPC   NC330995  37.192  18.443   9.327
 2123POPC   PO430996  37.773  18.107   9.614
 2123POPC   GL130997  37.621  18.175   9.219
 2123POPC   GL230998  37.704  18.473   9.230
 2123POPC   C1A30999  37.533  18.325   8.778
 2123POPC   D2A31000  37.407  18.269   8.356
 2123POPC   C3A31001  37.618  17.955   8.119
 2123POPC   C4A31002  37.696  18.281   7.869
 2123POPC   C1B31003  37.998  18.574   8.907
 2123POPC   C2B31004  38.049  18.709   8.492
 2123POPC   C3B31005  37.812  18.696   8.142
 2123POPC   C4B31006  37.945  18.687   7.717
 2124POPC   NC331007  39.645  12.278   9.482
 2124POPC   PO431008  40.293  12.217   9.696
 2124POPC   GL131009  40.169  12.062   9.241
 2124POPC   GL231010  39.915  11.795   9.131
 2124POPC   C1A31011  40.353  11.907   8.867
 2124POPC   D2A31012  40.390  12.064   8.444
 2124POPC   C3A31013  40.127  11.919   8.128
 2124POPC   C4A31014  39.841  12.076   7.841
 2124POPC   C1B31015  39.886  12.063   8.711
 2124POPC   C2B31016  39.757  12.290   8.302
 2124POPC   C3B31017  39.521  12.459   7.893
 2124POPC   C4B31018  39.606  12.526   7.427
 2125POPC   NC331019  13.746  10.970   9.545
 2125POPC   PO431020  13.150  11.304   9.411
 2125POPC   GL131021  13.485  11.289   9.137
 2125POPC   GL231022  13.688  11.583   9.052
 2125POPC   C1A31023  13.769  11.089   8.879
 2125POPC   D2A31024  13.946  11.074   8.490
 2125POPC   C3A31025  13.714  11.030   8.142
 2125POPC   C4A31026  13.825  11.153   7.754
 2125POPC   C1B31027  13.771  11.566   8.625
 2125POPC   C2B31028  13.726  11.784   8.269
 2125POPC   C3B31029  13.623  11.636   7.884
 2125POPC   C4B31030  13.335  11.558   7.533
 2126POPC   NC331031  31.057   4.022   9.524
 2126POPC   PO431032  30.481   4.310   9.503
 2126POPC   GL131033  30.592   4.440   9.150
 2126POPC   GL231034  30.902   4.347   9.127
 2126POPC   C1A31035  30.442   4.535   8.789
 2126POPC   D2A31036  30.538   4.665   8.417
 2126POPC   C3A31037  30.612   4.375   8.082
 2126POPC   C4A31038  30.323   4.283   7.751
 2126POPC   C1B31039  30.948   4.552   8.703
 2126POPC   C2B31040  31.031   4.647   8.224
 2126POPC   C3B31041  30.999   4.528   7.773
 2126POPC   C4B31042  31.237   4.227   7.516
 2127POPC   NC331043  11.324  11.366   9.568
 2127POPC   PO431044  11.326  10.663   9.603
 2127POPC   GL131045  11.421  10.979   9.253
 2127POPC   GL231046  11.085  11.096   9.189
 2127POPC   C1A31047  11.435  10.957   8.800
 2127POPC   D2A31048  11.318  10.827   8.365
 2127POPC   C3A31049  11.458  11.098   8.044
 2127POPC   C4A31050  11.573  11.378   7.733
 2127POPC   C1B31051  10.987  11.184   8.761
 2127POPC   C2B31052  11.202  11.341   8.431
 2127POPC   C3B31053  11.102  11.473   8.028
 2127POPC   C4B31054  11.104  11.732   7.686
 2128POPC   NC331055   5.192   7.780   9.408
 2128POPC   PO431056   5.047   7.142   9.589
 2128POPC   GL131057   4.935   7.382   9.209
 2128POPC   GL231058   5.309   7.365   9.115
 2128POPC   C1A31059   5.004   7.544   8.760
 2128POPC   D2A31060   5.291   7.319   8.440
 2128POPC   C3A31061   5.153   7.177   8.007
 2128POPC   C4A31062   4.941   7.449   7.682
 2128POPC   C1B31063   5.563   7.584   8.780
 2128POPC   C2B31064   5.763   7.661   8.408
 2128POPC   C3B31065   5.469   7.669   8.079
 2128POPC   C4B31066   5.450   7.472   7.705
 2129POPC   NC331067  35.755  39.557   9.627
 2129POPC   PO431068  36.317  39.928   9.577
 2129POPC   GL131069  36.177  39.987   9.154
 2129POPC   GL231070  35.880  39.866   9.258
 2129POPC   C1A31071  36.300  40.047   8.746
 2129POPC   D2A31072  36.537  40.027   8.375
 2129POPC   C3A31073  36.395  40.222   8.010
 2129POPC   C4A31074  36.380  39.942   7.689
 2129POPC   C1B31075  35.737  39.989   8.889
 2129POPC   C2B31076  35.818  40.114   8.489
 2129POPC   C3B31077  35.971  39.943   8.107
 2129POPC   C4B31078  35.920  40.113   7.696
 2130POPC   NC331079  41.079  31.222   9.504
 2130POPC   PO431080  40.513  31.607   9.550
 2130POPC   GL131081  40.794  31.554   9.217
 2130POPC   GL231082  40.652  31.249   9.126
 2130POPC   C1A31083  41.021  31.420   8.837
 2130POPC   D2A31084  41.059  31.230   8.441
 2130POPC   C3A31085  41.023  31.402   8.009
 2130POPC   C4A31086  41.072  31.637   7.597
 2130POPC   C1B31087  40.534  31.515   8.747
 2130POPC   C2B31088  40.551  31.512   8.292
 2130POPC   C3B31089  40.584  31.588   7.850
 2130POPC   C4B31090  40.739  31.264   7.574
 2131POPC   NC331091  28.489   0.260   9.595
 2131POPC   PO431092  27.778   0.362   9.785
 2131POPC   GL131093  28.048   0.341   9.334
 2131POPC   GL231094  28.055   0.066   9.065
 2131POPC   C1A31095  28.393   0.447   8.970
 2131POPC   D2A31096  28.401   0.737   8.578
 2131POPC   C3A31097  28.408   0.561   8.136
 2131POPC   C4A31098  28.659   0.442   7.775
 2131POPC   C1B31099  28.341  44.992   8.696
 2131POPC   C2B31100  28.414  44.857   8.250
 2131POPC   C3B31101  28.262   0.088   7.893
 2131POPC   C4B31102  27.940   0.420   7.802
 2132POPC   NC331103  12.412   7.604   9.459
 2132POPC   PO431104  11.981   7.036   9.594
 2132POPC   GL131105  12.014   7.322   9.241
 2132POPC   GL231106  12.329   7.173   9.184
 2132POPC   C1A31107  11.847   7.455   8.812
 2132POPC   D2A31108  11.706   7.534   8.385
 2132POPC   C3A31109  12.006   7.613   8.072
 2132POPC   C4A31110  12.083   7.464   7.680
 2132POPC   C1B31111  12.439   7.358   8.776
 2132POPC   C2B31112  12.281   7.270   8.347
 2132POPC   C3B31113  12.430   7.130   7.922
 2132POPC   C4B31114  12.512   7.257   7.495
 2133POPC   NC331115  43.424   1.965   9.736
 2133POPC   PO431116  43.923   2.374   9.469
 2133POPC   GL131117  43.816   2.217   9.090
 2133POPC   GL231118  43.829   1.898   9.142
 2133POPC   C1A31119  43.980   2.207   8.663
 2133POPC   D2A31120  43.873   2.275   8.232
 2133POPC   C3A31121  44.098   2.354   7.825
 2133POPC   C4A31122  44.033   2.146   7.418
 2133POPC   C1B31123  43.913   1.695   8.772
 2133POPC   C2B31124  43.767   1.740   8.359
 2133POPC   C3B31125  43.936   1.844   7.956
 2133POPC   C4B31126  43.890   1.639   7.580
 2134POPC   NC331127   2.099   8.792   9.486
 2134POPC   PO431128   1.685   9.376   9.443
 2134POPC   GL131129   1.968   9.345   9.094
 2134POPC   GL231130   2.210   9.059   9.079
 2134POPC   C1A31131   2.038   9.275   8.644
 2134POPC   D2A31132   2.267   9.239   8.266
 2134POPC   C3A31133   2.017   9.021   8.026
 2134POPC   C4A31134   1.918   9.248   7.717
 2134POPC   C1B31135   1.836   8.859   8.866
 2134POPC   C2B31136   1.756   8.803   8.433
 2134POPC   C3B31137   1.602   8.694   8.035
 2134POPC   C4B31138   1.479   8.982   7.687
 2135POPC   NC331139  38.527  31.466   9.549
 2135POPC   PO431140  37.870  31.479   9.601
 2135POPC   GL131141  38.159  31.493   9.183
 2135POPC   GL231142  38.454  31.751   9.062
 2135POPC   C1A31143  38.321  31.339   8.800
 2135POPC   D2A31144  38.522  31.548   8.456
 2135POPC   C3A31145  38.379  31.426   8.051
 2135POPC   C4A31146  38.499  31.470   7.635
 2135POPC   C1B31147  38.162  31.859   8.679
 2135POPC   C2B31148  38.023  31.781   8.203
 2135POPC   C3B31149  38.090  31.765   7.722
 2135POPC   C4B31150  38.343  31.781   7.272
 2136POPC   NC331151  20.264  20.401   9.442
 2136POPC   PO431152  19.643  20.633   9.521
 2136POPC   GL131153  19.761  20.411   9.176
 2136POPC   GL231154  19.454  20.247   9.051
 2136POPC   C1A31155  19.977  20.646   8.858
 2136POPC   D2A31156  19.908  20.781   8.451
 2136POPC   C3A31157  19.888  20.512   8.143
 2136POPC   C4A31158  19.967  20.645   7.734
 2136POPC   C1B31159  19.465  20.674   8.803
 2136POPC   C2B31160  19.445  20.980   8.426
 2136POPC   C3B31161  19.543  20.885   7.970
 2136POPC   C4B31162  19.633  20.953   7.493
 2137POPC   NC331163  15.651  26.084   9.285
 2137POPC   PO431164  16.333  26.191   9.432
 2137POPC   GL131165  16.070  26.209   9.071
 2137POPC   GL231166  15.964  25.836   8.967
 2137POPC   C1A31167  15.995  26.230   8.648
 2137POPC   D2A31168  16.223  26.448   8.347
 2137POPC   C3A31169  16.054  26.250   8.026
 2137POPC   C4A31170  15.972  26.145   7.635
 2137POPC   C1B31171  15.592  25.873   8.691
 2137POPC   C2B31172  15.433  25.734   8.301
 2137POPC   C3B31173  15.582  25.895   7.908
 2137POPC   C4B31174  15.544  25.886   7.480
 2138POPC   NC331175  17.314  16.517   9.594
 2138POPC   PO431176  17.771  16.909   9.344
 2138POPC   GL131177  17.442  16.620   9.104
 2138POPC   GL231178  17.172  16.326   9.160
 2138POPC   C1A31179  17.505  16.715   8.667
 2138POPC   D2A31180  17.861  16.759   8.402
 2138POPC   C3A31181  17.732  16.645   7.986
 2138POPC   C4A31182  17.422  16.834   7.745
 2138POPC   C1B31183  17.364  16.223   8.779
 2138POPC   C2B31184  17.210  16.366   8.388
 2138POPC   C3B31185  17.109  16.503   7.986
 2138POPC   C4B31186  17.376  16.334   7.668
 2139POPC   NC331187  15.570  27.634   9.458
 2139POPC   PO431188  14.937  27.340   9.422
 2139POPC   GL131189  15.107  27.459   9.075
 2139POPC   GL231190  15.201  27.813   9.050
 2139POPC   C1A31191  15.264  27.341   8.675
 2139POPC   D2A31192  15.376  27.535   8.293
 2139POPC   C3A31193  15.244  27.336   7.952
 2139POPC   C4A31194  15.306  27.460   7.542
 2139POPC   C1B31195  14.924  27.699   8.661
 2139POPC   C2B31196  14.879  27.603   8.232
 2139POPC   C3B31197  15.126  27.824   7.916
 2139POPC   C4B31198  15.069  27.898   7.469
 2140POPC   NC331199  19.859  33.173   9.508
 2140POPC   PO431200  20.242  32.620   9.377
 2140POPC   GL131201  19.869  32.654   9.097
 2140POPC   GL231202  19.546  32.879   9.154
 2140POPC   C1A31203  19.851  32.737   8.641
 2140POPC   D2A31204  19.823  33.062   8.310
 2140POPC   C3A31205  20.137  33.144   7.979
 2140POPC   C4A31206  20.160  33.008   7.539
 2140POPC   C1B31207  19.497  33.120   8.755
 2140POPC   C2B31208  19.368  33.278   8.341
 2140POPC   C3B31209  19.411  33.112   7.976
 2140POPC   C4B31210  19.704  33.143   7.716
 2141POPC   NC331211  37.151  30.277   9.888
 2141POPC   PO431212  37.039  29.640   9.576
 2141POPC   GL131213  36.962  29.700   9.126
 2141POPC   GL231214  37.047  30.076   9.135
 2141POPC   C1A31215  36.983  29.838   8.687
 2141POPC   D2A31216  37.228  30.140   8.437
 2141POPC   C3A31217  37.092  30.057   8.024
 2141POPC   C4A31218  36.786  29.722   7.929
 2141POPC   C1B31219  36.878  30.337   8.785
 2141POPC   C2B31220  36.788  30.387   8.325
 2141POPC   C3B31221  36.577  30.192   7.954
 2141POPC   C4B31222  36.579  30.274   7.466
 2142POPC   NC331223  17.503  32.629   9.580
 2142POPC   PO431224  17.848  33.232   9.497
 2142POPC   GL131225  17.551  33.050   9.199
 2142POPC   GL231226  17.664  32.726   9.082
 2142POPC   C1A31227  17.583  33.132   8.729
 2142POPC   D2A31228  17.416  33.350   8.355
 2142POPC   C3A31229  17.431  33.220   7.943
 2142POPC   C4A31230  17.450  33.181   7.480
 2142POPC   C1B31231  17.509  32.634   8.659
 2142POPC   C2B31232  17.561  32.824   8.263
 2142POPC   C3B31233  17.456  32.710   7.848
 2142POPC   C4B31234  17.146  32.793   7.526
 2143POPC   NC331235  20.877  23.013   9.450
 2143POPC   PO431236  20.169  23.136   9.491
 2143POPC   GL131237  20.283  22.855   9.146
 2143POPC   GL231238  20.647  22.888   9.008
 2143POPC   C1A31239  20.316  22.582   8.799
 2143POPC   D2A31240  20.689  22.549   8.526
 2143POPC   C3A31241  20.598  22.687   8.098
 2143POPC   C4A31242  20.799  22.807   7.712
 2143POPC   C1B31243  20.359  23.092   8.693
 2143POPC   C2B31244  20.261  23.302   8.330
 2143POPC   C3B31245  20.485  23.217   7.972
 2143POPC   C4B31246  20.285  22.905   7.731
 2144POPC   NC331247  29.455  18.792   9.353
 2144POPC   PO431248  29.932  19.271   9.632
 2144POPC   GL131249  29.889  19.012   9.271
 2144POPC   GL231250  29.676  19.217   9.066
 2144POPC   C1A31251  29.922  18.842   8.828
 2144POPC   D2A31252  30.226  18.882   8.499
 2144POPC   C3A31253  30.158  19.157   8.166
 2144POPC   C4A31254  30.104  18.850   7.865
 2144POPC   C1B31255  29.477  19.071   8.692
 2144POPC   C2B31256  29.652  19.029   8.297
 2144POPC   C3B31257  29.419  19.050   7.941
 2144POPC   C4B31258  29.681  19.075   7.655
 2145POPC   NC331259  14.355  41.900   9.520
 2145POPC   PO431260  14.300  41.111   9.498
 2145POPC   GL131261  14.195  41.391   9.171
 2145POPC   GL231262  14.285  41.732   9.047
 2145POPC   C1A31263  14.018  41.372   8.784
 2145POPC   D2A31264  14.182  41.518   8.404
 2145POPC   C3A31265  14.062  41.345   8.009
 2145POPC   C4A31266  14.392  41.380   7.728
 2145POPC   C1B31267  14.298  41.979   8.629
 2145POPC   C2B31268  14.452  41.904   8.194
 2145POPC   C3B31269  14.463  41.881   7.733
 2145POPC   C4B31270  14.226  42.032   7.304
 2146POPC   NC331271  32.049  41.256   9.420
 2146POPC   PO431272  32.232  41.990   9.454
 2146POPC   GL131273  32.296  41.739   9.113
 2146POPC   GL231274  32.579  41.865   8.942
 2146POPC   C1A31275  32.089  41.608   8.730
 2146POPC   D2A31276  31.854  41.724   8.322
 2146POPC   C3A31277  32.014  41.671   7.874
 2146POPC   C4A31278  31.926  41.408   7.501
 2146POPC   C1B31279  32.615  41.410   8.806
 2146POPC   C2B31280  32.729  41.285   8.373
 2146POPC   C3B31281  32.833  41.548   8.008
 2146POPC   C4B31282  32.507  41.860   7.892
 2147POPC   NC331283  21.758  26.084   9.756
 2147POPC   PO431284  22.369  26.055   9.466
 2147POPC   GL131285  22.108  26.104   9.170
 2147POPC   GL231286  21.855  25.853   9.256
 2147POPC   C1A31287  22.277  26.078   8.768
 2147POPC   D2A31288  22.278  25.756   8.397
 2147POPC   C3A31289  22.436  25.923   7.999
 2147POPC   C4A31290  22.453  26.354   7.879
 2147POPC   C1B31291  21.782  25.975   8.793
 2147POPC   C2B31292  21.959  26.188   8.401
 2147POPC   C3B31293  21.967  26.140   7.957
 2147POPC   C4B31294  21.718  25.981   7.608
 2148POPC   NC331295  18.330  34.843   9.513
 2148POPC   PO431296  17.850  34.470   9.354
 2148POPC   GL131297  18.178  34.513   9.110
 2148POPC   GL231298  18.042  34.842   9.015
 2148POPC   C1A31299  18.278  34.395   8.695
 2148POPC   D2A31300  18.499  34.516   8.330
 2148POPC   C3A31301  18.299  34.415   7.943
 2148POPC   C4A31302  18.163  33.986   7.810
 2148POPC   C1B31303  18.463  34.860   8.795
 2148POPC   C2B31304  18.632  35.016   8.384
 2148POPC   C3B31305  18.493  34.944   7.954
 2148POPC   C4B31306  18.366  34.753   7.568
 2149POPC   NC331307  44.165  14.439   9.489
 2149POPC   PO431308  43.511  14.239   9.486
 2149POPC   GL131309  43.709  14.468   9.134
 2149POPC   GL231310  44.010  14.683   9.076
 2149POPC   C1A31311  43.877  14.311   8.755
 2149POPC   D2A31312  44.086  14.415   8.409
 2149POPC   C3A31313  43.803  14.549   8.140
 2149POPC   C4A31314  43.831  14.566   7.728
 2149POPC   C1B31315  44.227  14.826   8.699
 2149POPC   C2B31316  44.219  14.864   8.253
 2149POPC   C3B31317  44.312  14.568   7.947
 2149POPC   C4B31318  44.274  14.427   7.537
 2150POPC   NC331319  30.257  37.652   9.547
 2150POPC   PO431320  29.709  37.579   9.559
 2150POPC   GL131321  29.932  37.710   9.142
 2150POPC   GL231322  30.192  37.484   8.997
 2150POPC   C1A31323  29.923  37.755   8.663
 2150POPC   D2A31324  29.760  37.549   8.276
 2150POPC   C3A31325  29.639  37.781   7.907
 2150POPC   C4A31326  29.965  37.995   7.720
 2150POPC   C1B31327  30.017  37.238   8.615
 2150POPC   C2B31328  29.808  37.035   8.227
 2150POPC   C3B31329  29.692  37.269   7.857
 2150POPC   C4B31330  30.038  37.473   7.768
 2151POPC   NC331331  41.396   0.833   9.783
 2151POPC   PO431332  41.815   0.383   9.615
 2151POPC   GL131333  41.823   0.267   9.144
 2151POPC   GL231334  42.131   0.231   8.956
 2151POPC   C1A31335  41.640   0.353   8.733
 2151POPC   D2A31336  41.646   0.621   8.378
 2151POPC   C3A31337  41.302   0.579   8.120
 2151POPC   C4A31338  41.447   0.547   7.744
 2151POPC   C1B31339  41.886  44.906   8.785
 2151POPC   C2B31340  41.695  44.920   8.411
 2151POPC   C3B31341  41.686   0.169   8.057
 2151POPC   C4B31342  41.747   0.106   7.614
 2152POPC   NC331343  21.541  35.705   9.412
 2152POPC   PO431344  21.556  35.019   9.410
 2152POPC   GL131345  21.518  35.296   9.086
 2152POPC   GL231346  21.184  35.222   9.056
 2152POPC   C1A31347  21.623  35.584   8.752
 2152POPC   D2A31348  21.450  35.746   8.389
 2152POPC   C3A31349  21.469  35.468   8.040
 2152POPC   C4A31350  21.370  35.694   7.682
 2152POPC   C1B31351  21.035  34.997   8.723
 2152POPC   C2B31352  21.199  35.063   8.314
 2152POPC   C3B31353  21.040  34.978   7.911
 2152POPC   C4B31354  21.215  35.200   7.521
 2153POPC   NC331355  25.235  36.749   9.494
 2153POPC   PO431356  25.098  37.336   9.645
 2153POPC   GL131357  25.399  37.104   9.176
 2153POPC   GL231358  25.565  36.797   9.069
 2153POPC   C1A31359  25.456  37.215   8.707
 2153POPC   D2A31360  25.555  36.875   8.432
 2153POPC   C3A31361  25.541  36.909   7.995
 2153POPC   C4A31362  25.427  36.846   7.565
 2153POPC   C1B31363  25.162  36.815   8.770
 2153POPC   C2B31364  25.077  36.824   8.292
 2153POPC   C3B31365  25.166  36.571   7.887
 2153POPC   C4B31366  25.073  36.509   7.433
 2154POPC   NC331367   4.673  19.121   9.712
 2154POPC   PO431368   4.221  18.686   9.512
 2154POPC   GL131369   4.295  18.865   9.132
 2154POPC   GL231370   4.535  19.139   9.196
 2154POPC   C1A31371   4.078  18.813   8.718
 2154POPC   D2A31372   4.088  19.104   8.382
 2154POPC   C3A31373   4.114  18.910   8.010
 2154POPC   C4A31374   4.288  19.003   7.636
 2154POPC   C1B31375   4.497  19.137   8.722
 2154POPC   C2B31376   4.498  19.418   8.350
 2154POPC   C3B31377   4.298  19.419   7.943
 2154POPC   C4B31378   4.454  19.476   7.502
 2155POPC   NC331379  19.304  32.072   9.637
 2155POPC   PO431380  18.837  32.526   9.740
 2155POPC   GL131381  18.969  32.267   9.270
 2155POPC   GL231382  19.126  31.992   9.170
 2155POPC   C1A31383  18.855  32.243   8.815
 2155POPC   D2A31384  18.860  32.519   8.451
 2155POPC   C3A31385  18.801  32.346   8.054
 2155POPC   C4A31386  18.733  32.667   7.781
 2155POPC   C1B31387  19.253  31.947   8.771
 2155POPC   C2B31388  19.167  32.121   8.363
 2155POPC   C3B31389  19.251  32.125   7.924
 2155POPC   C4B31390  19.505  32.386   7.683
 2156POPC   NC331391  23.294  19.626   9.482
 2156POPC   PO431392  23.933  19.773   9.592
 2156POPC   GL131393  23.765  19.854   9.209
 2156POPC   GL231394  24.008  20.143   9.159
 2156POPC   C1A31395  23.609  19.623   8.838
 2156POPC   D2A31396  23.740  19.434   8.437
 2156POPC   C3A31397  23.647  19.657   8.081
 2156POPC   C4A31398  23.362  19.803   7.774
 2156POPC   C1B31399  24.027  19.935   8.758
 2156POPC   C2B31400  24.067  19.888   8.322
 2156POPC   C3B31401  24.122  20.165   7.968
 2156POPC   C4B31402  23.964  20.073   7.541
 2157POPC   NC331403  36.430  15.761   9.448
 2157POPC   PO431404  36.455  16.441   9.411
 2157POPC   GL131405  36.282  16.175   9.137
 2157POPC   GL231406  35.987  16.022   9.275
 2157POPC   C1A31407  36.332  16.157   8.682
 2157POPC   D2A31408  36.467  16.278   8.261
 2157POPC   C3A31409  36.321  15.986   7.958
 2157POPC   C4A31410  35.952  16.094   7.714
 2157POPC   C1B31411  36.087  15.752   8.889
 2157POPC   C2B31412  36.136  15.709   8.437
 2157POPC   C3B31413  35.890  15.743   8.067
 2157POPC   C4B31414  35.828  15.600   7.663
 2158POPC   NC331415  17.030  28.104   9.600
 2158POPC   PO431416  17.638  28.202   9.593
 2158POPC   GL131417  17.375  28.356   9.283
 2158POPC   GL231418  17.604  28.592   9.123
 2158POPC   C1A31419  17.279  28.291   8.867
 2158POPC   D2A31420  17.265  28.508   8.483
 2158POPC   C3A31421  17.186  28.361   8.083
 2158POPC   C4A31422  17.547  28.457   7.837
 2158POPC   C1B31423  17.731  28.400   8.696
 2158POPC   C2B31424  17.634  28.184   8.282
 2158POPC   C3B31425  17.553  27.966   7.856
 2158POPC   C4B31426  17.787  28.180   7.471
 2159POPC   NC331427  33.290  43.682   9.575
 2159POPC   PO431428  33.161  44.222   9.845
 2159POPC   GL131429  33.030  44.167   9.355
 2159POPC   GL231430  32.929  43.805   9.222
 2159POPC   C1A31431  33.155  44.122   8.892
 2159POPC   D2A31432  32.949  43.908   8.538
 2159POPC   C3A31433  33.070  43.992   8.100
 2159POPC   C4A31434  32.853  44.239   7.793
 2159POPC   C1B31435  33.263  43.614   8.901
 2159POPC   C2B31436  33.267  43.503   8.453
 2159POPC   C3B31437  33.369  43.545   8.034
 2159POPC   C4B31438  33.152  43.600   7.656
 2160POPC   NC331439   2.140  23.250   9.698
 2160POPC   PO431440   2.420  22.644   9.645
 2160POPC   GL131441   2.078  22.801   9.419
 2160POPC   GL231442   2.102  22.552   9.182
 2160POPC   C1A31443   2.042  23.050   9.017
 2160POPC   D2A31444   2.000  23.036   8.527
 2160POPC   C3A31445   2.161  23.280   8.150
 2160POPC   C4A31446   2.013  23.209   7.726
 2160POPC   C1B31447   1.973  22.586   8.784
 2160POPC   C2B31448   2.111  22.548   8.377
 2160POPC   C3B31449   1.994  22.790   8.044
 2160POPC   C4B31450   2.058  22.671   7.620
 2161POPC   NC331451  22.655  38.634   9.544
 2161POPC   PO431452  23.223  38.245   9.453
 2161POPC   GL131453  22.970  38.493   9.173
 2161POPC   GL231454  22.679  38.292   9.147
 2161POPC   C1A31455  22.809  38.533   8.731
 2161POPC   D2A31456  22.751  38.361   8.337
 2161POPC   C3A31457  22.791  38.545   7.954
 2161POPC   C4A31458  23.080  38.584   7.623
 2161POPC   C1B31459  22.629  38.009   8.805
 2161POPC   C2B31460  22.486  37.908   8.385
 2161POPC   C3B31461  22.619  38.029   7.981
 2161POPC   C4B31462  22.815  38.146   7.578
 2162POPC   NC331463  34.166  30.326   9.260
 2162POPC   PO431464  33.744  30.569   9.748
 2162POPC   GL131465  33.817  30.882   9.306
 2162POPC   GL231466  33.526  30.927   9.098
 2162POPC   C1A31467  33.934  30.869   8.798
 2162POPC   D2A31468  33.837  30.586   8.392
 2162POPC   C3A31469  34.090  30.573   7.980
 2162POPC   C4A31470  34.086  30.880   7.631
 2162POPC   C1B31471  33.334  30.848   8.705
 2162POPC   C2B31472  33.351  30.770   8.264
 2162POPC   C3B31473  33.657  30.850   7.940
 2162POPC   C4B31474  33.726  30.521   7.608
 2163POPC   NC331475  39.739  18.768   9.391
 2163POPC   PO431476  40.280  19.114   9.406
 2163POPC   GL131477  40.015  19.064   9.067
 2163POPC   GL231478  39.787  19.299   9.213
 2163POPC   C1A31479  40.062  18.999   8.609
 2163POPC   D2A31480  40.314  19.075   8.206
 2163POPC   C3A31481  40.050  19.117   7.872
 2163POPC   C4A31482  40.037  18.701   7.778
 2163POPC   C1B31483  39.782  19.402   8.770
 2163POPC   C2B31484  39.685  19.266   8.353
 2163POPC   C3B31485  39.609  19.405   7.922
 2163POPC   C4B31486  39.796  19.363   7.479
 2164POPC   NC331487  27.405  23.996   9.439
 2164POPC   PO431488  27.812  23.477   9.649
 2164POPC   GL131489  27.831  23.584   9.191
 2164POPC   GL231490  27.569  23.772   8.991
 2164POPC   C1A31491  27.783  23.364   8.776
 2164POPC   D2A31492  27.565  23.607   8.465
 2164POPC   C3A31493  27.663  23.797   8.075
 2164POPC   C4A31494  27.694  23.534   7.783
 2164POPC   C1B31495  27.223  23.938   8.702
 2164POPC   C2B31496  27.206  23.923   8.272
 2164POPC   C3B31497  27.170  23.702   7.895
 2164POPC   C4B31498  27.358  23.752   7.495
 2165POPC   NC331499  44.638   9.408   9.558
 2165POPC   PO431500  44.903   9.995   9.636
 2165POPC   GL131501  44.859   9.801   9.232
 2165POPC   GL231502  44.497   9.797   9.240
 2165POPC   C1A31503   0.029   9.772   8.781
 2165POPC   D2A31504   0.005   9.517   8.406
 2165POPC   C3A31505  44.836   9.606   7.986
 2165POPC   C4A31506  44.883   9.705   7.528
 2165POPC   C1B31507  44.535   9.996   8.849
 2165POPC   C2B31508  44.644   9.912   8.425
 2165POPC   C3B31509  44.444   9.936   8.033
 2165POPC   C4B31510  44.385   9.668   7.644
 2166POPC   NC331511   1.249   2.380   9.565
 2166POPC   PO431512   1.345   1.675   9.708
 2166POPC   GL131513   1.380   1.882   9.296
 2166POPC   GL231514   1.087   2.009   9.210
 2166POPC   C1A31515   1.470   2.167   8.914
 2166POPC   D2A31516   1.435   2.282   8.469
 2166POPC   C3A31517   1.340   2.027   8.087
 2166POPC   C4A31518   1.379   2.159   7.674
 2166POPC   C1B31519   1.025   1.990   8.744
 2166POPC   C2B31520   0.918   2.218   8.333
 2166POPC   C3B31521   0.906   2.191   7.879
 2166POPC   C4B31522   1.041   1.774   7.688
 2167POPC   NC331523   7.507  31.859   9.439
 2167POPC   PO431524   6.892  31.657   9.522
 2167POPC   GL131525   7.153  31.429   9.221
 2167POPC   GL231526   6.940  31.133   9.119
 2167POPC   C1A31527   7.427  31.456   8.847
 2167POPC   D2A31528   7.534  31.645   8.448
 2167POPC   C3A31529   7.596  31.451   8.052
 2167POPC   C4A31530   7.901  31.587   7.777
 2167POPC   C1B31531   6.936  31.330   8.702
 2167POPC   C2B31532   7.161  31.282   8.337
 2167POPC   C3B31533   7.124  31.170   7.934
 2167POPC   C4B31534   7.279  31.415   7.637
 2168POPC   NC331535   5.579  24.818   9.425
 2168POPC   PO431536   5.724  25.391   9.458
 2168POPC   GL131537   5.899  25.136   9.109
 2168POPC   GL231538   6.272  24.982   9.076
 2168POPC   C1A31539   5.776  25.278   8.715
 2168POPC   D2A31540   5.908  25.576   8.411
 2168POPC   C3A31541   5.836  25.407   8.028
 2168POPC   C4A31542   5.914  25.521   7.631
 2168POPC   C1B31543   6.028  24.819   8.737
 2168POPC   C2B31544   5.967  24.975   8.306
 2168POPC   C3B31545   5.905  24.920   7.855
 2168POPC   C4B31546   5.561  25.133   7.640
 2169POPC   NC331547   3.879  17.385   9.518
 2169POPC   PO431548   3.342  17.873   9.548
 2169POPC   GL131549   3.454  17.631   9.146
 2169POPC   GL231550   3.387  17.259   9.094
 2169POPC   C1A31551   3.688  17.543   8.731
 2169POPC   D2A31552   3.905  17.810   8.370
 2169POPC   C3A31553   3.902  17.618   7.967
 2169POPC   C4A31554   3.654  17.393   7.661
 2169POPC   C1B31555   3.206  17.360   8.675
 2169POPC   C2B31556   3.291  17.479   8.223
 2169POPC   C3B31557   3.225  17.198   7.845
 2169POPC   C4B31558   3.162  17.137   7.387
 2170POPC   NC331559   4.098  10.767   9.573
 2170POPC   PO431560   4.136  10.076   9.598
 2170POPC   GL131561   4.299  10.385   9.286
 2170POPC   GL231562   4.553  10.645   9.242
 2170POPC   C1A31563   4.146  10.603   8.918
 2170POPC   D2A31564   4.195  10.435   8.519
 2170POPC   C3A31565   4.171  10.669   8.140
 2170POPC   C4A31566   4.173  10.507   7.738
 2170POPC   C1B31567   4.626  10.527   8.808
 2170POPC   C2B31568   4.672  10.496   8.350
 2170POPC   C3B31569   4.638  10.626   7.914
 2170POPC   C4B31570   4.815  10.978   7.658
 2171POPC   NC331571  33.285   1.714   9.552
 2171POPC   PO431572  32.694   2.115   9.509
 2171POPC   GL131573  32.850   2.118   9.116
 2171POPC   GL231574  33.197   2.054   9.134
 2171POPC   C1A31575  32.857   2.221   8.707
 2171POPC   D2A31576  32.812   1.993   8.296
 2171POPC   C3A31577  33.051   2.117   7.922
 2171POPC   C4A31578  32.958   2.135   7.458
 2171POPC   C1B31579  33.364   2.001   8.760
 2171POPC   C2B31580  33.321   1.881   8.364
 2171POPC   C3B31581  33.218   1.646   8.038
 2171POPC   C4B31582  33.289   1.772   7.621
 2172POPC   NC331583  16.149  10.776   9.513
 2172POPC   PO431584  16.460  10.197   9.228
 2172POPC   GL131585  16.184  10.467   9.081
 2172POPC   GL231586  15.835  10.374   9.082
 2172POPC   C1A31587  16.109  10.281   8.675
 2172POPC   D2A31588  16.132  10.391   8.300
 2172POPC   C3A31589  15.765  10.478   8.150
 2172POPC   C4A31590  15.833  10.367   7.770
 2172POPC   C1B31591  15.685  10.566   8.657
 2172POPC   C2B31592  15.290  10.761   8.445
 2172POPC   C3B31593  15.286  11.062   8.112
 2172POPC   C4B31594  15.589  10.880   7.813
 2173POPC   NC331595   9.706  36.038   9.728
 2173POPC   PO431596  10.372  36.077   9.648
 2173POPC   GL131597  10.329  36.271   9.195
 2173POPC   GL231598  10.644  36.315   9.013
 2173POPC   C1A31599  10.200  36.466   8.761
 2173POPC   D2A31600  10.091  36.302   8.314
 2173POPC   C3A31601  10.236  36.077   7.886
 2173POPC   C4A31602  10.039  36.208   7.492
 2173POPC   C1B31603  10.510  36.086   8.652
 2173POPC   C2B31604  10.593  36.216   8.231
 2173POPC   C3B31605  10.759  35.950   7.912
 2173POPC   C4B31606  10.579  35.618   7.642
 2174POPC   NC331607  18.791  41.810   9.573
 2174POPC   PO431608  19.433  41.688   9.530
 2174POPC   GL131609  19.145  41.900   9.154
 2174POPC   GL231610  18.736  41.836   9.077
 2174POPC   C1A31611  19.017  41.934   8.676
 2174POPC   D2A31612  18.843  41.691   8.345
 2174POPC   C3A31613  19.010  41.817   8.022
 2174POPC   C4A31614  19.212  41.946   7.713
 2174POPC   C1B31615  18.602  41.524   8.750
 2174POPC   C2B31616  18.778  41.202   8.413
 2174POPC   C3B31617  18.928  41.286   7.975
 2174POPC   C4B31618  18.858  41.565   7.622
 2175POPC   NC331619  25.944  41.665   9.540
 2175POPC   PO431620  25.796  41.005   9.561
 2175POPC   GL131621  25.884  41.165   9.151
 2175POPC   GL231622  26.142  41.403   9.168
 2175POPC   C1A31623  26.040  41.114   8.745
 2175POPC   D2A31624  26.101  41.330   8.411
 2175POPC   C3A31625  26.077  41.109   8.066
 2175POPC   C4A31626  25.982  41.340   7.719
 2175POPC   C1B31627  26.152  41.667   8.792
 2175POPC   C2B31628  25.895  41.789   8.432
 2175POPC   C3B31629  25.982  41.830   8.014
 2175POPC   C4B31630  25.775  41.798   7.656
 2176POPC   NC331631   4.526  37.833   9.730
 2176POPC   PO431632   3.987  37.458   9.657
 2176POPC   GL131633   4.177  37.664   9.314
 2176POPC   GL231634   4.160  37.994   9.394
 2176POPC   C1A31635   4.302  37.619   8.880
 2176POPC   D2A31636   4.183  37.428   8.472
 2176POPC   C3A31637   4.290  37.566   8.061
 2176POPC   C4A31638   4.450  37.564   7.658
 2176POPC   C1B31639   4.162  38.108   8.966
 2176POPC   C2B31640   4.093  37.944   8.552
 2176POPC   C3B31641   4.006  38.021   8.131
 2176POPC   C4B31642   3.990  37.835   7.721
 2177POPC   NC331643  34.571   5.503   9.364
 2177POPC   PO431644  34.435   6.161   9.542
 2177POPC   GL131645  34.215   5.992   9.156
 2177POPC   GL231646  34.492   5.832   8.994
 2177POPC   C1A31647  34.201   6.036   8.647
 2177POPC   D2A31648  34.547   5.870   8.347
 2177POPC   C3A31649  34.561   5.963   7.907
 2177POPC   C4A31650  34.231   5.898   7.649
 2177POPC   C1B31651  34.794   5.623   8.726
 2177POPC   C2B31652  34.769   5.376   8.335
 2177POPC   C3B31653  34.909   5.341   7.904
 2177POPC   C4B31654  34.907   5.665   7.613
 2178POPC   NC331655  15.567   1.263   9.757
 2178POPC   PO431656  16.052   0.907   9.459
 2178POPC   GL131657  16.098   1.096   9.062
 2178POPC   GL231658  15.828   1.312   9.046
 2178POPC   C1A31659  16.025   1.067   8.615
 2178POPC   D2A31660  15.805   1.288   8.252
 2178POPC   C3A31661  16.062   1.357   7.895
 2178POPC   C4A31662  16.301   1.037   7.713
 2178POPC   C1B31663  15.926   1.563   8.681
 2178POPC   C2B31664  15.962   1.785   8.332
 2178POPC   C3B31665  15.739   1.760   7.941
 2178POPC   C4B31666  15.673   1.595   7.524
 2179POPC   NC331667  24.133  39.607   9.692
 2179POPC   PO431668  23.682  39.120   9.517
 2179POPC   GL131669  23.445  39.197   9.176
 2179POPC   GL231670  23.388  38.842   9.159
 2179POPC   C1A31671  23.536  39.384   8.775
 2179POPC   D2A31672  23.777  39.484   8.414
 2179POPC   C3A31673  23.589  39.430   8.024
 2179POPC   C4A31674  23.757  39.354   7.650
 2179POPC   C1B31675  23.631  38.889   8.765
 2179POPC   C2B31676  23.498  39.040   8.340
 2179POPC   C3B31677  23.583  38.920   7.882
 2179POPC   C4B31678  23.522  38.809   7.420
 2180POPC   NC331679  22.555  12.172   9.334
 2180POPC   PO431680  21.948  12.272   9.464
 2180POPC   GL131681  21.998  12.077   9.094
 2180POPC   GL231682  22.217  11.802   9.142
 2180POPC   C1A31683  22.234  12.211   8.726
 2180POPC   D2A31684  22.363  12.171   8.302
 2180POPC   C3A31685  22.064  12.370   8.081
 2180POPC   C4A31686  21.887  12.257   7.725
 2180POPC   C1B31687  22.062  11.708   8.712
 2180POPC   C2B31688  22.115  11.569   8.251
 2180POPC   C3B31689  22.155  11.851   7.915
 2180POPC   C4B31690  22.400  12.192   7.744
 2181POPC   NC331691   6.178  25.276   9.499
 2181POPC   PO431692   6.837  24.997   9.444
 2181POPC   GL131693   6.739  25.270   9.115
 2181POPC   GL231694   6.456  25.460   9.118
 2181POPC   C1A31695   6.770  25.321   8.671
 2181POPC   D2A31696   6.867  25.079   8.318
 2181POPC   C3A31697   6.785  25.277   7.949
 2181POPC   C4A31698   6.852  25.057   7.602
 2181POPC   C1B31699   6.269  25.371   8.729
 2181POPC   C2B31700   6.361  25.328   8.284
 2181POPC   C3B31701   6.290  25.259   7.844
 2181POPC   C4B31702   6.424  25.335   7.438
 2182POPC   NC331703  32.039  44.281   9.555
 2182POPC   PO431704  32.446  43.681   9.561
 2182POPC   GL131705  32.467  44.067   9.345
 2182POPC   GL231706  32.159  43.943   9.202
 2182POPC   C1A31707  32.583  44.225   8.930
 2182POPC   D2A31708  32.439  44.289   8.484
 2182POPC   C3A31709  32.455  43.883   8.232
 2182POPC   C4A31710  32.688  43.748   7.829
 2182POPC   C1B31711  32.062  44.099   8.804
 2182POPC   C2B31712  31.946  44.125   8.365
 2182POPC   C3B31713  31.936  43.896   7.995
 2182POPC   C4B31714  32.207  43.595   7.777
 2183POPC   NC331715   2.588  38.792   9.448
 2183POPC   PO431716   3.021  38.276   9.551
 2183POPC   GL131717   2.967  38.086   9.146
 2183POPC   GL231718   2.616  38.181   9.124
 2183POPC   C1A31719   2.869  38.017   8.720
 2183POPC   D2A31720   2.749  38.317   8.478
 2183POPC   C3A31721   2.908  38.255   8.091
 2183POPC   C4A31722   2.847  38.453   7.681
 2183POPC   C1B31723   2.303  38.203   8.818
 2183POPC   C2B31724   2.261  38.450   8.471
 2183POPC   C3B31725   2.427  38.422   8.080
 2183POPC   C4B31726   2.307  38.443   7.676
 2184POPC   NC331727  29.006  43.689   9.532
 2184POPC   PO431728  29.208  44.321   9.467
 2184POPC   GL131729  29.074  44.041   9.158
 2184POPC   GL231730  29.376  43.873   9.046
 2184POPC   C1A31731  29.038  44.022   8.699
 2184POPC   D2A31732  29.234  43.957   8.276
 2184POPC   C3A31733  28.979  44.031   7.902
 2184POPC   C4A31734  29.019  44.238   7.462
 2184POPC   C1B31735  29.362  43.624   8.656
 2184POPC   C2B31736  29.644  43.606   8.292
 2184POPC   C3B31737  29.623  43.467   7.887
 2184POPC   C4B31738  29.211  43.561   7.883
 2185POPC   NC331739  34.999  11.401   9.502
 2185POPC   PO431740  35.652  11.214   9.410
 2185POPC   GL131741  35.396  11.045   9.121
 2185POPC   GL231742  35.237  11.328   9.066
 2185POPC   C1A31743  35.232  10.875   8.729
 2185POPC   D2A31744  35.010  10.939   8.330
 2185POPC   C3A31745  35.227  11.139   7.974
 2185POPC   C4A31746  35.500  10.941   7.669
 2185POPC   C1B31747  35.066  11.351   8.677
 2185POPC   C2B31748  35.116  11.588   8.325
 2185POPC   C3B31749  35.423  11.637   8.064
 2185POPC   C4B31750  35.474  11.798   7.663
 2186POPC   NC331751   6.183  19.424   9.588
 2186POPC   PO431752   5.862  18.762   9.576
 2186POPC   GL131753   6.032  19.064   9.250
 2186POPC   GL231754   5.797  19.294   9.104
 2186POPC   C1A31755   6.164  19.115   8.793
 2186POPC   D2A31756   6.025  18.838   8.440
 2186POPC   C3A31757   6.129  19.000   8.012
 2186POPC   C4A31758   6.255  19.346   7.749
 2186POPC   C1B31759   5.652  19.120   8.753
 2186POPC   C2B31760   5.748  19.242   8.335
 2186POPC   C3B31761   5.775  19.370   7.913
 2186POPC   C4B31762   5.866  19.063   7.535
 2187POPC   NC331763  22.113  35.051   9.510
 2187POPC   PO431764  22.119  35.766   9.417
 2187POPC   GL131765  22.187  35.420   9.157
 2187POPC   GL231766  22.521  35.249   9.127
 2187POPC   C1A31767  21.987  35.201   8.821
 2187POPC   D2A31768  21.821  35.241   8.394
 2187POPC   C3A31769  22.090  35.305   8.014
 2187POPC   C4A31770  21.920  35.087   7.637
 2187POPC   C1B31771  22.423  35.462   8.710
 2187POPC   C2B31772  22.518  35.750   8.359
 2187POPC   C3B31773  22.679  35.619   7.948
 2187POPC   C4B31774  22.620  35.644   7.467
 2188POPC   NC331775  42.537  32.965   9.642
 2188POPC   PO431776  42.231  33.460   9.544
 2188POPC   GL131777  42.298  33.185   9.204
 2188POPC   GL231778  42.357  32.813   9.196
 2188POPC   C1A31779  42.184  33.093   8.787
 2188POPC   D2A31780  42.428  33.080   8.462
 2188POPC   C3A31781  42.299  33.315   8.137
 2188POPC   C4A31782  42.566  33.246   7.779
 2188POPC   C1B31783  42.576  32.726   8.820
 2188POPC   C2B31784  42.673  32.607   8.408
 2188POPC   C3B31785  42.808  32.737   7.978
 2188POPC   C4B31786  42.762  32.819   7.524
 2189POPC   NC331787  16.921  30.584   9.578
 2189POPC   PO431788  16.296  30.628   9.396
 2189POPC   GL131789  16.535  30.598   9.097
 2189POPC   GL231790  16.859  30.705   9.086
 2189POPC   C1A31791  16.537  30.644   8.673
 2189POPC   D2A31792  16.788  30.984   8.531
 2189POPC   C3A31793  16.743  31.042   8.119
 2189POPC   C4A31794  16.724  30.688   7.855
 2189POPC   C1B31795  17.043  30.504   8.736
 2189POPC   C2B31796  17.192  30.690   8.327
 2189POPC   C3B31797  17.225  30.611   7.871
 2189POPC   C4B31798  17.081  30.395   7.511
 2190POPC   NC331799  40.438  18.699   9.547
 2190POPC   PO431800  40.917  18.271   9.467
 2190POPC   GL131801  40.609  18.341   9.149
 2190POPC   GL231802  40.702  18.027   9.054
 2190POPC   C1A31803  40.546  18.325   8.677
 2190POPC   D2A31804  40.684  18.073   8.342
 2190POPC   C3A31805  40.809  18.348   8.085
 2190POPC   C4A31806  40.492  18.600   7.953
 2190POPC   C1B31807  41.084  18.039   8.844
 2190POPC   C2B31808  41.204  18.017   8.417
 2190POPC   C3B31809  41.103  17.937   7.998
 2190POPC   C4B31810  41.388  17.871   7.681
 2191POPC   NC331811   6.418  11.423   9.546
 2191POPC   PO431812   6.804  12.013   9.436
 2191POPC   GL131813   6.623  11.819   9.103
 2191POPC   GL231814   6.349  12.059   9.123
 2191POPC   C1A31815   6.842  11.767   8.697
 2191POPC   D2A31816   6.820  12.012   8.323
 2191POPC   C3A31817   6.654  11.915   7.947
 2191POPC   C4A31818   6.926  12.083   7.667
 2191POPC   C1B31819   6.464  12.109   8.673
 2191POPC   C2B31820   6.340  12.216   8.251
 2191POPC   C3B31821   6.430  12.356   7.839
 2191POPC   C4B31822   6.638  12.519   7.506
 2192POPC   NC331823   1.749  40.021   9.494
 2192POPC   PO431824   2.304  39.837   9.690
 2192POPC   GL131825   2.190  39.866   9.205
 2192POPC   GL231826   1.859  39.732   9.078
 2192POPC   C1A31827   2.202  39.916   8.715
 2192POPC   D2A31828   2.009  39.692   8.320
 2192POPC   C3A31829   2.088  39.930   7.918
 2192POPC   C4A31830   2.392  39.994   7.592
 2192POPC   C1B31831   1.666  39.935   8.669
 2192POPC   C2B31832   1.677  40.048   8.199
 2192POPC   C3B31833   1.612  40.166   7.774
 2192POPC   C4B31834   1.549  40.286   7.300
 2193POPC   NC331835  35.837  11.109   9.819
 2193POPC   PO431836  36.444  11.386   9.582
 2193POPC   GL131837  36.291  11.192   9.210
 2193POPC   GL231838  35.979  11.174   9.055
 2193POPC   C1A31839  36.358  11.335   8.783
 2193POPC   D2A31840  36.086  11.156   8.459
 2193POPC   C3A31841  36.221  11.351   8.082
 2193POPC   C4A31842  36.183  11.194   7.672
 2193POPC   C1B31843  35.662  11.293   8.773
 2193POPC   C2B31844  35.499  11.202   8.410
 2193POPC   C3B31845  35.734  11.215   8.067
 2193POPC   C4B31846  35.733  11.387   7.724
 2194POPC   NC331847  44.090  10.227   9.389
 2194POPC   PO431848  44.084   9.575   9.441
 2194POPC   GL131849  43.987   9.802   9.095
 2194POPC   GL231850  43.617   9.830   9.179
 2194POPC   C1A31851  44.133   9.707   8.675
 2194POPC   D2A31852  43.967   9.454   8.357
 2194POPC   C3A31853  44.034   9.652   8.014
 2194POPC   C4A31854  43.900  10.092   7.896
 2194POPC   C1B31855  43.628   9.707   8.736
 2194POPC   C2B31856  43.663   9.870   8.312
 2194POPC   C3B31857  43.555   9.700   7.879
 2194POPC   C4B31858  43.630   9.826   7.461
 2195POPC   NC331859  26.228  30.108   9.430
 2195POPC   PO431860  25.660  29.784   9.601
 2195POPC   GL131861  25.778  29.937   9.212
 2195POPC   GL231862  26.038  29.710   9.162
 2195POPC   C1A31863  25.737  29.888   8.759
 2195POPC   D2A31864  25.601  29.791   8.338
 2195POPC   C3A31865  25.732  30.066   7.978
 2195POPC   C4A31866  26.051  30.063   7.657
 2195POPC   C1B31867  26.195  29.631   8.763
 2195POPC   C2B31868  26.114  29.814   8.379
 2195POPC   C3B31869  26.309  30.068   8.104
 2195POPC   C4B31870  26.481  29.767   7.866
 2196POPC   NC331871   4.890   8.400   9.520
 2196POPC   PO431872   5.453   8.052   9.677
 2196POPC   GL131873   5.429   8.210   9.240
 2196POPC   GL231874   5.100   8.237   9.071
 2196POPC   C1A31875   5.557   8.134   8.822
 2196POPC   D2A31876   5.390   8.056   8.423
 2196POPC   C3A31877   5.279   8.365   8.101
 2196POPC   C4A31878   5.094   8.236   7.726
 2196POPC   C1B31879   4.856   8.555   8.772
 2196POPC   C2B31880   4.814   8.554   8.299
 2196POPC   C3B31881   4.637   8.404   7.862
 2196POPC   C4B31882   4.801   8.505   7.426
 2197POPC   NC331883  39.678  40.989   9.507
 2197POPC   PO431884  39.018  40.754   9.349
 2197POPC   GL131885  39.184  40.649   9.049
 2197POPC   GL231886  39.526  40.631   9.188
 2197POPC   C1A31887  39.055  40.806   8.670
 2197POPC   D2A31888  39.172  40.869   8.277
 2197POPC   C3A31889  39.116  40.686   7.925
 2197POPC   C4A31890  39.124  40.990   7.599
 2197POPC   C1B31891  39.547  40.937   8.843
 2197POPC   C2B31892  39.651  40.832   8.432
 2197POPC   C3B31893  39.602  40.570   8.067
 2197POPC   C4B31894  39.562  40.700   7.648
 2198POPC   NC331895  43.898  34.630   9.825
 2198POPC   PO431896  43.963  34.079   9.443
 2198POPC   GL131897  43.746  34.375   9.191
 2198POPC   GL231898  43.833  34.725   9.196
 2198POPC   C1A31899  43.857  34.413   8.748
 2198POPC   D2A31900  43.836  34.154   8.391
 2198POPC   C3A31901  44.147  34.249   8.097
 2198POPC   C4A31902  43.950  34.387   7.754
 2198POPC   C1B31903  43.978  34.903   8.787
 2198POPC   C2B31904  43.823  34.930   8.375
 2198POPC   C3B31905  43.935  34.836   7.976
 2198POPC   C4B31906  43.704  34.785   7.585
 2199POPC   NC331907  15.613   6.803   9.463
 2199POPC   PO431908  16.190   6.539   9.521
 2199POPC   GL131909  15.999   6.642   9.155
 2199POPC   GL231910  15.752   6.373   9.180
 2199POPC   C1A31911  15.918   6.611   8.711
 2199POPC   D2A31912  15.964   6.873   8.371
 2199POPC   C3A31913  15.829   6.780   7.961
 2199POPC   C4A31914  16.143   6.707   7.660
 2199POPC   C1B31915  16.124   6.209   8.923
 2199POPC   C2B31916  16.256   6.273   8.477
 2199POPC   C3B31917  16.015   6.325   8.071
 2199POPC   C4B31918  15.593   6.212   7.894
 2200POPC   NC331919  19.905  34.143   9.498
 2200POPC   PO431920  20.157  33.535   9.634
 2200POPC   GL131921  19.903  33.687   9.229
 2200POPC   GL231922  19.532  33.803   9.258
 2200POPC   C1A31923  19.911  33.923   8.789
 2200POPC   D2A31924  19.711  34.017   8.313
 2200POPC   C3A31925  19.987  33.943   7.900
 2200POPC   C4A31926  19.976  33.987   7.445
 2200POPC   C1B31927  19.495  33.636   8.840
 2200POPC   C2B31928  19.770  33.536   8.495
 2200POPC   C3B31929  19.754  33.522   8.051
 2200POPC   C4B31930  19.593  33.659   7.634
 2201POPC   NC331931  11.347  15.313   9.707
 2201POPC   PO431932  11.878  15.123   9.597
 2201POPC   GL131933  11.578  15.288   9.249
 2201POPC   GL231934  11.400  14.997   9.142
 2201POPC   C1A31935  11.357  15.413   8.832
 2201POPC   D2A31936  11.226  15.247   8.407
 2201POPC   C3A31937  11.322  15.336   7.968
 2201POPC   C4A31938  11.061  15.256   7.614
 2201POPC   C1B31939  11.551  14.951   8.680
 2201POPC   C2B31940  11.529  14.885   8.194
 2201POPC   C3B31941  11.427  14.862   7.744
 2201POPC   C4B31942  11.206  14.525   7.505
 2202POPC   NC331943  13.486   2.197   9.496
 2202POPC   PO431944  13.901   1.689   9.475
 2202POPC   GL131945  13.647   1.802   9.163
 2202POPC   GL231946  13.298   1.819   9.223
 2202POPC   C1A31947  13.700   2.104   8.875
 2202POPC   D2A31948  13.833   2.205   8.494
 2202POPC   C3A31949  13.824   1.908   8.195
 2202POPC   C4A31950  13.916   2.050   7.800
 2202POPC   C1B31951  13.206   2.085   8.868
 2202POPC   C2B31952  13.348   1.975   8.492
 2202POPC   C3B31953  13.334   1.898   8.073
 2202POPC   C4B31954  13.528   1.741   7.718
 2203POPC   NC331955  44.360  40.341   9.370
 2203POPC   PO431956  44.906  40.834   9.499
 2203POPC   GL131957  44.661  40.673   9.108
 2203POPC   GL231958  44.849  40.406   9.037
 2203POPC   C1A31959  44.447  40.540   8.675
 2203POPC   D2A31960  44.345  40.734   8.253
 2203POPC   C3A31961  44.465  40.674   7.821
 2203POPC   C4A31962  44.653  40.824   7.405
 2203POPC   C1B31963  44.939  40.670   8.650
 2203POPC   C2B31964  44.874  40.793   8.209
 2203POPC   C3B31965  44.964  40.660   7.777
 2203POPC   C4B31966   0.070  40.492   7.359
 2204POPC   NC331967  11.618  39.747   9.606
 2204POPC   PO431968  12.136  40.134   9.622
 2204POPC   GL131969  12.195  40.072   9.195
 2204POPC   GL231970  12.521  40.214   9.108
 2204POPC   C1A31971  11.836  40.159   8.929
 2204POPC   D2A31972  11.637  40.401   8.604
 2204POPC   C3A31973  11.623  40.221   8.162
 2204POPC   C4A31974  11.957  40.126   7.866
 2204POPC   C1B31975  12.309  40.096   8.692
 2204POPC   C2B31976  12.483  40.024   8.284
 2204POPC   C3B31977  12.498  40.081   7.840
 2204POPC   C4B31978  12.280  40.212   7.490
 2205POPC   NC331979  18.529  15.470   9.181
 2205POPC   PO431980  18.901  15.100   9.545
 2205POPC   GL131981  19.040  15.144   9.123
 2205POPC   GL231982  19.060  14.752   9.052
 2205POPC   C1A31983  19.180  15.222   8.690
 2205POPC   D2A31984  18.974  14.982   8.330
 2205POPC   C3A31985  18.813  15.205   7.976
 2205POPC   C4A31986  18.814  15.196   7.518
 2205POPC   C1B31987  19.439  14.777   8.811
 2205POPC   C2B31988  19.504  14.926   8.412
 2205POPC   C3B31989  19.338  14.756   8.060
 2205POPC   C4B31990  19.117  14.805   7.698
 2206POPC   NC331991  20.312  26.080   9.643
 2206POPC   PO431992  19.669  26.288   9.629
 2206POPC   GL131993  19.806  26.185   9.256
 2206POPC   GL231994  19.833  26.548   9.178
 2206POPC   C1A31995  19.862  25.845   8.937
 2206POPC   D2A31996  19.944  25.913   8.489
 2206POPC   C3A31997  19.777  25.775   8.095
 2206POPC   C4A31998  19.899  25.987   7.734
 2206POPC   C1B31999  19.963  26.341   8.786
 2206POPC   C2B32000  20.159  26.383   8.378
 2206POPC   C3B32001  20.127  26.419   7.930
 2206POPC   C4B32002  19.925  26.445   7.516
 2207POPC   NC332003  20.026  32.192   9.411
 2207POPC   PO432004  19.470  32.480   9.485
 2207POPC   GL132005  19.465  32.349   9.084
 2207POPC   GL232006  19.640  32.069   9.103
 2207POPC   C1A32007  19.581  32.310   8.641
 2207POPC   D2A32008  19.638  32.316   8.201
 2207POPC   C3A32009  19.767  32.686   7.979
 2207POPC   C4A32010  20.034  32.544   7.659
 2207POPC   C1B32011  19.769  31.849   8.774
 2207POPC   C2B32012  19.568  31.796   8.404
 2207POPC   C3B32013  19.670  31.836   8.010
 2207POPC   C4B32014  19.885  32.075   7.739
 2208POPC   NC332015   7.771  20.152   9.440
 2208POPC   PO432016   8.272  19.677   9.419
 2208POPC   GL132017   8.078  19.862   9.034
 2208POPC   GL232018   7.901  20.156   8.954
 2208POPC   C1A32019   7.897  19.776   8.606
 2208POPC   D2A32020   7.819  19.803   8.155
 2208POPC   C3A32021   8.164  19.644   7.845
 2208POPC   C4A32022   8.291  19.497   7.405
 2208POPC   C1B32023   8.248  20.159   8.656
 2208POPC   C2B32024   8.272  20.020   8.254
 2208POPC   C3B32025   8.066  20.135   7.861
 2208POPC   C4B32026   8.197  19.996   7.429
 2209POPC   NC332027  37.044  36.885   9.584
 2209POPC   PO432028  36.331  36.983   9.720
 2209POPC   GL132029  36.646  37.156   9.330
 2209POPC   GL232030  36.910  36.890   9.107
 2209POPC   C1A32031  36.709  37.269   8.862
 2209POPC   D2A32032  36.802  36.939   8.580
 2209POPC   C3A32033  36.847  36.979   8.148
 2209POPC   C4A32034  36.879  36.872   7.734
 2209POPC   C1B32035  37.192  36.661   8.795
 2209POPC   C2B32036  37.398  36.768   8.411
 2209POPC   C3B32037  37.274  36.693   7.999
 2209POPC   C4B32038  37.246  36.460   7.642
 2210POPC   NC332039  23.650  40.858   9.573
 2210POPC   PO432040  23.394  40.377   9.173
 2210POPC   GL132041  23.657  40.721   9.086
 2210POPC   GL232042  23.574  41.075   9.115
 2210POPC   C1A32043  23.811  40.810   8.713
 2210POPC   D2A32044  23.974  40.553   8.380
 2210POPC   C3A32045  23.818  40.672   8.011
 2210POPC   C4A32046  23.847  40.480   7.622
 2210POPC   C1B32047  23.462  41.185   8.719
 2210POPC   C2B32048  23.280  41.167   8.336
 2210POPC   C3B32049  23.455  41.240   7.935
 2210POPC   C4B32050  23.667  40.963   7.615
 2211POPC   NC332051   9.944  42.023   9.372
 2211POPC   PO432052   9.943  41.341   9.518
 2211POPC   GL132053   9.713  41.431   9.171
 2211POPC   GL232054   9.658  41.771   9.044
 2211POPC   C1A32055   9.833  41.347   8.765
 2211POPC   D2A32056   9.975  41.438   8.406
 2211POPC   C3A32057   9.790  41.658   8.119
 2211POPC   C4A32058   9.827  41.413   7.739
 2211POPC   C1B32059   9.361  41.500   8.809
 2211POPC   C2B32060   9.416  41.353   8.397
 2211POPC   C3B32061   9.336  41.509   7.960
 2211POPC   C4B32062   9.364  41.434   7.491
 2212POPC   NC332063  16.494   8.075   9.492
 2212POPC   PO432064  17.003   8.528   9.675
 2212POPC   GL132065  16.878   8.452   9.237
 2212POPC   GL232066  17.101   8.197   9.165
 2212POPC   C1A32067  16.694   8.190   8.867
 2212POPC   D2A32068  16.749   8.240   8.429
 2212POPC   C3A32069  16.458   8.230   8.090
 2212POPC   C4A32070  16.498   8.410   7.700
 2212POPC   C1B32071  17.200   8.297   8.755
 2212POPC   C2B32072  17.219   8.411   8.337
 2212POPC   C3B32073  16.968   8.260   7.957
 2212POPC   C4B32074  16.719   7.962   7.716
 2213POPC   NC332075  35.990  11.534   9.514
 2213POPC   PO432076  35.822  12.193   9.522
 2213POPC   GL132077  36.142  12.015   9.219
 2213POPC   GL232078  36.358  11.715   9.191
 2213POPC   C1A32079  36.430  12.079   8.849
 2213POPC   D2A32080  36.320  11.994   8.417
 2213POPC   C3A32081  36.380  12.327   8.118
 2213POPC   C4A32082  36.146  12.208   7.797
 2213POPC   C1B32083  35.985  11.686   8.871
 2213POPC   C2B32084  35.871  11.612   8.436
 2213POPC   C3B32085  35.913  11.808   8.061
 2213POPC   C4B32086  36.121  11.716   7.708
 2214POPC   NC332087  24.040  10.371   9.742
 2214POPC   PO432088  24.605  10.190   9.438
 2214POPC   GL132089  24.362  10.459   9.183
 2214POPC   GL232090  24.020  10.601   9.211
 2214POPC   C1A32091  24.460  10.524   8.759
 2214POPC   D2A32092  24.579  10.723   8.385
 2214POPC   C3A32093  24.584  10.373   8.113
 2214POPC   C4A32094  24.513  10.358   7.673
 2214POPC   C1B32095  23.949  10.551   8.779
 2214POPC   C2B32096  24.096  10.553   8.353
 2214POPC   C3B32097  24.226  10.710   7.940
 2214POPC   C4B32098  24.309  10.768   7.467
 2215POPC   NC332099  15.367  36.497   9.603
 2215POPC   PO432100  14.990  37.130   9.521
 2215POPC   GL132101  15.269  36.951   9.226
 2215POPC   GL232102  15.238  37.277   9.088
 2215POPC   C1A32103  15.277  36.859   8.771
 2215POPC   D2A32104  15.196  36.991   8.314
 2215POPC   C3A32105  15.333  36.746   7.931
 2215POPC   C4A32106  15.398  36.678   7.458
 2215POPC   C1B32107  15.121  37.356   8.668
 2215POPC   C2B32108  15.201  37.506   8.253
 2215POPC   C3B32109  15.129  37.230   7.872
 2215POPC   C4B32110  15.020  37.136   7.445
 2216POPC   NC332111   1.826  25.296  10.181
 2216POPC   PO432112   1.940  25.173   9.739
 2216POPC   GL132113   2.069  25.320   9.300
 2216POPC   GL232114   1.839  25.569   9.153
 2216POPC   C1A32115   2.125  25.295   8.816
 2216POPC   D2A32116   1.928  25.205   8.388
 2216POPC   C3A32117   2.177  25.221   7.994
 2216POPC   C4A32118   2.173  25.197   7.525
 2216POPC   C1B32119   1.687  25.559   8.688
 2216POPC   C2B32120   1.639  25.589   8.208
 2216POPC   C3B32121   1.737  25.390   7.791
 2216POPC   C4B32122   1.418  25.290   7.456
 2217POPC   NC332123  28.866   4.958   9.501
 2217POPC   PO432124  29.315   5.441   9.426
 2217POPC   GL132125  29.116   5.218   9.113
 2217POPC   GL232126  28.855   5.420   9.051
 2217POPC   C1A32127  29.068   5.071   8.691
 2217POPC   D2A32128  29.350   4.965   8.367
 2217POPC   C3A32129  29.270   4.809   7.978
 2217POPC   C4A32130  29.467   4.839   7.598
 2217POPC   C1B32131  28.636   5.356   8.665
 2217POPC   C2B32132  28.712   5.178   8.268
 2217POPC   C3B32133  28.999   5.227   7.944
 2217POPC   C4B32134  29.001   5.029   7.542
 2218POPC   NC332135  27.331  17.254   9.480
 2218POPC   PO432136  27.750  17.844   9.585
 2218POPC   GL132137  27.631  17.624   9.228
 2218POPC   GL232138  27.855  17.369   9.127
 2218POPC   C1A32139  27.688  17.747   8.794
 2218POPC   D2A32140  27.381  17.683   8.462
 2218POPC   C3A32141  27.559  17.589   8.076
 2218POPC   C4A32142  27.498  17.657   7.658
 2218POPC   C1B32143  27.548  17.269   8.806
 2218POPC   C2B32144  27.415  17.109   8.400
 2218POPC   C3B32145  27.245  17.196   8.007
 2218POPC   C4B32146  27.364  17.155   7.601
 2219POPC   NC332147  19.084  23.237   9.815
 2219POPC   PO432148  18.934  23.894   9.536
 2219POPC   GL132149  19.004  23.600   9.202
 2219POPC   GL232150  18.738  23.737   9.053
 2219POPC   C1A32151  18.959  23.389   8.771
 2219POPC   D2A32152  19.023  23.548   8.357
 2219POPC   C3A32153  19.220  23.311   8.067
 2219POPC   C4A32154  19.023  23.500   7.712
 2219POPC   C1B32155  18.982  23.929   8.750
 2219POPC   C2B32156  18.852  24.039   8.335
 2219POPC   C3B32157  18.870  23.974   7.886
 2219POPC   C4B32158  18.729  23.861   7.449
 2220POPC   NC332159  33.571  32.289   9.547
 2220POPC   PO432160  34.153  31.982   9.469
 2220POPC   GL132161  33.766  31.932   9.250
 2220POPC   GL232162  33.729  32.276   9.069
 2220POPC   C1A32163  33.559  31.835   8.892
 2220POPC   D2A32164  33.567  32.091   8.539
 2220POPC   C3A32165  33.471  31.983   8.118
 2220POPC   C4A32166  33.679  31.788   7.796
 2220POPC   C1B32167  33.916  32.439   8.705
 2220POPC   C2B32168  34.062  32.245   8.347
 2220POPC   C3B32169  33.910  32.236   7.941
 2220POPC   C4B32170  33.770  32.589   7.718
 2221POPC   NC332171   8.765   7.117   9.500
 2221POPC   PO432172   8.989   7.771   9.478
 2221POPC   GL132173   8.910   7.479   9.154
 2221POPC   GL232174   8.571   7.385   9.105
 2221POPC   C1A32175   9.050   7.174   8.834
 2221POPC   D2A32176   9.155   7.185   8.382
 2221POPC   C3A32177   8.920   7.186   7.984
 2221POPC   C4A32178   9.140   7.070   7.592
 2221POPC   C1B32179   8.719   7.514   8.680
 2221POPC   C2B32180   9.107   7.697   8.546
 2221POPC   C3B32181   9.108   7.679   8.115
 2221POPC   C4B32182   8.782   7.684   7.818
 2222POPC   NC332183  24.468  31.819   9.916
 2222POPC   PO432184  24.154  31.408   9.464
 2222POPC   GL132185  24.301  31.356   9.082
 2222POPC   GL232186  24.583  31.554   9.120
 2222POPC   C1A32187  24.438  31.222   8.672
 2222POPC   D2A32188  24.652  31.377   8.297
 2222POPC   C3A32189  24.557  31.140   7.944
 2222POPC   C4A32190  24.317  31.172   7.594
 2222POPC   C1B32191  24.347  31.748   8.762
 2222POPC   C2B32192  24.393  31.867   8.342
 2222POPC   C3B32193  24.313  31.925   7.917
 2222POPC   C4B32194  24.555  31.613   7.717
 2223POPC   NC332195   3.778  15.725   9.467
 2223POPC   PO432196   3.357  16.232   9.553
 2223POPC   GL132197   3.369  15.955   9.211
 2223POPC   GL232198   3.688  16.076   9.091
 2223POPC   C1A32199   3.341  15.828   8.770
 2223POPC   D2A32200   3.619  15.575   8.504
 2223POPC   C3A32201   3.738  15.730   8.089
 2223POPC   C4A32202   3.506  15.899   7.751
 2223POPC   C1B32203   3.363  16.366   8.885
 2223POPC   C2B32204   3.327  16.488   8.436
 2223POPC   C3B32205   3.551  16.212   8.162
 2223POPC   C4B32206   3.880  16.219   7.836
 2224POPC   NC332207  42.753  31.577   9.915
 2224POPC   PO432208  42.373  31.119   9.559
 2224POPC   GL132209  42.210  31.413   9.177
 2224POPC   GL232210  41.989  31.239   8.994
 2224POPC   C1A32211  42.318  31.686   8.813
 2224POPC   D2A32212  42.592  31.739   8.484
 2224POPC   C3A32213  42.362  31.739   8.131
 2224POPC   C4A32214  42.468  31.578   7.746
 2224POPC   C1B32215  42.353  31.194   8.721
 2224POPC   C2B32216  42.359  31.197   8.269
 2224POPC   C3B32217  42.300  31.100   7.822
 2224POPC   C4B32218  41.936  31.162   7.547
 2225POPC   NC332219  21.136  33.017   9.616
 2225POPC   PO432220  21.747  33.375   9.565
 2225POPC   GL132221  21.646  33.137   9.143
 2225POPC   GL232222  21.434  32.878   9.180
 2225POPC   C1A32223  21.652  33.004   8.694
 2225POPC   D2A32224  21.302  33.112   8.382
 2225POPC   C3A32225  21.357  33.093   7.937
 2225POPC   C4A32226  21.373  32.962   7.502
 2225POPC   C1B32227  21.231  32.743   8.771
 2225POPC   C2B32228  21.326  32.599   8.347
 2225POPC   C3B32229  21.322  32.591   7.897
 2225POPC   C4B32230  21.400  32.468   7.438
 2226POPC   NC332231  34.952  35.224   9.872
 2226POPC   PO432232  35.606  35.226   9.539
 2226POPC   GL132233  35.656  35.051   9.102
 2226POPC   GL232234  35.330  34.951   9.157
 2226POPC   C1A32235  35.730  35.228   8.693
 2226POPC   D2A32236  35.515  35.445   8.356
 2226POPC   C3A32237  35.461  35.334   7.918
 2226POPC   C4A32238  35.664  35.427   7.515
 2226POPC   C1B32239  35.224  35.199   8.769
 2226POPC   C2B32240  35.096  35.107   8.334
 2226POPC   C3B32241  34.965  35.083   7.890
 2226POPC   C4B32242  35.053  34.726   7.629
 2227POPC   NC332243  32.594  43.205   9.494
 2227POPC   PO432244  33.311  43.212   9.548
 2227POPC   GL132245  33.015  43.262   9.172
 2227POPC   GL232246  32.669  43.211   8.994
 2227POPC   C1A32247  33.107  43.090   8.756
 2227POPC   D2A32248  33.171  42.774   8.435
 2227POPC   C3A32249  33.184  43.007   8.039
 2227POPC   C4A32250  33.485  43.139   7.746
 2227POPC   C1B32251  32.651  42.872   8.650
 2227POPC   C2B32252  32.705  42.826   8.209
 2227POPC   C3B32253  32.754  42.841   7.798
 2227POPC   C4B32254  32.961  43.123   7.564
 2228POPC   NC332255  16.969  17.833   9.460
 2228POPC   PO432256  16.394  17.537   9.536
 2228POPC   GL132257  16.645  17.531   9.172
 2228POPC   GL232258  16.537  17.861   9.149
 2228POPC   C1A32259  16.840  17.430   8.754
 2228POPC   D2A32260  16.995  17.600   8.349
 2228POPC   C3A32261  16.764  17.544   7.972
 2228POPC   C4A32262  16.577  17.248   7.702
 2228POPC   C1B32263  16.277  18.042   8.849
 2228POPC   C2B32264  16.207  18.002   8.433
 2228POPC   C3B32265  16.297  17.854   8.032
 2228POPC   C4B32266  16.194  17.698   7.638
 2229POPC   NC332267   7.449  38.319   9.538
 2229POPC   PO432268   7.842  38.749   9.267
 2229POPC   GL132269   7.518  38.573   8.975
 2229POPC   GL232270   7.369  38.259   9.044
 2229POPC   C1A32271   7.192  38.616   8.616
 2229POPC   D2A32272   7.012  38.699   8.192
 2229POPC   C3A32273   7.347  38.597   7.877
 2229POPC   C4A32274   7.398  38.482   7.432
 2229POPC   C1B32275   7.213  38.107   8.677
 2229POPC   C2B32276   7.248  38.213   8.234
 2229POPC   C3B32277   7.240  38.116   7.791
 2229POPC   C4B32278   7.148  38.036   7.338
 2230POPC   NC332279   2.474   2.107   9.430
 2230POPC   PO432280   1.806   2.132   9.459
 2230POPC   GL132281   2.054   2.210   9.100
 2230POPC   GL232282   2.297   1.976   8.972
 2230POPC   C1A32283   1.935   2.212   8.674
 2230POPC   D2A32284   2.114   2.263   8.268
 2230POPC   C3A32285   1.836   2.233   7.926
 2230POPC   C4A32286   1.852   2.096   7.507
 2230POPC   C1B32287   2.167   1.768   8.593
 2230POPC   C2B32288   2.224   1.758   8.134
 2230POPC   C3B32289   2.286   1.973   7.743
 2230POPC   C4B32290   2.306   1.921   7.283
 2231POPC   NC332291  18.557  32.196   9.533
 2231POPC   PO432292  17.877  32.350   9.641
 2231POPC   GL132293  18.106  32.295   9.239
 2231POPC   GL232294  18.181  32.579   9.016
 2231POPC   C1A32295  18.286  32.100   8.833
 2231POPC   D2A32296  18.521  32.113   8.451
 2231POPC   C3A32297  18.307  32.236   8.094
 2231POPC   C4A32298  18.527  32.031   7.725
 2231POPC   C1B32299  18.137  32.506   8.549
 2231POPC   C2B32300  18.049  32.717   8.169
 2231POPC   C3B32301  18.203  32.641   7.795
 2231POPC   C4B32302  18.090  32.273   7.641
 2232POPC   NC332303   6.870  23.735   9.600
 2232POPC   PO432304   6.263  23.973   9.315
 2232POPC   GL132305   6.616  23.752   9.100
 2232POPC   GL232306   6.956  23.873   9.104
 2232POPC   C1A32307   6.494  23.592   8.696
 2232POPC   D2A32308   6.259  23.649   8.309
 2232POPC   C3A32309   6.532  23.754   7.983
 2232POPC   C4A32310   6.561  23.628   7.524
 2232POPC   C1B32311   6.739  24.058   8.707
 2232POPC   C2B32312   6.432  24.166   8.378
 2232POPC   C3B32313   6.562  24.296   7.961
 2232POPC   C4B32314   6.775  24.069   7.654
 2233POPC   NC332315  23.899  27.033   9.433
 2233POPC   PO432316  23.286  26.979   9.190
 2233POPC   GL132317  23.694  26.947   8.962
 2233POPC   GL232318  24.077  26.852   9.002
 2233POPC   C1A32319  23.754  26.989   8.528
 2233POPC   D2A32320  23.859  27.037   8.093
 2233POPC   C3A32321  23.530  26.958   7.788
 2233POPC   C4A32322  23.478  27.012   7.319
 2233POPC   C1B32323  23.985  26.533   8.684
 2233POPC   C2B32324  23.845  26.555   8.250
 2233POPC   C3B32325  23.956  26.622   7.792
 2233POPC   C4B32326  23.874  26.684   7.360
 2234POPC   NC332327  36.533  17.634   9.490
 2234POPC   PO432328  37.240  17.811   9.464
 2234POPC   GL132329  36.934  17.584   9.137
 2234POPC   GL232330  36.563  17.480   9.021
 2234POPC   C1A32331  37.049  17.445   8.721
 2234POPC   D2A32332  36.956  17.414   8.287
 2234POPC   C3A32333  37.248  17.225   8.010
 2234POPC   C4A32334  37.128  17.152   7.573
 2234POPC   C1B32335  36.646  17.837   8.771
 2234POPC   C2B32336  36.577  17.893   8.346
 2234POPC   C3B32337  36.687  17.863   7.930
 2234POPC   C4B32338  36.974  17.598   7.784
 2235POPC   NC332339  41.849   2.417   9.540
 2235POPC   PO432340  41.534   3.028   9.589
 2235POPC   GL132341  41.673   2.825   9.227
 2235POPC   GL232342  41.468   2.516   9.213
 2235POPC   C1A32343  41.640   2.935   8.779
 2235POPC   D2A32344  41.847   2.976   8.338
 2235POPC   C3A32345  41.597   2.941   7.924
 2235POPC   C4A32346  41.621   2.946   7.462
 2235POPC   C1B32347  41.798   2.454   8.905
 2235POPC   C2B32348  41.722   2.513   8.506
 2235POPC   C3B32349  41.748   2.497   8.097
 2235POPC   C4B32350  41.421   2.443   7.790
 2236POPC   NC332351  11.563   7.235   9.604
 2236POPC   PO432352  11.541   7.907   9.572
 2236POPC   GL132353  11.515   7.558   9.200
 2236POPC   GL232354  11.539   7.146   9.101
 2236POPC   C1A32355  11.312   7.497   8.789
 2236POPC   D2A32356  11.206   7.326   8.394
 2236POPC   C3A32357  11.308   7.645   8.087
 2236POPC   C4A32358  11.584   7.701   7.746
 2236POPC   C1B32359  11.166   6.980   8.832
 2236POPC   C2B32360  11.040   6.814   8.408
 2236POPC   C3B32361  10.891   6.977   7.984
 2236POPC   C4B32362  11.117   7.315   7.753
 2237POPC   NC332363  23.215   5.760  10.132
 2237POPC   PO432364  22.746   5.713   9.704
 2237POPC   GL132365  22.788   5.892   9.306
 2237POPC   GL232366  22.782   5.587   9.164
 2237POPC   C1A32367  22.985   5.995   8.892
 2237POPC   D2A32368  23.209   5.985   8.503
 2237POPC   C3A32369  23.042   5.996   8.072
 2237POPC   C4A32370  23.125   6.220   7.737
 2237POPC   C1B32371  22.738   5.562   8.759
 2237POPC   C2B32372  22.828   5.686   8.394
 2237POPC   C3B32373  22.834   5.513   7.986
 2237POPC   C4B32374  23.024   5.664   7.646
 2238POPC   NC332375  21.854  23.108   9.640
 2238POPC   PO432376  21.345  22.607   9.482
 2238POPC   GL132377  21.540  22.900   9.243
 2238POPC   GL232378  21.390  23.229   9.316
 2238POPC   C1A32379  21.602  22.848   8.812
 2238POPC   D2A32380  21.551  23.100   8.409
 2238POPC   C3A32381  21.538  22.803   8.054
 2238POPC   C4A32382  21.657  22.845   7.622
 2238POPC   C1B32383  21.309  23.266   8.871
 2238POPC   C2B32384  21.063  23.018   8.555
 2238POPC   C3B32385  21.049  23.031   8.102
 2238POPC   C4B32386  21.285  23.170   7.728
 2239POPC   NC332387  41.207  22.526   9.537
 2239POPC   PO432388  41.311  23.179   9.457
 2239POPC   GL132389  41.105  23.049   9.123
 2239POPC   GL232390  41.070  22.689   9.090
 2239POPC   C1A32391  41.304  23.093   8.748
 2239POPC   D2A32392  41.645  22.883   8.508
 2239POPC   C3A32393  41.568  22.852   8.054
 2239POPC   C4A32394  41.348  23.068   7.740
 2239POPC   C1B32395  41.268  22.595   8.718
 2239POPC   C2B32396  41.148  22.826   8.346
 2239POPC   C3B32397  41.071  22.671   7.944
 2239POPC   C4B32398  41.310  22.514   7.609
 2240POPC   NC332399   4.935  21.522   9.475
 2240POPC   PO432400   5.394  21.149   9.582
 2240POPC   GL132401   5.368  21.193   9.066
 2240POPC   GL232402   4.997  21.269   9.041
 2240POPC   C1A32403   5.220  21.385   8.622
 2240POPC   D2A32404   4.882  21.333   8.319
 2240POPC   C3A32405   5.112  21.389   7.948
 2240POPC   C4A32406   5.535  21.335   7.778
 2240POPC   C1B32407   4.762  21.584   8.774
 2240POPC   C2B32408   4.864  21.864   8.404
 2240POPC   C3B32409   4.759  21.752   8.002
 2240POPC   C4B32410   4.653  21.598   7.630
 2241POPC   NC332411   0.513   8.011   9.346
 2241POPC   PO432412   0.556   7.317   9.618
 2241POPC   GL132413   0.646   7.480   9.251
 2241POPC   GL232414   0.880   7.255   9.214
 2241POPC   C1A32415   0.676   7.582   8.833
 2241POPC   D2A32416   0.329   7.569   8.564
 2241POPC   C3A32417   0.315   7.656   8.151
 2241POPC   C4A32418   0.334   7.421   7.777
 2241POPC   C1B32419   0.803   7.049   8.854
 2241POPC   C2B32420   0.671   7.175   8.473
 2241POPC   C3B32421   0.724   7.345   8.085
 2241POPC   C4B32422   0.876   7.075   7.828
 2242POPC   NC332423  25.963  35.197   9.483
 2242POPC   PO432424  25.712  35.822   9.548
 2242POPC   GL132425  25.865  35.602   9.117
 2242POPC   GL232426  25.886  35.244   9.005
 2242POPC   C1A32427  25.907  35.578   8.641
 2242POPC   D2A32428  26.180  35.607   8.260
 2242POPC   C3A32429  26.041  35.518   7.825
 2242POPC   C4A32430  25.650  35.524   7.644
 2242POPC   C1B32431  26.161  35.024   8.758
 2242POPC   C2B32432  26.026  35.119   8.419
 2242POPC   C3B32433  26.059  35.066   8.046
 2242POPC   C4B32434  26.314  35.042   7.733
 2243POPC   NC332435  14.307  44.799   9.497
 2243POPC   PO432436  14.639  44.148   9.412
 2243POPC   GL132437  14.438  44.461   9.145
 2243POPC   GL232438  14.607  44.806   9.083
 2243POPC   C1A32439  14.193  44.663   8.807
 2243POPC   D2A32440  14.108  44.851   8.377
 2243POPC   C3A32441  14.172  44.608   7.994
 2243POPC   C4A32442  14.432  44.446   7.654
 2243POPC   C1B32443  14.778  44.930   8.681
 2243POPC   C2B32444  14.612   0.082   8.285
 2243POPC   C3B32445  14.530  44.941   7.860
 2243POPC   C4B32446  14.756  44.857   7.470
 2244POPC   NC332447  28.712  31.138   9.444
 2244POPC   PO432448  28.900  31.861   9.502
 2244POPC   GL132449  29.042  31.825   9.090
 2244POPC   GL232450  28.964  31.475   9.023
 2244POPC   C1A32451  29.336  31.803   8.756
 2244POPC   D2A32452  29.419  31.993   8.350
 2244POPC   C3A32453  29.398  31.709   8.002
 2244POPC   C4A32454  29.036  31.706   7.715
 2244POPC   C1B32455  29.265  31.317   8.676
 2244POPC   C2B32456  29.318  31.279   8.258
 2244POPC   C3B32457  29.235  31.247   7.834
 2244POPC   C4B32458  29.418  31.466   7.472
 2245POPC   NC332459  34.289  20.238   9.386
 2245POPC   PO432460  34.703  20.808   9.335
 2245POPC   GL132461  34.654  20.508   9.120
 2245POPC   GL232462  35.008  20.398   9.102
 2245POPC   C1A32463  34.459  20.565   8.721
 2245POPC   D2A32464  34.450  20.308   8.357
 2245POPC   C3A32465  34.631  20.480   7.999
 2245POPC   C4A32466  34.454  20.829   7.794
 2245POPC   C1B32467  34.978  20.690   8.751
 2245POPC   C2B32468  34.770  20.797   8.383
 2245POPC   C3B32469  34.932  20.914   8.000
 2245POPC   C4B32470  34.912  20.833   7.568
 2246POPC   NC332471  22.886  19.232   9.757
 2246POPC   PO432472  22.516  18.751   9.557
 2246POPC   GL132473  22.658  19.112   9.289
 2246POPC   GL232474  22.999  19.234   9.248
 2246POPC   C1A32475  22.664  19.239   8.867
 2246POPC   D2A32476  22.715  19.334   8.419
 2246POPC   C3A32477  22.936  18.967   8.226
 2246POPC   C4A32478  23.118  18.869   7.804
 2246POPC   C1B32479  23.140  19.418   8.859
 2246POPC   C2B32480  23.212  19.568   8.447
 2246POPC   C3B32481  23.201  19.387   8.044
 2246POPC   C4B32482  23.280  19.328   7.619
 2247POPC   NC332483  41.854  43.948   9.586
 2247POPC   PO432484  42.558  44.085   9.482
 2247POPC   GL132485  42.470  43.852   9.147
 2247POPC   GL232486  42.141  43.834   9.163
 2247POPC   C1A32487  42.417  43.991   8.723
 2247POPC   D2A32488  42.493  43.786   8.324
 2247POPC   C3A32489  42.389  44.047   7.944
 2247POPC   C4A32490  42.557  44.223   7.587
 2247POPC   C1B32491  42.091  43.579   8.821
 2247POPC   C2B32492  41.893  43.605   8.436
 2247POPC   C3B32493  42.105  43.622   8.048
 2247POPC   C4B32494  42.072  43.742   7.653
 2248POPC   NC332495   0.994  38.581   9.483
 2248POPC   PO432496   1.488  38.134   9.457
 2248POPC   GL132497   1.412  38.471   9.139
 2248POPC   GL232498   1.301  38.814   9.146
 2248POPC   C1A32499   1.240  38.551   8.717
 2248POPC   D2A32500   1.498  38.629   8.350
 2248POPC   C3A32501   1.449  38.388   7.964
 2248POPC   C4A32502   1.128  38.379   7.657
 2248POPC   C1B32503   1.422  39.001   8.733
 2248POPC   C2B32504   1.158  39.028   8.372
 2248POPC   C3B32505   1.112  38.758   8.037
 2248POPC   C4B32506   1.200  38.880   7.674
 2249POPC   NC332507  41.804  29.712   9.474
 2249POPC   PO432508  41.199  30.109   9.550
 2249POPC   GL132509  41.306  29.868   9.174
 2249POPC   GL232510  41.609  30.003   9.089
 2249POPC   C1A32511  41.346  29.778   8.704
 2249POPC   D2A32512  41.524  29.994   8.307
 2249POPC   C3A32513  41.324  30.107   7.939
 2249POPC   C4A32514  41.409  29.862   7.577
 2249POPC   C1B32515  41.831  29.982   8.709
 2249POPC   C2B32516  42.007  29.821   8.341
 2249POPC   C3B32517  41.904  29.796   7.908
 2249POPC   C4B32518  41.796  30.203   7.718
 2250POPC   NC332519  18.582  12.712   9.415
 2250POPC   PO432520  18.133  13.175   9.559
 2250POPC   GL132521  18.170  13.057   9.155
 2250POPC   GL232522  18.500  13.158   9.113
 2250POPC   C1A32523  18.184  12.972   8.714
 2250POPC   D2A32524  18.409  13.131   8.350
 2250POPC   C3A32525  18.184  13.030   7.939
 2250POPC   C4A32526  17.994  12.802   7.601
 2250POPC   C1B32527  18.706  12.919   8.798
 2250POPC   C2B32528  18.893  12.880   8.399
 2250POPC   C3B32529  18.669  12.829   8.017
 2250POPC   C4B32530  18.486  12.684   7.664
 2251POPC   NC332531  17.847  40.929   9.639
 2251POPC   PO432532  17.288  40.508   9.472
 2251POPC   GL132533  17.484  40.618   9.109
 2251POPC   GL232534  17.609  40.919   9.183
 2251POPC   C1A32535  17.511  40.558   8.665
 2251POPC   D2A32536  17.542  40.807   8.296
 2251POPC   C3A32537  17.435  40.617   7.921
 2251POPC   C4A32538  17.678  40.593   7.580
 2251POPC   C1B32539  17.619  41.060   8.769
 2251POPC   C2B32540  17.771  41.274   8.390
 2251POPC   C3B32541  17.724  41.212   7.975
 2251POPC   C4B32542  17.566  41.091   7.611
 2252POPC   NC332543  15.282  27.026   9.446
 2252POPC   PO432544  15.434  26.420   9.486
 2252POPC   GL132545  15.145  26.616   9.154
 2252POPC   GL232546  14.858  26.892   9.165
 2252POPC   C1A32547  15.084  26.726   8.730
 2252POPC   D2A32548  15.211  26.579   8.333
 2252POPC   C3A32549  15.411  26.875   8.113
 2252POPC   C4A32550  15.471  26.959   7.695
 2252POPC   C1B32551  14.803  27.156   8.770
 2252POPC   C2B32552  14.961  27.086   8.339
 2252POPC   C3B32553  14.864  26.986   7.909
 2252POPC   C4B32554  14.843  27.040   7.442
 2253POPC   NC332555  35.934  32.498   9.464
 2253POPC   PO432556  36.361  32.025   9.597
 2253POPC   GL132557  36.083  32.054   9.232
 2253POPC   GL232558  35.701  32.141   9.158
 2253POPC   C1A32559  36.113  32.192   8.813
 2253POPC   D2A32560  35.952  32.349   8.437
 2253POPC   C3A32561  35.922  32.048   8.101
 2253POPC   C4A32562  36.258  32.125   7.816
 2253POPC   C1B32563  35.613  32.466   8.832
 2253POPC   C2B32564  35.575  32.701   8.434
 2253POPC   C3B32565  35.763  32.607   8.020
 2253POPC   C4B32566  35.816  32.348   7.680
 2254POPC   NC332567  41.669   9.639   9.491
 2254POPC   PO432568  41.079   9.968   9.529
 2254POPC   GL132569  41.389   9.960   9.168
 2254POPC   GL232570  41.758  10.051   9.175
 2254POPC   C1A32571  41.309  10.015   8.721
 2254POPC   D2A32572  41.529  10.077   8.325
 2254POPC   C3A32573  41.603   9.698   8.081
 2254POPC   C4A32574  41.437   9.636   7.703
 2254POPC   C1B32575  41.843   9.940   8.724
 2254POPC   C2B32576  42.040   9.853   8.306
 2254POPC   C3B32577  41.943  10.009   7.871
 2254POPC   C4B32578  41.715   9.966   7.446
 2255POPC   NC332579   1.002  40.181   9.448
 2255POPC   PO432580   1.482  39.633   9.470
 2255POPC   GL132581   1.315  39.862   9.125
 2255POPC   GL232582   0.956  39.807   9.072
 2255POPC   C1A32583   1.283  40.219   8.859
 2255POPC   D2A32584   1.343  40.309   8.459
 2255POPC   C3A32585   1.174  40.046   8.120
 2255POPC   C4A32586   1.092  40.187   7.727
 2255POPC   C1B32587   1.032  39.869   8.613
 2255POPC   C2B32588   1.328  39.626   8.372
 2255POPC   C3B32589   1.509  39.610   7.984
 2255POPC   C4B32590   1.345  39.778   7.601
 2256POPC   NC332591  15.866  24.236   9.475
 2256POPC   PO432592  15.471  24.820   9.326
 2256POPC   GL132593  15.951  24.799   9.093
 2256POPC   GL232594  16.107  24.464   9.074
 2256POPC   C1A32595  16.324  24.714   8.717
 2256POPC   D2A32596  16.217  24.450   8.330
 2256POPC   C3A32597  16.253  24.578   7.886
 2256POPC   C4A32598  16.218  24.330   7.501
 2256POPC   C1B32599  15.833  24.561   8.645
 2256POPC   C2B32600  15.746  24.616   8.155
 2256POPC   C3B32601  15.782  24.475   7.716
 2256POPC   C4B32602  15.560  24.564   7.334
 2257POPC   NC332603   8.277   0.755   9.436
 2257POPC   PO432604   8.086   0.071   9.440
 2257POPC   GL132605   8.097   0.347   9.122
 2257POPC   GL232606   8.457   0.372   9.097
 2257POPC   C1A32607   8.124   0.308   8.672
 2257POPC   D2A32608   8.039   0.563   8.341
 2257POPC   C3A32609   8.014   0.331   7.996
 2257POPC   C4A32610   7.908   0.451   7.603
 2257POPC   C1B32611   8.450   0.685   8.760
 2257POPC   C2B32612   8.553   0.592   8.309
 2257POPC   C3B32613   8.376   0.717   7.920
 2257POPC   C4B32614   8.323   0.720   7.479
 2258POPC   NC332615  18.321  39.086   9.373
 2258POPC   PO432616  18.210  38.575   9.835
 2258POPC   GL132617  18.132  38.415   9.343
 2258POPC   GL232618  18.319  38.627   9.146
 2258POPC   C1A32619  18.118  38.334   8.812
 2258POPC   D2A32620  18.318  38.146   8.398
 2258POPC   C3A32621  18.181  38.245   8.015
 2258POPC   C4A32622  17.929  38.569   7.883
 2258POPC   C1B32623  18.454  38.776   8.738
 2258POPC   C2B32624  18.559  38.907   8.336
 2258POPC   C3B32625  18.668  38.727   8.002
 2258POPC   C4B32626  18.458  38.543   7.719
 2259POPC   NC332627   6.295  10.454   9.758
 2259POPC   PO432628   6.927  10.328   9.622
 2259POPC   GL132629   6.918  10.463   9.189
 2259POPC   GL232630   6.661  10.713   9.160
 2259POPC   C1A32631   6.727  10.369   8.763
 2259POPC   D2A32632   6.762  10.545   8.320
 2259POPC   C3A32633   6.804  10.242   7.984
 2259POPC   C4A32634   6.863  10.087   7.560
 2259POPC   C1B32635   6.647  10.886   8.723
 2259POPC   C2B32636   6.497  11.111   8.349
 2259POPC   C3B32637   6.332  10.956   7.968
 2259POPC   C4B32638   6.544  10.636   7.798
 2260POPC   NC332639  30.774  21.735   9.510
 2260POPC   PO432640  30.557  22.397   9.593
 2260POPC   GL132641  30.447  22.060   9.275
 2260POPC   GL232642  30.709  21.943   9.042
 2260POPC   C1A32643  30.289  22.147   8.864
 2260POPC   D2A32644  30.385  21.973   8.444
 2260POPC   C3A32645  30.575  22.221   8.137
 2260POPC   C4A32646  30.337  22.422   7.826
 2260POPC   C1B32647  30.862  22.062   8.626
 2260POPC   C2B32648  31.049  22.008   8.205
 2260POPC   C3B32649  30.864  21.938   7.820
 2260POPC   C4B32650  30.421  21.829   7.832
 2261POPC   NC332651   5.360  34.360   9.550
 2261POPC   PO432652   4.785  34.184   9.590
 2261POPC   GL132653   4.920  34.408   9.196
 2261POPC   GL232654   5.221  34.532   9.101
 2261POPC   C1A32655   4.905  34.502   8.722
 2261POPC   D2A32656   4.832  34.832   8.402
 2261POPC   C3A32657   4.952  34.720   7.955
 2261POPC   C4A32658   4.961  34.698   7.487
 2261POPC   C1B32659   5.409  34.770   8.756
 2261POPC   C2B32660   5.366  34.957   8.363
 2261POPC   C3B32661   5.475  34.760   7.986
 2261POPC   C4B32662   5.512  34.805   7.568
 2262POPC   NC332663  26.397  30.764   9.554
 2262POPC   PO432664  25.886  30.462   9.408
 2262POPC   GL132665  25.923  30.884   9.233
 2262POPC   GL232666  26.240  30.968   9.116
 2262POPC   C1A32667  25.802  30.983   8.799
 2262POPC   D2A32668  25.821  30.741   8.415
 2262POPC   C3A32669  25.874  30.860   7.973
 2262POPC   C4A32670  25.826  30.532   7.631
 2262POPC   C1B32671  26.302  30.952   8.702
 2262POPC   C2B32672  26.450  30.820   8.348
 2262POPC   C3B32673  26.399  30.921   7.981
 2262POPC   C4B32674  26.298  30.685   7.667
 2263POPC   NC332675   1.645  36.069   9.818
 2263POPC   PO432676   2.244  36.221   9.811
 2263POPC   GL132677   2.106  36.051   9.332
 2263POPC   GL232678   1.770  35.899   9.196
 2263POPC   C1A32679   2.053  36.252   8.874
 2263POPC   D2A32680   1.785  36.383   8.486
 2263POPC   C3A32681   1.926  36.285   8.059
 2263POPC   C4A32682   2.046  36.446   7.655
 2263POPC   C1B32683   1.631  35.963   8.770
 2263POPC   C2B32684   1.570  35.763   8.366
 2263POPC   C3B32685   1.846  35.782   7.984
 2263POPC   C4B32686   1.768  36.032   7.594
 2264POPC   NC332687  10.468  28.137   9.559
 2264POPC   PO432688  10.858  28.698   9.667
 2264POPC   GL132689  10.631  28.583   9.277
 2264POPC   GL232690  10.738  28.303   9.171
 2264POPC   C1A32691  10.455  28.566   8.818
 2264POPC   D2A32692  10.188  28.630   8.454
 2264POPC   C3A32693  10.345  28.522   8.074
 2264POPC   C4A32694  10.244  28.241   7.783
 2264POPC   C1B32695  10.902  28.320   8.771
 2264POPC   C2B32696  10.929  28.187   8.357
 2264POPC   C3B32697  10.730  28.197   7.973
 2264POPC   C4B32698  10.877  28.504   7.730
 2265POPC   NC332699  17.089   9.630   9.503
 2265POPC   PO432700  16.563   9.798   9.665
 2265POPC   GL132701  16.732   9.780   9.198
 2265POPC   GL232702  16.786   9.455   9.107
 2265POPC   C1A32703  16.720   9.812   8.732
 2265POPC   D2A32704  16.511  10.057   8.400
 2265POPC   C3A32705  16.647   9.942   7.995
 2265POPC   C4A32706  16.889   9.652   7.807
 2265POPC   C1B32707  16.495   9.321   8.728
 2265POPC   C2B32708  16.375   9.125   8.351
 2265POPC   C3B32709  16.463   9.217   7.927
 2265POPC   C4B32710  16.387   9.587   7.712
 2266POPC   NC332711   7.150  42.812   9.493
 2266POPC   PO432712   7.618  43.235   9.449
 2266POPC   GL132713   7.326  43.082   9.089
 2266POPC   GL232714   7.176  42.733   8.996
 2266POPC   C1A32715   7.337  43.081   8.622
 2266POPC   D2A32716   7.564  43.346   8.301
 2266POPC   C3A32717   7.504  43.289   7.875
 2266POPC   C4A32718   7.088  43.226   7.684
 2266POPC   C1B32719   7.619  42.718   8.880
 2266POPC   C2B32720   7.759  42.832   8.469
 2266POPC   C3B32721   7.724  42.675   8.043
 2266POPC   C4B32722   7.405  42.791   7.741
 2267POPC   NC332723  37.226  37.868   9.560
 2267POPC   PO432724  37.882  37.614   9.650
 2267POPC   GL132725  37.571  37.609   9.291
 2267POPC   GL232726  37.515  37.965   9.171
 2267POPC   C1A32727  37.550  37.615   8.824
 2267POPC   D2A32728  37.687  37.475   8.431
 2267POPC   C3A32729  37.867  37.754   8.130
 2267POPC   C4A32730  37.809  37.690   7.698
 2267POPC   C1B32731  37.434  38.140   8.787
 2267POPC   C2B32732  37.460  37.980   8.378
 2267POPC   C3B32733  37.389  38.159   7.956
 2267POPC   C4B32734  37.481  38.000   7.497
 2268POPC   NC332735  42.622  23.624   9.371
 2268POPC   PO432736  43.289  23.495   9.447
 2268POPC   GL132737  43.050  23.596   9.100
 2268POPC   GL232738  42.993  23.958   9.156
 2268POPC   C1A32739  43.032  23.743   8.685
 2268POPC   D2A32740  43.295  23.955   8.402
 2268POPC   C3A32741  43.162  23.749   8.029
 2268POPC   C4A32742  43.002  23.599   7.619
 2268POPC   C1B32743  43.050  24.231   8.769
 2268POPC   C2B32744  42.908  24.270   8.345
 2268POPC   C3B32745  43.116  24.237   7.917
 2268POPC   C4B32746  42.993  24.226   7.461
 2269POPC   NC332747  28.152  16.766   9.781
 2269POPC   PO432748  28.536  17.232   9.664
 2269POPC   GL132749  28.291  17.090   9.282
 2269POPC   GL232750  28.213  16.749   9.261
 2269POPC   C1A32751  28.142  17.071   8.828
 2269POPC   D2A32752  28.171  16.783   8.444
 2269POPC   C3A32753  28.040  16.732   7.999
 2269POPC   C4A32754  28.156  16.483   7.635
 2269POPC   C1B32755  28.578  16.828   8.952
 2269POPC   C2B32756  28.619  17.021   8.524
 2269POPC   C3B32757  28.512  16.975   8.059
 2269POPC   C4B32758  28.637  16.768   7.646
 2270POPC   NC332759  44.744  41.175   9.767
 2270POPC   PO432760  44.632  41.610   9.307
 2270POPC   GL132761  44.656  41.458   8.900
 2270POPC   GL232762  44.813  41.142   8.989
 2270POPC   C1A32763  44.904  41.430   8.528
 2270POPC   D2A32764   0.101  41.591   8.152
 2270POPC   C3A32765  44.788  41.634   7.856
 2270POPC   C4A32766  44.821  41.807   7.477
 2270POPC   C1B32767  44.586  41.041   8.602
 2270POPC   C2B32768  44.580  41.209   8.174
 2270POPC   C3B32769  44.546  41.201   7.741
 2270POPC   C4B32770  44.796  41.316   7.404
 2271POPC   NC332771  41.152  40.614   9.450
 2271POPC   PO432772  40.885  41.247   9.389
 2271POPC   GL132773  40.916  40.947   9.139
 2271POPC   GL232774  40.636  40.774   9.195
 2271POPC   C1A32775  40.979  40.814   8.748
 2271POPC   D2A32776  41.169  40.565   8.476
 2271POPC   C3A32777  40.992  40.681   8.074
 2271POPC   C4A32778  40.901  41.028   7.793
 2271POPC   C1B32779  40.487  40.673   8.759
 2271POPC   C2B32780  40.574  40.549   8.344
 2271POPC   C3B32781  40.485  40.771   7.956
 2271POPC   C4B32782  40.460  40.827   7.519
 2272POPC   NC332783  28.692   2.693   9.572
 2272POPC   PO432784  28.220   3.059   9.631
 2272POPC   GL132785  28.315   2.738   9.229
 2272POPC   GL232786  28.625   2.518   9.115
 2272POPC   C1A32787  28.219   2.739   8.778
 2272POPC   D2A32788  28.138   3.004   8.378
 2272POPC   C3A32789  28.067   2.794   8.001
 2272POPC   C4A32790  28.255   2.519   7.710
 2272POPC   C1B32791  28.687   2.877   8.869
 2272POPC   C2B32792  28.625   2.898   8.445
 2272POPC   C3B32793  28.616   2.766   8.016
 2272POPC   C4B32794  28.803   2.968   7.661
 2273POPC   NC332795   8.983   2.807   9.793
 2273POPC   PO432796   9.048   2.334   9.339
 2273POPC   GL132797   9.072   2.650   9.095
 2273POPC   GL232798   8.822   2.871   9.225
 2273POPC   C1A32799   9.078   2.588   8.660
 2273POPC   D2A32800   8.869   2.378   8.361
 2273POPC   C3A32801   9.141   2.497   8.069
 2273POPC   C4A32802   9.147   2.702   7.698
 2273POPC   C1B32803   8.618   2.679   8.831
 2273POPC   C2B32804   8.512   2.766   8.391
 2273POPC   C3B32805   8.677   2.681   7.959
 2273POPC   C4B32806   8.526   2.428   7.600
 2274POPC   NC332807   0.798  31.074   9.718
 2274POPC   PO432808   0.074  31.057   9.759
 2274POPC   GL132809   0.324  31.016   9.322
 2274POPC   GL232810   0.100  31.128   9.042
 2274POPC   C1A32811   0.514  30.759   8.927
 2274POPC   D2A32812   0.547  30.734   8.428
 2274POPC   C3A32813   0.530  30.516   7.996
 2274POPC   C4A32814   0.434  30.563   7.522
 2274POPC   C1B32815   0.404  31.185   8.681
 2274POPC   C2B32816   0.506  31.213   8.230
 2274POPC   C3B32817   0.505  31.002   7.815
 2274POPC   C4B32818   0.642  31.010   7.368
 2275POPC   NC332819  21.921  32.941   9.526
 2275POPC   PO432820  22.580  33.204   9.573
 2275POPC   GL132821  22.354  32.977   9.243
 2275POPC   GL232822  22.140  33.240   9.157
 2275POPC   C1A32823  22.144  32.861   8.842
 2275POPC   D2A32824  22.101  33.080   8.451
 2275POPC   C3A32825  21.778  32.933   8.178
 2275POPC   C4A32826  21.782  32.760   7.777
 2275POPC   C1B32827  22.484  33.330   8.884
 2275POPC   C2B32828  22.515  33.549   8.505
 2275POPC   C3B32829  22.256  33.484   8.160
 2275POPC   C4B32830  22.193  33.139   7.855
 2276POPC   NC332831  37.086  22.386   9.526
 2276POPC   PO432832  36.503  22.043   9.619
 2276POPC   GL132833  36.750  22.118   9.237
 2276POPC   GL232834  37.053  21.924   9.202
 2276POPC   C1A32835  36.884  22.232   8.813
 2276POPC   D2A32836  36.916  22.081   8.378
 2276POPC   C3A32837  36.725  22.135   7.950
 2276POPC   C4A32838  36.436  21.891   7.712
 2276POPC   C1B32839  37.342  21.939   8.835
 2276POPC   C2B32840  37.434  22.034   8.406
 2276POPC   C3B32841  37.221  21.934   7.993
 2276POPC   C4B32842  37.203  22.140   7.629
 2277POPC   NC332843  43.957  30.624   9.757
 2277POPC   PO432844  44.093  31.192   9.541
 2277POPC   GL132845  43.872  30.900   9.281
 2277POPC   GL232846  44.086  30.622   9.247
 2277POPC   C1A32847  43.893  30.886   8.828
 2277POPC   D2A32848  43.669  31.072   8.460
 2277POPC   C3A32849  43.823  30.851   8.105
 2277POPC   C4A32850  43.918  30.707   7.676
 2277POPC   C1B32851  44.010  30.390   8.856
 2277POPC   C2B32852  43.893  30.438   8.410
 2277POPC   C3B32853  43.966  30.289   7.962
 2277POPC   C4B32854  44.226  30.286   7.562
 2278POPC   NC332855  20.216  42.481   9.492
 2278POPC   PO432856  19.501  42.685   9.512
 2278POPC   GL132857  19.701  42.507   9.114
 2278POPC   GL232858  19.605  42.148   8.982
 2278POPC   C1A32859  19.820  42.504   8.659
 2278POPC   D2A32860  19.633  42.570   8.230
 2278POPC   C3A32861  19.897  42.597   7.861
 2278POPC   C4A32862  19.951  42.535   7.377
 2278POPC   C1B32863  19.892  41.968   8.702
 2278POPC   C2B32864  19.893  41.798   8.318
 2278POPC   C3B32865  19.769  42.084   8.036
 2278POPC   C4B32866  19.647  42.218   7.659
 2279POPC   NC332867  37.713  33.526   9.512
 2279POPC   PO432868  37.348  34.100   9.488
 2279POPC   GL132869  37.525  33.990   9.087
 2279POPC   GL232870  37.434  33.651   9.064
 2279POPC   C1A32871  37.736  33.992   8.661
 2279POPC   D2A32872  37.887  34.139   8.238
 2279POPC   C3A32873  37.678  33.957   7.830
 2279POPC   C4A32874  37.338  33.607   7.757
 2279POPC   C1B32875  37.865  33.559   8.887
 2279POPC   C2B32876  38.055  33.420   8.514
 2279POPC   C3B32877  37.860  33.274   8.140
 2279POPC   C4B32878  37.793  33.430   7.720
 2280POPC   NC332879   9.211  41.856   9.638
 2280POPC   PO432880   8.908  41.370   9.660
 2280POPC   GL132881   8.890  41.557   9.228
 2280POPC   GL232882   9.144  41.832   9.147
 2280POPC   C1A32883   8.881  41.624   8.778
 2280POPC   D2A32884   9.082  41.755   8.408
 2280POPC   C3A32885   8.862  41.711   8.055
 2280POPC   C4A32886   8.897  41.379   7.748
 2280POPC   C1B32887   9.302  42.040   8.774
 2280POPC   C2B32888   9.469  42.066   8.335
 2280POPC   C3B32889   9.239  42.053   7.976
 2280POPC   C4B32890   9.094  41.839   7.617
 2281POPC   NC332891  14.406   3.882   9.444
 2281POPC   PO432892  14.432   3.270   9.757
 2281POPC   GL132893  14.529   3.420   9.276
 2281POPC   GL232894  14.580   3.198   8.978
 2281POPC   C1A32895  14.332   3.615   8.864
 2281POPC   D2A32896  14.234   3.808   8.471
 2281POPC   C3A32897  14.346   3.888   8.078
 2281POPC   C4A32898  14.521   3.731   7.724
 2281POPC   C1B32899  14.786   3.453   8.678
 2281POPC   C2B32900  14.733   3.566   8.236
 2281POPC   C3B32901  14.933   3.465   7.833
 2281POPC   C4B32902  14.757   3.414   7.409
 2282POPC   NC332903  31.535  21.707   9.363
 2282POPC   PO432904  31.035  22.094   9.408
 2282POPC   GL132905  31.273  22.060   9.033
 2282POPC   GL232906  31.655  22.062   9.043
 2282POPC   C1A32907  31.378  22.036   8.603
 2282POPC   D2A32908  31.616  22.304   8.293
 2282POPC   C3A32909  31.387  22.250   7.911
 2282POPC   C4A32910  31.372  21.898   7.718
 2282POPC   C1B32911  31.885  22.087   8.679
 2282POPC   C2B32912  31.753  21.812   8.345
 2282POPC   C3B32913  31.818  21.956   7.949
 2282POPC   C4B32914  31.999  21.959   7.574
 2283POPC   NC332915   0.573   6.850   9.720
 2283POPC   PO432916   0.707   6.290   9.317
 2283POPC   GL132917   0.482   6.605   9.063
 2283POPC   GL232918   0.463   6.937   9.230
 2283POPC   C1A32919   0.491   6.701   8.606
 2283POPC   D2A32920   0.799   6.631   8.272
 2283POPC   C3A32921   0.662   6.380   7.943
 2283POPC   C4A32922   0.293   6.476   7.759
 2283POPC   C1B32923   0.298   7.148   8.868
 2283POPC   C2B32924   0.188   7.080   8.427
 2283POPC   C3B32925   0.380   6.958   8.032
 2283POPC   C4B32926   0.079   7.002   7.701
 2284POPC   NC332927  16.006  12.860   9.612
 2284POPC   PO432928  16.437  13.324   9.384
 2284POPC   GL132929  16.199  12.957   9.134
 2284POPC   GL232930  15.958  12.669   9.143
 2284POPC   C1A32931  15.965  12.891   8.692
 2284POPC   D2A32932  15.729  13.001   8.285
 2284POPC   C3A32933  16.014  13.099   7.918
 2284POPC   C4A32934  16.055  12.898   7.470
 2284POPC   C1B32935  16.367  12.601   8.824
 2284POPC   C2B32936  16.464  12.539   8.412
 2284POPC   C3B32937  16.246  12.653   8.054
 2284POPC   C4B32938  16.350  12.449   7.680
 2285POPC   NC332939  17.332  20.851   9.787
 2285POPC   PO432940  17.461  21.391   9.528
 2285POPC   GL132941  17.477  21.397   9.099
 2285POPC   GL232942  17.778  21.581   9.125
 2285POPC   C1A32943  17.388  21.266   8.659
 2285POPC   D2A32944  17.179  21.324   8.274
 2285POPC   C3A32945  17.387  21.614   8.007
 2285POPC   C4A32946  17.508  21.535   7.555
 2285POPC   C1B32947  17.649  21.705   8.728
 2285POPC   C2B32948  17.785  21.560   8.325
 2285POPC   C3B32949  17.799  21.295   7.926
 2285POPC   C4B32950  17.984  21.312   7.486
 2286POPC   NC332951  42.039  24.828   9.716
 2286POPC   PO432952  42.407  25.368   9.492
 2286POPC   GL132953  42.280  25.447   9.088
 2286POPC   GL232954  42.047  25.213   9.109
 2286POPC   C1A32955  42.181  25.425   8.681
 2286POPC   D2A32956  42.318  25.431   8.306
 2286POPC   C3A32957  42.123  25.266   7.970
 2286POPC   C4A32958  42.375  25.395   7.673
 2286POPC   C1B32959  42.442  25.009   8.908
 2286POPC   C2B32960  42.603  25.089   8.537
 2286POPC   C3B32961  42.616  25.089   8.073
 2286POPC   C4B32962  42.596  24.942   7.624
 2287POPC   NC332963  13.921  28.370   9.397
 2287POPC   PO432964  14.615  28.349   9.512
 2287POPC   GL132965  14.605  28.216   9.104
 2287POPC   GL232966  14.258  28.118   9.109
 2287POPC   C1A32967  14.577  28.431   8.722
 2287POPC   D2A32968  14.779  28.576   8.394
 2287POPC   C3A32969  14.625  28.613   7.999
 2287POPC   C4A32970  14.535  28.372   7.655
 2287POPC   C1B32971  14.081  28.268   8.716
 2287POPC   C2B32972  14.236  28.405   8.301
 2287POPC   C3B32973  14.075  28.264   7.885
 2287POPC   C4B32974  14.109  28.198   7.427
 2288POPC   NC332975  18.850  30.480   9.886
 2288POPC   PO432976  18.351  30.812   9.459
 2288POPC   GL132977  18.233  30.951   9.059
 2288POPC   GL232978  17.866  30.872   8.983
 2288POPC   C1A32979  18.496  31.171   8.718
 2288POPC   D2A32980  18.642  31.306   8.286
 2288POPC   C3A32981  18.507  31.015   7.944
 2288POPC   C4A32982  18.575  30.828   7.513
 2288POPC   C1B32983  18.140  30.813   8.589
 2288POPC   C2B32984  18.090  30.765   8.173
 2288POPC   C3B32985  18.072  30.802   7.749
 2288POPC   C4B32986  18.071  30.880   7.313
 2289POPC   NC332987  35.591   0.537   9.468
 2289POPC   PO432988  34.956   0.403   9.702
 2289POPC   GL132989  35.181   0.444   9.189
 2289POPC   GL232990  35.498   0.233   9.067
 2289POPC   C1A32991  35.246   0.393   8.694
 2289POPC   D2A32992  35.580   0.206   8.420
 2289POPC   C3A32993  35.431   0.217   7.986
 2289POPC   C4A32994  35.092   0.406   7.691
 2289POPC   C1B32995  35.684   0.601   8.792
 2289POPC   C2B32996  35.781   0.731   8.358
 2289POPC   C3B32997  35.522   0.710   7.981
 2289POPC   C4B32998  35.590   0.520   7.560
 2290POPC   NC332999  24.689  33.560   9.516
 2290POPC   PO433000  25.280  33.698   9.607
 2290POPC   GL133001  25.067  33.780   9.201
 2290POPC   GL233002  24.821  34.058   9.218
 2290POPC   C1A33003  25.104  33.686   8.742
 2290POPC   D2A33004  25.359  33.749   8.367
 2290POPC   C3A33005  25.293  33.536   7.987
 2290POPC   C4A33006  25.537  33.716   7.654
 2290POPC   C1B33007  24.860  34.151   8.755
 2290POPC   C2B33008  25.135  34.229   8.356
 2290POPC   C3B33009  25.194  34.034   7.907
 2290POPC   C4B33010  25.067  33.825   7.473
 2291POPC   NC333011  26.531   4.499   9.986
 2291POPC   PO433012  26.147   4.401   9.477
 2291POPC   GL133013  26.174   4.429   9.041
 2291POPC   GL233014  26.506   4.344   8.945
 2291POPC   C1A33015  25.983   4.571   8.644
 2291POPC   D2A33016  25.800   4.792   8.320
 2291POPC   C3A33017  25.813   4.481   7.969
 2291POPC   C4A33018  26.132   4.291   7.741
 2291POPC   C1B33019  26.297   4.163   8.616
 2291POPC   C2B33020  26.192   4.214   8.227
 2291POPC   C3B33021  25.960   3.888   7.961
 2291POPC   C4B33022  26.067   3.832   7.502
 2292POPC   NC333023  34.409   9.882   9.427
 2292POPC   PO433024  34.519   9.245   9.461
 2292POPC   GL133025  34.587   9.519   9.112
 2292POPC   GL233026  34.373   9.408   8.863
 2292POPC   C1A33027  34.637   9.822   8.765
 2292POPC   D2A33028  34.650   9.924   8.344
 2292POPC   C3A33029  34.428   9.710   8.028
 2292POPC   C4A33030  34.433   9.933   7.621
 2292POPC   C1B33031  34.849   9.377   8.664
 2292POPC   C2B33032  35.020   9.498   8.243
 2292POPC   C3B33033  34.804   9.465   7.812
 2292POPC   C4B33034  34.367   9.438   7.594
 2293POPC   NC333035  28.941  42.990   9.263
 2293POPC   PO433036  29.450  43.520   9.411
 2293POPC   GL133037  29.257  43.361   9.078
 2293POPC   GL233038  28.954  43.525   9.070
 2293POPC   C1A33039  29.239  43.102   8.698
 2293POPC   D2A33040  28.867  42.961   8.479
 2293POPC   C3A33041  28.970  43.082   8.077
 2293POPC   C4A33042  29.343  43.009   7.826
 2293POPC   C1B33043  28.830  43.421   8.714
 2293POPC   C2B33044  28.926  43.544   8.326
 2293POPC   C3B33045  28.712  43.572   7.942
 2293POPC   C4B33046  28.887  43.279   7.622
 2294POPC   NC333047  35.155  33.032   9.504
 2294POPC   PO433048  35.612  33.544   9.697
 2294POPC   GL133049  35.680  33.122   9.335
 2294POPC   GL233050  35.389  33.076   9.070
 2294POPC   C1A33051  35.812  32.946   8.867
 2294POPC   D2A33052  35.763  33.249   8.514
 2294POPC   C3A33053  35.701  33.118   8.069
 2294POPC   C4A33054  35.560  32.989   7.646
 2294POPC   C1B33055  35.159  33.279   8.726
 2294POPC   C2B33056  34.940  33.379   8.327
 2294POPC   C3B33057  35.174  33.241   7.937
 2294POPC   C4B33058  35.194  33.294   7.469
 2295POPC   NC333059   2.835  22.877   9.615
 2295POPC   PO433060   2.563  23.462   9.656
 2295POPC   GL133061   2.636  23.185   9.258
 2295POPC   GL233062   2.526  22.849   9.182
 2295POPC   C1A33063   2.942  22.967   8.931
 2295POPC   D2A33064   2.865  22.691   8.538
 2295POPC   C3A33065   2.935  22.874   8.088
 2295POPC   C4A33066   2.885  23.052   7.658
 2295POPC   C1B33067   2.470  22.975   8.741
 2295POPC   C2B33068   2.468  22.911   8.295
 2295POPC   C3B33069   2.442  22.928   7.848
 2295POPC   C4B33070   2.390  22.978   7.384
 2296POPC   NC333071  36.524  21.558   9.527
 2296POPC   PO433072  37.210  21.218   9.522
 2296POPC   GL133073  37.123  21.403   9.173
 2296POPC   GL233074  36.781  21.354   9.102
 2296POPC   C1A33075  37.208  21.438   8.760
 2296POPC   D2A33076  37.158  21.613   8.384
 2296POPC   C3A33077  36.914  21.451   8.064
 2296POPC   C4A33078  36.884  21.642   7.659
 2296POPC   C1B33079  36.707  21.337   8.641
 2296POPC   C2B33080  36.412  21.299   8.278
 2296POPC   C3B33081  36.476  21.345   7.820
 2296POPC   C4B33082  36.725  21.154   7.500
 2297POPC   NC333083  17.813  18.355   9.334
 2297POPC   PO433084  17.408  17.820   9.320
 2297POPC   GL133085  17.374  18.194   9.146
 2297POPC   GL233086  17.595  18.044   8.881
 2297POPC   C1A33087  17.344  18.465   8.819
 2297POPC   D2A33088  17.546  18.480   8.415
 2297POPC   C3A33089  17.362  18.526   8.008
 2297POPC   C4A33090  17.626  18.419   7.651
 2297POPC   C1B33091  17.240  18.043   8.549
 2297POPC   C2B33092  17.179  18.021   8.094
 2297POPC   C3B33093  17.349  17.993   7.671
 2297POPC   C4B33094  17.322  18.028   7.204
 2298POPC   NC333095  25.362   8.138   9.447
 2298POPC   PO433096  24.836   8.393   9.394
 2298POPC   GL133097  25.035   8.425   9.059
 2298POPC   GL233098  25.055   8.077   9.025
 2298POPC   C1A33099  24.973   8.450   8.620
 2298POPC   D2A33100  25.038   8.139   8.382
 2298POPC   C3A33101  25.255   8.169   8.007
 2298POPC   C4A33102  25.230   8.356   7.611
 2298POPC   C1B33103  25.396   8.203   8.764
 2298POPC   C2B33104  25.519   8.356   8.409
 2298POPC   C3B33105  25.774   8.192   8.077
 2298POPC   C4B33106  25.629   8.010   7.704
 2299POPC   NC333107  31.074   5.154  10.095
 2299POPC   PO433108  31.524   5.292   9.581
 2299POPC   GL133109  31.411   5.048   9.244
 2299POPC   GL233110  31.726   5.071   9.105
 2299POPC   C1A33111  31.316   5.177   8.818
 2299POPC   D2A33112  31.590   5.120   8.455
 2299POPC   C3A33113  31.360   5.032   8.083
 2299POPC   C4A33114  31.069   5.062   7.750
 2299POPC   C1B33115  31.933   4.801   8.785
 2299POPC   C2B33116  32.019   4.830   8.338
 2299POPC   C3B33117  31.847   4.904   7.938
 2299POPC   C4B33118  31.924   4.902   7.495
 2300POPC   NC333119  33.976   7.475   9.600
 2300POPC   PO433120  33.396   7.663   9.336
 2300POPC   GL133121  33.713   7.522   9.063
 2300POPC   GL233122  34.056   7.415   9.089
 2300POPC   C1A33123  33.828   7.562   8.643
 2300POPC   D2A33124  34.138   7.467   8.363
 2300POPC   C3A33125  33.978   7.548   7.946
 2300POPC   C4A33126  33.653   7.557   7.659
 2300POPC   C1B33127  33.889   7.078   8.767
 2300POPC   C2B33128  33.763   6.959   8.335
 2300POPC   C3B33129  33.704   7.093   7.905
 2300POPC   C4B33130  33.946   7.164   7.503
 2301POPC   NC333131  37.848  19.378   9.510
 2301POPC   PO433132  37.444  18.788   9.526
 2301POPC   GL133133  37.802  18.959   9.233
 2301POPC   GL233134  37.573  19.170   9.124
 2301POPC   C1A33135  38.017  19.129   8.817
 2301POPC   D2A33136  38.038  19.360   8.374
 2301POPC   C3A33137  37.957  19.155   7.955
 2301POPC   C4A33138  37.553  18.990   7.786
 2301POPC   C1B33139  37.379  19.190   8.732
 2301POPC   C2B33140  37.514  19.146   8.320
 2301POPC   C3B33141  37.606  19.474   8.072
 2301POPC   C4B33142  37.604  19.480   7.625
 2302POPC   NC333143  16.608   3.026   9.563
 2302POPC   PO433144  16.209   2.617   9.410
 2302POPC   GL133145  16.552   2.791   9.112
 2302POPC   GL233146  16.923   2.912   9.178
 2302POPC   C1A33147  16.538   2.966   8.703
 2302POPC   D2A33148  16.492   2.730   8.330
 2302POPC   C3A33149  16.585   2.932   7.972
 2302POPC   C4A33150  16.572   2.704   7.582
 2302POPC   C1B33151  16.970   2.722   8.798
 2302POPC   C2B33152  16.989   2.679   8.392
 2302POPC   C3B33153  16.959   2.601   7.961
 2302POPC   C4B33154  16.989   2.972   7.664
 2303POPC   NC333155  11.898   5.827   9.655
 2303POPC   PO433156  12.195   6.369   9.736
 2303POPC   GL133157  11.925   6.170   9.295
 2303POPC   GL233158  11.812   5.838   9.150
 2303POPC   C1A33159  11.966   6.102   8.772
 2303POPC   D2A33160  12.006   6.048   8.309
 2303POPC   C3A33161  12.313   6.112   7.983
 2303POPC   C4A33162  12.046   6.137   7.637
 2303POPC   C1B33163  11.730   5.654   8.708
 2303POPC   C2B33164  11.915   5.521   8.294
 2303POPC   C3B33165  11.965   5.711   7.887
 2303POPC   C4B33166  11.894   5.692   7.424
 2304POPC   NC333167   8.590   2.406   9.416
 2304POPC   PO433168   8.499   3.063   9.594
 2304POPC   GL133169   8.286   2.814   9.224
 2304POPC   GL233170   8.019   2.555   9.321
 2304POPC   C1A33171   8.129   2.781   8.762
 2304POPC   D2A33172   7.916   2.850   8.368
 2304POPC   C3A33173   8.148   2.684   8.026
 2304POPC   C4A33174   8.311   2.892   7.674
 2304POPC   C1B33175   7.827   2.409   8.936
 2304POPC   C2B33176   8.007   2.269   8.519
 2304POPC   C3B33177   7.930   2.200   8.048
 2304POPC   C4B33178   7.991   2.406   7.624
 2305POPC   NC333179  18.472  21.983   9.400
 2305POPC   PO433180  17.913  22.282   9.547
 2305POPC   GL133181  18.159  22.306   9.157
 2305POPC   GL233182  17.949  22.574   9.104
 2305POPC   C1A33183  18.396  22.136   8.749
 2305POPC   D2A33184  18.589  22.100   8.337
 2305POPC   C3A33185  18.421  22.020   7.955
 2305POPC   C4A33186  18.312  22.174   7.533
 2305POPC   C1B33187  18.183  22.616   8.756
 2305POPC   C2B33188  18.062  22.535   8.369
 2305POPC   C3B33189  18.163  22.447   7.973
 2305POPC   C4B33190  17.878  22.358   7.685
 2306POPC   NC333191  13.121  10.263   9.616
 2306POPC   PO433192  12.562  10.559   9.421
 2306POPC   GL133193  12.850  10.283   9.169
 2306POPC   GL233194  13.215  10.399   9.130
 2306POPC   C1A33195  12.683  10.189   8.771
 2306POPC   D2A33196  12.535  10.343   8.377
 2306POPC   C3A33197  12.934  10.372   8.183
 2306POPC   C4A33198  13.036  10.385   7.779
 2306POPC   C1B33199  13.120  10.562   8.699
 2306POPC   C2B33200  13.244  10.768   8.257
 2306POPC   C3B33201  12.925  10.868   7.913
 2306POPC   C4B33202  12.652  10.750   7.572
 2307POPC   NC333203  19.223  35.503   9.571
 2307POPC   PO433204  18.645  35.184   9.579
 2307POPC   GL133205  18.878  35.324   9.227
 2307POPC   GL233206  19.148  35.110   9.213
 2307POPC   C1A33207  19.067  35.540   8.863
 2307POPC   D2A33208  19.006  35.405   8.422
 2307POPC   C3A33209  19.094  35.599   8.029
 2307POPC   C4A33210  19.145  35.555   7.582
 2307POPC   C1B33211  18.985  35.017   8.775
 2307POPC   C2B33212  19.137  34.933   8.319
 2307POPC   C3B33213  19.002  35.086   7.910
 2307POPC   C4B33214  19.150  35.047   7.475
 2308POPC   NC333215  31.543  20.900   9.435
 2308POPC   PO433216  31.857  20.325   9.459
 2308POPC   GL133217  31.533  20.527   9.118
 2308POPC   GL233218  31.209  20.811   9.090
 2308POPC   C1A33219  31.585  20.781   8.738
 2308POPC   D2A33220  31.713  20.571   8.373
 2308POPC   C3A33221  31.517  20.593   7.993
 2308POPC   C4A33222  31.506  20.694   7.555
 2308POPC   C1B33223  31.134  21.086   8.773
 2308POPC   C2B33224  31.289  21.061   8.385
 2308POPC   C3B33225  31.291  21.046   7.944
 2308POPC   C4B33226  31.346  21.170   7.486
 2309POPC   NC333227  24.300  27.593   9.615
 2309POPC   PO433228  24.964  27.540   9.643
 2309POPC   GL133229  24.690  27.560   9.274
 2309POPC   GL233230  24.346  27.574   9.122
 2309POPC   C1A33231  24.787  27.520   8.848
 2309POPC   D2A33232  24.627  27.448   8.432
 2309POPC   C3A33233  24.772  27.709   8.124
 2309POPC   C4A33234  24.791  27.749   7.658
 2309POPC   C1B33235  24.185  27.789   8.784
 2309POPC   C2B33236  24.124  27.880   8.351
 2309POPC   C3B33237  24.318  27.882   7.948
 2309POPC   C4B33238  24.365  28.100   7.608
 2310POPC   NC333239  36.574  34.903   9.323
 2310POPC   PO433240  36.011  34.376   9.356
 2310POPC   GL133241  36.127  34.688   9.099
 2310POPC   GL233242  36.420  34.524   9.032
 2310POPC   C1A33243  35.974  34.768   8.691
 2310POPC   D2A33244  35.733  34.420   8.468
 2310POPC   C3A33245  35.749  34.494   8.041
 2310POPC   C4A33246  36.090  34.704   7.807
 2310POPC   C1B33247  36.193  34.320   8.721
 2310POPC   C2B33248  36.228  34.372   8.286
 2310POPC   C3B33249  36.133  34.202   7.909
 2310POPC   C4B33250  36.171  34.155   7.497
 2311POPC   NC333251  44.309   6.030   9.452
 2311POPC   PO433252  43.600   5.988   9.601
 2311POPC   GL133253  43.821   5.835   9.282
 2311POPC   GL233254  43.882   6.178   9.195
 2311POPC   C1A33255  43.855   5.809   8.836
 2311POPC   D2A33256  43.845   5.984   8.427
 2311POPC   C3A33257  43.894   5.704   8.111
 2311POPC   C4A33258  43.674   5.599   7.748
 2311POPC   C1B33259  44.111   6.243   8.824
 2311POPC   C2B33260  44.315   6.172   8.415
 2311POPC   C3B33261  44.080   6.204   8.007
 2311POPC   C4B33262  43.709   6.110   7.805
 2312POPC   NC333263   3.275  11.813   9.515
 2312POPC   PO433264   3.369  12.458   9.457
 2312POPC   GL133265   3.433  12.168   9.124
 2312POPC   GL233266   3.675  11.889   9.153
 2312POPC   C1A33267   3.642  12.179   8.717
 2312POPC   D2A33268   3.563  12.025   8.312
 2312POPC   C3A33269   3.560  12.286   7.960
 2312POPC   C4A33270   3.338  12.260   7.627
 2312POPC   C1B33271   3.922  11.752   8.787
 2312POPC   C2B33272   4.061  11.886   8.374
 2312POPC   C3B33273   3.895  11.878   7.946
 2312POPC   C4B33274   3.535  11.744   7.727
 2313POPC   NC333275  10.926  37.434   9.469
 2313POPC   PO433276  11.604  37.643   9.565
 2313POPC   GL133277  11.343  37.710   9.232
 2313POPC   GL233278  11.596  37.946   9.130
 2313POPC   C1A33279  11.164  37.563   8.859
 2313POPC   D2A33280  11.371  37.661   8.492
 2313POPC   C3A33281  11.348  37.320   8.226
 2313POPC   C4A33282  11.236  37.564   7.891
 2313POPC   C1B33283  11.266  38.047   8.834
 2313POPC   C2B33284  11.004  38.032   8.443
 2313POPC   C3B33285  11.109  38.050   8.001
 2313POPC   C4B33286  11.519  38.002   7.816
 2314POPC   NC333287  21.413  26.551   9.626
 2314POPC   PO433288  21.386  25.939   9.474
 2314POPC   GL133289  21.382  26.036   9.112
 2314POPC   GL233290  21.610  26.308   9.188
 2314POPC   C1A33291  21.287  25.861   8.712
 2314POPC   D2A33292  21.419  25.714   8.296
 2314POPC   C3A33293  21.224  25.914   7.926
 2314POPC   C4A33294  21.276  26.262   7.666
 2314POPC   C1B33295  21.428  26.397   8.774
 2314POPC   C2B33296  21.464  26.272   8.367
 2314POPC   C3B33297  21.593  26.519   8.050
 2314POPC   C4B33298  21.713  26.483   7.675
 2315POPC   NC333299   5.444  23.009   9.533
 2315POPC   PO433300   4.874  22.683   9.401
 2315POPC   GL133301   5.159  22.861   9.141
 2315POPC   GL233302   5.391  22.600   9.199
 2315POPC   C1A33303   5.259  23.113   8.774
 2315POPC   D2A33304   5.461  23.179   8.334
 2315POPC   C3A33305   5.248  23.152   7.947
 2315POPC   C4A33306   4.844  23.225   7.793
 2315POPC   C1B33307   5.222  22.554   8.758
 2315POPC   C2B33308   5.150  22.792   8.400
 2315POPC   C3B33309   5.245  22.642   8.036
 2315POPC   C4B33310   5.114  22.475   7.707
 2316POPC   NC333311  23.706  36.873   9.499
 2316POPC   PO433312  24.065  37.439   9.653
 2316POPC   GL133313  23.943  37.157   9.168
 2316POPC   GL233314  23.870  36.787   9.042
 2316POPC   C1A33315  23.671  37.117   8.738
 2316POPC   D2A33316  23.480  37.412   8.471
 2316POPC   C3A33317  23.619  37.272   8.076
 2316POPC   C4A33318  23.694  36.924   7.797
 2316POPC   C1B33319  23.874  36.620   8.636
 2316POPC   C2B33320  23.770  36.587   8.213
 2316POPC   C3B33321  23.842  36.421   7.822
 2316POPC   C4B33322  23.582  36.495   7.470
 2317POPC   NC333323   9.658  44.572   9.785
 2317POPC   PO433324   9.864  44.011   9.443
 2317POPC   GL133325   9.850  43.821   9.031
 2317POPC   GL233326  10.174  43.848   9.030
 2317POPC   C1A33327   9.614  43.904   8.631
 2317POPC   D2A33328   9.320  43.883   8.268
 2317POPC   C3A33329   9.495  44.091   7.931
 2317POPC   C4A33330   9.602  44.091   7.476
 2317POPC   C1B33331  10.086  44.123   8.672
 2317POPC   C2B33332   9.938  44.074   8.246
 2317POPC   C3B33333   9.982  44.177   7.817
 2317POPC   C4B33334  10.210  44.174   7.437
 2318POPC   NC333335  37.315  18.171   9.751
 2318POPC   PO433336  36.627  18.230   9.671
 2318POPC   GL133337  36.800  18.098   9.210
 2318POPC   GL233338  37.156  18.035   9.031
 2318POPC   C1A33339  36.834  18.321   8.781
 2318POPC   D2A33340  36.885  18.311   8.348
 2318POPC   C3A33341  36.542  18.350   8.077
 2318POPC   C4A33342  36.764  18.321   7.705
 2318POPC   C1B33343  37.126  17.929   8.614
 2318POPC   C2B33344  37.118  17.875   8.200
 2318POPC   C3B33345  37.197  18.077   7.833
 2318POPC   C4B33346  37.110  18.070   7.393
 2319POPC   NC333347  13.863  40.862   9.432
 2319POPC   PO433348  13.319  41.267   9.376
 2319POPC   GL133349  13.518  40.996   9.083
 2319POPC   GL233350  13.479  40.617   9.153
 2319POPC   C1A33351  13.673  40.958   8.695
 2319POPC   D2A33352  13.422  40.926   8.350
 2319POPC   C3A33353  13.681  40.963   8.034
 2319POPC   C4A33354  13.803  40.665   7.759
 2319POPC   C1B33355  13.628  40.452   8.728
 2319POPC   C2B33356  13.705  40.472   8.257
 2319POPC   C3B33357  13.942  40.202   7.944
 2319POPC   C4B33358  14.034  40.303   7.468
 2320POPC   NC333359  32.721   7.938   9.397
 2320POPC   PO433360  33.134   8.418   9.648
 2320POPC   GL133361  33.114   8.168   9.173
 2320POPC   GL233362  32.889   8.259   8.887
 2320POPC   C1A33363  33.086   7.825   8.807
 2320POPC   D2A33364  33.357   7.840   8.476
 2320POPC   C3A33365  33.143   7.888   8.116
 2320POPC   C4A33366  33.246   8.086   7.748
 2320POPC   C1B33367  33.323   8.292   8.709
 2320POPC   C2B33368  33.306   8.328   8.282
 2320POPC   C3B33369  32.900   8.350   8.053
 2320POPC   C4B33370  32.670   8.124   7.727
 2321POPC   NC333371  35.837  17.990   9.480
 2321POPC   PO433372  36.124  17.376   9.538
 2321POPC   GL133373  36.004  17.387   9.119
 2321POPC   GL233374  35.892  17.724   9.041
 2321POPC   C1A33375  36.177  17.231   8.743
 2321POPC   D2A33376  36.509  17.398   8.513
 2321POPC   C3A33377  36.478  17.416   8.084
 2321POPC   C4A33378  36.185  17.440   7.788
 2321POPC   C1B33379  36.139  17.735   8.660
 2321POPC   C2B33380  35.999  17.528   8.295
 2321POPC   C3B33381  35.725  17.586   7.938
 2321POPC   C4B33382  35.839  17.851   7.615
 2322POPC   NC333383   6.056  41.345   9.477
 2322POPC   PO433384   6.461  41.803   9.412
 2322POPC   GL133385   6.280  41.531   9.053
 2322POPC   GL233386   5.879  41.402   9.004
 2322POPC   C1A33387   6.134  41.616   8.623
 2322POPC   D2A33388   5.765  41.447   8.402
 2322POPC   C3A33389   5.749  41.662   8.021
 2322POPC   C4A33390   6.095  41.601   7.785
 2322POPC   C1B33391   5.615  41.077   8.746
 2322POPC   C2B33392   5.346  41.015   8.363
 2322POPC   C3B33393   5.396  41.126   7.907
 2322POPC   C4B33394   5.805  41.194   7.759
 2323POPC   NC333395  24.453  36.481   9.365
 2323POPC   PO433396  24.774  35.884   9.435
 2323POPC   GL133397  24.464  36.038   9.094
 2323POPC   GL233398  24.084  36.074   9.170
 2323POPC   C1A33399  24.266  36.309   8.746
 2323POPC   D2A33400  24.225  36.380   8.294
 2323POPC   C3A33401  24.554  36.172   8.083
 2323POPC   C4A33402  24.766  36.258   7.739
 2323POPC   C1B33403  24.074  35.806   8.798
 2323POPC   C2B33404  24.262  35.856   8.392
 2323POPC   C3B33405  24.074  35.973   8.002
 2323POPC   C4B33406  24.257  36.174   7.643
 2324POPC   NC333407  27.471   0.953   9.520
 2324POPC   PO433408  28.023   1.307   9.572
 2324POPC   GL133409  27.932   1.389   9.130
 2324POPC   GL233410  27.602   1.226   9.073
 2324POPC   C1A33411  27.952   1.350   8.653
 2324POPC   D2A33412  27.983   1.046   8.298
 2324POPC   C3A33413  27.755   1.155   7.910
 2324POPC   C4A33414  27.614   1.570   7.724
 2324POPC   C1B33415  27.515   1.097   8.635
 2324POPC   C2B33416  27.380   1.300   8.252
 2324POPC   C3B33417  27.242   1.215   7.845
 2324POPC   C4B33418  27.421   0.915   7.559
 2325POPC   NC333419  15.947  30.209   9.632
 2325POPC   PO433420  16.276  29.684   9.328
 2325POPC   GL133421  15.985  29.737   9.060
 2325POPC   GL233422  15.659  29.625   9.042
 2325POPC   C1A33423  16.102  29.721   8.663
 2325POPC   D2A33424  16.370  29.600   8.355
 2325POPC   C3A33425  16.254  29.870   8.041
 2325POPC   C4A33426  16.141  29.846   7.627
 2325POPC   C1B33427  15.664  29.960   8.728
 2325POPC   C2B33428  15.896  30.086   8.368
 2325POPC   C3B33429  15.891  30.273   7.986
 2325POPC   C4B33430  15.667  30.136   7.622
 2326POPC   NC333431  28.668  42.042   9.426
 2326POPC   PO433432  28.298  42.600   9.537
 2326POPC   GL133433  28.613  42.532   9.190
 2326POPC   GL233434  28.680  42.196   8.952
 2326POPC   C1A33435  28.551  42.650   8.762
 2326POPC   D2A33436  28.539  42.334   8.451
 2326POPC   C3A33437  28.431  42.430   8.039
 2326POPC   C4A33438  28.183  42.255   7.723
 2326POPC   C1B33439  28.973  42.070   8.596
 2326POPC   C2B33440  28.835  42.059   8.144
 2326POPC   C3B33441  28.660  42.081   7.746
 2326POPC   C4B33442  28.449  42.040   7.338
 2327POPC   NC333443  17.681  35.871   9.593
 2327POPC   PO433444  17.282  36.503   9.445
 2327POPC   GL133445  17.283  36.304   9.098
 2327POPC   GL233446  17.281  35.933   9.223
 2327POPC   C1A33447  17.532  36.324   8.720
 2327POPC   D2A33448  17.576  35.973   8.425
 2327POPC   C3A33449  17.707  36.060   8.009
 2327POPC   C4A33450  17.945  36.076   7.667
 2327POPC   C1B33451  17.186  35.935   8.774
 2327POPC   C2B33452  17.131  36.230   8.430
 2327POPC   C3B33453  17.194  36.074   8.058
 2327POPC   C4B33454  17.324  35.815   7.698
 2328POPC   NC333455  24.754  25.556   9.454
 2328POPC   PO433456  24.774  26.266   9.483
 2328POPC   GL133457  24.593  26.155   9.129
 2328POPC   GL233458  24.697  25.830   9.037
 2328POPC   C1A33459  24.379  26.152   8.793
 2328POPC   D2A33460  24.533  25.899   8.499
 2328POPC   C3A33461  24.422  25.854   8.109
 2328POPC   C4A33462  24.451  26.090   7.748
 2328POPC   C1B33463  24.944  25.694   8.701
 2328POPC   C2B33464  24.913  25.673   8.243
 2328POPC   C3B33465  24.856  25.773   7.796
 2328POPC   C4B33466  24.740  25.910   7.376
 2329POPC   NC333467  14.168   3.097   9.407
 2329POPC   PO433468  13.692   2.619   9.590
 2329POPC   GL133469  13.615   2.600   9.158
 2329POPC   GL233470  13.776   2.916   9.136
 2329POPC   C1A33471  13.460   2.519   8.720
 2329POPC   D2A33472  13.449   2.431   8.261
 2329POPC   C3A33473  13.516   2.781   7.992
 2329POPC   C4A33474  13.242   3.095   7.846
 2329POPC   C1B33475  13.683   2.978   8.740
 2329POPC   C2B33476  13.817   2.720   8.427
 2329POPC   C3B33477  13.968   2.510   8.066
 2329POPC   C4B33478  14.066   2.769   7.720
 2330POPC   NC333479  20.024   4.851   9.564
 2330POPC   PO433480  19.609   5.405   9.478
 2330POPC   GL133481  19.834   5.188   9.215
 2330POPC   GL233482  19.697   4.888   9.036
 2330POPC   C1A33483  20.001   5.271   8.843
 2330POPC   D2A33484  19.859   5.006   8.510
 2330POPC   C3A33485  19.795   5.123   8.088
 2330POPC   C4A33486  19.582   5.278   7.723
 2330POPC   C1B33487  19.412   4.812   8.638
 2330POPC   C2B33488  19.596   4.631   8.216
 2330POPC   C3B33489  19.702   4.742   7.755
 2330POPC   C4B33490  20.032   4.669   7.399
 2331POPC   NC333491  37.188  12.374   9.537
 2331POPC   PO433492  36.573  12.147   9.506
 2331POPC   GL133493  36.876  12.171   9.192
 2331POPC   GL233494  36.951  11.864   9.079
 2331POPC   C1A33495  36.919  12.252   8.763
 2331POPC   D2A33496  36.825  11.908   8.514
 2331POPC   C3A33497  36.787  11.990   8.110
 2331POPC   C4A33498  36.813  12.288   7.826
 2331POPC   C1B33499  37.271  11.878   8.776
 2331POPC   C2B33500  37.496  11.734   8.442
 2331POPC   C3B33501  37.379  11.752   8.029
 2331POPC   C4B33502  37.126  11.899   7.723
 2332POPC   NC333503  18.139  28.915   9.499
 2332POPC   PO433504  18.237  29.572   9.428
 2332POPC   GL133505  18.182  29.292   9.151
 2332POPC   GL233506  18.087  29.515   8.948
 2332POPC   C1A33507  18.136  28.992   8.826
 2332POPC   D2A33508  17.972  28.967   8.385
 2332POPC   C3A33509  18.247  28.868   8.026
 2332POPC   C4A33510  18.208  28.936   7.574
 2332POPC   C1B33511  18.230  29.420   8.596
 2332POPC   C2B33512  18.303  29.340   8.180
 2332POPC   C3B33513  18.274  29.567   7.836
 2332POPC   C4B33514  18.354  29.487   7.409
 2333POPC   NC333515  14.161  38.137   9.482
 2333POPC   PO433516  13.600  38.507   9.513
 2333POPC   GL133517  13.644  38.405   9.102
 2333POPC   GL233518  13.987  38.432   9.103
 2333POPC   C1A33519  13.512  38.476   8.662
 2333POPC   D2A33520  13.574  38.596   8.230
 2333POPC   C3A33521  13.549  38.248   7.936
 2333POPC   C4A33522  13.177  38.077   7.766
 2333POPC   C1B33523  13.974  38.154   8.771
 2333POPC   C2B33524  13.788  38.104   8.394
 2333POPC   C3B33525  13.972  37.924   8.064
 2333POPC   C4B33526  14.017  38.077   7.663
 2334POPC   NC333527  20.598  34.332   9.519
 2334POPC   PO433528  20.563  35.057   9.518
 2334POPC   GL133529  20.456  34.745   9.216
 2334POPC   GL233530  20.759  34.775   9.079
 2334POPC   C1A33531  20.273  34.660   8.812
 2334POPC   D2A33532  20.224  34.800   8.378
 2334POPC   C3A33533  20.540  34.724   8.073
 2334POPC   C4A33534  20.469  34.672   7.676
 2334POPC   C1B33535  20.720  34.433   8.769
 2334POPC   C2B33536  20.565  34.333   8.388
 2334POPC   C3B33537  20.471  34.193   7.993
 2334POPC   C4B33538  20.788  34.250   7.675
 2335POPC   NC333539  32.311  30.526   9.562
 2335POPC   PO433540  31.967  31.112   9.425
 2335POPC   GL133541  32.177  30.792   9.157
 2335POPC   GL233542  32.503  30.900   9.266
 2335POPC   C1A33543  32.319  30.608   8.747
 2335POPC   D2A33544  32.526  30.544   8.330
 2335POPC   C3A33545  32.374  30.637   7.880
 2335POPC   C4A33546  32.111  30.559   7.489
 2335POPC   C1B33547  32.466  31.081   8.869
 2335POPC   C2B33548  32.368  31.044   8.460
 2335POPC   C3B33549  32.362  31.121   8.050
 2335POPC   C4B33550  32.724  31.143   7.814
 2336POPC   NC333551  30.086   3.088   9.121
 2336POPC   PO433552  29.973   2.607   9.576
 2336POPC   GL133553  29.804   2.597   9.154
 2336POPC   GL233554  29.580   2.861   9.090
 2336POPC   C1A33555  30.005   2.521   8.736
 2336POPC   D2A33556  30.130   2.683   8.320
 2336POPC   C3A33557  29.980   2.381   8.037
 2336POPC   C4A33558  29.682   2.462   7.742
 2336POPC   C1B33559  29.530   2.667   8.680
 2336POPC   C2B33560  29.613   2.672   8.244
 2336POPC   C3B33561  29.639   2.941   7.867
 2336POPC   C4B33562  29.731   2.878   7.404
 2337POPC   NC333563  44.032  24.316   9.624
 2337POPC   PO433564  43.443  24.525   9.627
 2337POPC   GL133565  43.735  24.513   9.246
 2337POPC   GL233566  43.747  24.164   9.210
 2337POPC   C1A33567  43.919  24.605   8.821
 2337POPC   D2A33568  43.805  24.716   8.386
 2337POPC   C3A33569  43.988  24.481   8.028
 2337POPC   C4A33570  43.958  24.576   7.589
 2337POPC   C1B33571  43.576  24.220   8.811
 2337POPC   C2B33572  43.761  24.212   8.409
 2337POPC   C3B33573  43.628  24.105   8.031
 2337POPC   C4B33574  43.878  24.065   7.680
 2338POPC   NC333575  43.667  39.308   9.580
 2338POPC   PO433576  44.202  39.001   9.377
 2338POPC   GL133577  43.908  39.185   9.082
 2338POPC   GL233578  43.809  39.511   9.121
 2338POPC   C1A33579  43.842  39.189   8.621
 2338POPC   D2A33580  43.719  39.074   8.164
 2338POPC   C3A33581  44.077  39.144   7.921
 2338POPC   C4A33582  44.197  38.861   7.628
 2338POPC   C1B33583  43.718  39.688   8.698
 2338POPC   C2B33584  43.705  39.567   8.263
 2338POPC   C3B33585  43.701  39.491   7.792
 2338POPC   C4B33586  43.695  39.670   7.332
 2339POPC   NC333587  15.900  44.293   9.609
 2339POPC   PO433588  16.162  43.647   9.469
 2339POPC   GL133589  16.099  43.978   9.187
 2339POPC   GL233590  15.757  43.981   9.197
 2339POPC   C1A33591  16.122  43.903   8.755
 2339POPC   D2A33592  15.955  43.769   8.361
 2339POPC   C3A33593  16.149  43.972   8.015
 2339POPC   C4A33594  16.272  43.991   7.600
 2339POPC   C1B33595  15.609  43.866   8.784
 2339POPC   C2B33596  15.510  44.050   8.371
 2339POPC   C3B33597  15.615  43.876   7.980
 2339POPC   C4B33598  15.765  43.934   7.575
 2340POPC   NC333599  37.852  31.857   9.334
 2340POPC   PO433600  37.339  31.329   9.422
 2340POPC   GL133601  37.649  31.403   9.135
 2340POPC   GL233602  37.470  31.693   9.001
 2340POPC   C1A33603  37.824  31.451   8.710
 2340POPC   D2A33604  37.599  31.491   8.308
 2340POPC   C3A33605  37.846  31.256   8.054
 2340POPC   C4A33606  38.065  31.236   7.690
 2340POPC   C1B33607  37.334  31.320   8.730
 2340POPC   C2B33608  37.184  31.155   8.356
 2340POPC   C3B33609  37.324  31.199   7.934
 2340POPC   C4B33610  37.595  31.462   7.675
 2341POPC   NC333611  19.375  11.109   9.482
 2341POPC   PO433612  19.961  11.339   9.810
 2341POPC   GL133613  19.850  11.263   9.327
 2341POPC   GL233614  19.574  11.468   9.175
 2341POPC   C1A33615  19.801  11.109   8.867
 2341POPC   D2A33616  19.694  11.240   8.424
 2341POPC   C3A33617  19.870  11.178   8.003
 2341POPC   C4A33618  20.050  11.223   7.609
 2341POPC   C1B33619  19.706  11.615   8.758
 2341POPC   C2B33620  19.894  11.728   8.361
 2341POPC   C3B33621  19.748  11.689   7.967
 2341POPC   C4B33622  19.644  11.572   7.582
 2342POPC   NC333623   3.775   7.041   9.619
 2342POPC   PO433624   3.512   6.428   9.519
 2342POPC   GL133625   3.565   6.691   9.177
 2342POPC   GL233626   3.637   7.042   9.145
 2342POPC   C1A33627   3.570   6.662   8.747
 2342POPC   D2A33628   3.389   6.594   8.340
 2342POPC   C3A33629   3.626   6.546   8.042
 2342POPC   C4A33630   3.411   6.630   7.680
 2342POPC   C1B33631   3.495   7.258   8.811
 2342POPC   C2B33632   3.391   7.060   8.480
 2342POPC   C3B33633   3.496   7.039   8.066
 2342POPC   C4B33634   3.534   7.131   7.642
 2343POPC   NC333635  23.527  13.431   9.376
 2343POPC   PO433636  23.482  12.719   9.598
 2343POPC   GL133637  23.524  12.946   9.226
 2343POPC   GL233638  23.776  12.788   9.048
 2343POPC   C1A33639  23.355  12.957   8.797
 2343POPC   D2A33640  23.448  12.619   8.512
 2343POPC   C3A33641  23.484  12.786   8.099
 2343POPC   C4A33642  23.816  13.019   7.874
 2343POPC   C1B33643  24.108  12.564   8.829
 2343POPC   C2B33644  24.224  12.599   8.410
 2343POPC   C3B33645  24.025  12.579   8.044
 2343POPC   C4B33646  24.165  12.531   7.646
 2344POPC   NC333647  21.817  27.039   9.802
 2344POPC   PO433648  21.292  26.964   9.479
 2344POPC   GL133649  21.332  26.741   9.147
 2344POPC   GL233650  21.099  26.459   9.207
 2344POPC   C1A33651  21.463  26.927   8.756
 2344POPC   D2A33652  21.315  27.205   8.406
 2344POPC   C3A33653  21.124  27.055   8.026
 2344POPC   C4A33654  21.385  26.875   7.712
 2344POPC   C1B33655  20.973  26.693   8.813
 2344POPC   C2B33656  21.155  26.695   8.422
 2344POPC   C3B33657  21.088  26.533   8.059
 2344POPC   C4B33658  20.915  26.625   7.688
 2345POPC   NC333659  37.410  32.857   9.464
 2345POPC   PO433660  38.054  32.999   9.568
 2345POPC   GL133661  37.976  33.185   9.204
 2345POPC   GL233662  37.619  33.171   9.111
 2345POPC   C1A33663  37.969  33.001   8.788
 2345POPC   D2A33664  37.791  32.761   8.450
 2345POPC   C3A33665  37.960  32.779   8.027
 2345POPC   C4A33666  37.879  32.942   7.631
 2345POPC   C1B33667  37.519  33.262   8.655
 2345POPC   C2B33668  37.306  33.313   8.230
 2345POPC   C3B33669  37.404  33.089   7.827
 2345POPC   C4B33670  37.367  33.252   7.389
 2346POPC   NC333671  21.437  18.780   9.322
 2346POPC   PO433672  21.771  19.366   9.467
 2346POPC   GL133673  21.428  19.257   9.118
 2346POPC   GL233674  21.153  18.976   8.970
 2346POPC   C1A33675  21.361  19.327   8.672
 2346POPC   D2A33676  21.643  19.498   8.360
 2346POPC   C3A33677  21.504  19.329   7.968
 2346POPC   C4A33678  21.529  18.924   7.755
 2346POPC   C1B33679  21.500  18.824   8.675
 2346POPC   C2B33680  21.427  18.708   8.243
 2346POPC   C3B33681  21.097  18.850   7.990
 2346POPC   C4B33682  21.047  18.833   7.559
 2347POPC   NC333683  13.340  43.619   9.545
 2347POPC   PO433684  14.043  43.653   9.480
 2347POPC   GL133685  13.758  43.940   9.203
 2347POPC   GL233686  13.402  43.840   9.084
 2347POPC   C1A33687  13.765  44.156   8.797
 2347POPC   D2A33688  13.805  43.964   8.385
 2347POPC   C3A33689  13.719  44.168   7.998
 2347POPC   C4A33690  13.658  43.947   7.601
 2347POPC   C1B33691  13.337  43.919   8.651
 2347POPC   C2B33692  13.320  43.916   8.214
 2347POPC   C3B33693  13.209  43.981   7.800
 2347POPC   C4B33694  13.158  44.017   7.351
 2348POPC   NC333695   7.816  11.027   9.741
 2348POPC   PO433696   7.284  11.240   9.421
 2348POPC   GL133697   7.507  11.249   9.101
 2348POPC   GL233698   7.302  11.518   8.965
 2348POPC   C1A33699   7.455  11.066   8.717
 2348POPC   D2A33700   7.436  11.294   8.353
 2348POPC   C3A33701   7.316  11.288   7.949
 2348POPC   C4A33702   7.064  11.621   7.843
 2348POPC   C1B33703   7.678  11.544   8.726
 2348POPC   C2B33704   7.797  11.650   8.323
 2348POPC   C3B33705   7.665  11.690   7.906
 2348POPC   C4B33706   7.921  11.747   7.509
 2349POPC   NC333707   8.627  20.040   9.456
 2349POPC   PO433708   9.240  19.844   9.606
 2349POPC   GL133709   9.092  20.011   9.231
 2349POPC   GL233710   8.915  19.722   9.145
 2349POPC   C1A33711   9.212  20.028   8.809
 2349POPC   D2A33712   9.314  20.258   8.443
 2349POPC   C3A33713   9.327  20.052   8.055
 2349POPC   C4A33714   9.079  20.045   7.705
 2349POPC   C1B33715   8.709  19.958   8.788
 2349POPC   C2B33716   8.844  20.019   8.335
 2349POPC   C3B33717   8.951  19.680   8.036
 2349POPC   C4B33718   8.875  19.350   7.713
 2350POPC   NC333719   9.485   4.123   9.356
 2350POPC   PO433720   9.030   4.606   9.516
 2350POPC   GL133721   8.861   4.478   9.142
 2350POPC   GL233722   8.953   4.124   9.173
 2350POPC   C1A33723   8.873   4.441   8.706
 2350POPC   D2A33724   9.029   4.571   8.326
 2350POPC   C3A33725   8.725   4.419   8.039
 2350POPC   C4A33726   8.690   4.085   7.765
 2350POPC   C1B33727   9.138   4.004   8.763
 2350POPC   C2B33728   9.028   4.060   8.306
 2350POPC   C3B33729   9.191   4.003   7.857
 2350POPC   C4B33730   9.036   3.972   7.375
 2351POPC   NC333731  15.119  26.010   9.571
 2351POPC   PO433732  15.729  25.665   9.402
 2351POPC   GL133733  15.339  25.719   9.124
 2351POPC   GL233734  15.200  26.092   9.057
 2351POPC   C1A33735  15.119  25.703   8.725
 2351POPC   D2A33736  15.085  26.096   8.526
 2351POPC   C3A33737  15.141  26.109   8.093
 2351POPC   C4A33738  15.140  26.193   7.654
 2351POPC   C1B33739  15.460  26.364   8.743
 2351POPC   C2B33740  15.596  26.228   8.313
 2351POPC   C3B33741  15.557  26.417   7.909
 2351POPC   C4B33742  15.579  26.394   7.455
 2352POPC   NC333743  18.973  15.590   9.609
 2352POPC   PO433744  18.640  16.139   9.412
 2352POPC   GL133745  18.799  16.021   9.021
 2352POPC   GL233746  18.984  15.689   9.060
 2352POPC   C1A33747  19.011  16.266   8.686
 2352POPC   D2A33748  19.235  16.182   8.308
 2352POPC   C3A33749  19.051  16.125   7.903
 2352POPC   C4A33750  19.156  15.974   7.500
 2352POPC   C1B33751  19.124  15.758   8.624
 2352POPC   C2B33752  19.037  15.681   8.169
 2352POPC   C3B33753  18.800  15.687   7.778
 2352POPC   C4B33754  18.739  15.679   7.335
 2353POPC   NC333755  34.442  24.004   9.295
 2353POPC   PO433756  34.373  23.389   9.521
 2353POPC   GL133757  34.475  23.537   9.135
 2353POPC   GL233758  34.732  23.757   8.972
 2353POPC   C1A33759  34.299  23.641   8.754
 2353POPC   D2A33760  34.553  23.586   8.399
 2353POPC   C3A33761  34.302  23.647   8.053
 2353POPC   C4A33762  34.238  23.777   7.655
 2353POPC   C1B33763  34.978  23.470   8.724
 2353POPC   C2B33764  34.948  23.207   8.369
 2353POPC   C3B33765  34.969  23.431   8.002
 2353POPC   C4B33766  34.733  23.750   7.773
 2354POPC   NC333767  25.984  36.198   9.623
 2354POPC   PO433768  26.624  36.092   9.483
 2354POPC   GL133769  26.285  36.117   9.176
 2354POPC   GL233770  25.915  36.112   9.153
 2354POPC   C1A33771  26.256  35.938   8.771
 2354POPC   D2A33772  26.426  36.050   8.360
 2354POPC   C3A33773  26.205  36.263   8.040
 2354POPC   C4A33774  26.287  35.974   7.723
 2354POPC   C1B33775  25.761  36.030   8.804
 2354POPC   C2B33776  25.909  36.034   8.412
 2354POPC   C3B33777  25.801  35.899   8.054
 2354POPC   C4B33778  25.777  36.038   7.694
 2355POPC   NC333779   4.179  35.116   9.281
 2355POPC   PO433780   4.126  35.765   9.440
 2355POPC   GL133781   4.280  35.642   9.013
 2355POPC   GL233782   4.679  35.602   9.020
 2355POPC   C1A33783   4.099  35.579   8.563
 2355POPC   D2A33784   3.953  35.693   8.128
 2355POPC   C3A33785   4.282  35.647   7.824
 2355POPC   C4A33786   4.442  35.216   7.732
 2355POPC   C1B33787   4.501  35.295   8.697
 2355POPC   C2B33788   4.443  35.311   8.245
 2355POPC   C3B33789   4.842  35.218   8.052
 2355POPC   C4B33790   4.939  35.190   7.614
 2356POPC   NC333791  39.332  17.034   9.737
 2356POPC   PO433792  39.204  16.484   9.594
 2356POPC   GL133793  39.309  16.677   9.227
 2356POPC   GL233794  39.140  16.993   9.244
 2356POPC   C1A33795  39.264  16.544   8.806
 2356POPC   D2A33796  39.035  16.442   8.415
 2356POPC   C3A33797  39.283  16.495   8.032
 2356POPC   C4A33798  38.992  16.561   7.736
 2356POPC   C1B33799  39.353  17.038   8.836
 2356POPC   C2B33800  39.415  16.836   8.416
 2356POPC   C3B33801  39.312  17.006   8.022
 2356POPC   C4B33802  39.384  17.088   7.608
 2357POPC   NC333803   5.537  19.072   9.475
 2357POPC   PO433804   4.996  18.724   9.684
 2357POPC   GL133805   5.038  19.082   9.358
 2357POPC   GL233806   5.169  19.443   9.376
 2357POPC   C1A33807   4.966  19.105   8.934
 2357POPC   D2A33808   4.912  18.854   8.558
 2357POPC   C3A33809   4.833  19.044   8.145
 2357POPC   C4A33810   4.897  18.932   7.681
 2357POPC   C1B33811   5.307  19.494   8.929
 2357POPC   C2B33812   5.227  19.281   8.528
 2357POPC   C3B33813   5.283  19.284   8.096
 2357POPC   C4B33814   5.380  19.134   7.704
 2358POPC   NC333815  15.099  29.563   9.521
 2358POPC   PO433816  15.713  29.824   9.516
 2358POPC   GL133817  15.312  29.954   9.199
 2358POPC   GL233818  15.027  29.753   9.071
 2358POPC   C1A33819  15.174  30.102   8.743
 2358POPC   D2A33820  15.352  29.965   8.324
 2358POPC   C3A33821  15.290  30.182   7.960
 2358POPC   C4A33822  15.091  30.074   7.586
 2358POPC   C1B33823  15.279  29.612   8.704
 2358POPC   C2B33824  15.190  29.487   8.277
 2358POPC   C3B33825  15.240  29.649   7.829
 2358POPC   C4B33826  15.219  29.655   7.335
 2359POPC   NC333827  15.780  38.278   9.694
 2359POPC   PO433828  16.442  38.012   9.426
 2359POPC   GL133829  16.116  38.225   9.112
 2359POPC   GL233830  15.803  38.475   9.172
 2359POPC   C1A33831  16.087  38.515   8.742
 2359POPC   D2A33832  16.167  38.784   8.369
 2359POPC   C3A33833  16.034  38.664   7.943
 2359POPC   C4A33834  16.280  38.378   7.680
 2359POPC   C1B33835  15.586  38.639   8.772
 2359POPC   C2B33836  15.636  38.466   8.334
 2359POPC   C3B33837  15.531  38.360   7.880
 2359POPC   C4B33838  15.608  38.265   7.429
 2360POPC   NC333839  16.033  14.659   9.357
 2360POPC   PO433840  15.935  13.987   9.525
 2360POPC   GL133841  16.017  14.185   9.142
 2360POPC   GL233842  16.355  14.322   9.114
 2360POPC   C1A33843  15.936  14.356   8.725
 2360POPC   D2A33844  15.765  14.538   8.348
 2360POPC   C3A33845  15.898  14.409   7.951
 2360POPC   C4A33846  15.733  14.244   7.542
 2360POPC   C1B33847  16.395  14.639   8.771
 2360POPC   C2B33848  16.241  14.736   8.334
 2360POPC   C3B33849  16.337  14.749   7.886
 2360POPC   C4B33850  16.331  14.334   7.673
 2361POPC   NC333851  10.578   7.058   9.603
 2361POPC   PO433852  10.656   6.469   9.354
 2361POPC   GL133853  10.406   6.687   9.066
 2361POPC   GL233854  10.536   7.027   9.079
 2361POPC   C1A33855  10.588   6.663   8.653
 2361POPC   D2A33856  10.564   6.665   8.212
 2361POPC   C3A33857  10.483   6.352   7.891
 2361POPC   C4A33858  10.699   6.411   7.502
 2361POPC   C1B33859  10.277   7.083   8.717
 2361POPC   C2B33860  10.159   6.990   8.343
 2361POPC   C3B33861  10.346   7.072   8.000
 2361POPC   C4B33862  10.442   6.827   7.715
 2362POPC   NC333863   2.942   9.248   9.526
 2362POPC   PO433864   2.547   8.691   9.360
 2362POPC   GL133865   2.745   9.026   9.090
 2362POPC   GL233866   3.081   9.180   9.050
 2362POPC   C1A33867   2.545   9.119   8.704
 2362POPC   D2A33868   2.273   8.798   8.521
 2362POPC   C3A33869   2.441   8.755   8.107
 2362POPC   C4A33870   2.487   9.107   7.775
 2362POPC   C1B33871   3.044   9.045   8.594
 2362POPC   C2B33872   2.871   9.103   8.137
 2362POPC   C3B33873   3.029   9.080   7.667
 2362POPC   C4B33874   2.963   9.267   7.229
 2363POPC   NC333875  20.265  22.011   9.480
 2363POPC   PO433876  19.652  22.281   9.460
 2363POPC   GL133877  19.970  22.294   9.156
 2363POPC   GL233878  19.900  21.942   9.129
 2363POPC   C1A33879  19.954  22.220   8.705
 2363POPC   D2A33880  19.765  22.374   8.331
 2363POPC   C3A33881  19.894  22.098   8.043
 2363POPC   C4A33882  19.802  22.053   7.631
 2363POPC   C1B33883  19.693  21.756   8.790
 2363POPC   C2B33884  19.810  21.730   8.383
 2363POPC   C3B33885  19.666  21.665   7.938
 2363POPC   C4B33886  19.326  21.841   7.666
 2364POPC   NC333887  21.698  13.700   9.468
 2364POPC   PO433888  21.107  13.919   9.478
 2364POPC   GL133889  21.273  13.633   9.141
 2364POPC   GL233890  21.550  13.374   9.114
 2364POPC   C1A33891  21.520  13.790   8.774
 2364POPC   D2A33892  21.442  14.029   8.371
 2364POPC   C3A33893  21.237  13.807   8.009
 2364POPC   C4A33894  21.136  13.585   7.619
 2364POPC   C1B33895  21.353  13.301   8.730
 2364POPC   C2B33896  21.450  13.488   8.347
 2364POPC   C3B33897  21.511  13.366   7.945
 2364POPC   C4B33898  21.398  13.069   7.622
 2365POPC   NC333899  28.029   2.624   9.655
 2365POPC   PO433900  27.435   2.448   9.699
 2365POPC   GL133901  27.643   2.621   9.315
 2365POPC   GL233902  27.845   2.937   9.265
 2365POPC   C1A33903  27.733   2.568   8.884
 2365POPC   D2A33904  27.851   2.599   8.460
 2365POPC   C3A33905  27.586   2.618   8.127
 2365POPC   C4A33906  27.700   2.503   7.747
 2365POPC   C1B33907  27.822   3.068   8.805
 2365POPC   C2B33908  27.628   3.082   8.378
 2365POPC   C3B33909  27.606   3.097   7.920
 2365POPC   C4B33910  27.423   2.922   7.556
 2366POPC   NC333911  16.510  28.850   9.380
 2366POPC   PO433912  17.008  29.257   9.425
 2366POPC   GL133913  16.889  29.084   9.088
 2366POPC   GL233914  16.575  29.256   9.049
 2366POPC   C1A33915  16.984  29.259   8.701
 2366POPC   D2A33916  16.872  29.396   8.296
 2366POPC   C3A33917  17.064  29.257   7.911
 2366POPC   C4A33918  16.953  29.225   7.477
 2366POPC   C1B33919  16.538  28.972   8.704
 2366POPC   C2B33920  16.451  29.091   8.276
 2366POPC   C3B33921  16.555  29.163   7.855
 2366POPC   C4B33922  16.290  29.034   7.501
 2367POPC   NC333923  16.141  36.975  10.041
 2367POPC   PO433924  15.590  36.905   9.637
 2367POPC   GL133925  15.859  37.019   9.274
 2367POPC   GL233926  16.050  37.328   9.235
 2367POPC   C1A33927  16.018  36.928   8.829
 2367POPC   D2A33928  16.114  37.117   8.418
 2367POPC   C3A33929  15.995  36.929   8.042
 2367POPC   C4A33930  16.194  36.959   7.654
 2367POPC   C1B33931  15.706  37.328   8.920
 2367POPC   C2B33932  15.617  37.158   8.530
 2367POPC   C3B33933  15.614  37.248   8.098
 2367POPC   C4B33934  15.661  37.052   7.681
 2368POPC   NC333935  27.256   5.655   9.458
 2368POPC   PO433936  26.650   5.794   9.514
 2368POPC   GL133937  26.881   5.911   9.174
 2368POPC   GL233938  27.175   6.127   9.267
 2368POPC   C1A33939  26.749   5.761   8.765
 2368POPC   D2A33940  26.450   5.763   8.424
 2368POPC   C3A33941  26.454   5.544   8.044
 2368POPC   C4A33942  26.483   5.854   7.733
 2368POPC   C1B33943  27.146   6.126   8.815
 2368POPC   C2B33944  27.121   5.874   8.430
 2368POPC   C3B33945  26.852   5.877   8.081
 2368POPC   C4B33946  26.855   6.200   7.707
 2369POPC   NC333947  26.276  22.075   9.476
 2369POPC   PO433948  25.616  21.883   9.609
 2369POPC   GL133949  25.848  21.864   9.239
 2369POPC   GL233950  25.893  22.196   9.180
 2369POPC   C1A33951  25.906  21.835   8.796
 2369POPC   D2A33952  26.100  21.868   8.416
 2369POPC   C3A33953  25.944  21.915   8.038
 2369POPC   C4A33954  25.957  21.773   7.627
 2369POPC   C1B33955  26.092  22.317   8.795
 2369POPC   C2B33956  26.026  22.361   8.404
 2369POPC   C3B33957  26.239  22.325   8.067
 2369POPC   C4B33958  26.080  22.308   7.672
 2370POPC   NC333959  37.242  27.636   9.504
 2370POPC   PO433960  37.699  27.097   9.372
 2370POPC   GL133961  37.594  27.485   9.166
 2370POPC   GL233962  37.274  27.309   9.094
 2370POPC   C1A33963  37.623  27.748   8.772
 2370POPC   D2A33964  37.889  27.710   8.376
 2370POPC   C3A33965  37.701  27.717   7.949
 2370POPC   C4A33966  37.274  27.808   7.802
 2370POPC   C1B33967  37.514  27.241   8.734
 2370POPC   C2B33968  37.482  27.403   8.352
 2370POPC   C3B33969  37.398  27.287   7.965
 2370POPC   C4B33970  37.743  27.174   7.735
 2371POPC   NC333971  31.072  41.392   9.441
 2371POPC   PO433972  30.632  41.947   9.506
 2371POPC   GL133973  30.575  41.660   9.200
 2371POPC   GL233974  30.849  41.708   9.104
 2371POPC   C1A33975  30.448  41.573   8.789
 2371POPC   D2A33976  30.467  41.657   8.360
 2371POPC   C3A33977  30.577  41.468   7.964
 2371POPC   C4A33978  30.355  41.700   7.578
 2371POPC   C1B33979  30.950  41.512   8.761
 2371POPC   C2B33980  30.903  41.353   8.372
 2371POPC   C3B33981  31.130  41.533   8.057
 2371POPC   C4B33982  30.991  41.585   7.675
 2372POPC   NC333983   7.026  44.543   9.339
 2372POPC   PO433984   7.490  44.901   9.698
 2372POPC   GL133985   7.535  44.836   9.221
 2372POPC   GL233986   7.540  44.513   9.198
 2372POPC   C1A33987   7.307  44.748   8.793
 2372POPC   D2A33988   7.360  44.622   8.379
 2372POPC   C3A33989   7.312  44.889   8.029
 2372POPC   C4A33990   7.261  44.726   7.644
 2372POPC   C1B33991   7.783  44.590   8.819
 2372POPC   C2B33992   7.815  44.376   8.414
 2372POPC   C3B33993   7.710  44.575   8.001
 2372POPC   C4B33994   7.597  44.343   7.634
 2373POPC   NC333995  15.918  32.829   9.778
 2373POPC   PO433996  16.455  32.736   9.531
 2373POPC   GL133997  16.228  33.000   9.262
 2373POPC   GL233998  15.857  32.959   9.284
 2373POPC   C1A33999  16.144  33.015   8.803
 2373POPC   D2A34000  16.040  32.767   8.417
 2373POPC   C3A34001  16.154  32.936   8.003
 2373POPC   C4A34002  16.054  33.351   7.853
 2373POPC   C1B34003  15.660  32.857   8.878
 2373POPC   C2B34004  15.553  32.958   8.440
 2373POPC   C3B34005  15.651  32.813   8.019
 2373POPC   C4B34006  15.699  33.004   7.613
 2374POPC   NC334007  35.195  33.784   9.646
 2374POPC   PO434008  35.677  33.601   9.171
 2374POPC   GL134009  35.565  33.980   8.984
 2374POPC   GL234010  35.245  33.964   9.166
 2374POPC   C1A34011  35.536  33.951   8.555
 2374POPC   D2A34012  35.418  33.560   8.311
 2374POPC   C3A34013  35.564  33.589   7.899
 2374POPC   C4A34014  35.635  34.030   7.807
 2374POPC   C1B34015  35.118  33.781   8.776
 2374POPC   C2B34016  35.068  33.939   8.352
 2374POPC   C3B34017  35.082  33.774   7.941
 2374POPC   C4B34018  34.886  33.885   7.563
 2375POPC   NC334019  40.205  34.336   9.637
 2375POPC   PO434020  39.927  34.930   9.395
 2375POPC   GL134021  40.179  34.632   9.140
 2375POPC   GL234022  40.184  34.245   9.152
 2375POPC   C1A34023  40.071  34.452   8.718
 2375POPC   D2A34024  40.063  34.102   8.450
 2375POPC   C3A34025  40.066  34.383   8.126
 2375POPC   C4A34026  39.979  34.720   7.855
 2375POPC   C1B34027  40.461  34.124   8.810
 2375POPC   C2B34028  40.516  34.300   8.385
 2375POPC   C3B34029  40.431  34.063   8.002
 2375POPC   C4B34030  40.122  34.200   7.652
 2376POPC   NC334031  44.645  39.122   9.491
 2376POPC   PO434032  44.082  39.296   9.807
 2376POPC   GL134033  44.320  39.471   9.292
 2376POPC   GL234034  44.709  39.467   9.145
 2376POPC   C1A34035  44.375  39.262   8.828
 2376POPC   D2A34036  44.578  39.131   8.429
 2376POPC   C3A34037  44.545  39.379   8.064
 2376POPC   C4A34038  44.801  39.679   7.854
 2376POPC   C1B34039  44.904  39.130   8.841
 2376POPC   C2B34040   0.109  39.006   8.428
 2376POPC   C3B34041  44.916  39.021   8.021
 2376POPC   C4B34042  44.524  38.819   8.000
 2377POPC   NC334043  37.314  43.653   9.437
 2377POPC   PO434044  36.734  43.905   9.603
 2377POPC   GL134045  36.920  43.829   9.155
 2377POPC   GL234046  37.153  43.538   8.970
 2377POPC   C1A34047  36.971  43.933   8.724
 2377POPC   D2A34048  36.974  44.194   8.406
 2377POPC   C3A34049  36.941  43.993   8.020
 2377POPC   C4A34050  36.829  44.195   7.626
 2377POPC   C1B34051  37.449  43.732   8.649
 2377POPC   C2B34052  37.493  44.085   8.313
 2377POPC   C3B34053  37.375  44.217   7.889
 2377POPC   C4B34054  37.263  43.878   7.625
 2378POPC   NC334055   4.541   4.346   9.587
 2378POPC   PO434056   3.988   3.990   9.283
 2378POPC   GL134057   4.253   4.275   9.097
 2378POPC   GL234058   4.607   4.262   9.102
 2378POPC   C1A34059   4.348   4.345   8.660
 2378POPC   D2A34060   4.477   4.188   8.287
 2378POPC   C3A34061   4.201   4.201   7.927
 2378POPC   C4A34062   3.886   3.846   7.950
 2378POPC   C1B34063   4.778   4.533   8.846
 2378POPC   C2B34064   4.773   4.641   8.413
 2378POPC   C3B34065   4.591   4.572   7.997
 2378POPC   C4B34066   4.441   4.529   7.561
 2379POPC   NC334067  29.623   2.906   9.607
 2379POPC   PO434068  29.107   2.531   9.507
 2379POPC   GL134069  29.076   2.804   9.185
 2379POPC   GL234070  29.137   2.523   8.973
 2379POPC   C1A34071  29.159   3.006   8.772
 2379POPC   D2A34072  29.112   2.757   8.414
 2379POPC   C3A34073  29.169   2.771   7.992
 2379POPC   C4A34074  29.260   2.723   7.554
 2379POPC   C1B34075  28.838   2.393   8.659
 2379POPC   C2B34076  28.863   2.362   8.221
 2379POPC   C3B34077  28.889   2.393   7.794
 2379POPC   C4B34078  28.807   2.499   7.399
 2380POPC   NC334079  40.025   3.534   9.982
 2380POPC   PO434080  39.861   3.295   9.647
 2380POPC   GL134081  40.142   3.457   9.279
 2380POPC   GL234082  40.178   3.823   9.186
 2380POPC   C1A34083  40.209   3.491   8.794
 2380POPC   D2A34084  39.974   3.532   8.374
 2380POPC   C3A34085  40.078   3.324   7.961
 2380POPC   C4A34086  39.857   3.368   7.556
 2380POPC   C1B34087  40.044   3.980   8.756
 2380POPC   C2B34088  39.983   4.042   8.293
 2380POPC   C3B34089  39.925   3.814   7.886
 2380POPC   C4B34090  40.010   3.857   7.441
 2381POPC   NC334091  38.224  44.926   9.540
 2381POPC   PO434092  38.362   0.657   9.523
 2381POPC   GL134093  38.308   0.581   9.111
 2381POPC   GL234094  38.385   0.236   9.149
 2381POPC   C1A34095  38.502   0.447   8.703
 2381POPC   D2A34096  38.381   0.136   8.404
 2381POPC   C3A34097  38.124   0.408   8.181
 2381POPC   C4A34098  38.300   0.618   7.858
 2381POPC   C1B34099  38.799   0.104   8.907
 2381POPC   C2B34100  38.893   0.122   8.465
 2381POPC   C3B34101  38.741   0.454   8.223
 2381POPC   C4B34102  38.786   0.501   7.830
 2382POPC   NC334103  34.401   7.171   9.415
 2382POPC   PO434104  34.623   7.740   9.668
 2382POPC   GL134105  34.688   7.567   9.225
 2382POPC   GL234106  34.802   7.218   9.108
 2382POPC   C1A34107  34.738   7.564   8.770
 2382POPC   D2A34108  34.714   7.285   8.421
 2382POPC   C3A34109  34.580   7.521   8.094
 2382POPC   C4A34110  34.814   7.707   7.772
 2382POPC   C1B34111  34.401   7.181   8.795
 2382POPC   C2B34112  34.297   6.968   8.423
 2382POPC   C3B34113  34.200   7.096   8.009
 2382POPC   C4B34114  34.385   7.362   7.662
 2383POPC   NC334115  18.579   6.201   9.333
 2383POPC   PO434116  18.203   5.773   9.679
 2383POPC   GL134117  18.192   5.820   9.187
 2383POPC   GL234118  18.498   5.904   8.939
 2383POPC   C1A34119  18.077   5.691   8.762
 2383POPC   D2A34120  18.322   5.818   8.384
 2383POPC   C3A34121  18.167   5.707   7.972
 2383POPC   C4A34122  18.432   5.697   7.622
 2383POPC   C1B34123  18.332   6.216   8.711
 2383POPC   C2B34124  18.505   6.343   8.325
 2383POPC   C3B34125  18.479   6.123   7.941
 2383POPC   C4B34126  18.163   6.137   7.618
 2384POPC   NC334127  12.317  38.692   9.444
 2384POPC   PO434128  11.723  38.352   9.506
 2384POPC   GL134129  12.027  38.363   9.183
 2384POPC   GL234130  11.913  38.685   9.100
 2384POPC   C1A34131  12.264  38.256   8.808
 2384POPC   D2A34132  12.125  38.389   8.406
 2384POPC   C3A34133  12.191  38.216   7.989
 2384POPC   C4A34134  12.044  38.403   7.606
 2384POPC   C1B34135  12.210  38.761   8.774
 2384POPC   C2B34136  12.304  38.864   8.335
 2384POPC   C3B34137  12.360  38.715   7.893
 2384POPC   C4B34138  12.342  38.791   7.427
 2385POPC   NC334139  44.727   3.942   9.412
 2385POPC   PO434140  44.534   4.594   9.451
 2385POPC   GL134141  44.497   4.319   9.041
 2385POPC   GL234142  44.455   3.949   8.975
 2385POPC   C1A34143  44.471   4.217   8.559
 2385POPC   D2A34144  44.436   4.090   8.158
 2385POPC   C3A34145  44.518   4.327   7.782
 2385POPC   C4A34146  44.505   4.578   7.383
 2385POPC   C1B34147  44.893   4.060   8.801
 2385POPC   C2B34148  44.974   4.209   8.388
 2385POPC   C3B34149  44.912   4.069   7.986
 2385POPC   C4B34150  44.921   4.134   7.539
 2386POPC   NC334151  43.582  35.153   9.449
 2386POPC   PO434152  42.881  35.187   9.416
 2386POPC   GL134153  43.216  35.313   9.108
 2386POPC   GL234154  43.387  35.673   9.129
 2386POPC   C1A34155  42.997  35.255   8.719
 2386POPC   D2A34156  42.780  35.170   8.352
 2386POPC   C3A34157  42.953  35.217   7.959
 2386POPC   C4A34158  42.751  34.996   7.674
 2386POPC   C1B34159  43.398  35.567   8.687
 2386POPC   C2B34160  43.125  35.565   8.335
 2386POPC   C3B34161  43.197  35.684   7.942
 2386POPC   C4B34162  43.579  35.625   7.714
 2387POPC   NC334163  10.221   4.629   9.536
 2387POPC   PO434164  10.759   4.192   9.457
 2387POPC   GL134165  10.732   4.400   9.095
 2387POPC   GL234166  10.376   4.365   9.080
 2387POPC   C1A34167  10.618   4.278   8.649
 2387POPC   D2A34168  10.369   4.299   8.273
 2387POPC   C3A34169  10.644   4.281   7.940
 2387POPC   C4A34170  10.592   3.848   7.812
 2387POPC   C1B34171  10.111   4.469   8.680
 2387POPC   C2B34172   9.938   4.608   8.267
 2387POPC   C3B34173  10.232   4.629   7.901
 2387POPC   C4B34174  10.191   4.200   7.739
 2388POPC   NC334175  26.250  19.990  10.058
 2388POPC   PO434176  25.827  19.783   9.552
 2388POPC   GL134177  26.003  19.873   9.158
 2388POPC   GL234178  26.268  20.101   9.174
 2388POPC   C1A34179  26.179  19.737   8.736
 2388POPC   D2A34180  26.174  19.526   8.292
 2388POPC   C3A34181  25.833  19.677   8.001
 2388POPC   C4A34182  25.855  19.843   7.552
 2388POPC   C1B34183  26.409  20.199   8.745
 2388POPC   C2B34184  26.295  20.032   8.322
 2388POPC   C3B34185  26.338  20.001   7.881
 2388POPC   C4B34186  26.475  20.369   7.671
 2389POPC   NC334187  27.179  41.353   9.349
 2389POPC   PO434188  27.838  41.712   9.538
 2389POPC   GL134189  27.705  41.722   9.116
 2389POPC   GL234190  27.649  41.373   9.172
 2389POPC   C1A34191  27.527  41.591   8.697
 2389POPC   D2A34192  27.453  41.414   8.281
 2389POPC   C3A34193  27.479  41.671   7.942
 2389POPC   C4A34194  27.853  41.920   7.922
 2389POPC   C1B34195  27.914  41.298   8.855
 2389POPC   C2B34196  27.904  41.238   8.423
 2389POPC   C3B34197  27.959  41.423   8.029
 2389POPC   C4B34198  28.083  41.206   7.646
 2390POPC   NC334199  20.316  11.347   9.535
 2390POPC   PO434200  20.820  10.964   9.461
 2390POPC   GL134201  20.460  11.084   9.121
 2390POPC   GL234202  20.259  11.424   9.051
 2390POPC   C1A34203  20.509  11.034   8.670
 2390POPC   D2A34204  20.873  11.227   8.452
 2390POPC   C3A34205  20.771  11.336   8.039
 2390POPC   C4A34206  20.423  11.074   7.927
 2390POPC   C1B34207  20.590  11.529   8.786
 2390POPC   C2B34208  20.399  11.496   8.382
 2390POPC   C3B34209  20.250  11.559   7.981
 2390POPC   C4B34210  20.502  11.517   7.610
 2391POPC   NC334211  23.697  20.210   9.595
 2391POPC   PO434212  23.523  20.884   9.524
 2391POPC   GL134213  23.713  20.587   9.225
 2391POPC   GL234214  23.500  20.296   9.158
 2391POPC   C1A34215  23.905  20.526   8.826
 2391POPC   D2A34216  24.094  20.529   8.410
 2391POPC   C3A34217  23.819  20.631   8.067
 2391POPC   C4A34218  23.953  20.562   7.644
 2391POPC   C1B34219  23.577  20.134   8.819
 2391POPC   C2B34220  23.662  20.251   8.433
 2391POPC   C3B34221  23.628  20.160   8.035
 2391POPC   C4B34222  23.506  20.289   7.685
 2392POPC   NC334223  32.673   3.200   9.883
 2392POPC   PO434224  32.143   3.496   9.456
 2392POPC   GL134225  32.267   3.538   9.057
 2392POPC   GL234226  32.324   3.879   9.051
 2392POPC   C1A34227  32.368   3.449   8.648
 2392POPC   D2A34228  32.216   3.416   8.242
 2392POPC   C3A34229  32.477   3.397   7.882
 2392POPC   C4A34230  32.238   3.492   7.508
 2392POPC   C1B34231  32.038   3.835   8.683
 2392POPC   C2B34232  32.206   3.940   8.275
 2392POPC   C3B34233  32.283   3.902   7.838
 2392POPC   C4B34234  32.040   4.010   7.478
 2393POPC   NC334235   8.049  36.630   9.546
 2393POPC   PO434236   8.618  36.911   9.482
 2393POPC   GL134237   8.363  36.820   9.141
 2393POPC   GL234238   8.036  36.971   9.173
 2393POPC   C1A34239   8.259  36.903   8.700
 2393POPC   D2A34240   8.285  37.117   8.302
 2393POPC   C3A34241   8.441  36.912   7.906
 2393POPC   C4A34242   8.462  37.011   7.452
 2393POPC   C1B34243   7.782  36.795   8.860
 2393POPC   C2B34244   7.830  36.935   8.455
 2393POPC   C3B34245   7.892  36.813   8.069
 2393POPC   C4B34246   7.977  36.937   7.671
 2394POPC   NC334247   6.425   6.043   9.498
 2394POPC   PO434248   7.036   5.795   9.459
 2394POPC   GL134249   6.774   5.831   9.144
 2394POPC   GL234250   6.605   6.118   9.011
 2394POPC   C1A34251   6.795   5.659   8.774
 2394POPC   D2A34252   6.665   5.821   8.407
 2394POPC   C3A34253   6.848   5.692   8.010
 2394POPC   C4A34254   6.749   5.989   7.694
 2394POPC   C1B34255   6.314   5.789   8.816
 2394POPC   C2B34256   6.221   5.599   8.363
 2394POPC   C3B34257   6.348   5.768   7.987
 2394POPC   C4B34258   6.436   5.615   7.564
 2395POPC   NC334259  16.340  13.735   9.587
 2395POPC   PO434260  15.834  13.292   9.688
 2395POPC   GL134261  15.989  13.536   9.225
 2395POPC   GL234262  16.132  13.401   8.939
 2395POPC   C1A34263  15.895  13.828   8.811
 2395POPC   D2A34264  15.711  14.015   8.396
 2395POPC   C3A34265  15.795  13.903   7.961
 2395POPC   C4A34266  15.899  13.720   7.572
 2395POPC   C1B34267  15.736  13.356   8.711
 2395POPC   C2B34268  15.803  13.513   8.296
 2395POPC   C3B34269  15.581  13.433   7.914
 2395POPC   C4B34270  15.621  13.136   7.604
 2396POPC   NC334271  22.570   9.368   9.424
 2396POPC   PO434272  23.182   9.158   9.675
 2396POPC   GL134273  22.997   9.185   9.218
 2396POPC   GL234274  22.781   8.979   9.030
 2396POPC   C1A34275  23.057   9.279   8.761
 2396POPC   D2A34276  22.752   9.064   8.499
 2396POPC   C3A34277  22.883   9.063   8.064
 2396POPC   C4A34278  22.842   9.409   7.810
 2396POPC   C1B34279  23.127   8.782   8.825
 2396POPC   C2B34280  23.184   8.800   8.386
 2396POPC   C3B34281  23.183   8.638   7.952
 2396POPC   C4B34282  23.305   8.665   7.524
 2397POPC   NC334283   6.066  30.561   9.490
 2397POPC   PO434284   5.519  30.973   9.539
 2397POPC   GL134285   5.830  30.890   9.185
 2397POPC   GL234286   5.750  30.555   9.087
 2397POPC   C1A34287   6.004  30.846   8.763
 2397POPC   D2A34288   5.859  30.810   8.345
 2397POPC   C3A34289   5.913  31.024   7.961
 2397POPC   C4A34290   6.251  30.839   7.680
 2397POPC   C1B34291   5.669  30.447   8.666
 2397POPC   C2B34292   5.812  30.302   8.268
 2397POPC   C3B34293   5.946  30.511   7.908
 2397POPC   C4B34294   6.074  30.358   7.504
 2398POPC   NC334295  31.939   5.527   9.467
 2398POPC   PO434296  32.156   4.949   9.700
 2398POPC   GL134297  32.226   4.987   9.220
 2398POPC   GL234298  32.463   4.752   9.043
 2398POPC   C1A34299  32.124   5.271   8.862
 2398POPC   D2A34300  32.158   5.547   8.525
 2398POPC   C3A34301  32.048   5.353   8.141
 2398POPC   C4A34302  32.251   5.222   7.769
 2398POPC   C1B34303  32.575   5.060   8.770
 2398POPC   C2B34304  32.418   5.121   8.420
 2398POPC   C3B34305  32.533   4.916   8.081
 2398POPC   C4B34306  32.726   5.042   7.711
 2399POPC   NC334307  43.473   5.494   9.571
 2399POPC   PO434308  43.816   4.867   9.571
 2399POPC   GL134309  43.859   5.100   9.186
 2399POPC   GL234310  43.657   5.382   9.032
 2399POPC   C1A34311  43.907   4.978   8.748
 2399POPC   D2A34312  43.880   4.665   8.417
 2399POPC   C3A34313  43.892   4.874   8.026
 2399POPC   C4A34314  44.011   5.259   7.887
 2399POPC   C1B34315  43.700   5.416   8.529
 2399POPC   C2B34316  43.504   5.280   8.108
 2399POPC   C3B34317  43.285   5.285   7.677
 2399POPC   C4B34318  43.480   5.422   7.280
 2400POPC   NC334319  38.141  38.009   9.648
 2400POPC   PO434320  38.485  37.463   9.511
 2400POPC   GL134321  38.155  37.488   9.200
 2400POPC   GL234322  38.021  37.811   9.191
 2400POPC   C1A34323  38.093  37.560   8.746
 2400POPC   D2A34324  38.223  37.418   8.334
 2400POPC   C3A34325  38.584  37.634   8.130
 2400POPC   C4A34326  38.733  37.647   7.696
 2400POPC   C1B34327  38.374  37.963   8.974
 2400POPC   C2B34328  38.385  37.993   8.522
 2400POPC   C3B34329  38.354  38.109   8.095
 2400POPC   C4B34330  38.268  37.874   7.771
 2401POPC   NC334331  20.165  23.591   9.502
 2401POPC   PO434332  20.846  23.473   9.496
 2401POPC   GL134333  20.596  23.645   9.201
 2401POPC   GL234334  20.442  23.353   9.125
 2401POPC   C1A34335  20.423  23.699   8.763
 2401POPC   D2A34336  20.406  23.788   8.349
 2401POPC   C3A34337  20.759  23.954   8.143
 2401POPC   C4A34338  20.546  23.731   7.814
 2401POPC   C1B34339  20.794  23.360   8.823
 2401POPC   C2B34340  20.833  23.473   8.379
 2401POPC   C3B34341  20.985  23.518   7.951
 2401POPC   C4B34342  20.791  23.321   7.577
 2402POPC   NC334343  41.111  39.725   9.472
 2402POPC   PO434344  40.733  40.349   9.496
 2402POPC   GL134345  40.609  40.216   9.125
 2402POPC   GL234346  40.717  39.875   9.150
 2402POPC   C1A34347  40.784  40.234   8.711
 2402POPC   D2A34348  40.932  40.170   8.291
 2402POPC   C3A34349  40.606  40.169   7.991
 2402POPC   C4A34350  40.478  40.317   7.640
 2402POPC   C1B34351  40.558  39.748   8.765
 2402POPC   C2B34352  40.703  39.731   8.343
 2402POPC   C3B34353  40.885  39.748   7.969
 2402POPC   C4B34354  40.844  39.909   7.562
 2403POPC   NC334355   4.807  33.532   9.460
 2403POPC   PO434356   5.308  33.924   9.746
 2403POPC   GL134357   5.145  33.941   9.312
 2403POPC   GL234358   5.173  33.652   9.135
 2403POPC   C1A34359   5.095  34.037   8.834
 2403POPC   D2A34360   4.963  34.087   8.386
 2403POPC   C3A34361   5.173  34.043   7.998
 2403POPC   C4A34362   5.267  34.352   7.702
 2403POPC   C1B34363   5.009  33.538   8.727
 2403POPC   C2B34364   5.070  33.547   8.284
 2403POPC   C3B34365   4.897  33.472   7.884
 2403POPC   C4B34366   4.871  33.702   7.500
 2404POPC   NC334367  38.892  28.797   9.532
 2404POPC   PO434368  39.451  29.247   9.551
 2404POPC   GL134369  39.294  28.987   9.225
 2404POPC   GL234370  39.609  28.863   9.139
 2404POPC   C1A34371  39.053  29.003   8.843
 2404POPC   D2A34372  39.230  29.226   8.492
 2404POPC   C3A34373  39.076  29.169   8.094
 2404POPC   C4A34374  39.084  29.452   7.761
 2404POPC   C1B34375  39.629  29.242   8.895
 2404POPC   C2B34376  39.768  29.315   8.488
 2404POPC   C3B34377  39.565  29.276   8.106
 2404POPC   C4B34378  39.444  29.057   7.729
 2405POPC   NC334379  10.368   3.891   9.464
 2405POPC   PO434380  10.820   3.470   9.333
 2405POPC   GL134381  10.479   3.571   9.086
 2405POPC   GL234382  10.613   3.897   9.004
 2405POPC   C1A34383  10.348   3.438   8.695
 2405POPC   D2A34384  10.659   3.254   8.418
 2405POPC   C3A34385  10.553   3.398   8.026
 2405POPC   C4A34386  10.740   3.343   7.624
 2405POPC   C1B34387  10.169   3.933   8.833
 2405POPC   C2B34388   9.971   3.772   8.444
 2405POPC   C3B34389  10.117   3.743   8.000
 2405POPC   C4B34390  10.115   3.750   7.526
 2406POPC   NC334391  21.661  15.986   9.629
 2406POPC   PO434392  21.062  16.200   9.504
 2406POPC   GL134393  21.363  16.126   9.181
 2406POPC   GL234394  21.560  15.863   9.146
 2406POPC   C1A34395  21.210  16.021   8.767
 2406POPC   D2A34396  21.209  16.148   8.358
 2406POPC   C3A34397  21.012  15.917   8.067
 2406POPC   C4A34398  21.187  16.084   7.704
 2406POPC   C1B34399  21.485  15.610   8.807
 2406POPC   C2B34400  21.227  15.574   8.440
 2406POPC   C3B34401  21.421  15.611   8.043
 2406POPC   C4B34402  21.781  15.658   7.778
 2407POPC   NC334403  38.673  15.297   9.508
 2407POPC   PO434404  38.283  14.813   9.594
 2407POPC   GL134405  38.558  14.864   9.250
 2407POPC   GL234406  38.275  14.813   9.055
 2407POPC   C1A34407  38.703  15.035   8.841
 2407POPC   D2A34408  38.564  14.925   8.428
 2407POPC   C3A34409  38.535  15.202   8.095
 2407POPC   C4A34410  38.751  15.265   7.751
 2407POPC   C1B34411  38.096  14.968   8.674
 2407POPC   C2B34412  38.081  15.024   8.226
 2407POPC   C3B34413  38.056  15.005   7.778
 2407POPC   C4B34414  38.315  15.214   7.483
 2408POPC   NC334415   4.326  13.193   9.389
 2408POPC   PO434416   4.121  12.616   9.640
 2408POPC   GL134417   4.037  12.548   9.145
 2408POPC   GL234418   4.332  12.692   8.980
 2408POPC   C1A34419   3.900  12.639   8.705
 2408POPC   D2A34420   4.179  12.969   8.550
 2408POPC   C3A34421   4.234  12.953   8.109
 2408POPC   C4A34422   4.219  13.205   7.747
 2408POPC   C1B34423   4.650  12.844   8.688
 2408POPC   C2B34424   4.648  13.148   8.349
 2408POPC   C3B34425   4.702  13.027   7.934
 2408POPC   C4B34426   4.543  12.636   7.793
 2409POPC   NC334427  36.671  40.206   9.626
 2409POPC   PO434428  37.308  40.033   9.447
 2409POPC   GL134429  37.002  39.759   9.234
 2409POPC   GL234430  36.683  39.941   9.170
 2409POPC   C1A34431  36.952  39.753   8.784
 2409POPC   D2A34432  37.041  39.981   8.405
 2409POPC   C3A34433  37.112  39.766   8.011
 2409POPC   C4A34434  36.902  39.804   7.611
 2409POPC   C1B34435  36.796  40.246   8.815
 2409POPC   C2B34436  36.840  40.449   8.390
 2409POPC   C3B34437  36.891  40.254   7.961
 2409POPC   C4B34438  36.667  40.311   7.537
 2410POPC   NC334439  27.295   5.123   9.822
 2410POPC   PO434440  26.690   4.963   9.615
 2410POPC   GL134441  26.744   5.049   9.182
 2410POPC   GL234442  26.878   5.403   9.176
 2410POPC   C1A34443  26.762   5.189   8.739
 2410POPC   D2A34444  26.956   5.340   8.383
 2410POPC   C3A34445  26.780   5.126   8.036
 2410POPC   C4A34446  26.651   5.080   7.614
 2410POPC   C1B34447  27.206   5.507   8.823
 2410POPC   C2B34448  27.454   5.497   8.404
 2410POPC   C3B34449  27.250   5.476   7.985
 2410POPC   C4B34450  26.871   5.521   7.734
 2411POPC   NC334451  16.408  20.547   9.634
 2411POPC   PO434452  17.087  20.467   9.763
 2411POPC   GL134453  17.019  20.580   9.315
 2411POPC   GL234454  16.695  20.655   9.226
 2411POPC   C1A34455  17.064  20.819   8.905
 2411POPC   D2A34456  16.873  20.983   8.539
 2411POPC   C3A34457  16.714  20.641   8.261
 2411POPC   C4A34458  16.808  20.485   7.841
 2411POPC   C1B34459  16.613  20.593   8.776
 2411POPC   C2B34460  16.440  20.246   8.506
 2411POPC   C3B34461  16.221  20.197   8.106
 2411POPC   C4B34462  16.407  20.224   7.686
 2412POPC   NC334463  35.404  28.402   9.568
 2412POPC   PO434464  35.971  27.964   9.512
 2412POPC   GL134465  35.714  28.182   9.118
 2412POPC   GL234466  35.348  28.199   9.088
 2412POPC   C1A34467  35.650  28.261   8.662
 2412POPC   D2A34468  35.860  28.211   8.252
 2412POPC   C3A34469  35.571  28.272   7.915
 2412POPC   C4A34470  35.411  28.641   7.721
 2412POPC   C1B34471  35.119  28.187   8.680
 2412POPC   C2B34472  35.123  28.348   8.231
 2412POPC   C3B34473  35.013  28.325   7.788
 2412POPC   C4B34474  34.935  27.991   7.498
 2413POPC   NC334475  19.842   8.256   9.360
 2413POPC   PO434476  20.271   7.779   9.573
 2413POPC   GL134477  20.195   7.975   9.120
 2413POPC   GL234478  20.165   8.332   8.996
 2413POPC   C1A34479  20.017   7.993   8.650
 2413POPC   D2A34480  19.884   8.256   8.264
 2413POPC   C3A34481  19.923   8.035   7.849
 2413POPC   C4A34482  20.183   8.101   7.465
 2413POPC   C1B34483  19.756   8.426   8.743
 2413POPC   C2B34484  19.494   8.580   8.413
 2413POPC   C3B34485  19.624   8.680   8.000
 2413POPC   C4B34486  19.903   8.497   7.689
 2414POPC   NC334487  22.417  21.138   9.596
 2414POPC   PO434488  22.095  21.778   9.738
 2414POPC   GL134489  22.165  21.528   9.328
 2414POPC   GL234490  22.501  21.503   9.220
 2414POPC   C1A34491  22.130  21.441   8.861
 2414POPC   D2A34492  21.972  21.378   8.427
 2414POPC   C3A34493  22.200  21.516   8.074
 2414POPC   C4A34494  21.990  21.477   7.679
 2414POPC   C1B34495  22.585  21.245   8.857
 2414POPC   C2B34496  22.445  21.199   8.435
 2414POPC   C3B34497  22.518  21.110   7.992
 2414POPC   C4B34498  22.423  21.220   7.550
 2415POPC   NC334499  21.272  11.079   9.423
 2415POPC   PO434500  21.417  11.744   9.484
 2415POPC   GL134501  21.399  11.531   9.101
 2415POPC   GL234502  21.704  11.415   8.926
 2415POPC   C1A34503  21.215  11.606   8.708
 2415POPC   D2A34504  21.307  11.463   8.313
 2415POPC   C3A34505  21.165  11.669   7.971
 2415POPC   C4A34506  21.059  11.510   7.596
 2415POPC   C1B34507  21.384  11.116   8.770
 2415POPC   C2B34508  21.296  10.948   8.369
 2415POPC   C3B34509  21.254  11.128   7.927
 2415POPC   C4B34510  21.402  11.137   7.495
 2416POPC   NC334511  38.342  41.974   9.469
 2416POPC   PO434512  38.616  42.658   9.480
 2416POPC   GL134513  38.326  42.547   9.180
 2416POPC   GL234514  38.522  42.248   9.103
 2416POPC   C1A34515  38.205  42.390   8.748
 2416POPC   D2A34516  38.293  42.130   8.401
 2416POPC   C3A34517  38.267  42.316   7.992
 2416POPC   C4A34518  38.537  42.447   7.642
 2416POPC   C1B34519  38.624  41.953   8.760
 2416POPC   C2B34520  38.791  41.998   8.320
 2416POPC   C3B34521  38.659  42.005   7.868
 2416POPC   C4B34522  38.543  42.012   7.371
 2417POPC   NC334523  19.550   7.302   9.372
 2417POPC   PO434524  18.887   7.551   9.489
 2417POPC   GL134525  19.156   7.594   9.135
 2417POPC   GL234526  19.179   7.277   9.018
 2417POPC   C1A34527  19.272   7.649   8.712
 2417POPC   D2A34528  19.266   7.424   8.282
 2417POPC   C3A34529  19.232   7.696   7.917
 2417POPC   C4A34530  19.177   7.914   7.530
 2417POPC   C1B34531  18.911   7.308   8.660
 2417POPC   C2B34532  18.764   7.275   8.285
 2417POPC   C3B34533  18.903   7.311   7.885
 2417POPC   C4B34534  18.970   7.423   7.469
 2418POPC   NC334535  23.797   8.794   9.338
 2418POPC   PO434536  23.446   9.379   9.252
 2418POPC   GL134537  23.489   9.048   9.033
 2418POPC   GL234538  23.822   9.148   8.976
 2418POPC   C1A34539  23.623   8.811   8.665
 2418POPC   D2A34540  23.747   9.066   8.340
 2418POPC   C3A34541  23.467   9.068   7.995
 2418POPC   C4A34542  23.691   8.763   7.852
 2418POPC   C1B34543  24.112   9.224   8.693
 2418POPC   C2B34544  24.248   9.178   8.277
 2418POPC   C3B34545  23.993   9.188   7.895
 2418POPC   C4B34546  24.134   9.022   7.494
 2419POPC   NC334547  21.183  15.737   9.475
 2419POPC   PO434548  20.464  15.656   9.461
 2419POPC   GL134549  20.537  15.821   9.057
 2419POPC   GL234550  20.865  15.927   9.116
 2419POPC   C1A34551  20.758  15.797   8.639
 2419POPC   D2A34552  20.641  15.593   8.257
 2419POPC   C3A34553  20.534  15.825   7.859
 2419POPC   C4A34554  20.331  15.697   7.446
 2419POPC   C1B34555  20.769  16.291   8.822
 2419POPC   C2B34556  20.826  16.476   8.403
 2419POPC   C3B34557  20.767  16.358   7.944
 2419POPC   C4B34558  20.847  16.434   7.498
 2420POPC   NC334559  35.193  29.324   9.892
 2420POPC   PO434560  35.676  29.226   9.506
 2420POPC   GL134561  35.519  29.018   9.119
 2420POPC   GL234562  35.570  28.678   9.149
 2420POPC   C1A34563  35.546  29.136   8.653
 2420POPC   D2A34564  35.661  29.327   8.237
 2420POPC   C3A34565  35.539  29.145   7.823
 2420POPC   C4A34566  35.204  29.270   7.537
 2420POPC   C1B34567  35.353  28.667   8.730
 2420POPC   C2B34568  35.325  28.832   8.259
 2420POPC   C3B34569  35.039  28.929   7.895
 2420POPC   C4B34570  34.976  28.814   7.447
 2421POPC   NC334571  32.062  22.521   9.589
 2421POPC   PO434572  32.205  23.147   9.504
 2421POPC   GL134573  32.254  22.854   9.162
 2421POPC   GL234574  32.526  22.578   9.241
 2421POPC   C1A34575  32.203  23.061   8.738
 2421POPC   D2A34576  32.196  23.275   8.325
 2421POPC   C3A34577  32.178  22.995   7.976
 2421POPC   C4A34578  32.114  22.794   7.579
 2421POPC   C1B34579  32.640  22.804   8.833
 2421POPC   C2B34580  32.542  22.877   8.405
 2421POPC   C3B34581  32.709  22.954   8.013
 2421POPC   C4B34582  32.562  23.000   7.624
 2422POPC   NC334583  22.431  16.239   9.353
 2422POPC   PO434584  21.993  15.788   9.393
 2422POPC   GL134585  22.062  15.995   9.061
 2422POPC   GL234586  21.888  16.301   9.148
 2422POPC   C1A34587  22.212  16.137   8.668
 2422POPC   D2A34588  22.087  16.096   8.242
 2422POPC   C3A34589  22.222  15.812   7.963
 2422POPC   C4A34590  22.516  16.029   7.725
 2422POPC   C1B34591  21.695  16.166   8.758
 2422POPC   C2B34592  21.647  15.905   8.405
 2422POPC   C3B34593  21.635  16.099   7.985
 2422POPC   C4B34594  22.017  16.248   7.727
 2423POPC   NC334595  20.380  37.834   9.375
 2423POPC   PO434596  20.960  37.466   9.484
 2423POPC   GL134597  20.717  37.540   9.139
 2423POPC   GL234598  20.899  37.352   8.966
 2423POPC   C1A34599  20.426  37.563   8.771
 2423POPC   D2A34600  20.451  37.498   8.340
 2423POPC   C3A34601  20.579  37.796   8.059
 2423POPC   C4A34602  20.410  37.880   7.640
 2423POPC   C1B34603  20.915  37.646   8.658
 2423POPC   C2B34604  20.973  37.402   8.332
 2423POPC   C3B34605  20.791  37.271   8.011
 2423POPC   C4B34606  20.839  37.563   7.681
 2424POPC   NC334607  20.871   5.375   9.476
 2424POPC   PO434608  20.376   5.032   9.827
 2424POPC   GL134609  20.549   5.002   9.349
 2424POPC   GL234610  20.288   4.961   9.154
 2424POPC   C1A34611  20.708   5.114   8.893
 2424POPC   D2A34612  20.866   4.942   8.489
 2424POPC   C3A34613  20.713   5.016   8.052
 2424POPC   C4A34614  20.717   5.334   7.712
 2424POPC   C1B34615  20.292   4.876   8.758
 2424POPC   C2B34616  20.359   5.156   8.419
 2424POPC   C3B34617  20.271   5.293   7.990
 2424POPC   C4B34618  20.051   5.111   7.641
 2425POPC   NC334619   0.977  11.493   9.570
 2425POPC   PO434620   1.504  11.687   9.239
 2425POPC   GL134621   1.346  11.224   9.154
 2425POPC   GL234622   0.987  11.101   9.170
 2425POPC   C1A34623   1.203  11.029   8.736
 2425POPC   D2A34624   1.415  10.992   8.373
 2425POPC   C3A34625   1.219  11.039   7.991
 2425POPC   C4A34626   1.267  11.304   7.635
 2425POPC   C1B34627   0.781  11.308   8.778
 2425POPC   C2B34628   0.910  11.366   8.339
 2425POPC   C3B34629   0.827  11.353   7.927
 2425POPC   C4B34630   0.789  11.059   7.609
 2426POPC   NC334631  11.068  44.305  10.029
 2426POPC   PO434632  11.177  44.906   9.738
 2426POPC   GL134633  11.220  44.879   9.262
 2426POPC   GL234634  11.320  44.562   9.200
 2426POPC   C1A34635  11.411  44.885   8.818
 2426POPC   D2A34636  11.254  44.712   8.430
 2426POPC   C3A34637  11.337  44.719   8.031
 2426POPC   C4A34638  11.463  44.422   7.742
 2426POPC   C1B34639  11.195  44.352   8.786
 2426POPC   C2B34640  10.934  44.281   8.401
 2426POPC   C3B34641  10.904  44.359   7.942
 2426POPC   C4B34642  11.008  44.459   7.490
 2427POPC   NC334643  30.106  22.314   9.563
 2427POPC   PO434644  29.674  21.799   9.527
 2427POPC   GL134645  29.758  22.093   9.163
 2427POPC   GL234646  29.590  22.420   9.154
 2427POPC   C1A34647  29.822  21.980   8.726
 2427POPC   D2A34648  29.940  21.767   8.318
 2427POPC   C3A34649  29.927  21.963   7.904
 2427POPC   C4A34650  30.132  22.103   7.481
 2427POPC   C1B34651  29.677  22.478   8.707
 2427POPC   C2B34652  29.863  22.300   8.329
 2427POPC   C3B34653  29.825  22.465   7.928
 2427POPC   C4B34654  29.675  22.255   7.556
 2428POPC   NC334655  14.373  23.976   9.491
 2428POPC   PO434656  14.710  23.567   9.218
 2428POPC   GL134657  14.401  23.790   9.028
 2428POPC   GL234658  14.184  23.520   9.114
 2428POPC   C1A34659  14.461  23.985   8.646
 2428POPC   D2A34660  14.682  23.854   8.284
 2428POPC   C3A34661  14.558  24.053   7.887
 2428POPC   C4A34662  14.533  24.029   7.419
 2428POPC   C1B34663  14.352  23.433   8.679
 2428POPC   C2B34664  14.522  23.363   8.269
 2428POPC   C3B34665  14.574  23.543   7.866
 2428POPC   C4B34666  14.199  23.614   7.605
 2429POPC   NC334667   3.833  22.917   9.667
 2429POPC   PO434668   3.213  23.162   9.607
 2429POPC   GL134669   3.442  22.861   9.310
 2429POPC   GL234670   3.806  22.804   9.181
 2429POPC   C1A34671   3.400  22.745   8.882
 2429POPC   D2A34672   3.302  22.923   8.502
 2429POPC   C3A34673   3.396  22.688   8.159
 2429POPC   C4A34674   3.362  22.865   7.756
 2429POPC   C1B34675   3.765  23.123   8.893
 2429POPC   C2B34676   3.786  23.053   8.489
 2429POPC   C3B34677   3.704  23.085   8.080
 2429POPC   C4B34678   3.876  22.981   7.668
 2430POPC   NC334679  26.148  43.160   9.889
 2430POPC   PO434680  25.659  42.760   9.638
 2430POPC   GL134681  25.873  42.970   9.280
 2430POPC   GL234682  25.662  43.255   9.200
 2430POPC   C1A34683  26.183  43.087   8.920
 2430POPC   D2A34684  26.069  43.215   8.468
 2430POPC   C3A34685  26.280  43.293   8.084
 2430POPC   C4A34686  26.241  43.055   7.727
 2430POPC   C1B34687  25.684  43.067   8.775
 2430POPC   C2B34688  25.730  42.842   8.369
 2430POPC   C3B34689  25.794  43.096   7.994
 2430POPC   C4B34690  25.903  43.417   7.647
 2431POPC   NC334691  13.195  38.275   9.420
 2431POPC   PO434692  12.455  38.157   9.451
 2431POPC   GL134693  12.711  38.242   9.099
 2431POPC   GL234694  12.630  38.599   9.049
 2431POPC   C1A34695  13.030  38.200   8.756
 2431POPC   D2A34696  13.263  38.107   8.394
 2431POPC   C3A34697  13.107  38.426   8.161
 2431POPC   C4A34698  13.171  38.709   7.842
 2431POPC   C1B34699  12.661  38.553   8.611
 2431POPC   C2B34700  12.604  38.379   8.223
 2431POPC   C3B34701  12.748  38.388   7.794
 2431POPC   C4B34702  12.656  38.388   7.375
 2432POPC   NC334703  40.587  26.362   9.705
 2432POPC   PO434704  40.928  25.838   9.521
 2432POPC   GL134705  40.792  26.084   9.195
 2432POPC   GL234706  41.087  26.172   9.013
 2432POPC   C1A34707  40.677  26.015   8.767
 2432POPC   D2A34708  40.520  26.018   8.358
 2432POPC   C3A34709  40.704  25.909   7.989
 2432POPC   C4A34710  40.552  25.948   7.602
 2432POPC   C1B34711  41.062  26.320   8.611
 2432POPC   C2B34712  40.956  26.312   8.211
 2432POPC   C3B34713  41.089  26.203   7.829
 2432POPC   C4B34714  40.964  26.194   7.399
 2433POPC   NC334715  11.928  19.544   9.454
 2433POPC   PO434716  12.404  20.045   9.488
 2433POPC   GL134717  12.136  19.904   9.066
 2433POPC   GL234718  11.814  19.743   9.006
 2433POPC   C1A34719  12.043  19.883   8.587
 2433POPC   D2A34720  12.051  19.648   8.215
 2433POPC   C3A34721  12.355  19.780   7.885
 2433POPC   C4A34722  12.437  19.610   7.483
 2433POPC   C1B34723  11.716  20.184   8.873
 2433POPC   C2B34724  11.574  20.300   8.463
 2433POPC   C3B34725  11.699  20.015   8.151
 2433POPC   C4B34726  11.819  19.818   7.776
 2434POPC   NC334727   5.789  38.223   9.572
 2434POPC   PO434728   6.197  38.722   9.416
 2434POPC   GL134729   6.030  38.431   9.110
 2434POPC   GL234730   5.676  38.361   9.100
 2434POPC   C1A34731   6.045  38.421   8.665
 2434POPC   D2A34732   5.898  38.371   8.255
 2434POPC   C3A34733   6.098  38.600   7.915
 2434POPC   C4A34734   6.346  38.334   7.626
 2434POPC   C1B34735   5.511  38.343   8.691
 2434POPC   C2B34736   5.390  38.463   8.306
 2434POPC   C3B34737   5.561  38.567   7.905
 2434POPC   C4B34738   5.560  38.526   7.452
 2435POPC   NC334739  10.270  43.801   9.578
 2435POPC   PO434740  10.789  44.149   9.685
 2435POPC   GL134741  10.590  44.083   9.262
 2435POPC   GL234742  10.641  43.736   9.179
 2435POPC   C1A34743  10.596  44.101   8.777
 2435POPC   D2A34744  10.421  43.877   8.365
 2435POPC   C3A34745  10.461  44.039   7.941
 2435POPC   C4A34746  10.687  44.079   7.550
 2435POPC   C1B34747  10.514  43.584   8.775
 2435POPC   C2B34748  10.504  43.383   8.373
 2435POPC   C3B34749  10.524  43.532   7.977
 2435POPC   C4B34750  10.335  43.679   7.602
 2436POPC   NC334751  34.735  18.951   9.529
 2436POPC   PO434752  34.478  19.503   9.390
 2436POPC   GL134753  34.730  19.219   9.126
 2436POPC   GL234754  34.409  19.038   9.114
 2436POPC   C1A34755  34.720  18.971   8.740
 2436POPC   D2A34756  34.336  18.969   8.490
 2436POPC   C3A34757  34.449  18.944   8.064
 2436POPC   C4A34758  34.799  18.960   7.796
 2436POPC   C1B34759  34.423  19.399   8.762
 2436POPC   C2B34760  34.250  19.462   8.370
 2436POPC   C3B34761  34.238  19.598   7.957
 2436POPC   C4B34762  34.401  19.301   7.672
 2437POPC   NC334763   7.664   0.307   9.437
 2437POPC   PO434764   7.077   0.013   9.338
 2437POPC   GL134765   7.321   0.256   9.035
 2437POPC   GL234766   7.414   0.615   9.089
 2437POPC   C1A34767   7.662   0.124   8.776
 2437POPC   D2A34768   7.722   0.051   8.326
 2437POPC   C3A34769   7.499   0.383   8.051
 2437POPC   C4A34770   7.102   0.439   7.790
 2437POPC   C1B34771   7.709   0.687   8.732
 2437POPC   C2B34772   7.622   0.867   8.312
 2437POPC   C3B34773   7.317   0.919   8.004
 2437POPC   C4B34774   7.491   0.753   7.659
 2438POPC   NC334775  31.813   8.356   9.423
 2438POPC   PO434776  31.119   8.379   9.514
 2438POPC   GL134777  31.354   8.262   9.206
 2438POPC   GL234778  31.432   7.936   9.286
 2438POPC   C1A34779  31.581   8.206   8.843
 2438POPC   D2A34780  31.744   8.197   8.420
 2438POPC   C3A34781  31.542   8.411   8.095
 2438POPC   C4A34782  31.667   8.132   7.767
 2438POPC   C1B34783  31.176   7.885   8.893
 2438POPC   C2B34784  31.234   8.068   8.493
 2438POPC   C3B34785  31.153   8.069   8.076
 2438POPC   C4B34786  31.211   7.960   7.659
 2439POPC   NC334787  15.978  36.563   9.429
 2439POPC   PO434788  15.648  35.941   9.679
 2439POPC   GL134789  15.797  35.913   9.226
 2439POPC   GL234790  16.075  36.100   9.160
 2439POPC   C1A34791  15.766  36.024   8.741
 2439POPC   D2A34792  15.650  36.058   8.279
 2439POPC   C3A34793  15.769  36.458   8.081
 2439POPC   C4A34794  15.871  36.574   7.651
 2439POPC   C1B34795  16.270  35.932   8.755
 2439POPC   C2B34796  16.194  36.075   8.333
 2439POPC   C3B34797  16.142  36.156   7.879
 2439POPC   C4B34798  16.437  35.949   7.597
 2440POPC   NC334799  18.092  19.821   9.577
 2440POPC   PO434800  17.428  19.766   9.622
 2440POPC   GL134801  17.327  19.668   9.215
 2440POPC   GL234802  17.629  19.567   9.086
 2440POPC   C1A34803  17.251  19.814   8.807
 2440POPC   D2A34804  17.363  20.074   8.413
 2440POPC   C3A34805  17.191  19.917   8.013
 2440POPC   C4A34806  17.235  20.041   7.583
 2440POPC   C1B34807  17.715  19.753   8.656
 2440POPC   C2B34808  17.884  19.926   8.292
 2440POPC   C3B34809  17.703  20.116   7.955
 2440POPC   C4B34810  17.629  20.387   7.595
 2441POPC   NC334811  36.902  16.412   9.531
 2441POPC   PO434812  37.059  17.023   9.494
 2441POPC   GL134813  36.957  16.758   9.160
 2441POPC   GL234814  36.627  16.884   9.208
 2441POPC   C1A34815  36.801  16.521   8.797
 2441POPC   D2A34816  36.947  16.307   8.427
 2441POPC   C3A34817  36.893  16.505   8.034
 2441POPC   C4A34818  37.201  16.729   7.840
 2441POPC   C1B34819  36.757  17.040   8.791
 2441POPC   C2B34820  36.964  16.908   8.390
 2441POPC   C3B34821  36.794  17.020   7.975
 2441POPC   C4B34822  36.721  16.846   7.574
 2442POPC   NC334823  21.046  22.166   9.494
 2442POPC   PO434824  20.418  22.477   9.488
 2442POPC   GL134825  20.576  22.218   9.126
 2442POPC   GL234826  20.868  21.984   9.050
 2442POPC   C1A34827  20.468  22.116   8.716
 2442POPC   D2A34828  20.279  22.324   8.315
 2442POPC   C3A34829  20.348  22.208   7.859
 2442POPC   C4A34830  20.443  22.473   7.490
 2442POPC   C1B34831  20.963  22.061   8.654
 2442POPC   C2B34832  20.736  22.062   8.265
 2442POPC   C3B34833  20.849  22.263   7.885
 2442POPC   C4B34834  20.995  22.055   7.542
 2443POPC   NC334835  23.951  33.740   9.791
 2443POPC   PO434836  24.371  34.102   9.510
 2443POPC   GL134837  24.357  33.811   9.190
 2443POPC   GL234838  24.620  33.617   9.010
 2443POPC   C1A34839  24.279  33.923   8.781
 2443POPC   D2A34840  24.454  34.106   8.449
 2443POPC   C3A34841  24.360  33.855   8.125
 2443POPC   C4A34842  24.209  33.951   7.750
 2443POPC   C1B34843  24.620  33.575   8.575
 2443POPC   C2B34844  24.849  33.805   8.280
 2443POPC   C3B34845  24.794  33.712   7.880
 2443POPC   C4B34846  24.929  33.361   7.640
 2444POPC   NC334847  11.622  44.784   9.598
 2444POPC   PO434848  12.286  44.423   9.587
 2444POPC   GL134849  12.202  44.556   9.154
 2444POPC   GL234850  11.835  44.617   9.154
 2444POPC   C1A34851  12.120  44.819   8.764
 2444POPC   D2A34852  11.999  44.976   8.337
 2444POPC   C3A34853  12.300  44.862   7.981
 2444POPC   C4A34854  12.327  44.450   7.750
 2444POPC   C1B34855  11.704  44.434   8.747
 2444POPC   C2B34856  11.658  44.379   8.286
 2444POPC   C3B34857  11.846  44.647   7.964
 2444POPC   C4B34858  11.685   0.081   7.905
 2445POPC   NC334859   5.670   6.273   9.493
 2445POPC   PO434860   6.083   5.724   9.442
 2445POPC   GL134861   5.884   5.537   9.113
 2445POPC   GL234862   5.655   5.805   9.126
 2445POPC   C1A34863   5.860   5.584   8.695
 2445POPC   D2A34864   5.776   5.867   8.377
 2445POPC   C3A34865   5.793   5.714   7.999
 2445POPC   C4A34866   5.561   5.970   7.706
 2445POPC   C1B34867   5.885   6.076   8.833
 2445POPC   C2B34868   6.196   6.105   8.452
 2445POPC   C3B34869   6.038   6.172   8.046
 2445POPC   C4B34870   6.049   5.956   7.632
 2446POPC   NC334871  30.593   1.570   9.376
 2446POPC   PO434872  31.160   1.185   9.568
 2446POPC   GL134873  30.911   1.112   9.181
 2446POPC   GL234874  30.638   1.260   8.962
 2446POPC   C1A34875  30.976   0.943   8.778
 2446POPC   D2A34876  30.698   0.920   8.454
 2446POPC   C3A34877  30.704   1.183   8.107
 2446POPC   C4A34878  30.718   0.949   7.742
 2446POPC   C1B34879  30.458   1.388   8.553
 2446POPC   C2B34880  30.226   1.479   8.192
 2446POPC   C3B34881  30.405   1.528   7.834
 2446POPC   C4B34882  30.494   1.306   7.469
 2447POPC   NC334883  19.014   3.119   9.446
 2447POPC   PO434884  18.809   2.573   9.430
 2447POPC   GL134885  18.765   2.728   9.040
 2447POPC   GL234886  18.650   3.007   9.073
 2447POPC   C1A34887  18.937   2.789   8.642
 2447POPC   D2A34888  19.197   2.943   8.304
 2447POPC   C3A34889  19.224   2.678   7.931
 2447POPC   C4A34890  19.025   2.728   7.526
 2447POPC   C1B34891  18.555   3.128   8.690
 2447POPC   C2B34892  18.570   2.896   8.307
 2447POPC   C3B34893  18.718   2.761   7.946
 2447POPC   C4B34894  18.623   3.088   7.734
 2448POPC   NC334895  18.423  39.863   9.624
 2448POPC   PO434896  18.231  40.567   9.719
 2448POPC   GL134897  18.371  40.257   9.295
 2448POPC   GL234898  18.161  40.029   9.181
 2448POPC   C1A34899  18.543  39.981   8.859
 2448POPC   D2A34900  18.594  39.758   8.398
 2448POPC   C3A34901  18.588  39.923   7.972
 2448POPC   C4A34902  18.884  40.164   7.718
 2448POPC   C1B34903  17.986  39.946   8.801
 2448POPC   C2B34904  18.085  39.849   8.388
 2448POPC   C3B34905  18.086  40.045   7.974
 2448POPC   C4B34906  17.878  40.116   7.584
 2449POPC   NC334907   1.852  13.744   9.682
 2449POPC   PO434908   2.333  13.576   9.286
 2449POPC   GL134909   2.040  13.657   9.030
 2449POPC   GL234910   1.854  13.327   8.907
 2449POPC   C1A34911   2.102  13.921   8.662
 2449POPC   D2A34912   1.936  14.054   8.256
 2449POPC   C3A34913   2.176  13.919   7.922
 2449POPC   C4A34914   1.916  13.583   7.750
 2449POPC   C1B34915   2.232  13.429   8.626
 2449POPC   C2B34916   2.287  13.486   8.192
 2449POPC   C3B34917   2.330  13.244   7.807
 2449POPC   C4B34918   2.105  13.239   7.416
 2450POPC   NC334919  28.103  17.464   9.568
 2450POPC   PO434920  28.653  17.726   9.300
 2450POPC   GL134921  28.335  17.570   9.083
 2450POPC   GL234922  28.563  17.344   8.931
 2450POPC   C1A34923  28.166  17.567   8.668
 2450POPC   D2A34924  28.388  17.417   8.302
 2450POPC   C3A34925  28.174  17.415   7.927
 2450POPC   C4A34926  27.979  17.773   7.799
 2450POPC   C1B34927  28.679  17.670   8.656
 2450POPC   C2B34928  28.672  17.884   8.300
 2450POPC   C3B34929  28.584  17.717   7.903
 2450POPC   C4B34930  28.637  17.317   7.703
 2451POPC   NC334931  29.845   2.154   9.469
 2451POPC   PO434932  30.313   1.683   9.750
 2451POPC   GL134933  30.085   1.705   9.284
 2451POPC   GL234934  29.768   1.692   9.142
 2451POPC   C1A34935  30.102   1.880   8.808
 2451POPC   D2A34936  30.176   1.961   8.351
 2451POPC   C3A34937  29.843   1.861   8.040
 2451POPC   C4A34938  29.761   1.971   7.600
 2451POPC   C1B34939  29.591   1.715   8.703
 2451POPC   C2B34940  29.442   1.601   8.256
 2451POPC   C3B34941  29.404   1.649   7.784
 2451POPC   C4B34942  29.622   1.537   7.355
 2452POPC   NC334943   8.226   5.854   9.566
 2452POPC   PO434944   7.756   6.357   9.405
 2452POPC   GL134945   7.980   6.011   9.138
 2452POPC   GL234946   8.328   5.788   9.083
 2452POPC   C1A34947   8.157   6.090   8.715
 2452POPC   D2A34948   7.992   5.844   8.386
 2452POPC   C3A34949   8.079   5.964   7.981
 2452POPC   C4A34950   8.400   5.782   7.778
 2452POPC   C1B34951   8.026   5.558   8.819
 2452POPC   C2B34952   7.655   5.415   8.541
 2452POPC   C3B34953   7.641   5.435   8.053
 2452POPC   C4B34954   7.925   5.557   7.685
 2453POPC   NC334955  25.599  25.341   9.217
 2453POPC   PO434956  26.120  25.021   9.567
 2453POPC   GL134957  26.000  25.049   9.145
 2453POPC   GL234958  26.140  25.397   9.234
 2453POPC   C1A34959  25.858  25.016   8.704
 2453POPC   D2A34960  25.978  25.024   8.266
 2453POPC   C3A34961  25.823  25.335   7.974
 2453POPC   C4A34962  25.837  25.313   7.524
 2453POPC   C1B34963  26.317  25.434   8.856
 2453POPC   C2B34964  26.328  25.457   8.423
 2453POPC   C3B34965  26.314  25.491   7.967
 2453POPC   C4B34966  26.253  25.116   7.728
 2454POPC   NC334967  16.169  17.274   9.825
 2454POPC   PO434968  15.703  17.763   9.602
 2454POPC   GL134969  15.853  17.671   9.204
 2454POPC   GL234970  16.093  17.426   9.159
 2454POPC   C1A34971  15.853  17.738   8.783
 2454POPC   D2A34972  15.926  17.555   8.406
 2454POPC   C3A34973  15.789  17.872   8.146
 2454POPC   C4A34974  15.707  17.921   7.756
 2454POPC   C1B34975  16.331  17.540   8.788
 2454POPC   C2B34976  16.461  17.519   8.390
 2454POPC   C3B34977  16.224  17.327   8.051
 2454POPC   C4B34978  15.830  17.412   7.897
 2455POPC   NC334979  38.167  26.175   9.894
 2455POPC   PO434980  38.453  26.702   9.486
 2455POPC   GL134981  38.651  26.747   9.110
 2455POPC   GL234982  38.563  26.443   9.024
 2455POPC   C1A34983  38.696  26.861   8.674
 2455POPC   D2A34984  38.841  27.102   8.326
 2455POPC   C3A34985  38.617  26.921   7.967
 2455POPC   C4A34986  38.692  27.011   7.515
 2455POPC   C1B34987  38.295  26.556   8.695
 2455POPC   C2B34988  38.382  26.572   8.270
 2455POPC   C3B34989  38.315  26.442   7.850
 2455POPC   C4B34990  38.312  26.567   7.399
 2456POPC   NC334991   3.346  23.613   9.636
 2456POPC   PO434992   4.097  23.404   9.618
 2456POPC   GL134993   3.824  23.535   9.234
 2456POPC   GL234994   3.500  23.377   9.225
 2456POPC   C1A34995   3.644  23.700   8.809
 2456POPC   D2A34996   3.486  23.906   8.390
 2456POPC   C3A34997   3.603  23.730   7.965
 2456POPC   C4A34998   3.989  23.839   7.674
 2456POPC   C1B34999   3.293  23.327   8.840
 2456POPC   C2B35000   3.388  23.407   8.416
 2456POPC   C3B35001   3.252  23.317   8.005
 2456POPC   C4B35002   3.542  23.342   7.637
 2457POPC   NC335003  13.763  14.985   9.661
 2457POPC   PO435004  13.733  15.676   9.637
 2457POPC   GL135005  13.433  15.567   9.334
 2457POPC   GL235006  13.522  15.209   9.252
 2457POPC   C1A35007  13.440  15.544   8.881
 2457POPC   D2A35008  13.470  15.577   8.456
 2457POPC   C3A35009  13.527  15.542   8.017
 2457POPC   C4A35010  13.789  15.237   7.830
 2457POPC   C1B35011  13.795  15.188   8.842
 2457POPC   C2B35012  13.930  15.245   8.385
 2457POPC   C3B35013  14.140  14.966   8.072
 2457POPC   C4B35014  14.102  14.831   7.684
 2458POPC   NC335015  22.932  35.062   9.463
 2458POPC   PO435016  22.782  35.682   9.455
 2458POPC   GL135017  23.011  35.451   9.149
 2458POPC   GL235018  23.211  35.699   9.088
 2458POPC   C1A35019  23.119  35.277   8.724
 2458POPC   D2A35020  22.796  35.321   8.389
 2458POPC   C3A35021  22.807  35.120   7.997
 2458POPC   C4A35022  22.966  35.309   7.636
 2458POPC   C1B35023  22.902  35.719   8.733
 2458POPC   C2B35024  23.127  35.727   8.373
 2458POPC   C3B35025  23.218  35.616   7.981
 2458POPC   C4B35026  23.085  35.800   7.628
 2459POPC   NC335027  20.803  12.220   9.510
 2459POPC   PO435028  20.280  11.805   9.480
 2459POPC   GL135029  20.450  12.050   9.135
 2459POPC   GL235030  20.543  12.378   9.112
 2459POPC   C1A35031  20.748  12.033   8.761
 2459POPC   D2A35032  20.841  11.756   8.390
 2459POPC   C3A35033  20.672  11.847   8.004
 2459POPC   C4A35034  20.805  11.956   7.618
 2459POPC   C1B35035  20.749  12.550   8.765
 2459POPC   C2B35036  20.787  12.399   8.351
 2459POPC   C3B35037  20.614  12.532   7.942
 2459POPC   C4B35038  20.457  12.378   7.538
 2460POPC   NC335039  37.734  30.170   9.498
 2460POPC   PO435040  37.917  29.525   9.590
 2460POPC   GL135041  37.817  29.758   9.214
 2460POPC   GL235042  37.458  29.765   9.282
 2460POPC   C1A35043  37.971  29.915   8.799
 2460POPC   D2A35044  37.988  30.045   8.364
 2460POPC   C3A35045  37.625  30.022   8.087
 2460POPC   C4A35046  37.629  30.006   7.630
 2460POPC   C1B35047  37.461  29.866   8.843
 2460POPC   C2B35048  37.416  29.674   8.425
 2460POPC   C3B35049  37.263  29.551   8.027
 2460POPC   C4B35050  37.306  29.614   7.609
 2461POPC   NC335051  42.562  43.569   9.578
 2461POPC   PO435052  43.222  43.792   9.805
 2461POPC   GL135053  43.001  43.754   9.367
 2461POPC   GL235054  42.888  43.486   9.197
 2461POPC   C1A35055  42.941  43.938   8.946
 2461POPC   D2A35056  42.983  43.858   8.491
 2461POPC   C3A35057  42.867  44.039   8.084
 2461POPC   C4A35058  42.955  43.931   7.676
 2461POPC   C1B35059  42.666  43.544   8.788
 2461POPC   C2B35060  42.812  43.378   8.419
 2461POPC   C3B35061  42.906  43.543   8.046
 2461POPC   C4B35062  42.575  43.623   7.768
 2462POPC   NC335063  13.790  27.477   9.539
 2462POPC   PO435064  13.300  27.893   9.753
 2462POPC   GL135065  13.433  27.671   9.250
 2462POPC   GL235066  13.810  27.795   9.136
 2462POPC   C1A35067  13.502  27.670   8.758
 2462POPC   D2A35068  13.837  27.775   8.442
 2462POPC   C3A35069  13.714  27.884   8.013
 2462POPC   C4A35070  13.739  27.904   7.587
 2462POPC   C1B35071  13.904  27.393   8.884
 2462POPC   C2B35072  13.917  27.260   8.443
 2462POPC   C3B35073  13.968  27.437   8.052
 2462POPC   C4B35074  14.038  27.298   7.671
 2463POPC   NC335075  25.261  35.893   9.464
 2463POPC   PO435076  25.608  36.485   9.525
 2463POPC   GL135077  25.424  36.289   9.151
 2463POPC   GL235078  25.065  36.158   9.073
 2463POPC   C1A35079  25.456  36.409   8.722
 2463POPC   D2A35080  25.449  36.371   8.293
 2463POPC   C3A35081  25.124  36.139   8.123
 2463POPC   C4A35082  25.245  36.080   7.673
 2463POPC   C1B35083  25.303  35.837   8.826
 2463POPC   C2B35084  25.446  35.831   8.417
 2463POPC   C3B35085  25.323  35.696   7.998
 2463POPC   C4B35086  24.895  35.757   7.875
 2464POPC   NC335087   3.152   3.728   9.470
 2464POPC   PO435088   2.592   3.385   9.675
 2464POPC   GL135089   2.665   3.397   9.155
 2464POPC   GL235090   2.984   3.519   9.058
 2464POPC   C1A35091   2.682   3.582   8.668
 2464POPC   D2A35092   2.500   3.753   8.276
 2464POPC   C3A35093   2.446   3.524   7.876
 2464POPC   C4A35094   2.640   3.315   7.530
 2464POPC   C1B35095   3.150   3.798   8.752
 2464POPC   C2B35096   3.020   3.806   8.324
 2464POPC   C3B35097   2.882   3.807   7.893
 2464POPC   C4B35098   3.098   3.784   7.477
 2465POPC   NC335099  42.528  14.885   9.837
 2465POPC   PO435100  42.974  15.259   9.435
 2465POPC   GL135101  43.084  15.187   9.052
 2465POPC   GL235102  42.830  15.412   8.961
 2465POPC   C1A35103  43.279  15.092   8.646
 2465POPC   D2A35104  43.171  14.883   8.273
 2465POPC   C3A35105  43.105  15.243   8.030
 2465POPC   C4A35106  43.342  15.458   7.713
 2465POPC   C1B35107  42.779  15.035   8.685
 2465POPC   C2B35108  42.587  14.868   8.355
 2465POPC   C3B35109  42.740  14.835   7.934
 2465POPC   C4B35110  42.693  15.229   7.712
 2466POPC   NC335111  38.133  28.084   9.538
 2466POPC   PO435112  38.725  28.351   9.532
 2466POPC   GL135113  38.540  28.442   9.169
 2466POPC   GL235114  38.429  28.098   9.141
 2466POPC   C1A35115  38.386  28.375   8.741
 2466POPC   D2A35116  38.598  28.231   8.384
 2466POPC   C3A35117  38.501  28.403   7.974
 2466POPC   C4A35118  38.682  28.648   7.616
 2466POPC   C1B35119  38.098  27.975   8.814
 2466POPC   C2B35120  38.088  28.181   8.382
 2466POPC   C3B35121  38.082  28.078   7.943
 2466POPC   C4B35122  38.194  28.339   7.568
 2467POPC   NC335123  25.753   7.563   9.490
 2467POPC   PO435124  26.434   7.488   9.605
 2467POPC   GL135125  26.178   7.358   9.231
 2467POPC   GL235126  25.964   7.597   9.029
 2467POPC   C1A35127  26.283   7.328   8.778
 2467POPC   D2A35128  26.085   7.593   8.453
 2467POPC   C3A35129  26.355   7.626   8.121
 2467POPC   C4A35130  26.320   7.471   7.730
 2467POPC   C1B35131  25.657   7.492   8.730
 2467POPC   C2B35132  25.615   7.372   8.301
 2467POPC   C3B35133  25.839   7.555   7.904
 2467POPC   C4B35134  25.920   7.313   7.478
 2468POPC   NC335135  29.490  22.882   9.358
 2468POPC   PO435136  29.073  23.268   9.698
 2468POPC   GL135137  29.058  23.180   9.189
 2468POPC   GL235138  29.068  22.814   9.069
 2468POPC   C1A35139  28.966  23.156   8.734
 2468POPC   D2A35140  28.729  23.151   8.360
 2468POPC   C3A35141  28.965  23.339   8.074
 2468POPC   C4A35142  29.247  23.233   7.777
 2468POPC   C1B35143  29.173  22.646   8.655
 2468POPC   C2B35144  29.400  22.602   8.241
 2468POPC   C3B35145  29.350  22.597   7.752
 2468POPC   C4B35146  29.479  22.602   7.264
 2469POPC   NC335147   2.352  19.689   9.828
 2469POPC   PO435148   2.314  20.292   9.580
 2469POPC   GL135149   2.225  20.028   9.192
 2469POPC   GL235150   2.235  19.681   9.331
 2469POPC   C1A35151   2.158  20.020   8.700
 2469POPC   D2A35152   2.337  20.081   8.247
 2469POPC   C3A35153   2.060  20.050   7.884
 2469POPC   C4A35154   1.791  20.093   7.510
 2469POPC   C1B35155   2.381  19.596   8.904
 2469POPC   C2B35156   2.333  19.602   8.435
 2469POPC   C3B35157   2.315  19.614   7.959
 2469POPC   C4B35158   2.143  19.708   7.513
 2470POPC   NC335159  39.551  44.259   9.493
 2470POPC   PO435160  39.452  43.646   9.594
 2470POPC   GL135161  39.301  43.740   9.195
 2470POPC   GL235162  39.299  44.082   9.061
 2470POPC   C1A35163  39.124  43.650   8.792
 2470POPC   D2A35164  39.025  43.883   8.428
 2470POPC   C3A35165  39.168  43.834   8.016
 2470POPC   C4A35166  38.927  43.878   7.651
 2470POPC   C1B35167  39.542  43.973   8.690
 2470POPC   C2B35168  39.680  44.053   8.263
 2470POPC   C3B35169  39.676  43.798   7.867
 2470POPC   C4B35170  39.410  43.832   7.501
 2471POPC   NC335171  32.490  39.922   9.691
 2471POPC   PO435172  33.009  40.298   9.620
 2471POPC   GL135173  33.016  40.179   9.188
 2471POPC   GL235174  32.779  39.934   9.243
 2471POPC   C1A35175  33.142  40.029   8.761
 2471POPC   D2A35176  33.172  40.204   8.342
 2471POPC   C3A35177  33.365  40.032   7.950
 2471POPC   C4A35178  33.383  40.178   7.518
 2471POPC   C1B35179  32.639  40.060   8.838
 2471POPC   C2B35180  32.742  39.931   8.427
 2471POPC   C3B35181  32.850  39.940   8.006
 2471POPC   C4B35182  32.938  39.830   7.595
 2472POPC   NC335183   3.029  14.353   9.528
 2472POPC   PO435184   2.471  14.655   9.305
 2472POPC   GL135185   2.781  14.437   9.076
 2472POPC   GL235186   3.009  14.720   9.110
 2472POPC   C1A35187   2.696  14.226   8.676
 2472POPC   D2A35188   2.406  14.212   8.331
 2472POPC   C3A35189   2.593  14.264   7.919
 2472POPC   C4A35190   2.791  14.601   7.668
 2472POPC   C1B35191   3.115  14.534   8.696
 2472POPC   C2B35192   2.968  14.450   8.276
 2472POPC   C3B35193   3.196  14.675   7.951
 2472POPC   C4B35194   3.295  14.656   7.514
 2473POPC   NC335195  40.973  29.558   9.444
 2473POPC   PO435196  40.519  30.058   9.615
 2473POPC   GL135197  40.791  30.006   9.242
 2473POPC   GL235198  40.813  29.712   9.006
 2473POPC   C1A35199  40.965  30.193   8.875
 2473POPC   D2A35200  41.022  30.094   8.440
 2473POPC   C3A35201  40.771  30.076   8.072
 2473POPC   C4A35202  40.943  29.829   7.773
 2473POPC   C1B35203  40.556  29.880   8.711
 2473POPC   C2B35204  40.605  29.674   8.349
 2473POPC   C3B35205  40.475  29.671   7.951
 2473POPC   C4B35206  40.218  29.746   7.607
 2474POPC   NC335207  26.354  39.974   9.381
 2474POPC   PO435208  25.709  40.012   9.648
 2474POPC   GL135209  25.830  40.122   9.183
 2474POPC   GL235210  25.959  39.812   9.050
 2474POPC   C1A35211  25.927  40.216   8.724
 2474POPC   D2A35212  25.834  39.934   8.372
 2474POPC   C3A35213  25.919  40.159   7.998
 2474POPC   C4A35214  26.313  40.016   7.803
 2474POPC   C1B35215  26.200  39.487   8.823
 2474POPC   C2B35216  26.485  39.369   8.472
 2474POPC   C3B35217  26.352  39.584   8.092
 2474POPC   C4B35218  25.914  39.651   7.938
 2475POPC   NC335219  24.908  21.316   9.474
 2475POPC   PO435220  25.485  21.052   9.724
 2475POPC   GL135221  25.371  21.500   9.336
 2475POPC   GL235222  25.082  21.369   9.030
 2475POPC   C1A35223  25.465  21.608   8.862
 2475POPC   D2A35224  25.292  21.290   8.550
 2475POPC   C3A35225  25.319  21.366   8.101
 2475POPC   C4A35226  25.090  21.221   7.779
 2475POPC   C1B35227  24.971  21.678   8.730
 2475POPC   C2B35228  25.184  21.792   8.386
 2475POPC   C3B35229  24.935  21.749   8.042
 2475POPC   C4B35230  24.802  21.626   7.679
 2476POPC   NC335231   5.357  30.514   9.506
 2476POPC   PO435232   4.817  30.826   9.506
 2476POPC   GL135233   5.044  30.718   9.133
 2476POPC   GL235234   5.328  30.898   9.080
 2476POPC   C1A35235   5.180  30.579   8.695
 2476POPC   D2A35236   5.300  30.375   8.254
 2476POPC   C3A35237   5.044  30.519   7.868
 2476POPC   C4A35238   4.970  30.554   7.397
 2476POPC   C1B35239   5.499  31.027   8.706
 2476POPC   C2B35240   5.361  30.877   8.305
 2476POPC   C3B35241   5.488  30.755   7.871
 2476POPC   C4B35242   5.620  31.011   7.509
 2477POPC   NC335243  25.506  14.508   9.503
 2477POPC   PO435244  26.203  14.462   9.458
 2477POPC   GL135245  26.244  14.164   9.038
 2477POPC   GL235246  25.917  14.235   9.016
 2477POPC   C1A35247  26.139  14.153   8.568
 2477POPC   D2A35248  25.793  14.332   8.358
 2477POPC   C3A35249  25.992  14.316   7.941
 2477POPC   C4A35250  26.376  14.082   7.836
 2477POPC   C1B35251  26.216  14.592   8.790
 2477POPC   C2B35252  26.210  14.618   8.327
 2477POPC   C3B35253  26.404  14.642   7.944
 2477POPC   C4B35254  26.224  14.718   7.523
 2478POPC   NC335255   5.820  24.137   9.427
 2478POPC   PO435256   6.058  24.785   9.484
 2478POPC   GL135257   6.101  24.478   9.158
 2478POPC   GL235258   5.751  24.496   9.056
 2478POPC   C1A35259   6.077  24.246   8.763
 2478POPC   D2A35260   5.898  24.429   8.432
 2478POPC   C3A35261   6.134  24.521   8.136
 2478POPC   C4A35262   6.097  24.450   7.746
 2478POPC   C1B35263   5.480  24.362   8.709
 2478POPC   C2B35264   5.327  24.241   8.305
 2478POPC   C3B35265   5.615  24.413   8.009
 2478POPC   C4B35266   5.608  24.563   7.618
 2479POPC   NC335267  39.596  24.200   9.539
 2479POPC   PO435268  39.091  24.578   9.615
 2479POPC   GL135269  39.197  24.507   9.184
 2479POPC   GL235270  39.347  24.164   9.111
 2479POPC   C1A35271  39.233  24.804   8.830
 2479POPC   D2A35272  39.164  25.051   8.456
 2479POPC   C3A35273  39.259  24.783   8.076
 2479POPC   C4A35274  39.063  24.486   7.769
 2479POPC   C1B35275  39.522  24.379   8.778
 2479POPC   C2B35276  39.416  24.387   8.369
 2479POPC   C3B35277  39.503  24.329   7.968
 2479POPC   C4B35278  39.354  24.096   7.618
 2480POPC   NC335279  21.900  18.221   9.826
 2480POPC   PO435280  22.311  17.830   9.487
 2480POPC   GL135281  22.165  18.131   9.171
 2480POPC   GL235282  21.832  18.261   9.290
 2480POPC   C1A35283  22.262  18.318   8.728
 2480POPC   D2A35284  22.316  18.498   8.264
 2480POPC   C3A35285  22.215  18.186   7.926
 2480POPC   C4A35286  21.943  17.798   7.864
 2480POPC   C1B35287  21.718  18.365   8.852
 2480POPC   C2B35288  21.838  18.456   8.411
 2480POPC   C3B35289  21.890  18.615   7.968
 2480POPC   C4B35290  21.692  18.493   7.556
 2481POPC   NC335291   1.446  16.662   9.439
 2481POPC   PO435292   0.880  16.508   9.418
 2481POPC   GL135293   1.190  16.482   9.020
 2481POPC   GL235294   1.415  16.757   8.956
 2481POPC   C1A35295   1.379  16.453   8.554
 2481POPC   D2A35296   1.620  16.658   8.193
 2481POPC   C3A35297   1.468  16.553   7.769
 2481POPC   C4A35298   1.469  16.520   7.313
 2481POPC   C1B35299   1.559  16.995   8.641
 2481POPC   C2B35300   1.452  17.147   8.233
 2481POPC   C3B35301   1.519  17.076   7.794
 2481POPC   C4B35302   1.689  17.144   7.365
 2482POPC   NC335303  15.104  43.745   9.616
 2482POPC   PO435304  15.463  44.313   9.462
 2482POPC   GL135305  15.231  44.026   9.184
 2482POPC   GL235306  15.316  43.665   9.163
 2482POPC   C1A35307  15.140  44.075   8.734
 2482POPC   D2A35308  14.966  43.963   8.292
 2482POPC   C3A35309  15.180  44.099   7.885
 2482POPC   C4A35310  15.246  43.916   7.429
 2482POPC   C1B35311  15.211  43.547   8.747
 2482POPC   C2B35312  15.486  43.520   8.392
 2482POPC   C3B35313  15.305  43.457   8.021
 2482POPC   C4B35314  15.018  43.597   7.735
 2483POPC   NC335315   0.794  39.343   9.507
 2483POPC   PO435316   0.108  39.242   9.470
 2483POPC   GL135317   0.302  39.320   9.094
 2483POPC   GL235318   0.622  39.410   9.031
 2483POPC   C1A35319   0.218  39.522   8.698
 2483POPC   D2A35320  44.995  39.488   8.309
 2483POPC   C3A35321   0.312  39.350   8.003
 2483POPC   C4A35322   0.566  39.401   7.598
 2483POPC   C1B35323   0.537  39.092   8.705
 2483POPC   C2B35324   0.615  39.026   8.302
 2483POPC   C3B35325   0.735  39.053   7.913
 2483POPC   C4B35326   0.716  38.727   7.627
 2484POPC   NC335327  39.913   0.114   9.507
 2484POPC   PO435328  40.163   0.775   9.385
 2484POPC   GL135329  40.038   0.449   9.136
 2484POPC   GL235330  39.702   0.373   9.066
 2484POPC   C1A35331  40.104   0.219   8.774
 2484POPC   D2A35332  39.911   0.320   8.421
 2484POPC   C3A35333  39.841   0.073   8.034
 2484POPC   C4A35334  39.579   0.197   7.683
 2484POPC   C1B35335  39.737   0.685   8.766
 2484POPC   C2B35336  39.762   0.866   8.339
 2484POPC   C3B35337  39.883   0.586   8.007
 2484POPC   C4B35338  39.970   0.540   7.583
 2485POPC   NC335339  38.003  43.947   9.595
 2485POPC   PO435340  37.348  44.164   9.363
 2485POPC   GL135341  37.673  43.900   9.163
 2485POPC   GL235342  37.990  44.070   9.116
 2485POPC   C1A35343  37.896  43.614   8.883
 2485POPC   D2A35344  37.909  43.447   8.484
 2485POPC   C3A35345  37.780  43.656   8.106
 2485POPC   C4A35346  37.981  43.710   7.702
 2485POPC   C1B35347  37.827  44.096   8.714
 2485POPC   C2B35348  38.041  44.065   8.330
 2485POPC   C3B35349  37.894  44.178   7.918
 2485POPC   C4B35350  37.705  44.082   7.501
 2486POPC   NC335351  12.831  19.693   9.553
 2486POPC   PO435352  12.336  19.324   9.350
 2486POPC   GL135353  12.575  19.676   9.116
 2486POPC   GL235354  12.923  19.861   9.096
 2486POPC   C1A35355  12.567  19.889   8.724
 2486POPC   D2A35356  12.772  19.747   8.345
 2486POPC   C3A35357  12.793  20.033   8.063
 2486POPC   C4A35358  12.836  19.883   7.675
 2486POPC   C1B35359  13.122  19.910   8.711
 2486POPC   C2B35360  13.295  20.055   8.314
 2486POPC   C3B35361  13.291  20.016   7.864
 2486POPC   C4B35362  13.336  19.798   7.480
 2487POPC   NC335363  14.073  43.184   9.501
 2487POPC   PO435364  13.460  43.126   9.580
 2487POPC   GL135365  13.649  43.123   9.221
 2487POPC   GL235366  13.705  43.430   9.179
 2487POPC   C1A35367  13.822  43.040   8.824
 2487POPC   D2A35368  13.603  43.012   8.455
 2487POPC   C3A35369  13.873  42.957   8.115
 2487POPC   C4A35370  13.756  43.041   7.708
 2487POPC   C1B35371  13.753  43.597   8.767
 2487POPC   C2B35372  13.825  43.458   8.346
 2487POPC   C3B35373  13.849  43.547   7.912
 2487POPC   C4B35374  13.855  43.472   7.467
 2488POPC   NC335375  44.099  44.574   9.532
 2488POPC   PO435376  43.416  44.538   9.724
 2488POPC   GL135377  43.606  44.586   9.267
 2488POPC   GL235378  43.950  44.714   9.074
 2488POPC   C1A35379  43.552  44.637   8.805
 2488POPC   D2A35380  43.624  44.403   8.442
 2488POPC   C3A35381  43.583  44.652   8.090
 2488POPC   C4A35382  43.932  44.728   7.829
 2488POPC   C1B35383  44.054  44.459   8.722
 2488POPC   C2B35384  44.112  44.389   8.258
 2488POPC   C3B35385  44.222  44.294   7.816
 2488POPC   C4B35386  43.990  44.379   7.449
 2489POPC   NC335387  30.429   5.526   9.681
 2489POPC   PO435388  30.830   6.006   9.480
 2489POPC   GL135389  30.561   5.840   9.199
 2489POPC   GL235390  30.549   5.512   9.163
 2489POPC   C1A35391  30.620   5.863   8.747
 2489POPC   D2A35392  30.893   6.007   8.410
 2489POPC   C3A35393  30.773   5.881   8.007
 2489POPC   C4A35394  31.045   5.773   7.674
 2489POPC   C1B35395  30.504   5.354   8.735
 2489POPC   C2B35396  30.513   5.475   8.304
 2489POPC   C3B35397  30.208   5.547   7.961
 2489POPC   C4B35398  30.224   5.414   7.530
 2490POPC   NC335399   2.068   9.617   9.547
 2490POPC   PO435400   1.501   9.899   9.672
 2490POPC   GL135401   1.685   9.840   9.225
 2490POPC   GL235402   2.047   9.900   9.130
 2490POPC   C1A35403   1.711   9.678   8.792
 2490POPC   D2A35404   2.017   9.738   8.441
 2490POPC   C3A35405   1.839   9.663   8.037
 2490POPC   C4A35406   1.726   9.962   7.713
 2490POPC   C1B35407   2.356  10.017   8.808
 2490POPC   C2B35408   2.503  10.114   8.367
 2490POPC   C3B35409   2.241  10.002   8.018
 2490POPC   C4B35410   2.210   9.701   7.680
 2491POPC   NC335411  27.687  40.407   9.789
 2491POPC   PO435412  27.333  40.882   9.470
 2491POPC   GL135413  27.376  40.742   9.064
 2491POPC   GL235414  27.669  40.876   9.049
 2491POPC   C1A35415  27.604  40.556   8.662
 2491POPC   D2A35416  27.960  40.552   8.393
 2491POPC   C3A35417  27.835  40.502   7.990
 2491POPC   C4A35418  27.850  40.739   7.634
 2491POPC   C1B35419  27.493  41.050   8.667
 2491POPC   C2B35420  27.531  40.897   8.237
 2491POPC   C3B35421  27.583  41.119   7.856
 2491POPC   C4B35422  27.426  41.067   7.443
 2492POPC   NC335423  16.466  43.301   9.588
 2492POPC   PO435424  17.063  42.878   9.508
 2492POPC   GL135425  16.882  42.900   9.128
 2492POPC   GL235426  16.588  43.064   9.161
 2492POPC   C1A35427  16.916  43.178   8.776
 2492POPC   D2A35428  16.645  43.223   8.411
 2492POPC   C3A35429  16.827  43.155   7.975
 2492POPC   C4A35430  16.935  43.242   7.541
 2492POPC   C1B35431  16.499  42.848   8.772
 2492POPC   C2B35432  16.301  42.710   8.387
 2492POPC   C3B35433  16.361  42.979   8.058
 2492POPC   C4B35434  16.240  43.144   7.707
 2493POPC   NC335435  28.236   7.227   9.528
 2493POPC   PO435436  28.711   7.694   9.671
 2493POPC   GL135437  28.421   7.627   9.290
 2493POPC   GL235438  28.605   7.341   9.140
 2493POPC   C1A35439  28.220   7.533   8.865
 2493POPC   D2A35440  27.890   7.544   8.517
 2493POPC   C3A35441  27.915   7.393   8.070
 2493POPC   C4A35442  28.153   7.393   7.678
 2493POPC   C1B35443  28.711   7.361   8.679
 2493POPC   C2B35444  28.640   7.300   8.245
 2493POPC   C3B35445  28.653   7.322   7.795
 2493POPC   C4B35446  28.686   7.283   7.368
 2494POPC   NC335447  43.395  43.412   9.543
 2494POPC   PO435448  42.718  43.070   9.516
 2494POPC   GL135449  43.009  42.985   9.203
 2494POPC   GL235450  42.873  42.677   9.078
 2494POPC   C1A35451  43.118  43.233   8.826
 2494POPC   D2A35452  43.234  43.102   8.412
 2494POPC   C3A35453  42.997  43.045   8.046
 2494POPC   C4A35454  42.945  43.215   7.661
 2494POPC   C1B35455  43.083  42.683   8.697
 2494POPC   C2B35456  43.055  42.584   8.266
 2494POPC   C3B35457  43.128  42.596   7.825
 2494POPC   C4B35458  43.136  42.696   7.361
 2495POPC   NC335459  37.017  33.776   9.502
 2495POPC   PO435460  36.489  33.509   9.217
 2495POPC   GL135461  36.902  33.607   9.039
 2495POPC   GL235462  37.002  33.989   9.038
 2495POPC   C1A35463  37.121  33.628   8.656
 2495POPC   D2A35464  36.923  33.793   8.313
 2495POPC   C3A35465  36.883  33.570   7.946
 2495POPC   C4A35466  36.827  33.589   7.486
 2495POPC   C1B35467  37.241  34.118   8.657
 2495POPC   C2B35468  37.406  33.917   8.277
 2495POPC   C3B35469  37.153  34.030   7.931
 2495POPC   C4B35470  37.019  34.354   7.728
 2496POPC   NC335471  19.944  39.771   9.485
 2496POPC   PO435472  19.713  40.445   9.346
 2496POPC   GL135473  19.925  40.116   9.100
 2496POPC   GL235474  19.841  39.779   8.986
 2496POPC   C1A35475  19.967  40.171   8.656
 2496POPC   D2A35476  20.107  40.208   8.251
 2496POPC   C3A35477  19.901  40.075   7.897
 2496POPC   C4A35478  19.871  40.198   7.463
 2496POPC   C1B35479  20.143  39.695   8.666
 2496POPC   C2B35480  20.042  39.671   8.229
 2496POPC   C3B35481  20.272  39.729   7.838
 2496POPC   C4B35482  20.142  39.723   7.382
 2497POPC   NC335483  15.017   6.102   9.515
 2497POPC   PO435484  14.907   5.428   9.410
 2497POPC   GL135485  15.276   5.712   9.284
 2497POPC   GL235486  15.055   5.803   9.088
 2497POPC   C1A35487  15.430   6.065   8.936
 2497POPC   D2A35488  15.260   6.129   8.511
 2497POPC   C3A35489  15.369   5.831   8.184
 2497POPC   C4A35490  15.219   5.838   7.767
 2497POPC   C1B35491  14.869   5.888   8.750
 2497POPC   C2B35492  14.704   5.647   8.445
 2497POPC   C3B35493  14.862   5.657   8.079
 2497POPC   C4B35494  14.702   5.868   7.755
 2498POPC   NC335495  23.370  18.631   9.542
 2498POPC   PO435496  24.042  18.780   9.545
 2498POPC   GL135497  23.779  18.588   9.181
 2498POPC   GL235498  23.581  18.255   9.192
 2498POPC   C1A35499  23.580  18.548   8.746
 2498POPC   D2A35500  23.725  18.381   8.342
 2498POPC   C3A35501  23.749  18.652   8.006
 2498POPC   C4A35502  23.700  18.556   7.563
 2498POPC   C1B35503  23.949  18.028   9.025
 2498POPC   C2B35504  24.173  17.933   8.627
 2498POPC   C3B35505  24.026  17.980   8.197
 2498POPC   C4B35506  23.853  18.096   7.780
 2499POPC   NC335507  34.181  30.790   9.648
 2499POPC   PO435508  34.611  30.349   9.422
 2499POPC   GL135509  34.597  30.550   9.079
 2499POPC   GL235510  34.301  30.770   9.118
 2499POPC   C1A35511  34.822  30.570   8.723
 2499POPC   D2A35512  34.549  30.528   8.387
 2499POPC   C3A35513  34.771  30.374   8.095
 2499POPC   C4A35514  34.942  30.360   7.686
 2499POPC   C1B35515  34.470  30.926   8.756
 2499POPC   C2B35516  34.647  31.052   8.397
 2499POPC   C3B35517  34.440  30.929   8.063
 2499POPC   C4B35518  34.536  30.669   7.725
 2500POPC   NC335519  31.031   3.259   9.399
 2500POPC   PO435520  30.561   3.683   9.597
 2500POPC   GL135521  30.620   3.903   9.203
 2500POPC   GL235522  30.934   3.739   9.091
 2500POPC   C1A35523  30.682   4.040   8.755
 2500POPC   D2A35524  30.962   3.787   8.444
 2500POPC   C3A35525  30.790   3.755   8.029
 2500POPC   C4A35526  30.780   4.042   7.704
 2500POPC   C1B35527  31.126   3.417   8.787
 2500POPC   C2B35528  31.260   3.328   8.373
 2500POPC   C3B35529  31.037   3.307   8.002
 2500POPC   C4B35530  30.988   3.166   7.604
 2501POPC   NC335531  36.816  32.072   9.531
 2501POPC   PO435532  36.981  32.721   9.421
 2501POPC   GL135533  36.929  32.364   9.127
 2501POPC   GL235534  37.219  32.140   9.130
 2501POPC   C1A35535  36.657  32.087   8.856
 2501POPC   D2A35536  36.669  32.174   8.406
 2501POPC   C3A35537  36.726  31.967   8.003
 2501POPC   C4A35538  36.704  32.271   7.644
 2501POPC   C1B35539  37.138  32.151   8.674
 2501POPC   C2B35540  37.171  32.153   8.225
 2501POPC   C3B35541  37.170  32.178   7.793
 2501POPC   C4B35542  37.022  31.939   7.437
 2502POPC   NC335543  35.956  30.630   9.471
 2502POPC   PO435544  36.381  31.095   9.451
 2502POPC   GL135545  36.234  30.805   9.110
 2502POPC   GL235546  36.389  30.442   9.210
 2502POPC   C1A35547  36.034  30.760   8.724
 2502POPC   D2A35548  36.219  31.030   8.404
 2502POPC   C3A35549  36.012  31.003   8.031
 2502POPC   C4A35550  35.821  30.850   7.695
 2502POPC   C1B35551  36.345  30.291   8.783
 2502POPC   C2B35552  36.296  30.493   8.378
 2502POPC   C3B35553  36.143  30.474   7.999
 2502POPC   C4B35554  36.265  30.623   7.626
 2503POPC   NC335555  18.282  27.126   9.471
 2503POPC   PO435556  18.535  27.784   9.453
 2503POPC   GL135557  18.177  27.658   9.114
 2503POPC   GL235558  18.108  27.300   9.033
 2503POPC   C1A35559  18.211  27.569   8.640
 2503POPC   D2A35560  18.580  27.602   8.403
 2503POPC   C3A35561  18.509  27.721   7.974
 2503POPC   C4A35562  18.322  27.561   7.599
 2503POPC   C1B35563  17.849  27.080   8.737
 2503POPC   C2B35564  17.844  26.893   8.303
 2503POPC   C3B35565  17.925  27.054   7.891
 2503POPC   C4B35566  18.005  27.156   7.450
 2504POPC   NC335567  17.122  39.067   9.524
 2504POPC   PO435568  16.513  38.977   9.361
 2504POPC   GL135569  16.765  39.227   9.105
 2504POPC   GL235570  16.952  38.940   9.041
 2504POPC   C1A35571  16.721  39.219   8.638
 2504POPC   D2A35572  16.539  39.112   8.233
 2504POPC   C3A35573  16.780  39.286   7.922
 2504POPC   C4A35574  16.779  39.676   7.742
 2504POPC   C1B35575  17.166  38.994   8.671
 2504POPC   C2B35576  17.037  38.941   8.241
 2504POPC   C3B35577  17.063  38.835   7.806
 2504POPC   C4B35578  17.026  38.903   7.373
 2505POPC   NC335579  34.210  26.960   9.709
 2505POPC   PO435580  33.649  26.883   9.715
 2505POPC   GL135581  33.865  27.003   9.270
 2505POPC   GL235582  34.199  27.191   9.232
 2505POPC   C1A35583  33.789  27.075   8.773
 2505POPC   D2A35584  34.010  27.247   8.378
 2505POPC   C3A35585  33.843  27.160   7.945
 2505POPC   C4A35586  33.607  26.830   7.675
 2505POPC   C1B35587  34.273  26.962   8.834
 2505POPC   C2B35588  34.121  26.747   8.409
 2505POPC   C3B35589  34.026  26.695   7.944
 2505POPC   C4B35590  34.085  26.940   7.529
 2506POPC   NC335591  10.027  26.823   9.584
 2506POPC   PO435592   9.331  26.681   9.572
 2506POPC   GL135593   9.633  26.671   9.257
 2506POPC   GL235594   9.726  27.023   9.211
 2506POPC   C1A35595   9.740  26.636   8.827
 2506POPC   D2A35596   9.721  26.824   8.436
 2506POPC   C3A35597   9.606  26.638   8.054
 2506POPC   C4A35598   9.919  26.590   7.729
 2506POPC   C1B35599   9.938  27.128   8.819
 2506POPC   C2B35600   9.857  27.301   8.402
 2506POPC   C3B35601   9.923  27.050   8.012
 2506POPC   C4B35602   9.996  27.062   7.567
 2507POPC   NC335603  14.231  12.141   9.456
 2507POPC   PO435604  14.615  11.625   9.605
 2507POPC   GL135605  14.673  11.811   9.188
 2507POPC   GL235606  14.780  12.108   9.328
 2507POPC   C1A35607  14.460  11.828   8.750
 2507POPC   D2A35608  14.471  11.770   8.283
 2507POPC   C3A35609  14.185  11.919   7.964
 2507POPC   C4A35610  14.550  11.864   7.754
 2507POPC   C1B35611  14.683  12.249   8.912
 2507POPC   C2B35612  14.641  12.492   8.495
 2507POPC   C3B35613  14.529  12.263   8.121
 2507POPC   C4B35614  14.637  12.356   7.692
 2508POPC   NC335615  10.342   8.776   9.493
 2508POPC   PO435616  10.263   9.504   9.433
 2508POPC   GL135617  10.382   9.232   9.116
 2508POPC   GL235618  10.106   9.011   9.101
 2508POPC   C1A35619  10.431   9.046   8.710
 2508POPC   D2A35620  10.267   9.132   8.288
 2508POPC   C3A35621  10.581   8.951   8.026
 2508POPC   C4A35622  10.818   8.868   7.681
 2508POPC   C1B35623  10.211   8.597   8.847
 2508POPC   C2B35624  10.382   8.642   8.402
 2508POPC   C3B35625  10.268   8.570   7.935
 2508POPC   C4B35626  10.392   8.696   7.497
 2509POPC   NC335627  18.948  37.875   9.405
 2509POPC   PO435628  19.095  37.219   9.568
 2509POPC   GL135629  18.987  37.414   9.189
 2509POPC   GL235630  19.314  37.436   9.122
 2509POPC   C1A35631  18.749  37.579   8.821
 2509POPC   D2A35632  18.785  37.896   8.492
 2509POPC   C3A35633  18.768  37.702   8.088
 2509POPC   C4A35634  18.909  37.688   7.704
 2509POPC   C1B35635  19.275  37.579   8.742
 2509POPC   C2B35636  19.201  37.587   8.333
 2509POPC   C3B35637  19.369  37.644   7.935
 2509POPC   C4B35638  19.355  37.389   7.589
 2510POPC   NC335639  35.033  23.451   9.543
 2510POPC   PO435640  35.632  23.791   9.747
 2510POPC   GL135641  35.486  23.594   9.293
 2510POPC   GL235642  35.202  23.695   9.141
 2510POPC   C1A35643  35.535  23.610   8.787
 2510POPC   D2A35644  35.519  23.884   8.385
 2510POPC   C3A35645  35.547  23.566   8.083
 2510POPC   C4A35646  35.378  23.453   7.709
 2510POPC   C1B35647  35.160  23.947   8.762
 2510POPC   C2B35648  35.009  23.860   8.329
 2510POPC   C3B35649  35.197  23.899   7.909
 2510POPC   C4B35650  35.069  24.109   7.531
 2511POPC   NC335651  17.974  25.197   9.428
 2511POPC   PO435652  18.516  25.050   9.755
 2511POPC   GL135653  18.469  25.207   9.272
 2511POPC   GL235654  18.340  25.013   8.986
 2511POPC   C1A35655  18.290  25.481   8.878
 2511POPC   D2A35656  18.265  25.274   8.466
 2511POPC   C3A35657  18.466  25.407   8.081
 2511POPC   C4A35658  18.260  25.552   7.703
 2511POPC   C1B35659  18.688  25.138   8.742
 2511POPC   C2B35660  18.757  25.023   8.317
 2511POPC   C3B35661  18.649  24.968   7.868
 2511POPC   C4B35662  18.226  25.044   7.756
 2512POPC   NC335663   1.591  12.156   9.269
 2512POPC   PO435664   1.048  11.944   9.613
 2512POPC   GL135665   1.090  11.967   9.138
 2512POPC   GL235666   1.030  11.617   9.086
 2512POPC   C1A35667   1.111  12.116   8.675
 2512POPC   D2A35668   1.003  12.374   8.313
 2512POPC   C3A35669   1.204  12.261   7.913
 2512POPC   C4A35670   1.292  12.176   7.462
 2512POPC   C1B35671   1.192  11.617   8.661
 2512POPC   C2B35672   1.120  11.824   8.221
 2512POPC   C3B35673   1.066  11.781   7.743
 2512POPC   C4B35674   1.037  11.658   7.306
 2513POPC   NC335675  18.266  20.554   9.590
 2513POPC   PO435676  18.099  20.091   9.213
 2513POPC   GL135677  18.167  20.532   9.088
 2513POPC   GL235678  18.525  20.676   9.179
 2513POPC   C1A35679  18.143  20.751   8.698
 2513POPC   D2A35680  18.212  20.675   8.266
 2513POPC   C3A35681  18.144  20.885   7.900
 2513POPC   C4A35682  18.114  20.514   7.692
 2513POPC   C1B35683  18.604  20.498   8.804
 2513POPC   C2B35684  18.693  20.675   8.424
 2513POPC   C3B35685  18.783  20.572   8.016
 2513POPC   C4B35686  18.659  20.741   7.648
 2514POPC   NC335687  34.364  33.644   9.527
 2514POPC   PO435688  34.830  34.023   9.493
 2514POPC   GL135689  34.735  33.841   9.146
 2514POPC   GL235690  34.408  33.777   9.048
 2514POPC   C1A35691  34.714  34.065   8.757
 2514POPC   D2A35692  34.711  34.297   8.397
 2514POPC   C3A35693  34.687  34.107   7.991
 2514POPC   C4A35694  34.381  33.924   7.708
 2514POPC   C1B35695  34.641  33.555   8.742
 2514POPC   C2B35696  34.590  33.758   8.377
 2514POPC   C3B35697  34.582  33.589   8.028
 2514POPC   C4B35698  34.767  33.415   7.696
 2515POPC   NC335699   5.494  10.181   9.225
 2515POPC   PO435700   5.951  10.131   9.710
 2515POPC   GL135701   6.009  10.361   9.287
 2515POPC   GL235702   5.918  10.722   9.273
 2515POPC   C1A35703   6.221  10.553   8.886
 2515POPC   D2A35704   6.275  10.649   8.407
 2515POPC   C3A35705   5.947  10.624   8.067
 2515POPC   C4A35706   5.545  10.414   8.067
 2515POPC   C1B35707   5.720  10.835   8.854
 2515POPC   C2B35708   5.528  10.798   8.451
 2515POPC   C3B35709   5.537  10.948   8.050
 2515POPC   C4B35710   5.603  10.734   7.662
 2516POPC   NC335711   4.320   8.958   9.731
 2516POPC   PO435712   4.943   8.861   9.671
 2516POPC   GL135713   4.715   9.068   9.299
 2516POPC   GL235714   4.434   8.848   9.241
 2516POPC   C1A35715   4.531   9.214   8.865
 2516POPC   D2A35716   4.460   9.004   8.422
 2516POPC   C3A35717   4.391   9.168   7.979
 2516POPC   C4A35718   4.646   8.891   7.735
 2516POPC   C1B35719   4.251   8.797   8.840
 2516POPC   C2B35720   3.958   8.815   8.537
 2516POPC   C3B35721   3.992   8.889   8.107
 2516POPC   C4B35722   4.167   8.689   7.759
 2517POPC   NC335723  41.831  33.678   9.564
 2517POPC   PO435724  41.331  34.083   9.524
 2517POPC   GL135725  41.610  34.042   9.201
 2517POPC   GL235726  41.516  33.712   9.143
 2517POPC   C1A35727  41.783  34.016   8.765
 2517POPC   D2A35728  41.829  34.150   8.318
 2517POPC   C3A35729  41.563  33.916   7.984
 2517POPC   C4A35730  41.688  33.748   7.564
 2517POPC   C1B35731  41.658  33.492   8.772
 2517POPC   C2B35732  41.847  33.560   8.369
 2517POPC   C3B35733  41.708  33.436   7.995
 2517POPC   C4B35734  41.319  33.470   7.793
 2518POPC   NC335735  11.686   9.835   9.462
 2518POPC   PO435736  12.263   9.441   9.439
 2518POPC   GL135737  12.014   9.561   9.136
 2518POPC   GL235738  11.711   9.427   9.144
 2518POPC   C1A35739  12.175   9.650   8.741
 2518POPC   D2A35740  12.369   9.370   8.433
 2518POPC   C3A35741  12.346   9.573   8.009
 2518POPC   C4A35742  12.147   9.574   7.588
 2518POPC   C1B35743  11.679   9.520   8.710
 2518POPC   C2B35744  11.897   9.554   8.307
 2518POPC   C3B35745  11.852   9.826   7.938
 2518POPC   C4B35746  11.657   9.881   7.546
 2519POPC   NC335747  23.160  30.460   9.699
 2519POPC   PO435748  22.479  30.441   9.610
 2519POPC   GL135749  22.731  30.546   9.212
 2519POPC   GL235750  23.121  30.611   9.206
 2519POPC   C1A35751  22.749  30.653   8.746
 2519POPC   D2A35752  22.604  30.462   8.327
 2519POPC   C3A35753  22.702  30.725   7.948
 2519POPC   C4A35754  22.926  30.922   7.591
 2519POPC   C1B35755  23.255  30.741   8.770
 2519POPC   C2B35756  23.148  30.802   8.274
 2519POPC   C3B35757  23.427  30.912   7.875
 2519POPC   C4B35758  23.384  31.047   7.416
 2520POPC   NC335759  43.309  11.531   9.807
 2520POPC   PO435760  43.857  11.366   9.425
 2520POPC   GL135761  43.884  11.156   9.069
 2520POPC   GL235762  43.539  11.124   9.069
 2520POPC   C1A35763  43.806  11.344   8.688
 2520POPC   D2A35764  44.001  11.622   8.436
 2520POPC   C3A35765  43.915  11.432   8.044
 2520POPC   C4A35766  43.679  11.538   7.696
 2520POPC   C1B35767  43.634  10.849   8.719
 2520POPC   C2B35768  43.719  10.922   8.314
 2520POPC   C3B35769  43.493  11.070   7.968
 2520POPC   C4B35770  43.781  11.053   7.684
 2521POPC   NC335771  20.162   4.162   9.461
 2521POPC   PO435772  19.624   4.561   9.490
 2521POPC   GL135773  19.741   4.362   9.116
 2521POPC   GL235774  20.033   4.508   9.099
 2521POPC   C1A35775  19.576   4.325   8.688
 2521POPC   D2A35776  19.477   3.996   8.400
 2521POPC   C3A35777  19.521   4.109   7.969
 2521POPC   C4A35778  19.833   4.263   7.675
 2521POPC   C1B35779  20.083   4.432   8.681
 2521POPC   C2B35780  20.173   4.666   8.300
 2521POPC   C3B35781  20.211   4.649   7.882
 2521POPC   C4B35782  20.292   4.225   7.905
 2522POPC   NC335783  42.862  15.718   9.396
 2522POPC   PO435784  43.434  16.042   9.338
 2522POPC   GL135785  43.105  15.990   9.053
 2522POPC   GL235786  43.266  15.659   9.030
 2522POPC   C1A35787  42.892  15.853   8.708
 2522POPC   D2A35788  43.030  15.538   8.454
 2522POPC   C3A35789  43.170  15.779   8.088
 2522POPC   C4A35790  43.073  15.963   7.668
 2522POPC   C1B35791  43.421  15.829   8.650
 2522POPC   C2B35792  43.593  16.037   8.286
 2522POPC   C3B35793  43.514  16.128   7.855
 2522POPC   C4B35794  43.557  15.872   7.481
 2523POPC   NC335795   2.122   6.260   9.436
 2523POPC   PO435796   2.283   5.560   9.417
 2523POPC   GL135797   2.340   5.890   9.115
 2523POPC   GL235798   1.990   5.892   9.044
 2523POPC   C1A35799   2.293   5.950   8.655
 2523POPC   D2A35800   2.087   6.030   8.257
 2523POPC   C3A35801   2.116   5.774   7.927
 2523POPC   C4A35802   2.451   5.593   7.783
 2523POPC   C1B35803   1.713   6.028   8.710
 2523POPC   C2B35804   1.590   6.133   8.329
 2523POPC   C3B35805   1.725   6.200   7.916
 2523POPC   C4B35806   1.766   5.925   7.585
 2524POPC   NC335807  18.102  36.768   9.723
 2524POPC   PO435808  18.177  36.066   9.534
 2524POPC   GL135809  18.122  36.316   9.150
 2524POPC   GL235810  18.407  36.538   9.038
 2524POPC   C1A35811  17.991  36.049   8.786
 2524POPC   D2A35812  18.053  35.801   8.404
 2524POPC   C3A35813  18.305  35.892   8.062
 2524POPC   C4A35814  18.287  35.679   7.702
 2524POPC   C1B35815  18.449  36.289   8.654
 2524POPC   C2B35816  18.418  36.369   8.208
 2524POPC   C3B35817  18.352  36.351   7.763
 2524POPC   C4B35818  18.340  36.542   7.338
 2525POPC   NC335819  26.405   8.928   9.718
 2525POPC   PO435820  25.709   8.857   9.538
 2525POPC   GL135821  25.830   8.933   9.085
 2525POPC   GL235822  26.008   9.231   9.051
 2525POPC   C1A35823  25.638   9.116   8.677
 2525POPC   D2A35824  25.727   9.300   8.271
 2525POPC   C3A35825  25.786   9.028   7.933
 2525POPC   C4A35826  26.007   8.956   7.579
 2525POPC   C1B35827  26.148   9.055   8.644
 2525POPC   C2B35828  26.219   9.022   8.209
 2525POPC   C3B35829  26.224   9.282   7.885
 2525POPC   C4B35830  26.465   9.321   7.549
 2526POPC   NC335831   7.179   7.359   9.716
 2526POPC   PO435832   7.652   7.785   9.723
 2526POPC   GL135833   7.464   7.544   9.309
 2526POPC   GL235834   7.177   7.295   9.209
 2526POPC   C1A35835   7.345   7.630   8.863
 2526POPC   D2A35836   7.308   7.505   8.432
 2526POPC   C3A35837   7.494   7.371   8.033
 2526POPC   C4A35838   7.242   7.473   7.645
 2526POPC   C1B35839   7.149   7.128   8.775
 2526POPC   C2B35840   7.207   7.003   8.311
 2526POPC   C3B35841   7.120   7.034   7.862
 2526POPC   C4B35842   7.110   7.024   7.396
 2527POPC   NC335843  41.274  12.704   9.543
 2527POPC   PO435844  41.767  13.111   9.458
 2527POPC   GL135845  41.584  12.831   9.152
 2527POPC   GL235846  41.725  12.521   9.082
 2527POPC   C1A35847  41.321  12.872   8.792
 2527POPC   D2A35848  41.461  12.978   8.382
 2527POPC   C3A35849  41.221  12.933   8.004
 2527POPC   C4A35850  41.449  13.091   7.693
 2527POPC   C1B35851  41.791  12.663   8.684
 2527POPC   C2B35852  41.761  12.571   8.262
 2527POPC   C3B35853  41.717  12.681   7.843
 2527POPC   C4B35854  41.856  12.472   7.451
 2528POPC   NC335855  15.166  24.919   9.682
 2528POPC   PO435856  15.086  25.545   9.545
 2528POPC   GL135857  15.186  25.242   9.247
 2528POPC   GL235858  14.909  25.160   9.048
 2528POPC   C1A35859  15.376  25.272   8.822
 2528POPC   D2A35860  15.188  25.264   8.415
 2528POPC   C3A35861  14.936  25.599   8.226
 2528POPC   C4A35862  15.121  25.668   7.827
 2528POPC   C1B35863  14.852  24.918   8.648
 2528POPC   C2B35864  14.816  24.995   8.196
 2528POPC   C3B35865  15.136  25.088   7.886
 2528POPC   C4B35866  15.555  24.932   7.752
 2529POPC   NC335867  44.300  31.612   9.560
 2529POPC   PO435868  44.881  31.822   9.331
 2529POPC   GL135869  44.687  31.662   9.031
 2529POPC   GL235870  44.347  31.576   9.038
 2529POPC   C1A35871  44.672  31.686   8.607
 2529POPC   D2A35872  44.447  31.759   8.291
 2529POPC   C3A35873  44.767  31.663   8.027
 2529POPC   C4A35874  44.861  31.638   7.612
 2529POPC   C1B35875  44.579  31.229   8.786
 2529POPC   C2B35876  44.592  31.223   8.308
 2529POPC   C3B35877  44.557  31.218   7.837
 2529POPC   C4B35878  44.353  31.271   7.425
 2530POPC   NC335879  17.654  17.425   9.349
 2530POPC   PO435880  16.967  17.335   9.516
 2530POPC   GL135881  17.176  17.395   9.132
 2530POPC   GL235882  17.391  17.118   9.010
 2530POPC   C1A35883  17.354  17.527   8.718
 2530POPC   D2A35884  17.399  17.262   8.341
 2530POPC   C3A35885  17.359  17.502   7.952
 2530POPC   C4A35886  17.739  17.640   7.730
 2530POPC   C1B35887  17.776  17.183   8.727
 2530POPC   C2B35888  17.929  17.291   8.301
 2530POPC   C3B35889  17.750  17.159   7.935
 2530POPC   C4B35890  17.784  17.152   7.486
 2531POPC   NC335891   1.796  11.476   9.500
 2531POPC   PO435892   2.320  11.079   9.556
 2531POPC   GL135893   2.051  11.106   9.215
 2531POPC   GL235894   1.765  10.941   9.329
 2531POPC   C1A35895   1.960  11.356   8.852
 2531POPC   D2A35896   1.916  11.186   8.445
 2531POPC   C3A35897   1.975  11.362   8.058
 2531POPC   C4A35898   1.813  11.338   7.652
 2531POPC   C1B35899   1.679  10.935   8.871
 2531POPC   C2B35900   1.800  10.694   8.500
 2531POPC   C3B35901   1.827  10.838   8.070
 2531POPC   C4B35902   1.596  10.880   7.681
 2532POPC   NC335903   2.172  37.333   9.499
 2532POPC   PO435904   2.249  38.008   9.457
 2532POPC   GL135905   2.069  37.727   9.143
 2532POPC   GL235906   1.833  37.444   9.089
 2532POPC   C1A35907   2.000  37.792   8.697
 2532POPC   D2A35908   2.255  37.956   8.353
 2532POPC   C3A35909   2.126  37.825   7.944
 2532POPC   C4A35910   2.373  37.548   7.690
 2532POPC   C1B35911   2.150  37.309   8.775
 2532POPC   C2B35912   2.133  37.436   8.308
 2532POPC   C3B35913   1.934  37.324   7.896
 2532POPC   C4B35914   1.589  37.291   7.577
 2533POPC   NC335915  44.458   6.921   9.573
 2533POPC   PO435916   0.111   6.674   9.716
 2533POPC   GL135917   0.009   6.701   9.282
 2533POPC   GL235918  44.691   6.678   9.205
 2533POPC   C1A35919   0.020   6.712   8.824
 2533POPC   D2A35920  44.879   6.483   8.471
 2533POPC   C3A35921  44.962   6.672   8.105
 2533POPC   C4A35922  44.815   6.588   7.691
 2533POPC   C1B35923  44.539   6.502   8.852
 2533POPC   C2B35924  44.409   6.663   8.460
 2533POPC   C3B35925  44.471   6.515   8.075
 2533POPC   C4B35926  44.328   6.659   7.669
 2534POPC   NC335927   5.162   4.829   9.413
 2534POPC   PO435928   4.742   5.477   9.366
 2534POPC   GL135929   4.884   5.152   9.120
 2534POPC   GL235930   5.227   5.227   9.116
 2534POPC   C1A35931   5.095   4.901   8.776
 2534POPC   D2A35932   5.380   5.023   8.536
 2534POPC   C3A35933   5.122   5.034   8.169
 2534POPC   C4A35934   4.838   4.968   7.809
 2534POPC   C1B35935   5.412   5.441   8.835
 2534POPC   C2B35936   5.459   5.480   8.385
 2534POPC   C3B35937   5.371   5.438   7.967
 2534POPC   C4B35938   5.330   5.106   7.706
 2535POPC   NC335939   4.516  40.061   9.544
 2535POPC   PO435940   3.908  39.659   9.350
 2535POPC   GL135941   4.227  39.972   9.107
 2535POPC   GL235942   4.534  40.199   9.076
 2535POPC   C1A35943   4.522  39.852   8.721
 2535POPC   D2A35944   4.528  39.603   8.340
 2535POPC   C3A35945   4.168  39.673   8.072
 2535POPC   C4A35946   4.208  39.890   7.699
 2535POPC   C1B35947   4.611  40.346   8.653
 2535POPC   C2B35948   4.810  40.125   8.353
 2535POPC   C3B35949   4.670  39.974   7.999
 2535POPC   C4B35950   4.500  40.288   7.736
 2536POPC   NC335951   1.675  34.370   9.357
 2536POPC   PO435952   1.148  34.774   9.631
 2536POPC   GL135953   1.025  34.828   9.182
 2536POPC   GL235954   1.355  34.880   9.161
 2536POPC   C1A35955   0.976  34.523   8.840
 2536POPC   D2A35956   1.147  34.393   8.410
 2536POPC   C3A35957   1.031  34.582   8.004
 2536POPC   C4A35958   1.006  34.309   7.634
 2536POPC   C1B35959   1.393  34.764   8.686
 2536POPC   C2B35960   1.505  34.876   8.289
 2536POPC   C3B35961   1.411  34.956   7.875
 2536POPC   C4B35962   1.572  34.799   7.517
 2537POPC   NC335963  29.366   8.649   9.822
 2537POPC   PO435964  29.887   8.769   9.380
 2537POPC   GL135965  29.878   8.886   9.005
 2537POPC   GL235966  30.265   8.875   9.034
 2537POPC   C1A35967  29.575   8.790   8.664
 2537POPC   D2A35968  29.399   8.669   8.258
 2537POPC   C3A35969  29.633   8.894   7.901
 2537POPC   C4A35970  29.686   9.324   7.719
 2537POPC   C1B35971  30.218   8.961   8.594
 2537POPC   C2B35972  30.071   8.858   8.195
 2537POPC   C3B35973  30.139   9.061   7.820
 2537POPC   C4B35974  29.957   9.023   7.404
 2538POPC   NC335975   8.569   4.451   9.588
 2538POPC   PO435976   7.964   4.523   9.227
 2538POPC   GL135977   8.248   4.356   8.976
 2538POPC   GL235978   8.440   4.188   9.165
 2538POPC   C1A35979   8.246   4.316   8.545
 2538POPC   D2A35980   7.903   4.455   8.279
 2538POPC   C3A35981   8.080   4.588   7.899
 2538POPC   C4A35982   8.268   4.312   7.578
 2538POPC   C1B35983   8.600   4.002   8.790
 2538POPC   C2B35984   8.512   3.878   8.360
 2538POPC   C3B35985   8.266   4.114   8.061
 2538POPC   C4B35986   7.863   4.138   7.852
 2539POPC   NC335987   8.563  30.275   9.487
 2539POPC   PO435988   8.280  30.898   9.439
 2539POPC   GL135989   8.093  30.734   9.055
 2539POPC   GL235990   7.831  30.957   8.969
 2539POPC   C1A35991   8.232  30.480   8.687
 2539POPC   D2A35992   8.492  30.385   8.297
 2539POPC   C3A35993   8.356  30.399   7.860
 2539POPC   C4A35994   8.492  30.754   7.661
 2539POPC   C1B35995   7.691  30.634   8.765
 2539POPC   C2B35996   7.822  30.538   8.393
 2539POPC   C3B35997   8.038  30.708   8.084
 2539POPC   C4B35998   7.977  30.707   7.664
 2540POPC   NC335999  23.502  22.674   9.500
 2540POPC   PO436000  23.313  23.271   9.664
 2540POPC   GL136001  23.494  23.118   9.249
 2540POPC   GL236002  23.842  23.058   9.296
 2540POPC   C1A36003  23.481  22.873   8.833
 2540POPC   D2A36004  23.380  22.656   8.421
 2540POPC   C3A36005  23.548  22.850   8.020
 2540POPC   C4A36006  23.878  22.890   7.691
 2540POPC   C1B36007  23.903  23.176   8.863
 2540POPC   C2B36008  23.858  23.038   8.433
 2540POPC   C3B36009  23.859  23.247   8.024
 2540POPC   C4B36010  24.082  23.341   7.578
 2541POPC   NC336011  23.229  28.867   9.458
 2541POPC   PO436012  23.967  28.945   9.466
 2541POPC   GL136013  23.736  29.204   9.200
 2541POPC   GL236014  23.946  29.454   9.105
 2541POPC   C1A36015  23.480  29.225   8.803
 2541POPC   D2A36016  23.445  29.017   8.393
 2541POPC   C3A36017  23.406  29.205   8.017
 2541POPC   C4A36018  23.581  29.070   7.620
 2541POPC   C1B36019  23.889  29.575   8.673
 2541POPC   C2B36020  23.808  29.472   8.237
 2541POPC   C3B36021  23.742  29.511   7.788
 2541POPC   C4B36022  23.701  29.464   7.318
 2542POPC   NC336023   5.200   5.549   9.491
 2542POPC   PO436024   5.184   6.159   9.486
 2542POPC   GL136025   5.187   5.959   9.076
 2542POPC   GL236026   4.998   5.688   8.983
 2542POPC   C1A36027   5.366   5.921   8.660
 2542POPC   D2A36028   5.304   5.907   8.173
 2542POPC   C3A36029   5.150   6.227   7.914
 2542POPC   C4A36030   4.853   6.184   7.586
 2542POPC   C1B36031   4.938   5.377   8.653
 2542POPC   C2B36032   4.772   5.398   8.240
 2542POPC   C3B36033   4.881   5.469   7.817
 2542POPC   C4B36034   5.117   5.759   7.668
 2543POPC   NC336035  26.862  35.656   9.432
 2543POPC   PO436036  26.423  35.119   9.543
 2543POPC   GL136037  26.637  35.260   9.172
 2543POPC   GL236038  26.420  35.577   9.143
 2543POPC   C1A36039  26.873  35.463   8.807
 2543POPC   D2A36040  26.778  35.655   8.389
 2543POPC   C3A36041  27.046  35.467   8.057
 2543POPC   C4A36042  27.275  35.133   7.846
 2543POPC   C1B36043  26.392  35.450   8.710
 2543POPC   C2B36044  26.515  35.221   8.335
 2543POPC   C3B36045  26.540  35.452   7.926
 2543POPC   C4B36046  26.430  35.467   7.445
 2544POPC   NC336047   6.774  26.078   9.482
 2544POPC   PO436048   6.240  25.746   9.504
 2544POPC   GL136049   6.422  25.959   9.095
 2544POPC   GL236050   6.775  26.141   8.987
 2544POPC   C1A36051   6.541  25.852   8.645
 2544POPC   D2A36052   6.683  26.212   8.358
 2544POPC   C3A36053   7.016  26.132   8.066
 2544POPC   C4A36054   6.883  25.773   7.829
 2544POPC   C1B36055   6.407  26.356   8.784
 2544POPC   C2B36056   6.285  26.521   8.383
 2544POPC   C3B36057   6.282  26.446   7.943
 2544POPC   C4B36058   6.580  26.192   7.815
 2545POPC   NC336059   4.138  39.191   9.417
 2545POPC   PO436060   4.564  39.642   9.350
 2545POPC   GL136061   4.298  39.484   9.039
 2545POPC   GL236062   4.260  39.136   8.936
 2545POPC   C1A36063   4.106  39.555   8.673
 2545POPC   D2A36064   4.093  39.262   8.380
 2545POPC   C3A36065   4.380  39.204   8.017
 2545POPC   C4A36066   4.566  39.528   7.779
 2545POPC   C1B36067   4.583  38.876   8.768
 2545POPC   C2B36068   4.434  38.824   8.361
 2545POPC   C3B36069   4.000  38.852   8.127
 2545POPC   C4B36070   4.048  38.838   7.687
 2546POPC   NC336071  42.530  16.657   9.308
 2546POPC   PO436072  41.893  16.837   9.416
 2546POPC   GL136073  42.058  16.506   9.164
 2546POPC   GL236074  42.112  16.164   9.300
 2546POPC   C1A36075  42.246  16.552   8.765
 2546POPC   D2A36076  42.218  16.755   8.387
 2546POPC   C3A36077  42.471  16.564   8.085
 2546POPC   C4A36078  42.603  16.692   7.695
 2546POPC   C1B36079  41.951  16.132   8.848
 2546POPC   C2B36080  42.140  16.221   8.413
 2546POPC   C3B36081  41.968  16.412   8.078
 2546POPC   C4B36082  42.119  16.467   7.690
 2547POPC   NC336083  24.344  26.469   9.439
 2547POPC   PO436084  24.374  27.146   9.455
 2547POPC   GL136085  24.542  27.098   9.051
 2547POPC   GL236086  24.614  26.780   9.154
 2547POPC   C1A36087  24.815  27.039   8.679
 2547POPC   D2A36088  24.769  26.974   8.195
 2547POPC   C3A36089  24.376  27.073   7.960
 2547POPC   C4A36090  24.245  26.985   7.525
 2547POPC   C1B36091  24.486  26.645   8.764
 2547POPC   C2B36092  24.416  26.427   8.372
 2547POPC   C3B36093  24.439  26.550   7.980
 2547POPC   C4B36094  24.604  26.653   7.613
 2548POPC   NC336095  16.427  39.368   9.578
 2548POPC   PO436096  16.002  38.684   9.583
 2548POPC   GL136097  16.019  38.942   9.201
 2548POPC   GL236098  16.071  39.295   9.245
 2548POPC   C1A36099  15.890  39.041   8.782
 2548POPC   D2A36100  15.712  38.992   8.380
 2548POPC   C3A36101  15.926  39.185   8.044
 2548POPC   C4A36102  15.771  39.073   7.680
 2548POPC   C1B36103  16.284  39.338   8.866
 2548POPC   C2B36104  16.151  39.394   8.450
 2548POPC   C3B36105  16.318  39.564   8.046
 2548POPC   C4B36106  16.319  39.534   7.596
 2549POPC   NC336107  27.489  38.012   9.596
 2549POPC   PO436108  27.830  37.391   9.716
 2549POPC   GL136109  27.561  37.551   9.350
 2549POPC   GL236110  27.712  37.860   9.165
 2549POPC   C1A36111  27.441  37.540   8.899
 2549POPC   D2A36112  27.598  37.723   8.539
 2549POPC   C3A36113  27.417  37.675   8.145
 2549POPC   C4A36114  27.662  37.632   7.790
 2549POPC   C1B36115  27.372  38.053   8.877
 2549POPC   C2B36116  27.234  38.084   8.401
 2549POPC   C3B36117  27.257  38.117   7.913
 2549POPC   C4B36118  27.404  38.009   7.461
 2550POPC   NC336119  10.879  44.600   9.544
 2550POPC   PO436120  10.254  44.855   9.356
 2550POPC   GL136121  10.478  44.582   9.095
 2550POPC   GL236122  10.810  44.508   9.063
 2550POPC   C1A36123  10.378  44.593   8.685
 2550POPC   D2A36124  10.433  44.366   8.349
 2550POPC   C3A36125  10.335  44.515   7.992
 2550POPC   C4A36126  10.536  44.570   7.609
 2550POPC   C1B36127  10.858  44.764   8.731
 2550POPC   C2B36128  10.750  44.775   8.267
 2550POPC   C3B36129  10.896  44.860   7.834
 2550POPC   C4B36130  11.292  44.890   7.543
 2551POPC   NC336131   9.752   1.068   9.539
 2551POPC   PO436132   9.706   1.719   9.424
 2551POPC   GL136133   9.791   1.395   9.154
 2551POPC   GL236134   9.594   1.544   8.925
 2551POPC   C1A36135   9.771   1.089   8.781
 2551POPC   D2A36136   9.722   1.244   8.342
 2551POPC   C3A36137   9.749   0.941   7.993
 2551POPC   C4A36138  10.020   0.886   7.631
 2551POPC   C1B36139   9.981   1.564   8.687
 2551POPC   C2B36140  10.180   1.615   8.306
 2551POPC   C3B36141  10.126   1.306   7.992
 2551POPC   C4B36142   9.805   1.350   7.680
 2552POPC   NC336143   9.257   8.026   9.750
 2552POPC   PO436144   9.003   8.613   9.487
 2552POPC   GL136145   8.983   8.202   9.178
 2552POPC   GL236146   9.164   7.905   9.021
 2552POPC   C1A36147   8.731   8.023   8.833
 2552POPC   D2A36148   8.695   7.973   8.425
 2552POPC   C3A36149   8.972   8.185   8.177
 2552POPC   C4A36150   8.735   8.229   7.809
 2552POPC   C1B36151   9.210   8.234   8.683
 2552POPC   C2B36152   9.406   8.481   8.334
 2552POPC   C3B36153   9.395   8.328   7.896
 2552POPC   C4B36154   9.178   7.991   7.715
 2553POPC   NC336155  13.446  24.140   9.218
 2553POPC   PO436156  13.919  23.726   9.557
 2553POPC   GL136157  13.729  23.726   9.143
 2553POPC   GL236158  13.939  24.045   9.095
 2553POPC   C1A36159  13.484  23.693   8.738
 2553POPC   D2A36160  13.567  23.953   8.356
 2553POPC   C3A36161  13.397  23.757   7.991
 2553POPC   C4A36162  13.541  23.473   7.688
 2553POPC   C1B36163  13.982  23.820   8.707
 2553POPC   C2B36164  14.142  23.730   8.303
 2553POPC   C3B36165  13.902  23.827   7.959
 2553POPC   C4B36166  14.062  24.096   7.679
 2554POPC   NC336167  28.948   6.539   9.666
 2554POPC   PO436168  29.337   6.961   9.404
 2554POPC   GL136169  29.322   6.634   9.166
 2554POPC   GL236170  28.969   6.578   9.155
 2554POPC   C1A36171  29.344   6.713   8.744
 2554POPC   D2A36172  29.355   6.510   8.363
 2554POPC   C3A36173  29.282   6.698   7.966
 2554POPC   C4A36174  29.196   6.472   7.577
 2554POPC   C1B36175  28.888   6.919   8.877
 2554POPC   C2B36176  28.973   6.948   8.430
 2554POPC   C3B36177  28.778   6.839   8.027
 2554POPC   C4B36178  28.926   6.910   7.628
 2555POPC   NC336179  39.234  41.679   9.427
 2555POPC   PO436180  39.254  41.061   9.709
 2555POPC   GL136181  39.262  41.179   9.246
 2555POPC   GL236182  39.547  41.381   9.127
 2555POPC   C1A36183  39.167  41.300   8.808
 2555POPC   D2A36184  39.402  41.290   8.426
 2555POPC   C3A36185  39.192  41.347   8.013
 2555POPC   C4A36186  38.876  41.558   7.732
 2555POPC   C1B36187  39.642  41.637   8.752
 2555POPC   C2B36188  39.442  41.797   8.366
 2555POPC   C3B36189  39.204  41.896   8.002
 2555POPC   C4B36190  39.354  41.691   7.633
 2556POPC   NC336191   5.096  31.177   9.445
 2556POPC   PO436192   5.333  31.768   9.504
 2556POPC   GL136193   5.113  31.597   9.148
 2556POPC   GL236194   4.817  31.741   9.117
 2556POPC   C1A36195   5.053  31.350   8.748
 2556POPC   D2A36196   4.914  31.386   8.280
 2556POPC   C3A36197   5.203  31.199   7.963
 2556POPC   C4A36198   5.086  31.007   7.593
 2556POPC   C1B36199   4.657  31.657   8.761
 2556POPC   C2B36200   4.547  31.800   8.399
 2556POPC   C3B36201   4.662  31.730   7.983
 2556POPC   C4B36202   5.038  31.623   7.783
 2557POPC   NC336203   1.017  35.208   9.516
 2557POPC   PO436204   1.452  35.725   9.570
 2557POPC   GL136205   1.368  35.466   9.212
 2557POPC   GL236206   1.052  35.567   9.128
 2557POPC   C1A36207   1.243  35.222   8.829
 2557POPC   D2A36208   1.281  35.326   8.403
 2557POPC   C3A36209   0.987  35.131   8.142
 2557POPC   C4A36210   1.001  35.223   7.728
 2557POPC   C1B36211   1.196  35.713   8.745
 2557POPC   C2B36212   1.051  35.807   8.335
 2557POPC   C3B36213   1.150  35.643   7.965
 2557POPC   C4B36214   1.481  35.614   7.681
 2558POPC   NC336215  25.841  20.976   9.405
 2558POPC   PO436216  25.983  20.395   9.745
 2558POPC   GL136217  25.895  20.429   9.285
 2558POPC   GL236218  25.678  20.627   9.064
 2558POPC   C1A36219  25.902  20.252   8.841
 2558POPC   D2A36220  25.979  20.422   8.443
 2558POPC   C3A36221  25.861  20.185   8.100
 2558POPC   C4A36222  25.956  20.309   7.729
 2558POPC   C1B36223  26.044  20.799   8.803
 2558POPC   C2B36224  26.205  20.872   8.385
 2558POPC   C3B36225  26.123  20.712   7.997
 2558POPC   C4B36226  26.157  20.751   7.561
 2559POPC   NC336227   3.728  12.766   9.459
 2559POPC   PO436228   3.195  13.176   9.536
 2559POPC   GL136229   3.269  12.984   9.112
 2559POPC   GL236230   3.508  12.720   9.032
 2559POPC   C1A36231   3.431  13.045   8.652
 2559POPC   D2A36232   3.741  12.936   8.319
 2559POPC   C3A36233   3.750  13.043   7.895
 2559POPC   C4A36234   3.558  12.724   7.590
 2559POPC   C1B36235   3.277  12.522   8.776
 2559POPC   C2B36236   3.409  12.543   8.389
 2559POPC   C3B36237   3.334  12.779   8.032
 2559POPC   C4B36238   3.043  12.691   7.707
 2560POPC   NC336239  16.874  26.712   9.864
 2560POPC   PO436240  16.356  26.804   9.443
 2560POPC   GL136241  16.600  26.867   9.034
 2560POPC   GL236242  16.954  26.708   8.977
 2560POPC   C1A36243  16.864  27.177   8.795
 2560POPC   D2A36244  17.049  27.229   8.379
 2560POPC   C3A36245  16.876  26.908   8.119
 2560POPC   C4A36246  16.496  26.884   7.874
 2560POPC   C1B36247  17.191  26.423   8.728
 2560POPC   C2B36248  17.143  26.284   8.321
 2560POPC   C3B36249  17.229  26.435   7.951
 2560POPC   C4B36250  16.940  26.598   7.706
 2561POPC   NC336251  35.343  12.082   9.565
 2561POPC   PO436252  35.645  11.531   9.835
 2561POPC   GL136253  35.556  11.693   9.290
 2561POPC   GL236254  35.607  12.029   9.108
 2561POPC   C1A36255  35.420  11.725   8.782
 2561POPC   D2A36256  35.558  11.997   8.450
 2561POPC   C3A36257  35.531  12.142   8.035
 2561POPC   C4A36258  35.651  12.281   7.655
 2561POPC   C1B36259  35.481  12.364   8.788
 2561POPC   C2B36260  35.427  12.540   8.346
 2561POPC   C3B36261  35.195  12.498   7.913
 2561POPC   C4B36262  35.164  12.278   7.484
 2562POPC   NC336263  43.825   7.461   9.674
 2562POPC   PO436264  44.018   6.834   9.698
 2562POPC   GL136265  44.071   7.113   9.287
 2562POPC   GL236266  44.153   7.468   9.219
 2562POPC   C1A36267  43.884   7.230   8.857
 2562POPC   D2A36268  43.912   7.463   8.434
 2562POPC   C3A36269  43.759   7.262   8.037
 2562POPC   C4A36270  43.467   7.271   7.690
 2562POPC   C1B36271  44.330   7.473   8.755
 2562POPC   C2B36272  44.393   7.447   8.269
 2562POPC   C3B36273  44.146   7.632   7.923
 2562POPC   C4B36274  44.031   7.597   7.479
 2563POPC   NC336275  29.711  10.228   9.833
 2563POPC   PO436276  29.057  10.223   9.692
 2563POPC   GL136277  29.047  10.183   9.227
 2563POPC   GL236278  29.049  10.548   9.111
 2563POPC   C1A36279  28.955  10.189   8.774
 2563POPC   D2A36280  29.140  10.514   8.553
 2563POPC   C3A36281  29.177  10.408   8.136
 2563POPC   C4A36282  28.909  10.316   7.817
 2563POPC   C1B36283  28.991  10.925   8.832
 2563POPC   C2B36284  28.851  10.917   8.388
 2563POPC   C3B36285  29.002  10.849   7.950
 2563POPC   C4B36286  28.829  10.753   7.537
 2564POPC   NC336287  30.475  40.606   9.497
 2564POPC   PO436288  30.626  41.243   9.505
 2564POPC   GL136289  30.516  41.011   9.139
 2564POPC   GL236290  30.736  40.725   9.090
 2564POPC   C1A36291  30.580  41.054   8.700
 2564POPC   D2A36292  30.360  40.877   8.366
 2564POPC   C3A36293  30.534  40.943   7.958
 2564POPC   C4A36294  30.947  41.100   7.855
 2564POPC   C1B36295  30.901  40.624   8.699
 2564POPC   C2B36296  30.923  40.830   8.298
 2564POPC   C3B36297  30.956  40.581   7.900
 2564POPC   C4B36298  30.819  40.330   7.518
 2565POPC   NC336299   6.896   4.617   9.509
 2565POPC   PO436300   6.479   4.070   9.500
 2565POPC   GL136301   6.736   4.236   9.184
 2565POPC   GL236302   6.607   4.541   9.090
 2565POPC   C1A36303   6.854   4.094   8.770
 2565POPC   D2A36304   6.976   4.246   8.369
 2565POPC   C3A36305   6.719   4.183   8.016
 2565POPC   C4A36306   6.744   4.353   7.636
 2565POPC   C1B36307   6.974   4.615   8.816
 2565POPC   C2B36308   6.886   4.786   8.412
 2565POPC   C3B36309   6.602   4.668   8.106
 2565POPC   C4B36310   6.514   4.802   7.712
 2566POPC   NC336311  16.205  23.700   9.570
 2566POPC   PO436312  15.662  23.866   9.285
 2566POPC   GL136313  15.989  23.678   9.097
 2566POPC   GL236314  16.193  23.958   9.132
 2566POPC   C1A36315  15.937  23.572   8.678
 2566POPC   D2A36316  15.842  23.350   8.333
 2566POPC   C3A36317  15.983  23.599   7.999
 2566POPC   C4A36318  16.238  23.490   7.633
 2566POPC   C1B36319  16.048  24.070   8.743
 2566POPC   C2B36320  16.194  23.930   8.358
 2566POPC   C3B36321  16.120  24.085   7.951
 2566POPC   C4B36322  15.944  23.906   7.589
 2567POPC   NC336323  40.494  30.429   9.339
 2567POPC   PO436324  39.937  30.794   9.471
 2567POPC   GL136325  39.826  30.825   9.069
 2567POPC   GL236326  40.119  30.622   9.011
 2567POPC   C1A36327  39.840  30.780   8.615
 2567POPC   D2A36328  39.791  30.418   8.336
 2567POPC   C3A36329  39.847  30.526   7.898
 2567POPC   C4A36330  40.024  30.863   7.698
 2567POPC   C1B36331  40.316  30.641   8.591
 2567POPC   C2B36332  40.261  30.663   8.171
 2567POPC   C3B36333  40.368  30.367   7.864
 2567POPC   C4B36334  40.203  30.423   7.489
 2568POPC   NC336335  43.122  16.370   9.412
 2568POPC   PO436336  42.902  16.876   9.191
 2568POPC   GL136337  42.891  16.471   8.948
 2568POPC   GL236338  43.273  16.458   8.940
 2568POPC   C1A36339  42.667  16.331   8.536
 2568POPC   D2A36340  42.831  16.186   8.093
 2568POPC   C3A36341  43.050  16.458   7.806
 2568POPC   C4A36342  43.081  16.841   7.553
 2568POPC   C1B36343  43.423  16.664   8.575
 2568POPC   C2B36344  43.459  16.546   8.149
 2568POPC   C3B36345  43.527  16.657   7.734
 2568POPC   C4B36346  43.556  16.825   7.309
 2569POPC   NC336347  14.260  36.005   9.320
 2569POPC   PO436348  14.873  36.224   9.490
 2569POPC   GL136349  14.596  36.358   9.140
 2569POPC   GL236350  14.273  36.528   9.251
 2569POPC   C1A36351  14.528  36.177   8.730
 2569POPC   D2A36352  14.697  36.276   8.370
 2569POPC   C3A36353  14.628  36.002   8.077
 2569POPC   C4A36354  14.338  35.998   7.774
 2569POPC   C1B36355  14.143  36.463   8.819
 2569POPC   C2B36356  14.306  36.595   8.421
 2569POPC   C3B36357  14.400  36.486   7.978
 2569POPC   C4B36358  14.228  36.593   7.588
 2570POPC   NC336359  24.849  27.119   9.473
 2570POPC   PO436360  25.423  27.022   9.491
 2570POPC   GL136361  25.427  26.895   9.075
 2570POPC   GL236362  25.439  26.537   9.122
 2570POPC   C1A36363  25.320  26.878   8.633
 2570POPC   D2A36364  25.583  26.815   8.296
 2570POPC   C3A36365  25.454  27.009   8.016
 2570POPC   C4A36366  25.466  27.078   7.638
 2570POPC   C1B36367  25.013  26.607   8.931
 2570POPC   C2B36368  24.916  26.581   8.492
 2570POPC   C3B36369  25.169  26.549   8.125
 2570POPC   C4B36370  25.049  26.804   7.786
 2571POPC   NC336371   6.214  44.074   9.602
 2571POPC   PO436372   5.558  43.935   9.859
 2571POPC   GL136373   5.726  43.827   9.381
 2571POPC   GL236374   5.995  44.004   9.163
 2571POPC   C1A36375   5.742  43.679   8.894
 2571POPC   D2A36376   6.022  43.730   8.523
 2571POPC   C3A36377   5.904  43.781   8.082
 2571POPC   C4A36378   5.723  43.896   7.687
 2571POPC   C1B36379   5.969  44.192   8.742
 2571POPC   C2B36380   6.179  44.188   8.315
 2571POPC   C3B36381   6.164  44.149   7.846
 2571POPC   C4B36382   6.005  44.247   7.442
 2572POPC   NC336383   8.222  38.773   9.525
 2572POPC   PO436384   8.014  39.436   9.587
 2572POPC   GL136385   8.205  39.232   9.224
 2572POPC   GL236386   8.569  39.301   9.215
 2572POPC   C1A36387   8.249  39.065   8.788
 2572POPC   D2A36388   8.141  38.744   8.441
 2572POPC   C3A36389   8.100  38.912   8.029
 2572POPC   C4A36390   7.905  39.236   7.777
 2572POPC   C1B36391   8.487  39.560   8.833
 2572POPC   C2B36392   8.221  39.504   8.461
 2572POPC   C3B36393   8.307  39.399   8.032
 2572POPC   C4B36394   8.519  39.063   7.769
 2573POPC   NC336395  35.740  44.566   9.459
 2573POPC   PO436396  36.428  44.538   9.471
 2573POPC   GL136397  36.145  44.808   9.202
 2573POPC   GL236398  36.049  44.500   9.059
 2573POPC   C1A36399  35.923  44.925   8.811
 2573POPC   D2A36400  36.087  44.732   8.448
 2573POPC   C3A36401  35.842  44.874   8.080
 2573POPC   C4A36402  36.160  44.975   7.781
 2573POPC   C1B36403  36.055  44.263   8.706
 2573POPC   C2B36404  36.053  44.163   8.292
 2573POPC   C3B36405  36.195  44.504   7.999
 2573POPC   C4B36406  36.369  44.483   7.584
 2574POPC   NC336407  19.492  23.457   9.411
 2574POPC   PO436408  19.959  23.871   9.204
 2574POPC   GL136409  19.766  23.610   9.016
 2574POPC   GL236410  19.445  23.851   9.065
 2574POPC   C1A36411  19.922  23.586   8.610
 2574POPC   D2A36412  19.920  23.978   8.401
 2574POPC   C3A36413  19.971  23.858   7.997
 2574POPC   C4A36414  20.032  23.442   7.834
 2574POPC   C1B36415  19.410  23.630   8.673
 2574POPC   C2B36416  19.535  23.664   8.249
 2574POPC   C3B36417  19.406  23.817   7.868
 2574POPC   C4B36418  19.657  24.048   7.605
 2575POPC   NC336419  36.314  43.971   9.732
 2575POPC   PO436420  35.744  44.009   9.503
 2575POPC   GL136421  36.012  43.970   9.137
 2575POPC   GL236422  36.355  44.094   9.236
 2575POPC   C1A36423  36.078  43.706   8.742
 2575POPC   D2A36424  35.963  43.453   8.361
 2575POPC   C3A36425  35.856  43.739   8.004
 2575POPC   C4A36426  35.994  44.122   7.767
 2575POPC   C1B36427  36.487  44.016   8.835
 2575POPC   C2B36428  36.465  43.866   8.411
 2575POPC   C3B36429  36.439  43.988   7.965
 2575POPC   C4B36430  36.395  43.976   7.493
 2576POPC   NC336431  25.706  38.645   9.593
 2576POPC   PO436432  26.163  38.298   9.579
 2576POPC   GL136433  26.035  38.412   9.181
 2576POPC   GL236434  26.287  38.148   9.105
 2576POPC   C1A36435  25.883  38.570   8.766
 2576POPC   D2A36436  25.624  38.457   8.391
 2576POPC   C3A36437  25.796  38.575   7.985
 2576POPC   C4A36438  25.790  38.280   7.641
 2576POPC   C1B36439  26.021  38.075   8.768
 2576POPC   C2B36440  26.069  38.247   8.370
 2576POPC   C3B36441  26.128  38.116   7.972
 2576POPC   C4B36442  26.362  38.133   7.609
 2577POPC   NC336443  16.140   0.443   9.725
 2577POPC   PO436444  15.613   0.294   9.345
 2577POPC   GL136445  15.701   0.380   8.954
 2577POPC   GL236446  15.985   0.574   9.049
 2577POPC   C1A36447  15.672   0.284   8.518
 2577POPC   D2A36448  15.983   0.278   8.200
 2577POPC   C3A36449  15.800   0.598   7.892
 2577POPC   C4A36450  15.951   0.723   7.462
 2577POPC   C1B36451  16.122   0.558   8.623
 2577POPC   C2B36452  16.163   0.765   8.195
 2577POPC   C3B36453  16.306   0.548   7.823
 2577POPC   C4B36454  16.455   0.582   7.391
 2578POPC   NC336455  39.225  43.238   9.612
 2578POPC   PO436456  39.450  42.788   9.146
 2578POPC   GL136457  39.393  43.223   9.089
 2578POPC   GL236458  39.039  43.287   9.149
 2578POPC   C1A36459  39.443  43.260   8.644
 2578POPC   D2A36460  39.307  42.876   8.410
 2578POPC   C3A36461  39.103  42.969   8.032
 2578POPC   C4A36462  39.269  43.368   7.836
 2578POPC   C1B36463  38.926  43.138   8.747
 2578POPC   C2B36464  38.984  43.356   8.368
 2578POPC   C3B36465  38.785  43.470   8.000
 2578POPC   C4B36466  38.804  43.182   7.677
 2579POPC   NC336467  27.778  44.938   9.563
 2579POPC   PO436468  27.443  44.409   9.607
 2579POPC   GL136469  27.771  44.529   9.225
 2579POPC   GL236470  27.598  44.830   9.097
 2579POPC   C1A36471  27.938  44.649   8.765
 2579POPC   D2A36472  27.929  44.951   8.386
 2579POPC   C3A36473  27.792  44.875   7.969
 2579POPC   C4A36474  27.619  44.561   7.741
 2579POPC   C1B36475  27.495  44.936   8.658
 2579POPC   C2B36476  27.348  44.783   8.243
 2579POPC   C3B36477  27.237  44.881   7.826
 2579POPC   C4B36478  27.529   0.091   7.567
 2580POPC   NC336479  37.978  16.015   9.469
 2580POPC   PO436480  38.605  15.758   9.543
 2580POPC   GL136481  38.344  15.711   9.159
 2580POPC   GL236482  38.361  15.351   9.077
 2580POPC   C1A36483  38.263  15.864   8.730
 2580POPC   D2A36484  38.257  16.160   8.461
 2580POPC   C3A36485  38.562  16.221   8.170
 2580POPC   C4A36486  38.481  16.303   7.746
 2580POPC   C1B36487  38.561  15.478   8.671
 2580POPC   C2B36488  38.504  15.704   8.298
 2580POPC   C3B36489  38.601  15.748   7.889
 2580POPC   C4B36490  38.594  15.638   7.447
 2581POPC   NC336491  23.775  34.988   9.438
 2581POPC   PO436492  23.796  35.675   9.447
 2581POPC   GL136493  23.643  35.438   9.087
 2581POPC   GL236494  23.422  35.138   9.093
 2581POPC   C1A36495  23.529  35.637   8.689
 2581POPC   D2A36496  23.811  35.617   8.355
 2581POPC   C3A36497  23.743  35.581   7.927
 2581POPC   C4A36498  23.950  35.710   7.574
 2581POPC   C1B36499  23.627  35.134   8.661
 2581POPC   C2B36500  23.483  35.229   8.227
 2581POPC   C3B36501  23.454  35.207   7.760
 2581POPC   C4B36502  23.769  35.182   7.428
 2582POPC   NC336503  35.928  37.215   9.771
 2582POPC   PO436504  36.002  37.942   9.688
 2582POPC   GL136505  36.197  37.883   9.185
 2582POPC   GL236506  36.498  37.641   9.119
 2582POPC   C1A36507  36.107  37.674   8.773
 2582POPC   D2A36508  36.217  37.473   8.380
 2582POPC   C3A36509  35.942  37.645   8.072
 2582POPC   C4A36510  36.004  37.771   7.668
 2582POPC   C1B36511  36.592  37.777   8.746
 2582POPC   C2B36512  36.473  37.955   8.375
 2582POPC   C3B36513  36.449  37.760   7.994
 2582POPC   C4B36514  36.533  37.696   7.551
 2583POPC   NC336515  19.011  42.785   9.534
 2583POPC   PO436516  19.290  43.410   9.553
 2583POPC   GL136517  19.290  43.111   9.231
 2583POPC   GL236518  18.956  43.132   9.159
 2583POPC   C1A36519  19.504  42.951   8.868
 2583POPC   D2A36520  19.523  43.054   8.433
 2583POPC   C3A36521  19.189  42.860   8.188
 2583POPC   C4A36522  19.015  42.930   7.792
 2583POPC   C1B36523  18.720  43.283   8.822
 2583POPC   C2B36524  18.855  43.219   8.417
 2583POPC   C3B36525  18.751  43.319   7.990
 2583POPC   C4B36526  18.796  43.442   7.550
 2584POPC   NC336527   2.431  15.132   9.328
 2584POPC   PO436528   3.038  15.523   9.350
 2584POPC   GL136529   2.830  15.261   9.043
 2584POPC   GL236530   2.492  15.322   8.870
 2584POPC   C1A36531   2.819  14.974   8.698
 2584POPC   D2A36532   2.898  14.958   8.274
 2584POPC   C3A36533   2.857  15.241   7.944
 2584POPC   C4A36534   3.063  15.094   7.632
 2584POPC   C1B36535   2.291  14.936   8.703
 2584POPC   C2B36536   2.447  14.715   8.362
 2584POPC   C3B36537   2.466  14.912   7.970
 2584POPC   C4B36538   2.542  15.063   7.549
 2585POPC   NC336539  11.886  44.172   9.656
 2585POPC   PO436540  12.221  43.722   9.482
 2585POPC   GL136541  12.096  43.768   9.104
 2585POPC   GL236542  11.969  44.101   9.114
 2585POPC   C1A36543  11.962  43.663   8.715
 2585POPC   D2A36544  11.851  43.893   8.384
 2585POPC   C3A36545  11.947  43.655   8.056
 2585POPC   C4A36546  11.710  43.636   7.728
 2585POPC   C1B36547  12.170  44.180   8.684
 2585POPC   C2B36548  12.151  44.270   8.200
 2585POPC   C3B36549  11.891  44.140   7.814
 2585POPC   C4B36550  11.658  44.050   7.392
 2586POPC   NC336551  30.493  44.092   9.432
 2586POPC   PO436552  31.048  43.837   9.265
 2586POPC   GL136553  30.704  43.758   9.006
 2586POPC   GL236554  30.369  43.851   9.004
 2586POPC   C1A36555  30.606  43.727   8.560
 2586POPC   D2A36556  30.545  43.714   8.123
 2586POPC   C3A36557  30.853  44.015   7.950
 2586POPC   C4A36558  30.927  44.161   7.550
 2586POPC   C1B36559  30.428  44.203   8.737
 2586POPC   C2B36560  30.283  44.335   8.319
 2586POPC   C3B36561  30.364  44.141   7.906
 2586POPC   C4B36562  30.336  43.909   7.478
 2587POPC   NC336563  35.054   4.681   9.581
 2587POPC   PO436564  35.440   4.202   9.541
 2587POPC   GL136565  35.313   4.129   9.134
 2587POPC   GL236566  34.996   4.212   9.290
 2587POPC   C1A36567  35.435   4.244   8.695
 2587POPC   D2A36568  35.370   4.470   8.286
 2587POPC   C3A36569  35.533   4.416   7.833
 2587POPC   C4A36570  35.623   4.453   7.374
 2587POPC   C1B36571  34.948   4.334   8.857
 2587POPC   C2B36572  34.869   4.315   8.407
 2587POPC   C3B36573  35.011   4.400   7.940
 2587POPC   C4B36574  35.092   4.457   7.477
 2588POPC   NC336575  32.842   5.333   9.625
 2588POPC   PO436576  32.884   5.980   9.894
 2588POPC   GL136577  32.854   5.927   9.427
 2588POPC   GL236578  33.178   6.069   9.282
 2588POPC   C1A36579  32.742   6.063   8.991
 2588POPC   D2A36580  32.886   6.122   8.544
 2588POPC   C3A36581  32.867   5.910   8.124
 2588POPC   C4A36582  32.873   5.924   7.662
 2588POPC   C1B36583  33.279   5.947   8.846
 2588POPC   C2B36584  33.357   5.927   8.373
 2588POPC   C3B36585  33.372   5.868   7.903
 2588POPC   C4B36586  33.330   6.040   7.450
 2589POPC   NC336587  42.285  27.190   9.286
 2589POPC   PO436588  42.178  27.695   9.622
 2589POPC   GL136589  42.067  27.624   9.191
 2589POPC   GL236590  41.823  27.350   9.108
 2589POPC   C1A36591  42.239  27.675   8.784
 2589POPC   D2A36592  42.053  27.778   8.386
 2589POPC   C3A36593  42.236  27.712   7.973
 2589POPC   C4A36594  42.365  27.790   7.537
 2589POPC   C1B36595  41.893  27.345   8.661
 2589POPC   C2B36596  41.776  27.347   8.254
 2589POPC   C3B36597  42.011  27.266   7.865
 2589POPC   C4B36598  41.992  27.488   7.492
 2590POPC   NC336599   7.623   8.254   9.680
 2590POPC   PO436600   7.213   8.479   9.168
 2590POPC   GL136601   7.392   8.119   8.988
 2590POPC   GL236602   7.680   7.989   9.220
 2590POPC   C1A36603   7.205   8.033   8.554
 2590POPC   D2A36604   7.139   8.333   8.194
 2590POPC   C3A36605   7.353   8.313   7.793
 2590POPC   C4A36606   7.123   7.969   7.609
 2590POPC   C1B36607   7.846   7.973   8.797
 2590POPC   C2B36608   7.678   7.866   8.424
 2590POPC   C3B36609   7.422   7.879   8.068
 2590POPC   C4B36610   7.613   7.831   7.671
 2591POPC   NC336611  36.041  40.297   9.506
 2591POPC   PO436612  35.969  41.014   9.608
 2591POPC   GL136613  36.059  40.859   9.219
 2591POPC   GL236614  35.747  40.695   9.169
 2591POPC   C1A36615  36.276  40.884   8.821
 2591POPC   D2A36616  36.118  41.029   8.430
 2591POPC   C3A36617  36.289  40.855   8.100
 2591POPC   C4A36618  36.257  41.051   7.734
 2591POPC   C1B36619  35.991  40.450   8.871
 2591POPC   C2B36620  36.193  40.476   8.471
 2591POPC   C3B36621  35.958  40.446   8.105
 2591POPC   C4B36622  36.111  40.572   7.709
 2592POPC   NC336623  39.316  29.676   9.429
 2592POPC   PO436624  38.786  30.020   9.569
 2592POPC   GL136625  38.944  29.931   9.166
 2592POPC   GL236626  38.809  29.601   9.211
 2592POPC   C1A36627  39.295  30.012   8.834
 2592POPC   D2A36628  39.603  29.881   8.472
 2592POPC   C3A36629  39.383  29.765   8.068
 2592POPC   C4A36630  39.299  29.891   7.602
 2592POPC   C1B36631  39.011  29.560   8.812
 2592POPC   C2B36632  39.016  29.794   8.436
 2592POPC   C3B36633  38.912  30.043   8.075
 2592POPC   C4B36634  38.786  30.032   7.662
 2593POPC   NC336635  35.035   7.919   9.404
 2593POPC   PO436636  35.182   8.533   9.683
 2593POPC   GL136637  35.380   8.314   9.214
 2593POPC   GL236638  35.489   7.967   9.146
 2593POPC   C1A36639  35.228   8.152   8.731
 2593POPC   D2A36640  35.192   7.996   8.265
 2593POPC   C3A36641  35.059   8.212   7.890
 2593POPC   C4A36642  35.149   8.430   7.473
 2593POPC   C1B36643  35.606   7.762   8.732
 2593POPC   C2B36644  35.606   7.711   8.243
 2593POPC   C3B36645  35.560   8.035   7.878
 2593POPC   C4B36646  35.585   8.179   7.444
 2594POPC   NC336647  35.563   8.711   9.519
 2594POPC   PO436648  35.296   9.260   9.475
 2594POPC   GL136649  35.285   9.067   9.109
 2594POPC   GL236650  35.158   8.759   9.117
 2594POPC   C1A36651  35.370   9.221   8.717
 2594POPC   D2A36652  35.239   9.020   8.357
 2594POPC   C3A36653  35.449   9.037   7.972
 2594POPC   C4A36654  35.299   9.381   7.791
 2594POPC   C1B36655  35.352   8.661   8.734
 2594POPC   C2B36656  35.267   8.518   8.294
 2594POPC   C3B36657  35.042   8.728   7.931
 2594POPC   C4B36658  35.167   8.938   7.548
 2595POPC   NC336659  27.058  30.127   9.500
 2595POPC   PO436660  26.474  29.697   9.461
 2595POPC   GL136661  26.548  29.933   9.079
 2595POPC   GL236662  26.822  30.182   9.033
 2595POPC   C1A36663  26.504  30.032   8.648
 2595POPC   D2A36664  26.746  29.880   8.311
 2595POPC   C3A36665  26.928  30.023   7.980
 2595POPC   C4A36666  26.961  30.013   7.548
 2595POPC   C1B36667  27.054  30.010   8.683
 2595POPC   C2B36668  27.307  30.152   8.302
 2595POPC   C3B36669  27.436  30.028   7.861
 2595POPC   C4B36670  27.419  30.073   7.393
 2596POPC   NC336671  34.690  10.562   9.427
 2596POPC   PO436672  34.875   9.962   9.392
 2596POPC   GL136673  34.766  10.218   9.065
 2596POPC   GL236674  34.423  10.199   9.004
 2596POPC   C1A36675  34.670  10.561   8.767
 2596POPC   D2A36676  34.501  10.416   8.398
 2596POPC   C3A36677  34.838  10.413   8.094
 2596POPC   C4A36678  34.857  10.734   7.773
 2596POPC   C1B36679  34.192  10.002   8.619
 2596POPC   C2B36680  34.158  10.096   8.175
 2596POPC   C3B36681  34.365  10.357   7.881
 2596POPC   C4B36682  34.430  10.440   7.439
 2597POPC   NC336683  38.769  12.628   9.483
 2597POPC   PO436684  38.371  13.177   9.553
 2597POPC   GL136685  38.377  12.930   9.153
 2597POPC   GL236686  38.375  12.567   9.106
 2597POPC   C1A36687  38.526  12.865   8.736
 2597POPC   D2A36688  38.280  12.689   8.383
 2597POPC   C3A36689  38.375  12.945   8.062
 2597POPC   C4A36690  38.415  13.130   7.661
 2597POPC   C1B36691  38.569  12.377   8.700
 2597POPC   C2B36692  38.755  12.537   8.283
 2597POPC   C3B36693  38.492  12.485   7.899
 2597POPC   C4B36694  38.188  12.670   7.686
 2598POPC   NC336695   3.772  18.082   9.566
 2598POPC   PO436696   3.441  18.566   9.336
 2598POPC   GL136697   3.552  18.203   9.119
 2598POPC   GL236698   3.276  18.298   8.887
 2598POPC   C1A36699   3.679  18.046   8.754
 2598POPC   D2A36700   3.641  18.282   8.362
 2598POPC   C3A36701   3.830  18.129   7.960
 2598POPC   C4A36702   3.665  17.910   7.595
 2598POPC   C1B36703   3.525  18.675   8.706
 2598POPC   C2B36704   3.657  18.844   8.305
 2598POPC   C3B36705   3.620  18.593   7.949
 2598POPC   C4B36706   3.337  18.225   7.856
 2599POPC   NC336707   7.731   8.487   9.181
 2599POPC   PO436708   7.291   8.714   9.644
 2599POPC   GL136709   7.373   8.955   9.186
 2599POPC   GL236710   7.638   9.196   9.027
 2599POPC   C1A36711   7.442   8.837   8.711
 2599POPC   D2A36712   7.522   8.643   8.325
 2599POPC   C3A36713   7.260   8.786   7.978
 2599POPC   C4A36714   7.212   8.770   7.490
 2599POPC   C1B36715   7.823   9.129   8.579
 2599POPC   C2B36716   7.668   9.111   8.149
 2599POPC   C3B36717   7.598   9.026   7.714
 2599POPC   C4B36718   7.616   9.127   7.247
 2600POPC   NC336719  35.299  16.451   9.574
 2600POPC   PO436720  35.148  17.194   9.418
 2600POPC   GL136721  35.352  16.885   9.239
 2600POPC   GL236722  35.131  16.672   9.156
 2600POPC   C1A36723  35.645  16.829   8.947
 2600POPC   D2A36724  35.600  16.677   8.539
 2600POPC   C3A36725  35.454  16.930   8.185
 2600POPC   C4A36726  35.463  16.679   7.803
 2600POPC   C1B36727  35.156  16.856   8.751
 2600POPC   C2B36728  35.103  16.621   8.376
 2600POPC   C3B36729  35.006  16.711   7.990
 2600POPC   C4B36730  34.958  17.078   7.786
 2601POPC   NC336731  33.167  42.811   9.358
 2601POPC   PO436732  33.039  42.189   9.604
 2601POPC   GL136733  32.975  42.230   9.107
 2601POPC   GL236734  33.050  42.556   8.936
 2601POPC   C1A36735  33.151  42.151   8.665
 2601POPC   D2A36736  33.316  42.119   8.275
 2601POPC   C3A36737  33.199  42.474   7.988
 2601POPC   C4A36738  33.001  42.455   7.574
 2601POPC   C1B36739  32.688  42.356   8.704
 2601POPC   C2B36740  32.462  42.416   8.347
 2601POPC   C3B36741  32.594  42.361   7.892
 2601POPC   C4B36742  32.585  42.219   7.416
 2602POPC   NC336743   6.336  22.885   9.888
 2602POPC   PO436744   6.679  23.298   9.512
 2602POPC   GL136745   6.691  23.116   9.125
 2602POPC   GL236746   6.446  22.842   9.198
 2602POPC   C1A36747   6.824  23.216   8.703
 2602POPC   D2A36748   6.541  23.184   8.349
 2602POPC   C3A36749   6.602  23.257   7.894
 2602POPC   C4A36750   6.647  23.148   7.444
 2602POPC   C1B36751   6.542  22.795   8.745
 2602POPC   C2B36752   6.569  22.649   8.299
 2602POPC   C3B36753   6.537  22.758   7.837
 2602POPC   C4B36754   6.459  22.718   7.342
 2603POPC   NC336755  10.811  19.377   9.440
 2603POPC   PO436756  10.169  19.071   9.435
 2603POPC   GL136757  10.506  19.095   9.138
 2603POPC   GL236758  10.435  19.447   9.088
 2603POPC   C1A36759  10.814  19.079   8.764
 2603POPC   D2A36760  10.730  19.159   8.315
 2603POPC   C3A36761  10.475  18.818   8.132
 2603POPC   C4A36762  10.443  18.664   7.725
 2603POPC   C1B36763  10.368  19.299   8.673
 2603POPC   C2B36764  10.225  19.241   8.276
 2603POPC   C3B36765  10.412  19.278   7.899
 2603POPC   C4B36766  10.228  19.134   7.577
 2604POPC   NC336767  11.036  18.450   9.739
 2604POPC   PO436768  11.621  18.439   9.758
 2604POPC   GL136769  11.538  18.501   9.275
 2604POPC   GL236770  11.184  18.523   9.211
 2604POPC   C1A36771  11.509  18.419   8.791
 2604POPC   D2A36772  11.290  18.330   8.371
 2604POPC   C3A36773  11.461  18.318   7.918
 2604POPC   C4A36774  11.550  17.983   7.600
 2604POPC   C1B36775  10.959  18.553   8.786
 2604POPC   C2B36776  10.962  18.711   8.326
 2604POPC   C3B36777  10.995  18.539   7.870
 2604POPC   C4B36778  10.801  18.368   7.464
 2605POPC   NC336779  44.971  11.981   9.379
 2605POPC   PO436780  44.421  12.373   9.590
 2605POPC   GL136781  44.515  12.139   9.217
 2605POPC   GL236782  44.378  11.812   9.311
 2605POPC   C1A36783  44.723  12.147   8.800
 2605POPC   D2A36784  44.919  12.345   8.463
 2605POPC   C3A36785  44.653  12.185   8.189
 2605POPC   C4A36786  44.759  12.164   7.805
 2605POPC   C1B36787  44.344  11.797   8.852
 2605POPC   C2B36788  44.503  11.721   8.433
 2605POPC   C3B36789  44.290  11.808   8.035
 2605POPC   C4B36790  44.366  11.928   7.627
 2606POPC   NC336791  22.383   7.689   9.428
 2606POPC   PO436792  22.174   7.058   9.435
 2606POPC   GL136793  22.345   7.226   9.107
 2606POPC   GL236794  22.059   7.438   9.058
 2606POPC   C1A36795  22.206   7.122   8.671
 2606POPC   D2A36796  21.833   7.223   8.438
 2606POPC   C3A36797  21.896   7.379   8.017
 2606POPC   C4A36798  22.233   7.271   7.722
 2606POPC   C1B36799  22.407   7.600   8.774
 2606POPC   C2B36800  22.395   7.629   8.330
 2606POPC   C3B36801  22.247   7.789   7.945
 2606POPC   C4B36802  22.181   7.732   7.503
 2607POPC   NC336803  35.357   9.740   9.505
 2607POPC   PO436804  35.688  10.353   9.679
 2607POPC   GL136805  35.538  10.121   9.223
 2607POPC   GL236806  35.507   9.728   9.042
 2607POPC   C1A36807  35.565  10.102   8.749
 2607POPC   D2A36808  35.537   9.711   8.512
 2607POPC   C3A36809  35.486   9.735   8.095
 2607POPC   C4A36810  35.504  10.097   7.861
 2607POPC   C1B36811  35.137   9.829   8.786
 2607POPC   C2B36812  35.146  10.030   8.366
 2607POPC   C3B36813  34.997   9.941   7.953
 2607POPC   C4B36814  35.157   9.803   7.579
 2608POPC   NC336815  29.204  21.936   9.509
 2608POPC   PO436816  28.977  22.514   9.454
 2608POPC   GL136817  29.099  22.252   9.113
 2608POPC   GL236818  28.926  21.913   9.071
 2608POPC   C1A36819  29.292  22.161   8.746
 2608POPC   D2A36820  29.153  22.147   8.350
 2608POPC   C3A36821  29.443  22.145   8.032
 2608POPC   C4A36822  29.225  22.072   7.682
 2608POPC   C1B36823  29.325  21.692   8.885
 2608POPC   C2B36824  29.458  21.724   8.456
 2608POPC   C3B36825  29.330  21.665   8.030
 2608POPC   C4B36826  29.550  21.717   7.610
 2609POPC   NC336827  14.845  22.328   9.645
 2609POPC   PO436828  15.320  21.933   9.725
 2609POPC   GL136829  15.224  22.152   9.286
 2609POPC   GL236830  15.226  22.540   9.222
 2609POPC   C1A36831  15.124  22.203   8.815
 2609POPC   D2A36832  15.298  22.159   8.357
 2609POPC   C3A36833  15.022  22.312   8.010
 2609POPC   C4A36834  14.851  22.135   7.603
 2609POPC   C1B36835  15.495  22.610   8.809
 2609POPC   C2B36836  15.693  22.494   8.394
 2609POPC   C3B36837  15.551  22.443   7.952
 2609POPC   C4B36838  15.290  22.419   7.592
 2610POPC   NC336839  16.904  40.234   9.427
 2610POPC   PO436840  17.064  39.534   9.479
 2610POPC   GL136841  16.767  39.750   9.200
 2610POPC   GL236842  16.455  39.976   9.265
 2610POPC   C1A36843  16.633  39.717   8.781
 2610POPC   D2A36844  16.721  39.636   8.345
 2610POPC   C3A36845  16.683  40.008   8.119
 2610POPC   C4A36846  16.892  40.183   7.734
 2610POPC   C1B36847  16.452  40.223   8.854
 2610POPC   C2B36848  16.312  40.382   8.430
 2610POPC   C3B36849  16.202  40.206   8.024
 2610POPC   C4B36850  16.407  40.031   7.679
 2611POPC   NC336851   0.970   5.954   9.521
 2611POPC   PO436852   1.683   6.082   9.382
 2611POPC   GL136853   1.455   5.822   9.103
 2611POPC   GL236854   1.092   5.735   9.082
 2611POPC   C1A36855   1.447   5.591   8.735
 2611POPC   D2A36856   1.155   5.653   8.413
 2611POPC   C3A36857   1.369   5.776   8.034
 2611POPC   C4A36858   1.276   5.798   7.612
 2611POPC   C1B36859   1.121   6.048   8.766
 2611POPC   C2B36860   0.867   6.104   8.391
 2611POPC   C3B36861   0.866   5.899   7.976
 2611POPC   C4B36862   0.865   6.075   7.551
 2612POPC   NC336863  13.452  29.329   9.660
 2612POPC   PO436864  13.677  28.691   9.637
 2612POPC   GL136865  13.882  28.938   9.243
 2612POPC   GL236866  13.697  29.254   9.222
 2612POPC   C1A36867  13.868  29.123   8.774
 2612POPC   D2A36868  14.008  29.317   8.362
 2612POPC   C3A36869  13.803  29.217   7.996
 2612POPC   C4A36870  13.820  29.098   7.583
 2612POPC   C1B36871  13.420  29.344   8.853
 2612POPC   C2B36872  13.478  29.433   8.382
 2612POPC   C3B36873  13.308  29.316   7.944
 2612POPC   C4B36874  13.063  29.166   7.578
 2613POPC   NC336875  39.875  23.487   9.322
 2613POPC   PO436876  40.434  23.534   9.700
 2613POPC   GL136877  40.221  23.851   9.286
 2613POPC   GL236878  39.885  23.983   9.156
 2613POPC   C1A36879  40.286  23.891   8.827
 2613POPC   D2A36880  40.087  23.669   8.491
 2613POPC   C3A36881  40.197  23.817   8.116
 2613POPC   C4A36882  40.357  23.674   7.757
 2613POPC   C1B36883  39.687  23.891   8.737
 2613POPC   C2B36884  39.666  23.922   8.249
 2613POPC   C3B36885  39.824  23.933   7.774
 2613POPC   C4B36886  39.715  23.997   7.295
 2614POPC   NC336887  41.931  11.061   9.508
 2614POPC   PO436888  41.338  11.419   9.463
 2614POPC   GL136889  41.497  11.510   9.087
 2614POPC   GL236890  41.782  11.284   9.073
 2614POPC   C1A36891  41.458  11.390   8.673
 2614POPC   D2A36892  41.748  11.186   8.428
 2614POPC   C3A36893  41.550  11.059   8.061
 2614POPC   C4A36894  41.291  11.292   7.770
 2614POPC   C1B36895  41.924  11.607   8.793
 2614POPC   C2B36896  41.733  11.747   8.448
 2614POPC   C3B36897  41.620  11.572   8.092
 2614POPC   C4B36898  41.670  11.654   7.695
 2615POPC   NC336899  21.349  18.811   9.844
 2615POPC   PO436900  21.382  18.138   9.632
 2615POPC   GL136901  21.317  18.198   9.208
 2615POPC   GL236902  21.078  18.463   9.159
 2615POPC   C1A36903  21.404  17.978   8.817
 2615POPC   D2A36904  21.421  18.158   8.400
 2615POPC   C3A36905  21.638  18.175   8.014
 2615POPC   C4A36906  21.516  18.006   7.614
 2615POPC   C1B36907  21.139  18.464   8.702
 2615POPC   C2B36908  21.016  18.409   8.244
 2615POPC   C3B36909  21.204  18.373   7.815
 2615POPC   C4B36910  21.223  18.395   7.352
 2616POPC   NC336911  23.547  37.544   9.616
 2616POPC   PO436912  23.814  38.170   9.676
 2616POPC   GL136913  23.810  37.914   9.317
 2616POPC   GL236914  23.952  37.654   9.212
 2616POPC   C1A36915  23.708  37.906   8.861
 2616POPC   D2A36916  23.499  37.945   8.505
 2616POPC   C3A36917  23.637  38.058   8.145
 2616POPC   C4A36918  23.778  37.731   7.897
 2616POPC   C1B36919  24.000  37.509   8.778
 2616POPC   C2B36920  23.977  37.539   8.335
 2616POPC   C3B36921  24.095  37.351   7.921
 2616POPC   C4B36922  23.904  37.367   7.494
 2617POPC   NC336923  14.915   3.215   9.619
 2617POPC   PO436924  15.117   3.885   9.602
 2617POPC   GL136925  15.236   3.616   9.229
 2617POPC   GL236926  15.042   3.354   9.155
 2617POPC   C1A36927  15.215   3.716   8.818
 2617POPC   D2A36928  15.139   3.795   8.403
 2617POPC   C3A36929  15.387   3.662   8.073
 2617POPC   C4A36930  15.469   3.887   7.702
 2617POPC   C1B36931  15.234   3.208   8.783
 2617POPC   C2B36932  15.145   3.260   8.353
 2617POPC   C3B36933  15.285   3.093   7.979
 2617POPC   C4B36934  15.398   3.352   7.658
 2618POPC   NC336935  31.104  18.599   9.552
 2618POPC   PO436936  31.529  18.061   9.585
 2618POPC   GL136937  31.502  18.402   9.229
 2618POPC   GL236938  31.210  18.372   9.040
 2618POPC   C1A36939  31.604  18.598   8.773
 2618POPC   D2A36940  31.442  18.498   8.315
 2618POPC   C3A36941  31.727  18.452   7.953
 2618POPC   C4A36942  31.843  18.312   7.508
 2618POPC   C1B36943  31.425  18.137   8.683
 2618POPC   C2B36944  31.341  17.987   8.253
 2618POPC   C3B36945  31.338  18.148   7.830
 2618POPC   C4B36946  31.098  18.216   7.500
 2619POPC   NC336947  35.929  24.895   9.420
 2619POPC   PO436948  36.186  24.381   9.524
 2619POPC   GL136949  36.529  24.469   9.232
 2619POPC   GL236950  36.340  24.695   8.994
 2619POPC   C1A36951  36.615  24.267   8.835
 2619POPC   D2A36952  36.263  24.286   8.564
 2619POPC   C3A36953  36.339  24.321   8.150
 2619POPC   C4A36954  36.205  24.139   7.771
 2619POPC   C1B36955  35.907  24.562   8.815
 2619POPC   C2B36956  35.734  24.497   8.367
 2619POPC   C3B36957  35.906  24.524   7.929
 2619POPC   C4B36958  36.314  24.675   7.789
 2620POPC   NC336959   1.401  41.804   9.383
 2620POPC   PO436960   1.040  41.288   9.440
 2620POPC   GL136961   1.049  41.524   9.059
 2620POPC   GL236962   0.724  41.583   8.959
 2620POPC   C1A36963   1.235  41.532   8.632
 2620POPC   D2A36964   1.214  41.282   8.263
 2620POPC   C3A36965   1.252  41.390   7.837
 2620POPC   C4A36966   1.473  41.643   7.529
 2620POPC   C1B36967   0.803  41.241   8.646
 2620POPC   C2B36968   0.704  41.283   8.195
 2620POPC   C3B36969   0.757  41.531   7.816
 2620POPC   C4B36970   0.981  41.597   7.415
 2621POPC   NC336971  20.676  12.896   9.720
 2621POPC   PO436972  20.381  12.372   9.605
 2621POPC   GL136973  20.358  12.792   9.308
 2621POPC   GL236974  20.714  12.883   9.182
 2621POPC   C1A36975  20.362  12.884   8.820
 2621POPC   D2A36976  20.638  12.918   8.427
 2621POPC   C3A36977  20.509  13.065   8.031
 2621POPC   C4A36978  20.382  12.923   7.634
 2621POPC   C1B36979  20.817  13.189   8.817
 2621POPC   C2B36980  20.993  13.266   8.365
 2621POPC   C3B36981  20.991  13.198   7.917
 2621POPC   C4B36982  20.913  13.105   7.476
 2622POPC   NC336983  15.715  25.212   9.376
 2622POPC   PO436984  16.398  25.195   9.361
 2622POPC   GL136985  16.304  25.399   8.993
 2622POPC   GL236986  15.955  25.313   8.951
 2622POPC   C1A36987  16.298  25.218   8.585
 2622POPC   D2A36988  16.075  24.960   8.345
 2622POPC   C3A36989  16.127  25.104   7.961
 2622POPC   C4A36990  16.065  24.940   7.566
 2622POPC   C1B36991  15.832  25.456   8.558
 2622POPC   C2B36992  15.949  25.813   8.300
 2622POPC   C3B36993  16.056  25.699   7.889
 2622POPC   C4B36994  15.813  25.379   7.667
 2623POPC   NC336995  40.404  41.196   9.497
 2623POPC   PO436996  39.978  40.630   9.585
 2623POPC   GL136997  40.090  40.854   9.213
 2623POPC   GL236998  40.194  40.549   9.126
 2623POPC   C1A36999  40.081  41.030   8.781
 2623POPC   D2A37000  40.151  40.826   8.376
 2623POPC   C3A37001  39.958  40.930   7.938
 2623POPC   C4A37002  39.989  41.006   7.447
 2623POPC   C1B37003  39.888  40.548   8.821
 2623POPC   C2B37004  39.903  40.378   8.438
 2623POPC   C3B37005  40.123  40.436   8.051
 2623POPC   C4B37006  40.030  40.530   7.631
 2624POPC   NC337007   0.251  40.499   9.483
 2624POPC   PO437008   0.549  39.893   9.430
 2624POPC   GL137009   0.442  39.890   9.000
 2624POPC   GL237010   0.337  40.225   9.038
 2624POPC   C1A37011   0.474  39.958   8.532
 2624POPC   D2A37012   0.171  39.949   8.171
 2624POPC   C3A37013   0.322  39.805   7.786
 2624POPC   C4A37014   0.718  39.884   7.597
 2624POPC   C1B37015   0.763  40.248   8.851
 2624POPC   C2B37016   0.835  40.309   8.411
 2624POPC   C3B37017   0.657  40.143   8.040
 2624POPC   C4B37018   0.348  40.305   7.745
 2625POPC   NC337019  39.011  25.857   9.844
 2625POPC   PO437020  39.396  26.396   9.600
 2625POPC   GL137021  39.316  26.123   9.229
 2625POPC   GL237022  39.162  25.788   9.332
 2625POPC   C1A37023  39.426  26.171   8.763
 2625POPC   D2A37024  39.181  26.108   8.387
 2625POPC   C3A37025  39.359  26.205   7.977
 2625POPC   C4A37026  39.262  26.318   7.558
 2625POPC   C1B37027  39.298  25.710   8.918
 2625POPC   C2B37028  39.213  25.598   8.499
 2625POPC   C3B37029  39.378  25.720   8.095
 2625POPC   C4B37030  39.324  25.794   7.670
 2626POPC   NC337031  13.410   3.959   9.479
 2626POPC   PO437032  14.006   3.622   9.452
 2626POPC   GL137033  13.795   3.643   9.037
 2626POPC   GL237034  13.405   3.643   9.066
 2626POPC   C1A37035  13.895   3.441   8.616
 2626POPC   D2A37036  13.701   3.195   8.265
 2626POPC   C3A37037  13.871   3.238   7.864
 2626POPC   C4A37038  13.979   3.682   7.795
 2626POPC   C1B37039  13.386   3.408   8.671
 2626POPC   C2B37040  13.245   3.443   8.236
 2626POPC   C3B37041  13.474   3.561   7.888
 2626POPC   C4B37042  13.407   3.855   7.548
 2627POPC   NC337043  25.550   9.264   9.323
 2627POPC   PO437044  26.060   9.687   9.389
 2627POPC   GL137045  25.773   9.672   9.096
 2627POPC   GL237046  25.477   9.834   9.190
 2627POPC   C1A37047  25.907   9.569   8.678
 2627POPC   D2A37048  26.206   9.548   8.336
 2627POPC   C3A37049  26.062   9.750   7.948
 2627POPC   C4A37050  26.056   9.626   7.481
 2627POPC   C1B37051  25.678  10.062   8.811
 2627POPC   C2B37052  25.893  10.013   8.423
 2627POPC   C3B37053  25.751  10.150   8.046
 2627POPC   C4B37054  25.698   9.963   7.666
 2628POPC   NC337055  39.746  35.222   9.698
 2628POPC   PO437056  40.199  35.608   9.577
 2628POPC   GL137057  39.983  35.559   9.197
 2628POPC   GL237058  40.112  35.287   9.065
 2628POPC   C1A37059  39.986  35.675   8.736
 2628POPC   D2A37060  39.887  35.875   8.347
 2628POPC   C3A37061  39.907  35.577   8.004
 2628POPC   C4A37062  39.726  35.173   7.889
 2628POPC   C1B37063  40.222  35.073   8.730
 2628POPC   C2B37064  40.175  35.257   8.357
 2628POPC   C3B37065  40.242  35.146   7.977
 2628POPC   C4B37066  40.358  35.071   7.603
 2629POPC   NC337067  44.450  42.028   9.335
 2629POPC   PO437068  44.021  41.480   9.477
 2629POPC   GL137069  43.911  41.761   9.190
 2629POPC   GL237070  44.194  41.710   9.019
 2629POPC   C1A37071  43.626  41.775   8.846
 2629POPC   D2A37072  43.584  41.527   8.450
 2629POPC   C3A37073  43.764  41.753   8.075
 2629POPC   C4A37074  44.096  41.551   7.818
 2629POPC   C1B37075  44.005  41.432   8.727
 2629POPC   C2B37076  44.100  41.362   8.299
 2629POPC   C3B37077  44.100  41.064   7.949
 2629POPC   C4B37078  44.152  40.962   7.511
 2630POPC   NC337079  21.034   7.117   9.513
 2630POPC   PO437080  20.780   6.469   9.470
 2630POPC   GL137081  20.840   6.720   9.132
 2630POPC   GL237082  21.164   6.748   9.152
 2630POPC   C1A37083  20.608   6.688   8.740
 2630POPC   D2A37084  20.373   6.805   8.381
 2630POPC   C3A37085  20.543   6.648   8.011
 2630POPC   C4A37086  20.635   6.791   7.620
 2630POPC   C1B37087  21.155   6.623   8.700
 2630POPC   C2B37088  20.869   6.394   8.416
 2630POPC   C3B37089  20.810   6.205   8.029
 2630POPC   C4B37090  20.677   6.262   7.625
 2631POPC   NC337091  18.634   2.136   9.491
 2631POPC   PO437092  19.212   1.741   9.646
 2631POPC   GL137093  19.064   1.801   9.267
 2631POPC   GL237094  18.830   1.529   9.226
 2631POPC   C1A37095  19.206   2.030   8.897
 2631POPC   D2A37096  19.194   1.879   8.476
 2631POPC   C3A37097  19.231   2.113   8.102
 2631POPC   C4A37098  19.061   2.236   7.720
 2631POPC   C1B37099  18.793   1.756   8.841
 2631POPC   C2B37100  18.657   1.846   8.454
 2631POPC   C3B37101  18.846   1.773   8.087
 2631POPC   C4B37102  18.947   1.689   7.667
 2632POPC   NC337103  37.351  34.562   9.374
 2632POPC   PO437104  37.972  34.839   9.505
 2632POPC   GL137105  37.843  34.570   9.165
 2632POPC   GL237106  37.987  34.207   9.173
 2632POPC   C1A37107  37.601  34.454   8.800
 2632POPC   D2A37108  37.511  34.641   8.423
 2632POPC   C3A37109  37.455  34.408   8.088
 2632POPC   C4A37110  37.473  34.586   7.715
 2632POPC   C1B37111  38.108  34.385   8.781
 2632POPC   C2B37112  38.020  34.657   8.432
 2632POPC   C3B37113  37.931  34.582   8.002
 2632POPC   C4B37114  37.966  34.533   7.553
 2633POPC   NC337115  15.543   3.663   9.609
 2633POPC   PO437116  16.196   3.296   9.596
 2633POPC   GL137117  16.101   3.401   9.211
 2633POPC   GL237118  16.447   3.314   9.125
 2633POPC   C1A37119  15.710   3.471   8.945
 2633POPC   D2A37120  15.654   3.730   8.558
 2633POPC   C3A37121  15.883   3.541   8.225
 2633POPC   C4A37122  15.852   3.590   7.790
 2633POPC   C1B37123  16.258   3.406   8.711
 2633POPC   C2B37124  16.423   3.328   8.292
 2633POPC   C3B37125  16.205   3.251   7.903
 2633POPC   C4B37126  15.802   3.077   7.794
 2634POPC   NC337127  34.140  23.021   9.673
 2634POPC   PO437128  34.757  22.810   9.666
 2634POPC   GL137129  34.715  23.093   9.268
 2634POPC   GL237130  34.986  23.100   9.065
 2634POPC   C1A37131  34.559  23.180   8.804
 2634POPC   D2A37132  34.471  22.969   8.424
 2634POPC   C3A37133  34.526  23.183   8.057
 2634POPC   C4A37134  34.316  23.282   7.705
 2634POPC   C1B37135  34.892  22.790   8.699
 2634POPC   C2B37136  34.822  22.629   8.229
 2634POPC   C3B37137  34.691  22.772   7.779
 2634POPC   C4B37138  34.890  22.800   7.339
 2635POPC   NC337139   1.139  40.863   9.600
 2635POPC   PO437140   1.435  40.351   9.504
 2635POPC   GL137141   1.253  40.604   9.168
 2635POPC   GL237142   1.030  40.900   9.107
 2635POPC   C1A37143   1.482  40.699   8.775
 2635POPC   D2A37144   1.330  40.807   8.369
 2635POPC   C3A37145   1.324  40.546   8.001
 2635POPC   C4A37146   1.562  40.656   7.641
 2635POPC   C1B37147   0.957  40.703   8.738
 2635POPC   C2B37148   0.802  40.816   8.355
 2635POPC   C3B37149   0.981  40.910   7.979
 2635POPC   C4B37150   0.794  40.582   7.774
 2636POPC   NC337151  41.566  32.765   9.511
 2636POPC   PO437152  41.459  33.393   9.558
 2636POPC   GL137153  41.550  33.165   9.156
 2636POPC   GL237154  41.849  32.935   9.136
 2636POPC   C1A37155  41.295  33.086   8.761
 2636POPC   D2A37156  41.187  33.239   8.329
 2636POPC   C3A37157  41.413  33.000   8.027
 2636POPC   C4A37158  41.431  32.840   7.628
 2636POPC   C1B37159  41.743  32.824   8.717
 2636POPC   C2B37160  41.866  33.030   8.302
 2636POPC   C3B37161  41.950  33.031   7.839
 2636POPC   C4B37162  41.742  33.234   7.517
 2637POPC   NC337163  11.820   6.599   9.563
 2637POPC   PO437164  12.351   6.387   9.201
 2637POPC   GL137165  12.027   6.550   8.981
 2637POPC   GL237166  11.962   6.820   9.134
 2637POPC   C1A37167  12.012   6.548   8.526
 2637POPC   D2A37168  12.200   6.778   8.221
 2637POPC   C3A37169  12.108   6.617   7.859
 2637POPC   C4A37170  11.686   6.553   7.783
 2637POPC   C1B37171  12.066   7.002   8.759
 2637POPC   C2B37172  11.813   7.048   8.412
 2637POPC   C3B37173  11.883   7.101   7.980
 2637POPC   C4B37174  11.609   7.203   7.643
 2638POPC   NC337175  12.506   3.397   9.439
 2638POPC   PO437176  12.972   3.918   9.367
 2638POPC   GL137177  12.887   3.691   9.036
 2638POPC   GL237178  12.900   3.350   9.116
 2638POPC   C1A37179  12.996   3.722   8.608
 2638POPC   D2A37180  12.755   3.953   8.327
 2638POPC   C3A37181  12.667   3.694   7.981
 2638POPC   C4A37182  13.001   3.550   7.715
 2638POPC   C1B37183  12.659   3.352   8.740
 2638POPC   C2B37184  12.809   3.218   8.360
 2638POPC   C3B37185  12.754   3.180   7.947
 2638POPC   C4B37186  12.759   3.137   7.484
 2639POPC   NC337187  26.631  23.944   9.529
 2639POPC   PO437188  27.174  23.614   9.253
 2639POPC   GL137189  26.733  23.622   9.148
 2639POPC   GL237190  26.691  23.970   9.034
 2639POPC   C1A37191  26.575  23.532   8.756
 2639POPC   D2A37192  26.837  23.599   8.402
 2639POPC   C3A37193  26.631  23.565   8.034
 2639POPC   C4A37194  26.480  23.500   7.639
 2639POPC   C1B37195  26.658  24.033   8.614
 2639POPC   C2B37196  26.721  24.055   8.165
 2639POPC   C3B37197  26.747  23.948   7.728
 2639POPC   C4B37198  26.993  24.081   7.395
 2640POPC   NC337199   4.762  36.945   9.588
 2640POPC   PO437200   4.126  36.729   9.707
 2640POPC   GL137201   4.195  36.954   9.335
 2640POPC   GL237202   4.354  36.651   9.237
 2640POPC   C1A37203   4.195  37.102   8.896
 2640POPC   D2A37204   4.356  36.942   8.494
 2640POPC   C3A37205   4.162  37.069   8.097
 2640POPC   C4A37206   4.286  36.881   7.705
 2640POPC   C1B37207   4.439  36.559   8.838
 2640POPC   C2B37208   4.498  36.448   8.427
 2640POPC   C3B37209   4.576  36.656   8.047
 2640POPC   C4B37210   4.660  36.520   7.634
 2641POPC   NC337211  17.673  11.396   9.615
 2641POPC   PO437212  17.165  10.975   9.487
 2641POPC   GL137213  17.323  11.185   9.166
 2641POPC   GL237214  17.278  10.898   8.942
 2641POPC   C1A37215  17.368  11.456   8.815
 2641POPC   D2A37216  17.570  11.393   8.422
 2641POPC   C3A37217  17.436  11.478   8.051
 2641POPC   C4A37218  17.350  11.126   7.867
 2641POPC   C1B37219  17.698  11.049   8.838
 2641POPC   C2B37220  17.963  11.093   8.520
 2641POPC   C3B37221  17.862  11.074   8.125
 2641POPC   C4B37222  17.883  11.277   7.795
 2642POPC   NC337223  35.604   1.321   9.398
 2642POPC   PO437224  36.235   1.221   9.489
 2642POPC   GL137225  36.142   0.971   9.143
 2642POPC   GL237226  35.790   0.913   9.158
 2642POPC   C1A37227  36.150   0.905   8.705
 2642POPC   D2A37228  36.296   0.972   8.298
 2642POPC   C3A37229  36.206   1.281   7.970
 2642POPC   C4A37230  36.300   1.199   7.535
 2642POPC   C1B37231  35.702   1.149   8.772
 2642POPC   C2B37232  35.867   1.258   8.388
 2642POPC   C3B37233  35.729   1.166   7.978
 2642POPC   C4B37234  35.740   0.994   7.561
 2643POPC   NC337235  29.162   1.403   9.606
 2643POPC   PO437236  29.650   1.014   9.579
 2643POPC   GL137237  29.339   1.101   9.257
 2643POPC   GL237238  29.316   1.471   9.136
 2643POPC   C1A37239  29.170   1.039   8.887
 2643POPC   D2A37240  29.360   1.136   8.506
 2643POPC   C3A37241  29.251   0.987   8.142
 2643POPC   C4A37242  29.393   1.132   7.779
 2643POPC   C1B37243  29.111   1.533   8.765
 2643POPC   C2B37244  28.961   1.459   8.377
 2643POPC   C3B37245  28.955   1.373   7.946
 2643POPC   C4B37246  28.649   1.332   7.636
 2644POPC   NC337247  25.815  21.458   9.594
 2644POPC   PO437248  26.288  20.888   9.448
 2644POPC   GL137249  26.221  21.196   9.099
 2644POPC   GL237250  25.885  21.370   9.095
 2644POPC   C1A37251  26.284  21.480   8.743
 2644POPC   D2A37252  26.195  21.380   8.344
 2644POPC   C3A37253  26.337  21.584   8.001
 2644POPC   C4A37254  26.230  21.213   7.778
 2644POPC   C1B37255  25.813  21.280   8.689
 2644POPC   C2B37256  25.697  21.571   8.378
 2644POPC   C3B37257  25.816  21.427   7.987
 2644POPC   C4B37258  25.746  21.043   7.785
 2645POPC   NC337259  23.062  40.254   9.478
 2645POPC   PO437260  22.849  39.667   9.604
 2645POPC   GL137261  22.755  39.823   9.197
 2645POPC   GL237262  23.040  39.999   9.034
 2645POPC   C1A37263  22.641  39.840   8.764
 2645POPC   D2A37264  22.938  39.907   8.419
 2645POPC   C3A37265  22.760  39.913   7.997
 2645POPC   C4A37266  22.670  39.861   7.549
 2645POPC   C1B37267  22.852  40.314   8.752
 2645POPC   C2B37268  22.897  40.526   8.375
 2645POPC   C3B37269  23.116  40.282   8.092
 2645POPC   C4B37270  23.030  40.194   7.662
 2646POPC   NC337271  42.006  35.998   9.378
 2646POPC   PO437272  41.426  35.743   9.496
 2646POPC   GL137273  41.523  35.963   9.145
 2646POPC   GL237274  41.625  36.287   9.136
 2646POPC   C1A37275  41.739  35.897   8.763
 2646POPC   D2A37276  41.572  35.933   8.362
 2646POPC   C3A37277  41.732  36.002   7.966
 2646POPC   C4A37278  41.516  35.717   7.686
 2646POPC   C1B37279  41.802  36.412   8.754
 2646POPC   C2B37280  41.722  36.511   8.341
 2646POPC   C3B37281  41.579  36.515   7.950
 2646POPC   C4B37282  41.779  36.461   7.595
 2647POPC   NC337283  25.090  24.786   9.476
 2647POPC   PO437284  25.531  24.232   9.441
 2647POPC   GL137285  25.291  24.448   9.109
 2647POPC   GL237286  24.955  24.456   9.139
 2647POPC   C1A37287  25.194  24.248   8.705
 2647POPC   D2A37288  25.440  24.210   8.305
 2647POPC   C3A37289  25.370  24.475   7.917
 2647POPC   C4A37290  25.482  24.505   7.452
 2647POPC   C1B37291  24.969  24.697   8.767
 2647POPC   C2B37292  25.059  24.622   8.348
 2647POPC   C3B37293  24.960  24.805   7.966
 2647POPC   C4B37294  25.063  24.775   7.584
 2648POPC   NC337295  33.860   5.533   9.669
 2648POPC   PO437296  33.603   6.132   9.701
 2648POPC   GL137297  33.692   5.910   9.315
 2648POPC   GL237298  33.450   5.626   9.275
 2648POPC   C1A37299  33.802   5.794   8.886
 2648POPC   D2A37300  33.833   5.703   8.427
 2648POPC   C3A37301  33.861   6.053   8.120
 2648POPC   C4A37302  33.775   6.144   7.685
 2648POPC   C1B37303  33.404   5.451   8.835
 2648POPC   C2B37304  33.319   5.399   8.383
 2648POPC   C3B37305  33.554   5.336   8.002
 2648POPC   C4B37306  33.928   5.557   7.914
 2649POPC   NC337307  43.537  13.062   9.353
 2649POPC   PO437308  43.806  12.535   9.672
 2649POPC   GL137309  43.690  12.597   9.237
 2649POPC   GL237310  43.951  12.838   9.103
 2649POPC   C1A37311  43.713  12.468   8.806
 2649POPC   D2A37312  43.840  12.550   8.353
 2649POPC   C3A37313  43.904  13.006   8.244
 2649POPC   C4A37314  43.751  13.199   7.842
 2649POPC   C1B37315  44.258  13.073   8.819
 2649POPC   C2B37316  44.468  13.141   8.412
 2649POPC   C3B37317  44.362  13.114   7.998
 2649POPC   C4B37318  44.088  12.796   7.826
 2650POPC   NC337319  21.975  30.411   9.466
 2650POPC   PO437320  22.117  31.026   9.257
 2650POPC   GL137321  22.221  30.642   9.060
 2650POPC   GL237322  21.991  30.368   8.947
 2650POPC   C1A37323  22.246  30.718   8.628
 2650POPC   D2A37324  22.435  30.976   8.329
 2650POPC   C3A37325  22.241  30.998   7.934
 2650POPC   C4A37326  21.883  30.973   7.654
 2650POPC   C1B37327  22.005  30.302   8.504
 2650POPC   C2B37328  22.029  30.559   8.156
 2650POPC   C3B37329  22.259  30.465   7.795
 2650POPC   C4B37330  22.267  30.365   7.349
 2651POPC   NC337331   9.057  27.051   9.607
 2651POPC   PO437332   8.610  26.543   9.473
 2651POPC   GL137333   8.840  26.847   9.182
 2651POPC   GL237334   9.200  26.939   9.148
 2651POPC   C1A37335   8.976  26.782   8.739
 2651POPC   D2A37336   9.224  26.797   8.388
 2651POPC   C3A37337   9.053  26.845   8.018
 2651POPC   C4A37338   9.040  26.595   7.693
 2651POPC   C1B37339   9.410  27.065   8.794
 2651POPC   C2B37340   9.325  27.320   8.441
 2651POPC   C3B37341   9.444  27.188   8.059
 2651POPC   C4B37342   9.464  26.953   7.667
 2652POPC   NC337343  12.167  28.068   9.505
 2652POPC   PO437344  11.679  28.527   9.385
 2652POPC   GL137345  11.974  28.282   9.089
 2652POPC   GL237346  11.957  27.904   9.078
 2652POPC   C1A37347  12.261  28.146   8.737
 2652POPC   D2A37348  12.317  27.928   8.323
 2652POPC   C3A37349  12.343  28.179   7.949
 2652POPC   C4A37350  12.098  28.438   7.671
 2652POPC   C1B37351  11.767  28.030   8.697
 2652POPC   C2B37352  11.798  27.927   8.278
 2652POPC   C3B37353  11.774  28.094   7.875
 2652POPC   C4B37354  11.612  28.327   7.539
 2653POPC   NC337355  21.970  40.959   9.634
 2653POPC   PO437356  22.464  40.583   9.476
 2653POPC   GL137357  22.262  40.876   9.199
 2653POPC   GL237358  21.883  40.944   9.136
 2653POPC   C1A37359  22.202  40.792   8.764
 2653POPC   D2A37360  22.134  40.570   8.383
 2653POPC   C3A37361  22.391  40.726   8.074
 2653POPC   C4A37362  22.433  40.831   7.637
 2653POPC   C1B37363  21.805  41.124   8.722
 2653POPC   C2B37364  21.838  41.005   8.268
 2653POPC   C3B37365  21.967  40.945   7.826
 2653POPC   C4B37366  22.000  40.889   7.370
 2654POPC   NC337367  41.604   0.681   9.331
 2654POPC   PO437368  41.578   1.257   9.758
 2654POPC   GL137369  41.543   1.269   9.256
 2654POPC   GL237370  41.906   1.437   9.141
 2654POPC   C1A37371  41.373   1.230   8.837
 2654POPC   D2A37372  41.208   0.957   8.481
 2654POPC   C3A37373  41.309   1.098   8.057
 2654POPC   C4A37374  41.268   1.425   7.743
 2654POPC   C1B37375  41.886   1.137   8.792
 2654POPC   C2B37376  41.703   1.133   8.411
 2654POPC   C3B37377  41.831   1.016   8.014
 2654POPC   C4B37378  41.604   1.023   7.629
 2655POPC   NC337379  10.645  27.215   9.589
 2655POPC   PO437380  10.894  27.922   9.517
 2655POPC   GL137381  10.634  27.800   9.176
 2655POPC   GL237382  10.505  27.460   9.164
 2655POPC   C1A37383  10.474  28.008   8.828
 2655POPC   D2A37384  10.429  28.129   8.418
 2655POPC   C3A37385  10.605  27.753   8.181
 2655POPC   C4A37386  10.601  27.719   7.733
 2655POPC   C1B37387  10.346  27.443   8.756
 2655POPC   C2B37388  10.399  27.252   8.335
 2655POPC   C3B37389  10.312  27.332   7.892
 2655POPC   C4B37390  10.402  27.337   7.418
 2656POPC   NC337391  36.411  37.659   9.595
 2656POPC   PO437392  37.034  37.427   9.533
 2656POPC   GL137393  37.076  37.566   9.108
 2656POPC   GL237394  36.981  37.881   9.097
 2656POPC   C1A37395  37.060  37.617   8.646
 2656POPC   D2A37396  36.741  37.469   8.345
 2656POPC   C3A37397  36.899  37.516   7.931
 2656POPC   C4A37398  37.315  37.672   7.872
 2656POPC   C1B37399  36.939  38.127   8.711
 2656POPC   C2B37400  36.961  37.975   8.267
 2656POPC   C3B37401  36.849  38.080   7.860
 2656POPC   C4B37402  37.091  38.304   7.571
 2657POPC   NC337403  40.861  23.391   9.459
 2657POPC   PO437404  40.758  22.706   9.552
 2657POPC   GL137405  40.610  22.911   9.139
 2657POPC   GL237406  40.567  22.591   9.080
 2657POPC   C1A37407  40.785  23.127   8.734
 2657POPC   D2A37408  41.036  23.340   8.389
 2657POPC   C3A37409  40.925  23.166   8.006
 2657POPC   C4A37410  40.663  23.230   7.670
 2657POPC   C1B37411  40.764  22.612   8.680
 2657POPC   C2B37412  40.645  22.782   8.296
 2657POPC   C3B37413  40.571  22.778   7.870
 2657POPC   C4B37414  40.863  22.758   7.488
 2658POPC   NC337415  41.162  43.274   9.543
 2658POPC   PO437416  40.476  43.307   9.475
 2658POPC   GL137417  40.793  43.290   9.165
 2658POPC   GL237418  40.927  42.989   9.177
 2658POPC   C1A37419  40.947  43.286   8.747
 2658POPC   D2A37420  40.784  43.053   8.409
 2658POPC   C3A37421  40.788  43.202   8.031
 2658POPC   C4A37422  40.500  43.487   7.971
 2658POPC   C1B37423  40.979  42.750   8.780
 2658POPC   C2B37424  40.784  42.551   8.388
 2658POPC   C3B37425  40.631  42.714   8.022
 2658POPC   C4B37426  40.966  42.763   7.747
 2659POPC   NC337427  40.048  31.877   9.465
 2659POPC   PO437428  40.235  32.549   9.544
 2659POPC   GL137429  40.363  32.342   9.183
 2659POPC   GL237430  40.485  31.982   9.205
 2659POPC   C1A37431  40.136  32.431   8.821
 2659POPC   D2A37432  39.793  32.325   8.587
 2659POPC   C3A37433  39.963  32.258   8.189
 2659POPC   C4A37434  40.020  32.333   7.753
 2659POPC   C1B37435  40.274  31.944   8.812
 2659POPC   C2B37436  40.483  32.011   8.422
 2659POPC   C3B37437  40.412  32.097   8.010
 2659POPC   C4B37438  40.252  31.901   7.626
 2660POPC   NC337439   5.884  35.100   9.576
 2660POPC   PO437440   6.137  35.627   9.359
 2660POPC   GL137441   6.032  35.354   9.036
 2660POPC   GL237442   5.981  34.976   9.089
 2660POPC   C1A37443   6.026  35.519   8.623
 2660POPC   D2A37444   6.255  35.470   8.259
 2660POPC   C3A37445   6.073  35.562   7.874
 2660POPC   C4A37446   5.640  35.622   7.755
 2660POPC   C1B37447   5.851  35.034   8.640
 2660POPC   C2B37448   5.761  35.259   8.225
 2660POPC   C3B37449   5.834  35.134   7.803
 2660POPC   C4B37450   6.290  35.112   7.712
 2661POPC   NC337451  13.818  16.845   9.500
 2661POPC   PO437452  13.209  16.527   9.663
 2661POPC   GL137453  13.315  16.673   9.172
 2661POPC   GL237454  13.677  16.593   9.078
 2661POPC   C1A37455  13.353  16.793   8.705
 2661POPC   D2A37456  13.382  16.566   8.294
 2661POPC   C3A37457  13.430  16.725   7.842
 2661POPC   C4A37458  13.369  16.980   7.465
 2661POPC   C1B37459  13.789  16.995   8.858
 2661POPC   C2B37460  13.783  16.870   8.425
 2661POPC   C3B37461  13.896  16.718   8.043
 2661POPC   C4B37462  13.953  16.913   7.660
 2662POPC   NC337463  16.746  22.287   9.538
 2662POPC   PO437464  16.164  22.422   9.727
 2662POPC   GL137465  16.365  22.301   9.230
 2662POPC   GL237466  16.572  21.987   9.152
 2662POPC   C1A37467  16.565  22.326   8.789
 2662POPC   D2A37468  16.693  22.044   8.421
 2662POPC   C3A37469  16.451  21.991   8.052
 2662POPC   C4A37470  16.458  22.281   7.741
 2662POPC   C1B37471  16.907  21.875   8.852
 2662POPC   C2B37472  17.157  21.784   8.481
 2662POPC   C3B37473  17.135  22.075   8.119
 2662POPC   C4B37474  16.930  22.072   7.742
 2663POPC   NC337475   1.670   4.520   9.526
 2663POPC   PO437476   2.268   4.276   9.564
 2663POPC   GL137477   2.052   4.446   9.187
 2663POPC   GL237478   1.762   4.220   9.131
 2663POPC   C1A37479   2.033   4.512   8.728
 2663POPC   D2A37480   1.916   4.744   8.347
 2663POPC   C3A37481   2.197   4.711   7.969
 2663POPC   C4A37482   2.044   4.704   7.499
 2663POPC   C1B37483   1.844   4.034   8.746
 2663POPC   C2B37484   1.678   4.188   8.361
 2663POPC   C3B37485   1.681   4.444   7.993
 2663POPC   C4B37486   1.991   4.293   7.780
 2664POPC   NC337487  27.600  14.006   9.817
 2664POPC   PO437488  27.515  14.623   9.625
 2664POPC   GL137489  27.430  14.276   9.278
 2664POPC   GL237490  27.683  14.307   9.022
 2664POPC   C1A37491  27.174  14.266   8.855
 2664POPC   D2A37492  27.120  14.166   8.394
 2664POPC   C3A37493  27.331  14.382   8.024
 2664POPC   C4A37494  27.630  14.263   7.651
 2664POPC   C1B37495  27.617  14.171   8.573
 2664POPC   C2B37496  27.804  14.314   8.178
 2664POPC   C3B37497  28.073  14.463   7.841
 2664POPC   C4B37498  28.025  14.569   7.394
 2665POPC   NC337499  33.228  26.840   9.568
 2665POPC   PO437500  32.723  26.815   9.344
 2665POPC   GL137501  33.094  26.826   9.035
 2665POPC   GL237502  33.374  27.035   9.117
 2665POPC   C1A37503  33.375  26.773   8.637
 2665POPC   D2A37504  33.504  26.776   8.173
 2665POPC   C3A37505  33.128  26.730   7.853
 2665POPC   C4A37506  32.898  26.683   7.453
 2665POPC   C1B37507  33.310  27.272   8.734
 2665POPC   C2B37508  33.489  27.280   8.311
 2665POPC   C3B37509  33.325  27.195   7.895
 2665POPC   C4B37510  33.188  27.089   7.475
 2666POPC   NC337511   8.837  21.066   9.569
 2666POPC   PO437512   8.948  20.409   9.498
 2666POPC   GL137513   9.080  20.697   9.205
 2666POPC   GL237514   8.777  20.860   9.057
 2666POPC   C1A37515   9.159  20.636   8.764
 2666POPC   D2A37516   8.873  20.553   8.403
 2666POPC   C3A37517   9.073  20.492   8.002
 2666POPC   C4A37518   9.095  20.542   7.547
 2666POPC   C1B37519   8.705  21.045   8.627
 2666POPC   C2B37520   8.655  20.978   8.161
 2666POPC   C3B37521   8.671  20.711   7.771
 2666POPC   C4B37522   8.593  20.746   7.275
 2667POPC   NC337523  22.371  41.776   9.545
 2667POPC   PO437524  21.759  41.374   9.610
 2667POPC   GL137525  22.086  41.378   9.317
 2667POPC   GL237526  21.969  41.673   9.206
 2667POPC   C1A37527  22.273  41.300   8.893
 2667POPC   D2A37528  22.161  41.376   8.442
 2667POPC   C3A37529  22.320  41.227   8.059
 2667POPC   C4A37530  22.285  41.321   7.622
 2667POPC   C1B37531  21.874  41.657   8.782
 2667POPC   C2B37532  21.999  41.847   8.362
 2667POPC   C3B37533  22.264  41.744   7.987
 2667POPC   C4B37534  22.030  41.775   7.610
 2668POPC   NC337535  29.413  31.957   9.450
 2668POPC   PO437536  29.126  32.593   9.530
 2668POPC   GL137537  29.151  32.351   9.168
 2668POPC   GL237538  29.289  32.639   9.023
 2668POPC   C1A37539  29.141  32.264   8.723
 2668POPC   D2A37540  28.878  32.084   8.440
 2668POPC   C3A37541  29.037  32.088   8.038
 2668POPC   C4A37542  28.996  32.328   7.694
 2668POPC   C1B37543  29.388  32.697   8.609
 2668POPC   C2B37544  29.208  32.541   8.228
 2668POPC   C3B37545  29.442  32.595   7.844
 2668POPC   C4B37546  29.471  32.519   7.376
 2669POPC   NC337547  32.815  22.063   9.471
 2669POPC   PO437548  33.490  21.887   9.401
 2669POPC   GL137549  33.180  21.930   9.083
 2669POPC   GL237550  33.179  22.280   9.180
 2669POPC   C1A37551  32.913  21.865   8.691
 2669POPC   D2A37552  32.695  21.738   8.305
 2669POPC   C3A37553  32.827  22.038   8.024
 2669POPC   C4A37554  33.112  22.220   7.768
 2669POPC   C1B37555  32.833  22.330   8.877
 2669POPC   C2B37556  32.828  22.462   8.445
 2669POPC   C3B37557  32.588  22.480   8.068
 2669POPC   C4B37558  32.497  22.298   7.680
 2670POPC   NC337559   3.359  41.057   9.265
 2670POPC   PO437560   3.352  40.394   9.294
 2670POPC   GL137561   3.515  40.332   8.916
 2670POPC   GL237562   3.558  40.712   8.916
 2670POPC   C1A37563   3.676  40.432   8.519
 2670POPC   D2A37564   3.806  40.858   8.450
 2670POPC   C3A37565   3.798  40.877   8.038
 2670POPC   C4A37566   3.488  40.983   7.728
 2670POPC   C1B37567   3.306  40.813   8.549
 2670POPC   C2B37568   3.299  40.697   8.128
 2670POPC   C3B37569   3.102  40.497   7.764
 2670POPC   C4B37570   2.962  40.593   7.301
 2671POPC   NC337571   0.933  16.064   9.509
 2671POPC   PO437572   1.606  16.224   9.492
 2671POPC   GL137573   1.349  16.031   9.208
 2671POPC   GL237574   1.233  15.684   9.251
 2671POPC   C1A37575   1.226  16.019   8.795
 2671POPC   D2A37576   1.357  15.940   8.387
 2671POPC   C3A37577   1.172  16.222   8.086
 2671POPC   C4A37578   1.182  16.073   7.658
 2671POPC   C1B37579   0.920  15.643   8.896
 2671POPC   C2B37580   0.947  15.603   8.441
 2671POPC   C3B37581   0.970  15.726   8.000
 2671POPC   C4B37582   0.623  15.731   7.686
 2672POPC   NC337583  44.295   5.001   9.514
 2672POPC   PO437584  44.887   5.164   9.305
 2672POPC   GL137585  44.605   4.919   9.045
 2672POPC   GL237586  44.242   4.767   9.072
 2672POPC   C1A37587  44.478   5.168   8.675
 2672POPC   D2A37588  44.415   5.166   8.230
 2672POPC   C3A37589  44.815   5.100   7.997
 2672POPC   C4A37590   0.031   5.387   7.698
 2672POPC   C1B37591  44.336   4.686   8.653
 2672POPC   C2B37592  44.455   4.628   8.226
 2672POPC   C3B37593  44.397   4.822   7.839
 2672POPC   C4B37594  44.227   4.993   7.502
 2673POPC   NC337595  36.953   9.818   9.411
 2673POPC   PO437596  36.613   9.310   9.237
 2673POPC   GL137597  36.615   9.737   9.067
 2673POPC   GL237598  36.442   9.938   9.337
 2673POPC   C1A37599  36.779   9.884   8.692
 2673POPC   D2A37600  36.930   9.662   8.303
 2673POPC   C3A37601  37.034   9.639   7.850
 2673POPC   C4A37602  36.945   9.347   7.489
 2673POPC   C1B37603  36.398  10.179   8.960
 2673POPC   C2B37604  36.392  10.155   8.508
 2673POPC   C3B37605  36.486   9.908   8.160
 2673POPC   C4B37606  36.679   9.990   7.778
 2674POPC   NC337607  28.990   7.243   9.467
 2674POPC   PO437608  28.854   7.791   9.127
 2674POPC   GL137609  29.228   7.528   9.085
 2674POPC   GL237610  29.485   7.847   9.137
 2674POPC   C1A37611  29.231   7.286   8.737
 2674POPC   D2A37612  29.112   7.493   8.360
 2674POPC   C3A37613  29.116   7.236   8.013
 2674POPC   C4A37614  29.184   7.359   7.600
 2674POPC   C1B37615  29.501   7.718   8.718
 2674POPC   C2B37616  29.623   7.515   8.348
 2674POPC   C3B37617  29.479   7.631   7.941
 2674POPC   C4B37618  29.382   7.837   7.538
 2675POPC   NC337619  12.517  24.433   9.447
 2675POPC   PO437620  13.215  24.433   9.487
 2675POPC   GL137621  12.949  24.556   9.118
 2675POPC   GL237622  12.697  24.803   9.141
 2675POPC   C1A37623  12.949  24.765   8.691
 2675POPC   D2A37624  13.147  24.797   8.283
 2675POPC   C3A37625  13.247  24.429   8.062
 2675POPC   C4A37626  13.075  24.427   7.675
 2675POPC   C1B37627  12.530  24.518   8.790
 2675POPC   C2B37628  12.634  24.333   8.401
 2675POPC   C3B37629  12.735  24.538   8.037
 2675POPC   C4B37630  12.566  24.576   7.645
 2676POPC   NC337631  13.564   5.124   9.470
 2676POPC   PO437632  13.935   5.669   9.454
 2676POPC   GL137633  13.750   5.463   9.139
 2676POPC   GL237634  13.435   5.543   9.103
 2676POPC   C1A37635  13.750   5.096   8.859
 2676POPC   D2A37636  13.902   5.005   8.465
 2676POPC   C3A37637  13.649   5.112   8.126
 2676POPC   C4A37638  13.714   5.060   7.702
 2676POPC   C1B37639  13.405   5.448   8.657
 2676POPC   C2B37640  13.346   5.527   8.222
 2676POPC   C3B37641  13.356   5.402   7.802
 2676POPC   C4B37642  13.221   4.953   7.817
 2677POPC   NC337643  29.617   5.035   9.365
 2677POPC   PO437644  30.234   5.206   9.410
 2677POPC   GL137645  30.036   5.401   9.085
 2677POPC   GL237646  29.721   5.557   9.152
 2677POPC   C1A37647  30.028   5.108   8.763
 2677POPC   D2A37648  30.181   5.043   8.364
 2677POPC   C3A37649  29.844   4.888   8.106
 2677POPC   C4A37650  29.932   4.661   7.731
 2677POPC   C1B37651  29.552   5.331   8.787
 2677POPC   C2B37652  29.718   5.306   8.402
 2677POPC   C3B37653  29.538   5.295   8.019
 2677POPC   C4B37654  29.808   5.200   7.703
 2678POPC   NC337655   6.379  36.765   9.718
 2678POPC   PO437656   6.865  37.105   9.379
 2678POPC   GL137657   6.591  36.996   9.148
 2678POPC   GL237658   6.455  36.706   9.215
 2678POPC   C1A37659   6.764  36.840   8.764
 2678POPC   D2A37660   6.932  36.667   8.391
 2678POPC   C3A37661   6.966  36.929   8.037
 2678POPC   C4A37662   7.014  36.762   7.650
 2678POPC   C1B37663   6.256  36.799   8.826
 2678POPC   C2B37664   6.374  36.668   8.408
 2678POPC   C3B37665   6.480  36.827   8.019
 2678POPC   C4B37666   6.498  36.652   7.601
 2679POPC   NC337667  16.148  17.986   9.480
 2679POPC   PO437668  16.779  18.316   9.463
 2679POPC   GL137669  16.885  18.207   9.032
 2679POPC   GL237670  17.023  17.864   8.962
 2679POPC   C1A37671  16.871  18.443   8.658
 2679POPC   D2A37672  16.784  18.750   8.341
 2679POPC   C3A37673  16.835  18.564   7.954
 2679POPC   C4A37674  16.577  18.483   7.624
 2679POPC   C1B37675  16.717  17.921   8.643
 2679POPC   C2B37676  16.693  18.135   8.270
 2679POPC   C3B37677  16.727  18.046   7.840
 2679POPC   C4B37678  16.888  18.063   7.458
 2680POPC   NC337679  31.196  19.285   9.675
 2680POPC   PO437680  31.666  18.765   9.586
 2680POPC   GL137681  31.696  18.935   9.188
 2680POPC   GL237682  31.446  19.165   9.244
 2680POPC   C1A37683  31.656  19.143   8.781
 2680POPC   D2A37684  31.535  19.024   8.358
 2680POPC   C3A37685  31.671  19.101   7.924
 2680POPC   C4A37686  31.794  18.811   7.592
 2680POPC   C1B37687  31.222  18.892   8.934
 2680POPC   C2B37688  31.092  18.827   8.493
 2680POPC   C3B37689  31.118  18.992   8.053
 2680POPC   C4B37690  31.007  18.723   7.701
 2681POPC   NC337691  30.210  40.008   9.703
 2681POPC   PO437692  30.747  40.251   9.538
 2681POPC   GL137693  30.571  40.214   9.127
 2681POPC   GL237694  30.246  40.336   9.118
 2681POPC   C1A37695  30.547  40.035   8.691
 2681POPC   D2A37696  30.477  39.964   8.219
 2681POPC   C3A37697  30.831  40.018   7.922
 2681POPC   C4A37698  30.869  39.832   7.481
 2681POPC   C1B37699  30.412  40.526   8.740
 2681POPC   C2B37700  30.604  40.441   8.319
 2681POPC   C3B37701  30.479  40.416   7.893
 2681POPC   C4B37702  30.397  40.026   7.649
 2682POPC   NC337703  20.172  17.911   9.317
 2682POPC   PO437704  19.595  18.172   9.601
 2682POPC   GL137705  19.788  18.281   9.193
 2682POPC   GL237706  20.150  18.377   9.111
 2682POPC   C1A37707  19.640  18.466   8.799
 2682POPC   D2A37708  19.372  18.464   8.416
 2682POPC   C3A37709  19.531  18.327   8.006
 2682POPC   C4A37710  19.793  18.480   7.689
 2682POPC   C1B37711  20.136  18.347   8.668
 2682POPC   C2B37712  19.973  18.395   8.271
 2682POPC   C3B37713  20.159  18.224   7.917
 2682POPC   C4B37714  20.320  18.296   7.528
 2683POPC   NC337715  13.696  17.748   9.413
 2683POPC   PO437716  13.422  17.103   9.400
 2683POPC   GL137717  13.463  17.380   9.042
 2683POPC   GL237718  13.777  17.503   8.972
 2683POPC   C1A37719  13.497  17.316   8.572
 2683POPC   D2A37720  13.369  17.081   8.208
 2683POPC   C3A37721  13.593  17.200   7.873
 2683POPC   C4A37722  13.941  17.432   7.818
 2683POPC   C1B37723  13.981  17.722   8.642
 2683POPC   C2B37724  13.846  17.786   8.220
 2683POPC   C3B37725  14.101  17.909   7.872
 2683POPC   C4B37726  14.019  17.798   7.427
 2684POPC   NC337727  25.499  20.550   9.725
 2684POPC   PO437728  25.427  21.034   9.212
 2684POPC   GL137729  25.161  20.724   9.079
 2684POPC   GL237730  24.837  20.885   9.104
 2684POPC   C1A37731  25.300  20.746   8.642
 2684POPC   D2A37732  25.678  20.858   8.406
 2684POPC   C3A37733  25.619  20.630   8.039
 2684POPC   C4A37734  25.303  20.751   7.757
 2684POPC   C1B37735  24.789  20.641   8.716
 2684POPC   C2B37736  24.932  20.710   8.289
 2684POPC   C3B37737  24.812  20.780   7.891
 2684POPC   C4B37738  24.927  20.434   7.641
 2685POPC   NC337739  27.964  43.062   9.473
 2685POPC   PO437740  27.453  42.635   9.535
 2685POPC   GL137741  27.531  43.020   9.235
 2685POPC   GL237742  27.669  42.788   9.098
 2685POPC   C1A37743  27.781  43.172   8.811
 2685POPC   D2A37744  27.605  43.257   8.386
 2685POPC   C3A37745  27.762  43.169   7.951
 2685POPC   C4A37746  27.570  43.168   7.532
 2685POPC   C1B37747  27.490  42.599   8.783
 2685POPC   C2B37748  27.556  42.707   8.368
 2685POPC   C3B37749  27.471  42.746   7.936
 2685POPC   C4B37750  27.373  42.693   7.503
 2686POPC   NC337751  38.070  40.512   9.635
 2686POPC   PO437752  37.524  40.867   9.474
 2686POPC   GL137753  37.683  40.915   9.079
 2686POPC   GL237754  37.403  40.767   8.944
 2686POPC   C1A37755  37.815  40.804   8.657
 2686POPC   D2A37756  37.831  40.982   8.276
 2686POPC   C3A37757  37.483  40.969   8.013
 2686POPC   C4A37758  37.561  40.796   7.600
 2686POPC   C1B37759  37.322  40.410   8.680
 2686POPC   C2B37760  37.518  40.483   8.318
 2686POPC   C3B37761  37.359  40.480   7.950
 2686POPC   C4B37762  37.119  40.535   7.612
 2687POPC   NC337763  20.171  24.268   9.307
 2687POPC   PO437764  20.754  24.184   9.694
 2687POPC   GL137765  20.877  24.163   9.193
 2687POPC   GL237766  20.565  24.116   9.037
 2687POPC   C1A37767  20.843  24.342   8.705
 2687POPC   D2A37768  20.553  24.646   8.493
 2687POPC   C3A37769  20.614  24.713   8.052
 2687POPC   C4A37770  20.406  24.765   7.662
 2687POPC   C1B37771  20.330  24.201   8.641
 2687POPC   C2B37772  20.307  24.249   8.157
 2687POPC   C3B37773  20.537  24.261   7.787
 2687POPC   C4B37774  20.955  24.384   7.806
 2688POPC   NC337775   3.281  39.376   9.480
 2688POPC   PO437776   3.758  38.949   9.612
 2688POPC   GL137777   3.653  39.148   9.216
 2688POPC   GL237778   3.364  38.934   9.183
 2688POPC   C1A37779   3.512  39.382   8.834
 2688POPC   D2A37780   3.647  39.642   8.457
 2688POPC   C3A37781   3.708  39.438   8.061
 2688POPC   C4A37782   3.476  39.509   7.681
 2688POPC   C1B37783   3.604  38.808   8.833
 2688POPC   C2B37784   3.629  39.041   8.465
 2688POPC   C3B37785   3.466  38.990   8.091
 2688POPC   C4B37786   3.419  38.973   7.679
 2689POPC   NC337787  18.586  36.258   9.417
 2689POPC   PO437788  19.199  35.947   9.477
 2689POPC   GL137789  19.329  36.274   9.205
 2689POPC   GL237790  19.029  36.458   9.220
 2689POPC   C1A37791  19.150  36.193   8.792
 2689POPC   D2A37792  19.006  35.924   8.482
 2689POPC   C3A37793  19.264  36.059   8.178
 2689POPC   C4A37794  19.225  36.047   7.764
 2689POPC   C1B37795  18.857  36.611   8.803
 2689POPC   C2B37796  18.895  36.441   8.381
 2689POPC   C3B37797  18.859  36.381   7.935
 2689POPC   C4B37798  18.702  36.701   7.656
 2690POPC   NC337799   4.309  41.664   9.643
 2690POPC   PO437800   3.726  41.284   9.556
 2690POPC   GL137801   4.034  41.557   9.215
 2690POPC   GL237802   4.434  41.510   9.176
 2690POPC   C1A37803   4.184  41.635   8.756
 2690POPC   D2A37804   4.120  41.437   8.334
 2690POPC   C3A37805   4.234  41.705   7.934
 2690POPC   C4A37806   4.346  41.613   7.475
 2690POPC   C1B37807   4.636  41.426   8.753
 2690POPC   C2B37808   4.601  41.618   8.318
 2690POPC   C3B37809   4.744  41.585   7.870
 2690POPC   C4B37810   4.901  41.205   7.667
 2691POPC   NC337811  33.351  43.302   5.365
 2691POPC   PO437812  32.797  42.963   5.457
 2691POPC   GL137813  32.873  43.165   5.820
 2691POPC   GL237814  32.992  43.496   5.725
 2691POPC   C1A37815  32.964  43.083   6.260
 2691POPC   D2A37816  33.209  43.220   6.616
 2691POPC   C3A37817  33.035  43.117   7.015
 2691POPC   C4A37818  33.327  43.315   7.278
 2691POPC   C1B37819  32.836  43.579   6.133
 2691POPC   C2B37820  32.753  43.475   6.570
 2691POPC   C3B37821  32.905  43.618   6.966
 2691POPC   C4B37822  32.724  43.512   7.348
 2692POPC   NC337823  17.582  34.831   5.726
 2692POPC   PO437824  17.313  34.288   5.463
 2692POPC   GL137825  17.226  34.489   5.897
 2692POPC   GL237826  17.202  34.849   6.064
 2692POPC   C1A37827  17.464  34.385   6.284
 2692POPC   D2A37828  17.421  34.407   6.739
 2692POPC   C3A37829  17.734  34.324   7.031
 2692POPC   C4A37830  17.943  34.473   7.435
 2692POPC   C1B37831  17.466  34.891   6.448
 2692POPC   C2B37832  17.688  34.848   6.834
 2692POPC   C3B37833  17.500  34.711   7.206
 2692POPC   C4B37834  17.170  34.398   7.208
 2693POPC   NC337835  42.545  14.113   5.119
 2693POPC   PO437836  42.165  13.539   5.268
 2693POPC   GL137837  42.242  13.586   5.699
 2693POPC   GL237838  42.466  13.889   5.765
 2693POPC   C1A37839  42.479  13.452   6.069
 2693POPC   D2A37840  42.659  13.464   6.495
 2693POPC   C3A37841  42.386  13.483   6.875
 2693POPC   C4A37842  42.401  13.406   7.335
 2693POPC   C1B37843  42.136  13.863   6.143
 2693POPC   C2B37844  42.058  13.830   6.625
 2693POPC   C3B37845  42.316  13.980   7.000
 2693POPC   C4B37846  42.444  13.924   7.440
 2694POPC   NC337847  17.960  41.772   5.460
 2694POPC   PO437848  17.347  41.474   5.603
 2694POPC   GL137849  17.406  41.808   5.899
 2694POPC   GL237850  17.775  41.867   5.947
 2694POPC   C1A37851  17.412  41.863   6.324
 2694POPC   D2A37852  17.808  41.855   6.526
 2694POPC   C3A37853  17.630  41.643   6.843
 2694POPC   C4A37854  17.202  41.550   6.952
 2694POPC   C1B37855  17.724  41.461   6.177
 2694POPC   C2B37856  17.931  41.305   6.559
 2694POPC   C3B37857  18.012  41.368   7.009
 2694POPC   C4B37858  17.693  41.497   7.331
 2695POPC   NC337859   7.267  40.608   5.141
 2695POPC   PO437860   7.581  41.138   5.279
 2695POPC   GL137861   7.565  40.767   5.587
 2695POPC   GL237862   7.223  40.699   5.677
 2695POPC   C1A37863   7.685  40.715   6.056
 2695POPC   D2A37864   7.622  40.949   6.461
 2695POPC   C3A37865   7.655  40.849   6.905
 2695POPC   C4A37866   7.802  40.453   7.013
 2695POPC   C1B37867   7.194  40.536   6.105
 2695POPC   C2B37868   7.453  40.451   6.475
 2695POPC   C3B37869   7.313  40.408   6.894
 2695POPC   C4B37870   7.344  40.612   7.264
 2696POPC   NC337871  44.468  39.234   5.424
 2696POPC   PO437872  43.818  39.451   5.333
 2696POPC   GL137873  43.689  39.318   5.793
 2696POPC   GL237874  43.590  38.958   5.851
 2696POPC   C1A37875  43.749  39.497   6.251
 2696POPC   D2A37876  43.793  39.695   6.679
 2696POPC   C3A37877  44.109  39.525   6.987
 2696POPC   C4A37878  44.146  39.127   7.207
 2696POPC   C1B37879  43.589  39.000   6.319
 2696POPC   C2B37880  43.800  39.158   6.687
 2696POPC   C3B37881  43.667  39.222   7.101
 2696POPC   C4B37882  43.739  39.036   7.519
 2697POPC   NC337883  16.337  10.373   5.508
 2697POPC   PO437884  17.042  10.638   5.447
 2697POPC   GL137885  16.757  10.526   5.824
 2697POPC   GL237886  16.516  10.802   5.872
 2697POPC   C1A37887  16.712  10.384   6.295
 2697POPC   D2A37888  16.591  10.194   6.720
 2697POPC   C3A37889  16.619  10.514   7.086
 2697POPC   C4A37890  16.680  10.678   7.530
 2697POPC   C1B37891  16.883  10.880   6.184
 2697POPC   C2B37892  17.105  10.958   6.580
 2697POPC   C3B37893  17.103  10.790   7.005
 2697POPC   C4B37894  17.145  10.918   7.454
 2698POPC   NC337895  39.642  35.038   5.380
 2698POPC   PO437896  40.083  34.491   5.265
 2698POPC   GL137897  40.009  34.724   5.676
 2698POPC   GL237898  39.648  34.664   5.746
 2698POPC   C1A37899  40.129  34.670   6.136
 2698POPC   D2A37900  40.213  34.796   6.583
 2698POPC   C3A37901  40.045  34.597   6.978
 2698POPC   C4A37902  39.850  34.223   7.194
 2698POPC   C1B37903  39.604  34.680   6.207
 2698POPC   C2B37904  39.650  34.760   6.661
 2698POPC   C3B37905  39.742  35.055   6.998
 2698POPC   C4B37906  39.895  34.937   7.401
 2699POPC   NC337907  21.690  38.102   5.204
 2699POPC   PO437908  21.174  38.349   5.485
 2699POPC   GL137909  21.343  38.263   5.841
 2699POPC   GL237910  21.696  38.260   5.722
 2699POPC   C1A37911  21.293  38.552   6.188
 2699POPC   D2A37912  21.074  38.467   6.542
 2699POPC   C3A37913  21.344  38.476   6.876
 2699POPC   C4A37914  21.228  38.707   7.161
 2699POPC   C1B37915  21.731  38.305   6.170
 2699POPC   C2B37916  21.742  38.266   6.610
 2699POPC   C3B37917  21.852  38.305   7.010
 2699POPC   C4B37918  21.645  38.494   7.325
 2700POPC   NC337919   9.148  11.499   5.445
 2700POPC   PO437920   8.615  11.072   5.439
 2700POPC   GL137921   8.960  11.165   5.810
 2700POPC   GL237922   9.038  11.523   5.953
 2700POPC   C1A37923   9.228  11.144   6.221
 2700POPC   D2A37924   9.175  11.398   6.621
 2700POPC   C3A37925   9.231  11.210   7.040
 2700POPC   C4A37926   9.063  11.252   7.483
 2700POPC   C1B37927   8.751  11.351   6.313
 2700POPC   C2B37928   8.693  11.319   6.792
 2700POPC   C3B37929   8.899  11.601   7.120
 2700POPC   C4B37930   8.959  11.748   7.558
 2701POPC   NC337931  22.553   3.383   5.513
 2701POPC   PO437932  23.147   3.677   5.516
 2701POPC   GL137933  23.048   3.712   5.967
 2701POPC   GL237934  22.689   3.755   6.005
 2701POPC   C1A37935  22.976   3.515   6.380
 2701POPC   D2A37936  22.736   3.231   6.654
 2701POPC   C3A37937  22.740   3.405   7.074
 2701POPC   C4A37938  22.977   3.799   7.201
 2701POPC   C1B37939  22.511   3.767   6.420
 2701POPC   C2B37940  22.584   3.843   6.862
 2701POPC   C3B37941  22.474   3.822   7.297
 2701POPC   C4B37942  22.340   3.639   7.682
 2702POPC   NC337943  10.575  35.872   5.269
 2702POPC   PO437944  10.806  36.492   5.226
 2702POPC   GL137945  10.735  36.281   5.673
 2702POPC   GL237946  10.592  35.959   5.779
 2702POPC   C1A37947  10.532  36.358   6.112
 2702POPC   D2A37948  10.658  36.317   6.576
 2702POPC   C3A37949  10.439  36.157   6.963
 2702POPC   C4A37950  10.538  36.067   7.404
 2702POPC   C1B37951  10.538  35.853   6.235
 2702POPC   C2B37952  10.570  35.744   6.668
 2702POPC   C3B37953  10.537  35.649   7.105
 2702POPC   C4B37954  10.156  35.737   7.350
 2703POPC   NC337955  16.836   4.240   5.225
 2703POPC   PO437956  16.806   3.545   5.319
 2703POPC   GL137957  16.944   3.395   5.734
 2703POPC   GL237958  16.713   3.141   5.826
 2703POPC   C1A37959  17.129   3.457   6.133
 2703POPC   D2A37960  17.158   3.606   6.562
 2703POPC   C3A37961  16.824   3.671   6.883
 2703POPC   C4A37962  16.486   3.562   7.148
 2703POPC   C1B37963  16.634   3.324   6.245
 2703POPC   C2B37964  16.435   3.290   6.674
 2703POPC   C3B37965  16.476   3.051   7.067
 2703POPC   C4B37966  16.517   3.188   7.504
 2704POPC   NC337967  30.949  43.349   5.379
 2704POPC   PO437968  30.316  43.068   5.295
 2704POPC   GL137969  30.612  43.000   5.685
 2704POPC   GL237970  30.982  42.990   5.808
 2704POPC   C1A37971  30.572  43.028   6.149
 2704POPC   D2A37972  30.594  42.929   6.594
 2704POPC   C3A37973  30.691  43.233   6.918
 2704POPC   C4A37974  30.487  43.264   7.318
 2704POPC   C1B37975  31.047  42.925   6.296
 2704POPC   C2B37976  31.103  42.990   6.721
 2704POPC   C3B37977  31.036  42.916   7.148
 2704POPC   C4B37978  30.978  43.248   7.448
 2705POPC   NC337979  14.494   0.728   5.510
 2705POPC   PO437980  14.312   0.051   5.352
 2705POPC   GL137981  14.433   0.209   5.750
 2705POPC   GL237982  14.127   0.338   5.825
 2705POPC   C1A37983  14.644   0.225   6.196
 2705POPC   D2A37984  14.742   0.533   6.524
 2705POPC   C3A37985  14.745   0.416   6.961
 2705POPC   C4A37986  14.465   0.703   7.167
 2705POPC   C1B37987  14.173   0.373   6.272
 2705POPC   C2B37988  14.326   0.261   6.691
 2705POPC   C3B37989  14.293   0.205   7.144
 2705POPC   C4B37990  14.224  44.856   7.425
 2706POPC   NC337991   9.802  41.939   5.477
 2706POPC   PO437992   9.697  42.569   5.426
 2706POPC   GL137993   9.541  42.431   5.811
 2706POPC   GL237994   9.555  42.087   5.902
 2706POPC   C1A37995   9.724  42.454   6.252
 2706POPC   D2A37996   9.765  42.654   6.670
 2706POPC   C3A37997   9.610  42.510   7.069
 2706POPC   C4A37998   9.656  42.356   7.508
 2706POPC   C1B37999   9.887  41.978   6.250
 2706POPC   C2B38000   9.750  41.908   6.685
 2706POPC   C3B38001   9.872  42.086   7.087
 2706POPC   C4B38002  10.075  42.051   7.498
 2707POPC   NC338003  13.158   4.020   5.423
 2707POPC   PO438004  12.463   3.933   5.565
 2707POPC   GL138005  12.721   4.199   5.847
 2707POPC   GL238006  13.068   4.153   5.924
 2707POPC   C1A38007  12.695   4.348   6.235
 2707POPC   D2A38008  12.894   4.136   6.549
 2707POPC   C3A38009  12.740   4.340   6.869
 2707POPC   C4A38010  12.671   4.354   7.288
 2707POPC   C1B38011  13.170   4.495   6.212
 2707POPC   C2B38012  13.100   4.649   6.631
 2707POPC   C3B38013  13.191   4.482   7.024
 2707POPC   C4B38014  13.208   4.291   7.394
 2708POPC   NC338015  24.978  10.388   5.007
 2708POPC   PO438016  24.932   9.809   5.341
 2708POPC   GL138017  25.201   9.671   5.725
 2708POPC   GL238018  25.268   9.982   5.925
 2708POPC   C1A38019  25.351   9.540   6.167
 2708POPC   D2A38020  25.288   9.760   6.560
 2708POPC   C3A38021  25.365   9.566   6.938
 2708POPC   C4A38022  25.602   9.672   7.261
 2708POPC   C1B38023  24.932   9.887   6.216
 2708POPC   C2B38024  24.803   9.910   6.665
 2708POPC   C3B38025  25.044   9.972   7.059
 2708POPC   C4B38026  25.452  10.130   7.175
 2709POPC   NC338027   3.577  22.614   5.202
 2709POPC   PO438028   3.666  21.985   5.181
 2709POPC   GL138029   3.582  22.136   5.636
 2709POPC   GL238030   3.246  22.015   5.799
 2709POPC   C1A38031   3.778  22.353   6.036
 2709POPC   D2A38032   3.801  22.163   6.474
 2709POPC   C3A38033   3.584  22.299   6.855
 2709POPC   C4A38034   3.773  22.280   7.236
 2709POPC   C1B38035   3.428  22.012   6.163
 2709POPC   C2B38036   3.287  22.022   6.540
 2709POPC   C3B38037   3.258  21.831   6.893
 2709POPC   C4B38038   3.386  21.979   7.287
 2710POPC   NC338039  35.311  28.583   5.440
 2710POPC   PO438040  35.075  29.188   5.379
 2710POPC   GL138041  35.299  29.110   5.740
 2710POPC   GL238042  35.089  28.839   5.842
 2710POPC   C1A38043  35.495  29.277   6.138
 2710POPC   D2A38044  35.495  29.577   6.504
 2710POPC   C3A38045  35.432  29.351   6.922
 2710POPC   C4A38046  35.025  29.151   7.055
 2710POPC   C1B38047  35.479  28.720   6.063
 2710POPC   C2B38048  35.587  28.807   6.484
 2710POPC   C3B38049  35.402  28.818   6.885
 2710POPC   C4B38050  35.483  28.919   7.299
 2711POPC   NC338051   8.374  38.432   5.351
 2711POPC   PO438052   7.777  38.538   5.124
 2711POPC   GL138053   7.965  38.549   5.614
 2711POPC   GL238054   8.297  38.714   5.759
 2711POPC   C1A38055   7.988  38.474   6.083
 2711POPC   D2A38056   8.206  38.513   6.475
 2711POPC   C3A38057   8.004  38.404   6.848
 2711POPC   C4A38058   7.958  38.446   7.290
 2711POPC   C1B38059   8.442  38.883   6.173
 2711POPC   C2B38060   8.646  38.785   6.574
 2711POPC   C3B38061   8.497  38.750   7.006
 2711POPC   C4B38062   8.716  38.740   7.404
 2712POPC   NC338063  25.622  22.969   5.562
 2712POPC   PO438064  25.010  22.705   5.338
 2712POPC   GL138065  25.116  22.869   5.771
 2712POPC   GL238066  25.428  22.757   5.969
 2712POPC   C1A38067  25.045  23.015   6.212
 2712POPC   D2A38068  25.293  22.879   6.583
 2712POPC   C3A38069  25.175  23.034   6.989
 2712POPC   C4A38070  24.854  22.788   7.208
 2712POPC   C1B38071  25.618  23.088   6.233
 2712POPC   C2B38072  25.769  23.080   6.651
 2712POPC   C3B38073  25.618  22.801   6.991
 2712POPC   C4B38074  25.295  22.536   7.052
 2713POPC   NC338075  31.155  42.595   5.161
 2713POPC   PO438076  30.621  42.403   5.552
 2713POPC   GL138077  30.685  42.557   5.963
 2713POPC   GL238078  31.020  42.526   6.019
 2713POPC   C1A38079  30.732  42.463   6.420
 2713POPC   D2A38080  30.594  42.081   6.644
 2713POPC   C3A38081  30.472  42.109   7.077
 2713POPC   C4A38082  30.402  42.378   7.444
 2713POPC   C1B38083  31.260  42.448   6.368
 2713POPC   C2B38084  31.157  42.506   6.733
 2713POPC   C3B38085  30.814  42.478   6.928
 2713POPC   C4B38086  30.929  42.425   7.304
 2714POPC   NC338087  17.027  11.030   5.205
 2714POPC   PO438088  16.475  11.445   5.283
 2714POPC   GL138089  16.410  11.354   5.729
 2714POPC   GL238090  16.637  11.584   5.891
 2714POPC   C1A38091  16.478  11.211   6.176
 2714POPC   D2A38092  16.687  11.286   6.571
 2714POPC   C3A38093  16.633  11.011   6.892
 2714POPC   C4A38094  16.389  11.012   7.244
 2714POPC   C1B38095  16.658  11.749   6.310
 2714POPC   C2B38096  16.722  11.773   6.758
 2714POPC   C3B38097  16.777  11.593   7.191
 2714POPC   C4B38098  16.720  11.680   7.632
 2715POPC   NC338099  32.672  41.660   5.451
 2715POPC   PO438100  31.995  41.395   5.503
 2715POPC   GL138101  32.299  41.593   5.806
 2715POPC   GL238102  32.606  41.385   5.912
 2715POPC   C1A38103  32.212  41.638   6.243
 2715POPC   D2A38104  32.327  41.710   6.669
 2715POPC   C3A38105  32.195  41.535   7.051
 2715POPC   C4A38106  32.260  41.783   7.422
 2715POPC   C1B38107  32.600  41.334   6.402
 2715POPC   C2B38108  32.657  41.302   6.842
 2715POPC   C3B38109  32.592  41.310   7.274
 2715POPC   C4B38110  32.446  41.378   7.699
 2716POPC   NC338111  18.246  25.684   5.258
 2716POPC   PO438112  18.476  26.308   5.471
 2716POPC   GL138113  18.321  26.186   5.887
 2716POPC   GL238114  18.208  25.886   5.734
 2716POPC   C1A38115  18.121  26.141   6.342
 2716POPC   D2A38116  17.970  26.221   6.798
 2716POPC   C3A38117  18.277  26.102   7.122
 2716POPC   C4A38118  18.549  25.783   7.341
 2716POPC   C1B38119  17.809  25.914   5.990
 2716POPC   C2B38120  17.695  25.812   6.414
 2716POPC   C3B38121  17.970  25.678   6.775
 2716POPC   C4B38122  18.031  25.611   7.219
 2717POPC   NC338123  23.457  35.618   5.355
 2717POPC   PO438124  23.656  34.994   5.135
 2717POPC   GL138125  23.683  35.173   5.661
 2717POPC   GL238126  23.690  35.504   5.784
 2717POPC   C1A38127  23.516  35.151   6.122
 2717POPC   D2A38128  23.453  35.059   6.589
 2717POPC   C3A38129  23.557  35.369   6.952
 2717POPC   C4A38130  23.486  35.587   7.392
 2717POPC   C1B38131  23.963  35.423   6.127
 2717POPC   C2B38132  23.969  35.195   6.515
 2717POPC   C3B38133  24.176  35.358   6.864
 2717POPC   C4B38134  24.202  35.398   7.279
 2718POPC   NC338135  20.161   7.194   5.503
 2718POPC   PO438136  20.645   7.675   5.229
 2718POPC   GL138137  20.764   7.636   5.674
 2718POPC   GL238138  20.597   7.337   5.734
 2718POPC   C1A38139  20.810   7.570   6.149
 2718POPC   D2A38140  20.620   7.466   6.560
 2718POPC   C3A38141  20.842   7.536   6.954
 2718POPC   C4A38142  20.725   7.623   7.389
 2718POPC   C1B38143  20.404   7.190   6.151
 2718POPC   C2B38144  20.214   7.151   6.600
 2718POPC   C3B38145  20.380   7.302   7.025
 2718POPC   C4B38146  20.393   7.241   7.494
 2719POPC   NC338147  35.481  22.664   5.400
 2719POPC   PO438148  35.140  23.248   5.483
 2719POPC   GL138149  35.469  23.049   5.764
 2719POPC   GL238150  35.603  22.694   5.885
 2719POPC   C1A38151  35.541  23.071   6.211
 2719POPC   D2A38152  35.575  22.901   6.619
 2719POPC   C3A38153  35.245  22.978   6.918
 2719POPC   C4A38154  35.293  23.213   7.276
 2719POPC   C1B38155  35.853  22.628   6.250
 2719POPC   C2B38156  35.702  22.397   6.598
 2719POPC   C3B38157  35.519  22.541   6.973
 2719POPC   C4B38158  35.405  22.711   7.355
 2720POPC   NC338159   1.061   8.930   5.360
 2720POPC   PO438160   1.722   9.034   5.452
 2720POPC   GL138161   1.493   9.185   5.825
 2720POPC   GL238162   1.122   9.217   5.780
 2720POPC   C1A38163   1.350   9.031   6.247
 2720POPC   D2A38164   0.984   8.771   6.464
 2720POPC   C3A38165   1.070   8.578   6.882
 2720POPC   C4A38166   1.391   8.728   7.166
 2720POPC   C1B38167   0.869   9.206   6.149
 2720POPC   C2B38168   1.033   9.294   6.543
 2720POPC   C3B38169   1.108   9.098   6.903
 2720POPC   C4B38170   0.953   8.998   7.299
 2721POPC   NC338171  12.426  37.457   5.394
 2721POPC   PO438172  11.932  37.967   5.482
 2721POPC   GL138173  12.100  37.867   5.826
 2721POPC   GL238174  12.385  38.055   5.842
 2721POPC   C1A38175  12.134  37.770   6.247
 2721POPC   D2A38176  11.861  37.816   6.590
 2721POPC   C3A38177  12.021  37.935   6.961
 2721POPC   C4A38178  11.994  37.630   7.273
 2721POPC   C1B38179  12.297  38.248   6.227
 2721POPC   C2B38180  12.412  38.012   6.607
 2721POPC   C3B38181  12.544  37.995   7.025
 2721POPC   C4B38182  12.314  38.014   7.409
 2722POPC   NC338183  41.067  33.878   5.458
 2722POPC   PO438184  40.449  33.564   5.355
 2722POPC   GL138185  40.719  33.585   5.726
 2722POPC   GL238186  41.066  33.414   5.706
 2722POPC   C1A38187  40.613  33.722   6.142
 2722POPC   D2A38188  40.386  33.706   6.522
 2722POPC   C3A38189  40.623  33.908   6.826
 2722POPC   C4A38190  40.716  33.823   7.232
 2722POPC   C1B38191  41.129  33.587   6.132
 2722POPC   C2B38192  40.924  33.611   6.540
 2722POPC   C3B38193  41.062  33.574   6.960
 2722POPC   C4B38194  41.231  33.759   7.347
 2723POPC   NC338195  29.745  17.354   5.434
 2723POPC   PO438196  30.294  17.775   5.383
 2723POPC   GL138197  30.017  17.766   5.750
 2723POPC   GL238198  29.738  17.981   5.660
 2723POPC   C1A38199  30.010  17.553   6.172
 2723POPC   D2A38200  30.206  17.589   6.582
 2723POPC   C3A38201  30.083  17.685   7.018
 2723POPC   C4A38202  29.882  17.513   7.402
 2723POPC   C1B38203  29.733  17.981   6.140
 2723POPC   C2B38204  29.772  17.914   6.644
 2723POPC   C3B38205  29.691  17.989   7.135
 2723POPC   C4B38206  29.586  17.863   7.619
 2724POPC   NC338207  29.902  41.045   5.437
 2724POPC   PO438208  30.344  41.467   5.771
 2724POPC   GL138209  30.071  41.121   5.924
 2724POPC   GL238210  29.940  40.771   5.849
 2724POPC   C1A38211  30.055  40.916   6.318
 2724POPC   D2A38212  30.169  41.098   6.721
 2724POPC   C3A38213  30.140  40.799   7.053
 2724POPC   C4A38214  30.212  40.839   7.512
 2724POPC   C1B38215  29.573  40.751   6.145
 2724POPC   C2B38216  29.391  40.639   6.556
 2724POPC   C3B38217  29.525  40.599   6.973
 2724POPC   C4B38218  29.775  40.601   7.329
 2725POPC   NC338219  43.305  12.642   5.480
 2725POPC   PO438220  42.880  13.138   5.468
 2725POPC   GL138221  42.945  12.799   5.808
 2725POPC   GL238222  42.667  12.589   5.903
 2725POPC   C1A38223  43.048  12.659   6.250
 2725POPC   D2A38224  43.271  12.840   6.594
 2725POPC   C3A38225  43.103  12.748   6.981
 2725POPC   C4A38226  43.386  12.730   7.309
 2725POPC   C1B38227  42.644  12.973   6.182
 2725POPC   C2B38228  42.763  12.978   6.615
 2725POPC   C3B38229  42.744  13.146   7.028
 2725POPC   C4B38230  42.831  12.939   7.408
 2726POPC   NC338231  29.658   0.985   5.257
 2726POPC   PO438232  30.235   1.244   5.530
 2726POPC   GL138233  30.007   1.321   5.882
 2726POPC   GL238234  29.742   1.122   5.771
 2726POPC   C1A38235  29.922   1.283   6.309
 2726POPC   D2A38236  29.826   1.524   6.664
 2726POPC   C3A38237  29.826   1.243   6.940
 2726POPC   C4A38238  30.013   1.185   7.304
 2726POPC   C1B38239  29.588   0.896   6.145
 2726POPC   C2B38240  29.721   0.767   6.557
 2726POPC   C3B38241  29.473   0.816   6.913
 2726POPC   C4B38242  29.520   1.045   7.292
 2727POPC   NC338243  13.344   0.860   5.548
 2727POPC   PO438244  14.027   0.794   5.410
 2727POPC   GL138245  13.795   1.014   5.770
 2727POPC   GL238246  13.551   1.304   5.698
 2727POPC   C1A38247  13.687   1.012   6.223
 2727POPC   D2A38248  13.784   1.120   6.665
 2727POPC   C3A38249  13.559   0.940   7.050
 2727POPC   C4A38250  13.682   0.756   7.435
 2727POPC   C1B38251  13.317   1.366   6.094
 2727POPC   C2B38252  13.367   1.426   6.557
 2727POPC   C3B38253  13.574   1.459   6.999
 2727POPC   C4B38254  13.563   1.279   7.457
 2728POPC   NC338255  22.700  39.328   5.581
 2728POPC   PO438256  23.180  38.835   5.389
 2728POPC   GL138257  23.114  39.065   5.764
 2728POPC   GL238258  23.198  39.419   5.781
 2728POPC   C1A38259  23.142  39.031   6.205
 2728POPC   D2A38260  23.278  39.269   6.562
 2728POPC   C3A38261  23.065  39.173   6.930
 2728POPC   C4A38262  23.023  38.943   7.290
 2728POPC   C1B38263  22.932  39.533   6.176
 2728POPC   C2B38264  22.869  39.586   6.627
 2728POPC   C3B38265  22.751  39.594   7.039
 2728POPC   C4B38266  22.598  39.181   7.149
 2729POPC   NC338267  12.542  14.933   5.629
 2729POPC   PO438268  12.102  15.453   5.333
 2729POPC   GL138269  12.204  15.316   5.746
 2729POPC   GL238270  11.870  15.301   5.891
 2729POPC   C1A38271  12.303  15.395   6.206
 2729POPC   D2A38272  12.105  15.466   6.612
 2729POPC   C3A38273  12.228  15.512   7.038
 2729POPC   C4A38274  12.067  15.284   7.396
 2729POPC   C1B38275  11.848  15.140   6.333
 2729POPC   C2B38276  11.802  15.107   6.829
 2729POPC   C3B38277  11.761  14.869   7.243
 2729POPC   C4B38278  11.708  14.469   7.479
 2730POPC   NC338279  17.309  31.990   5.655
 2730POPC   PO438280  17.894  32.181   5.198
 2730POPC   GL138281  17.755  32.446   5.670
 2730POPC   GL238282  17.470  32.592   5.889
 2730POPC   C1A38283  17.742  32.287   6.169
 2730POPC   D2A38284  17.878  32.433   6.571
 2730POPC   C3A38285  17.640  32.421   6.922
 2730POPC   C4A38286  17.799  32.213   7.237
 2730POPC   C1B38287  17.248  32.369   6.233
 2730POPC   C2B38288  17.181  32.307   6.670
 2730POPC   C3B38289  17.154  32.573   7.021
 2730POPC   C4B38290  17.273  32.337   7.348
 2731POPC   NC338291  43.842  38.959   5.378
 2731POPC   PO438292  43.736  38.321   5.307
 2731POPC   GL138293  43.810  38.517   5.671
 2731POPC   GL238294  43.847  38.183   5.796
 2731POPC   C1A38295  43.902  38.613   6.106
 2731POPC   D2A38296  43.891  38.439   6.517
 2731POPC   C3A38297  44.002  38.701   6.863
 2731POPC   C4A38298  43.985  38.563   7.261
 2731POPC   C1B38299  44.092  38.096   6.155
 2731POPC   C2B38300  44.000  37.931   6.566
 2731POPC   C3B38301  44.035  38.148   6.947
 2731POPC   C4B38302  44.326  38.139   7.287
 2732POPC   NC338303  34.269   0.652   5.494
 2732POPC   PO438304  34.651   1.077   5.037
 2732POPC   GL138305  34.579   1.079   5.541
 2732POPC   GL238306  34.688   1.409   5.684
 2732POPC   C1A38307  34.516   1.065   6.041
 2732POPC   D2A38308  34.698   1.205   6.464
 2732POPC   C3A38309  34.513   1.139   6.862
 2732POPC   C4A38310  34.263   1.039   7.220
 2732POPC   C1B38311  34.908   1.498   6.102
 2732POPC   C2B38312  35.094   1.524   6.525
 2732POPC   C3B38313  34.855   1.549   6.898
 2732POPC   C4B38314  34.663   1.383   7.298
 2733POPC   NC338315  28.521  15.875   5.555
 2733POPC   PO438316  27.996  16.326   5.462
 2733POPC   GL138317  27.932  16.096   5.877
 2733POPC   GL238318  28.176  15.914   5.915
 2733POPC   C1A38319  27.943  16.042   6.372
 2733POPC   D2A38320  28.057  16.260   6.810
 2733POPC   C3A38321  28.057  16.155   7.258
 2733POPC   C4A38322  28.380  16.002   7.586
 2733POPC   C1B38323  28.349  15.731   6.281
 2733POPC   C2B38324  28.221  15.761   6.726
 2733POPC   C3B38325  28.451  15.877   7.093
 2733POPC   C4B38326  28.670  15.617   7.413
 2734POPC   NC338327  11.834   1.754   5.662
 2734POPC   PO438328  11.834   2.411   5.436
 2734POPC   GL138329  11.824   2.226   5.862
 2734POPC   GL238330  12.166   2.101   5.843
 2734POPC   C1A38331  11.882   2.083   6.308
 2734POPC   D2A38332  11.676   1.997   6.717
 2734POPC   C3A38333  11.974   1.996   7.063
 2734POPC   C4A38334  12.363   2.070   7.265
 2734POPC   C1B38335  12.364   1.908   6.201
 2734POPC   C2B38336  12.243   1.882   6.633
 2734POPC   C3B38337  12.567   1.777   6.916
 2734POPC   C4B38338  12.731   1.660   7.319
 2735POPC   NC338339  12.158  44.423   5.213
 2735POPC   PO438340  11.717  44.918   5.321
 2735POPC   GL138341  11.957  44.649   5.660
 2735POPC   GL238342  12.312  44.744   5.689
 2735POPC   C1A38343  11.834  44.432   6.082
 2735POPC   D2A38344  11.859  44.572   6.539
 2735POPC   C3A38345  11.832  44.350   6.968
 2735POPC   C4A38346  11.909  44.527   7.433
 2735POPC   C1B38347  12.226  44.744   6.155
 2735POPC   C2B38348  12.365  44.659   6.588
 2735POPC   C3B38349  12.198  44.709   7.015
 2735POPC   C4B38350  12.301  44.885   7.437
 2736POPC   NC338351  10.907   1.665   5.487
 2736POPC   PO438352  10.206   1.571   5.329
 2736POPC   GL138353  10.438   1.411   5.728
 2736POPC   GL238354  10.760   1.224   5.691
 2736POPC   C1A38355  10.365   1.338   6.199
 2736POPC   D2A38356  10.305   1.133   6.636
 2736POPC   C3A38357  10.307   1.383   7.022
 2736POPC   C4A38358  10.303   1.292   7.490
 2736POPC   C1B38359  10.867   1.437   6.110
 2736POPC   C2B38360  10.802   1.263   6.526
 2736POPC   C3B38361  10.734   1.070   6.940
 2736POPC   C4B38362  10.779   1.142   7.386
 2737POPC   NC338363   9.330   5.976   5.100
 2737POPC   PO438364   9.884   6.041   5.416
 2737POPC   GL138365   9.720   5.911   5.801
 2737POPC   GL238366   9.440   5.684   5.686
 2737POPC   C1A38367   9.797   5.931   6.254
 2737POPC   D2A38368  10.040   6.104   6.591
 2737POPC   C3A38369   9.887   6.155   6.991
 2737POPC   C4A38370   9.453   6.220   7.113
 2737POPC   C1B38371   9.339   5.596   6.113
 2737POPC   C2B38372   9.349   5.814   6.485
 2737POPC   C3B38373   9.663   5.762   6.777
 2737POPC   C4B38374   9.658   5.748   7.223
 2738POPC   NC338375  14.674  26.111   5.433
 2738POPC   PO438376  15.322  26.383   5.364
 2738POPC   GL138377  15.348  26.267   5.804
 2738POPC   GL238378  15.004  26.155   5.816
 2738POPC   C1A38379  15.420  26.245   6.264
 2738POPC   D2A38380  15.688  26.117   6.612
 2738POPC   C3A38381  15.436  25.940   6.950
 2738POPC   C4A38382  15.170  26.235   7.128
 2738POPC   C1B38383  14.978  25.974   6.220
 2738POPC   C2B38384  15.039  26.051   6.642
 2738POPC   C3B38385  14.904  25.808   6.977
 2738POPC   C4B38386  15.089  25.765   7.335
 2739POPC   NC338387  17.297  32.862   5.363
 2739POPC   PO438388  17.997  32.927   5.344
 2739POPC   GL138389  17.680  33.006   5.698
 2739POPC   GL238390  17.274  33.135   5.777
 2739POPC   C1A38391  17.566  32.992   6.166
 2739POPC   D2A38392  17.408  32.745   6.555
 2739POPC   C3A38393  17.529  32.912   6.991
 2739POPC   C4A38394  17.624  32.697   7.377
 2739POPC   C1B38395  17.244  33.376   6.176
 2739POPC   C2B38396  17.426  33.250   6.591
 2739POPC   C3B38397  17.161  33.240   6.951
 2739POPC   C4B38398  17.142  33.534   7.263
 2740POPC   NC338399  33.009  33.282   5.266
 2740POPC   PO438400  33.177  32.614   5.334
 2740POPC   GL138401  33.263  32.968   5.639
 2740POPC   GL238402  32.930  33.003   5.712
 2740POPC   C1A38403  33.266  32.914   6.130
 2740POPC   D2A38404  33.177  32.736   6.557
 2740POPC   C3A38405  33.295  32.930   6.934
 2740POPC   C4A38406  33.127  32.932   7.316
 2740POPC   C1B38407  32.688  33.072   6.080
 2740POPC   C2B38408  32.659  32.951   6.505
 2740POPC   C3B38409  32.781  33.013   6.916
 2740POPC   C4B38410  32.690  33.195   7.326
 2741POPC   NC338411   4.518  36.385   5.419
 2741POPC   PO438412   4.166  35.871   5.526
 2741POPC   GL138413   4.191  36.048   5.921
 2741POPC   GL238414   4.269  36.400   5.868
 2741POPC   C1A38415   4.433  35.914   6.269
 2741POPC   D2A38416   4.511  35.727   6.656
 2741POPC   C3A38417   4.510  35.915   7.080
 2741POPC   C4A38418   4.148  35.937   7.385
 2741POPC   C1B38419   4.236  36.407   6.299
 2741POPC   C2B38420   4.330  36.222   6.685
 2741POPC   C3B38421   4.030  36.208   6.977
 2741POPC   C4B38422   3.957  36.604   7.181
 2742POPC   NC338423  35.289   3.850   5.287
 2742POPC   PO438424  35.365   4.556   5.250
 2742POPC   GL138425  35.335   4.346   5.652
 2742POPC   GL238426  35.378   4.013   5.796
 2742POPC   C1A38427  35.116   4.362   6.055
 2742POPC   D2A38428  35.029   4.059   6.397
 2742POPC   C3A38429  35.223   4.139   6.779
 2742POPC   C4A38430  35.080   3.985   7.142
 2742POPC   C1B38431  35.546   4.130   6.227
 2742POPC   C2B38432  35.727   4.124   6.670
 2742POPC   C3B38433  35.725   4.020   7.120
 2742POPC   C4B38434  35.899   4.003   7.569
 2743POPC   NC338435  38.253  18.807   5.170
 2743POPC   PO438436  38.130  19.362   5.564
 2743POPC   GL138437  38.579  19.234   5.691
 2743POPC   GL238438  38.680  18.888   5.888
 2743POPC   C1A38439  38.750  19.331   6.102
 2743POPC   D2A38440  38.529  19.375   6.470
 2743POPC   C3A38441  38.712  19.218   6.812
 2743POPC   C4A38442  38.492  19.166   7.176
 2743POPC   C1B38443  38.511  18.735   6.307
 2743POPC   C2B38444  38.459  18.740   6.782
 2743POPC   C3B38445  38.569  18.652   7.230
 2743POPC   C4B38446  38.407  18.518   7.645
 2744POPC   NC338447  32.657  38.888   5.466
 2744POPC   PO438448  32.935  39.372   5.468
 2744POPC   GL138449  32.872  39.382   5.888
 2744POPC   GL238450  32.512  39.368   5.859
 2744POPC   C1A38451  33.068  39.613   6.249
 2744POPC   D2A38452  33.198  39.726   6.676
 2744POPC   C3A38453  33.178  39.437   7.040
 2744POPC   C4A38454  33.024  39.332   7.465
 2744POPC   C1B38455  32.582  39.482   6.307
 2744POPC   C2B38456  32.767  39.412   6.713
 2744POPC   C3B38457  32.692  39.555   7.151
 2744POPC   C4B38458  32.472  39.603   7.544
 2745POPC   NC338459  24.518   5.480   5.393
 2745POPC   PO438460  24.721   6.100   5.646
 2745POPC   GL138461  24.555   5.993   6.023
 2745POPC   GL238462  24.317   5.809   5.835
 2745POPC   C1A38463  24.258   6.150   6.358
 2745POPC   D2A38464  24.275   6.247   6.819
 2745POPC   C3A38465  24.650   6.024   6.989
 2745POPC   C4A38466  24.691   5.744   7.330
 2745POPC   C1B38467  24.146   5.632   6.211
 2745POPC   C2B38468  24.020   5.733   6.638
 2745POPC   C3B38469  24.197   5.740   7.074
 2745POPC   C4B38470  24.259   5.534   7.494
 2746POPC   NC338471  23.739  15.444   5.368
 2746POPC   PO438472  23.250  14.996   5.151
 2746POPC   GL138473  23.577  14.977   5.598
 2746POPC   GL238474  23.881  15.139   5.755
 2746POPC   C1A38475  23.536  15.119   6.114
 2746POPC   D2A38476  23.303  15.182   6.502
 2746POPC   C3A38477  23.429  15.219   6.961
 2746POPC   C4A38478  23.475  15.054   7.412
 2746POPC   C1B38479  24.044  15.134   6.180
 2746POPC   C2B38480  24.213  15.249   6.598
 2746POPC   C3B38481  24.198  15.433   7.018
 2746POPC   C4B38482  23.926  15.228   7.284
 2747POPC   NC338483   7.509  23.079   5.105
 2747POPC   PO438484   7.396  23.730   5.179
 2747POPC   GL138485   7.414  23.702   5.687
 2747POPC   GL238486   7.611  23.402   5.743
 2747POPC   C1A38487   7.424  23.639   6.199
 2747POPC   D2A38488   7.489  23.805   6.675
 2747POPC   C3A38489   7.247  23.795   7.112
 2747POPC   C4A38490   7.241  23.884   7.572
 2747POPC   C1B38491   7.754  23.249   6.163
 2747POPC   C2B38492   7.583  23.298   6.589
 2747POPC   C3B38493   7.546  23.387   7.037
 2747POPC   C4B38494   7.506  23.474   7.469
 2748POPC   NC338495   0.005  12.703   5.446
 2748POPC   PO438496  44.594  13.232   5.265
 2748POPC   GL138497  44.682  13.154   5.719
 2748POPC   GL238498  44.705  12.807   5.853
 2748POPC   C1A38499  44.443  13.128   6.133
 2748POPC   D2A38500  44.348  12.798   6.432
 2748POPC   C3A38501  44.540  12.996   6.793
 2748POPC   C4A38502  44.606  13.238   7.169
 2748POPC   C1B38503  44.872  12.890   6.282
 2748POPC   C2B38504  44.986  12.732   6.699
 2748POPC   C3B38505  44.825  12.722   7.137
 2748POPC   C4B38506  44.913  12.579   7.550
 2749POPC   NC338507  44.889   6.203   5.412
 2749POPC   PO438508  44.432   6.573   5.195
 2749POPC   GL138509  44.456   6.481   5.690
 2749POPC   GL238510  44.669   6.227   5.873
 2749POPC   C1A38511  44.642   6.678   6.124
 2749POPC   D2A38512  44.991   6.756   6.465
 2749POPC   C3A38513  44.925   6.960   6.897
 2749POPC   C4A38514  44.715   6.924   7.321
 2749POPC   C1B38515  44.631   6.218   6.352
 2749POPC   C2B38516  44.662   6.425   6.795
 2749POPC   C3B38517  44.594   6.419   7.266
 2749POPC   C4B38518  44.497   6.193   7.690
 2750POPC   NC338519  42.418  13.168   5.422
 2750POPC   PO438520  42.062  12.563   5.458
 2750POPC   GL138521  42.157  12.753   5.848
 2750POPC   GL238522  41.980  13.096   5.808
 2750POPC   C1A38523  42.314  12.608   6.281
 2750POPC   D2A38524  42.595  12.491   6.602
 2750POPC   C3A38525  42.525  12.686   7.016
 2750POPC   C4A38526  42.272  12.859   7.363
 2750POPC   C1B38527  42.131  13.084   6.252
 2750POPC   C2B38528  42.233  12.994   6.699
 2750POPC   C3B38529  42.007  13.186   7.072
 2750POPC   C4B38530  41.946  13.248   7.544
 2751POPC   NC338531  13.207  15.528   5.587
 2751POPC   PO438532  13.647  15.045   5.303
 2751POPC   GL138533  13.754  15.097   5.738
 2751POPC   GL238534  13.660  15.431   5.854
 2751POPC   C1A38535  13.759  15.042   6.193
 2751POPC   D2A38536  13.569  15.106   6.615
 2751POPC   C3A38537  13.697  15.267   7.014
 2751POPC   C4A38538  13.736  15.002   7.373
 2751POPC   C1B38539  13.446  15.469   6.264
 2751POPC   C2B38540  13.337  15.547   6.728
 2751POPC   C3B38541  13.305  15.574   7.179
 2751POPC   C4B38542  13.382  15.340   7.545
 2752POPC   NC338543  23.342  13.039   5.544
 2752POPC   PO438544  22.653  12.786   5.456
 2752POPC   GL138545  22.887  12.973   5.800
 2752POPC   GL238546  23.174  12.756   5.930
 2752POPC   C1A38547  22.719  13.034   6.221
 2752POPC   D2A38548  22.462  12.933   6.595
 2752POPC   C3A38549  22.753  13.022   6.933
 2752POPC   C4A38550  22.969  12.941   7.329
 2752POPC   C1B38551  23.185  12.845   6.359
 2752POPC   C2B38552  23.254  13.065   6.747
 2752POPC   C3B38553  23.460  12.975   7.135
 2752POPC   C4B38554  23.388  12.986   7.602
 2753POPC   NC338555  23.444  39.939   5.453
 2753POPC   PO438556  22.779  39.776   5.488
 2753POPC   GL138557  22.773  39.943   5.855
 2753POPC   GL238558  23.139  39.924   5.892
 2753POPC   C1A38559  22.678  40.035   6.268
 2753POPC   D2A38560  23.038  40.002   6.422
 2753POPC   C3A38561  23.016  40.037   6.840
 2753POPC   C4A38562  22.823  40.186   7.178
 2753POPC   C1B38563  23.420  39.679   6.163
 2753POPC   C2B38564  23.454  39.754   6.579
 2753POPC   C3B38565  23.295  39.630   6.959
 2753POPC   C4B38566  23.148  39.814   7.330
 2754POPC   NC338567  13.898   0.274   5.340
 2754POPC   PO438568  13.231   0.288   5.509
 2754POPC   GL138569  13.309   0.469   5.869
 2754POPC   GL238570  13.655   0.515   5.780
 2754POPC   C1A38571  13.220   0.733   6.218
 2754POPC   D2A38572  13.413   0.758   6.603
 2754POPC   C3A38573  13.399   0.431   6.904
 2754POPC   C4A38574  13.305   0.396   7.301
 2754POPC   C1B38575  13.676   0.502   6.228
 2754POPC   C2B38576  13.807   0.349   6.615
 2754POPC   C3B38577  13.888   0.485   7.027
 2754POPC   C4B38578  13.785   0.214   7.365
 2755POPC   NC338579  34.731   2.359   5.359
 2755POPC   PO438580  34.515   3.004   5.172
 2755POPC   GL138581  34.415   2.775   5.655
 2755POPC   GL238582  34.696   2.620   5.786
 2755POPC   C1A38583  34.287   2.993   6.133
 2755POPC   D2A38584  34.369   3.312   6.469
 2755POPC   C3A38585  34.658   3.096   6.757
 2755POPC   C4A38586  34.639   2.892   7.171
 2755POPC   C1B38587  34.792   2.755   6.164
 2755POPC   C2B38588  34.644   2.594   6.513
 2755POPC   C3B38589  34.759   2.495   6.887
 2755POPC   C4B38590  34.542   2.376   7.198
 2756POPC   NC338591  41.746  16.497   5.507
 2756POPC   PO438592  41.378  16.992   5.305
 2756POPC   GL138593  41.406  16.857   5.742
 2756POPC   GL238594  41.245  17.112   5.879
 2756POPC   C1A38595  41.621  16.816   6.179
 2756POPC   D2A38596  41.700  16.963   6.621
 2756POPC   C3A38597  41.557  16.790   6.986
 2756POPC   C4A38598  41.805  16.645   7.324
 2756POPC   C1B38599  41.036  17.127   6.261
 2756POPC   C2B38600  41.179  17.034   6.657
 2756POPC   C3B38601  41.084  16.988   7.074
 2756POPC   C4B38602  41.332  16.868   7.444
 2757POPC   NC338603  24.368  19.712   5.619
 2757POPC   PO438604  24.940  19.894   5.333
 2757POPC   GL138605  24.823  19.793   5.808
 2757POPC   GL238606  24.579  20.056   5.953
 2757POPC   C1A38607  24.662  19.663   6.253
 2757POPC   D2A38608  24.534  19.731   6.684
 2757POPC   C3A38609  24.793  19.885   7.017
 2757POPC   C4A38610  24.764  20.305   7.183
 2757POPC   C1B38611  24.183  20.037   6.246
 2757POPC   C2B38612  23.927  20.319   6.559
 2757POPC   C3B38613  23.931  20.159   6.994
 2757POPC   C4B38614  24.334  20.019   7.199
 2758POPC   NC338615  35.162  41.598   5.237
 2758POPC   PO438616  35.782  41.370   5.405
 2758POPC   GL138617  35.489  41.374   5.762
 2758POPC   GL238618  35.128  41.426   5.743
 2758POPC   C1A38619  35.500  41.559   6.170
 2758POPC   D2A38620  35.321  41.531   6.562
 2758POPC   C3A38621  35.599  41.568   6.864
 2758POPC   C4A38622  35.719  41.556   7.263
 2758POPC   C1B38623  35.028  41.730   6.101
 2758POPC   C2B38624  35.245  42.003   6.369
 2758POPC   C3B38625  35.278  42.000   6.824
 2758POPC   C4B38626  35.175  41.706   7.158
 2759POPC   NC338627  34.384   1.752   5.340
 2759POPC   PO438628  34.253   2.409   5.302
 2759POPC   GL138629  34.426   2.182   5.713
 2759POPC   GL238630  34.543   1.862   5.826
 2759POPC   C1A38631  34.712   2.223   6.110
 2759POPC   D2A38632  34.779   1.903   6.411
 2759POPC   C3A38633  34.648   2.005   6.824
 2759POPC   C4A38634  34.637   1.879   7.224
 2759POPC   C1B38635  34.414   1.581   6.181
 2759POPC   C2B38636  34.379   1.603   6.626
 2759POPC   C3B38637  34.260   1.558   7.050
 2759POPC   C4B38638  34.241   1.577   7.523
 2760POPC   NC338639  41.565  42.797   5.500
 2760POPC   PO438640  41.642  43.498   5.401
 2760POPC   GL138641  41.511  43.288   5.724
 2760POPC   GL238642  41.841  43.157   5.760
 2760POPC   C1A38643  41.495  43.401   6.139
 2760POPC   D2A38644  41.361  43.471   6.550
 2760POPC   C3A38645  41.680  43.325   6.828
 2760POPC   C4A38646  41.538  43.305   7.232
 2760POPC   C1B38647  41.833  42.928   6.171
 2760POPC   C2B38648  41.591  42.846   6.572
 2760POPC   C3B38649  41.564  42.826   7.024
 2760POPC   C4B38650  41.884  42.921   7.316
 2761POPC   NC338651  10.669   2.541   5.216
 2761POPC   PO438652  10.097   2.771   5.335
 2761POPC   GL138653  10.258   2.680   5.718
 2761POPC   GL238654  10.591   2.785   5.734
 2761POPC   C1A38655  10.244   2.855   6.133
 2761POPC   D2A38656  10.406   2.800   6.538
 2761POPC   C3A38657  10.269   2.802   6.944
 2761POPC   C4A38658  10.473   2.488   7.191
 2761POPC   C1B38659  10.764   2.747   6.180
 2761POPC   C2B38660  10.969   2.681   6.575
 2761POPC   C3B38661  10.970   2.628   7.034
 2761POPC   C4B38662  10.932   2.924   7.376
 2762POPC   NC338663   5.526   7.171   5.090
 2762POPC   PO438664   5.953   7.529   5.535
 2762POPC   GL138665   5.852   7.608   5.924
 2762POPC   GL238666   5.939   7.278   6.031
 2762POPC   C1A38667   5.627   7.564   6.297
 2762POPC   D2A38668   5.822   7.261   6.565
 2762POPC   C3A38669   5.771   7.448   6.942
 2762POPC   C4A38670   5.728   7.298   7.334
 2762POPC   C1B38671   6.268   7.092   6.286
 2762POPC   C2B38672   6.386   6.989   6.714
 2762POPC   C3B38673   6.160   7.119   7.097
 2762POPC   C4B38674   6.197   7.316   7.527
 2763POPC   NC338675  16.298   3.403   5.326
 2763POPC   PO438676  15.775   3.818   5.325
 2763POPC   GL138677  15.991   3.678   5.753
 2763POPC   GL238678  16.306   3.463   5.844
 2763POPC   C1A38679  16.089   3.716   6.221
 2763POPC   D2A38680  15.953   3.520   6.604
 2763POPC   C3A38681  16.013   3.731   7.008
 2763POPC   C4A38682  15.902   3.936   7.418
 2763POPC   C1B38683  16.117   3.186   6.199
 2763POPC   C2B38684  15.986   3.010   6.595
 2763POPC   C3B38685  15.993   3.195   6.995
 2763POPC   C4B38686  16.049   3.366   7.388
 2764POPC   NC338687  18.240  42.523   5.730
 2764POPC   PO438688  18.237  42.094   5.212
 2764POPC   GL138689  18.294  41.987   5.782
 2764POPC   GL238690  18.586  42.028   5.994
 2764POPC   C1A38691  18.138  42.141   6.238
 2764POPC   D2A38692  18.353  42.261   6.620
 2764POPC   C3A38693  18.189  42.300   7.043
 2764POPC   C4A38694  17.856  42.568   7.158
 2764POPC   C1B38695  18.674  42.440   6.231
 2764POPC   C2B38696  18.857  42.478   6.621
 2764POPC   C3B38697  18.706  42.265   6.977
 2764POPC   C4B38698  18.584  42.460   7.347
 2765POPC   NC338699  27.848  26.326   5.345
 2765POPC   PO438700  27.372  25.898   5.192
 2765POPC   GL138701  27.505  25.870   5.649
 2765POPC   GL238702  27.375  26.185   5.794
 2765POPC   C1A38703  27.512  25.832   6.127
 2765POPC   D2A38704  27.320  25.850   6.574
 2765POPC   C3A38705  27.468  25.793   7.005
 2765POPC   C4A38706  27.736  25.947   7.348
 2765POPC   C1B38707  27.108  26.169   6.203
 2765POPC   C2B38708  27.080  26.290   6.667
 2765POPC   C3B38709  27.326  26.295   7.068
 2765POPC   C4B38710  27.514  26.380   7.479
 2766POPC   NC338711  24.443   6.469   5.521
 2766POPC   PO438712  23.916   6.967   5.292
 2766POPC   GL138713  24.108   6.828   5.705
 2766POPC   GL238714  24.476   6.878   5.833
 2766POPC   C1A38715  24.108   6.797   6.171
 2766POPC   D2A38716  24.351   6.757   6.560
 2766POPC   C3A38717  24.178   6.765   6.965
 2766POPC   C4A38718  24.328   6.662   7.384
 2766POPC   C1B38719  24.605   6.541   6.161
 2766POPC   C2B38720  24.728   6.357   6.573
 2766POPC   C3B38721  24.708   6.533   7.007
 2766POPC   C4B38722  24.794   6.885   7.270
 2767POPC   NC338723  17.380  40.275   5.540
 2767POPC   PO438724  17.646  39.706   5.580
 2767POPC   GL138725  17.676  40.026   5.870
 2767POPC   GL238726  17.351  39.971   6.022
 2767POPC   C1A38727  17.643  40.324   6.210
 2767POPC   D2A38728  17.326  40.257   6.487
 2767POPC   C3A38729  17.570  40.035   6.786
 2767POPC   C4A38730  17.557  40.019   7.215
 2767POPC   C1B38731  17.621  39.771   6.331
 2767POPC   C2B38732  17.609  39.535   6.720
 2767POPC   C3B38733  17.326  39.598   7.077
 2767POPC   C4B38734  17.126  39.858   7.416
 2768POPC   NC338735  36.538  32.132   5.298
 2768POPC   PO438736  37.028  32.509   5.552
 2768POPC   GL138737  36.840  32.354   5.913
 2768POPC   GL238738  36.681  32.084   5.804
 2768POPC   C1A38739  37.000  32.135   6.280
 2768POPC   D2A38740  37.376  32.148   6.569
 2768POPC   C3A38741  37.189  32.098   6.966
 2768POPC   C4A38742  36.899  32.397   7.192
 2768POPC   C1B38743  36.468  32.079   6.193
 2768POPC   C2B38744  36.602  31.984   6.613
 2768POPC   C3B38745  36.697  31.932   7.033
 2768POPC   C4B38746  36.507  31.869   7.407
 2769POPC   NC338747  41.781  26.772   5.480
 2769POPC   PO438748  41.306  26.384   5.453
 2769POPC   GL138749  41.328  26.694   5.788
 2769POPC   GL238750  41.637  26.648   5.943
 2769POPC   C1A38751  41.259  26.910   6.198
 2769POPC   D2A38752  41.118  26.882   6.631
 2769POPC   C3A38753  41.398  27.031   6.952
 2769POPC   C4A38754  41.736  27.148   7.210
 2769POPC   C1B38755  41.477  26.442   6.303
 2769POPC   C2B38756  41.479  26.510   6.744
 2769POPC   C3B38757  41.686  26.608   7.156
 2769POPC   C4B38758  41.852  26.366   7.521
 2770POPC   NC338759  34.727  20.351   5.114
 2770POPC   PO438760  34.430  20.877   5.350
 2770POPC   GL138761  34.553  20.734   5.722
 2770POPC   GL238762  34.571  20.418   5.613
 2770POPC   C1A38763  34.656  20.798   6.152
 2770POPC   D2A38764  34.557  20.673   6.577
 2770POPC   C3A38765  34.749  20.886   6.941
 2770POPC   C4A38766  34.487  20.874   7.288
 2770POPC   C1B38767  34.514  20.320   6.075
 2770POPC   C2B38768  34.494  20.165   6.533
 2770POPC   C3B38769  34.616  20.340   6.988
 2770POPC   C4B38770  34.612  20.378   7.486
 2771POPC   NC338771  37.662   1.489   5.012
 2771POPC   PO438772  37.962   1.125   5.526
 2771POPC   GL138773  37.843   1.130   5.922
 2771POPC   GL238774  37.756   0.802   5.961
 2771POPC   C1A38775  37.861   1.373   6.285
 2771POPC   D2A38776  37.666   1.418   6.677
 2771POPC   C3A38777  37.920   1.417   7.026
 2771POPC   C4A38778  37.612   1.226   7.264
 2771POPC   C1B38779  37.595   0.963   6.389
 2771POPC   C2B38780  37.603   0.924   6.845
 2771POPC   C3B38781  37.640   0.704   7.241
 2771POPC   C4B38782  37.715   0.899   7.630
 2772POPC   NC338783  23.114  21.951   5.686
 2772POPC   PO438784  22.671  22.315   5.232
 2772POPC   GL138785  22.754  22.364   5.712
 2772POPC   GL238786  23.095  22.454   5.792
 2772POPC   C1A38787  22.682  22.134   6.150
 2772POPC   D2A38788  22.660  21.924   6.579
 2772POPC   C3A38789  22.939  21.936   6.938
 2772POPC   C4A38790  22.748  22.159   7.257
 2772POPC   C1B38791  23.153  22.351   6.254
 2772POPC   C2B38792  23.202  22.342   6.708
 2772POPC   C3B38793  23.219  22.323   7.171
 2772POPC   C4B38794  23.244  22.362   7.612
 2773POPC   NC338795  43.456  44.732   5.507
 2773POPC   PO438796  42.933  44.223   5.319
 2773POPC   GL138797  43.098  44.402   5.722
 2773POPC   GL238798  42.931  44.733   5.706
 2773POPC   C1A38799  43.202  44.358   6.182
 2773POPC   D2A38800  42.945  44.431   6.563
 2773POPC   C3A38801  43.040  44.561   6.964
 2773POPC   C4A38802  43.379  44.613   7.193
 2773POPC   C1B38803  42.885  44.756   6.173
 2773POPC   C2B38804  42.892  44.977   6.566
 2773POPC   C3B38805  43.008   0.063   6.984
 2773POPC   C4B38806  43.047  44.947   7.387
 2774POPC   NC338807   7.199   9.517   5.190
 2774POPC   PO438808   7.871   9.548   5.254
 2774POPC   GL138809   7.679   9.496   5.682
 2774POPC   GL238810   7.323   9.379   5.678
 2774POPC   C1A38811   7.648   9.508   6.145
 2774POPC   D2A38812   7.434   9.693   6.527
 2774POPC   C3A38813   7.591   9.573   6.948
 2774POPC   C4A38814   7.785   9.621   7.358
 2774POPC   C1B38815   7.131   9.490   6.071
 2774POPC   C2B38816   6.960   9.473   6.481
 2774POPC   C3B38817   6.987   9.770   6.804
 2774POPC   C4B38818   7.187   9.756   7.204
 2775POPC   NC338819  39.428  26.090   5.645
 2775POPC   PO438820  39.963  26.144   5.283
 2775POPC   GL138821  40.055  26.244   5.724
 2775POPC   GL238822  39.781  26.441   5.848
 2775POPC   C1A38823  40.105  25.953   6.098
 2775POPC   D2A38824  40.138  25.748   6.514
 2775POPC   C3A38825  39.980  25.986   6.877
 2775POPC   C4A38826  40.206  25.864   7.236
 2775POPC   C1B38827  40.022  26.452   6.241
 2775POPC   C2B38828  40.024  26.595   6.676
 2775POPC   C3B38829  40.008  26.488   7.130
 2775POPC   C4B38830  39.677  26.221   7.279
 2776POPC   NC338831  28.476   3.155   5.289
 2776POPC   PO438832  28.167   3.674   5.406
 2776POPC   GL138833  28.087   3.863   5.842
 2776POPC   GL238834  28.421   3.938   5.943
 2776POPC   C1A38835  28.086   3.711   6.289
 2776POPC   D2A38836  28.310   3.463   6.611
 2776POPC   C3A38837  28.230   3.604   7.013
 2776POPC   C4A38838  28.040   3.694   7.398
 2776POPC   C1B38839  28.619   3.648   6.241
 2776POPC   C2B38840  28.799   3.601   6.691
 2776POPC   C3B38841  28.676   3.361   7.071
 2776POPC   C4B38842  28.390   3.315   7.424
 2777POPC   NC338843  22.250  36.866   5.514
 2777POPC   PO438844  22.231  37.590   5.419
 2777POPC   GL138845  22.237  37.305   5.765
 2777POPC   GL238846  21.865  37.149   5.763
 2777POPC   C1A38847  22.163  37.068   6.171
 2777POPC   D2A38848  21.841  37.094   6.513
 2777POPC   C3A38849  21.920  37.259   6.924
 2777POPC   C4A38850  22.092  37.084   7.286
 2777POPC   C1B38851  21.726  36.801   6.089
 2777POPC   C2B38852  21.953  36.578   6.428
 2777POPC   C3B38853  22.071  36.746   6.845
 2777POPC   C4B38854  22.186  36.593   7.239
 2778POPC   NC338855  38.532   9.583   5.575
 2778POPC   PO438856  38.043  10.009   5.489
 2778POPC   GL138857  38.286   9.905   5.919
 2778POPC   GL238858  38.535   9.638   6.078
 2778POPC   C1A38859  38.125   9.737   6.334
 2778POPC   D2A38860  38.135   9.428   6.680
 2778POPC   C3A38861  38.297   9.676   6.978
 2778POPC   C4A38862  38.643   9.702   7.267
 2778POPC   C1B38863  38.586   9.636   6.546
 2778POPC   C2B38864  38.737   9.960   6.831
 2778POPC   C3B38865  38.893  10.147   7.190
 2778POPC   C4B38866  38.993   9.930   7.595
 2779POPC   NC338867   9.162   6.818   5.002
 2779POPC   PO438868   9.008   6.497   5.570
 2779POPC   GL138869   8.855   6.454   5.931
 2779POPC   GL238870   8.820   6.794   5.938
 2779POPC   C1A38871   9.021   6.522   6.339
 2779POPC   D2A38872   9.157   6.298   6.680
 2779POPC   C3A38873   8.959   6.343   7.075
 2779POPC   C4A38874   9.188   6.633   7.302
 2779POPC   C1B38875   8.960   7.046   6.229
 2779POPC   C2B38876   8.738   6.894   6.555
 2779POPC   C3B38877   8.962   6.819   6.877
 2779POPC   C4B38878   9.091   7.168   7.095
 2780POPC   NC338879  14.186  42.674   5.426
 2780POPC   PO438880  14.756  42.360   5.595
 2780POPC   GL138881  14.541  42.572   5.951
 2780POPC   GL238882  14.182  42.616   5.922
 2780POPC   C1A38883  14.361  42.539   6.400
 2780POPC   D2A38884  14.252  42.268   6.749
 2780POPC   C3A38885  14.604  42.336   6.996
 2780POPC   C4A38886  14.932  42.589   6.807
 2780POPC   C1B38887  13.951  42.796   6.234
 2780POPC   C2B38888  13.899  42.650   6.716
 2780POPC   C3B38889  14.104  42.522   7.162
 2780POPC   C4B38890  14.155  42.673   7.607
 2781POPC   NC338891  16.873   7.188   5.396
 2781POPC   PO438892  16.423   7.737   5.408
 2781POPC   GL138893  16.615   7.500   5.765
 2781POPC   GL238894  16.513   7.146   5.745
 2781POPC   C1A38895  16.889   7.588   6.141
 2781POPC   D2A38896  16.722   7.553   6.543
 2781POPC   C3A38897  16.872   7.610   6.941
 2781POPC   C4A38898  16.623   7.685   7.313
 2781POPC   C1B38899  16.774   7.084   6.098
 2781POPC   C2B38900  16.905   7.036   6.511
 2781POPC   C3B38901  16.732   7.013   6.903
 2781POPC   C4B38902  16.795   7.219   7.264
 2782POPC   NC338903  35.822  27.246   5.369
 2782POPC   PO438904  35.987  26.490   5.446
 2782POPC   GL138905  36.107  26.868   5.757
 2782POPC   GL238906  36.467  26.966   5.827
 2782POPC   C1A38907  36.147  27.081   6.196
 2782POPC   D2A38908  36.315  27.086   6.631
 2782POPC   C3A38909  36.032  26.920   6.925
 2782POPC   C4A38910  35.804  26.527   7.043
 2782POPC   C1B38911  36.424  26.655   6.171
 2782POPC   C2B38912  36.268  26.530   6.589
 2782POPC   C3B38913  36.333  26.515   7.020
 2782POPC   C4B38914  36.457  26.831   7.250
 2783POPC   NC338915  19.758  20.113   5.556
 2783POPC   PO438916  19.528  19.477   5.373
 2783POPC   GL138917  19.842  19.612   5.654
 2783POPC   GL238918  19.568  19.715   5.842
 2783POPC   C1A38919  19.983  19.686   6.092
 2783POPC   D2A38920  19.888  19.497   6.471
 2783POPC   C3A38921  19.916  19.724   6.839
 2783POPC   C4A38922  20.020  19.678   7.247
 2783POPC   C1B38923  19.511  19.916   6.222
 2783POPC   C2B38924  19.581  20.070   6.637
 2783POPC   C3B38925  19.739  20.186   7.031
 2783POPC   C4B38926  19.642  19.954   7.400
 2784POPC   NC338927  20.962  32.922   5.458
 2784POPC   PO438928  20.321  32.748   5.504
 2784POPC   GL138929  20.479  33.043   5.800
 2784POPC   GL238930  20.459  33.421   5.811
 2784POPC   C1A38931  20.367  33.000   6.208
 2784POPC   D2A38932  20.615  32.983   6.553
 2784POPC   C3A38933  20.532  32.795   6.908
 2784POPC   C4A38934  20.572  33.008   7.265
 2784POPC   C1B38935  20.677  33.434   6.217
 2784POPC   C2B38936  20.980  33.353   6.530
 2784POPC   C3B38937  20.976  33.144   6.931
 2784POPC   C4B38938  20.990  33.268   7.383
 2785POPC   NC338939  35.147  25.534   5.298
 2785POPC   PO438940  35.580  25.009   5.367
 2785POPC   GL138941  35.496  25.153   5.751
 2785POPC   GL238942  35.163  25.200   5.674
 2785POPC   C1A38943  35.644  25.221   6.171
 2785POPC   D2A38944  35.785  25.299   6.589
 2785POPC   C3A38945  35.519  25.411   6.959
 2785POPC   C4A38946  35.534  25.403   7.426
 2785POPC   C1B38947  35.108  25.192   6.112
 2785POPC   C2B38948  35.234  25.068   6.519
 2785POPC   C3B38949  35.038  25.264   6.843
 2785POPC   C4B38950  35.026  25.406   7.251
 2786POPC   NC338951  17.124   6.431   5.316
 2786POPC   PO438952  16.550   6.811   5.319
 2786POPC   GL138953  16.832   6.744   5.701
 2786POPC   GL238954  17.138   6.576   5.809
 2786POPC   C1A38955  16.745   6.560   6.120
 2786POPC   D2A38956  16.442   6.389   6.392
 2786POPC   C3A38957  16.593   6.538   6.758
 2786POPC   C4A38958  16.713   6.374   7.124
 2786POPC   C1B38959  17.222   6.714   6.242
 2786POPC   C2B38960  17.122   6.617   6.713
 2786POPC   C3B38961  17.065   6.754   7.161
 2786POPC   C4B38962  17.086   6.973   7.587
 2787POPC   NC338963  34.180   2.751   5.000
 2787POPC   PO438964  33.674   2.837   5.401
 2787POPC   GL138965  33.888   2.814   5.810
 2787POPC   GL238966  34.018   2.469   5.798
 2787POPC   C1A38967  33.796   2.944   6.273
 2787POPC   D2A38968  33.943   3.095   6.708
 2787POPC   C3A38969  33.787   2.892   7.108
 2787POPC   C4A38970  33.810   3.040   7.546
 2787POPC   C1B38971  34.290   2.505   6.111
 2787POPC   C2B38972  34.149   2.647   6.516
 2787POPC   C3B38973  34.243   2.720   6.930
 2787POPC   C4B38974  34.093   2.547   7.333
 2788POPC   NC338975  33.732   2.361   5.409
 2788POPC   PO438976  33.916   1.696   5.318
 2788POPC   GL138977  33.837   1.919   5.694
 2788POPC   GL238978  34.070   1.690   5.806
 2788POPC   C1A38979  33.681   1.781   6.139
 2788POPC   D2A38980  33.801   1.527   6.527
 2788POPC   C3A38981  33.814   1.791   6.923
 2788POPC   C4A38982  33.704   2.203   7.167
 2788POPC   C1B38983  34.142   2.016   6.104
 2788POPC   C2B38984  34.322   2.149   6.473
 2788POPC   C3B38985  34.172   2.212   6.882
 2788POPC   C4B38986  34.155   2.013   7.265
 2789POPC   NC338987   3.162  15.811   5.388
 2789POPC   PO438988   3.665  16.263   5.298
 2789POPC   GL138989   3.531  16.032   5.678
 2789POPC   GL238990   3.192  16.169   5.756
 2789POPC   C1A38991   3.632  15.853   6.089
 2789POPC   D2A38992   3.812  15.982   6.485
 2789POPC   C3A38993   3.708  16.019   6.928
 2789POPC   C4A38994   3.877  15.952   7.370
 2789POPC   C1B38995   3.398  16.289   6.135
 2789POPC   C2B38996   3.491  16.378   6.566
 2789POPC   C3B38997   3.324  16.371   6.974
 2789POPC   C4B38998   3.449  16.204   7.362
 2790POPC   NC338999  23.623  38.955   5.484
 2790POPC   PO439000  23.766  39.631   5.558
 2790POPC   GL139001  23.786  39.308   5.798
 2790POPC   GL239002  24.101  39.148   5.656
 2790POPC   C1A39003  23.639  39.198   6.193
 2790POPC   D2A39004  23.792  39.353   6.575
 2790POPC   C3A39005  23.628  39.209   6.991
 2790POPC   C4A39006  23.362  39.305   7.354
 2790POPC   C1B39007  24.163  39.231   6.116
 2790POPC   C2B39008  24.278  39.196   6.542
 2790POPC   C3B39009  24.152  39.318   6.944
 2790POPC   C4B39010  24.077  39.148   7.329
 2791POPC   NC339011  19.107  19.452   5.181
 2791POPC   PO439012  19.226  20.096   5.134
 2791POPC   GL139013  19.189  19.868   5.550
 2791POPC   GL239014  19.125  19.496   5.700
 2791POPC   C1A39015  19.040  19.922   5.993
 2791POPC   D2A39016  18.884  19.748   6.402
 2791POPC   C3A39017  18.955  19.916   6.817
 2791POPC   C4A39018  18.795  20.009   7.236
 2791POPC   C1B39019  19.235  19.464   6.150
 2791POPC   C2B39020  19.351  19.597   6.588
 2791POPC   C3B39021  19.426  19.702   7.003
 2791POPC   C4B39022  19.191  19.701   7.355
 2792POPC   NC339023  16.105  29.622   5.428
 2792POPC   PO439024  16.078  30.237   5.524
 2792POPC   GL139025  16.005  29.900   5.831
 2792POPC   GL239026  16.307  29.664   5.888
 2792POPC   C1A39027  15.735  29.808   6.156
 2792POPC   D2A39028  15.789  30.183   6.401
 2792POPC   C3A39029  15.811  30.225   6.838
 2792POPC   C4A39030  15.786  30.451   7.219
 2792POPC   C1B39031  16.254  29.822   6.283
 2792POPC   C2B39032  16.397  29.714   6.671
 2792POPC   C3B39033  16.260  29.808   7.061
 2792POPC   C4B39034  15.867  29.916   7.222
 2793POPC   NC339035  23.617   5.911   5.447
 2793POPC   PO439036  24.070   5.448   5.324
 2793POPC   GL139037  23.855   5.607   5.769
 2793POPC   GL239038  23.497   5.552   5.819
 2793POPC   C1A39039  23.757   5.955   6.123
 2793POPC   D2A39040  23.569   6.153   6.522
 2793POPC   C3A39041  23.792   6.072   6.929
 2793POPC   C4A39042  23.846   5.977   7.354
 2793POPC   C1B39043  23.377   5.375   6.226
 2793POPC   C2B39044  23.593   5.372   6.644
 2793POPC   C3B39045  23.682   5.574   7.049
 2793POPC   C4B39046  23.732   5.509   7.521
 2794POPC   NC339047  16.919   4.793   5.032
 2794POPC   PO439048  16.456   4.527   5.422
 2794POPC   GL139049  16.638   4.272   5.770
 2794POPC   GL239050  16.848   3.943   5.684
 2794POPC   C1A39051  16.692   4.449   6.203
 2794POPC   D2A39052  16.948   4.643   6.528
 2794POPC   C3A39053  16.772   4.557   6.938
 2794POPC   C4A39054  16.865   4.156   7.126
 2794POPC   C1B39055  17.015   3.996   6.130
 2794POPC   C2B39056  16.872   4.098   6.577
 2794POPC   C3B39057  16.463   4.066   6.805
 2794POPC   C4B39058  16.361   4.059   7.229
 2795POPC   NC339059   3.095   4.187   5.355
 2795POPC   PO439060   2.514   4.348   5.149
 2795POPC   GL139061   2.710   4.357   5.665
 2795POPC   GL239062   3.014   4.186   5.857
 2795POPC   C1A39063   2.674   4.406   6.170
 2795POPC   D2A39064   2.458   4.241   6.571
 2795POPC   C3A39065   2.569   4.449   6.986
 2795POPC   C4A39066   2.981   4.553   7.212
 2795POPC   C1B39067   3.047   4.083   6.301
 2795POPC   C2B39068   2.958   4.266   6.693
 2795POPC   C3B39069   2.911   4.063   7.077
 2795POPC   C4B39070   3.329   4.145   7.183
 2796POPC   NC339071  14.128   2.206   5.311
 2796POPC   PO439072  14.404   1.591   5.164
 2796POPC   GL139073  14.406   1.778   5.617
 2796POPC   GL239074  14.516   2.112   5.716
 2796POPC   C1A39075  14.294   1.879   6.089
 2796POPC   D2A39076  14.511   2.078   6.453
 2796POPC   C3A39077  14.521   1.872   6.878
 2796POPC   C4A39078  14.225   1.904   7.200
 2796POPC   C1B39079  14.698   2.392   6.056
 2796POPC   C2B39080  14.697   2.561   6.449
 2796POPC   C3B39081  14.744   2.336   6.837
 2796POPC   C4B39082  14.603   2.249   7.260
 2797POPC   NC339083  12.517  30.162   5.095
 2797POPC   PO439084  12.841  29.601   5.421
 2797POPC   GL139085  12.948  29.750   5.836
 2797POPC   GL239086  12.947  30.111   5.862
 2797POPC   C1A39087  13.182  29.676   6.199
 2797POPC   D2A39088  13.012  29.633   6.617
 2797POPC   C3A39089  13.091  29.758   7.034
 2797POPC   C4A39090  12.847  29.602   7.382
 2797POPC   C1B39091  12.824  30.028   6.305
 2797POPC   C2B39092  12.852  30.119   6.752
 2797POPC   C3B39093  12.618  29.993   7.135
 2797POPC   C4B39094  12.519  30.121   7.570
 2798POPC   NC339095  18.536  17.084   5.459
 2798POPC   PO439096  18.112  16.549   5.417
 2798POPC   GL139097  18.338  16.689   5.772
 2798POPC   GL239098  18.153  16.998   5.818
 2798POPC   C1A39099  18.423  16.489   6.202
 2798POPC   D2A39100  18.335  16.254   6.609
 2798POPC   C3A39101  18.388  16.526   6.962
 2798POPC   C4A39102  18.098  16.848   7.128
 2798POPC   C1B39103  18.459  17.019   6.157
 2798POPC   C2B39104  18.574  17.146   6.584
 2798POPC   C3B39105  18.705  16.996   7.002
 2798POPC   C4B39106  18.581  16.760   7.378
 2799POPC   NC339107  14.046  44.357   5.559
 2799POPC   PO439108  13.728  44.861   5.209
 2799POPC   GL139109  13.906  44.868   5.683
 2799POPC   GL239110  13.780  44.587   5.915
 2799POPC   C1A39111  13.755   0.015   6.138
 2799POPC   D2A39112  13.596  44.750   6.509
 2799POPC   C3A39113  13.754  44.915   6.903
 2799POPC   C4A39114  13.662  44.722   7.264
 2799POPC   C1B39115  13.481  44.357   6.181
 2799POPC   C2B39116  13.215  44.305   6.505
 2799POPC   C3B39117  13.341  44.443   6.889
 2799POPC   C4B39118  13.579  44.236   7.194
 2800POPC   NC339119   1.389  37.577   5.369
 2800POPC   PO439120   0.842  38.046   5.518
 2800POPC   GL139121   1.087  37.736   5.745
 2800POPC   GL239122   1.058  37.355   5.692
 2800POPC   C1A39123   1.295  37.641   6.127
 2800POPC   D2A39124   1.385  37.758   6.566
 2800POPC   C3A39125   1.110  37.670   6.913
 2800POPC   C4A39126   1.326  37.588   7.272
 2800POPC   C1B39127   1.132  37.142   6.086
 2800POPC   C2B39128   1.187  37.287   6.493
 2800POPC   C3B39129   1.302  37.196   6.890
 2800POPC   C4B39130   1.054  37.153   7.228
 2801POPC   NC339131  20.566  40.278   5.461
 2801POPC   PO439132  20.281  39.672   5.637
 2801POPC   GL139133  20.525  39.886   5.951
 2801POPC   GL239134  20.814  40.097   5.885
 2801POPC   C1A39135  20.676  39.922   6.369
 2801POPC   D2A39136  20.745  39.614   6.665
 2801POPC   C3A39137  20.536  39.747   7.026
 2801POPC   C4A39138  20.787  39.971   7.341
 2801POPC   C1B39139  20.587  40.378   6.143
 2801POPC   C2B39140  20.484  40.468   6.524
 2801POPC   C3B39141  20.622  40.234   6.838
 2801POPC   C4B39142  20.648  40.444   7.196
 2802POPC   NC339143   1.538  33.025   5.279
 2802POPC   PO439144   0.846  33.198   5.359
 2802POPC   GL139145   1.209  33.173   5.704
 2802POPC   GL239146   1.273  33.521   5.871
 2802POPC   C1A39147   1.238  32.846   6.073
 2802POPC   D2A39148   1.320  32.589   6.456
 2802POPC   C3A39149   1.259  32.712   6.886
 2802POPC   C4A39150   1.176  33.043   7.142
 2802POPC   C1B39151   1.326  33.306   6.236
 2802POPC   C2B39152   1.405  33.156   6.639
 2802POPC   C3B39153   1.206  33.467   6.870
 2802POPC   C4B39154   0.843  33.511   7.153
 2803POPC   NC339155  27.245  14.723   5.296
 2803POPC   PO439156  27.961  14.562   5.363
 2803POPC   GL139157  27.696  14.517   5.747
 2803POPC   GL239158  27.393  14.702   5.796
 2803POPC   C1A39159  27.700  14.581   6.222
 2803POPC   D2A39160  27.781  14.410   6.655
 2803POPC   C3A39161  27.618  14.325   7.082
 2803POPC   C4A39162  27.319  14.032   7.238
 2803POPC   C1B39163  27.204  14.681   6.207
 2803POPC   C2B39164  27.367  14.748   6.628
 2803POPC   C3B39165  27.292  14.687   7.052
 2803POPC   C4B39166  27.538  14.713   7.424
 2804POPC   NC339167   8.392  30.408   5.328
 2804POPC   PO439168   8.071  30.949   5.464
 2804POPC   GL139169   7.978  30.609   5.793
 2804POPC   GL239170   8.305  30.483   5.824
 2804POPC   C1A39171   7.985  30.370   6.219
 2804POPC   D2A39172   7.941  30.658   6.595
 2804POPC   C3A39173   8.242  30.641   6.903
 2804POPC   C4A39174   8.249  30.449   7.308
 2804POPC   C1B39175   8.318  30.747   6.210
 2804POPC   C2B39176   8.383  31.069   6.517
 2804POPC   C3B39177   8.539  31.089   6.921
 2804POPC   C4B39178   8.679  30.740   7.161
 2805POPC   NC339179  20.019  11.575   5.465
 2805POPC   PO439180  19.607  12.130   5.419
 2805POPC   GL139181  19.702  11.882   5.771
 2805POPC   GL239182  19.563  11.547   5.688
 2805POPC   C1A39183  19.957  12.014   6.124
 2805POPC   D2A39184  19.873  12.029   6.545
 2805POPC   C3A39185  19.917  12.356   6.826
 2805POPC   C4A39186  19.995  12.181   7.223
 2805POPC   C1B39187  19.438  11.577   6.130
 2805POPC   C2B39188  19.375  11.903   6.464
 2805POPC   C3B39189  19.486  12.075   6.882
 2805POPC   C4B39190  19.645  11.761   7.118
 2806POPC   NC339191  10.821   9.899   5.172
 2806POPC   PO439192  10.425   9.432   5.001
 2806POPC   GL139193  10.320   9.520   5.492
 2806POPC   GL239194  10.637   9.669   5.688
 2806POPC   C1A39195  10.235   9.527   5.984
 2806POPC   D2A39196  10.358   9.716   6.409
 2806POPC   C3A39197  10.305   9.689   6.854
 2806POPC   C4A39198  10.360   9.540   7.293
 2806POPC   C1B39199  10.709   9.931   6.109
 2806POPC   C2B39200  10.726  10.102   6.565
 2806POPC   C3B39201  10.776   9.856   6.968
 2806POPC   C4B39202  10.770   9.836   7.427
 2807POPC   NC339203  32.404  18.423   5.515
 2807POPC   PO439204  31.781  18.478   5.505
 2807POPC   GL139205  32.024  18.256   5.845
 2807POPC   GL239206  32.324  18.015   5.822
 2807POPC   C1A39207  32.205  18.388   6.251
 2807POPC   D2A39208  32.358  18.507   6.645
 2807POPC   C3A39209  32.161  18.336   7.011
 2807POPC   C4A39210  32.356  18.299   7.418
 2807POPC   C1B39211  32.160  17.877   6.232
 2807POPC   C2B39212  32.228  17.969   6.674
 2807POPC   C3B39213  32.277  17.859   7.131
 2807POPC   C4B39214  32.130  17.875   7.566
 2808POPC   NC339215  35.277  16.989   5.541
 2808POPC   PO439216  35.756  16.387   5.430
 2808POPC   GL139217  35.727  16.476   5.883
 2808POPC   GL239218  35.601  16.798   5.881
 2808POPC   C1A39219  35.453  16.445   6.293
 2808POPC   D2A39220  35.159  16.773   6.496
 2808POPC   C3A39221  35.155  16.934   6.930
 2808POPC   C4A39222  35.198  16.783   7.371
 2808POPC   C1B39223  35.647  16.903   6.289
 2808POPC   C2B39224  35.578  17.111   6.635
 2808POPC   C3B39225  35.645  17.044   7.045
 2808POPC   C4B39226  35.712  16.850   7.396
 2809POPC   NC339227  14.928  18.327   5.245
 2809POPC   PO439228  15.549  18.466   5.428
 2809POPC   GL139229  15.461  18.377   5.826
 2809POPC   GL239230  15.148  18.553   5.813
 2809POPC   C1A39231  15.375  18.272   6.247
 2809POPC   D2A39232  15.007  18.206   6.515
 2809POPC   C3A39233  15.153  18.137   6.926
 2809POPC   C4A39234  15.153  18.368   7.297
 2809POPC   C1B39235  14.819  18.603   6.140
 2809POPC   C2B39236  14.808  18.690   6.577
 2809POPC   C3B39237  14.777  18.482   6.965
 2809POPC   C4B39238  14.479  18.607   7.307
 2810POPC   NC339239  26.729  41.787   5.209
 2810POPC   PO439240  26.948  41.152   5.309
 2810POPC   GL139241  26.825  41.484   5.635
 2810POPC   GL239242  27.073  41.771   5.617
 2810POPC   C1A39243  26.527  41.446   6.040
 2810POPC   D2A39244  26.228  41.273   6.397
 2810POPC   C3A39245  26.353  41.391   6.820
 2810POPC   C4A39246  26.772  41.462   6.965
 2810POPC   C1B39247  26.991  41.734   6.071
 2810POPC   C2B39248  26.915  41.786   6.533
 2810POPC   C3B39249  27.075  41.882   6.963
 2810POPC   C4B39250  26.882  41.976   7.383
 2811POPC   NC339251  34.010  42.550   5.388
 2811POPC   PO439252  33.845  41.908   5.466
 2811POPC   GL139253  33.796  42.194   5.823
 2811POPC   GL239254  34.107  42.414   5.872
 2811POPC   C1A39255  33.575  42.118   6.227
 2811POPC   D2A39256  33.441  42.356   6.558
 2811POPC   C3A39257  33.520  42.214   6.954
 2811POPC   C4A39258  33.730  42.550   7.169
 2811POPC   C1B39259  33.886  42.539   6.252
 2811POPC   C2B39260  33.934  42.341   6.671
 2811POPC   C3B39261  34.035  42.159   7.066
 2811POPC   C4B39262  34.392  42.223   7.291
 2812POPC   NC339263  36.920  12.866   5.312
 2812POPC   PO439264  36.481  12.321   5.499
 2812POPC   GL139265  36.888  12.535   5.707
 2812POPC   GL239266  36.909  12.932   5.842
 2812POPC   C1A39267  37.209  12.592   6.056
 2812POPC   D2A39268  36.948  12.730   6.421
 2812POPC   C3A39269  37.021  12.732   6.839
 2812POPC   C4A39270  36.835  12.679   7.259
 2812POPC   C1B39271  37.224  13.094   6.215
 2812POPC   C2B39272  37.282  13.152   6.706
 2812POPC   C3B39273  36.933  13.178   7.057
 2812POPC   C4B39274  36.534  13.384   7.178
 2813POPC   NC339275  27.455  24.787   5.522
 2813POPC   PO439276  27.446  24.163   5.446
 2813POPC   GL139277  27.485  24.188   5.875
 2813POPC   GL239278  27.508  24.541   5.963
 2813POPC   C1A39279  27.348  24.185   6.302
 2813POPC   D2A39280  27.481  24.483   6.603
 2813POPC   C3A39281  27.685  24.413   6.965
 2813POPC   C4A39282  27.449  24.156   7.199
 2813POPC   C1B39283  27.847  24.520   6.252
 2813POPC   C2B39284  28.082  24.337   6.612
 2813POPC   C3B39285  28.184  24.411   7.049
 2813POPC   C4B39286  27.973  24.808   7.202
 2814POPC   NC339287   1.011  10.874   5.478
 2814POPC   PO439288   1.426  10.484   5.131
 2814POPC   GL139289   1.414  10.517   5.599
 2814POPC   GL239290   1.107  10.348   5.696
 2814POPC   C1A39291   1.372  10.589   6.078
 2814POPC   D2A39292   1.230  10.428   6.504
 2814POPC   C3A39293   1.410  10.606   6.888
 2814POPC   C4A39294   1.321  10.704   7.306
 2814POPC   C1B39295   0.874  10.356   6.107
 2814POPC   C2B39296   0.720  10.198   6.521
 2814POPC   C3B39297   0.842  10.341   6.933
 2814POPC   C4B39298   0.806  10.684   7.237
 2815POPC   NC339299  19.981  42.073   5.181
 2815POPC   PO439300  19.579  42.580   5.429
 2815POPC   GL139301  19.771  42.422   5.802
 2815POPC   GL239302  19.947  42.122   5.698
 2815POPC   C1A39303  19.951  42.463   6.241
 2815POPC   D2A39304  20.083  42.360   6.665
 2815POPC   C3A39305  19.730  42.314   6.936
 2815POPC   C4A39306  19.473  42.471   7.266
 2815POPC   C1B39307  20.119  42.024   6.077
 2815POPC   C2B39308  19.951  41.873   6.468
 2815POPC   C3B39309  20.034  41.878   6.898
 2815POPC   C4B39310  19.961  42.034   7.301
 2816POPC   NC339311   5.728   8.000   5.603
 2816POPC   PO439312   5.693   8.445   5.155
 2816POPC   GL139313   6.089   8.364   5.600
 2816POPC   GL239314   6.192   8.001   5.766
 2816POPC   C1A39315   6.158   8.482   6.088
 2816POPC   D2A39316   6.192   8.337   6.567
 2816POPC   C3A39317   5.831   8.465   6.870
 2816POPC   C4A39318   5.743   8.287   7.311
 2816POPC   C1B39319   6.013   8.000   6.197
 2816POPC   C2B39320   5.766   8.002   6.562
 2816POPC   C3B39321   5.889   7.945   6.961
 2816POPC   C4B39322   5.725   7.787   7.347
 2817POPC   NC339323  20.028  33.266   5.549
 2817POPC   PO439324  19.352  32.985   5.493
 2817POPC   GL139325  19.648  33.124   5.862
 2817POPC   GL239326  19.945  32.863   5.855
 2817POPC   C1A39327  19.862  33.083   6.308
 2817POPC   D2A39328  20.091  32.885   6.650
 2817POPC   C3A39329  20.094  33.109   7.024
 2817POPC   C4A39330  19.746  33.289   7.241
 2817POPC   C1B39331  19.612  32.677   6.119
 2817POPC   C2B39332  19.719  32.563   6.534
 2817POPC   C3B39333  19.686  32.686   6.947
 2817POPC   C4B39334  19.688  32.781   7.381
 2818POPC   NC339335  27.160  23.196   5.549
 2818POPC   PO439336  26.994  22.700   5.128
 2818POPC   GL139337  26.736  22.647   5.575
 2818POPC   GL239338  26.884  22.862   5.838
 2818POPC   C1A39339  26.504  22.616   6.053
 2818POPC   D2A39340  26.655  22.647   6.513
 2818POPC   C3A39341  26.633  23.023   6.791
 2818POPC   C4A39342  26.592  23.257   7.168
 2818POPC   C1B39343  27.060  22.588   6.196
 2818POPC   C2B39344  27.169  22.678   6.645
 2818POPC   C3B39345  26.922  22.648   7.024
 2818POPC   C4B39346  26.811  22.865   7.398
 2819POPC   NC339347  25.149  31.962   5.549
 2819POPC   PO439348  25.676  32.435   5.551
 2819POPC   GL139349  25.423  32.249   5.861
 2819POPC   GL239350  25.656  32.123   6.023
 2819POPC   C1A39351  25.144  32.074   6.210
 2819POPC   D2A39352  24.911  32.283   6.554
 2819POPC   C3A39353  24.993  32.173   6.975
 2819POPC   C4A39354  25.135  32.567   7.130
 2819POPC   C1B39355  25.502  32.421   6.333
 2819POPC   C2B39356  25.430  32.352   6.756
 2819POPC   C3B39357  25.472  32.181   7.166
 2819POPC   C4B39358  25.240  31.991   7.528
 2820POPC   NC339359   3.799  39.500   5.505
 2820POPC   PO439360   3.581  38.939   5.198
 2820POPC   GL139361   3.547  38.989   5.649
 2820POPC   GL239362   3.421  39.291   5.793
 2820POPC   C1A39363   3.564  38.954   6.116
 2820POPC   D2A39364   3.478  39.198   6.522
 2820POPC   C3A39365   3.416  39.023   6.948
 2820POPC   C4A39366   3.643  39.223   7.302
 2820POPC   C1B39367   3.632  39.516   6.150
 2820POPC   C2B39368   3.827  39.623   6.548
 2820POPC   C3B39369   3.676  39.599   6.963
 2820POPC   C4B39370   3.840  39.723   7.367
 2821POPC   NC339371  39.460  24.612   5.431
 2821POPC   PO439372  38.890  24.175   5.378
 2821POPC   GL139373  38.890  24.268   5.784
 2821POPC   GL239374  38.992  24.589   5.787
 2821POPC   C1A39375  38.748  24.413   6.208
 2821POPC   D2A39376  38.956  24.518   6.597
 2821POPC   C3A39377  38.820  24.355   6.973
 2821POPC   C4A39378  38.876  24.161   7.408
 2821POPC   C1B39379  39.247  24.393   6.118
 2821POPC   C2B39380  39.314  24.126   6.496
 2821POPC   C3B39381  39.338  24.118   6.946
 2821POPC   C4B39382  39.263  24.438   7.255
 2822POPC   NC339383   2.215   4.660   5.302
 2822POPC   PO439384   1.848   4.109   5.415
 2822POPC   GL139385   2.018   4.364   5.753
 2822POPC   GL239386   2.284   4.219   5.935
 2822POPC   C1A39387   1.952   4.514   6.199
 2822POPC   D2A39388   1.948   4.322   6.630
 2822POPC   C3A39389   2.017   4.369   7.071
 2822POPC   C4A39390   1.688   4.335   7.378
 2822POPC   C1B39391   2.078   3.999   6.267
 2822POPC   C2B39392   2.219   3.790   6.639
 2822POPC   C3B39393   2.319   3.952   7.036
 2822POPC   C4B39394   2.039   3.962   7.407
 2823POPC   NC339395   5.008   9.554   5.584
 2823POPC   PO439396   5.388  10.068   5.430
 2823POPC   GL139397   5.326   9.892   5.824
 2823POPC   GL239398   4.964  10.005   5.853
 2823POPC   C1A39399   5.194   9.702   6.224
 2823POPC   D2A39400   4.985   9.515   6.560
 2823POPC   C3A39401   5.014   9.733   6.939
 2823POPC   C4A39402   5.013   9.480   7.296
 2823POPC   C1B39403   4.803  10.301   6.184
 2823POPC   C2B39404   4.880  10.166   6.627
 2823POPC   C3B39405   4.687  10.131   7.032
 2823POPC   C4B39406   4.591   9.754   7.246
 2824POPC   NC339407   4.917  24.566   5.343
 2824POPC   PO439408   5.636  24.500   5.270
 2824POPC   GL139409   5.329  24.516   5.669
 2824POPC   GL239410   5.039  24.342   5.785
 2824POPC   C1A39411   5.313  24.490   6.167
 2824POPC   D2A39412   5.062  24.602   6.523
 2824POPC   C3A39413   5.134  24.681   6.962
 2824POPC   C4A39414   5.275  24.404   7.270
 2824POPC   C1B39415   4.807  24.347   6.154
 2824POPC   C2B39416   4.829  24.160   6.563
 2824POPC   C3B39417   4.741  24.344   6.975
 2824POPC   C4B39418   4.840  24.158   7.397
 2825POPC   NC339419  25.643  25.123   5.328
 2825POPC   PO439420  25.014  25.132   5.143
 2825POPC   GL139421  25.209  25.296   5.548
 2825POPC   GL239422  25.154  24.995   5.700
 2825POPC   C1A39423  25.308  25.371   6.036
 2825POPC   D2A39424  25.447  25.227   6.464
 2825POPC   C3A39425  25.363  25.271   6.877
 2825POPC   C4A39426  25.527  25.514   7.188
 2825POPC   C1B39427  24.960  25.007   6.114
 2825POPC   C2B39428  24.951  25.300   6.444
 2825POPC   C3B39429  24.840  25.211   6.829
 2825POPC   C4B39430  25.008  25.046   7.154
 2826POPC   NC339431  36.721  20.821   5.074
 2826POPC   PO439432  36.108  20.493   5.217
 2826POPC   GL139433  36.024  20.430   5.642
 2826POPC   GL239434  36.262  20.195   5.762
 2826POPC   C1A39435  36.160  20.639   6.031
 2826POPC   D2A39436  35.946  20.733   6.409
 2826POPC   C3A39437  36.176  20.814   6.778
 2826POPC   C4A39438  36.077  20.684   7.176
 2826POPC   C1B39439  36.010  20.159   6.103
 2826POPC   C2B39440  35.847  20.166   6.500
 2826POPC   C3B39441  35.867  20.276   6.918
 2826POPC   C4B39442  35.874  20.152   7.342
 2827POPC   NC339443  27.714  17.367   5.211
 2827POPC   PO439444  28.367  17.244   5.322
 2827POPC   GL139445  28.312  17.540   5.684
 2827POPC   GL239446  28.153  17.288   5.907
 2827POPC   C1A39447  28.346  17.701   6.131
 2827POPC   D2A39448  28.573  17.602   6.527
 2827POPC   C3A39449  28.388  17.542   6.958
 2827POPC   C4A39450  28.307  17.580   7.430
 2827POPC   C1B39451  27.958  17.432   6.302
 2827POPC   C2B39452  28.038  17.270   6.710
 2827POPC   C3B39453  27.984  17.113   7.119
 2827POPC   C4B39454  27.834  17.339   7.466
 2828POPC   NC339455  12.439  24.140   5.256
 2828POPC   PO439456  13.088  23.720   5.258
 2828POPC   GL139457  12.940  23.694   5.725
 2828POPC   GL239458  12.684  23.975   5.839
 2828POPC   C1A39459  12.799  23.585   6.148
 2828POPC   D2A39460  12.937  23.702   6.568
 2828POPC   C3A39461  12.859  23.512   6.983
 2828POPC   C4A39462  12.684  23.781   7.303
 2828POPC   C1B39463  13.065  24.063   6.141
 2828POPC   C2B39464  13.259  24.102   6.602
 2828POPC   C3B39465  13.138  23.933   7.049
 2828POPC   C4B39466  13.116  23.924   7.547
 2829POPC   NC339467  35.870  10.312   5.269
 2829POPC   PO439468  36.282  10.903   5.353
 2829POPC   GL139469  36.081  10.753   5.742
 2829POPC   GL239470  36.050  10.380   5.777
 2829POPC   C1A39471  35.851  10.727   6.150
 2829POPC   D2A39472  35.864  10.518   6.560
 2829POPC   C3A39473  35.998  10.709   6.954
 2829POPC   C4A39474  36.381  10.531   7.166
 2829POPC   C1B39475  35.843  10.181   6.164
 2829POPC   C2B39476  35.786  10.006   6.610
 2829POPC   C3B39477  35.923  10.209   7.019
 2829POPC   C4B39478  35.880  10.197   7.487
 2830POPC   NC339479  14.603  14.066   5.405
 2830POPC   PO439480  14.210  13.498   5.388
 2830POPC   GL139481  14.452  13.665   5.686
 2830POPC   GL239482  14.203  13.887   5.846
 2830POPC   C1A39483  14.693  13.732   6.067
 2830POPC   D2A39484  14.792  13.646   6.500
 2830POPC   C3A39485  14.442  13.720   6.785
 2830POPC   C4A39486  14.490  13.693   7.226
 2830POPC   C1B39487  14.230  13.464   6.100
 2830POPC   C2B39488  14.316  13.276   6.509
 2830POPC   C3B39489  14.136  13.321   6.938
 2830POPC   C4B39490  14.298  13.242   7.325
 2831POPC   NC339491  30.655   8.597   5.406
 2831POPC   PO439492  31.056   9.220   5.407
 2831POPC   GL139493  30.825   8.982   5.721
 2831POPC   GL239494  30.879   8.646   5.845
 2831POPC   C1A39495  30.673   9.020   6.148
 2831POPC   D2A39496  30.589   8.987   6.610
 2831POPC   C3A39497  30.673   9.188   7.069
 2831POPC   C4A39498  30.440   9.319   7.482
 2831POPC   C1B39499  30.868   8.463   6.252
 2831POPC   C2B39500  30.655   8.461   6.633
 2831POPC   C3B39501  30.597   8.677   7.009
 2831POPC   C4B39502  30.878   8.604   7.296
 2832POPC   NC339503   8.489   3.649   5.204
 2832POPC   PO439504   7.913   3.296   5.420
 2832POPC   GL139505   8.069   3.489   5.809
 2832POPC   GL239506   8.366   3.676   5.700
 2832POPC   C1A39507   8.168   3.454   6.270
 2832POPC   D2A39508   7.983   3.537   6.701
 2832POPC   C3A39509   8.155   3.479   7.135
 2832POPC   C4A39510   8.067   3.335   7.581
 2832POPC   C1B39511   8.572   3.736   6.079
 2832POPC   C2B39512   8.478   3.835   6.501
 2832POPC   C3B39513   8.433   3.904   6.929
 2832POPC   C4B39514   8.541   3.825   7.343
 2833POPC   NC339515   0.790  13.254   5.576
 2833POPC   PO439516   0.382  13.769   5.302
 2833POPC   GL139517   0.621  13.738   5.675
 2833POPC   GL239518   0.355  13.511   5.784
 2833POPC   C1A39519   0.541  13.824   6.128
 2833POPC   D2A39520   0.201  13.691   6.442
 2833POPC   C3A39521   0.223  13.872   6.871
 2833POPC   C4A39522   0.489  13.806   7.216
 2833POPC   C1B39523   0.436  13.295   6.171
 2833POPC   C2B39524   0.277  13.180   6.567
 2833POPC   C3B39525   0.412  13.349   6.929
 2833POPC   C4B39526   0.499  13.290   7.359
 2834POPC   NC339527  41.588   1.457   5.375
 2834POPC   PO439528  41.697   2.206   5.400
 2834POPC   GL139529  41.778   2.102   5.812
 2834POPC   GL239530  41.593   1.800   5.770
 2834POPC   C1A39531  41.651   2.120   6.242
 2834POPC   D2A39532  41.535   2.332   6.647
 2834POPC   C3A39533  41.506   2.071   7.014
 2834POPC   C4A39534  41.690   2.014   7.455
 2834POPC   C1B39535  41.390   1.630   6.152
 2834POPC   C2B39536  41.266   1.450   6.539
 2834POPC   C3B39537  41.408   1.554   6.966
 2834POPC   C4B39538  41.268   1.742   7.330
 2835POPC   NC339539  15.349  11.757   5.349
 2835POPC   PO439540  15.018  11.168   5.494
 2835POPC   GL139541  15.159  11.486   5.794
 2835POPC   GL239542  14.837  11.624   5.962
 2835POPC   C1A39543  15.434  11.355   6.161
 2835POPC   D2A39544  15.619  11.218   6.555
 2835POPC   C3A39545  15.488  11.511   6.892
 2835POPC   C4A39546  15.058  11.626   7.052
 2835POPC   C1B39547  14.922  11.322   6.212
 2835POPC   C2B39548  15.107  11.375   6.572
 2835POPC   C3B39549  15.140  11.136   6.903
 2835POPC   C4B39550  14.928  11.149   7.255
 2836POPC   NC339551  13.506  17.905   5.590
 2836POPC   PO439552  13.915  17.470   5.236
 2836POPC   GL139553  13.825  17.286   5.686
 2836POPC   GL239554  13.845  17.599   5.864
 2836POPC   C1A39555  13.623  17.263   6.168
 2836POPC   D2A39556  13.658  17.485   6.606
 2836POPC   C3A39557  13.451  17.377   7.004
 2836POPC   C4A39558  13.655  17.423   7.405
 2836POPC   C1B39559  13.647  17.815   6.220
 2836POPC   C2B39560  13.705  18.013   6.615
 2836POPC   C3B39561  13.694  17.844   7.012
 2836POPC   C4B39562  13.361  17.813   7.299
 2837POPC   NC339563  36.956  17.258   5.435
 2837POPC   PO439564  36.918  17.905   5.398
 2837POPC   GL139565  36.868  17.633   5.791
 2837POPC   GL239566  36.604  17.386   5.804
 2837POPC   C1A39567  36.957  17.357   6.173
 2837POPC   D2A39568  37.312  17.384   6.461
 2837POPC   C3A39569  37.143  17.484   6.867
 2837POPC   C4A39570  37.064  17.565   7.288
 2837POPC   C1B39571  36.431  17.428   6.224
 2837POPC   C2B39572  36.474  17.367   6.676
 2837POPC   C3B39573  36.619  17.479   7.069
 2837POPC   C4B39574  36.618  17.349   7.515
 2838POPC   NC339575  39.510  39.908   5.556
 2838POPC   PO439576  38.954  40.197   5.467
 2838POPC   GL139577  39.140  40.094   5.858
 2838POPC   GL239578  39.445  40.278   5.910
 2838POPC   C1A39579  39.370  39.880   6.228
 2838POPC   D2A39580  39.551  39.944   6.643
 2838POPC   C3A39581  39.371  39.942   7.075
 2838POPC   C4A39582  39.175  39.918   7.483
 2838POPC   C1B39583  39.162  40.356   6.279
 2838POPC   C2B39584  39.145  40.538   6.670
 2838POPC   C3B39585  39.299  40.450   7.086
 2838POPC   C4B39586  39.159  40.437   7.485
 2839POPC   NC339587  29.775  30.642   5.405
 2839POPC   PO439588  30.130  31.127   5.675
 2839POPC   GL139589  29.882  30.816   5.929
 2839POPC   GL239590  29.733  30.494   5.889
 2839POPC   C1A39591  29.821  30.735   6.385
 2839POPC   D2A39592  30.089  30.777   6.762
 2839POPC   C3A39593  29.863  30.876   7.116
 2839POPC   C4A39594  29.566  31.183   7.086
 2839POPC   C1B39595  29.951  30.271   6.216
 2839POPC   C2B39596  29.939  30.299   6.670
 2839POPC   C3B39597  30.052  30.386   7.111
 2839POPC   C4B39598  29.793  30.428   7.469
 2840POPC   NC339599  10.246  10.055   5.513
 2840POPC   PO439600   9.667   9.628   5.485
 2840POPC   GL139601   9.737   9.595   5.857
 2840POPC   GL239602   9.529   9.295   5.934
 2840POPC   C1A39603   9.901   9.873   6.190
 2840POPC   D2A39604   9.992  10.084   6.589
 2840POPC   C3A39605   9.896   9.926   7.005
 2840POPC   C4A39606   9.532   9.863   7.222
 2840POPC   C1B39607   9.839   9.338   6.266
 2840POPC   C2B39608   9.845   9.578   6.618
 2840POPC   C3B39609   9.879   9.429   7.017
 2840POPC   C4B39610   9.880   9.373   7.408
 2841POPC   NC339611  33.293  18.381   5.551
 2841POPC   PO439612  32.696  18.078   5.452
 2841POPC   GL139613  32.860  18.198   5.817
 2841POPC   GL239614  32.858  18.575   5.774
 2841POPC   C1A39615  33.138  18.047   6.151
 2841POPC   D2A39616  33.344  18.265   6.519
 2841POPC   C3A39617  33.168  18.277   6.922
 2841POPC   C4A39618  33.145  17.954   7.227
 2841POPC   C1B39619  33.027  18.547   6.206
 2841POPC   C2B39620  32.809  18.274   6.527
 2841POPC   C3B39621  32.658  18.186   6.960
 2841POPC   C4B39622  32.852  18.360   7.323
 2842POPC   NC339623  13.565  22.605   5.482
 2842POPC   PO439624  13.365  23.190   5.055
 2842POPC   GL139625  13.402  23.103   5.560
 2842POPC   GL239626  13.333  22.833   5.873
 2842POPC   C1A39627  13.706  23.135   5.954
 2842POPC   D2A39628  13.541  23.069   6.372
 2842POPC   C3A39629  13.580  23.282   6.784
 2842POPC   C4A39630  13.344  23.413   7.177
 2842POPC   C1B39631  13.651  22.615   6.144
 2842POPC   C2B39632  13.555  22.572   6.572
 2842POPC   C3B39633  13.428  22.726   6.970
 2842POPC   C4B39634  13.666  22.994   7.194
 2843POPC   NC339635  29.975  37.576   5.416
 2843POPC   PO439636  29.560  37.138   5.493
 2843POPC   GL139637  29.678  37.489   5.816
 2843POPC   GL239638  29.464  37.520   6.073
 2843POPC   C1A39639  29.890  37.706   6.228
 2843POPC   D2A39640  29.658  37.616   6.626
 2843POPC   C3A39641  29.584  37.874   6.979
 2843POPC   C4A39642  29.783  38.135   7.262
 2843POPC   C1B39643  29.670  37.207   6.323
 2843POPC   C2B39644  29.872  37.176   6.758
 2843POPC   C3B39645  29.947  37.517   7.052
 2843POPC   C4B39646  29.730  37.642   7.419
 2844POPC   NC339647   1.114  36.682   4.975
 2844POPC   PO439648   1.408  37.112   5.375
 2844POPC   GL139649   1.215  36.826   5.672
 2844POPC   GL239650   1.524  36.880   5.833
 2844POPC   C1A39651   1.148  36.620   6.108
 2844POPC   D2A39652   0.922  36.650   6.520
 2844POPC   C3A39653   1.084  36.706   6.946
 2844POPC   C4A39654   0.984  36.487   7.334
 2844POPC   C1B39655   1.654  36.726   6.198
 2844POPC   C2B39656   1.411  36.817   6.526
 2844POPC   C3B39657   1.606  36.754   6.889
 2844POPC   C4B39658   1.535  36.909   7.247
 2845POPC   NC339659  28.063  19.172   5.487
 2845POPC   PO439660  27.424  18.782   5.451
 2845POPC   GL139661  27.511  18.720   5.861
 2845POPC   GL239662  27.834  18.787   5.787
 2845POPC   C1A39663  27.432  18.912   6.257
 2845POPC   D2A39664  27.446  19.077   6.657
 2845POPC   C3A39665  27.639  18.846   6.984
 2845POPC   C4A39666  27.532  18.887   7.400
 2845POPC   C1B39667  27.879  19.094   6.111
 2845POPC   C2B39668  27.947  19.024   6.545
 2845POPC   C3B39669  27.888  19.272   6.904
 2845POPC   C4B39670  28.005  19.113   7.295
 2846POPC   NC339671  38.285  30.252   5.319
 2846POPC   PO439672  38.466  29.684   5.128
 2846POPC   GL139673  38.312  29.781   5.576
 2846POPC   GL239674  38.572  29.683   5.790
 2846POPC   C1A39675  38.237  29.905   6.061
 2846POPC   D2A39676  38.564  30.042   6.388
 2846POPC   C3A39677  38.444  29.973   6.825
 2846POPC   C4A39678  38.495  29.928   7.254
 2846POPC   C1B39679  38.740  29.597   6.193
 2846POPC   C2B39680  38.551  29.508   6.598
 2846POPC   C3B39681  38.621  29.502   7.022
 2846POPC   C4B39682  38.927  29.640   7.308
 2847POPC   NC339683  17.951  11.523   5.021
 2847POPC   PO439684  17.421  11.228   5.338
 2847POPC   GL139685  17.268  11.224   5.764
 2847POPC   GL239686  16.912  11.169   5.762
 2847POPC   C1A39687  17.469  11.202   6.198
 2847POPC   D2A39688  17.773  11.336   6.531
 2847POPC   C3A39689  17.654  11.198   6.940
 2847POPC   C4A39690  17.596  11.176   7.384
 2847POPC   C1B39691  17.004  11.390   6.192
 2847POPC   C2B39692  17.173  11.471   6.637
 2847POPC   C3B39693  17.166  11.300   7.066
 2847POPC   C4B39694  17.166  11.443   7.514
 2848POPC   NC339695  13.181  37.906   5.411
 2848POPC   PO439696  12.879  37.313   5.392
 2848POPC   GL139697  12.768  37.663   5.741
 2848POPC   GL239698  12.485  37.540   5.914
 2848POPC   C1A39699  12.735  37.905   6.194
 2848POPC   D2A39700  12.940  37.981   6.644
 2848POPC   C3A39701  12.978  37.688   7.013
 2848POPC   C4A39702  13.253  37.736   7.364
 2848POPC   C1B39703  12.433  37.373   6.332
 2848POPC   C2B39704  12.306  37.527   6.748
 2848POPC   C3B39705  12.481  37.502   7.164
 2848POPC   C4B39706  12.430  37.559   7.588
 2849POPC   NC339707  21.333  20.119   5.467
 2849POPC   PO439708  21.104  19.482   5.356
 2849POPC   GL139709  21.366  19.628   5.745
 2849POPC   GL239710  21.219  19.898   5.911
 2849POPC   C1A39711  21.633  19.746   6.137
 2849POPC   D2A39712  21.737  19.905   6.553
 2849POPC   C3A39713  21.570  19.711   6.927
 2849POPC   C4A39714  21.655  19.712   7.354
 2849POPC   C1B39715  20.933  19.944   6.242
 2849POPC   C2B39716  20.799  20.103   6.622
 2849POPC   C3B39717  20.868  19.909   7.012
 2849POPC   C4B39718  21.227  19.926   7.242
 2850POPC   NC339719  44.520  14.129   5.347
 2850POPC   PO439720   0.086  14.395   5.447
 2850POPC   GL139721  44.872  14.554   5.797
 2850POPC   GL239722  44.516  14.459   5.767
 2850POPC   C1A39723  44.771  14.373   6.206
 2850POPC   D2A39724  44.929  14.129   6.522
 2850POPC   C3A39725  44.886  14.366   6.886
 2850POPC   C4A39726  44.737  14.420   7.292
 2850POPC   C1B39727  44.265  14.445   6.126
 2850POPC   C2B39728  44.354  14.546   6.535
 2850POPC   C3B39729  44.333  14.455   6.947
 2850POPC   C4B39730  44.277  14.102   7.155
 2851POPC   NC339731  15.986  31.229   5.063
 2851POPC   PO439732  16.241  31.754   5.328
 2851POPC   GL139733  16.068  31.428   5.648
 2851POPC   GL239734  15.908  31.690   5.850
 2851POPC   C1A39735  16.115  31.309   6.107
 2851POPC   D2A39736  16.165  31.138   6.565
 2851POPC   C3A39737  16.005  31.295   6.942
 2851POPC   C4A39738  16.065  31.388   7.337
 2851POPC   C1B39739  15.677  31.611   6.244
 2851POPC   C2B39740  15.643  31.521   6.683
 2851POPC   C3B39741  15.695  31.695   7.126
 2851POPC   C4B39742  15.387  31.861   7.435
 2852POPC   NC339743  11.609  28.803   5.449
 2852POPC   PO439744  10.917  28.822   5.394
 2852POPC   GL139745  11.193  28.570   5.728
 2852POPC   GL239746  11.498  28.652   5.937
 2852POPC   C1A39747  11.157  28.277   6.095
 2852POPC   D2A39748  11.008  28.210   6.514
 2852POPC   C3A39749  11.279  28.273   6.846
 2852POPC   C4A39750  11.178  28.349   7.287
 2852POPC   C1B39751  11.339  28.650   6.374
 2852POPC   C2B39752  11.543  28.698   6.747
 2852POPC   C3B39753  11.524  28.690   7.164
 2852POPC   C4B39754  11.807  28.799   7.493
 2853POPC   NC339755  15.274  17.623   5.509
 2853POPC   PO439756  15.076  16.961   5.450
 2853POPC   GL139757  15.114  17.211   5.827
 2853POPC   GL239758  15.449  17.357   5.917
 2853POPC   C1A39759  15.171  17.111   6.267
 2853POPC   D2A39760  15.400  17.359   6.545
 2853POPC   C3A39761  15.139  17.536   6.869
 2853POPC   C4A39762  15.309  17.402   7.240
 2853POPC   C1B39763  15.454  17.742   6.170
 2853POPC   C2B39764  15.408  17.872   6.571
 2853POPC   C3B39765  15.605  17.869   6.934
 2853POPC   C4B39766  15.450  17.904   7.311
 2854POPC   NC339767  39.501  13.333   5.406
 2854POPC   PO439768  39.976  13.836   5.341
 2854POPC   GL139769  39.919  13.626   5.734
 2854POPC   GL239770  40.233  13.452   5.812
 2854POPC   C1A39771  39.861  13.648   6.189
 2854POPC   D2A39772  40.131  13.581   6.531
 2854POPC   C3A39773  39.990  13.613   6.927
 2854POPC   C4A39774  39.635  13.662   7.186
 2854POPC   C1B39775  40.426  13.327   6.206
 2854POPC   C2B39776  40.570  13.309   6.657
 2854POPC   C3B39777  40.281  13.188   7.015
 2854POPC   C4B39778  40.027  13.373   7.374
 2855POPC   NC339779  38.402   1.385   5.571
 2855POPC   PO439780  38.532   0.718   5.338
 2855POPC   GL139781  38.650   0.960   5.720
 2855POPC   GL239782  38.339   0.966   5.869
 2855POPC   C1A39783  38.669   1.211   6.149
 2855POPC   D2A39784  38.875   1.079   6.522
 2855POPC   C3A39785  38.800   1.328   6.879
 2855POPC   C4A39786  38.436   1.267   7.137
 2855POPC   C1B39787  38.159   0.939   6.258
 2855POPC   C2B39788  38.053   1.075   6.653
 2855POPC   C3B39789  38.071   0.928   7.048
 2855POPC   C4B39790  38.143   0.735   7.405
 2856POPC   NC339791  18.758  25.956   5.655
 2856POPC   PO439792  19.421  26.254   5.497
 2856POPC   GL139793  19.171  26.271   5.827
 2856POPC   GL239794  19.250  25.935   5.857
 2856POPC   C1A39795  19.118  26.232   6.266
 2856POPC   D2A39796  18.990  26.307   6.685
 2856POPC   C3A39797  18.842  26.170   7.112
 2856POPC   C4A39798  18.965  26.336   7.523
 2856POPC   C1B39799  19.476  25.586   6.070
 2856POPC   C2B39800  19.643  25.557   6.538
 2856POPC   C3B39801  19.491  25.619   7.003
 2856POPC   C4B39802  19.139  25.770   7.329
 2857POPC   NC339803  18.554  29.126   5.344
 2857POPC   PO439804  17.908  29.054   5.177
 2857POPC   GL139805  18.092  29.289   5.637
 2857POPC   GL239806  18.430  29.194   5.835
 2857POPC   C1A39807  18.055  29.333   6.130
 2857POPC   D2A39808  18.320  29.496   6.495
 2857POPC   C3A39809  18.323  29.323   6.926
 2857POPC   C4A39810  17.989  29.057   7.136
 2857POPC   C1B39811  18.422  28.925   6.197
 2857POPC   C2B39812  18.308  28.949   6.588
 2857POPC   C3B39813  18.413  28.809   6.968
 2857POPC   C4B39814  18.645  28.838   7.315
 2858POPC   NC339815  16.133   6.555   5.275
 2858POPC   PO439816  15.513   6.281   5.471
 2858POPC   GL139817  15.865   6.549   5.747
 2858POPC   GL239818  16.102   6.842   5.682
 2858POPC   C1A39819  15.786   6.839   6.131
 2858POPC   D2A39820  15.550   6.818   6.544
 2858POPC   C3A39821  15.709   6.727   6.978
 2858POPC   C4A39822  15.717   6.572   7.417
 2858POPC   C1B39823  16.280   6.740   6.051
 2858POPC   C2B39824  16.139   6.778   6.479
 2858POPC   C3B39825  16.209   6.835   6.908
 2858POPC   C4B39826  16.218   6.495   7.199
 2859POPC   NC339827  43.938   3.727   5.232
 2859POPC   PO439828  43.556   3.336   5.511
 2859POPC   GL139829  43.741   3.451   5.847
 2859POPC   GL239830  44.071   3.436   5.673
 2859POPC   C1A39831  43.473   3.549   6.214
 2859POPC   D2A39832  43.585   3.526   6.589
 2859POPC   C3A39833  43.491   3.559   6.994
 2859POPC   C4A39834  43.705   3.532   7.362
 2859POPC   C1B39835  44.182   3.509   6.108
 2859POPC   C2B39836  44.075   3.387   6.518
 2859POPC   C3B39837  43.980   3.392   6.938
 2859POPC   C4B39838  44.184   3.272   7.308
 2860POPC   NC339839   5.588   9.704   5.207
 2860POPC   PO439840   6.189   9.936   5.481
 2860POPC   GL139841   5.920   9.883   5.861
 2860POPC   GL239842   5.771   9.647   5.675
 2860POPC   C1A39843   5.750   9.885   6.307
 2860POPC   D2A39844   5.865   9.737   6.742
 2860POPC   C3A39845   5.891   9.989   7.119
 2860POPC   C4A39846   5.525   9.957   7.342
 2860POPC   C1B39847   5.616   9.458   6.041
 2860POPC   C2B39848   5.492   9.349   6.465
 2860POPC   C3B39849   5.426   9.427   6.883
 2860POPC   C4B39850   5.733   9.462   7.196
 2861POPC   NC339851  35.055   1.200   5.391
 2861POPC   PO439852  35.682   1.422   5.521
 2861POPC   GL139853  35.417   1.087   5.788
 2861POPC   GL239854  35.022   1.057   5.866
 2861POPC   C1A39855  35.331   1.178   6.233
 2861POPC   D2A39856  35.521   1.163   6.632
 2861POPC   C3A39857  35.407   1.488   6.924
 2861POPC   C4A39858  35.447   1.274   7.275
 2861POPC   C1B39859  34.949   0.812   6.244
 2861POPC   C2B39860  35.072   0.855   6.669
 2861POPC   C3B39861  35.019   1.094   7.035
 2861POPC   C4B39862  34.830   0.935   7.410
 2862POPC   NC339863  15.673   5.777   5.456
 2862POPC   PO439864  16.302   6.069   5.271
 2862POPC   GL139865  16.089   5.971   5.709
 2862POPC   GL239866  15.742   6.066   5.874
 2862POPC   C1A39867  16.036   5.758   6.121
 2862POPC   D2A39868  15.868   5.865   6.531
 2862POPC   C3A39869  16.074   5.671   6.888
 2862POPC   C4A39870  15.899   5.682   7.297
 2862POPC   C1B39871  15.953   6.307   6.216
 2862POPC   C2B39872  15.939   6.363   6.676
 2862POPC   C3B39873  15.871   6.155   7.073
 2862POPC   C4B39874  15.983   6.168   7.545
 2863POPC   NC339875   6.899  42.237   5.380
 2863POPC   PO439876   6.301  42.221   5.497
 2863POPC   GL139877   6.635  42.195   5.820
 2863POPC   GL239878   6.918  42.454   5.850
 2863POPC   C1A39879   6.868  42.059   6.166
 2863POPC   D2A39880   6.705  42.097   6.606
 2863POPC   C3A39881   6.933  42.096   7.024
 2863POPC   C4A39882   6.733  42.089   7.464
 2863POPC   C1B39883   6.826  42.547   6.310
 2863POPC   C2B39884   6.866  42.569   6.777
 2863POPC   C3B39885   6.702  42.515   7.194
 2863POPC   C4B39886   6.629  42.564   7.639
 2864POPC   NC339887  29.775  20.350   5.491
 2864POPC   PO439888  30.198  20.787   5.259
 2864POPC   GL139889  30.114  20.668   5.720
 2864POPC   GL239890  29.786  20.820   5.800
 2864POPC   C1A39891  29.949  20.493   6.162
 2864POPC   D2A39892  29.691  20.405   6.573
 2864POPC   C3A39893  29.970  20.351   6.961
 2864POPC   C4A39894  30.166  20.620   7.290
 2864POPC   C1B39895  29.615  20.894   6.245
 2864POPC   C2B39896  29.667  21.043   6.693
 2864POPC   C3B39897  29.727  20.865   7.115
 2864POPC   C4B39898  29.717  20.733   7.538
 2865POPC   NC339899   4.540  10.891   5.165
 2865POPC   PO439900   4.358  11.588   5.155
 2865POPC   GL139901   4.223  11.499   5.690
 2865POPC   GL239902   4.104  11.209   5.849
 2865POPC   C1A39903   4.465  11.421   6.122
 2865POPC   D2A39904   4.377  11.487   6.538
 2865POPC   C3A39905   4.497  11.222   6.884
 2865POPC   C4A39906   4.531  11.423   7.299
 2865POPC   C1B39907   4.134  11.054   6.306
 2865POPC   C2B39908   4.000  11.155   6.752
 2865POPC   C3B39909   4.102  11.179   7.219
 2865POPC   C4B39910   4.259  11.021   7.674
 2866POPC   NC339911  25.857  37.909   5.420
 2866POPC   PO439912  26.101  37.349   5.378
 2866POPC   GL139913  25.990  37.591   5.816
 2866POPC   GL239914  26.151  37.889   5.867
 2866POPC   C1A39915  26.030  37.744   6.315
 2866POPC   D2A39916  26.301  37.935   6.636
 2866POPC   C3A39917  26.277  37.636   6.945
 2866POPC   C4A39918  25.912  37.527   7.153
 2866POPC   C1B39919  25.884  38.173   6.078
 2866POPC   C2B39920  25.826  38.225   6.498
 2866POPC   C3B39921  25.823  37.954   6.846
 2866POPC   C4B39922  26.051  38.019   7.221
 2867POPC   NC339923  35.231   9.759   5.094
 2867POPC   PO439924  34.949   9.750   5.696
 2867POPC   GL139925  35.199   9.611   5.986
 2867POPC   GL239926  35.512   9.570   5.733
 2867POPC   C1A39927  35.257   9.751   6.413
 2867POPC   D2A39928  35.148   9.579   6.795
 2867POPC   C3A39929  35.136   9.877   7.073
 2867POPC   C4A39930  35.422  10.126   7.298
 2867POPC   C1B39931  35.659   9.572   6.170
 2867POPC   C2B39932  35.703   9.458   6.637
 2867POPC   C3B39933  35.584   9.603   7.079
 2867POPC   C4B39934  35.659   9.709   7.543
 2868POPC   NC339935  16.456   0.155   5.592
 2868POPC   PO439936  16.688  44.435   5.443
 2868POPC   GL139937  16.779  44.334   5.878
 2868POPC   GL239938  16.938  44.641   5.934
 2868POPC   C1A39939  16.607  44.454   6.320
 2868POPC   D2A39940  16.533  44.857   6.608
 2868POPC   C3A39941  16.561  44.815   7.060
 2868POPC   C4A39942  16.814  44.497   7.210
 2868POPC   C1B39943  16.990  44.784   6.369
 2868POPC   C2B39944  17.049  44.955   6.782
 2868POPC   C3B39945  17.141  44.877   7.201
 2868POPC   C4B39946  16.869  44.872   7.557
 2869POPC   NC339947   8.816  23.724   5.465
 2869POPC   PO439948   8.936  22.957   5.352
 2869POPC   GL139949   8.848  23.073   5.764
 2869POPC   GL239950   9.088  23.300   5.753
 2869POPC   C1A39951   8.748  23.011   6.198
 2869POPC   D2A39952   8.621  23.015   6.628
 2869POPC   C3A39953   8.978  22.958   6.912
 2869POPC   C4A39954   8.996  22.737   7.302
 2869POPC   C1B39955   9.262  23.134   6.149
 2869POPC   C2B39956   9.420  23.051   6.577
 2869POPC   C3B39957   9.363  23.311   6.963
 2869POPC   C4B39958   9.238  23.196   7.368
 2870POPC   NC339959   1.944  40.242   5.571
 2870POPC   PO439960   1.558  39.719   5.400
 2870POPC   GL139961   1.739  39.820   5.821
 2870POPC   GL239962   1.758  40.125   6.039
 2870POPC   C1A39963   1.992  39.694   6.196
 2870POPC   D2A39964   2.137  39.845   6.597
 2870POPC   C3A39965   1.826  39.868   6.940
 2870POPC   C4A39966   1.897  39.934   7.401
 2870POPC   C1B39967   2.139  40.255   6.292
 2870POPC   C2B39968   2.289  40.315   6.738
 2870POPC   C3B39969   2.027  40.345   7.115
 2870POPC   C4B39970   2.030  40.397   7.594
 2871POPC   NC339971  22.512   8.806   5.355
 2871POPC   PO439972  21.819   9.021   5.091
 2871POPC   GL139973  21.891   8.851   5.559
 2871POPC   GL239974  22.215   8.797   5.759
 2871POPC   C1A39975  21.769   8.701   6.004
 2871POPC   D2A39976  21.934   8.761   6.452
 2871POPC   C3A39977  21.789   8.691   6.906
 2871POPC   C4A39978  21.755   8.977   7.284
 2871POPC   C1B39979  22.478   8.528   6.052
 2871POPC   C2B39980  22.390   8.515   6.500
 2871POPC   C3B39981  22.353   8.588   6.954
 2871POPC   C4B39982  22.629   8.448   7.264
 2872POPC   NC339983  19.640  24.855   5.157
 2872POPC   PO439984  20.167  24.547   5.451
 2872POPC   GL139985  20.085  24.423   5.838
 2872POPC   GL239986  19.744  24.273   5.793
 2872POPC   C1A39987  20.119  24.633   6.205
 2872POPC   D2A39988  19.900  24.567   6.568
 2872POPC   C3A39989  20.092  24.579   6.938
 2872POPC   C4A39990  20.049  24.795   7.312
 2872POPC   C1B39991  19.458  24.161   6.149
 2872POPC   C2B39992  19.510  24.223   6.604
 2872POPC   C3B39993  19.524  24.530   6.906
 2872POPC   C4B39994  19.683  24.431   7.286
 2873POPC   NC339995  16.793  15.621   5.636
 2873POPC   PO439996  16.713  15.224   5.058
 2873POPC   GL139997  16.846  15.134   5.589
 2873POPC   GL239998  16.532  15.282   5.888
 2873POPC   C1A39999  16.960  15.085   6.065
 2873POPC   D2A40000  17.082  15.164   6.502
 2873POPC   C3A40001  16.765  15.186   6.817
 2873POPC   C4A40002  16.526  14.972   7.151
 2873POPC   C1B40003  16.588  15.471   6.315
 2873POPC   C2B40004  16.307  15.555   6.705
 2873POPC   C3B40005  16.492  15.484   7.111
 2873POPC   C4B40006  16.959  15.518   7.175
 2874POPC   NC340007  38.779  18.021   5.494
 2874POPC   PO440008  39.418  17.996   5.497
 2874POPC   GL140009  39.127  18.313   5.729
 2874POPC   GL240010  39.008  18.039   5.953
 2874POPC   C1A40011  38.973  18.524   6.135
 2874POPC   D2A40012  39.247  18.547   6.559
 2874POPC   C3A40013  39.048  18.501   6.991
 2874POPC   C4A40014  39.027  18.096   7.188
 2874POPC   C1B40015  39.391  18.232   6.148
 2874POPC   C2B40016  39.604  18.178   6.503
 2874POPC   C3B40017  39.540  18.057   6.897
 2874POPC   C4B40018  39.491  18.326   7.212
 2875POPC   NC340019   7.222  43.694   5.266
 2875POPC   PO440020   7.714  44.069   5.448
 2875POPC   GL140021   7.629  43.812   5.776
 2875POPC   GL240022   7.275  43.750   5.782
 2875POPC   C1A40023   7.656  43.978   6.159
 2875POPC   D2A40024   7.456  44.121   6.527
 2875POPC   C3A40025   7.675  43.932   6.863
 2875POPC   C4A40026   7.622  43.983   7.291
 2875POPC   C1B40027   7.245  43.692   6.229
 2875POPC   C2B40028   7.307  43.639   6.658
 2875POPC   C3B40029   7.205  43.843   7.046
 2875POPC   C4B40030   7.300  43.614   7.433
 2876POPC   NC340031  33.355   6.231   5.262
 2876POPC   PO440032  32.935   6.835   5.246
 2876POPC   GL140033  33.019   6.709   5.678
 2876POPC   GL240034  33.198   6.970   5.878
 2876POPC   C1A40035  32.850   6.617   6.099
 2876POPC   D2A40036  33.018   6.897   6.423
 2876POPC   C3A40037  33.127   6.797   6.836
 2876POPC   C4A40038  33.015   6.844   7.265
 2876POPC   C1B40039  33.353   6.614   6.152
 2876POPC   C2B40040  33.474   6.454   6.576
 2876POPC   C3B40041  33.306   6.360   7.005
 2876POPC   C4B40042  33.379   6.536   7.442
 2877POPC   NC340043  26.813  12.257   5.480
 2877POPC   PO440044  27.396  11.905   5.426
 2877POPC   GL140045  27.075  11.887   5.772
 2877POPC   GL240046  26.701  11.825   5.794
 2877POPC   C1A40047  27.080  11.747   6.198
 2877POPC   D2A40048  26.912  11.792   6.610
 2877POPC   C3A40049  27.063  12.130   6.933
 2877POPC   C4A40050  27.223  12.198   7.370
 2877POPC   C1B40051  26.608  12.027   6.195
 2877POPC   C2B40052  26.596  12.190   6.635
 2877POPC   C3B40053  26.620  11.929   7.027
 2877POPC   C4B40054  26.510  11.932   7.432
 2878POPC   NC340055  36.106  16.142   5.612
 2878POPC   PO440056  36.504  15.730   5.306
 2878POPC   GL140057  36.381  15.635   5.809
 2878POPC   GL240058  36.152  15.917   6.043
 2878POPC   C1A40059  36.173  15.480   6.242
 2878POPC   D2A40060  36.000  15.456   6.655
 2878POPC   C3A40061  36.048  15.816   6.907
 2878POPC   C4A40062  35.828  15.917   7.259
 2878POPC   C1B40063  35.920  16.227   6.305
 2878POPC   C2B40064  35.805  16.544   6.650
 2878POPC   C3B40065  35.556  16.515   7.041
 2878POPC   C4B40066  35.548  16.318   7.462
 2879POPC   NC340067   6.753  35.021   5.366
 2879POPC   PO440068   6.408  35.572   5.288
 2879POPC   GL140069   6.556  35.369   5.696
 2879POPC   GL240070   6.938  35.400   5.719
 2879POPC   C1A40071   6.327  35.414   6.110
 2879POPC   D2A40072   6.441  35.666   6.486
 2879POPC   C3A40073   6.403  35.510   6.913
 2879POPC   C4A40074   6.410  35.146   7.180
 2879POPC   C1B40075   6.803  35.261   6.181
 2879POPC   C2B40076   6.705  35.129   6.633
 2879POPC   C3B40077   6.884  35.316   7.011
 2879POPC   C4B40078   6.897  35.684   7.264
 2880POPC   NC340079  15.990  14.774   5.474
 2880POPC   PO440080  15.829  14.141   5.328
 2880POPC   GL140081  15.812  14.318   5.764
 2880POPC   GL240082  16.076  14.527   5.929
 2880POPC   C1A40083  15.726  14.319   6.234
 2880POPC   D2A40084  16.012  14.288   6.612
 2880POPC   C3A40085  15.785  14.347   7.003
 2880POPC   C4A40086  15.443  14.536   7.209
 2880POPC   C1B40087  16.365  14.558   6.317
 2880POPC   C2B40088  16.357  14.636   6.789
 2880POPC   C3B40089  16.187  14.596   7.231
 2880POPC   C4B40090  15.894  14.754   7.570
 2881POPC   NC340091  10.993  25.215   5.355
 2881POPC   PO440092  11.659  24.937   5.435
 2881POPC   GL140093  11.443  25.195   5.786
 2881POPC   GL240094  11.096  25.334   5.856
 2881POPC   C1A40095  11.382  25.129   6.231
 2881POPC   D2A40096  11.638  25.170   6.598
 2881POPC   C3A40097  11.435  25.194   7.001
 2881POPC   C4A40098  11.447  24.822   7.247
 2881POPC   C1B40099  10.883  25.574   6.209
 2881POPC   C2B40100  10.882  25.556   6.684
 2881POPC   C3B40101  10.950  25.343   7.102
 2881POPC   C4B40102  10.775  25.491   7.508
 2882POPC   NC340103  30.067  42.708   5.037
 2882POPC   PO440104  29.623  43.223   5.101
 2882POPC   GL140105  29.919  43.129   5.623
 2882POPC   GL240106  29.673  43.234   5.900
 2882POPC   C1A40107  30.063  43.010   6.095
 2882POPC   D2A40108  30.039  42.923   6.545
 2882POPC   C3A40109  30.164  43.208   6.888
 2882POPC   C4A40110  29.947  43.280   7.295
 2882POPC   C1B40111  29.536  42.947   6.220
 2882POPC   C2B40112  29.539  43.076   6.652
 2882POPC   C3B40113  29.759  42.904   6.994
 2882POPC   C4B40114  29.595  42.894   7.385
 2883POPC   NC340115  40.712  27.154   5.374
 2883POPC   PO440116  40.334  26.620   5.447
 2883POPC   GL140117  40.576  26.845   5.779
 2883POPC   GL240118  40.472  27.183   5.832
 2883POPC   C1A40119  40.753  26.787   6.202
 2883POPC   D2A40120  40.530  26.684   6.573
 2883POPC   C3A40121  40.756  26.669   6.945
 2883POPC   C4A40122  41.150  26.621   7.116
 2883POPC   C1B40123  40.628  27.284   6.207
 2883POPC   C2B40124  40.706  27.178   6.620
 2883POPC   C3B40125  40.691  27.194   7.047
 2883POPC   C4B40126  40.848  27.152   7.459
 2884POPC   NC340127  33.191  23.908   5.459
 2884POPC   PO440128  32.595  23.690   5.466
 2884POPC   GL140129  32.933  23.538   5.788
 2884POPC   GL240130  33.307  23.454   5.694
 2884POPC   C1A40131  33.041  23.593   6.253
 2884POPC   D2A40132  33.213  23.672   6.693
 2884POPC   C3A40133  32.974  23.566   7.074
 2884POPC   C4A40134  32.745  23.926   7.290
 2884POPC   C1B40135  33.295  23.201   6.052
 2884POPC   C2B40136  33.444  23.278   6.465
 2884POPC   C3B40137  33.627  23.420   6.861
 2884POPC   C4B40138  33.458  23.473   7.277
 2885POPC   NC340139  25.790   7.577   5.470
 2885POPC   PO440140  26.454   7.648   5.562
 2885POPC   GL140141  26.111   7.523   5.872
 2885POPC   GL240142  25.938   7.187   5.830
 2885POPC   C1A40143  25.854   7.581   6.251
 2885POPC   D2A40144  25.970   7.691   6.660
 2885POPC   C3A40145  26.148   7.502   7.031
 2885POPC   C4A40146  26.394   7.749   7.312
 2885POPC   C1B40147  25.936   7.080   6.277
 2885POPC   C2B40148  26.205   7.221   6.606
 2885POPC   C3B40149  26.375   7.016   6.967
 2885POPC   C4B40150  26.412   7.134   7.363
 2886POPC   NC340151  16.230  12.975   5.353
 2886POPC   PO440152  15.594  12.751   5.343
 2886POPC   GL140153  15.552  12.774   5.800
 2886POPC   GL240154  15.776  12.539   5.894
 2886POPC   C1A40155  15.761  12.974   6.192
 2886POPC   D2A40156  15.911  12.813   6.596
 2886POPC   C3A40157  16.098  12.962   6.944
 2886POPC   C4A40158  15.682  13.005   7.123
 2886POPC   C1B40159  15.990  12.429   6.292
 2886POPC   C2B40160  15.973  12.330   6.747
 2886POPC   C3B40161  15.838  12.536   7.121
 2886POPC   C4B40162  15.629  12.607   7.534
 2887POPC   NC340163   6.252  26.706   5.495
 2887POPC   PO440164   5.687  27.072   5.417
 2887POPC   GL140165   5.830  26.862   5.769
 2887POPC   GL240166   6.078  27.061   5.858
 2887POPC   C1A40167   5.755  26.839   6.213
 2887POPC   D2A40168   5.618  26.566   6.540
 2887POPC   C3A40169   5.596  26.803   6.886
 2887POPC   C4A40170   5.807  26.919   7.239
 2887POPC   C1B40171   6.240  27.020   6.266
 2887POPC   C2B40172   6.089  26.877   6.659
 2887POPC   C3B40173   6.256  27.052   7.041
 2887POPC   C4B40174   6.198  27.130   7.504
 2888POPC   NC340175  34.022   8.498   5.368
 2888POPC   PO440176  33.372   8.487   5.439
 2888POPC   GL140177  33.702   8.309   5.737
 2888POPC   GL240178  33.784   7.964   5.707
 2888POPC   C1A40179  33.711   8.224   6.183
 2888POPC   D2A40180  33.476   8.086   6.552
 2888POPC   C3A40181  33.603   8.280   6.956
 2888POPC   C4A40182  33.809   8.668   7.127
 2888POPC   C1B40183  34.052   7.863   6.067
 2888POPC   C2B40184  33.932   7.849   6.514
 2888POPC   C3B40185  33.878   7.812   6.963
 2888POPC   C4B40186  34.059   7.648   7.363
 2889POPC   NC340187  29.015  44.313   5.461
 2889POPC   PO440188  28.974  44.954   5.274
 2889POPC   GL140189  29.037  44.778   5.748
 2889POPC   GL240190  28.993  44.448   5.933
 2889POPC   C1A40191  29.063  44.838   6.233
 2889POPC   D2A40192  29.243  44.697   6.628
 2889POPC   C3A40193  29.104  44.955   6.947
 2889POPC   C4A40194  28.921  44.729   7.292
 2889POPC   C1B40195  29.350  44.404   6.210
 2889POPC   C2B40196  29.579  44.300   6.602
 2889POPC   C3B40197  29.399  44.362   7.030
 2889POPC   C4B40198  29.510  44.336   7.475
 2890POPC   NC340199  21.310  27.112   5.320
 2890POPC   PO440200  21.506  27.749   5.366
 2890POPC   GL140201  21.354  27.506   5.710
 2890POPC   GL240202  21.700  27.412   5.760
 2890POPC   C1A40203  21.183  27.613   6.129
 2890POPC   D2A40204  21.344  27.776   6.535
 2890POPC   C3A40205  21.242  27.566   6.918
 2890POPC   C4A40206  21.130  27.731   7.310
 2890POPC   C1B40207  21.693  27.679   6.129
 2890POPC   C2B40208  21.862  27.646   6.555
 2890POPC   C3B40209  21.720  27.774   6.933
 2890POPC   C4B40210  21.633  27.598   7.330
 2891POPC   NC340211  36.778   0.979   5.223
 2891POPC   PO440212  37.234   1.487   5.217
 2891POPC   GL140213  36.914   1.428   5.601
 2891POPC   GL240214  36.732   1.087   5.705
 2891POPC   C1A40215  36.920   1.361   6.078
 2891POPC   D2A40216  37.239   1.377   6.416
 2891POPC   C3A40217  37.198   1.260   6.865
 2891POPC   C4A40218  36.895   1.289   7.190
 2891POPC   C1B40219  36.844   0.839   6.068
 2891POPC   C2B40220  36.933   0.923   6.500
 2891POPC   C3B40221  36.698   0.903   6.872
 2891POPC   C4B40222  36.612   0.878   7.305
 2892POPC   NC340223  13.099  15.031   5.151
 2892POPC   PO440224  12.765  15.348   5.664
 2892POPC   GL140225  13.029  15.269   5.974
 2892POPC   GL240226  13.237  15.024   5.781
 2892POPC   C1A40227  12.973  15.312   6.411
 2892POPC   D2A40228  12.619  15.369   6.663
 2892POPC   C3A40229  12.757  15.518   7.047
 2892POPC   C4A40230  12.887  15.330   7.420
 2892POPC   C1B40231  13.260  14.926   6.243
 2892POPC   C2B40232  13.142  14.848   6.688
 2892POPC   C3B40233  13.224  15.052   7.113
 2892POPC   C4B40234  13.211  14.871   7.554
 2893POPC   NC340235   6.655  10.100   5.433
 2893POPC   PO440236   6.246  10.555   5.592
 2893POPC   GL140237   6.433  10.310   5.910
 2893POPC   GL240238   6.769  10.414   5.867
 2893POPC   C1A40239   6.640  10.157   6.326
 2893POPC   D2A40240   6.822  10.293   6.728
 2893POPC   C3A40241   6.641  10.300   7.142
 2893POPC   C4A40242   6.360  10.238   7.519
 2893POPC   C1B40243   6.691  10.650   6.284
 2893POPC   C2B40244   6.860  10.807   6.657
 2893POPC   C3B40245   6.975  10.737   7.087
 2893POPC   C4B40246   6.978  10.573   7.522
 2894POPC   NC340247  14.394   6.870   5.423
 2894POPC   PO440248  14.275   6.208   5.404
 2894POPC   GL140249  14.413   6.439   5.721
 2894POPC   GL240250  14.089   6.582   5.802
 2894POPC   C1A40251  14.503   6.633   6.111
 2894POPC   D2A40252  14.419   6.493   6.526
 2894POPC   C3A40253  14.496   6.734   6.920
 2894POPC   C4A40254  14.178   6.904   7.208
 2894POPC   C1B40255  14.087   6.234   6.098
 2894POPC   C2B40256  14.015   6.100   6.517
 2894POPC   C3B40257  14.109   6.305   6.893
 2894POPC   C4B40258  14.301   6.398   7.262
 2895POPC   NC340259  25.480  21.889   5.403
 2895POPC   PO440260  25.600  22.529   5.401
 2895POPC   GL140261  25.235  22.375   5.677
 2895POPC   GL240262  25.157  22.032   5.795
 2895POPC   C1A40263  25.077  22.414   6.131
 2895POPC   D2A40264  25.282  22.321   6.556
 2895POPC   C3A40265  25.087  22.089   6.921
 2895POPC   C4A40266  24.976  22.275   7.353
 2895POPC   C1B40267  25.402  21.847   6.178
 2895POPC   C2B40268  25.402  21.741   6.667
 2895POPC   C3B40269  25.423  21.759   7.169
 2895POPC   C4B40270  25.494  21.524   7.600
 2896POPC   NC340271  26.940  26.009   5.074
 2896POPC   PO440272  26.408  26.067   5.399
 2896POPC   GL140273  26.616  25.896   5.813
 2896POPC   GL240274  26.991  25.833   5.774
 2896POPC   C1A40275  26.549  25.974   6.283
 2896POPC   D2A40276  26.579  26.150   6.713
 2896POPC   C3A40277  26.395  26.023   7.115
 2896POPC   C4A40278  26.567  26.313   7.478
 2896POPC   C1B40279  26.989  25.674   6.210
 2896POPC   C2B40280  26.843  25.710   6.642
 2896POPC   C3B40281  26.946  25.944   7.032
 2896POPC   C4B40282  27.192  25.969   7.454
 2897POPC   NC340283  23.165  18.447   5.195
 2897POPC   PO440284  23.737  18.703   5.423
 2897POPC   GL140285  23.675  18.453   5.818
 2897POPC   GL240286  23.699  18.066   5.850
 2897POPC   C1A40287  23.469  18.366   6.223
 2897POPC   D2A40288  23.643  18.167   6.558
 2897POPC   C3A40289  23.918  18.351   6.844
 2897POPC   C4A40290  23.909  18.221   7.260
 2897POPC   C1B40291  23.439  17.844   6.190
 2897POPC   C2B40292  23.434  17.714   6.631
 2897POPC   C3B40293  23.558  17.931   7.010
 2897POPC   C4B40294  23.460  18.097   7.441
 2898POPC   NC340295  25.038  39.714   5.604
 2898POPC   PO440296  25.370  40.215   5.252
 2898POPC   GL140297  25.434  40.073   5.690
 2898POPC   GL240298  25.552  39.703   5.803
 2898POPC   C1A40299  25.356  40.054   6.145
 2898POPC   D2A40300  25.219  39.900   6.524
 2898POPC   C3A40301  25.339  40.087   6.899
 2898POPC   C4A40302  25.176  40.130   7.269
 2898POPC   C1B40303  25.671  39.637   6.279
 2898POPC   C2B40304  25.612  39.655   6.743
 2898POPC   C3B40305  25.545  39.700   7.211
 2898POPC   C4B40306  25.579  39.991   7.551
 2899POPC   NC340307  19.938   7.896   5.462
 2899POPC   PO440308  19.668   8.454   5.447
 2899POPC   GL140309  19.657   8.148   5.811
 2899POPC   GL240310  19.492   7.815   5.740
 2899POPC   C1A40311  19.737   8.131   6.281
 2899POPC   D2A40312  20.000   8.306   6.623
 2899POPC   C3A40313  19.925   8.070   6.985
 2899POPC   C4A40314  19.686   8.149   7.344
 2899POPC   C1B40315  19.536   7.664   6.191
 2899POPC   C2B40316  19.658   7.706   6.658
 2899POPC   C3B40317  19.604   7.697   7.127
 2899POPC   C4B40318  19.644   7.681   7.582
 2900POPC   NC340319  18.432   4.956   5.374
 2900POPC   PO440320  17.884   5.357   5.402
 2900POPC   GL140321  18.098   5.114   5.732
 2900POPC   GL240322  18.422   5.280   5.791
 2900POPC   C1A40323  18.228   4.950   6.133
 2900POPC   D2A40324  18.337   5.166   6.516
 2900POPC   C3A40325  18.272   5.026   6.922
 2900POPC   C4A40326  18.370   4.815   7.279
 2900POPC   C1B40327  18.645   5.392   6.151
 2900POPC   C2B40328  18.749   5.588   6.519
 2900POPC   C3B40329  18.646   5.389   6.887
 2900POPC   C4B40330  18.409   5.375   7.239
 2901POPC   NC340331  16.629  24.941   5.333
 2901POPC   PO440332  16.980  25.536   5.347
 2901POPC   GL140333  16.924  25.244   5.680
 2901POPC   GL240334  16.663  25.357   5.946
 2901POPC   C1A40335  17.115  25.239   6.081
 2901POPC   D2A40336  16.882  25.412   6.449
 2901POPC   C3A40337  16.945  25.245   6.871
 2901POPC   C4A40338  16.691  25.189   7.253
 2901POPC   C1B40339  16.388  25.293   6.283
 2901POPC   C2B40340  16.335  25.453   6.685
 2901POPC   C3B40341  16.413  25.583   7.098
 2901POPC   C4B40342  16.361  25.434   7.564
 2902POPC   NC340343  30.930   2.740   5.436
 2902POPC   PO440344  30.358   2.604   5.714
 2902POPC   GL140345  30.740   2.715   5.922
 2902POPC   GL240346  30.960   3.029   5.858
 2902POPC   C1A40347  30.767   2.568   6.336
 2902POPC   D2A40348  30.768   2.348   6.705
 2902POPC   C3A40349  30.572   2.508   7.092
 2902POPC   C4A40350  30.641   2.310   7.486
 2902POPC   C1B40351  30.793   3.072   6.297
 2902POPC   C2B40352  30.763   2.878   6.741
 2902POPC   C3B40353  30.899   2.900   7.170
 2902POPC   C4B40354  30.614   2.837   7.539
 2903POPC   NC340355  35.953  34.555   5.351
 2903POPC   PO440356  36.620  34.697   5.594
 2903POPC   GL140357  36.266  34.495   5.810
 2903POPC   GL240358  35.880  34.525   5.846
 2903POPC   C1A40359  36.363  34.581   6.231
 2903POPC   D2A40360  36.431  34.818   6.583
 2903POPC   C3A40361  36.311  34.589   6.918
 2903POPC   C4A40362  36.244  34.618   7.327
 2903POPC   C1B40363  35.854  34.489   6.293
 2903POPC   C2B40364  35.851  34.654   6.722
 2903POPC   C3B40365  35.777  34.722   7.172
 2903POPC   C4B40366  35.744  34.435   7.521
 2904POPC   NC340367  39.348  28.133   5.505
 2904POPC   PO440368  39.137  28.757   5.453
 2904POPC   GL140369  39.341  28.560   5.832
 2904POPC   GL240370  39.676  28.402   5.806
 2904POPC   C1A40371  39.290  28.254   6.160
 2904POPC   D2A40372  39.068  28.202   6.514
 2904POPC   C3A40373  39.243  28.044   6.870
 2904POPC   C4A40374  39.157  28.102   7.290
 2904POPC   C1B40375  39.699  28.540   6.260
 2904POPC   C2B40376  39.458  28.537   6.658
 2904POPC   C3B40377  39.522  28.433   7.096
 2904POPC   C4B40378  39.635  28.186   7.461
 2905POPC   NC340379   8.171  19.845   5.436
 2905POPC   PO440380   8.679  19.402   5.418
 2905POPC   GL140381   8.553  19.717   5.768
 2905POPC   GL240382   8.585  20.077   5.751
 2905POPC   C1A40383   8.240  19.871   6.096
 2905POPC   D2A40384   7.985  19.859   6.470
 2905POPC   C3A40385   8.128  19.876   6.908
 2905POPC   C4A40386   7.778  19.968   7.157
 2905POPC   C1B40387   8.695  20.043   6.222
 2905POPC   C2B40388   8.614  19.904   6.675
 2905POPC   C3B40389   8.627  19.826   7.152
 2905POPC   C4B40390   8.628  19.804   7.641
 2906POPC   NC340391   7.171  26.091   5.645
 2906POPC   PO440392   6.630  25.744   5.291
 2906POPC   GL140393   6.464  25.858   5.749
 2906POPC   GL240394   6.414  26.242   5.764
 2906POPC   C1A40395   6.628  25.775   6.210
 2906POPC   D2A40396   6.882  25.713   6.622
 2906POPC   C3A40397   6.630  25.729   7.010
 2906POPC   C4A40398   6.503  25.835   7.461
 2906POPC   C1B40399   6.617  26.283   6.185
 2906POPC   C2B40400   6.557  26.116   6.596
 2906POPC   C3B40401   6.411  26.178   6.997
 2906POPC   C4B40402   6.650  26.297   7.332
 2907POPC   NC340403  12.050  10.282   5.307
 2907POPC   PO440404  12.048   9.622   5.005
 2907POPC   GL140405  12.035   9.781   5.473
 2907POPC   GL240406  12.333   9.987   5.637
 2907POPC   C1A40407  11.955   9.808   5.936
 2907POPC   D2A40408  11.860   9.833   6.375
 2907POPC   C3A40409  11.971   9.560   6.729
 2907POPC   C4A40410  11.939   9.744   7.140
 2907POPC   C1B40411  12.433   9.992   6.121
 2907POPC   C2B40412  12.293  10.092   6.578
 2907POPC   C3B40413  12.364  10.000   7.039
 2907POPC   C4B40414  12.164  10.066   7.477
 2908POPC   NC340415  25.639  10.809   5.581
 2908POPC   PO440416  25.455  11.431   5.270
 2908POPC   GL140417  25.437  11.363   5.745
 2908POPC   GL240418  25.138  11.496   5.921
 2908POPC   C1A40419  25.451  11.122   6.166
 2908POPC   D2A40420  25.385  10.843   6.557
 2908POPC   C3A40421  25.361  11.030   6.989
 2908POPC   C4A40422  25.010  11.170   7.212
 2908POPC   C1B40423  25.259  11.635   6.340
 2908POPC   C2B40424  25.164  11.459   6.751
 2908POPC   C3B40425  25.060  11.667   7.124
 2908POPC   C4B40426  24.891  11.593   7.511
 2909POPC   NC340427  20.696   9.194   5.394
 2909POPC   PO440428  20.786   8.522   5.223
 2909POPC   GL140429  20.774   8.757   5.644
 2909POPC   GL240430  20.466   8.877   5.737
 2909POPC   C1A40431  20.814   8.839   6.114
 2909POPC   D2A40432  20.777   9.105   6.498
 2909POPC   C3A40433  20.639   8.841   6.853
 2909POPC   C4A40434  20.664   8.656   7.267
 2909POPC   C1B40435  20.422   9.165   6.061
 2909POPC   C2B40436  20.304   9.252   6.471
 2909POPC   C3B40437  20.307   9.297   6.915
 2909POPC   C4B40438  20.574   9.160   7.261
 2910POPC   NC340439  13.101  44.404   5.337
 2910POPC   PO440440  12.790  43.837   5.223
 2910POPC   GL140441  12.931  43.997   5.636
 2910POPC   GL240442  13.142  43.700   5.668
 2910POPC   C1A40443  12.930  44.145   6.093
 2910POPC   D2A40444  12.692  44.252   6.504
 2910POPC   C3A40445  12.870  44.209   6.924
 2910POPC   C4A40446  12.669  43.956   7.254
 2910POPC   C1B40447  12.937  43.621   6.066
 2910POPC   C2B40448  12.987  43.815   6.491
 2910POPC   C3B40449  12.931  43.663   6.910
 2910POPC   C4B40450  13.022  43.503   7.310
 2911POPC   NC340451  22.979  20.981   5.405
 2911POPC   PO440452  22.641  20.318   5.360
 2911POPC   GL140453  22.874  20.305   5.803
 2911POPC   GL240454  23.077  20.633   5.820
 2911POPC   C1A40455  22.876  20.353   6.295
 2911POPC   D2A40456  22.956  20.500   6.707
 2911POPC   C3A40457  22.837  20.472   7.127
 2911POPC   C4A40458  22.719  20.821   7.374
 2911POPC   C1B40459  23.361  20.832   6.137
 2911POPC   C2B40460  23.464  20.652   6.538
 2911POPC   C3B40461  23.354  20.783   6.920
 2911POPC   C4B40462  23.264  20.952   7.292
 2912POPC   NC340463  40.492  40.075   5.462
 2912POPC   PO440464  41.043  39.756   5.583
 2912POPC   GL140465  40.806  39.973   5.844
 2912POPC   GL240466  40.558  39.764   5.847
 2912POPC   C1A40467  40.781  40.130   6.235
 2912POPC   D2A40468  41.071  40.075   6.565
 2912POPC   C3A40469  40.878  39.996   6.938
 2912POPC   C4A40470  40.616  40.221   7.177
 2912POPC   C1B40471  40.389  39.772   6.230
 2912POPC   C2B40472  40.442  39.999   6.609
 2912POPC   C3B40473  40.343  39.830   6.997
 2912POPC   C4B40474  40.378  39.814   7.439
 2913POPC   NC340475  35.520  26.439   5.503
 2913POPC   PO440476  35.376  27.089   5.300
 2913POPC   GL140477  35.408  27.045   5.745
 2913POPC   GL240478  35.202  27.273   5.924
 2913POPC   C1A40479  35.452  26.830   6.160
 2913POPC   D2A40480  35.174  26.664   6.512
 2913POPC   C3A40481  35.150  26.784   6.958
 2913POPC   C4A40482  35.362  26.607   7.333
 2913POPC   C1B40483  35.256  27.226   6.398
 2913POPC   C2B40484  35.539  26.988   6.690
 2913POPC   C3B40485  35.582  27.011   7.140
 2913POPC   C4B40486  35.568  27.033   7.582
 2914POPC   NC340487   5.532  44.025   5.219
 2914POPC   PO440488   5.001  44.137   5.320
 2914POPC   GL140489   5.227  44.015   5.744
 2914POPC   GL240490   5.176  43.682   5.920
 2914POPC   C1A40491   5.170  44.071   6.237
 2914POPC   D2A40492   5.088  43.905   6.688
 2914POPC   C3A40493   5.382  43.879   7.055
 2914POPC   C4A40494   5.521  44.187   7.327
 2914POPC   C1B40495   5.356  43.584   6.351
 2914POPC   C2B40496   5.292  43.449   6.800
 2914POPC   C3B40497   4.980  43.587   7.138
 2914POPC   C4B40498   4.720  43.806   7.442
 2915POPC   NC340499  20.382  17.807   5.755
 2915POPC   PO440500  20.839  17.412   5.538
 2915POPC   GL140501  20.572  17.264   5.850
 2915POPC   GL240502  20.420  17.467   6.134
 2915POPC   C1A40503  20.698  17.031   6.227
 2915POPC   D2A40504  20.695  16.968   6.688
 2915POPC   C3A40505  20.711  17.348   6.913
 2915POPC   C4A40506  20.777  17.646   7.231
 2915POPC   C1B40507  20.789  17.538   6.422
 2915POPC   C2B40508  20.790  17.862   6.753
 2915POPC   C3B40509  20.456  18.022   7.042
 2915POPC   C4B40510  20.323  17.807   7.426
 2916POPC   NC340511  20.965  13.806   5.431
 2916POPC   PO440512  20.346  13.596   5.353
 2916POPC   GL140513  20.579  13.635   5.728
 2916POPC   GL240514  20.758  13.361   5.612
 2916POPC   C1A40515  20.577  13.843   6.144
 2916POPC   D2A40516  20.331  13.753   6.527
 2916POPC   C3A40517  20.611  13.696   6.853
 2916POPC   C4A40518  20.746  13.703   7.268
 2916POPC   C1B40519  20.847  13.315   6.048
 2916POPC   C2B40520  20.909  13.235   6.513
 2916POPC   C3B40521  20.822  13.224   6.970
 2916POPC   C4B40522  20.450  13.226   7.222
 2917POPC   NC340523  42.023   0.882   5.476
 2917POPC   PO440524  41.308   1.042   5.418
 2917POPC   GL140525  41.333   1.285   5.778
 2917POPC   GL240526  41.675   1.295   5.844
 2917POPC   C1A40527  41.293   1.112   6.150
 2917POPC   D2A40528  41.401   0.911   6.485
 2917POPC   C3A40529  41.271   1.054   6.854
 2917POPC   C4A40530  41.541   1.098   7.138
 2917POPC   C1B40531  41.795   1.178   6.250
 2917POPC   C2B40532  41.762   1.290   6.683
 2917POPC   C3B40533  42.015   1.243   7.032
 2917POPC   C4B40534  41.961   0.845   7.220
 2918POPC   NC340535  15.413   8.116   5.439
 2918POPC   PO440536  14.894   8.623   5.465
 2918POPC   GL140537  15.172   8.409   5.794
 2918POPC   GL240538  15.559   8.484   5.797
 2918POPC   C1A40539  15.294   8.465   6.234
 2918POPC   D2A40540  15.498   8.256   6.596
 2918POPC   C3A40541  15.232   8.297   6.944
 2918POPC   C4A40542  15.129   8.401   7.337
 2918POPC   C1B40543  15.664   8.112   6.113
 2918POPC   C2B40544  15.657   7.781   6.500
 2918POPC   C3B40545  15.411   7.763   6.940
 2918POPC   C4B40546  15.336   7.895   7.417
 2919POPC   NC340547  27.957  35.529   5.125
 2919POPC   PO440548  27.352  35.453   5.237
 2919POPC   GL140549  27.313  35.493   5.737
 2919POPC   GL240550  27.343  35.163   5.831
 2919POPC   C1A40551  27.429  35.674   6.204
 2919POPC   D2A40552  27.561  35.847   6.629
 2919POPC   C3A40553  27.446  35.784   7.049
 2919POPC   C4A40554  27.676  35.683   7.383
 2919POPC   C1B40555  27.182  35.247   6.253
 2919POPC   C2B40556  27.405  35.356   6.644
 2919POPC   C3B40557  27.594  35.293   7.041
 2919POPC   C4B40558  27.312  35.239   7.345
 2920POPC   NC340559  37.117  32.048   5.525
 2920POPC   PO440560  37.708  32.299   5.304
 2920POPC   GL140561  37.608  32.112   5.734
 2920POPC   GL240562  37.346  32.251   5.928
 2920POPC   C1A40563  37.683  31.985   6.193
 2920POPC   D2A40564  37.942  32.117   6.550
 2920POPC   C3A40565  37.883  31.902   6.937
 2920POPC   C4A40566  37.918  32.056   7.331
 2920POPC   C1B40567  37.685  32.490   6.161
 2920POPC   C2B40568  37.722  32.633   6.595
 2920POPC   C3B40569  37.668  32.374   6.976
 2920POPC   C4B40570  37.438  32.287   7.372
 2921POPC   NC340571  15.197  38.915   5.655
 2921POPC   PO440572  14.846  38.351   5.513
 2921POPC   GL140573  15.250  38.331   5.804
 2921POPC   GL240574  15.473  38.599   5.947
 2921POPC   C1A40575  15.399  38.167   6.228
 2921POPC   D2A40576  15.227  37.959   6.637
 2921POPC   C3A40577  15.257  38.079   7.078
 2921POPC   C4A40578  15.066  38.441   7.298
 2921POPC   C1B40579  15.142  38.612   6.293
 2921POPC   C2B40580  15.170  38.469   6.734
 2921POPC   C3B40581  15.485  38.566   7.060
 2921POPC   C4B40582  15.416  38.742   7.515
 2922POPC   NC340583  36.510  20.574   5.458
 2922POPC   PO440584  37.139  20.626   5.098
 2922POPC   GL140585  37.001  20.620   5.610
 2922POPC   GL240586  36.992  20.327   5.789
 2922POPC   C1A40587  37.011  20.692   6.141
 2922POPC   D2A40588  37.186  20.525   6.587
 2922POPC   C3A40589  36.905  20.490   6.954
 2922POPC   C4A40590  36.594  20.723   7.213
 2922POPC   C1B40591  36.623  20.331   6.096
 2922POPC   C2B40592  36.338  20.377   6.463
 2922POPC   C3B40593  36.382  20.341   6.908
 2922POPC   C4B40594  36.629  20.128   7.195
 2923POPC   NC340595  11.196  22.047   5.493
 2923POPC   PO440596  11.691  22.405   5.531
 2923POPC   GL140597  11.350  22.337   5.878
 2923POPC   GL240598  10.965  22.401   5.783
 2923POPC   C1A40599  11.143  22.067   6.174
 2923POPC   D2A40600  11.334  21.849   6.512
 2923POPC   C3A40601  11.373  22.023   6.923
 2923POPC   C4A40602  11.500  22.136   7.346
 2923POPC   C1B40603  10.959  22.561   6.199
 2923POPC   C2B40604  11.143  22.403   6.592
 2923POPC   C3B40605  11.329  22.516   6.978
 2923POPC   C4B40606  11.069  22.376   7.317
 2924POPC   NC340607  24.446  23.938   5.015
 2924POPC   PO440608  24.552  23.505   5.551
 2924POPC   GL140609  24.184  23.624   5.820
 2924POPC   GL240610  24.046  23.308   5.843
 2924POPC   C1A40611  24.119  23.805   6.242
 2924POPC   D2A40612  24.451  23.984   6.507
 2924POPC   C3A40613  24.562  23.761   6.874
 2924POPC   C4A40614  24.667  23.624   7.264
 2924POPC   C1B40615  24.157  23.292   6.243
 2924POPC   C2B40616  24.351  23.317   6.638
 2924POPC   C3B40617  24.192  23.415   7.050
 2924POPC   C4B40618  24.202  23.780   7.332
 2925POPC   NC340619  32.286  34.681   5.368
 2925POPC   PO440620  32.737  34.391   5.282
 2925POPC   GL140621  32.559  34.482   5.760
 2925POPC   GL240622  32.172  34.480   5.831
 2925POPC   C1A40623  32.448  34.558   6.251
 2925POPC   D2A40624  32.145  34.485   6.643
 2925POPC   C3A40625  32.245  34.442   7.110
 2925POPC   C4A40626  32.494  34.302   7.497
 2925POPC   C1B40627  31.942  34.706   6.203
 2925POPC   C2B40628  31.833  34.892   6.638
 2925POPC   C3B40629  31.972  34.913   7.075
 2925POPC   C4B40630  31.752  34.827   7.470
 2926POPC   NC340631  25.819  29.056   5.515
 2926POPC   PO440632  26.494  29.070   5.478
 2926POPC   GL140633  26.213  29.177   5.822
 2926POPC   GL240634  26.259  29.533   5.852
 2926POPC   C1A40635  25.916  29.104   6.212
 2926POPC   D2A40636  25.770  29.270   6.638
 2926POPC   C3A40637  25.892  29.128   7.064
 2926POPC   C4A40638  25.860  29.220   7.529
 2926POPC   C1B40639  26.423  29.375   6.230
 2926POPC   C2B40640  26.275  29.252   6.608
 2926POPC   C3B40641  26.346  29.386   6.992
 2926POPC   C4B40642  26.386  29.163   7.365
 2927POPC   NC340643  37.843  15.772   5.148
 2927POPC   PO440644  37.331  16.217   5.426
 2927POPC   GL140645  37.606  16.080   5.767
 2927POPC   GL240646  37.931  16.010   5.620
 2927POPC   C1A40647  37.513  15.845   6.148
 2927POPC   D2A40648  37.416  15.607   6.528
 2927POPC   C3A40649  37.408  15.807   6.925
 2927POPC   C4A40650  37.649  15.777   7.276
 2927POPC   C1B40651  38.012  15.810   6.016
 2927POPC   C2B40652  37.905  15.736   6.470
 2927POPC   C3B40653  37.912  15.958   6.861
 2927POPC   C4B40654  37.924  16.188   7.267
 2928POPC   NC340655  32.463  23.223   5.478
 2928POPC   PO440656  32.001  22.637   5.482
 2928POPC   GL140657  32.282  22.775   5.817
 2928POPC   GL240658  32.263  23.084   5.950
 2928POPC   C1A40659  32.493  22.742   6.237
 2928POPC   D2A40660  32.465  22.952   6.619
 2928POPC   C3A40661  32.348  22.648   6.913
 2928POPC   C4A40662  32.509  22.633   7.296
 2928POPC   C1B40663  32.015  22.949   6.339
 2928POPC   C2B40664  31.989  22.974   6.811
 2928POPC   C3B40665  32.286  23.089   7.168
 2928POPC   C4B40666  32.157  23.303   7.548
 2929POPC   NC340667  29.262  21.611   5.178
 2929POPC   PO440668  28.778  21.193   5.311
 2929POPC   GL140669  29.040  21.496   5.623
 2929POPC   GL240670  28.849  21.667   5.879
 2929POPC   C1A40671  29.347  21.576   5.986
 2929POPC   D2A40672  29.353  21.327   6.381
 2929POPC   C3A40673  29.203  21.381   6.798
 2929POPC   C4A40674  29.362  21.465   7.211
 2929POPC   C1B40675  28.931  21.256   6.069
 2929POPC   C2B40676  28.741  21.081   6.417
 2929POPC   C3B40677  28.702  21.147   6.848
 2929POPC   C4B40678  28.913  21.219   7.210
 2930POPC   NC340679   6.938  23.799   5.273
 2930POPC   PO440680   6.598  23.202   5.409
 2930POPC   GL140681   6.609  23.513   5.756
 2930POPC   GL240682   6.498  23.857   5.626
 2930POPC   C1A40683   6.537  23.498   6.240
 2930POPC   D2A40684   6.319  23.545   6.671
 2930POPC   C3A40685   6.602  23.463   7.023
 2930POPC   C4A40686   7.027  23.313   7.134
 2930POPC   C1B40687   6.711  23.943   6.002
 2930POPC   C2B40688   6.792  23.974   6.440
 2930POPC   C3B40689   6.569  24.073   6.792
 2930POPC   C4B40690   6.733  23.958   7.174
 2931POPC   NC340691  17.626   7.173   5.418
 2931POPC   PO440692  17.146   7.591   5.465
 2931POPC   GL140693  17.278   7.285   5.778
 2931POPC   GL240694  17.661   7.357   5.885
 2931POPC   C1A40695  17.288   7.234   6.207
 2931POPC   D2A40696  17.221   7.442   6.572
 2931POPC   C3A40697  17.224   7.211   6.942
 2931POPC   C4A40698  17.320   7.391   7.325
 2931POPC   C1B40699  17.832   7.443   6.301
 2931POPC   C2B40700  17.726   7.402   6.727
 2931POPC   C3B40701  17.737   7.189   7.106
 2931POPC   C4B40702  17.904   7.454   7.446
 2932POPC   NC340703  38.216  34.059   5.436
 2932POPC   PO440704  38.861  33.838   5.484
 2932POPC   GL140705  38.534  33.827   5.778
 2932POPC   GL240706  38.480  33.512   5.915
 2932POPC   C1A40707  38.367  33.993   6.173
 2932POPC   D2A40708  38.521  33.940   6.608
 2932POPC   C3A40709  38.335  34.079   7.005
 2932POPC   C4A40710  38.508  34.027   7.419
 2932POPC   C1B40711  38.209  33.495   6.258
 2932POPC   C2B40712  38.061  33.681   6.621
 2932POPC   C3B40713  38.107  33.607   7.032
 2932POPC   C4B40714  38.174  33.564   7.424
 2933POPC   NC340715   3.588   8.602   5.102
 2933POPC   PO440716   3.609   8.077   5.445
 2933POPC   GL140717   3.490   8.203   5.888
 2933POPC   GL240718   3.159   7.940   5.868
 2933POPC   C1A40719   3.687   8.486   6.270
 2933POPC   D2A40720   3.644   8.693   6.722
 2933POPC   C3A40721   3.547   8.424   7.102
 2933POPC   C4A40722   3.612   7.982   7.245
 2933POPC   C1B40723   3.264   8.015   6.290
 2933POPC   C2B40724   3.459   8.167   6.634
 2933POPC   C3B40725   3.223   8.061   6.951
 2933POPC   C4B40726   3.086   8.015   7.332
 2934POPC   NC340727  18.389  18.613   5.522
 2934POPC   PO440728  18.052  18.069   5.475
 2934POPC   GL140729  18.123  18.292   5.833
 2934POPC   GL240730  18.492  18.250   5.910
 2934POPC   C1A40731  18.141  18.457   6.237
 2934POPC   D2A40732  18.448  18.482   6.536
 2934POPC   C3A40733  18.275  18.408   6.924
 2934POPC   C4A40734  18.510  18.617   7.188
 2934POPC   C1B40735  18.477  18.035   6.305
 2934POPC   C2B40736  18.567  18.027   6.776
 2934POPC   C3B40737  18.545  18.098   7.259
 2934POPC   C4B40738  18.543  17.981   7.732
 2935POPC   NC340739  25.389   6.661   5.461
 2935POPC   PO440740  24.720   6.826   5.386
 2935POPC   GL140741  25.069   6.980   5.724
 2935POPC   GL240742  25.013   6.711   5.892
 2935POPC   C1A40743  25.490   6.874   6.079
 2935POPC   D2A40744  25.526   6.974   6.603
 2935POPC   C3A40745  25.753   6.940   7.063
 2935POPC   C4A40746  25.704   6.855   7.566
 2935POPC   C1B40747  25.186   6.510   6.255
 2935POPC   C2B40748  25.197   6.562   6.669
 2935POPC   C3B40749  25.266   6.720   7.035
 2935POPC   C4B40750  25.182   6.629   7.454
 2936POPC   NC340751  37.311  30.415   5.478
 2936POPC   PO440752  37.937  30.540   5.400
 2936POPC   GL140753  37.726  30.684   5.794
 2936POPC   GL240754  37.391  30.862   5.771
 2936POPC   C1A40755  37.925  30.617   6.232
 2936POPC   D2A40756  38.043  30.470   6.669
 2936POPC   C3A40757  38.031  30.834   6.961
 2936POPC   C4A40758  37.806  31.031   7.299
 2936POPC   C1B40759  37.454  30.814   6.227
 2936POPC   C2B40760  37.585  30.734   6.655
 2936POPC   C3B40761  37.450  30.730   7.090
 2936POPC   C4B40762  37.359  30.893   7.524
 2937POPC   NC340763  44.637  10.209   5.381
 2937POPC   PO440764  44.765  10.773   5.165
 2937POPC   GL140765  44.712  10.654   5.632
 2937POPC   GL240766  44.940  10.875   5.786
 2937POPC   C1A40767  44.613  10.608   6.110
 2937POPC   D2A40768  44.763  10.591   6.550
 2937POPC   C3A40769  44.491  10.460   6.878
 2937POPC   C4A40770  44.387  10.415   7.270
 2937POPC   C1B40771   0.004  10.909   6.224
 2937POPC   C2B40772  44.953  11.078   6.613
 2937POPC   C3B40773   0.036  10.959   7.015
 2937POPC   C4B40774  44.866  10.606   7.227
 2938POPC   NC340775  42.181  31.503   5.102
 2938POPC   PO440776  42.601  31.361   5.621
 2938POPC   GL140777  42.276  31.342   5.862
 2938POPC   GL240778  42.055  31.614   5.862
 2938POPC   C1A40779  42.315  31.249   6.267
 2938POPC   D2A40780  42.590  31.364   6.600
 2938POPC   C3A40781  42.346  31.216   6.929
 2938POPC   C4A40782  42.329  31.374   7.319
 2938POPC   C1B40783  42.203  31.752   6.226
 2938POPC   C2B40784  42.122  31.583   6.614
 2938POPC   C3B40785  42.321  31.721   6.948
 2938POPC   C4B40786  42.214  31.885   7.281
 2939POPC   NC340787  42.764  30.097   5.625
 2939POPC   PO440788  42.858  30.720   5.327
 2939POPC   GL140789  43.137  30.678   5.700
 2939POPC   GL240790  42.969  30.451   5.922
 2939POPC   C1A40791  43.227  30.832   6.123
 2939POPC   D2A40792  43.091  30.749   6.558
 2939POPC   C3A40793  43.190  30.770   6.995
 2939POPC   C4A40794  43.168  31.114   7.296
 2939POPC   C1B40795  42.748  30.461   6.318
 2939POPC   C2B40796  42.767  30.411   6.791
 2939POPC   C3B40797  42.697  30.404   7.234
 2939POPC   C4B40798  42.767  30.204   7.657
 2940POPC   NC340799  28.080  39.635   5.223
 2940POPC   PO440800  28.134  38.963   5.367
 2940POPC   GL140801  28.258  39.059   5.782
 2940POPC   GL240802  28.210  39.396   5.688
 2940POPC   C1A40803  28.226  39.018   6.246
 2940POPC   D2A40804  28.000  39.344   6.495
 2940POPC   C3A40805  28.120  39.288   6.926
 2940POPC   C4A40806  28.325  38.973   7.198
 2940POPC   C1B40807  28.323  39.476   6.094
 2940POPC   C2B40808  28.437  39.562   6.523
 2940POPC   C3B40809  28.513  39.610   6.935
 2940POPC   C4B40810  28.506  39.439   7.313
 2941POPC   NC340811  15.015  44.258   5.333
 2941POPC   PO440812  15.287  44.830   5.386
 2941POPC   GL140813  15.254  44.672   5.804
 2941POPC   GL240814  14.977  44.459   5.812
 2941POPC   C1A40815  15.292  44.579   6.255
 2941POPC   D2A40816  15.033  44.544   6.634
 2941POPC   C3A40817  15.228  44.529   7.043
 2941POPC   C4A40818  15.611  44.703   7.173
 2941POPC   C1B40819  14.758  44.698   6.122
 2941POPC   C2B40820  14.597  44.821   6.521
 2941POPC   C3B40821  14.774  44.915   6.938
 2941POPC   C4B40822  15.173   0.041   7.088
 2942POPC   NC340823  26.820  38.172   5.365
 2942POPC   PO440824  27.177  38.709   5.505
 2942POPC   GL140825  27.028  38.327   5.820
 2942POPC   GL240826  26.674  38.194   5.851
 2942POPC   C1A40827  26.947  38.194   6.287
 2942POPC   D2A40828  26.800  38.324   6.715
 2942POPC   C3A40829  26.977  38.532   7.131
 2942POPC   C4A40830  27.124  38.537   7.601
 2942POPC   C1B40831  26.396  38.199   6.204
 2942POPC   C2B40832  26.326  38.449   6.565
 2942POPC   C3B40833  26.465  38.608   6.972
 2942POPC   C4B40834  26.529  38.200   7.137
 2943POPC   NC340835  24.721  41.697   5.612
 2943POPC   PO440836  24.187  41.397   5.240
 2943POPC   GL140837  24.227  41.464   5.665
 2943POPC   GL240838  24.376  41.192   5.808
 2943POPC   C1A40839  24.096  41.508   6.114
 2943POPC   D2A40840  24.160  41.379   6.549
 2943POPC   C3A40841  24.344  41.557   6.969
 2943POPC   C4A40842  24.496  41.706   7.401
 2943POPC   C1B40843  24.573  41.320   6.219
 2943POPC   C2B40844  24.863  41.289   6.564
 2943POPC   C3B40845  24.741  41.216   6.973
 2943POPC   C4B40846  24.726  41.249   7.386
 2944POPC   NC340847   7.385  18.455   4.935
 2944POPC   PO440848   7.666  18.362   5.324
 2944POPC   GL140849   7.388  18.398   5.730
 2944POPC   GL240850   7.202  18.096   5.858
 2944POPC   C1A40851   7.305  18.501   6.199
 2944POPC   D2A40852   7.525  18.469   6.614
 2944POPC   C3A40853   7.372  18.532   7.049
 2944POPC   C4A40854   7.330  18.680   7.502
 2944POPC   C1B40855   7.126  18.030   6.313
 2944POPC   C2B40856   7.165  18.135   6.766
 2944POPC   C3B40857   7.403  18.011   7.142
 2944POPC   C4B40858   7.385  17.986   7.612
 2945POPC   NC340859  30.478  40.228   5.433
 2945POPC   PO440860  30.866  39.832   5.411
 2945POPC   GL140861  30.742  40.000   5.824
 2945POPC   GL240862  30.811  40.358   5.830
 2945POPC   C1A40863  30.504  40.151   6.192
 2945POPC   D2A40864  30.567  40.365   6.608
 2945POPC   C3A40865  30.618  40.197   7.037
 2945POPC   C4A40866  30.363  40.411   7.326
 2945POPC   C1B40867  31.017  40.204   6.250
 2945POPC   C2B40868  31.041  40.188   6.723
 2945POPC   C3B40869  31.159  40.141   7.176
 2945POPC   C4B40870  31.272  40.154   7.640
 2946POPC   NC340871  19.059  40.394   5.388
 2946POPC   PO440872  19.243  41.018   5.235
 2946POPC   GL140873  19.345  40.830   5.686
 2946POPC   GL240874  19.178  40.550   5.893
 2946POPC   C1A40875  19.362  40.996   6.138
 2946POPC   D2A40876  19.239  40.719   6.479
 2946POPC   C3A40877  19.326  40.845   6.869
 2946POPC   C4A40878  19.484  41.037   7.234
 2946POPC   C1B40879  18.878  40.442   6.250
 2946POPC   C2B40880  18.693  40.678   6.618
 2946POPC   C3B40881  18.830  40.812   7.027
 2946POPC   C4B40882  19.146  40.648   7.333
 2947POPC   NC340883  43.832  41.698   5.330
 2947POPC   PO440884  44.083  41.110   5.194
 2947POPC   GL140885  44.188  41.399   5.597
 2947POPC   GL240886  43.861  41.464   5.793
 2947POPC   C1A40887  44.275  41.569   6.067
 2947POPC   D2A40888  44.297  41.427   6.525
 2947POPC   C3A40889  44.114  41.592   6.921
 2947POPC   C4A40890  44.309  41.422   7.321
 2947POPC   C1B40891  43.771  41.608   6.252
 2947POPC   C2B40892  43.575  41.564   6.696
 2947POPC   C3B40893  43.480  41.394   7.118
 2947POPC   C4B40894  43.813  41.447   7.407
 2948POPC   NC340895  14.225  26.035   5.186
 2948POPC   PO440896  14.644  25.727   5.684
 2948POPC   GL140897  14.269  25.894   5.737
 2948POPC   GL240898  14.210  26.233   5.737
 2948POPC   C1A40899  14.132  25.960   6.149
 2948POPC   D2A40900  14.016  26.022   6.571
 2948POPC   C3A40901  14.302  25.833   6.891
 2948POPC   C4A40902  14.235  25.991   7.295
 2948POPC   C1B40903  14.547  26.262   6.088
 2948POPC   C2B40904  14.545  26.053   6.498
 2948POPC   C3B40905  14.625  26.226   6.933
 2948POPC   C4B40906  14.719  26.163   7.350
 2949POPC   NC340907  13.401   6.979   5.379
 2949POPC   PO440908  13.574   7.658   5.179
 2949POPC   GL140909  13.398   7.536   5.609
 2949POPC   GL240910  13.680   7.346   5.692
 2949POPC   C1A40911  13.404   7.485   6.102
 2949POPC   D2A40912  13.618   7.387   6.515
 2949POPC   C3A40913  13.459   7.451   6.884
 2949POPC   C4A40914  13.521   7.442   7.295
 2949POPC   C1B40915  13.876   7.279   6.093
 2949POPC   C2B40916  14.095   7.511   6.446
 2949POPC   C3B40917  13.989   7.591   6.892
 2949POPC   C4B40918  14.072   7.415   7.313
 2950POPC   NC340919  19.349   0.618   5.407
 2950POPC   PO440920  18.729   0.350   5.565
 2950POPC   GL140921  18.768   0.619   5.915
 2950POPC   GL240922  19.123   0.599   5.858
 2950POPC   C1A40923  18.962   0.601   6.347
 2950POPC   D2A40924  19.041   0.291   6.637
 2950POPC   C3A40925  19.253   0.379   7.002
 2950POPC   C4A40926  19.002   0.508   7.307
 2950POPC   C1B40927  19.447   0.735   6.170
 2950POPC   C2B40928  19.502   0.667   6.612
 2950POPC   C3B40929  19.638   0.730   7.034
 2950POPC   C4B40930  19.491   0.592   7.426
 2951POPC   NC340931   1.795   9.481   5.513
 2951POPC   PO440932   2.096  10.028   5.229
 2951POPC   GL140933   2.036   9.890   5.715
 2951POPC   GL240934   2.349   9.693   5.778
 2951POPC   C1A40935   1.743   9.740   6.132
 2951POPC   D2A40936   1.549   9.482   6.539
 2951POPC   C3A40937   1.621   9.660   6.960
 2951POPC   C4A40938   1.794   9.594   7.374
 2951POPC   C1B40939   2.216   9.583   6.191
 2951POPC   C2B40940   2.033   9.690   6.589
 2951POPC   C3B40941   2.136   9.738   7.021
 2951POPC   C4B40942   2.052  10.056   7.328
 2952POPC   NC340943  12.125  26.288   5.192
 2952POPC   PO440944  11.632  25.777   5.320
 2952POPC   GL140945  11.887  25.945   5.624
 2952POPC   GL240946  11.763  26.294   5.587
 2952POPC   C1A40947  12.048  25.890   6.060
 2952POPC   D2A40948  12.119  26.061   6.480
 2952POPC   C3A40949  12.233  25.868   6.857
 2952POPC   C4A40950  12.146  26.069   7.266
 2952POPC   C1B40951  11.593  26.151   5.995
 2952POPC   C2B40952  11.599  26.087   6.445
 2952POPC   C3B40953  11.737  25.993   6.869
 2952POPC   C4B40954  11.634  25.992   7.303
 2953POPC   NC340955  15.415  16.644   5.367
 2953POPC   PO440956  14.952  16.345   5.099
 2953POPC   GL140957  15.031  16.432   5.637
 2953POPC   GL240958  15.261  16.711   5.852
 2953POPC   C1A40959  15.048  16.325   6.095
 2953POPC   D2A40960  15.268  16.583   6.397
 2953POPC   C3A40961  15.146  16.496   6.826
 2953POPC   C4A40962  15.245  16.711   7.202
 2953POPC   C1B40963  14.833  16.781   6.043
 2953POPC   C2B40964  14.809  16.774   6.485
 2953POPC   C3B40965  15.085  16.991   6.774
 2953POPC   C4B40966  14.906  17.099   7.130
 2954POPC   NC340967  26.199  10.002   5.395
 2954POPC   PO440968  26.909   9.695   5.360
 2954POPC   GL140969  26.734   9.784   5.749
 2954POPC   GL240970  26.485   9.540   5.852
 2954POPC   C1A40971  26.840   9.712   6.186
 2954POPC   D2A40972  27.003   9.786   6.609
 2954POPC   C3A40973  26.777  10.097   6.891
 2954POPC   C4A40974  26.495  10.248   7.224
 2954POPC   C1B40975  26.612   9.257   6.188
 2954POPC   C2B40976  26.926   9.272   6.497
 2954POPC   C3B40977  27.014   9.361   6.916
 2954POPC   C4B40978  26.765   9.553   7.203
 2955POPC   NC340979  23.715  21.163   5.550
 2955POPC   PO440980  23.456  21.811   5.388
 2955POPC   GL140981  23.428  21.554   5.775
 2955POPC   GL240982  23.266  21.203   5.785
 2955POPC   C1A40983  23.707  21.568   6.132
 2955POPC   D2A40984  24.063  21.386   6.351
 2955POPC   C3A40985  24.001  21.414   6.786
 2955POPC   C4A40986  23.825  21.672   7.154
 2955POPC   C1B40987  23.245  21.333   6.221
 2955POPC   C2B40988  23.486  21.192   6.588
 2955POPC   C3B40989  23.586  21.240   7.018
 2955POPC   C4B40990  23.598  21.323   7.479
 2956POPC   NC340991   9.605  24.000   5.440
 2956POPC   PO440992   9.853  23.407   5.291
 2956POPC   GL140993   9.831  23.582   5.741
 2956POPC   GL240994   9.523  23.524   5.908
 2956POPC   C1A40995   9.880  23.678   6.230
 2956POPC   D2A40996   9.734  23.472   6.630
 2956POPC   C3A40997   9.902  23.667   7.005
 2956POPC   C4A40998  10.119  23.875   7.370
 2956POPC   C1B40999   9.358  23.716   6.330
 2956POPC   C2B41000   9.404  23.827   6.811
 2956POPC   C3B41001   9.489  23.770   7.283
 2956POPC   C4B41002   9.316  23.598   7.702
 2957POPC   NC341003  27.672   0.214   5.242
 2957POPC   PO441004  27.779  44.537   5.359
 2957POPC   GL141005  27.782  44.378   5.765
 2957POPC   GL241006  27.433  44.367   5.806
 2957POPC   C1A41007  27.732  44.337   6.227
 2957POPC   D2A41008  27.649  44.184   6.650
 2957POPC   C3A41009  27.783  44.415   6.974
 2957POPC   C4A41010  27.714  44.706   7.270
 2957POPC   C1B41011  27.232  44.444   6.204
 2957POPC   C2B41012  27.150  44.285   6.600
 2957POPC   C3B41013  27.261  44.357   7.009
 2957POPC   C4B41014  27.218  44.623   7.378
 2958POPC   NC341015  12.463   3.472   5.630
 2958POPC   PO441016  13.116   3.521   5.448
 2958POPC   GL141017  13.003   3.401   5.863
 2958POPC   GL241018  12.806   3.694   5.942
 2958POPC   C1A41019  13.048   3.315   6.319
 2958POPC   D2A41020  12.760   3.246   6.652
 2958POPC   C3A41021  12.740   3.687   6.792
 2958POPC   C4A41022  13.007   3.948   7.072
 2958POPC   C1B41023  12.538   3.475   6.257
 2958POPC   C2B41024  12.286   3.475   6.635
 2958POPC   C3B41025  12.445   3.356   7.049
 2958POPC   C4B41026  12.676   3.631   7.332
 2959POPC   NC341027  11.665  15.300   5.319
 2959POPC   PO441028  11.136  15.190   5.259
 2959POPC   GL141029  11.356  15.134   5.690
 2959POPC   GL241030  11.366  15.427   5.896
 2959POPC   C1A41031  11.421  14.957   6.100
 2959POPC   D2A41032  11.371  15.159   6.495
 2959POPC   C3A41033  11.300  14.994   6.879
 2959POPC   C4A41034  11.259  14.952   7.271
 2959POPC   C1B41035  11.249  15.613   6.310
 2959POPC   C2B41036  11.081  15.520   6.741
 2959POPC   C3B41037  11.185  15.447   7.159
 2959POPC   C4B41038  11.277  15.705   7.544
 2960POPC   NC341039  38.336  37.720   5.407
 2960POPC   PO441040  37.693  37.556   5.282
 2960POPC   GL141041  38.000  37.558   5.739
 2960POPC   GL241042  38.315  37.765   5.909
 2960POPC   C1A41043  38.059  37.446   6.215
 2960POPC   D2A41044  38.248  37.680   6.586
 2960POPC   C3A41045  38.299  37.514   7.009
 2960POPC   C4A41046  38.216  37.460   7.456
 2960POPC   C1B41047  38.623  37.589   6.255
 2960POPC   C2B41048  38.783  37.667   6.664
 2960POPC   C3B41049  38.563  37.964   6.909
 2960POPC   C4B41050  38.407  37.926   7.301
 2961POPC   NC341051  36.700  27.388   5.645
 2961POPC   PO441052  36.916  28.000   5.473
 2961POPC   GL141053  36.966  27.745   5.863
 2961POPC   GL241054  37.077  27.386   5.980
 2961POPC   C1A41055  36.751  27.736   6.251
 2961POPC   D2A41056  36.932  27.938   6.618
 2961POPC   C3A41057  36.864  27.760   7.023
 2961POPC   C4A41058  36.644  27.473   7.247
 2961POPC   C1B41059  37.181  27.499   6.387
 2961POPC   C2B41060  37.344  27.537   6.775
 2961POPC   C3B41061  37.190  27.387   7.143
 2961POPC   C4B41062  37.061  27.366   7.592
 2962POPC   NC341063  42.465  15.221   5.403
 2962POPC   PO441064  41.763  15.161   5.308
 2962POPC   GL141065  42.066  15.091   5.707
 2962POPC   GL241066  42.391  14.889   5.770
 2962POPC   C1A41067  42.314  15.280   6.079
 2962POPC   D2A41068  42.538  15.115   6.439
 2962POPC   C3A41069  42.362  15.259   6.833
 2962POPC   C4A41070  42.485  15.287   7.248
 2962POPC   C1B41071  42.709  14.751   6.093
 2962POPC   C2B41072  42.795  14.671   6.530
 2962POPC   C3B41073  42.736  14.912   6.923
 2962POPC   C4B41074  42.718  14.851   7.391
 2963POPC   NC341075  16.994  30.109   5.439
 2963POPC   PO441076  16.570  29.628   5.430
 2963POPC   GL141077  16.805  29.746   5.755
 2963POPC   GL241078  16.961  29.448   5.871
 2963POPC   C1A41079  16.673  30.073   6.036
 2963POPC   D2A41080  16.742  30.093   6.456
 2963POPC   C3A41081  16.697  30.091   6.891
 2963POPC   C4A41082  17.026  30.041   7.159
 2963POPC   C1B41083  16.722  29.607   6.254
 2963POPC   C2B41084  16.899  29.652   6.681
 2963POPC   C3B41085  16.729  29.587   7.099
 2963POPC   C4B41086  16.499  29.501   7.465
 2964POPC   NC341087  17.266  30.995   5.571
 2964POPC   PO441088  17.749  30.621   5.354
 2964POPC   GL141089  17.489  30.479   5.720
 2964POPC   GL241090  17.585  30.746   5.917
 2964POPC   C1A41091  17.237  30.364   6.114
 2964POPC   D2A41092  17.096  30.434   6.556
 2964POPC   C3A41093  17.377  30.385   6.903
 2964POPC   C4A41094  17.778  30.517   7.106
 2964POPC   C1B41095  17.521  30.752   6.355
 2964POPC   C2B41096  17.665  31.080   6.639
 2964POPC   C3B41097  17.637  31.001   7.069
 2964POPC   C4B41098  17.339  30.753   7.272
 2965POPC   NC341099  17.760  14.533   4.921
 2965POPC   PO441100  17.347  14.518   5.480
 2965POPC   GL141101  17.557  14.446   5.856
 2965POPC   GL241102  17.814  14.686   5.789
 2965POPC   C1A41103  17.510  14.292   6.274
 2965POPC   D2A41104  17.217  14.410   6.581
 2965POPC   C3A41105  17.366  14.479   6.976
 2965POPC   C4A41106  17.215  14.581   7.362
 2965POPC   C1B41107  17.877  14.641   6.239
 2965POPC   C2B41108  17.809  14.488   6.661
 2965POPC   C3B41109  17.887  14.361   7.079
 2965POPC   C4B41110  17.927  14.574   7.476
 2966POPC   NC341111  40.281  11.317   5.423
 2966POPC   PO441112  39.697  11.421   5.673
 2966POPC   GL141113  40.039  11.231   5.863
 2966POPC   GL241114  40.128  11.509   6.062
 2966POPC   C1A41115  40.072  11.050   6.261
 2966POPC   D2A41116  39.820  11.038   6.630
 2966POPC   C3A41117  40.061  11.244   6.940
 2966POPC   C4A41118  40.074  11.166   7.385
 2966POPC   C1B41119  39.857  11.543   6.427
 2966POPC   C2B41120  39.961  11.743   6.817
 2966POPC   C3B41121  39.928  11.644   7.221
 2966POPC   C4B41122  39.907  11.598   7.652
 2967POPC   NC341123  19.543  35.741   5.141
 2967POPC   PO441124  19.828  36.379   5.327
 2967POPC   GL141125  19.971  36.290   5.841
 2967POPC   GL241126  20.204  35.987   5.912
 2967POPC   C1A41127  19.728  36.307   6.244
 2967POPC   D2A41128  19.498  36.499   6.581
 2967POPC   C3A41129  19.754  36.352   6.942
 2967POPC   C4A41130  19.632  36.280   7.403
 2967POPC   C1B41131  20.104  35.971   6.347
 2967POPC   C2B41132  19.825  35.827   6.659
 2967POPC   C3B41133  19.737  35.878   7.105
 2967POPC   C4B41134  20.058  36.004   7.452
 2968POPC   NC341135  15.839   4.283   5.282
 2968POPC   PO441136  15.774   4.846   5.631
 2968POPC   GL141137  15.980   4.503   5.809
 2968POPC   GL241138  15.816   4.169   5.783
 2968POPC   C1A41139  16.058   4.293   6.222
 2968POPC   D2A41140  15.914   4.042   6.593
 2968POPC   C3A41141  15.886   4.230   6.980
 2968POPC   C4A41142  16.041   4.439   7.310
 2968POPC   C1B41143  15.650   3.957   6.163
 2968POPC   C2B41144  15.501   3.735   6.528
 2968POPC   C3B41145  15.471   3.901   6.921
 2968POPC   C4B41146  15.461   4.180   7.277
 2969POPC   NC341147  32.447   7.648   5.494
 2969POPC   PO441148  32.168   7.046   5.381
 2969POPC   GL141149  32.280   7.245   5.776
 2969POPC   GL241150  32.017   7.472   5.874
 2969POPC   C1A41151  32.425   7.516   6.152
 2969POPC   D2A41152  32.192   7.550   6.523
 2969POPC   C3A41153  32.400   7.483   6.899
 2969POPC   C4A41154  32.294   7.197   7.226
 2969POPC   C1B41155  31.976   7.853   6.157
 2969POPC   C2B41156  31.980   8.015   6.568
 2969POPC   C3B41157  31.980   7.808   6.924
 2969POPC   C4B41158  32.074   7.641   7.263
 2970POPC   NC341159   9.114  19.529   5.340
 2970POPC   PO441160   9.176  20.212   5.197
 2970POPC   GL141161   9.099  20.171   5.620
 2970POPC   GL241162   9.049  19.853   5.722
 2970POPC   C1A41163   9.135  20.272   6.060
 2970POPC   D2A41164   9.037  20.295   6.515
 2970POPC   C3A41165   9.103  19.965   6.816
 2970POPC   C4A41166   9.132  20.134   7.203
 2970POPC   C1B41167   9.113  19.742   6.159
 2970POPC   C2B41168   8.967  19.540   6.532
 2970POPC   C3B41169   8.983  19.478   6.977
 2970POPC   C4B41170   9.075  19.665   7.363
 2971POPC   NC341171  32.450   0.513   5.194
 2971POPC   PO441172  31.998   0.061   5.401
 2971POPC   GL141173  32.343   0.349   5.716
 2971POPC   GL241174  32.286   0.236   6.044
 2971POPC   C1A41175  32.199   0.719   6.070
 2971POPC   D2A41176  31.909   0.767   6.455
 2971POPC   C3A41177  32.066   0.774   6.856
 2971POPC   C4A41178  32.290   0.602   7.175
 2971POPC   C1B41179  32.237   0.070   6.437
 2971POPC   C2B41180  32.131   0.237   6.839
 2971POPC   C3B41181  32.386   0.116   7.206
 2971POPC   C4B41182  32.469  44.916   7.595
 2972POPC   NC341183   5.494   4.822   5.275
 2972POPC   PO441184   4.931   5.289   5.294
 2972POPC   GL141185   5.091   5.120   5.714
 2972POPC   GL241186   5.315   4.838   5.750
 2972POPC   C1A41187   5.176   5.196   6.183
 2972POPC   D2A41188   5.427   5.240   6.597
 2972POPC   C3A41189   5.299   5.124   7.018
 2972POPC   C4A41190   5.051   5.304   7.339
 2972POPC   C1B41191   5.291   4.701   6.186
 2972POPC   C2B41192   5.133   4.772   6.602
 2972POPC   C3B41193   5.273   4.594   6.992
 2972POPC   C4B41194   5.333   4.732   7.393
 2973POPC   NC341195  20.213  43.563   5.455
 2973POPC   PO441196  20.611  43.003   5.449
 2973POPC   GL141197  20.766  42.917   5.843
 2973POPC   GL241198  20.821  43.287   5.902
 2973POPC   C1A41199  20.662  42.975   6.279
 2973POPC   D2A41200  20.821  43.252   6.567
 2973POPC   C3A41201  20.665  43.020   6.897
 2973POPC   C4A41202  20.604  42.988   7.316
 2973POPC   C1B41203  20.476  43.450   6.183
 2973POPC   C2B41204  20.318  43.356   6.607
 2973POPC   C3B41205  20.542  43.509   6.995
 2973POPC   C4B41206  20.811  43.442   7.351
 2974POPC   NC341207   0.149  41.051   5.462
 2974POPC   PO441208   0.745  40.752   5.461
 2974POPC   GL141209   0.652  40.636   5.865
 2974POPC   GL241210   0.322  40.772   5.856
 2974POPC   C1A41211   0.486  40.589   6.290
 2974POPC   D2A41212   0.224  40.838   6.583
 2974POPC   C3A41213   0.368  40.681   6.988
 2974POPC   C4A41214   0.614  40.774   7.345
 2974POPC   C1B41215   0.581  41.082   6.138
 2974POPC   C2B41216   0.512  41.278   6.539
 2974POPC   C3B41217   0.431  41.187   6.942
 2974POPC   C4B41218   0.585  41.302   7.320
 2975POPC   NC341219  10.030  30.059   5.341
 2975POPC   PO441220   9.451  29.795   5.445
 2975POPC   GL141221   9.602  29.926   5.859
 2975POPC   GL241222   9.793  30.227   5.802
 2975POPC   C1A41223   9.729  29.732   6.261
 2975POPC   D2A41224   9.639  29.976   6.630
 2975POPC   C3A41225   9.467  29.785   6.988
 2975POPC   C4A41226   9.385  29.826   7.405
 2975POPC   C1B41227   9.971  30.194   6.232
 2975POPC   C2B41228  10.128  29.935   6.555
 2975POPC   C3B41229   9.998  29.703   6.889
 2975POPC   C4B41230   9.885  29.860   7.292
 2976POPC   NC341231  44.773  32.442   5.061
 2976POPC   PO441232   0.415  32.299   5.275
 2976POPC   GL141233   0.434  32.224   5.723
 2976POPC   GL241234   0.263  32.463   5.913
 2976POPC   C1A41235   0.639  32.161   6.132
 2976POPC   D2A41236   0.556  32.008   6.554
 2976POPC   C3A41237   0.324  32.143   6.921
 2976POPC   C4A41238   0.539  32.154   7.337
 2976POPC   C1B41239   0.231  32.388   6.368
 2976POPC   C2B41240   0.366  32.634   6.714
 2976POPC   C3B41241   0.406  32.607   7.178
 2976POPC   C4B41242   0.287  32.539   7.651
 2977POPC   NC341243  21.917   7.878   5.463
 2977POPC   PO441244  22.378   8.364   5.387
 2977POPC   GL141245  22.083   8.296   5.734
 2977POPC   GL241246  22.237   7.977   5.859
 2977POPC   C1A41247  22.028   8.297   6.187
 2977POPC   D2A41248  22.196   8.038   6.488
 2977POPC   C3A41249  22.053   8.165   6.871
 2977POPC   C4A41250  22.201   8.179   7.271
 2977POPC   C1B41251  21.858   7.808   6.123
 2977POPC   C2B41252  21.705   7.911   6.536
 2977POPC   C3B41253  21.749   7.750   6.943
 2977POPC   C4B41254  21.745   7.951   7.328
 2978POPC   NC341255  21.717  42.609   5.439
 2978POPC   PO441256  21.150  42.186   5.355
 2978POPC   GL141257  21.369  42.323   5.709
 2978POPC   GL241258  21.101  42.497   5.837
 2978POPC   C1A41259  21.403  42.227   6.168
 2978POPC   D2A41260  21.210  42.294   6.606
 2978POPC   C3A41261  21.321  42.211   7.047
 2978POPC   C4A41262  21.229  42.201   7.500
 2978POPC   C1B41263  20.985  42.582   6.246
 2978POPC   C2B41264  21.060  42.789   6.649
 2978POPC   C3B41265  21.014  42.676   7.083
 2978POPC   C4B41266  20.802  42.312   7.238
 2979POPC   NC341267  34.748  24.098   5.198
 2979POPC   PO441268  34.322  23.545   5.373
 2979POPC   GL141269  34.643  23.578   5.704
 2979POPC   GL241270  34.661  23.938   5.711
 2979POPC   C1A41271  34.712  23.349   6.118
 2979POPC   D2A41272  34.455  23.443   6.479
 2979POPC   C3A41273  34.579  23.623   6.869
 2979POPC   C4A41274  34.381  23.485   7.248
 2979POPC   C1B41275  34.596  23.837   6.156
 2979POPC   C2B41276  34.882  23.820   6.516
 2979POPC   C3B41277  34.942  23.996   6.967
 2979POPC   C4B41278  34.614  23.927   7.297
 2980POPC   NC341279  16.780   8.911   5.539
 2980POPC   PO441280  17.165   9.475   5.714
 2980POPC   GL141281  17.106   9.042   5.935
 2980POPC   GL241282  16.999   8.646   5.935
 2980POPC   C1A41283  16.956   8.927   6.355
 2980POPC   D2A41284  16.617   8.985   6.660
 2980POPC   C3A41285  16.787   9.166   7.037
 2980POPC   C4A41286  16.552   9.199   7.409
 2980POPC   C1B41287  16.680   8.488   6.310
 2980POPC   C2B41288  16.290   8.579   6.545
 2980POPC   C3B41289  16.251   8.732   6.981
 2980POPC   C4B41290  16.604   8.708   7.234
 2981POPC   NC341291  38.874  25.425   5.376
 2981POPC   PO441292  39.106  24.875   5.343
 2981POPC   GL141293  38.998  25.095   5.729
 2981POPC   GL241294  39.315  24.984   5.897
 2981POPC   C1A41295  38.983  25.298   6.140
 2981POPC   D2A41296  39.234  25.372   6.493
 2981POPC   C3A41297  39.068  25.489   6.896
 2981POPC   C4A41298  39.221  25.451   7.325
 2981POPC   C1B41299  39.202  24.872   6.337
 2981POPC   C2B41300  39.112  24.968   6.799
 2981POPC   C3B41301  39.256  24.945   7.216
 2981POPC   C4B41302  39.458  24.764   7.600
 2982POPC   NC341303  38.681  34.852   5.508
 2982POPC   PO441304  38.459  35.496   5.516
 2982POPC   GL141305  38.308  35.258   5.853
 2982POPC   GL241306  37.936  35.212   5.878
 2982POPC   C1A41307  38.583  35.061   6.164
 2982POPC   D2A41308  38.805  35.176   6.534
 2982POPC   C3A41309  38.725  35.008   6.939
 2982POPC   C4A41310  38.685  35.239   7.322
 2982POPC   C1B41311  38.053  34.981   6.216
 2982POPC   C2B41312  38.292  35.032   6.587
 2982POPC   C3B41313  38.177  35.161   6.988
 2982POPC   C4B41314  38.198  34.988   7.398
 2983POPC   NC341315  41.589  37.199   5.604
 2983POPC   PO441316  41.779  36.618   5.386
 2983POPC   GL141317  41.693  36.715   5.857
 2983POPC   GL241318  41.433  36.980   6.012
 2983POPC   C1A41319  41.532  36.592   6.290
 2983POPC   D2A41320  41.325  36.903   6.544
 2983POPC   C3A41321  41.408  36.812   6.946
 2983POPC   C4A41322  41.362  36.679   7.357
 2983POPC   C1B41323  41.658  37.261   6.293
 2983POPC   C2B41324  41.715  37.183   6.712
 2983POPC   C3B41325  41.494  37.307   7.046
 2983POPC   C4B41326  41.599  37.418   7.437
 2984POPC   NC341327  23.639  36.500   5.433
 2984POPC   PO441328  24.202  36.240   5.301
 2984POPC   GL141329  23.947  36.165   5.681
 2984POPC   GL241330  24.053  35.857   5.814
 2984POPC   C1A41331  23.676  36.228   6.046
 2984POPC   D2A41332  23.490  35.994   6.382
 2984POPC   C3A41333  23.557  36.080   6.819
 2984POPC   C4A41334  23.367  36.058   7.223
 2984POPC   C1B41335  24.016  35.932   6.280
 2984POPC   C2B41336  23.827  35.677   6.616
 2984POPC   C3B41337  23.866  35.745   7.066
 2984POPC   C4B41338  23.865  36.113   7.289
 2985POPC   NC341339  25.403  35.137   5.532
 2985POPC   PO441340  24.913  35.548   5.420
 2985POPC   GL141341  25.128  35.489   5.797
 2985POPC   GL241342  24.999  35.796   5.947
 2985POPC   C1A41343  25.260  35.154   6.160
 2985POPC   D2A41344  25.108  35.023   6.569
 2985POPC   C3A41345  25.323  35.022   6.947
 2985POPC   C4A41346  25.011  35.102   7.248
 2985POPC   C1B41347  25.345  35.642   6.227
 2985POPC   C2B41348  25.446  35.427   6.618
 2985POPC   C3B41349  25.208  35.533   7.025
 2985POPC   C4B41350  25.164  35.558   7.491
 2986POPC   NC341351  40.357  44.184   5.518
 2986POPC   PO441352  39.739  44.529   5.431
 2986POPC   GL141353  39.925  44.383   5.805
 2986POPC   GL241354  40.226  44.588   5.793
 2986POPC   C1A41355  39.860  44.260   6.252
 2986POPC   D2A41356  39.726  44.081   6.654
 2986POPC   C3A41357  40.017  44.189   6.981
 2986POPC   C4A41358  40.002  44.632   7.146
 2986POPC   C1B41359  40.107  44.702   6.211
 2986POPC   C2B41360  40.019  44.844   6.635
 2986POPC   C3B41361  40.350  44.971   6.932
 2986POPC   C4B41362  40.422  44.894   7.338
 2987POPC   NC341363   6.055  27.396   5.446
 2987POPC   PO441364   5.543  27.790   5.265
 2987POPC   GL141365   5.734  27.742   5.672
 2987POPC   GL241366   5.642  27.411   5.789
 2987POPC   C1A41367   5.822  27.908   6.092
 2987POPC   D2A41368   6.010  27.817   6.479
 2987POPC   C3A41369   5.880  27.867   6.879
 2987POPC   C4A41370   6.052  27.772   7.272
 2987POPC   C1B41371   5.887  27.409   6.164
 2987POPC   C2B41372   5.841  27.294   6.571
 2987POPC   C3B41373   5.854  27.371   6.998
 2987POPC   C4B41374   5.763  27.382   7.440
 2988POPC   NC341375   2.739  10.965   5.091
 2988POPC   PO441376   3.023  10.371   5.382
 2988POPC   GL141377   2.807  10.537   5.748
 2988POPC   GL241378   2.604  10.847   5.651
 2988POPC   C1A41379   2.786  10.401   6.213
 2988POPC   D2A41380   2.968  10.109   6.516
 2988POPC   C3A41381   2.962  10.247   6.940
 2988POPC   C4A41382   2.780  10.489   7.292
 2988POPC   C1B41383   2.719  10.900   6.114
 2988POPC   C2B41384   2.616  10.755   6.535
 2988POPC   C3B41385   2.777  10.849   6.946
 2988POPC   C4B41386   3.016  10.931   7.358
 2989POPC   NC341387  27.421  23.067   4.917
 2989POPC   PO441388  27.738  23.265   5.485
 2989POPC   GL141389  27.596  23.223   5.929
 2989POPC   GL241390  27.390  22.930   5.957
 2989POPC   C1A41391  27.566  23.173   6.395
 2989POPC   D2A41392  27.578  23.146   6.851
 2989POPC   C3A41393  27.902  22.974   7.175
 2989POPC   C4A41394  27.926  23.119   7.633
 2989POPC   C1B41395  27.589  22.663   6.291
 2989POPC   C2B41396  27.717  22.676   6.718
 2989POPC   C3B41397  27.459  22.702   7.094
 2989POPC   C4B41398  27.213  22.526   7.444
 2990POPC   NC341399  37.160  23.971   5.411
 2990POPC   PO441400  36.680  23.511   5.436
 2990POPC   GL141401  36.817  23.776   5.776
 2990POPC   GL241402  37.168  23.670   5.811
 2990POPC   C1A41403  36.869  23.963   6.205
 2990POPC   D2A41404  36.936  24.084   6.653
 2990POPC   C3A41405  36.999  23.756   6.995
 2990POPC   C4A41406  36.760  23.413   7.188
 2990POPC   C1B41407  37.120  23.486   6.208
 2990POPC   C2B41408  37.288  23.542   6.609
 2990POPC   C3B41409  37.254  23.322   6.984
 2990POPC   C4B41410  37.263  23.459   7.393
 2991POPC   NC341411  19.011  31.933   5.389
 2991POPC   PO441412  19.265  31.283   5.383
 2991POPC   GL141413  19.018  31.415   5.689
 2991POPC   GL241414  19.188  31.703   5.816
 2991POPC   C1A41415  18.853  31.440   6.100
 2991POPC   D2A41416  19.101  31.392   6.468
 2991POPC   C3A41417  19.002  31.566   6.865
 2991POPC   C4A41418  19.154  31.526   7.278
 2991POPC   C1B41419  19.114  31.857   6.236
 2991POPC   C2B41420  19.104  32.071   6.629
 2991POPC   C3B41421  19.211  31.995   7.057
 2991POPC   C4B41422  19.422  31.953   7.445
 2992POPC   NC341423  14.142  29.955   5.318
 2992POPC   PO441424  14.678  29.662   5.486
 2992POPC   GL141425  14.522  29.618   5.923
 2992POPC   GL241426  14.327  29.873   5.840
 2992POPC   C1A41427  14.174  29.600   6.236
 2992POPC   D2A41428  14.011  29.708   6.675
 2992POPC   C3A41429  14.311  29.653   7.038
 2992POPC   C4A41430  14.312  29.750   7.484
 2992POPC   C1B41431  14.475  30.023   6.284
 2992POPC   C2B41432  14.554  30.035   6.778
 2992POPC   C3B41433  14.381  30.186   7.201
 2992POPC   C4B41434  14.078  30.185   7.601
 2993POPC   NC341435  21.598  13.170   5.199
 2993POPC   PO441436  21.391  13.776   5.281
 2993POPC   GL141437  21.225  13.527   5.744
 2993POPC   GL241438  21.199  13.861   5.920
 2993POPC   C1A41439  21.289  13.482   6.218
 2993POPC   D2A41440  21.026  13.746   6.502
 2993POPC   C3A41441  21.135  13.638   6.911
 2993POPC   C4A41442  21.287  13.342   7.206
 2993POPC   C1B41443  21.450  13.975   6.319
 2993POPC   C2B41444  21.534  13.994   6.771
 2993POPC   C3B41445  21.579  13.768   7.147
 2993POPC   C4B41446  21.556  13.895   7.580
 2994POPC   NC341447   1.378   6.731   4.858
 2994POPC   PO441448   1.031   6.534   5.338
 2994POPC   GL141449   1.228   6.530   5.752
 2994POPC   GL241450   1.585   6.600   5.778
 2994POPC   C1A41451   1.112   6.643   6.152
 2994POPC   D2A41452   0.985   6.425   6.491
 2994POPC   C3A41453   1.096   6.603   6.868
 2994POPC   C4A41454   1.005   6.482   7.268
 2994POPC   C1B41455   1.615   6.559   6.245
 2994POPC   C2B41456   1.562   6.763   6.658
 2994POPC   C3B41457   1.446   6.910   7.093
 2994POPC   C4B41458   1.054   6.996   7.342
 2995POPC   NC341459  14.279  22.516   5.576
 2995POPC   PO441460  14.659  21.966   5.234
 2995POPC   GL141461  14.651  22.233   5.631
 2995POPC   GL241462  14.309  22.080   5.823
 2995POPC   C1A41463  14.595  22.349   6.111
 2995POPC   D2A41464  14.469  22.151   6.489
 2995POPC   C3A41465  14.632  22.378   6.834
 2995POPC   C4A41466  14.520  22.354   7.281
 2995POPC   C1B41467  14.062  22.252   6.164
 2995POPC   C2B41468  14.018  22.372   6.595
 2995POPC   C3B41469  14.177  22.186   6.961
 2995POPC   C4B41470  14.413  21.858   7.160
 2996POPC   NC341471  29.702  41.802   5.251
 2996POPC   PO441472  30.297  41.474   5.246
 2996POPC   GL141473  30.049  41.807   5.603
 2996POPC   GL241474  29.838  41.533   5.710
 2996POPC   C1A41475  29.892  41.836   6.114
 2996POPC   D2A41476  29.697  41.614   6.525
 2996POPC   C3A41477  29.914  41.568   6.950
 2996POPC   C4A41478  30.147  41.276   7.232
 2996POPC   C1B41479  29.645  41.321   6.116
 2996POPC   C2B41480  29.642  41.087   6.534
 2996POPC   C3B41481  29.704  41.081   6.975
 2996POPC   C4B41482  29.499  41.362   7.207
 2997POPC   NC341483  28.686  17.603   5.213
 2997POPC   PO441484  29.324  17.532   5.361
 2997POPC   GL141485  29.011  17.693   5.653
 2997POPC   GL241486  29.286  17.829   5.853
 2997POPC   C1A41487  28.848  17.799   6.093
 2997POPC   D2A41488  29.066  17.842   6.499
 2997POPC   C3A41489  28.842  17.832   6.910
 2997POPC   C4A41490  28.803  17.520   7.255
 2997POPC   C1B41491  29.476  17.545   6.180
 2997POPC   C2B41492  29.696  17.417   6.578
 2997POPC   C3B41493  29.571  17.499   7.005
 2997POPC   C4B41494  29.246  17.775   7.219
 2998POPC   NC341495   8.925   5.300   5.508
 2998POPC   PO441496   9.221   4.755   5.182
 2998POPC   GL141497   9.170   4.850   5.716
 2998POPC   GL241498   9.159   5.142   5.926
 2998POPC   C1A41499   8.829   4.787   6.098
 2998POPC   D2A41500   8.666   5.004   6.487
 2998POPC   C3A41501   8.922   5.038   6.885
 2998POPC   C4A41502   9.022   5.189   7.283
 2998POPC   C1B41503   9.193   5.061   6.355
 2998POPC   C2B41504   9.445   5.315   6.594
 2998POPC   C3B41505   9.360   5.412   6.989
 2998POPC   C4B41506   9.477   5.310   7.413
 2999POPC   NC341507  39.184  37.571   5.440
 2999POPC   PO441508  38.613  37.397   5.642
 2999POPC   GL141509  38.976  37.616   5.903
 2999POPC   GL241510  39.278  37.856   5.901
 2999POPC   C1A41511  39.193  37.594   6.331
 2999POPC   D2A41512  39.499  37.507   6.690
 2999POPC   C3A41513  39.331  37.652   7.097
 2999POPC   C4A41514  38.873  37.677   7.211
 2999POPC   C1B41515  39.526  37.996   6.248
 2999POPC   C2B41516  39.521  38.023   6.705
 2999POPC   C3B41517  39.751  37.976   7.099
 2999POPC   C4B41518  39.680  37.748   7.511
 3000POPC   NC341519   0.157  44.571   5.622
 3000POPC   PO441520  44.625  44.301   5.602
 3000POPC   GL141521  44.538  44.659   5.941
 3000POPC   GL241522  44.210  44.868   5.970
 3000POPC   C1A41523  44.670  44.636   6.364
 3000POPC   D2A41524  44.924  44.393   6.640
 3000POPC   C3A41525  44.790  44.438   7.051
 3000POPC   C4A41526  44.422  44.281   7.234
 3000POPC   C1B41527  44.155  44.635   6.361
 3000POPC   C2B41528  44.326  44.517   6.769
 3000POPC   C3B41529  44.403  44.779   7.119
 3000POPC   C4B41530  44.367  44.784   7.564
 3001POPC   NC341531   9.877  27.946   5.474
 3001POPC   PO441532   9.610  27.329   5.661
 3001POPC   GL141533   9.936  27.570   5.852
 3001POPC   GL241534   9.796  27.875   6.004
 3001POPC   C1A41535  10.173  27.519   6.234
 3001POPC   D2A41536  10.070  27.335   6.649
 3001POPC   C3A41537  10.018  27.508   7.082
 3001POPC   C4A41538   9.769  27.844   7.206
 3001POPC   C1B41539   9.657  27.569   6.356
 3001POPC   C2B41540   9.569  27.467   6.826
 3001POPC   C3B41541   9.579  27.305   7.272
 3001POPC   C4B41542   9.416  27.498   7.658
 3002POPC   NC341543  35.548  12.895   5.222
 3002POPC   PO441544  34.877  13.059   5.479
 3002POPC   GL141545  35.259  12.919   5.709
 3002POPC   GL241546  35.595  12.753   5.703
 3002POPC   C1A41547  35.415  13.067   6.135
 3002POPC   D2A41548  35.416  13.255   6.584
 3002POPC   C3A41549  35.395  12.975   6.964
 3002POPC   C4A41550  35.091  12.687   7.174
 3002POPC   C1B41551  35.632  12.597   6.119
 3002POPC   C2B41552  35.642  12.389   6.509
 3002POPC   C3B41553  35.398  12.351   6.860
 3002POPC   C4B41554  35.571  12.537   7.210
 3003POPC   NC341555   1.427  16.267   4.945
 3003POPC   PO441556   1.505  16.592   5.473
 3003POPC   GL141557   1.453  16.620   5.864
 3003POPC   GL241558   1.244  16.367   5.953
 3003POPC   C1A41559   1.266  16.840   6.205
 3003POPC   D2A41560   1.142  16.724   6.617
 3003POPC   C3A41561   1.349  16.886   6.985
 3003POPC   C4A41562   1.209  16.951   7.416
 3003POPC   C1B41563   1.475  16.394   6.355
 3003POPC   C2B41564   1.481  16.390   6.811
 3003POPC   C3B41565   1.059  16.432   7.046
 3003POPC   C4B41566   0.971  16.507   7.501
 3004POPC   NC341567  42.810  24.735   5.482
 3004POPC   PO441568  43.311  24.259   5.575
 3004POPC   GL141569  43.177  24.572   5.829
 3004POPC   GL241570  42.905  24.404   5.929
 3004POPC   C1A41571  43.161  24.673   6.279
 3004POPC   D2A41572  42.928  24.680   6.660
 3004POPC   C3A41573  42.991  24.329   6.936
 3004POPC   C4A41574  43.258  24.586   7.143
 3004POPC   C1B41575  42.676  24.699   6.161
 3004POPC   C2B41576  42.469  24.880   6.508
 3004POPC   C3B41577  42.576  24.932   6.951
 3004POPC   C4B41578  42.762  24.659   7.242
 3005POPC   NC341579  38.723  22.831   5.404
 3005POPC   PO441580  38.085  22.816   5.424
 3005POPC   GL141581  38.396  22.829   5.810
 3005POPC   GL241582  38.716  23.074   5.856
 3005POPC   C1A41583  38.359  23.029   6.227
 3005POPC   D2A41584  38.147  23.299   6.529
 3005POPC   C3A41585  38.142  23.034   6.923
 3005POPC   C4A41586  38.448  22.704   7.074
 3005POPC   C1B41587  38.847  23.181   6.304
 3005POPC   C2B41588  38.621  23.049   6.693
 3005POPC   C3B41589  38.689  23.167   7.135
 3005POPC   C4B41590  38.937  23.322   7.503
 3006POPC   NC341591  17.787  17.700   5.395
 3006POPC   PO441592  17.256  17.465   5.423
 3006POPC   GL141593  17.405  17.615   5.840
 3006POPC   GL241594  17.773  17.543   5.881
 3006POPC   C1A41595  17.483  17.693   6.299
 3006POPC   D2A41596  17.479  17.483   6.737
 3006POPC   C3A41597  17.096  17.524   7.054
 3006POPC   C4A41598  17.060  17.593   7.537
 3006POPC   C1B41599  18.039  17.353   6.203
 3006POPC   C2B41600  18.038  17.197   6.650
 3006POPC   C3B41601  17.929  17.393   7.051
 3006POPC   C4B41602  17.564  17.574   7.262
 3007POPC   NC341603  13.976  41.240   5.400
 3007POPC   PO441604  13.447  41.709   5.207
 3007POPC   GL141605  13.600  41.676   5.726
 3007POPC   GL241606  13.266  41.731   5.921
 3007POPC   C1A41607  13.689  41.835   6.169
 3007POPC   D2A41608  13.378  41.782   6.551
 3007POPC   C3A41609  13.547  41.673   6.966
 3007POPC   C4A41610  13.522  41.709   7.421
 3007POPC   C1B41611  13.459  41.387   6.189
 3007POPC   C2B41612  13.474  41.137   6.534
 3007POPC   C3B41613  13.668  41.142   6.927
 3007POPC   C4B41614  13.403  41.222   7.221
 3008POPC   NC341615  34.729  18.128   5.003
 3008POPC   PO441616  35.088  18.360   5.505
 3008POPC   GL141617  35.054  18.322   5.890
 3008POPC   GL241618  35.401  18.468   5.927
 3008POPC   C1A41619  35.065  18.358   6.317
 3008POPC   D2A41620  35.395  18.408   6.582
 3008POPC   C3A41621  35.238  18.403   7.001
 3008POPC   C4A41622  35.426  18.600   7.373
 3008POPC   C1B41623  35.735  18.249   6.147
 3008POPC   C2B41624  35.936  18.188   6.555
 3008POPC   C3B41625  35.745  18.266   6.944
 3008POPC   C4B41626  35.546  18.109   7.282
 3009POPC   NC341627  20.461  39.321   5.392
 3009POPC   PO441628  21.106  39.271   5.239
 3009POPC   GL141629  20.842  39.173   5.727
 3009POPC   GL241630  20.484  39.053   5.839
 3009POPC   C1A41631  20.667  39.336   6.203
 3009POPC   D2A41632  20.400  39.228   6.604
 3009POPC   C3A41633  20.653  39.232   7.007
 3009POPC   C4A41634  20.639  39.469   7.435
 3009POPC   C1B41635  20.326  38.820   6.227
 3009POPC   C2B41636  20.299  38.656   6.677
 3009POPC   C3B41637  20.246  38.718   7.136
 3009POPC   C4B41638  20.520  38.954   7.410
 3010POPC   NC341639  33.982  19.770   5.248
 3010POPC   PO441640  33.654  20.303   5.472
 3010POPC   GL141641  33.821  20.012   5.832
 3010POPC   GL241642  33.914  19.663   5.775
 3010POPC   C1A41643  33.813  19.794   6.272
 3010POPC   D2A41644  34.006  19.865   6.688
 3010POPC   C3A41645  33.713  19.784   7.061
 3010POPC   C4A41646  33.660  19.962   7.487
 3010POPC   C1B41647  34.103  19.404   6.118
 3010POPC   C2B41648  33.979  19.347   6.549
 3010POPC   C3B41649  34.105  19.440   6.982
 3010POPC   C4B41650  34.019  19.586   7.433
 3011POPC   NC341651  24.471  11.974   5.352
 3011POPC   PO441652  25.063  12.166   5.468
 3011POPC   GL141653  24.709  12.269   5.748
 3011POPC   GL241654  24.346  12.165   5.820
 3011POPC   C1A41655  24.616  12.425   6.157
 3011POPC   D2A41656  24.404  12.488   6.548
 3011POPC   C3A41657  24.430  12.281   6.977
 3011POPC   C4A41658  24.675  11.981   7.249
 3011POPC   C1B41659  24.113  12.230   6.210
 3011POPC   C2B41660  24.231  11.972   6.581
 3011POPC   C3B41661  24.130  11.878   7.025
 3011POPC   C4B41662  24.248  12.060   7.472
 3012POPC   NC341663  32.740  44.919   5.544
 3012POPC   PO441664  32.809   0.622   5.464
 3012POPC   GL141665  33.019   0.377   5.811
 3012POPC   GL241666  32.798   0.130   6.000
 3012POPC   C1A41667  33.203   0.579   6.193
 3012POPC   D2A41668  33.013   0.702   6.581
 3012POPC   C3A41669  32.876   0.359   6.825
 3012POPC   C4A41670  33.207   0.307   7.091
 3012POPC   C1B41671  32.680   0.542   6.184
 3012POPC   C2B41672  32.488   0.689   6.570
 3012POPC   C3B41673  32.676   0.818   6.965
 3012POPC   C4B41674  32.786   0.519   7.315
 3013POPC   NC341675  22.305  19.986   5.441
 3013POPC   PO441676  21.726  19.669   5.389
 3013POPC   GL141677  21.910  19.905   5.743
 3013POPC   GL241678  22.200  19.718   5.931
 3013POPC   C1A41679  22.017  20.100   6.171
 3013POPC   D2A41680  22.251  19.834   6.480
 3013POPC   C3A41681  22.096  19.777   6.903
 3013POPC   C4A41682  22.122  19.858   7.324
 3013POPC   C1B41683  22.448  19.427   6.205
 3013POPC   C2B41684  22.369  19.355   6.656
 3013POPC   C3B41685  22.548  19.557   7.022
 3013POPC   C4B41686  22.453  19.525   7.471
 3014POPC   NC341687  37.099  23.293   5.403
 3014POPC   PO441688  36.722  22.795   5.402
 3014POPC   GL141689  36.669  22.954   5.831
 3014POPC   GL241690  36.846  23.250   5.845
 3014POPC   C1A41691  36.739  23.053   6.296
 3014POPC   D2A41692  36.845  23.262   6.669
 3014POPC   C3A41693  36.828  22.939   6.964
 3014POPC   C4A41694  36.470  22.727   7.170
 3014POPC   C1B41695  37.170  22.966   6.055
 3014POPC   C2B41696  37.251  22.948   6.510
 3014POPC   C3B41697  37.353  22.823   6.937
 3014POPC   C4B41698  37.162  22.954   7.345
 3015POPC   NC341699  17.674  22.966   5.465
 3015POPC   PO441700  17.044  23.120   5.315
 3015POPC   GL141701  17.271  22.932   5.748
 3015POPC   GL241702  17.579  23.094   5.951
 3015POPC   C1A41703  17.251  22.776   6.163
 3015POPC   D2A41704  17.488  22.986   6.502
 3015POPC   C3A41705  17.306  22.989   6.893
 3015POPC   C4A41706  17.295  22.720   7.235
 3015POPC   C1B41707  17.812  22.740   6.177
 3015POPC   C2B41708  17.843  22.617   6.624
 3015POPC   C3B41709  17.770  22.829   7.012
 3015POPC   C4B41710  17.585  23.212   7.269
 3016POPC   NC341711  29.021  42.991   5.038
 3016POPC   PO441712  29.469  42.978   5.544
 3016POPC   GL141713  29.145  43.140   5.806
 3016POPC   GL241714  29.219  43.488   5.869
 3016POPC   C1A41715  29.015  43.091   6.183
 3016POPC   D2A41716  29.038  42.874   6.558
 3016POPC   C3A41717  29.078  43.089   6.954
 3016POPC   C4A41718  29.089  42.878   7.380
 3016POPC   C1B41719  29.383  43.421   6.298
 3016POPC   C2B41720  29.433  43.618   6.696
 3016POPC   C3B41721  29.478  43.386   7.067
 3016POPC   C4B41722  29.358  43.350   7.450
 3017POPC   NC341723  40.795  32.453   5.394
 3017POPC   PO441724  41.318  31.953   5.415
 3017POPC   GL141725  41.037  32.128   5.693
 3017POPC   GL241726  41.220  32.426   5.762
 3017POPC   C1A41727  40.763  32.273   6.057
 3017POPC   D2A41728  40.657  32.061   6.448
 3017POPC   C3A41729  40.559  32.299   6.825
 3017POPC   C4A41730  40.643  32.326   7.271
 3017POPC   C1B41731  41.261  32.165   6.143
 3017POPC   C2B41732  41.081  32.336   6.514
 3017POPC   C3B41733  41.068  32.373   6.959
 3017POPC   C4B41734  41.090  32.040   7.272
 3018POPC   NC341735  14.025  37.372   5.377
 3018POPC   PO441736  14.740  37.368   5.369
 3018POPC   GL141737  14.660  37.516   5.746
 3018POPC   GL241738  14.361  37.694   5.688
 3018POPC   C1A41739  14.603  37.558   6.157
 3018POPC   D2A41740  14.312  37.548   6.443
 3018POPC   C3A41741  14.372  37.485   6.876
 3018POPC   C4A41742  14.171  37.297   7.238
 3018POPC   C1B41743  14.271  37.935   6.097
 3018POPC   C2B41744  14.144  38.048   6.513
 3018POPC   C3B41745  14.306  37.986   6.904
 3018POPC   C4B41746  14.179  37.798   7.269
 3019POPC   NC341747  27.602  16.429   5.662
 3019POPC   PO441748  27.810  17.050   5.574
 3019POPC   GL141749  27.721  16.874   5.956
 3019POPC   GL241750  27.776  16.516   6.118
 3019POPC   C1A41751  27.894  16.916   6.366
 3019POPC   D2A41752  27.691  16.847   6.759
 3019POPC   C3A41753  27.756  16.597   7.115
 3019POPC   C4A41754  27.771  16.804   7.518
 3019POPC   C1B41755  27.406  16.727   6.329
 3019POPC   C2B41756  27.191  16.901   6.704
 3019POPC   C3B41757  27.356  16.925   7.145
 3019POPC   C4B41758  27.289  16.663   7.511
 3020POPC   NC341759  40.365  14.672   5.334
 3020POPC   PO441760  40.665  14.128   5.429
 3020POPC   GL141761  40.761  14.258   5.830
 3020POPC   GL241762  40.587  14.569   5.871
 3020POPC   C1A41763  40.903  14.065   6.215
 3020POPC   D2A41764  41.044  13.905   6.635
 3020POPC   C3A41765  40.898  14.146   7.001
 3020POPC   C4A41766  40.911  14.593   7.140
 3020POPC   C1B41767  40.412  14.341   6.246
 3020POPC   C2B41768  40.259  14.360   6.703
 3020POPC   C3B41769  40.403  14.545   7.120
 3020POPC   C4B41770  40.498  14.774   7.560
 3021POPC   NC341771  42.685  39.074   5.129
 3021POPC   PO441772  42.080  39.072   5.420
 3021POPC   GL141773  42.277  39.202   5.771
 3021POPC   GL241774  42.624  39.133   5.654
 3021POPC   C1A41775  42.229  39.443   6.151
 3021POPC   D2A41776  42.133  39.597   6.558
 3021POPC   C3A41777  42.194  39.368   6.911
 3021POPC   C4A41778  42.185  39.002   7.143
 3021POPC   C1B41779  42.691  39.178   6.108
 3021POPC   C2B41780  42.556  39.244   6.539
 3021POPC   C3B41781  42.760  39.182   6.946
 3021POPC   C4B41782  42.696  38.891   7.239
 3022POPC   NC341783  30.903   0.121   5.636
 3022POPC   PO441784  31.005  44.529   5.264
 3022POPC   GL141785  30.996  44.559   5.721
 3022POPC   GL241786  30.667  44.689   5.825
 3022POPC   C1A41787  31.012  44.596   6.198
 3022POPC   D2A41788  30.762  44.737   6.580
 3022POPC   C3A41789  30.833  44.606   7.013
 3022POPC   C4A41790  30.801  44.757   7.460
 3022POPC   C1B41791  30.430  44.863   6.192
 3022POPC   C2B41792  30.273  44.914   6.622
 3022POPC   C3B41793  30.424  44.938   7.079
 3022POPC   C4B41794  30.337  44.985   7.537
 3023POPC   NC341795  10.269  23.253   5.437
 3023POPC   PO441796  10.775  22.805   5.507
 3023POPC   GL141797  10.494  22.927   5.797
 3023POPC   GL241798  10.642  23.232   5.867
 3023POPC   C1A41799  10.395  22.773   6.198
 3023POPC   D2A41800  10.491  22.976   6.568
 3023POPC   C3A41801  10.403  22.778   6.943
 3023POPC   C4A41802  10.601  22.985   7.279
 3023POPC   C1B41803  10.292  23.296   6.176
 3023POPC   C2B41804  10.235  23.414   6.624
 3023POPC   C3B41805  10.233  23.278   7.077
 3023POPC   C4B41806  10.239  23.288   7.551
 3024POPC   NC341807  12.013  18.010   5.288
 3024POPC   PO441808  12.448  18.468   5.582
 3024POPC   GL141809  12.377  18.183   5.929
 3024POPC   GL241810  12.030  18.128   5.862
 3024POPC   C1A41811  12.254  18.165   6.369
 3024POPC   D2A41812  12.066  18.012   6.748
 3024POPC   C3A41813  12.248  18.285   7.006
 3024POPC   C4A41814  12.135  18.698   7.129
 3024POPC   C1B41815  11.939  18.492   6.151
 3024POPC   C2B41816  11.930  18.524   6.639
 3024POPC   C3B41817  11.709  18.354   7.047
 3024POPC   C4B41818  11.323  18.388   7.392
 3025POPC   NC341819   8.048  32.847   5.264
 3025POPC   PO441820   8.033  33.559   5.202
 3025POPC   GL141821   8.124  33.255   5.592
 3025POPC   GL241822   8.422  33.203   5.749
 3025POPC   C1A41823   8.027  33.094   6.064
 3025POPC   D2A41824   8.214  32.858   6.464
 3025POPC   C3A41825   8.097  32.891   6.923
 3025POPC   C4A41826   7.865  33.121   7.240
 3025POPC   C1B41827   8.551  33.039   6.127
 3025POPC   C2B41828   8.662  33.187   6.527
 3025POPC   C3B41829   8.615  33.263   6.964
 3025POPC   C4B41830   8.368  33.110   7.316
 3026POPC   NC341831  24.082  29.368   5.178
 3026POPC   PO441832  23.565  29.073   5.187
 3026POPC   GL141833  23.557  29.202   5.638
 3026POPC   GL241834  23.204  29.306   5.725
 3026POPC   C1A41835  23.758  29.382   6.055
 3026POPC   D2A41836  23.688  29.526   6.501
 3026POPC   C3A41837  23.941  29.349   6.880
 3026POPC   C4A41838  23.953  29.004   7.254
 3026POPC   C1B41839  23.329  29.107   6.092
 3026POPC   C2B41840  23.262  29.193   6.506
 3026POPC   C3B41841  23.436  29.285   6.884
 3026POPC   C4B41842  23.270  29.208   7.262
 3027POPC   NC341843  30.088  21.152   5.507
 3027POPC   PO441844  29.701  21.651   5.340
 3027POPC   GL141845  29.847  21.508   5.771
 3027POPC   GL241846  30.130  21.702   5.856
 3027POPC   C1A41847  29.850  21.389   6.233
 3027POPC   D2A41848  29.734  21.584   6.654
 3027POPC   C3A41849  29.848  21.404   7.048
 3027POPC   C4A41850  30.145  21.143   7.207
 3027POPC   C1B41851  30.297  21.671   6.305
 3027POPC   C2B41852  30.261  21.639   6.759
 3027POPC   C3B41853  30.317  21.623   7.205
 3027POPC   C4B41854  30.042  21.616   7.539
 3028POPC   NC341855  19.655  39.663   5.181
 3028POPC   PO441856  20.110  40.168   5.387
 3028POPC   GL141857  20.138  40.202   5.854
 3028POPC   GL241858  19.793  40.088   6.031
 3028POPC   C1A41859  20.179  40.106   6.322
 3028POPC   D2A41860  19.765  40.037   6.547
 3028POPC   C3A41861  19.784  40.025   6.972
 3028POPC   C4A41862  20.195  40.146   7.080
 3028POPC   C1B41863  19.557  39.708   6.226
 3028POPC   C2B41864  19.429  39.649   6.684
 3028POPC   C3B41865  19.490  39.636   7.146
 3028POPC   C4B41866  19.629  39.781   7.586
 3029POPC   NC341867  13.518  26.301   5.434
 3029POPC   PO441868  13.513  26.963   5.329
 3029POPC   GL141869  13.545  26.745   5.728
 3029POPC   GL241870  13.268  26.535   5.815
 3029POPC   C1A41871  13.695  26.806   6.150
 3029POPC   D2A41872  14.050  26.933   6.415
 3029POPC   C3A41873  13.941  26.807   6.814
 3029POPC   C4A41874  13.610  26.973   7.040
 3029POPC   C1B41875  13.287  26.505   6.263
 3029POPC   C2B41876  13.446  26.642   6.655
 3029POPC   C3B41877  13.309  26.577   7.082
 3029POPC   C4B41878  13.155  26.793   7.433
 3030POPC   NC341879  42.774  23.827   5.192
 3030POPC   PO441880  42.137  23.899   5.400
 3030POPC   GL141881  42.014  23.779   5.843
 3030POPC   GL241882  41.939  23.432   5.911
 3030POPC   C1A41883  42.133  23.760   6.288
 3030POPC   D2A41884  42.236  24.004   6.656
 3030POPC   C3A41885  42.151  23.861   7.083
 3030POPC   C4A41886  42.220  23.947   7.531
 3030POPC   C1B41887  42.138  23.225   6.281
 3030POPC   C2B41888  42.387  23.382   6.651
 3030POPC   C3B41889  42.338  23.338   7.095
 3030POPC   C4B41890  42.091  23.454   7.492
 3031POPC   NC341891  11.783   6.694   5.281
 3031POPC   PO441892  12.321   6.296   5.318
 3031POPC   GL141893  12.122   6.519   5.678
 3031POPC   GL241894  12.281   6.814   5.816
 3031POPC   C1A41895  12.057   6.521   6.159
 3031POPC   D2A41896  11.957   6.803   6.514
 3031POPC   C3A41897  11.969   6.626   6.925
 3031POPC   C4A41898  12.057   6.530   7.346
 3031POPC   C1B41899  12.351   6.995   6.210
 3031POPC   C2B41900  12.359   7.143   6.640
 3031POPC   C3B41901  12.215   7.072   7.076
 3031POPC   C4B41902  12.050   7.006   7.491
 3032POPC   NC341903  40.508  38.398   5.469
 3032POPC   PO441904  41.106  38.165   5.421
 3032POPC   GL141905  41.013  38.447   5.809
 3032POPC   GL241906  40.673  38.587   5.896
 3032POPC   C1A41907  40.961  38.520   6.291
 3032POPC   D2A41908  40.714  38.355   6.629
 3032POPC   C3A41909  40.838  38.468   7.052
 3032POPC   C4A41910  40.998  38.179   7.340
 3032POPC   C1B41911  40.404  38.445   6.216
 3032POPC   C2B41912  40.266  38.612   6.607
 3032POPC   C3B41913  40.417  38.809   6.944
 3032POPC   C4B41914  40.527  38.722   7.389
 3033POPC   NC341915  29.061  33.892   5.289
 3033POPC   PO441916  29.511  34.225   5.621
 3033POPC   GL141917  29.255  33.884   5.873
 3033POPC   GL241918  28.935  33.682   5.776
 3033POPC   C1A41919  29.286  33.711   6.316
 3033POPC   D2A41920  29.434  33.567   6.743
 3033POPC   C3A41921  29.386  33.826   7.090
 3033POPC   C4A41922  29.123  34.182   7.199
 3033POPC   C1B41923  28.809  33.540   6.218
 3033POPC   C2B41924  28.914  33.582   6.672
 3033POPC   C3B41925  28.841  33.751   7.091
 3033POPC   C4B41926  28.910  33.607   7.505
 3034POPC   NC341927   4.778   7.743   5.427
 3034POPC   PO441928   4.126   7.745   5.367
 3034POPC   GL141929   4.384   7.595   5.743
 3034POPC   GL241930   4.246   7.258   5.744
 3034POPC   C1A41931   4.587   7.517   6.179
 3034POPC   D2A41932   4.444   7.739   6.580
 3034POPC   C3A41933   4.578   7.687   7.014
 3034POPC   C4A41934   4.489   7.532   7.454
 3034POPC   C1B41935   4.078   7.362   6.142
 3034POPC   C2B41936   4.287   7.237   6.507
 3034POPC   C3B41937   4.215   7.061   6.873
 3034POPC   C4B41938   4.116   7.418   7.127
 3035POPC   NC341939   2.854   5.157   5.311
 3035POPC   PO441940   2.516   4.817   5.618
 3035POPC   GL141941   2.872   4.890   5.884
 3035POPC   GL241942   2.998   5.229   5.801
 3035POPC   C1A41943   2.944   4.830   6.342
 3035POPC   D2A41944   3.043   4.824   6.782
 3035POPC   C3A41945   2.702   4.957   7.065
 3035POPC   C4A41946   2.548   4.769   7.464
 3035POPC   C1B41947   2.868   5.352   6.217
 3035POPC   C2B41948   2.787   5.266   6.639
 3035POPC   C3B41949   2.942   5.439   7.000
 3035POPC   C4B41950   3.254   5.549   7.288
 3036POPC   NC341951  26.344  18.050   5.431
 3036POPC   PO441952  25.836  18.505   5.315
 3036POPC   GL141953  25.990  18.405   5.706
 3036POPC   GL241954  25.784  18.644   5.851
 3036POPC   C1A41955  26.252  18.471   6.104
 3036POPC   D2A41956  26.188  18.228   6.504
 3036POPC   C3A41957  26.354  18.323   6.900
 3036POPC   C4A41958  26.611  18.065   7.073
 3036POPC   C1B41959  25.768  18.351   6.214
 3036POPC   C2B41960  25.714  18.317   6.676
 3036POPC   C3B41961  25.872  18.293   7.079
 3036POPC   C4B41962  26.124  18.603   7.266
 3037POPC   NC341963  25.080   5.797   5.633
 3037POPC   PO441964  25.530   6.242   5.338
 3037POPC   GL141965  25.512   6.074   5.724
 3037POPC   GL241966  25.222   6.250   5.816
 3037POPC   C1A41967  25.715   5.861   6.075
 3037POPC   D2A41968  25.699   5.558   6.435
 3037POPC   C3A41969  25.539   5.639   6.875
 3037POPC   C4A41970  25.132   5.721   7.089
 3037POPC   C1B41971  25.236   6.007   6.231
 3037POPC   C2B41972  25.215   6.047   6.693
 3037POPC   C3B41973  25.143   6.232   7.110
 3037POPC   C4B41974  24.836   6.234   7.439
 3038POPC   NC341975   5.682  22.090   5.383
 3038POPC   PO441976   5.657  22.738   5.347
 3038POPC   GL141977   5.777  22.445   5.750
 3038POPC   GL241978   6.009  22.108   5.853
 3038POPC   C1A41979   5.673  22.263   6.162
 3038POPC   D2A41980   5.917  22.142   6.496
 3038POPC   C3A41981   5.732  22.216   6.904
 3038POPC   C4A41982   5.887  22.139   7.340
 3038POPC   C1B41983   6.188  21.808   6.161
 3038POPC   C2B41984   6.087  21.666   6.569
 3038POPC   C3B41985   6.208  21.964   6.890
 3038POPC   C4B41986   6.258  21.764   7.249
 3039POPC   NC341987  24.371   8.738   5.563
 3039POPC   PO441988  24.415   9.341   5.276
 3039POPC   GL141989  24.473   9.249   5.723
 3039POPC   GL241990  24.784   8.999   5.750
 3039POPC   C1A41991  24.301   9.205   6.177
 3039POPC   D2A41992  24.511   9.098   6.587
 3039POPC   C3A41993  24.339   9.081   7.015
 3039POPC   C4A41994  24.329   8.644   7.234
 3039POPC   C1B41995  24.828   8.692   6.133
 3039POPC   C2B41996  24.983   8.762   6.568
 3039POPC   C3B41997  24.744   8.767   6.953
 3039POPC   C4B41998  24.740   9.036   7.335
 3040POPC   NC341999  44.186   2.041   5.445
 3040POPC   PO442000  43.655   1.687   5.398
 3040POPC   GL142001  43.629   1.916   5.803
 3040POPC   GL242002  43.896   2.193   5.880
 3040POPC   C1A42003  43.671   1.871   6.253
 3040POPC   D2A42004  43.921   2.093   6.522
 3040POPC   C3A42005  43.803   2.187   6.942
 3040POPC   C4A42006  43.718   1.859   7.137
 3040POPC   C1B42007  44.170   1.895   6.105
 3040POPC   C2B42008  44.325   1.809   6.534
 3040POPC   C3B42009  44.217   1.871   6.968
 3040POPC   C4B42010  44.341   1.764   7.391
 3041POPC   NC342011  32.398  43.996   5.367
 3041POPC   PO442012  32.113  43.487   5.669
 3041POPC   GL142013  32.410  43.683   5.855
 3041POPC   GL242014  32.240  43.991   5.860
 3041POPC   C1A42015  32.375  43.707   6.288
 3041POPC   D2A42016  32.348  44.003   6.581
 3041POPC   C3A42017  32.408  43.782   6.962
 3041POPC   C4A42018  32.409  43.911   7.406
 3041POPC   C1B42019  31.937  44.212   6.140
 3041POPC   C2B42020  31.909  44.288   6.605
 3041POPC   C3B42021  32.155  44.230   7.014
 3041POPC   C4B42022  32.006  44.205   7.451
 3042POPC   NC342023  23.413  11.870   5.427
 3042POPC   PO442024  23.493  12.566   5.568
 3042POPC   GL142025  23.729  12.268   5.808
 3042POPC   GL242026  23.896  11.965   5.672
 3042POPC   C1A42027  23.519  12.033   6.121
 3042POPC   D2A42028  23.509  12.189   6.524
 3042POPC   C3A42029  23.889  12.318   6.762
 3042POPC   C4A42030  23.901  12.339   7.223
 3042POPC   C1B42031  23.940  11.763   6.111
 3042POPC   C2B42032  23.767  11.747   6.563
 3042POPC   C3B42033  23.607  11.941   6.976
 3042POPC   C4B42034  23.779  11.856   7.406
 3043POPC   NC342035  11.459  27.833   5.546
 3043POPC   PO442036  11.114  27.192   5.491
 3043POPC   GL142037  11.370  27.366   5.782
 3043POPC   GL242038  11.678  27.199   5.837
 3043POPC   C1A42039  11.181  27.574   6.116
 3043POPC   D2A42040  11.142  27.492   6.531
 3043POPC   C3A42041  10.908  27.768   6.765
 3043POPC   C4A42042  11.148  27.871   7.114
 3043POPC   C1B42043  11.677  27.462   6.226
 3043POPC   C2B42044  11.667  27.700   6.638
 3043POPC   C3B42045  11.576  27.546   7.064
 3043POPC   C4B42046  11.567  27.326   7.461
 3044POPC   NC342047   1.668  34.917   5.134
 3044POPC   PO442048   2.183  34.732   5.419
 3044POPC   GL142049   2.266  34.660   5.856
 3044POPC   GL242050   2.214  34.294   5.963
 3044POPC   C1A42051   2.033  34.768   6.243
 3044POPC   D2A42052   1.617  34.608   6.405
 3044POPC   C3A42053   1.617  34.496   6.838
 3044POPC   C4A42054   1.916  34.401   7.167
 3044POPC   C1B42055   2.109  34.303   6.417
 3044POPC   C2B42056   2.132  34.624   6.732
 3044POPC   C3B42057   2.346  34.711   7.104
 3044POPC   C4B42058   2.359  34.371   7.453
 3045POPC   NC342059  21.648  33.921   5.428
 3045POPC   PO442060  21.144  33.363   5.309
 3045POPC   GL142061  21.236  33.680   5.636
 3045POPC   GL242062  21.522  33.529   5.743
 3045POPC   C1A42063  21.141  33.681   6.127
 3045POPC   D2A42064  21.019  33.893   6.542
 3045POPC   C3A42065  21.052  33.683   6.944
 3045POPC   C4A42066  21.326  33.833   7.262
 3045POPC   C1B42067  21.649  33.595   6.149
 3045POPC   C2B42068  21.454  33.559   6.548
 3045POPC   C3B42069  21.644  33.730   6.887
 3045POPC   C4B42070  21.824  33.648   7.271
 3046POPC   NC342071  26.573  43.721   5.279
 3046POPC   PO442072  27.240  43.717   5.347
 3046POPC   GL142073  27.065  43.738   5.825
 3046POPC   GL242074  27.008  44.082   5.894
 3046POPC   C1A42075  26.890  43.763   6.286
 3046POPC   D2A42076  26.805  43.930   6.701
 3046POPC   C3A42077  26.901  43.747   7.094
 3046POPC   C4A42078  26.744  43.746   7.535
 3046POPC   C1B42079  26.753  44.256   6.259
 3046POPC   C2B42080  26.659  44.430   6.684
 3046POPC   C3B42081  26.760  44.319   7.118
 3046POPC   C4B42082  27.053  44.124   7.409
 3047POPC   NC342083  22.656  22.770   5.340
 3047POPC   PO442084  22.057  22.826   5.301
 3047POPC   GL142085  22.310  22.976   5.686
 3047POPC   GL242086  22.039  23.199   5.813
 3047POPC   C1A42087  22.361  22.998   6.144
 3047POPC   D2A42088  22.075  23.081   6.489
 3047POPC   C3A42089  22.367  22.985   6.859
 3047POPC   C4A42090  22.393  23.112   7.283
 3047POPC   C1B42091  21.904  22.788   5.994
 3047POPC   C2B42092  21.732  22.538   6.344
 3047POPC   C3B42093  21.751  22.557   6.816
 3047POPC   C4B42094  21.927  22.888   7.129
 3048POPC   NC342095  30.229  42.680   5.560
 3048POPC   PO442096  29.910  42.265   5.110
 3048POPC   GL142097  29.920  42.308   5.638
 3048POPC   GL242098  30.222  42.245   5.862
 3048POPC   C1A42099  29.763  42.358   6.121
 3048POPC   D2A42100  29.567  42.107   6.500
 3048POPC   C3A42101  29.656  42.233   6.954
 3048POPC   C4A42102  29.983  42.054   7.247
 3048POPC   C1B42103  30.246  42.524   6.253
 3048POPC   C2B42104  30.315  42.514   6.724
 3048POPC   C3B42105  30.427  42.780   7.068
 3048POPC   C4B42106  30.182  42.855   7.413
 3049POPC   NC342107  27.726   7.059   5.378
 3049POPC   PO442108  27.869   6.345   5.473
 3049POPC   GL142109  27.669   6.509   5.849
 3049POPC   GL242110  27.321   6.680   5.812
 3049POPC   C1A42111  27.436   6.359   6.230
 3049POPC   D2A42112  27.217   6.573   6.571
 3049POPC   C3A42113  27.399   6.401   6.937
 3049POPC   C4A42114  27.762   6.374   7.170
 3049POPC   C1B42115  27.549   6.851   6.207
 3049POPC   C2B42116  27.704   6.754   6.638
 3049POPC   C3B42117  27.509   6.879   7.036
 3049POPC   C4B42118  27.500   6.735   7.447
 3050POPC   NC342119  20.809  16.963   5.432
 3050POPC   PO442120  21.079  16.476   5.055
 3050POPC   GL142121  20.677  16.491   5.537
 3050POPC   GL242122  20.476  16.751   5.775
 3050POPC   C1A42123  20.743  16.501   6.079
 3050POPC   D2A42124  20.403  16.643   6.397
 3050POPC   C3A42125  20.476  16.530   6.826
 3050POPC   C4A42126  20.910  16.554   6.991
 3050POPC   C1B42127  20.201  17.021   6.092
 3050POPC   C2B42128  20.219  17.162   6.554
 3050POPC   C3B42129  20.299  17.055   7.011
 3050POPC   C4B42130  20.340  17.152   7.452
 3051POPC   NC342131  24.844  19.037   5.311
 3051POPC   PO442132  25.507  19.080   5.211
 3051POPC   GL142133  25.379  18.921   5.618
 3051POPC   GL242134  25.140  19.201   5.705
 3051POPC   C1A42135  25.430  19.001   6.068
 3051POPC   D2A42136  25.363  19.127   6.510
 3051POPC   C3A42137  25.576  18.915   6.838
 3051POPC   C4A42138  25.392  18.990   7.223
 3051POPC   C1B42139  24.942  18.844   5.970
 3051POPC   C2B42140  24.920  18.688   6.417
 3051POPC   C3B42141  24.946  18.900   6.828
 3051POPC   C4B42142  24.890  19.113   7.216
 3052POPC   NC342143  26.458  37.534   5.589
 3052POPC   PO442144  27.013  37.748   5.285
 3052POPC   GL142145  26.909  37.767   5.708
 3052POPC   GL242146  26.975  37.430   5.718
 3052POPC   C1A42147  26.694  37.760   6.140
 3052POPC   D2A42148  26.651  37.550   6.546
 3052POPC   C3A42149  26.758  37.831   6.873
 3052POPC   C4A42150  27.147  38.056   7.003
 3052POPC   C1B42151  26.939  37.292   6.155
 3052POPC   C2B42152  26.955  37.107   6.593
 3052POPC   C3B42153  26.828  37.293   7.004
 3052POPC   C4B42154  27.038  37.621   7.230
 3053POPC   NC342155   1.828  38.473   5.310
 3053POPC   PO442156   2.427  38.189   5.557
 3053POPC   GL142157   2.101  38.257   5.890
 3053POPC   GL242158   1.737  38.347   5.802
 3053POPC   C1A42159   2.208  38.452   6.297
 3053POPC   D2A42160   2.179  38.819   6.549
 3053POPC   C3A42161   1.937  38.676   6.888
 3053POPC   C4A42162   1.931  38.279   7.144
 3053POPC   C1B42163   1.624  38.402   6.235
 3053POPC   C2B42164   1.582  38.242   6.663
 3053POPC   C3B42165   1.456  38.495   7.012
 3053POPC   C4B42166   1.549  38.603   7.447
 3054POPC   NC342167  12.596  40.664   5.330
 3054POPC   PO442168  13.167  40.350   5.269
 3054POPC   GL142169  13.007  40.598   5.649
 3054POPC   GL242170  12.970  40.976   5.612
 3054POPC   C1A42171  13.015  40.685   6.100
 3054POPC   D2A42172  13.056  40.580   6.562
 3054POPC   C3A42173  13.252  40.809   6.908
 3054POPC   C4A42174  13.049  40.672   7.285
 3054POPC   C1B42175  12.804  41.145   6.010
 3054POPC   C2B42176  12.834  41.030   6.452
 3054POPC   C3B42177  12.761  40.942   6.881
 3054POPC   C4B42178  12.905  41.150   7.237
 3055POPC   NC342179   5.305  17.533   5.492
 3055POPC   PO442180   4.730  17.274   5.485
 3055POPC   GL142181   4.913  17.568   5.821
 3055POPC   GL242182   5.181  17.347   5.945
 3055POPC   C1A42183   5.065  17.708   6.281
 3055POPC   D2A42184   5.195  17.791   6.718
 3055POPC   C3A42185   5.086  17.697   7.153
 3055POPC   C4A42186   5.075  17.354   7.448
 3055POPC   C1B42187   4.794  17.273   6.210
 3055POPC   C2B42188   4.650  17.429   6.613
 3055POPC   C3B42189   4.755  17.278   7.048
 3055POPC   C4B42190   4.592  17.088   7.456
 3056POPC   NC342191   7.169  22.152   5.262
 3056POPC   PO442192   7.881  22.030   5.442
 3056POPC   GL142193   7.487  22.128   5.698
 3056POPC   GL242194   7.393  22.458   5.648
 3056POPC   C1A42195   7.226  22.111   6.116
 3056POPC   D2A42196   7.408  22.119   6.536
 3056POPC   C3A42197   7.285  21.934   6.894
 3056POPC   C4A42198   7.482  22.025   7.296
 3056POPC   C1B42199   7.317  22.608   6.096
 3056POPC   C2B42200   7.220  22.587   6.550
 3056POPC   C3B42201   7.366  22.455   6.991
 3056POPC   C4B42202   7.317  22.489   7.473
 3057POPC   NC342203  18.053   8.919   5.362
 3057POPC   PO442204  18.761   8.855   5.318
 3057POPC   GL142205  18.463   8.810   5.710
 3057POPC   GL242206  18.191   9.050   5.856
 3057POPC   C1A42207  18.525   8.778   6.172
 3057POPC   D2A42208  18.367   8.688   6.611
 3057POPC   C3A42209  18.534   8.981   6.943
 3057POPC   C4A42210  18.386   9.212   7.350
 3057POPC   C1B42211  17.857   9.246   6.178
 3057POPC   C2B42212  17.861   9.339   6.647
 3057POPC   C3B42213  17.954   9.155   7.061
 3057POPC   C4B42214  17.896   9.255   7.516
 3058POPC   NC342215   3.845  23.144   5.632
 3058POPC   PO442216   3.318  22.991   5.213
 3058POPC   GL142217   3.528  22.771   5.718
 3058POPC   GL242218   3.333  22.517   5.882
 3058POPC   C1A42219   3.663  22.914   6.225
 3058POPC   D2A42220   3.667  23.186   6.669
 3058POPC   C3A42221   3.740  23.062   7.119
 3058POPC   C4A42222   3.580  22.724   7.326
 3058POPC   C1B42223   3.168  22.789   6.193
 3058POPC   C2B42224   3.207  23.044   6.526
 3058POPC   C3B42225   3.273  22.911   6.936
 3058POPC   C4B42226   3.233  23.116   7.310
 3059POPC   NC342227  22.492   2.560   5.001
 3059POPC   PO442228  22.478   2.942   5.402
 3059POPC   GL142229  22.482   2.797   5.859
 3059POPC   GL242230  22.193   2.962   6.006
 3059POPC   C1A42231  22.418   2.599   6.295
 3059POPC   D2A42232  22.528   2.752   6.740
 3059POPC   C3A42233  22.204   2.859   7.070
 3059POPC   C4A42234  21.803   2.692   7.260
 3059POPC   C1B42235  22.255   3.082   6.452
 3059POPC   C2B42236  22.277   3.418   6.758
 3059POPC   C3B42237  22.238   3.381   7.198
 3059POPC   C4B42238  22.474   3.134   7.481
 3060POPC   NC342239  38.199  30.848   5.631
 3060POPC   PO442240  38.612  30.276   5.625
 3060POPC   GL142241  38.565  30.577   5.902
 3060POPC   GL242242  38.716  30.862   5.747
 3060POPC   C1A42243  38.453  30.552   6.342
 3060POPC   D2A42244  38.653  30.442   6.743
 3060POPC   C3A42245  38.357  30.453   7.090
 3060POPC   C4A42246  38.214  30.747   7.453
 3060POPC   C1B42247  38.690  30.992   6.185
 3060POPC   C2B42248  38.446  31.003   6.586
 3060POPC   C3B42249  38.602  30.920   6.981
 3060POPC   C4B42250  38.801  31.193   7.295
 3061POPC   NC342251  21.762  32.446   5.461
 3061POPC   PO442252  21.583  31.840   5.315
 3061POPC   GL142253  21.553  31.989   5.718
 3061POPC   GL242254  21.256  31.876   5.851
 3061POPC   C1A42255  21.569  32.168   6.144
 3061POPC   D2A42256  21.336  32.399   6.466
 3061POPC   C3A42257  21.434  32.339   6.910
 3061POPC   C4A42258  21.601  32.039   7.218
 3061POPC   C1B42259  21.120  31.932   6.223
 3061POPC   C2B42260  21.312  31.911   6.595
 3061POPC   C3B42261  21.075  31.929   6.948
 3061POPC   C4B42262  21.018  32.240   7.190
 3062POPC   NC342263  41.665  43.948   5.292
 3062POPC   PO442264  41.010  44.082   5.199
 3062POPC   GL142265  41.220  44.072   5.704
 3062POPC   GL242266  41.473  43.822   5.768
 3062POPC   C1A42267  41.292  43.880   6.224
 3062POPC   D2A42268  41.408  44.066   6.611
 3062POPC   C3A42269  41.454  43.783   6.957
 3062POPC   C4A42270  41.139  43.627   7.234
 3062POPC   C1B42271  41.673  44.160   6.074
 3062POPC   C2B42272  41.864  44.270   6.523
 3062POPC   C3B42273  41.745  44.220   7.006
 3062POPC   C4B42274  41.658  43.914   7.409
 3063POPC   NC342275   7.616   2.893   5.430
 3063POPC   PO442276   7.006   3.058   5.572
 3063POPC   GL142277   7.317   3.042   5.859
 3063POPC   GL242278   7.392   2.690   5.864
 3063POPC   C1A42279   7.272   2.930   6.297
 3063POPC   D2A42280   7.161   2.679   6.651
 3063POPC   C3A42281   7.398   2.847   6.986
 3063POPC   C4A42282   7.355   3.069   7.352
 3063POPC   C1B42283   7.642   2.583   6.235
 3063POPC   C2B42284   7.553   2.341   6.617
 3063POPC   C3B42285   7.370   2.337   7.017
 3063POPC   C4B42286   7.779   2.509   7.132
 3064POPC   NC342287  22.633   4.987   5.457
 3064POPC   PO442288  23.189   5.354   5.447
 3064POPC   GL142289  22.988   5.200   5.814
 3064POPC   GL242290  22.701   5.367   5.790
 3064POPC   C1A42291  22.966   5.052   6.262
 3064POPC   D2A42292  23.065   5.276   6.662
 3064POPC   C3A42293  22.885   5.104   7.055
 3064POPC   C4A42294  23.009   4.711   7.278
 3064POPC   C1B42295  22.853   5.533   6.195
 3064POPC   C2B42296  22.740   5.689   6.599
 3064POPC   C3B42297  22.919   5.622   7.005
 3064POPC   C4B42298  22.674   5.516   7.309
 3065POPC   NC342299  13.646   3.414   5.466
 3065POPC   PO442300  13.970   4.017   5.603
 3065POPC   GL142301  13.763   3.746   5.884
 3065POPC   GL242302  13.398   3.758   5.823
 3065POPC   C1A42303  13.605   3.503   6.249
 3065POPC   D2A42304  13.654   3.396   6.681
 3065POPC   C3A42305  13.572   3.695   7.048
 3065POPC   C4A42306  13.702   3.462   7.424
 3065POPC   C1B42307  13.202   3.812   6.243
 3065POPC   C2B42308  13.238   3.715   6.651
 3065POPC   C3B42309  13.158   3.394   6.948
 3065POPC   C4B42310  13.233   3.273   7.362
 3066POPC   NC342311  16.652  18.830   5.496
 3066POPC   PO442312  17.176  19.323   5.419
 3066POPC   GL142313  16.933  19.150   5.774
 3066POPC   GL242314  16.523  19.147   5.870
 3066POPC   C1A42315  16.886  19.013   6.177
 3066POPC   D2A42316  16.574  19.124   6.453
 3066POPC   C3A42317  16.673  19.409   6.754
 3066POPC   C4A42318  16.752  19.220   7.135
 3066POPC   C1B42319  16.304  18.823   6.103
 3066POPC   C2B42320  16.212  18.777   6.530
 3066POPC   C3B42321  16.323  18.999   6.908
 3066POPC   C4B42322  16.466  18.838   7.296
 3067POPC   NC342323  22.364  13.208   5.468
 3067POPC   PO442324  21.855  12.787   5.281
 3067POPC   GL142325  22.010  12.826   5.791
 3067POPC   GL242326  22.362  12.842   5.877
 3067POPC   C1A42327  22.033  12.787   6.283
 3067POPC   D2A42328  21.787  12.908   6.663
 3067POPC   C3A42329  22.016  12.774   6.986
 3067POPC   C4A42330  22.088  12.479   7.315
 3067POPC   C1B42331  22.234  13.221   6.140
 3067POPC   C2B42332  22.102  13.310   6.576
 3067POPC   C3B42333  22.258  13.220   6.991
 3067POPC   C4B42334  22.392  12.927   7.281
 3068POPC   NC342335  43.457  33.408   5.437
 3068POPC   PO442336  43.120  34.028   5.476
 3068POPC   GL142337  43.373  33.860   5.780
 3068POPC   GL242338  43.320  34.175   5.934
 3068POPC   C1A42339  43.269  33.551   6.088
 3068POPC   D2A42340  43.018  33.534   6.457
 3068POPC   C3A42341  43.218  33.772   6.766
 3068POPC   C4A42342  43.218  33.777   7.186
 3068POPC   C1B42343  43.022  34.011   6.229
 3068POPC   C2B42344  42.892  34.162   6.634
 3068POPC   C3B42345  42.925  34.159   7.080
 3068POPC   C4B42346  43.155  34.266   7.477
 3069POPC   NC342347  17.033   1.242   5.669
 3069POPC   PO442348  16.564   1.115   5.117
 3069POPC   GL142349  16.544   1.056   5.589
 3069POPC   GL242350  16.557   1.415   5.715
 3069POPC   C1A42351  16.365   1.097   6.051
 3069POPC   D2A42352  16.606   1.004   6.433
 3069POPC   C3A42353  16.405   0.921   6.823
 3069POPC   C4A42354  16.468   1.033   7.220
 3069POPC   C1B42355  16.777   1.504   6.159
 3069POPC   C2B42356  16.993   1.326   6.491
 3069POPC   C3B42357  16.809   1.250   6.867
 3069POPC   C4B42358  16.953   1.191   7.247
 3070POPC   NC342359  23.288  33.145   5.266
 3070POPC   PO442360  22.599  33.106   5.229
 3070POPC   GL142361  22.704  33.098   5.716
 3070POPC   GL242362  23.048  32.970   5.699
 3070POPC   C1A42363  22.825  32.877   6.159
 3070POPC   D2A42364  22.845  32.737   6.611
 3070POPC   C3A42365  22.780  32.956   7.010
 3070POPC   C4A42366  22.598  32.617   7.268
 3070POPC   C1B42367  23.366  32.918   6.006
 3070POPC   C2B42368  23.330  32.830   6.420
 3070POPC   C3B42369  23.271  32.951   6.809
 3070POPC   C4B42370  23.305  33.032   7.208
 3071POPC   NC342371  18.180   4.066   4.993
 3071POPC   PO442372  18.070   4.603   5.424
 3071POPC   GL142373  18.150   4.379   5.809
 3071POPC   GL242374  17.914   4.591   5.923
 3071POPC   C1A42375  18.299   4.413   6.240
 3071POPC   D2A42376  18.316   4.646   6.603
 3071POPC   C3A42377  18.401   4.402   6.980
 3071POPC   C4A42378  18.149   4.058   7.188
 3071POPC   C1B42379  17.827   4.719   6.329
 3071POPC   C2B42380  17.670   4.610   6.673
 3071POPC   C3B42381  17.942   4.642   7.018
 3071POPC   C4B42382  17.901   4.454   7.408
 3072POPC   NC342383  30.612  44.227   5.295
 3072POPC   PO442384  31.125  43.787   5.325
 3072POPC   GL142385  30.949  43.965   5.796
 3072POPC   GL242386  30.636  44.172   5.821
 3072POPC   C1A42387  30.720  43.863   6.263
 3072POPC   D2A42388  30.415  43.589   6.560
 3072POPC   C3A42389  30.417  43.668   7.005
 3072POPC   C4A42390  30.819  43.689   7.170
 3072POPC   C1B42391  30.535  44.354   6.240
 3072POPC   C2B42392  30.629  44.227   6.668
 3072POPC   C3B42393  30.596  44.161   7.112
 3072POPC   C4B42394  30.448  44.408   7.470
 3073POPC   NC342395  32.142   8.491   5.366
 3073POPC   PO442396  32.001   7.832   5.515
 3073POPC   GL142397  32.221   8.129   5.761
 3073POPC   GL242398  31.985   8.370   5.832
 3073POPC   C1A42399  32.527   8.307   6.067
 3073POPC   D2A42400  32.736   8.271   6.475
 3073POPC   C3A42401  32.485   7.975   6.745
 3073POPC   C4A42402  32.475   7.926   7.225
 3073POPC   C1B42403  32.006   8.380   6.231
 3073POPC   C2B42404  32.256   8.435   6.595
 3073POPC   C3B42405  32.147   8.287   6.986
 3073POPC   C4B42406  31.887   8.134   7.313
 3074POPC   NC342407  36.254  12.141   5.137
 3074POPC   PO442408  35.813  12.057   5.557
 3074POPC   GL142409  36.069  12.035   5.888
 3074POPC   GL242410  36.436  12.041   5.919
 3074POPC   C1A42411  36.069  12.246   6.257
 3074POPC   D2A42412  36.241  12.186   6.659
 3074POPC   C3A42413  35.938  12.228   6.965
 3074POPC   C4A42414  36.026  12.071   7.335
 3074POPC   C1B42415  36.673  11.761   6.195
 3074POPC   C2B42416  36.695  11.918   6.616
 3074POPC   C3B42417  36.523  11.931   7.047
 3074POPC   C4B42418  36.508  12.017   7.510
 3075POPC   NC342419  15.385  10.614   5.697
 3075POPC   PO442420  15.912  10.759   5.312
 3075POPC   GL142421  15.990  10.659   5.786
 3075POPC   GL242422  15.801  10.379   5.918
 3075POPC   C1A42423  16.205  10.523   6.207
 3075POPC   D2A42424  16.331  10.626   6.657
 3075POPC   C3A42425  16.075  10.635   7.044
 3075POPC   C4A42426  16.196  10.524   7.435
 3075POPC   C1B42427  15.706  10.656   6.268
 3075POPC   C2B42428  15.779  10.487   6.658
 3075POPC   C3B42429  15.566  10.396   7.023
 3075POPC   C4B42430  15.647  10.598   7.384
 3076POPC   NC342431  44.503  40.970   5.054
 3076POPC   PO442432   0.019  40.596   5.379
 3076POPC   GL142433  44.828  40.649   5.746
 3076POPC   GL242434  44.698  40.959   5.780
 3076POPC   C1A42435  44.901  40.673   6.196
 3076POPC   D2A42436  44.709  40.441   6.540
 3076POPC   C3A42437  44.811  40.616   6.930
 3076POPC   C4A42438  44.949  41.016   7.012
 3076POPC   C1B42439  44.529  41.073   6.176
 3076POPC   C2B42440  44.618  41.007   6.610
 3076POPC   C3B42441  44.385  40.996   7.004
 3076POPC   C4B42442  44.173  40.596   7.145
 3077POPC   NC342443  25.192  38.914   5.383
 3077POPC   PO442444  25.635  38.335   5.368
 3077POPC   GL142445  25.377  38.572   5.748
 3077POPC   GL242446  25.050  38.725   5.830
 3077POPC   C1A42447  25.231  38.416   6.182
 3077POPC   D2A42448  25.295  38.159   6.549
 3077POPC   C3A42449  25.221  38.362   6.961
 3077POPC   C4A42450  25.605  38.287   7.177
 3077POPC   C1B42451  24.916  38.836   6.245
 3077POPC   C2B42452  25.088  38.900   6.665
 3077POPC   C3B42453  25.035  38.866   7.102
 3077POPC   C4B42454  25.227  38.710   7.488
 3078POPC   NC342455  33.090   8.136   5.350
 3078POPC   PO442456  32.597   8.630   5.426
 3078POPC   GL142457  32.965   8.430   5.767
 3078POPC   GL242458  33.237   8.083   5.813
 3078POPC   C1A42459  33.234   8.430   6.163
 3078POPC   D2A42460  33.318   8.559   6.584
 3078POPC   C3A42461  33.086   8.280   6.894
 3078POPC   C4A42462  32.663   8.365   7.021
 3078POPC   C1B42463  32.972   7.928   6.129
 3078POPC   C2B42464  33.012   7.852   6.563
 3078POPC   C3B42465  32.871   7.728   6.964
 3078POPC   C4B42466  32.983   7.946   7.319
 3079POPC   NC342467   2.910  38.202   5.468
 3079POPC   PO442468   2.937  38.821   5.118
 3079POPC   GL142469   2.919  38.704   5.596
 3079POPC   GL242470   3.220  38.600   5.784
 3079POPC   C1A42471   2.709  38.568   6.043
 3079POPC   D2A42472   2.682  38.658   6.519
 3079POPC   C3A42473   2.445  38.491   6.882
 3079POPC   C4A42474   2.567  38.283   7.272
 3079POPC   C1B42475   3.162  38.685   6.240
 3079POPC   C2B42476   3.198  38.582   6.666
 3079POPC   C3B42477   2.944  38.595   7.015
 3079POPC   C4B42478   3.058  38.802   7.373
 3080POPC   NC342479  38.951  26.918   5.165
 3080POPC   PO442480  39.288  26.536   5.637
 3080POPC   GL142481  39.351  26.673   6.012
 3080POPC   GL242482  39.015  26.747   6.082
 3080POPC   C1A42483  39.532  26.607   6.407
 3080POPC   D2A42484  39.277  26.734   6.724
 3080POPC   C3A42485  39.340  26.605   7.136
 3080POPC   C4A42486  39.165  26.806   7.483
 3080POPC   C1B42487  39.237  27.090   6.301
 3080POPC   C2B42488  39.146  27.262   6.673
 3080POPC   C3B42489  39.276  27.126   7.052
 3080POPC   C4B42490  39.527  27.128   7.420
 3081POPC   NC342491  36.254  42.748   5.583
 3081POPC   PO442492  35.900  43.266   5.445
 3081POPC   GL142493  35.920  43.082   5.842
 3081POPC   GL242494  36.254  43.181   5.910
 3081POPC   C1A42495  35.979  43.002   6.299
 3081POPC   D2A42496  36.081  43.218   6.674
 3081POPC   C3A42497  36.047  43.049   7.053
 3081POPC   C4A42498  36.319  42.980   7.378
 3081POPC   C1B42499  36.498  43.410   6.195
 3081POPC   C2B42500  36.490  43.532   6.593
 3081POPC   C3B42501  36.444  43.400   7.009
 3081POPC   C4B42502  36.334  43.480   7.450
 3082POPC   NC342503   0.386  33.333   5.447
 3082POPC   PO442504  44.937  32.837   5.265
 3082POPC   GL142505   0.128  32.918   5.725
 3082POPC   GL242506   0.495  32.987   5.780
 3082POPC   C1A42507   0.241  32.902   6.210
 3082POPC   D2A42508   0.155  33.186   6.569
 3082POPC   C3A42509   0.127  32.991   7.001
 3082POPC   C4A42510   0.152  33.004   7.470
 3082POPC   C1B42511   0.836  33.144   6.057
 3082POPC   C2B42512   0.940  33.034   6.477
 3082POPC   C3B42513   0.772  32.903   6.861
 3082POPC   C4B42514   0.612  33.069   7.213
 3083POPC   NC342515  24.350  27.805   5.519
 3083POPC   PO442516  24.790  27.342   5.495
 3083POPC   GL142517  24.672  27.531   5.923
 3083POPC   GL242518  24.563  27.872   6.005
 3083POPC   C1A42519  24.632  27.568   6.414
 3083POPC   D2A42520  24.397  27.602   6.788
 3083POPC   C3A42521  24.368  27.360   7.188
 3083POPC   C4A42522  24.357  27.478   7.640
 3083POPC   C1B42523  24.292  28.153   6.218
 3083POPC   C2B42524  24.116  28.083   6.612
 3083POPC   C3B42525  24.476  28.092   6.838
 3083POPC   C4B42526  24.545  27.831   7.220
 3084POPC   NC342527   0.912   3.477   5.371
 3084POPC   PO442528   0.299   3.845   5.494
 3084POPC   GL142529   0.493   3.573   5.781
 3084POPC   GL242530   0.808   3.728   5.807
 3084POPC   C1A42531   0.401   3.435   6.190
 3084POPC   D2A42532   0.112   3.306   6.534
 3084POPC   C3A42533   0.317   3.418   6.908
 3084POPC   C4A42534   0.470   3.337   7.296
 3084POPC   C1B42535   0.773   3.842   6.276
 3084POPC   C2B42536   0.836   3.929   6.724
 3084POPC   C3B42537   0.781   3.822   7.167
 3084POPC   C4B42538   0.606   3.710   7.589
 3085POPC   NC342539  27.179   8.471   5.449
 3085POPC   PO442540  26.707   8.120   5.140
 3085POPC   GL142541  26.826   8.145   5.674
 3085POPC   GL242542  26.988   8.427   5.909
 3085POPC   C1A42543  26.742   7.988   6.115
 3085POPC   D2A42544  26.582   8.175   6.520
 3085POPC   C3A42545  26.668   7.962   6.912
 3085POPC   C4A42546  26.799   8.074   7.327
 3085POPC   C1B42547  27.212   8.191   6.219
 3085POPC   C2B42548  27.112   8.073   6.641
 3085POPC   C3B42549  26.982   8.385   6.937
 3085POPC   C4B42550  26.900   8.571   7.322
 3086POPC   NC342551  27.126  30.097   5.229
 3086POPC   PO442552  26.464  30.064   5.376
 3086POPC   GL142553  26.810  30.055   5.648
 3086POPC   GL242554  26.710  29.797   5.857
 3086POPC   C1A42555  26.979  30.181   6.087
 3086POPC   D2A42556  27.081  30.012   6.498
 3086POPC   C3A42557  27.137  30.006   6.940
 3086POPC   C4A42558  27.192  29.660   7.224
 3086POPC   C1B42559  26.639  29.832   6.301
 3086POPC   C2B42560  26.606  29.945   6.707
 3086POPC   C3B42561  26.676  29.791   7.088
 3086POPC   C4B42562  26.489  29.964   7.416
 3087POPC   NC342563  19.444   6.899   5.430
 3087POPC   PO442564  19.338   6.242   5.486
 3087POPC   GL142565  19.035   6.354   5.826
 3087POPC   GL242566  18.943   6.716   5.816
 3087POPC   C1A42567  19.158   6.542   6.244
 3087POPC   D2A42568  19.219   6.887   6.566
 3087POPC   C3A42569  19.233   6.676   6.992
 3087POPC   C4A42570  19.529   6.345   7.130
 3087POPC   C1B42571  18.798   7.066   6.090
 3087POPC   C2B42572  18.704   7.198   6.500
 3087POPC   C3B42573  18.581   6.982   6.867
 3087POPC   C4B42574  18.889   6.995   7.185
 3088POPC   NC342575   4.153   9.988   5.349
 3088POPC   PO442576   4.558   9.489   5.577
 3088POPC   GL142577   4.496   9.781   5.861
 3088POPC   GL242578   4.148   9.840   5.832
 3088POPC   C1A42579   4.672   9.811   6.277
 3088POPC   D2A42580   4.543   9.760   6.706
 3088POPC   C3A42581   4.194   9.528   6.814
 3088POPC   C4A42582   4.117   9.372   7.212
 3088POPC   C1B42583   4.184   9.962   6.242
 3088POPC   C2B42584   4.385  10.220   6.535
 3088POPC   C3B42585   4.181  10.171   6.877
 3088POPC   C4B42586   4.129   9.883   7.182
 3089POPC   NC342587  32.878  19.155   5.105
 3089POPC   PO442588  32.240  19.209   5.404
 3089POPC   GL142589  32.132  19.042   5.828
 3089POPC   GL242590  32.232  18.728   5.867
 3089POPC   C1A42591  32.131  18.931   6.308
 3089POPC   D2A42592  31.979  18.834   6.697
 3089POPC   C3A42593  32.237  19.057   6.896
 3089POPC   C4A42594  32.227  19.363   7.209
 3089POPC   C1B42595  32.589  18.784   6.173
 3089POPC   C2B42596  32.744  18.882   6.608
 3089POPC   C3B42597  32.609  18.728   7.038
 3089POPC   C4B42598  32.192  18.750   7.278
 3090POPC   NC342599  27.003  31.418   5.453
 3090POPC   PO442600  26.498  31.893   5.373
 3090POPC   GL142601  26.669  31.645   5.762
 3090POPC   GL242602  26.654  31.308   5.957
 3090POPC   C1A42603  26.900  31.680   6.179
 3090POPC   D2A42604  26.824  31.446   6.541
 3090POPC   C3A42605  26.877  31.629   6.946
 3090POPC   C4A42606  26.688  31.446   7.329
 3090POPC   C1B42607  27.077  31.185   6.144
 3090POPC   C2B42608  27.271  31.228   6.577
 3090POPC   C3B42609  27.117  31.197   7.008
 3090POPC   C4B42610  27.109  31.079   7.440
 3091POPC   NC342611  33.852  24.542   5.218
 3091POPC   PO442612  33.400  24.305   5.543
 3091POPC   GL142613  33.864  24.320   5.710
 3091POPC   GL242614  33.909  24.638   5.861
 3091POPC   C1A42615  34.105  24.261   6.145
 3091POPC   D2A42616  33.911  24.272   6.581
 3091POPC   C3A42617  34.002  24.286   7.026
 3091POPC   C4A42618  33.618  24.336   7.294
 3091POPC   C1B42619  33.895  24.728   6.329
 3091POPC   C2B42620  33.910  24.755   6.798
 3091POPC   C3B42621  33.889  24.777   7.271
 3091POPC   C4B42622  34.029  24.680   7.736
 3092POPC   NC342623  39.228  23.195   5.179
 3092POPC   PO442624  39.110  22.555   5.351
 3092POPC   GL142625  39.139  22.809   5.706
 3092POPC   GL242626  39.381  23.068   5.692
 3092POPC   C1A42627  39.021  22.742   6.119
 3092POPC   D2A42628  39.130  22.805   6.549
 3092POPC   C3A42629  38.943  22.753   6.940
 3092POPC   C4A42630  39.031  22.853   7.342
 3092POPC   C1B42631  39.461  23.037   6.157
 3092POPC   C2B42632  39.438  23.199   6.597
 3092POPC   C3B42633  39.406  22.989   7.005
 3092POPC   C4B42634  39.414  23.225   7.374
 3093POPC   NC342635  34.927   8.327   5.471
 3093POPC   PO442636  34.292   8.104   5.396
 3093POPC   GL142637  34.247   8.297   5.796
 3093POPC   GL242638  34.584   8.446   5.851
 3093POPC   C1A42639  34.224   8.349   6.240
 3093POPC   D2A42640  34.412   8.362   6.635
 3093POPC   C3A42641  34.129   8.247   6.915
 3093POPC   C4A42642  34.216   8.125   7.321
 3093POPC   C1B42643  34.780   8.447   6.283
 3093POPC   C2B42644  34.913   8.240   6.698
 3093POPC   C3B42645  34.719   8.198   7.112
 3093POPC   C4B42646  34.676   8.172   7.558
 3094POPC   NC342647   5.548   1.997   4.907
 3094POPC   PO442648   6.003   2.100   5.358
 3094POPC   GL142649   5.960   2.110   5.794
 3094POPC   GL242650   6.165   1.811   5.798
 3094POPC   C1A42651   5.758   2.216   6.193
 3094POPC   D2A42652   5.723   1.903   6.509
 3094POPC   C3A42653   5.964   1.930   6.891
 3094POPC   C4A42654   5.882   2.126   7.268
 3094POPC   C1B42655   6.242   1.653   6.205
 3094POPC   C2B42656   6.080   1.525   6.573
 3094POPC   C3B42657   6.204   1.467   6.968
 3094POPC   C4B42658   5.941   1.568   7.324
 3095POPC   NC342659  35.257  34.835   5.352
 3095POPC   PO442660  35.575  34.297   5.404
 3095POPC   GL142661  35.405  34.281   5.811
 3095POPC   GL242662  35.278  34.596   5.855
 3095POPC   C1A42663  35.311  34.191   6.239
 3095POPC   D2A42664  35.387  34.483   6.537
 3095POPC   C3A42665  35.401  34.348   6.964
 3095POPC   C4A42666  35.058  34.539   7.164
 3095POPC   C1B42667  35.551  34.861   6.093
 3095POPC   C2B42668  35.590  35.031   6.510
 3095POPC   C3B42669  35.384  34.864   6.873
 3095POPC   C4B42670  35.330  34.951   7.277
 3096POPC   NC342671  13.209  19.315   5.547
 3096POPC   PO442672  13.822  19.015   5.446
 3096POPC   GL142673  13.557  18.964   5.781
 3096POPC   GL242674  13.255  18.775   5.684
 3096POPC   C1A42675  13.572  19.191   6.189
 3096POPC   D2A42676  13.760  19.281   6.598
 3096POPC   C3A42677  13.631  19.111   7.007
 3096POPC   C4A42678  13.772  19.075   7.439
 3096POPC   C1B42679  13.284  18.730   6.134
 3096POPC   C2B42680  13.531  18.788   6.509
 3096POPC   C3B42681  13.320  18.744   6.880
 3096POPC   C4B42682  13.433  18.711   7.310
 3097POPC   NC342683  13.141   1.719   5.440
 3097POPC   PO442684  13.667   2.224   5.395
 3097POPC   GL142685  13.444   2.114   5.749
 3097POPC   GL242686  13.751   2.141   5.950
 3097POPC   C1A42687  13.302   2.056   6.185
 3097POPC   D2A42688  13.536   1.930   6.545
 3097POPC   C3A42689  13.451   1.993   6.968
 3097POPC   C4A42690  13.740   2.028   7.316
 3097POPC   C1B42691  13.691   2.394   6.328
 3097POPC   C2B42692  13.702   2.413   6.781
 3097POPC   C3B42693  13.751   2.576   7.202
 3097POPC   C4B42694  13.656   2.458   7.631
 3098POPC   NC342695  44.665  31.523   5.418
 3098POPC   PO442696   0.290  31.406   5.386
 3098POPC   GL142697   0.022  31.408   5.805
 3098POPC   GL242698  44.861  31.710   5.843
 3098POPC   C1A42699  44.909  31.459   6.286
 3098POPC   D2A42700  44.490  31.378   6.505
 3098POPC   C3A42701  44.451  31.435   6.948
 3098POPC   C4A42702  44.811  31.312   7.218
 3098POPC   C1B42703  44.551  31.795   6.186
 3098POPC   C2B42704  44.438  31.875   6.612
 3098POPC   C3B42705  44.228  31.908   7.000
 3098POPC   C4B42706  44.432  31.780   7.366
 3099POPC   NC342707  15.370   5.005   5.791
 3099POPC   PO442708  15.862   5.344   5.470
 3099POPC   GL142709  15.975   5.214   5.922
 3099POPC   GL242710  15.775   4.933   6.122
 3099POPC   C1A42711  16.044   5.306   6.361
 3099POPC   D2A42712  15.728   5.360   6.654
 3099POPC   C3A42713  15.862   5.210   7.043
 3099POPC   C4A42714  15.664   5.224   7.413
 3099POPC   C1B42715  16.224   4.824   6.190
 3099POPC   C2B42716  16.470   4.859   6.574
 3099POPC   C3B42717  16.357   4.913   7.035
 3099POPC   C4B42718  16.091   4.918   7.425
 3100POPC   NC342719  17.004  29.346   5.357
 3100POPC   PO442720  16.496  28.970   5.172
 3100POPC   GL142721  16.528  28.983   5.659
 3100POPC   GL242722  16.881  28.894   5.738
 3100POPC   C1A42723  16.627  29.128   6.104
 3100POPC   D2A42724  17.001  29.211   6.397
 3100POPC   C3A42725  16.970  29.173   6.860
 3100POPC   C4A42726  16.650  29.037   7.124
 3100POPC   C1B42727  16.918  28.721   6.196
 3100POPC   C2B42728  16.761  28.781   6.592
 3100POPC   C3B42729  16.911  28.633   6.952
 3100POPC   C4B42730  17.162  28.810   7.202
 3101POPC   NC342731  19.782   6.190   5.401
 3101POPC   PO442732  19.908   6.834   5.309
 3101POPC   GL142733  19.878   6.627   5.719
 3101POPC   GL242734  20.183   6.396   5.752
 3101POPC   C1A42735  19.676   6.615   6.159
 3101POPC   D2A42736  19.553   6.485   6.604
 3101POPC   C3A42737  19.716   6.805   6.897
 3101POPC   C4A42738  20.115   6.887   7.143
 3101POPC   C1B42739  20.200   6.677   6.133
 3101POPC   C2B42740  20.061   6.613   6.571
 3101POPC   C3B42741  20.027   6.409   7.005
 3101POPC   C4B42742  20.335   6.462   7.327
 3102POPC   NC342743  13.448   4.714   5.499
 3102POPC   PO442744  13.551   4.117   5.192
 3102POPC   GL142745  13.536   4.251   5.683
 3102POPC   GL242746  13.817   4.492   5.806
 3102POPC   C1A42747  13.570   4.175   6.143
 3102POPC   D2A42748  13.405   4.204   6.575
 3102POPC   C3A42749  13.658   4.287   6.929
 3102POPC   C4A42750  13.737   4.215   7.358
 3102POPC   C1B42751  14.052   4.602   6.227
 3102POPC   C2B42752  14.086   4.479   6.690
 3102POPC   C3B42753  13.931   4.709   7.089
 3102POPC   C4B42754  13.940   4.641   7.566
 3103POPC   NC342755  41.252   2.396   5.447
 3103POPC   PO442756  41.781   2.907   5.536
 3103POPC   GL142757  41.575   2.612   5.776
 3103POPC   GL242758  41.222   2.792   5.776
 3103POPC   C1A42759  41.424   2.556   6.189
 3103POPC   D2A42760  41.580   2.859   6.509
 3103POPC   C3A42761  41.587   2.760   6.963
 3103POPC   C4A42762  41.514   2.477   7.302
 3103POPC   C1B42763  41.144   2.959   6.213
 3103POPC   C2B42764  41.117   2.684   6.605
 3103POPC   C3B42765  41.102   2.631   7.049
 3103POPC   C4B42766  41.125   2.755   7.494
 3104POPC   NC342767   6.039  31.397   5.267
 3104POPC   PO442768   6.160  32.057   5.500
 3104POPC   GL142769   6.041  31.854   5.879
 3104POPC   GL242770   5.753  31.731   5.709
 3104POPC   C1A42771   5.891  31.577   6.251
 3104POPC   D2A42772   6.042  31.298   6.614
 3104POPC   C3A42773   5.943  31.343   7.090
 3104POPC   C4A42774   6.053  31.281   7.540
 3104POPC   C1B42775   5.612  31.317   5.881
 3104POPC   C2B42776   5.527  31.172   6.318
 3104POPC   C3B42777   5.575  31.095   6.780
 3104POPC   C4B42778   5.388  31.333   7.132
 3105POPC   NC342779  25.077  40.569   5.440
 3105POPC   PO442780  25.141  41.167   5.050
 3105POPC   GL142781  25.293  41.006   5.537
 3105POPC   GL242782  25.497  40.686   5.719
 3105POPC   C1A42783  25.216  40.950   6.045
 3105POPC   D2A42784  25.372  41.027   6.445
 3105POPC   C3A42785  25.210  40.990   6.824
 3105POPC   C4A42786  25.433  40.754   7.130
 3105POPC   C1B42787  25.500  40.547   6.190
 3105POPC   C2B42788  25.339  40.519   6.613
 3105POPC   C3B42789  25.030  40.509   6.938
 3105POPC   C4B42790  24.944  40.815   7.219
 3106POPC   NC342791  34.669  44.807   5.139
 3106POPC   PO442792  34.394  44.267   5.378
 3106POPC   GL142793  34.528  44.592   5.715
 3106POPC   GL242794  34.907  44.683   5.696
 3106POPC   C1A42795  34.422  44.576   6.182
 3106POPC   D2A42796  34.370  44.607   6.638
 3106POPC   C3A42797  34.541  44.495   7.046
 3106POPC   C4A42798  34.434  44.763   7.367
 3106POPC   C1B42799  34.871  44.351   6.032
 3106POPC   C2B42800  34.800  44.355   6.485
 3106POPC   C3B42801  34.875  44.737   6.752
 3106POPC   C4B42802  34.950  44.819   7.198
 3107POPC   NC342803  11.790   3.835   5.438
 3107POPC   PO442804  12.083   3.272   5.096
 3107POPC   GL142805  11.945   3.312   5.603
 3107POPC   GL242806  11.613   3.136   5.714
 3107POPC   C1A42807  11.992   3.428   6.099
 3107POPC   D2A42808  11.918   3.799   6.409
 3107POPC   C3A42809  11.935   3.779   6.881
 3107POPC   C4A42810  12.114   3.640   7.290
 3107POPC   C1B42811  11.671   3.042   6.186
 3107POPC   C2B42812  11.811   3.280   6.581
 3107POPC   C3B42813  11.919   3.252   7.027
 3107POPC   C4B42814  11.806   3.248   7.480
 3108POPC   NC342815  20.793  33.639   5.181
 3108POPC   PO442816  20.222  33.725   5.445
 3108POPC   GL142817  20.416  33.975   5.772
 3108POPC   GL242818  20.196  33.996   6.058
 3108POPC   C1A42819  20.682  33.966   6.157
 3108POPC   D2A42820  20.495  33.806   6.547
 3108POPC   C3A42821  20.595  33.962   6.954
 3108POPC   C4A42822  20.930  34.155   7.189
 3108POPC   C1B42823  20.174  33.549   6.225
 3108POPC   C2B42824  20.250  33.355   6.579
 3108POPC   C3B42825  20.544  33.389   6.867
 3108POPC   C4B42826  20.594  33.543   7.246
 3109POPC   NC342827  22.703   8.021   5.335
 3109POPC   PO442828  23.298   8.375   5.482
 3109POPC   GL142829  23.036   8.467   5.835
 3109POPC   GL242830  22.878   8.140   5.839
 3109POPC   C1A42831  22.967   8.384   6.295
 3109POPC   D2A42832  22.788   8.306   6.723
 3109POPC   C3A42833  23.087   8.368   7.063
 3109POPC   C4A42834  23.046   8.239   7.491
 3109POPC   C1B42835  22.623   8.019   6.210
 3109POPC   C2B42836  22.647   7.820   6.639
 3109POPC   C3B42837  22.670   7.962   7.104
 3109POPC   C4B42838  22.582   8.042   7.579
 3110POPC   NC342839  12.812  10.197   5.526
 3110POPC   PO442840  12.856   9.481   5.576
 3110POPC   GL142841  13.067   9.677   5.937
 3110POPC   GL242842  13.212  10.017   5.789
 3110POPC   C1A42843  12.894   9.615   6.400
 3110POPC   D2A42844  12.515   9.620   6.710
 3110POPC   C3A42845  12.511   9.533   7.183
 3110POPC   C4A42846  12.613   9.812   7.551
 3110POPC   C1B42847  12.988  10.106   6.209
 3110POPC   C2B42848  12.813  10.065   6.646
 3110POPC   C3B42849  12.879   9.877   7.056
 3110POPC   C4B42850  13.100  10.019   7.424
 3111POPC   NC342851  37.314  34.004   5.207
 3111POPC   PO442852  36.813  33.737   5.522
 3111POPC   GL142853  36.920  33.895   5.894
 3111POPC   GL242854  37.235  34.028   5.738
 3111POPC   C1A42855  36.680  33.842   6.269
 3111POPC   D2A42856  36.402  33.739   6.618
 3111POPC   C3A42857  36.718  33.773   6.971
 3111POPC   C4A42858  37.060  33.479   7.046
 3111POPC   C1B42859  37.332  33.961   6.165
 3111POPC   C2B42860  37.088  33.872   6.579
 3111POPC   C3B42861  37.254  33.974   6.988
 3111POPC   C4B42862  37.154  33.962   7.421
 3112POPC   NC342863  14.523  12.319   5.386
 3112POPC   PO442864  14.202  11.743   5.555
 3112POPC   GL142865  14.542  11.980   5.760
 3112POPC   GL242866  14.338  12.261   5.877
 3112POPC   C1A42867  14.753  12.101   6.162
 3112POPC   D2A42868  14.472  12.304   6.466
 3112POPC   C3A42869  14.526  12.390   6.888
 3112POPC   C4A42870  14.257  12.375   7.256
 3112POPC   C1B42871  14.272  11.910   6.183
 3112POPC   C2B42872  14.130  11.895   6.582
 3112POPC   C3B42873  14.343  11.904   6.942
 3112POPC   C4B42874  14.218  11.874   7.387
 3113POPC   NC342875  15.873  18.150   5.520
 3113POPC   PO442876  16.223  18.663   5.377
 3113POPC   GL142877  16.248  18.400   5.773
 3113POPC   GL242878  16.275  17.979   5.783
 3113POPC   C1A42879  16.039  18.292   6.150
 3113POPC   D2A42880  15.861  18.072   6.463
 3113POPC   C3A42881  15.970  18.234   6.849
 3113POPC   C4A42882  15.607  18.362   7.078
 3113POPC   C1B42883  16.211  17.780   6.206
 3113POPC   C2B42884  16.302  17.863   6.649
 3113POPC   C3B42885  16.138  17.754   7.049
 3113POPC   C4B42886  15.929  18.009   7.318
 3114POPC   NC342887  43.312  15.581   5.283
 3114POPC   PO442888  43.080  16.218   5.062
 3114POPC   GL142889  42.931  15.912   5.486
 3114POPC   GL242890  43.153  15.867   5.750
 3114POPC   C1A42891  42.716  15.688   5.936
 3114POPC   D2A42892  42.745  15.575   6.427
 3114POPC   C3A42893  42.797  15.721   6.880
 3114POPC   C4A42894  43.137  15.808   7.184
 3114POPC   C1B42895  42.895  16.142   6.073
 3114POPC   C2B42896  42.842  16.097   6.534
 3114POPC   C3B42897  43.041  16.235   6.925
 3114POPC   C4B42898  43.283  16.331   7.350
 3115POPC   NC342899  20.918   3.815   5.375
 3115POPC   PO442900  20.366   3.476   5.380
 3115POPC   GL142901  20.504   3.500   5.812
 3115POPC   GL242902  20.531   3.836   5.922
 3115POPC   C1A42903  20.555   3.471   6.279
 3115POPC   D2A42904  20.469   3.670   6.673
 3115POPC   C3A42905  20.595   3.486   7.054
 3115POPC   C4A42906  20.774   3.608   7.430
 3115POPC   C1B42907  20.415   4.052   6.329
 3115POPC   C2B42908  20.280   4.128   6.751
 3115POPC   C3B42909  20.509   4.001   7.123
 3115POPC   C4B42910  20.346   3.877   7.541
 3116POPC   NC342911  13.909  16.194   5.434
 3116POPC   PO442912  13.401  15.940   5.676
 3116POPC   GL142913  13.591  15.916   6.027
 3116POPC   GL242914  13.910  15.928   5.875
 3116POPC   C1A42915  13.535  15.949   6.469
 3116POPC   D2A42916  13.427  16.225   6.806
 3116POPC   C3A42917  13.453  16.082   7.233
 3116POPC   C4A42918  13.355  15.852   7.632
 3116POPC   C1B42919  14.013  15.831   6.294
 3116POPC   C2B42920  13.861  15.549   6.588
 3116POPC   C3B42921  13.763  15.778   6.942
 3116POPC   C4B42922  13.964  16.115   7.154
 3117POPC   NC342923  18.710  30.104   5.487
 3117POPC   PO442924  18.057  29.790   5.461
 3117POPC   GL142925  18.244  29.738   5.837
 3117POPC   GL242926  18.564  29.633   5.642
 3117POPC   C1A42927  18.033  29.848   6.235
 3117POPC   D2A42928  18.200  29.990   6.614
 3117POPC   C3A42929  18.203  29.807   7.033
 3117POPC   C4A42930  17.985  29.872   7.438
 3117POPC   C1B42931  18.695  29.561   6.079
 3117POPC   C2B42932  18.772  29.758   6.486
 3117POPC   C3B42933  18.659  29.990   6.845
 3117POPC   C4B42934  18.679  29.831   7.228
 3118POPC   NC342935   8.952  21.379   5.312
 3118POPC   PO442936   8.532  20.874   5.455
 3118POPC   GL142937   8.772  21.073   5.825
 3118POPC   GL242938   8.809  21.419   5.782
 3118POPC   C1A42939   9.185  21.228   6.072
 3118POPC   D2A42940   9.312  21.522   6.401
 3118POPC   C3A42941   9.079  21.512   6.800
 3118POPC   C4A42942   9.177  21.775   7.169
 3118POPC   C1B42943   8.875  21.655   6.128
 3118POPC   C2B42944   8.602  21.689   6.441
 3118POPC   C3B42945   8.525  21.417   6.771
 3118POPC   C4B42946   8.670  21.415   7.180
 3119POPC   NC342947  43.553   2.884   5.347
 3119POPC   PO442948  44.107   2.502   5.483
 3119POPC   GL142949  43.961   2.796   5.790
 3119POPC   GL242950  43.616   2.933   5.840
 3119POPC   C1A42951  43.839   2.636   6.192
 3119POPC   D2A42952  43.743   2.543   6.595
 3119POPC   C3A42953  43.921   2.690   6.966
 3119POPC   C4A42954  44.254   2.613   7.274
 3119POPC   C1B42955  43.752   3.126   6.222
 3119POPC   C2B42956  43.684   3.039   6.623
 3119POPC   C3B42957  43.474   3.034   6.971
 3119POPC   C4B42958  43.737   3.038   7.275
 3120POPC   NC342959   8.757   2.122   5.451
 3120POPC   PO442960   9.278   1.716   5.671
 3120POPC   GL142961   9.064   2.008   5.832
 3120POPC   GL242962   8.800   1.737   5.878
 3120POPC   C1A42963   9.052   2.328   6.141
 3120POPC   D2A42964   8.869   2.325   6.556
 3120POPC   C3A42965   9.108   2.275   6.932
 3120POPC   C4A42966   8.993   2.364   7.336
 3120POPC   C1B42967   8.871   1.879   6.301
 3120POPC   C2B42968   9.084   1.827   6.710
 3120POPC   C3B42969   9.113   1.796   7.188
 3120POPC   C4B42970   8.950   1.611   7.595
 3121POPC   NC342971  24.181  18.877   5.392
 3121POPC   PO442972  24.659  19.366   5.549
 3121POPC   GL142973  24.646  19.274   5.916
 3121POPC   GL242974  24.381  19.067   5.868
 3121POPC   C1A42975  24.654  19.100   6.318
 3121POPC   D2A42976  24.465  18.805   6.634
 3121POPC   C3A42977  24.429  19.057   6.989
 3121POPC   C4A42978  24.498  19.486   7.143
 3121POPC   C1B42979  24.157  19.066   6.270
 3121POPC   C2B42980  23.967  18.960   6.673
 3121POPC   C3B42981  23.939  19.152   7.066
 3121POPC   C4B42982  24.154  19.229   7.410
 3122POPC   NC342983  18.031  20.377   5.420
 3122POPC   PO442984  18.037  19.724   5.403
 3122POPC   GL142985  18.160  19.902   5.791
 3122POPC   GL242986  17.853  20.080   5.862
 3122POPC   C1A42987  18.425  19.721   6.156
 3122POPC   D2A42988  18.468  19.488   6.578
 3122POPC   C3A42989  18.505  19.676   6.991
 3122POPC   C4A42990  18.350  19.866   7.414
 3122POPC   C1B42991  17.917  19.780   6.221
 3122POPC   C2B42992  18.009  19.784   6.678
 3122POPC   C3B42993  17.912  19.771   7.135
 3122POPC   C4B42994  17.726  19.893   7.501
 3123POPC   NC342995   3.329   9.981   5.471
 3123POPC   PO442996   3.894   9.597   5.337
 3123POPC   GL142997   3.677   9.608   5.760
 3123POPC   GL242998   3.650   9.953   5.858
 3123POPC   C1A42999   3.761   9.631   6.237
 3123POPC   D2A43000   3.855   9.876   6.634
 3123POPC   C3A43001   3.648   9.945   7.055
 3123POPC   C4A43002   3.732   9.679   7.456
 3123POPC   C1B43003   3.333   9.905   6.190
 3123POPC   C2B43004   3.346   9.782   6.634
 3123POPC   C3B43005   3.381   9.528   7.017
 3123POPC   C4B43006   3.228   9.639   7.425
 3124POPC   NC343007   6.243  41.759   5.462
 3124POPC   PO443008   6.878  41.762   5.348
 3124POPC   GL143009   6.659  41.679   5.766
 3124POPC   GL243010   6.400  41.387   5.801
 3124POPC   C1A43011   6.416  41.806   6.160
 3124POPC   D2A43012   6.454  41.609   6.586
 3124POPC   C3A43013   6.524  41.784   6.991
 3124POPC   C4A43014   6.345  41.776   7.389
 3124POPC   C1B43015   6.647  41.345   6.187
 3124POPC   C2B43016   6.784  41.215   6.616
 3124POPC   C3B43017   6.695  41.279   7.080
 3124POPC   C4B43018   6.812  41.575   7.403
 3125POPC   NC343019   7.500  31.940   5.592
 3125POPC   PO443020   7.609  31.315   5.335
 3125POPC   GL143021   7.475  31.448   5.726
 3125POPC   GL243022   7.217  31.583   5.855
 3125POPC   C1A43023   7.635  31.556   6.155
 3125POPC   D2A43024   7.508  31.457   6.575
 3125POPC   C3A43025   7.737  31.553   6.957
 3125POPC   C4A43026   7.626  31.624   7.355
 3125POPC   C1B43027   7.151  31.714   6.279
 3125POPC   C2B43028   7.031  31.523   6.668
 3125POPC   C3B43029   7.232  31.604   7.023
 3125POPC   C4B43030   7.143  31.833   7.385
 3126POPC   NC343031  20.786  12.068   5.388
 3126POPC   PO443032  20.321  12.600   5.443
 3126POPC   GL143033  20.403  12.321   5.780
 3126POPC   GL243034  20.228  12.014   5.662
 3126POPC   C1A43035  20.684  12.229   6.138
 3126POPC   D2A43036  20.770  11.873   6.433
 3126POPC   C3A43037  20.793  11.991   6.865
 3126POPC   C4A43038  20.851  12.268   7.215
 3126POPC   C1B43039  20.404  11.770   6.018
 3126POPC   C2B43040  20.274  11.713   6.450
 3126POPC   C3B43041  20.272  11.919   6.859
 3126POPC   C4B43042  20.454  11.946   7.262
 3127POPC   NC343043   7.980  41.308   5.109
 3127POPC   PO443044   8.071  40.712   5.499
 3127POPC   GL143045   8.254  40.663   5.862
 3127POPC   GL243046   8.283  41.019   5.928
 3127POPC   C1A43047   8.306  40.662   6.276
 3127POPC   D2A43048   8.046  40.698   6.596
 3127POPC   C3A43049   8.287  40.671   6.906
 3127POPC   C4A43050   8.228  40.491   7.274
 3127POPC   C1B43051   8.093  41.154   6.329
 3127POPC   C2B43052   8.100  41.163   6.789
 3127POPC   C3B43053   8.097  41.005   7.233
 3127POPC   C4B43054   8.246  40.860   7.638
 3128POPC   NC343055   5.769  28.906   5.403
 3128POPC   PO443056   6.046  29.522   5.393
 3128POPC   GL143057   5.893  29.274   5.742
 3128POPC   GL243058   6.139  29.018   5.835
 3128POPC   C1A43059   5.833  29.284   6.199
 3128POPC   D2A43060   6.041  29.124   6.572
 3128POPC   C3A43061   6.068  29.345   6.956
 3128POPC   C4A43062   5.856  29.408   7.338
 3128POPC   C1B43063   5.984  28.792   6.179
 3128POPC   C2B43064   5.814  28.677   6.573
 3128POPC   C3B43065   5.876  28.840   7.034
 3128POPC   C4B43066   6.140  28.995   7.398
 3129POPC   NC343067  38.302  41.301   5.251
 3129POPC   PO443068  38.507  40.728   5.255
 3129POPC   GL143069  38.477  40.693   5.738
 3129POPC   GL243070  38.329  40.378   5.864
 3129POPC   C1A43071  38.336  40.760   6.201
 3129POPC   D2A43072  37.986  40.819   6.521
 3129POPC   C3A43073  38.163  41.069   6.862
 3129POPC   C4A43074  38.465  40.975   7.184
 3129POPC   C1B43075  38.678  40.374   6.111
 3129POPC   C2B43076  38.656  40.381   6.549
 3129POPC   C3B43077  38.377  40.556   6.863
 3129POPC   C4B43078  38.353  40.448   7.300
 3130POPC   NC343079  27.219  27.859   5.265
 3130POPC   PO443080  27.762  27.727   5.249
 3130POPC   GL143081  27.633  27.691   5.694
 3130POPC   GL243082  27.296  27.592   5.686
 3130POPC   C1A43083  27.736  27.552   6.175
 3130POPC   D2A43084  27.829  27.320   6.593
 3130POPC   C3A43085  27.722  27.472   7.027
 3130POPC   C4A43086  27.679  27.903   7.207
 3130POPC   C1B43087  27.249  27.669   6.144
 3130POPC   C2B43088  27.383  27.607   6.608
 3130POPC   C3B43089  27.236  27.669   7.054
 3130POPC   C4B43090  27.194  28.039   7.317
 3131POPC   NC343091  34.007  28.813   5.428
 3131POPC   PO443092  34.208  28.245   5.373
 3131POPC   GL143093  34.164  28.444   5.801
 3131POPC   GL243094  34.308  28.772   5.850
 3131POPC   C1A43095  34.088  28.452   6.292
 3131POPC   D2A43096  34.139  28.278   6.752
 3131POPC   C3A43097  33.890  28.237   7.171
 3131POPC   C4A43098  34.079  28.171   7.592
 3131POPC   C1B43099  34.143  28.971   6.239
 3131POPC   C2B43100  34.247  28.810   6.673
 3131POPC   C3B43101  34.094  28.696   7.088
 3131POPC   C4B43102  33.638  28.692   7.209
 3132POPC   NC343103  33.283   0.681   5.489
 3132POPC   PO443104  33.128   1.377   5.395
 3132POPC   GL143105  33.153   1.146   5.756
 3132POPC   GL243106  33.495   1.051   5.774
 3132POPC   C1A43107  33.017   1.059   6.188
 3132POPC   D2A43108  32.766   1.145   6.560
 3132POPC   C3A43109  32.964   1.240   6.942
 3132POPC   C4A43110  33.002   0.989   7.319
 3132POPC   C1B43111  33.467   1.312   6.137
 3132POPC   C2B43112  33.253   1.395   6.516
 3132POPC   C3B43113  33.444   1.402   6.884
 3132POPC   C4B43114  33.351   1.362   7.304
 3133POPC   NC343115  33.265   7.180   5.316
 3133POPC   PO443116  32.894   7.731   5.428
 3133POPC   GL143117  32.981   7.444   5.748
 3133POPC   GL243118  32.790   7.177   5.625
 3133POPC   C1A43119  33.110   7.403   6.198
 3133POPC   D2A43120  32.976   7.358   6.620
 3133POPC   C3A43121  33.183   7.287   7.006
 3133POPC   C4A43122  33.227   7.496   7.393
 3133POPC   C1B43123  32.702   7.101   6.057
 3133POPC   C2B43124  32.532   7.120   6.492
 3133POPC   C3B43125  32.699   7.077   6.927
 3133POPC   C4B43126  32.761   7.350   7.288
 3134POPC   NC343127  10.543  29.048   5.285
 3134POPC   PO443128  10.299  29.677   5.449
 3134POPC   GL143129  10.430  29.335   5.758
 3134POPC   GL243130  10.779  29.165   5.738
 3134POPC   C1A43131  10.595  29.222   6.188
 3134POPC   D2A43132  10.432  29.054   6.511
 3134POPC   C3A43133  10.593  28.985   6.894
 3134POPC   C4A43134  10.472  29.084   7.290
 3134POPC   C1B43135  10.886  28.810   6.063
 3134POPC   C2B43136  10.826  28.717   6.491
 3134POPC   C3B43137  11.017  28.696   6.879
 3134POPC   C4B43138  10.833  28.709   7.269
 3135POPC   NC343139  28.610   6.604   5.481
 3135POPC   PO443140  28.201   7.104   5.426
 3135POPC   GL143141  28.372   6.938   5.804
 3135POPC   GL243142  28.208   6.596   5.834
 3135POPC   C1A43143  28.631   6.774   6.169
 3135POPC   D2A43144  28.627   6.685   6.638
 3135POPC   C3A43145  28.651   6.841   7.088
 3135POPC   C4A43146  28.671   6.519   7.431
 3135POPC   C1B43147  28.004   6.429   6.231
 3135POPC   C2B43148  28.185   6.316   6.636
 3135POPC   C3B43149  28.221   6.583   6.992
 3135POPC   C4B43150  27.963   6.837   7.272
 3136POPC   NC343151   0.315   4.298   5.578
 3136POPC   PO443152   0.928   4.620   5.572
 3136POPC   GL143153   0.644   4.535   5.911
 3136POPC   GL243154   0.626   4.183   5.947
 3136POPC   C1A43155   0.332   4.461   6.251
 3136POPC   D2A43156   0.524   4.345   6.651
 3136POPC   C3A43157   0.395   4.545   7.044
 3136POPC   C4A43158   0.460   4.524   7.538
 3136POPC   C1B43159   0.292   3.954   6.157
 3136POPC   C2B43160   0.334   3.784   6.554
 3136POPC   C3B43161   0.354   3.956   6.929
 3136POPC   C4B43162   0.368   4.096   7.315
 3137POPC   NC343163   2.390   6.222   5.241
 3137POPC   PO443164   1.839   5.852   5.404
 3137POPC   GL143165   1.861   6.114   5.810
 3137POPC   GL243166   2.083   5.899   5.943
 3137POPC   C1A43167   1.829   6.094   6.320
 3137POPC   D2A43168   1.764   5.805   6.706
 3137POPC   C3A43169   1.885   5.995   7.096
 3137POPC   C4A43170   2.250   6.009   7.387
 3137POPC   C1B43171   1.929   5.594   6.254
 3137POPC   C2B43172   2.084   5.373   6.607
 3137POPC   C3B43173   2.129   5.559   7.005
 3137POPC   C4B43174   2.066   5.548   7.443
 3138POPC   NC343175  37.336  14.066   5.590
 3138POPC   PO443176  37.899  14.393   5.471
 3138POPC   GL143177  37.719  14.341   5.844
 3138POPC   GL243178  37.421  14.546   5.790
 3138POPC   C1A43179  37.858  14.308   6.257
 3138POPC   D2A43180  37.823  14.123   6.660
 3138POPC   C3A43181  37.779  14.347   7.037
 3138POPC   C4A43182  37.391  14.358   7.219
 3138POPC   C1B43183  37.543  14.717   6.192
 3138POPC   C2B43184  37.476  14.535   6.601
 3138POPC   C3B43185  37.206  14.687   6.908
 3138POPC   C4B43186  37.365  14.859   7.282
 3139POPC   NC343187  38.597  17.200   5.584
 3139POPC   PO443188  38.438  17.773   5.291
 3139POPC   GL143189  38.303  17.704   5.763
 3139POPC   GL243190  38.178  17.354   5.845
 3139POPC   C1A43191  38.359  17.739   6.251
 3139POPC   D2A43192  38.718  17.829   6.585
 3139POPC   C3A43193  38.707  17.711   7.045
 3139POPC   C4A43194  38.321  17.699   7.319
 3139POPC   C1B43195  38.415  17.224   6.208
 3139POPC   C2B43196  38.280  17.304   6.600
 3139POPC   C3B43197  38.418  17.302   6.996
 3139POPC   C4B43198  38.550  17.248   7.411
 3140POPC   NC343199  33.133  34.252   5.055
 3140POPC   PO443200  33.330  33.591   5.185
 3140POPC   GL143201  33.207  33.670   5.598
 3140POPC   GL243202  32.882  33.520   5.696
 3140POPC   C1A43203  33.255  33.857   6.016
 3140POPC   D2A43204  33.101  33.742   6.462
 3140POPC   C3A43205  33.189  33.886   6.901
 3140POPC   C4A43206  33.112  33.849   7.351
 3140POPC   C1B43207  33.091  33.378   6.079
 3140POPC   C2B43208  33.092  33.243   6.556
 3140POPC   C3B43209  33.079  33.395   7.052
 3140POPC   C4B43210  33.130  33.377   7.553
 3141POPC   NC343211  40.342   9.398   5.606
 3141POPC   PO443212  40.494   8.867   5.497
 3141POPC   GL143213  40.724   9.042   5.849
 3141POPC   GL243214  40.831   9.395   5.824
 3141POPC   C1A43215  40.701   9.177   6.288
 3141POPC   D2A43216  40.917   9.274   6.684
 3141POPC   C3A43217  40.755   9.054   7.069
 3141POPC   C4A43218  40.478   8.794   7.365
 3141POPC   C1B43219  41.171   9.213   6.114
 3141POPC   C2B43220  41.406   9.317   6.505
 3141POPC   C3B43221  41.342   9.112   6.940
 3141POPC   C4B43222  41.153   8.823   7.299
 3142POPC   NC343223  27.508  32.805   5.220
 3142POPC   PO443224  27.787  33.463   5.213
 3142POPC   GL143225  27.715  33.187   5.602
 3142POPC   GL243226  27.654  32.822   5.733
 3142POPC   C1A43227  27.829  33.209   6.038
 3142POPC   D2A43228  27.777  33.242   6.467
 3142POPC   C3A43229  28.043  33.183   6.813
 3142POPC   C4A43230  27.802  33.144   7.205
 3142POPC   C1B43231  27.648  32.752   6.221
 3142POPC   C2B43232  27.722  32.774   6.699
 3142POPC   C3B43233  27.620  32.689   7.155
 3142POPC   C4B43234  27.377  32.932   7.454
 3143POPC   NC343235  14.363  24.118   5.449
 3143POPC   PO443236  14.648  24.726   5.241
 3143POPC   GL143237  14.526  24.588   5.651
 3143POPC   GL243238  14.166  24.525   5.755
 3143POPC   C1A43239  14.642  24.424   6.053
 3143POPC   D2A43240  14.541  24.594   6.449
 3143POPC   C3A43241  14.719  24.450   6.836
 3143POPC   C4A43242  14.724  24.544   7.261
 3143POPC   C1B43243  14.148  24.279   6.176
 3143POPC   C2B43244  14.290  24.182   6.618
 3143POPC   C3B43245  14.249  24.373   7.061
 3143POPC   C4B43246  13.858  24.376   7.328
 3144POPC   NC343247  26.395  11.545   5.391
 3144POPC   PO443248  25.854  11.212   5.475
 3144POPC   GL143249  25.944  11.288   5.867
 3144POPC   GL243250  26.282  11.255   5.788
 3144POPC   C1A43251  25.740  11.550   6.171
 3144POPC   D2A43252  25.787  11.710   6.590
 3144POPC   C3A43253  26.051  11.498   6.896
 3144POPC   C4A43254  25.910  11.407   7.293
 3144POPC   C1B43255  26.367  11.051   6.155
 3144POPC   C2B43256  26.320  11.199   6.564
 3144POPC   C3B43257  26.371  11.059   6.986
 3144POPC   C4B43258  26.307  11.117   7.395
 3145POPC   NC343259  42.468  12.345   5.505
 3145POPC   PO443260  42.170  11.690   5.419
 3145POPC   GL143261  42.338  11.921   5.761
 3145POPC   GL243262  42.710  11.943   5.773
 3145POPC   C1A43263  42.120  12.201   6.068
 3145POPC   D2A43264  42.177  12.134   6.492
 3145POPC   C3A43265  42.176  12.330   6.876
 3145POPC   C4A43266  42.160  12.006   7.154
 3145POPC   C1B43267  42.611  12.131   6.185
 3145POPC   C2B43268  42.655  11.979   6.631
 3145POPC   C3B43269  42.638  12.163   7.046
 3145POPC   C4B43270  42.854  12.437   7.310
 3146POPC   NC343271   4.564   9.077   5.367
 3146POPC   PO443272   3.947   8.729   5.357
 3146POPC   GL143273   4.167   8.956   5.720
 3146POPC   GL243274   4.121   9.327   5.804
 3146POPC   C1A43275   4.215   8.964   6.166
 3146POPC   D2A43276   4.110   8.777   6.541
 3146POPC   C3A43277   4.229   8.975   6.894
 3146POPC   C4A43278   4.322   8.898   7.319
 3146POPC   C1B43279   4.282   9.459   6.225
 3146POPC   C2B43280   4.529   9.238   6.546
 3146POPC   C3B43281   4.629   9.297   6.992
 3146POPC   C4B43282   4.555   9.304   7.469
 3147POPC   NC343283  28.157  34.299   5.422
 3147POPC   PO443284  27.993  35.010   5.396
 3147POPC   GL143285  28.089  34.719   5.742
 3147POPC   GL243286  28.428  34.633   5.744
 3147POPC   C1A43287  28.026  34.681   6.182
 3147POPC   D2A43288  28.094  34.312   6.445
 3147POPC   C3A43289  28.031  34.483   6.831
 3147POPC   C4A43290  28.117  34.475   7.225
 3147POPC   C1B43291  28.501  34.511   6.175
 3147POPC   C2B43292  28.414  34.706   6.577
 3147POPC   C3B43293  28.550  34.534   6.991
 3147POPC   C4B43294  28.563  34.154   7.286
 3148POPC   NC343295  31.617   8.114   5.565
 3148POPC   PO443296  30.970   8.225   5.462
 3148POPC   GL143297  31.189   7.987   5.802
 3148POPC   GL243298  31.267   8.326   5.900
 3148POPC   C1A43299  31.469   8.000   6.221
 3148POPC   D2A43300  31.509   8.207   6.646
 3148POPC   C3A43301  31.498   7.992   7.004
 3148POPC   C4A43302  31.170   7.755   7.196
 3148POPC   C1B43303  31.504   8.513   6.243
 3148POPC   C2B43304  31.778   8.628   6.624
 3148POPC   C3B43305  31.710   8.553   7.069
 3148POPC   C4B43306  31.379   8.342   7.350
 3149POPC   NC343307  29.364   4.934   5.461
 3149POPC   PO443308  28.819   5.312   5.652
 3149POPC   GL143309  29.171   5.162   5.901
 3149POPC   GL243310  29.418   5.439   5.851
 3149POPC   C1A43311  29.155   4.981   6.339
 3149POPC   D2A43312  29.413   4.833   6.692
 3149POPC   C3A43313  29.211   4.865   7.096
 3149POPC   C4A43314  28.797   4.705   7.128
 3149POPC   C1B43315  29.238   5.487   6.292
 3149POPC   C2B43316  29.317   5.344   6.735
 3149POPC   C3B43317  29.159   5.363   7.159
 3149POPC   C4B43318  29.333   5.414   7.577
 3150POPC   NC343319  36.986  41.314   5.373
 3150POPC   PO443320  37.092  41.911   5.685
 3150POPC   GL143321  36.953  41.546   5.842
 3150POPC   GL243322  37.201  41.256   5.826
 3150POPC   C1A43323  36.770  41.621   6.243
 3150POPC   D2A43324  36.556  41.558   6.622
 3150POPC   C3A43325  36.763  41.621   6.984
 3150POPC   C4A43326  36.673  41.774   7.334
 3150POPC   C1B43327  37.268  41.414   6.233
 3150POPC   C2B43328  37.150  41.549   6.636
 3150POPC   C3B43329  37.269  41.491   7.054
 3150POPC   C4B43330  37.075  41.491   7.425
 3151POPC   NC343331   8.312  26.960   5.545
 3151POPC   PO443332   8.414  26.290   5.472
 3151POPC   GL143333   8.227  26.516   5.883
 3151POPC   GL243334   8.160  26.884   6.005
 3151POPC   C1A43335   8.244  26.523   6.357
 3151POPC   D2A43336   8.214  26.816   6.712
 3151POPC   C3A43337   8.292  26.699   7.125
 3151POPC   C4A43338   8.213  26.541   7.552
 3151POPC   C1B43339   8.119  27.177   6.343
 3151POPC   C2B43340   8.180  27.421   6.705
 3151POPC   C3B43341   8.287  27.239   7.129
 3151POPC   C4B43342   8.065  27.002   7.477
 3152POPC   NC343343  38.087  43.247   5.463
 3152POPC   PO443344  37.447  43.122   5.266
 3152POPC   GL143345  37.578  43.299   5.649
 3152POPC   GL243346  37.289  43.216   5.842
 3152POPC   C1A43347  37.747  43.226   6.048
 3152POPC   D2A43348  37.700  43.359   6.472
 3152POPC   C3A43349  37.614  43.059   6.789
 3152POPC   C4A43350  37.629  43.152   7.220
 3152POPC   C1B43351  37.301  43.074   6.288
 3152POPC   C2B43352  37.148  42.852   6.651
 3152POPC   C3B43353  37.236  42.856   7.080
 3152POPC   C4B43354  37.236  43.004   7.503
 3153POPC   NC343355  12.335  43.818   5.071
 3153POPC   PO443356  11.858  44.180   5.447
 3153POPC   GL143357  12.274  44.211   5.662
 3153POPC   GL243358  12.413  43.876   5.649
 3153POPC   C1A43359  12.385  44.261   6.089
 3153POPC   D2A43360  12.155  44.157   6.483
 3153POPC   C3A43361  12.327  44.196   6.912
 3153POPC   C4A43362  12.179  44.103   7.358
 3153POPC   C1B43363  12.052  43.844   5.990
 3153POPC   C2B43364  11.849  43.723   6.406
 3153POPC   C3B43365  11.965  43.772   6.856
 3153POPC   C4B43366  11.892  43.589   7.263
 3154POPC   NC343367   5.504  32.075   5.335
 3154POPC   PO443368   4.859  32.292   5.341
 3154POPC   GL143369   4.897  32.077   5.700
 3154POPC   GL243370   5.207  32.230   5.729
 3154POPC   C1A43371   4.989  32.023   6.131
 3154POPC   D2A43372   4.913  32.242   6.497
 3154POPC   C3A43373   4.925  32.070   6.886
 3154POPC   C4A43374   4.781  32.247   7.268
 3154POPC   C1B43375   5.358  32.365   6.127
 3154POPC   C2B43376   5.297  32.577   6.461
 3154POPC   C3B43377   5.404  32.348   6.809
 3154POPC   C4B43378   5.281  32.259   7.193
 3155POPC   NC343379   6.946  34.455   5.653
 3155POPC   PO443380   6.337  34.700   5.422
 3155POPC   GL143381   6.526  34.787   5.800
 3155POPC   GL243382   6.486  34.428   5.875
 3155POPC   C1A43383   6.611  34.767   6.244
 3155POPC   D2A43384   6.442  34.507   6.556
 3155POPC   C3A43385   6.542  34.627   6.952
 3155POPC   C4A43386   6.917  34.817   7.090
 3155POPC   C1B43387   6.728  34.227   6.218
 3155POPC   C2B43388   6.784  34.094   6.648
 3155POPC   C3B43389   6.904  34.269   7.079
 3155POPC   C4B43390   6.684  34.242   7.478
 3156POPC   NC343391  12.997  11.046   5.592
 3156POPC   PO443392  12.597  11.475   5.232
 3156POPC   GL143393  12.712  11.453   5.780
 3156POPC   GL243394  13.068  11.443   5.904
 3156POPC   C1A43395  12.728  11.569   6.277
 3156POPC   D2A43396  12.454  11.496   6.696
 3156POPC   C3A43397  12.701  11.239   6.990
 3156POPC   C4A43398  13.072  11.475   7.093
 3156POPC   C1B43399  12.898  11.100   6.210
 3156POPC   C2B43400  12.963  10.914   6.627
 3156POPC   C3B43401  13.180  10.979   7.008
 3156POPC   C4B43402  13.057  11.118   7.464
 3157POPC   NC343403  36.737  11.916   5.506
 3157POPC   PO443404  37.381  12.068   5.407
 3157POPC   GL143405  37.131  12.084   5.783
 3157POPC   GL243406  37.108  11.738   5.837
 3157POPC   C1A43407  36.928  12.195   6.180
 3157POPC   D2A43408  37.145  12.275   6.565
 3157POPC   C3A43409  36.887  12.264   6.934
 3157POPC   C4A43410  36.965  12.189   7.344
 3157POPC   C1B43411  37.336  11.857   6.224
 3157POPC   C2B43412  37.327  11.730   6.654
 3157POPC   C3B43413  37.015  11.729   6.974
 3157POPC   C4B43414  36.850  11.679   7.371
 3158POPC   NC343415  35.204  31.671   4.837
 3158POPC   PO443416  35.289  31.356   5.475
 3158POPC   GL143417  35.364  31.615   5.802
 3158POPC   GL243418  35.038  31.722   5.756
 3158POPC   C1A43419  35.551  31.560   6.217
 3158POPC   D2A43420  35.665  31.563   6.655
 3158POPC   C3A43421  35.309  31.420   6.956
 3158POPC   C4A43422  35.311  31.516   7.404
 3158POPC   C1B43423  35.016  31.462   6.159
 3158POPC   C2B43424  34.787  31.447   6.553
 3158POPC   C3B43425  34.810  31.579   6.978
 3158POPC   C4B43426  34.897  31.232   7.232
 3159POPC   NC343427  41.233  40.265   5.616
 3159POPC   PO443428  41.815  39.934   5.576
 3159POPC   GL143429  41.510  39.783   5.865
 3159POPC   GL243430  41.270  40.013   6.060
 3159POPC   C1A43431  41.715  39.740   6.261
 3159POPC   D2A43432  41.879  40.038   6.584
 3159POPC   C3A43433  41.785  39.777   6.924
 3159POPC   C4A43434  41.554  39.809   7.295
 3159POPC   C1B43435  41.188  40.471   6.248
 3159POPC   C2B43436  41.375  40.549   6.658
 3159POPC   C3B43437  41.434  40.185   6.936
 3159POPC   C4B43438  41.188  40.164   7.314
 3160POPC   NC343439  27.718  31.800   5.670
 3160POPC   PO443440  27.457  31.380   5.237
 3160POPC   GL143441  27.459  31.347   5.731
 3160POPC   GL243442  27.339  31.617   5.969
 3160POPC   C1A43443  27.607  31.249   6.189
 3160POPC   D2A43444  27.712  31.470   6.597
 3160POPC   C3A43445  27.463  31.561   6.941
 3160POPC   C4A43446  27.560  31.278   7.264
 3160POPC   C1B43447  27.591  31.853   6.283
 3160POPC   C2B43448  28.002  31.865   6.470
 3160POPC   C3B43449  27.862  31.870   6.886
 3160POPC   C4B43450  27.983  31.564   7.141
 3161POPC   NC343451  34.081  34.040   5.295
 3161POPC   PO443452  34.656  34.321   5.382
 3161POPC   GL143453  34.876  34.254   5.801
 3161POPC   GL243454  34.936  33.917   5.883
 3161POPC   C1A43455  34.865  34.410   6.275
 3161POPC   D2A43456  34.903  34.641   6.696
 3161POPC   C3A43457  34.561  34.586   7.051
 3161POPC   C4A43458  34.192  34.716   7.313
 3161POPC   C1B43459  34.892  33.882   6.335
 3161POPC   C2B43460  34.982  34.129   6.725
 3161POPC   C3B43461  34.770  34.122   7.130
 3161POPC   C4B43462  34.710  34.358   7.527
 3162POPC   NC343463  24.244  40.296   5.431
 3162POPC   PO443464  24.884  40.130   5.451
 3162POPC   GL143465  24.618  39.927   5.765
 3162POPC   GL243466  24.310  40.045   5.868
 3162POPC   C1A43467  24.799  39.987   6.174
 3162POPC   D2A43468  24.882  40.271   6.505
 3162POPC   C3A43469  24.796  40.056   6.891
 3162POPC   C4A43470  24.668  39.969   7.296
 3162POPC   C1B43471  24.365  39.714   6.170
 3162POPC   C2B43472  24.213  39.689   6.572
 3162POPC   C3B43473  24.287  39.863   6.958
 3162POPC   C4B43474  24.182  39.677   7.320
 3163POPC   NC343475  35.663  20.649   4.931
 3163POPC   PO443476  35.152  20.200   5.205
 3163POPC   GL143477  35.269  20.438   5.630
 3163POPC   GL243478  35.545  20.713   5.599
 3163POPC   C1A43479  35.163  20.687   6.044
 3163POPC   D2A43480  35.047  20.793   6.488
 3163POPC   C3A43481  35.159  20.588   6.898
 3163POPC   C4A43482  35.102  20.411   7.338
 3163POPC   C1B43483  35.647  20.529   6.025
 3163POPC   C2B43484  35.482  20.514   6.463
 3163POPC   C3B43485  35.647  20.728   6.846
 3163POPC   C4B43486  35.580  20.568   7.249
 3164POPC   NC343487  39.124  30.833   5.403
 3164POPC   PO443488  39.061  30.245   5.250
 3164POPC   GL143489  39.075  30.460   5.732
 3164POPC   GL243490  39.206  30.783   5.904
 3164POPC   C1A43491  38.948  30.488   6.229
 3164POPC   D2A43492  39.039  30.766   6.595
 3164POPC   C3A43493  39.012  30.655   7.073
 3164POPC   C4A43494  38.725  30.579   7.414
 3164POPC   C1B43495  39.477  30.864   6.251
 3164POPC   C2B43496  39.690  30.832   6.656
 3164POPC   C3B43497  39.493  30.784   7.062
 3164POPC   C4B43498  39.558  30.733   7.516
 3165POPC   NC343499  37.432   8.263   5.449
 3165POPC   PO443500  36.967   7.920   5.597
 3165POPC   GL143501  37.277   8.129   5.912
 3165POPC   GL243502  37.396   8.493   5.905
 3165POPC   C1A43503  37.507   8.183   6.292
 3165POPC   D2A43504  37.316   8.323   6.658
 3165POPC   C3A43505  37.486   8.350   7.101
 3165POPC   C4A43506  37.477   8.612   7.481
 3165POPC   C1B43507  37.525   8.708   6.308
 3165POPC   C2B43508  37.726   8.641   6.711
 3165POPC   C3B43509  37.961   8.586   7.103
 3165POPC   C4B43510  37.933   8.372   7.509
 3166POPC   NC343511   0.795  13.610   5.171
 3166POPC   PO443512   1.315  13.351   5.489
 3166POPC   GL143513   1.106  13.541   5.832
 3166POPC   GL243514   1.238  13.831   5.862
 3166POPC   C1A43515   0.941  13.532   6.260
 3166POPC   D2A43516   0.690  13.683   6.635
 3166POPC   C3A43517   0.890  13.541   7.016
 3166POPC   C4A43518   1.250  13.709   7.175
 3166POPC   C1B43519   1.453  13.635   6.212
 3166POPC   C2B43520   1.317  13.581   6.643
 3166POPC   C3B43521   1.556  13.377   6.949
 3166POPC   C4B43522   1.632  13.376   7.366
 3167POPC   NC343523  15.361  26.827   5.233
 3167POPC   PO443524  16.005  26.604   5.370
 3167POPC   GL143525  15.921  26.621   5.788
 3167POPC   GL243526  15.603  26.702   5.671
 3167POPC   C1A43527  16.042  26.849   6.173
 3167POPC   D2A43528  16.262  26.873   6.584
 3167POPC   C3A43529  16.063  27.006   6.953
 3167POPC   C4A43530  16.168  27.022   7.405
 3167POPC   C1B43531  15.491  26.721   6.086
 3167POPC   C2B43532  15.676  26.649   6.511
 3167POPC   C3B43533  15.618  26.551   6.953
 3167POPC   C4B43534  15.703  26.851   7.270
 3168POPC   NC343535  28.381  31.513   5.359
 3168POPC   PO443536  29.002  31.729   5.195
 3168POPC   GL143537  28.760  31.751   5.683
 3168POPC   GL243538  28.395  31.672   5.836
 3168POPC   C1A43539  28.757  31.541   6.150
 3168POPC   D2A43540  28.446  31.505   6.497
 3168POPC   C3A43541  28.468  31.349   6.912
 3168POPC   C4A43542  28.466  31.600   7.267
 3168POPC   C1B43543  28.096  31.433   6.135
 3168POPC   C2B43544  28.071  31.147   6.528
 3168POPC   C3B43545  27.961  31.088   6.970
 3168POPC   C4B43546  28.183  31.166   7.388
 3169POPC   NC343547  18.372   9.829   5.082
 3169POPC   PO443548  18.086   9.425   5.526
 3169POPC   GL143549  18.380   9.634   5.761
 3169POPC   GL243550  18.520   9.412   6.014
 3169POPC   C1A43551  18.478   9.928   6.073
 3169POPC   D2A43552  18.596  10.157   6.420
 3169POPC   C3A43553  18.442   9.992   6.830
 3169POPC   C4A43554  18.220  10.034   7.236
 3169POPC   C1B43555  18.319   9.221   6.399
 3169POPC   C2B43556  18.339   9.436   6.806
 3169POPC   C3B43557  18.660   9.576   7.077
 3169POPC   C4B43558  18.584   9.715   7.460
 3170POPC   NC343559  29.337   2.564   5.329
 3170POPC   PO443560  28.791   2.856   5.457
 3170POPC   GL143561  29.047   2.671   5.827
 3170POPC   GL243562  29.386   2.511   5.844
 3170POPC   C1A43563  29.257   2.850   6.238
 3170POPC   D2A43564  29.407   2.617   6.634
 3170POPC   C3A43565  29.349   2.846   7.026
 3170POPC   C4A43566  28.934   2.934   7.172
 3170POPC   C1B43567  29.147   2.357   6.223
 3170POPC   C2B43568  28.837   2.264   6.517
 3170POPC   C3B43569  28.930   2.516   6.874
 3170POPC   C4B43570  29.242   2.377   7.179
 3171POPC   NC343571   7.521  30.433   5.317
 3171POPC   PO443572   7.490  29.779   5.206
 3171POPC   GL143573   7.636  29.901   5.656
 3171POPC   GL243574   7.609  29.564   5.693
 3171POPC   C1A43575   7.554  30.054   6.147
 3171POPC   D2A43576   7.131  30.053   6.437
 3171POPC   C3A43577   7.170  30.140   6.907
 3171POPC   C4A43578   7.504  30.183   7.243
 3171POPC   C1B43579   7.658  29.559   6.113
 3171POPC   C2B43580   7.490  29.668   6.496
 3171POPC   C3B43581   7.578  29.844   6.873
 3171POPC   C4B43582   7.530  29.675   7.296
 3172POPC   NC343583   1.893  34.211   5.544
 3172POPC   PO443584   1.590  33.549   5.413
 3172POPC   GL143585   1.780  33.656   5.807
 3172POPC   GL243586   1.740  33.313   5.868
 3172POPC   C1A43587   2.024  33.847   6.192
 3172POPC   D2A43588   2.157  33.707   6.588
 3172POPC   C3A43589   2.057  34.007   6.854
 3172POPC   C4A43590   2.158  33.940   7.238
 3172POPC   C1B43591   1.812  33.410   6.268
 3172POPC   C2B43592   1.638  33.600   6.602
 3172POPC   C3B43593   1.783  33.577   6.996
 3172POPC   C4B43594   2.160  33.439   7.112
 3173POPC   NC343595  28.652   7.289   5.391
 3173POPC   PO443596  28.142   7.654   5.147
 3173POPC   GL143597  28.317   7.605   5.575
 3173POPC   GL243598  28.193   7.830   5.715
 3173POPC   C1A43599  28.494   7.425   6.009
 3173POPC   D2A43600  28.635   7.237   6.422
 3173POPC   C3A43601  28.358   7.136   6.772
 3173POPC   C4A43602  28.230   7.236   7.182
 3173POPC   C1B43603  28.443   7.937   6.055
 3173POPC   C2B43604  28.469   7.765   6.470
 3173POPC   C3B43605  28.419   7.657   6.898
 3173POPC   C4B43606  28.377   7.693   7.333
 3174POPC   NC343607  35.328  16.118   5.461
 3174POPC   PO443608  35.917  15.705   5.621
 3174POPC   GL143609  35.613  15.697   5.939
 3174POPC   GL243610  35.482  16.037   5.945
 3174POPC   C1A43611  35.613  15.762   6.387
 3174POPC   D2A43612  35.526  16.097   6.690
 3174POPC   C3A43613  35.353  16.005   7.099
 3174POPC   C4A43614  35.390  15.800   7.506
 3174POPC   C1B43615  35.066  16.266   6.041
 3174POPC   C2B43616  34.987  16.242   6.467
 3174POPC   C3B43617  35.100  16.373   6.840
 3174POPC   C4B43618  34.996  16.327   7.257
 3175POPC   NC343619   8.860  44.811   5.164
 3175POPC   PO443620   9.200  44.357   5.465
 3175POPC   GL143621   8.936  44.521   5.792
 3175POPC   GL243622   8.885  44.888   5.784
 3175POPC   C1A43623   8.931  44.592   6.227
 3175POPC   D2A43624   9.128  44.743   6.623
 3175POPC   C3A43625   8.880  44.729   7.019
 3175POPC   C4A43626   8.775  44.393   7.295
 3175POPC   C1B43627   9.174   0.060   6.153
 3175POPC   C2B43628   9.535   0.032   6.463
 3175POPC   C3B43629   9.564  44.880   6.903
 3175POPC   C4B43630   9.299   0.000   7.253
 3176POPC   NC343631   6.050   2.712   5.394
 3176POPC   PO443632   5.383   2.757   5.289
 3176POPC   GL143633   5.644   2.810   5.690
 3176POPC   GL243634   5.559   2.461   5.772
 3176POPC   C1A43635   5.974   2.689   6.052
 3176POPC   D2A43636   6.180   2.521   6.443
 3176POPC   C3A43637   6.130   2.792   6.812
 3176POPC   C4A43638   6.038   2.764   7.255
 3176POPC   C1B43639   5.476   2.726   6.159
 3176POPC   C2B43640   5.689   2.695   6.541
 3176POPC   C3B43641   5.732   2.470   6.929
 3176POPC   C4B43642   5.587   2.584   7.361
 3177POPC   NC343643   8.930  34.021   5.423
 3177POPC   PO443644   9.019  33.454   5.258
 3177POPC   GL143645   8.817  33.566   5.731
 3177POPC   GL243646   8.733  33.897   5.876
 3177POPC   C1A43647   8.868  33.592   6.255
 3177POPC   D2A43648   9.073  33.447   6.647
 3177POPC   C3A43649   8.958  33.640   7.026
 3177POPC   C4A43650   9.017  34.020   7.245
 3177POPC   C1B43651   8.509  33.935   6.297
 3177POPC   C2B43652   8.543  33.685   6.700
 3177POPC   C3B43653   8.518  33.869   7.144
 3177POPC   C4B43654   8.587  34.271   7.394
 3178POPC   NC343655  13.181  41.461   5.484
 3178POPC   PO443656  12.595  41.170   5.288
 3178POPC   GL143657  12.670  41.459   5.625
 3178POPC   GL243658  12.359  41.480   5.745
 3178POPC   C1A43659  12.727  41.652   6.045
 3178POPC   D2A43660  13.000  41.506   6.362
 3178POPC   C3A43661  13.071  41.396   6.810
 3178POPC   C4A43662  13.064  41.654   7.199
 3178POPC   C1B43663  12.338  41.352   6.205
 3178POPC   C2B43664  12.552  41.425   6.639
 3178POPC   C3B43665  12.583  41.512   7.096
 3178POPC   C4B43666  12.687  41.498   7.546
 3179POPC   NC343667   0.463  37.945   5.282
 3179POPC   PO443668   0.136  37.416   5.194
 3179POPC   GL143669   0.232  37.551   5.656
 3179POPC   GL243670   0.584  37.598   5.688
 3179POPC   C1A43671   0.281  37.686   6.130
 3179POPC   D2A43672   0.163  37.540   6.570
 3179POPC   C3A43673   0.162  37.757   6.987
 3179POPC   C4A43674   0.222  38.044   7.348
 3179POPC   C1B43675   0.780  37.535   6.091
 3179POPC   C2B43676   0.879  37.728   6.442
 3179POPC   C3B43677   0.619  37.814   6.762
 3179POPC   C4B43678   0.655  37.787   7.206
 3180POPC   NC343679  16.622  27.540   5.364
 3180POPC   PO443680  16.809  28.085   5.378
 3180POPC   GL143681  16.939  27.814   5.763
 3180POPC   GL243682  16.919  27.437   5.776
 3180POPC   C1A43683  16.853  27.681   6.215
 3180POPC   D2A43684  16.936  27.828   6.614
 3180POPC   C3A43685  16.653  27.655   6.935
 3180POPC   C4A43686  16.460  27.889   7.276
 3180POPC   C1B43687  16.560  27.292   6.095
 3180POPC   C2B43688  16.526  27.310   6.540
 3180POPC   C3B43689  16.551  27.161   6.989
 3180POPC   C4B43690  16.585  27.321   7.431
 3181POPC   NC343691  35.926  25.306   5.366
 3181POPC   PO443692  36.576  25.077   5.414
 3181POPC   GL143693  36.375  25.092   5.844
 3181POPC   GL243694  36.011  25.106   5.819
 3181POPC   C1A43695  36.196  25.283   6.259
 3181POPC   D2A43696  36.214  25.622   6.582
 3181POPC   C3A43697  36.014  25.548   6.976
 3181POPC   C4A43698  35.912  25.143   7.180
 3181POPC   C1B43699  36.064  24.793   6.142
 3181POPC   C2B43700  36.156  24.662   6.560
 3181POPC   C3B43701  36.307  24.907   6.898
 3181POPC   C4B43702  36.354  24.913   7.330
 3182POPC   NC343703  23.041  19.983   5.399
 3182POPC   PO443704  22.425  19.544   5.517
 3182POPC   GL143705  22.683  19.815   5.741
 3182POPC   GL243706  23.020  19.724   5.811
 3182POPC   C1A43707  22.640  19.922   6.149
 3182POPC   D2A43708  22.780  19.740   6.534
 3182POPC   C3A43709  22.871  19.994   6.893
 3182POPC   C4A43710  22.626  19.981   7.284
 3182POPC   C1B43711  23.152  19.876   6.160
 3182POPC   C2B43712  23.311  19.647   6.477
 3182POPC   C3B43713  23.125  19.509   6.852
 3182POPC   C4B43714  23.087  19.664   7.230
 3183POPC   NC343715  20.021  28.993   5.259
 3183POPC   PO443716  19.701  29.594   5.331
 3183POPC   GL143717  19.804  29.244   5.643
 3183POPC   GL243718  20.168  29.157   5.744
 3183POPC   C1A43719  19.819  29.234   6.118
 3183POPC   D2A43720  19.672  29.242   6.550
 3183POPC   C3A43721  19.816  28.960   6.884
 3183POPC   C4A43722  19.751  28.759   7.281
 3183POPC   C1B43723  20.307  29.359   6.171
 3183POPC   C2B43724  20.187  29.294   6.593
 3183POPC   C3B43725  20.055  29.389   7.006
 3183POPC   C4B43726  20.161  29.070   7.269
 3184POPC   NC343727  27.406  20.028   5.353
 3184POPC   PO443728  27.883  19.597   5.097
 3184POPC   GL143729  27.747  19.591   5.573
 3184POPC   GL243730  27.585  19.247   5.673
 3184POPC   C1A43731  27.731  19.818   5.999
 3184POPC   D2A43732  27.842  19.979   6.431
 3184POPC   C3A43733  27.671  19.780   6.799
 3184POPC   C4A43734  27.539  19.926   7.194
 3184POPC   C1B43735  27.438  19.403   6.066
 3184POPC   C2B43736  27.334  19.558   6.483
 3184POPC   C3B43737  27.290  19.456   6.945
 3184POPC   C4B43738  27.546  19.377   7.279
 3185POPC   NC343739  10.358  19.944   5.360
 3185POPC   PO443740  10.960  20.068   5.349
 3185POPC   GL143741  10.727  19.863   5.740
 3185POPC   GL243742  10.958  19.604   5.875
 3185POPC   C1A43743  10.474  19.973   6.165
 3185POPC   D2A43744  10.192  20.111   6.570
 3185POPC   C3A43745  10.311  19.996   7.024
 3185POPC   C4A43746  10.711  20.064   7.225
 3185POPC   C1B43747  10.913  19.779   6.302
 3185POPC   C2B43748  10.666  19.847   6.671
 3185POPC   C3B43749  10.714  19.608   7.047
 3185POPC   C4B43750  10.942  19.668   7.424
 3186POPC   NC343751  31.392  11.759   5.451
 3186POPC   PO443752  31.386  11.202   5.434
 3186POPC   GL143753  31.329  11.328   5.870
 3186POPC   GL243754  31.574  11.583   5.931
 3186POPC   C1A43755  31.235  11.320   6.337
 3186POPC   D2A43756  31.255  11.452   6.780
 3186POPC   C3A43757  31.434  11.131   7.055
 3186POPC   C4A43758  31.435  10.806   7.394
 3186POPC   C1B43759  31.607  11.680   6.388
 3186POPC   C2B43760  31.728  11.608   6.842
 3186POPC   C3B43761  31.500  11.598   7.263
 3186POPC   C4B43762  31.516  11.588   7.736
 3187POPC   NC343763  29.534  22.167   5.397
 3187POPC   PO443764  28.919  21.909   5.309
 3187POPC   GL143765  29.139  22.026   5.685
 3187POPC   GL243766  29.049  22.349   5.730
 3187POPC   C1A43767  29.259  22.066   6.131
 3187POPC   D2A43768  29.390  21.949   6.553
 3187POPC   C3A43769  29.073  21.877   6.856
 3187POPC   C4A43770  28.987  21.856   7.299
 3187POPC   C1B43771  28.975  22.494   6.166
 3187POPC   C2B43772  28.974  22.335   6.582
 3187POPC   C3B43773  29.123  22.353   7.002
 3187POPC   C4B43774  29.008  22.422   7.411
 3188POPC   NC343775  27.436  34.988   5.351
 3188POPC   PO443776  27.317  34.289   5.245
 3188POPC   GL143777  27.648  34.352   5.612
 3188POPC   GL243778  27.578  34.692   5.765
 3188POPC   C1A43779  27.698  34.308   6.085
 3188POPC   D2A43780  27.633  34.512   6.504
 3188POPC   C3A43781  27.532  34.386   6.911
 3188POPC   C4A43782  27.634  34.344   7.355
 3188POPC   C1B43783  27.545  34.881   6.185
 3188POPC   C2B43784  27.261  34.855   6.574
 3188POPC   C3B43785  27.343  34.849   7.006
 3188POPC   C4B43786  27.735  34.811   7.165
 3189POPC   NC343787  10.742  40.223   5.451
 3189POPC   PO443788  10.278  39.804   5.596
 3189POPC   GL143789  10.507  40.020   5.849
 3189POPC   GL243790  10.291  40.277   5.813
 3189POPC   C1A43791  10.702  40.016   6.210
 3189POPC   D2A43792  10.539  39.806   6.553
 3189POPC   C3A43793  10.647  40.069   6.896
 3189POPC   C4A43794  10.678  39.953   7.315
 3189POPC   C1B43795  10.167  40.061   6.245
 3189POPC   C2B43796  10.128  40.050   6.715
 3189POPC   C3B43797  10.208  39.895   7.112
 3189POPC   C4B43798  10.239  40.139   7.497
 3190POPC   NC343799  13.885  11.377   5.531
 3190POPC   PO443800  13.369  10.873   5.386
 3190POPC   GL143801  13.416  10.977   5.840
 3190POPC   GL243802  13.561  11.283   5.933
 3190POPC   C1A43803  13.391  11.002   6.303
 3190POPC   D2A43804  13.586  11.254   6.612
 3190POPC   C3A43805  13.765  11.085   6.984
 3190POPC   C4A43806  13.542  11.125   7.344
 3190POPC   C1B43807  13.432  11.608   6.234
 3190POPC   C2B43808  13.611  11.762   6.645
 3190POPC   C3B43809  13.584  11.570   7.052
 3190POPC   C4B43810  13.822  11.561   7.430
 3191POPC   NC343811  16.439  37.642   5.512
 3191POPC   PO443812  16.957  37.961   5.509
 3191POPC   GL143813  16.765  37.795   5.895
 3191POPC   GL243814  16.397  37.873   5.959
 3191POPC   C1A43815  16.719  37.912   6.350
 3191POPC   D2A43816  16.581  37.892   6.773
 3191POPC   C3A43817  16.947  38.003   7.052
 3191POPC   C4A43818  17.228  37.980   7.415
 3191POPC   C1B43819  16.515  37.456   6.194
 3191POPC   C2B43820  16.296  37.250   6.573
 3191POPC   C3B43821  16.394  37.287   7.005
 3191POPC   C4B43822  16.682  37.583   7.158
 3192POPC   NC343823  25.979  12.567   5.369
 3192POPC   PO443824  26.474  13.007   5.463
 3192POPC   GL143825  26.113  12.942   5.751
 3192POPC   GL243826  25.952  12.622   5.864
 3192POPC   C1A43827  26.113  13.001   6.190
 3192POPC   D2A43828  26.037  13.168   6.574
 3192POPC   C3A43829  26.194  12.956   6.899
 3192POPC   C4A43830  26.133  12.893   7.332
 3192POPC   C1B43831  25.922  12.518   6.265
 3192POPC   C2B43832  26.165  12.497   6.634
 3192POPC   C3B43833  26.005  12.500   7.041
 3192POPC   C4B43834  25.651  12.690   7.289
 3193POPC   NC343835  18.511  10.734   4.933
 3193POPC   PO443836  18.519  10.170   5.362
 3193POPC   GL143837  18.384  10.310   5.771
 3193POPC   GL243838  18.708  10.383   5.839
 3193POPC   C1A43839  18.206  10.410   6.178
 3193POPC   D2A43840  18.057  10.284   6.586
 3193POPC   C3A43841  18.236  10.478   6.958
 3193POPC   C4A43842  18.030  10.647   7.311
 3193POPC   C1B43843  18.649  10.682   6.190
 3193POPC   C2B43844  18.619  10.613   6.631
 3193POPC   C3B43845  18.614  10.843   6.988
 3193POPC   C4B43846  18.514  10.743   7.389
 3194POPC   NC343847  21.714  11.696   5.371
 3194POPC   PO443848  21.245  12.218   5.406
 3194POPC   GL143849  21.560  12.144   5.710
 3194POPC   GL243850  21.792  12.388   5.639
 3194POPC   C1A43851  21.512  12.080   6.154
 3194POPC   D2A43852  21.316  11.815   6.471
 3194POPC   C3A43853  21.310  12.021   6.871
 3194POPC   C4A43854  21.174  11.882   7.254
 3194POPC   C1B43855  21.653  12.568   6.044
 3194POPC   C2B43856  21.601  12.462   6.484
 3194POPC   C3B43857  21.662  12.413   6.921
 3194POPC   C4B43858  21.630  12.181   7.284
 3195POPC   NC343859  38.340   8.673   5.532
 3195POPC   PO443860  38.222   9.258   5.523
 3195POPC   GL143861  38.415   9.167   5.888
 3195POPC   GL243862  38.211   8.895   5.990
 3195POPC   C1A43863  38.436   9.177   6.339
 3195POPC   D2A43864  38.134   8.924   6.580
 3195POPC   C3A43865  38.304   8.972   6.971
 3195POPC   C4A43866  38.632   9.293   6.951
 3195POPC   C1B43867  37.955   9.241   6.188
 3195POPC   C2B43868  37.682   9.205   6.560
 3195POPC   C3B43869  37.792   9.070   6.987
 3195POPC   C4B43870  37.862   8.965   7.429
 3196POPC   NC343871  25.968  32.803   5.517
 3196POPC   PO443872  26.195  33.428   5.431
 3196POPC   GL143873  26.099  33.195   5.828
 3196POPC   GL243874  26.356  32.927   5.844
 3196POPC   C1A43875  25.790  32.952   6.137
 3196POPC   D2A43876  25.692  32.824   6.578
 3196POPC   C3A43877  25.853  33.058   6.945
 3196POPC   C4A43878  25.972  33.061   7.394
 3196POPC   C1B43879  26.304  32.925   6.282
 3196POPC   C2B43880  26.210  32.774   6.694
 3196POPC   C3B43881  26.309  32.804   7.136
 3196POPC   C4B43882  26.288  32.678   7.577
 3197POPC   NC343883  19.883   1.462   5.379
 3197POPC   PO443884  19.372   1.111   5.485
 3197POPC   GL143885  19.563   1.412   5.789
 3197POPC   GL243886  19.950   1.355   5.890
 3197POPC   C1A43887  19.538   1.352   6.222
 3197POPC   D2A43888  19.715   1.166   6.599
 3197POPC   C3A43889  19.488   1.216   6.964
 3197POPC   C4A43890  19.609   1.094   7.393
 3197POPC   C1B43891  20.083   1.429   6.347
 3197POPC   C2B43892  20.173   1.334   6.793
 3197POPC   C3B43893  20.069   1.057   7.156
 3197POPC   C4B43894  20.046   1.228   7.610
 3198POPC   NC343895   6.272   4.967   5.326
 3198POPC   PO443896   5.683   5.336   5.305
 3198POPC   GL143897   5.799   5.051   5.623
 3198POPC   GL243898   6.064   5.239   5.723
 3198POPC   C1A43899   5.701   5.038   6.068
 3198POPC   D2A43900   5.896   5.094   6.477
 3198POPC   C3A43901   5.743   4.896   6.865
 3198POPC   C4A43902   5.739   5.063   7.286
 3198POPC   C1B43903   6.020   5.476   6.107
 3198POPC   C2B43904   5.935   5.637   6.523
 3198POPC   C3B43905   5.798   5.487   6.920
 3198POPC   C4B43906   5.999   5.535   7.315
 3199POPC   NC343907  28.773  32.940   5.249
 3199POPC   PO443908  29.248  33.402   5.441
 3199POPC   GL143909  29.028  33.143   5.813
 3199POPC   GL243910  28.746  32.885   5.801
 3199POPC   C1A43911  29.102  32.875   6.203
 3199POPC   D2A43912  29.269  32.670   6.610
 3199POPC   C3A43913  29.219  32.859   7.025
 3199POPC   C4A43914  29.092  33.296   7.098
 3199POPC   C1B43915  28.635  33.051   6.250
 3199POPC   C2B43916  28.848  33.003   6.663
 3199POPC   C3B43917  28.722  32.866   7.091
 3199POPC   C4B43918  28.741  33.139   7.443
 3200POPC   NC343919  38.041  28.458   5.394
 3200POPC   PO443920  37.430  28.217   5.237
 3200POPC   GL143921  37.591  28.157   5.659
 3200POPC   GL243922  37.285  28.145   5.787
 3200POPC   C1A43923  37.663  28.302   6.113
 3200POPC   D2A43924  37.642  28.600   6.458
 3200POPC   C3A43925  37.621  28.391   6.850
 3200POPC   C4A43926  37.815  28.426   7.239
 3200POPC   C1B43927  37.257  27.980   6.191
 3200POPC   C2B43928  37.468  27.994   6.557
 3200POPC   C3B43929  37.303  28.011   6.969
 3200POPC   C4B43930  37.413  28.074   7.371
 3201POPC   NC343931  35.616  43.635   5.433
 3201POPC   PO443932  34.933  43.495   5.484
 3201POPC   GL143933  35.085  43.775   5.834
 3201POPC   GL243934  35.464  43.831   5.877
 3201POPC   C1A43935  35.168  43.961   6.268
 3201POPC   D2A43936  35.564  43.890   6.482
 3201POPC   C3A43937  35.624  43.972   6.909
 3201POPC   C4A43938  35.402  43.956   7.269
 3201POPC   C1B43939  35.546  43.483   6.161
 3201POPC   C2B43940  35.606  43.403   6.623
 3201POPC   C3B43941  35.498  43.493   7.080
 3201POPC   C4B43942  35.432  43.527   7.578
 3202POPC   NC343943  40.079  16.393   5.485
 3202POPC   PO443944  39.688  17.033   5.533
 3202POPC   GL143945  39.795  16.845   5.903
 3202POPC   GL243946  39.661  16.508   5.818
 3202POPC   C1A43947  40.070  16.982   6.259
 3202POPC   D2A43948  40.290  16.943   6.666
 3202POPC   C3A43949  40.029  17.058   7.028
 3202POPC   C4A43950  39.791  16.916   7.378
 3202POPC   C1B43951  39.869  16.414   6.194
 3202POPC   C2B43952  39.903  16.623   6.573
 3202POPC   C3B43953  40.117  16.558   6.931
 3202POPC   C4B43954  40.106  16.268   7.176
 3203POPC   NC343955  28.973  41.123   5.170
 3203POPC   PO443956  29.463  41.034   5.579
 3203POPC   GL143957  29.130  41.067   5.852
 3203POPC   GL243958  28.858  40.889   5.718
 3203POPC   C1A43959  29.107  40.981   6.293
 3203POPC   D2A43960  28.949  40.880   6.677
 3203POPC   C3A43961  29.186  40.993   7.005
 3203POPC   C4A43962  29.339  40.868   7.380
 3203POPC   C1B43963  28.933  40.555   6.085
 3203POPC   C2B43964  28.927  40.405   6.551
 3203POPC   C3B43965  29.028  40.489   7.025
 3203POPC   C4B43966  29.165  40.395   7.473
 3204POPC   NC343967  20.128  35.032   5.534
 3204POPC   PO443968  19.641  34.539   5.449
 3204POPC   GL143969  19.843  34.708   5.844
 3204POPC   GL243970  19.686  35.060   5.909
 3204POPC   C1A43971  19.939  34.493   6.265
 3204POPC   D2A43972  19.615  34.310   6.565
 3204POPC   C3A43973  19.550  34.431   6.977
 3204POPC   C4A43974  19.903  34.424   7.194
 3204POPC   C1B43975  19.568  34.844   6.314
 3204POPC   C2B43976  19.813  34.785   6.707
 3204POPC   C3B43977  20.034  34.914   7.097
 3204POPC   C4B43978  20.463  34.859   7.211
 3205POPC   NC343979  34.246  25.403   4.884
 3205POPC   PO443980  34.739  25.302   5.284
 3205POPC   GL143981  34.668  25.149   5.758
 3205POPC   GL243982  34.820  24.826   5.882
 3205POPC   C1A43983  34.602  25.176   6.222
 3205POPC   D2A43984  34.315  25.077   6.577
 3205POPC   C3A43985  34.532  25.216   6.965
 3205POPC   C4A43986  34.526  25.530   7.303
 3205POPC   C1B43987  34.898  24.744   6.263
 3205POPC   C2B43988  34.769  24.853   6.608
 3205POPC   C3B43989  34.894  24.778   6.947
 3205POPC   C4B43990  34.810  24.950   7.305
 3206POPC   NC343991  25.681   5.773   5.327
 3206POPC   PO443992  26.127   6.208   5.255
 3206POPC   GL143993  26.050   6.002   5.667
 3206POPC   GL243994  26.095   5.629   5.693
 3206POPC   C1A43995  26.209   6.052   6.090
 3206POPC   D2A43996  26.228   6.262   6.480
 3206POPC   C3A43997  26.364   6.139   6.884
 3206POPC   C4A43998  26.021   6.148   7.132
 3206POPC   C1B43999  26.120   5.540   6.136
 3206POPC   C2B44000  26.178   5.748   6.531
 3206POPC   C3B44001  26.148   5.670   6.959
 3206POPC   C4B44002  25.900   5.416   7.186
 3207POPC   NC344003  26.137  13.320   5.385
 3207POPC   PO444004  25.674  13.768   5.253
 3207POPC   GL144005  25.959  13.746   5.672
 3207POPC   GL244006  26.182  13.461   5.860
 3207POPC   C1A44007  26.012  13.851   6.123
 3207POPC   D2A44008  25.977  13.676   6.546
 3207POPC   C3A44009  26.050  13.939   6.925
 3207POPC   C4A44010  25.802  13.813   7.266
 3207POPC   C1B44011  26.451  13.587   6.227
 3207POPC   C2B44012  26.469  13.704   6.688
 3207POPC   C3B44013  26.207  13.455   7.017
 3207POPC   C4B44014  26.008  13.385   7.443
 3208POPC   NC344015  25.072   7.410   5.393
 3208POPC   PO444016  25.653   7.071   5.405
 3208POPC   GL144017  25.443   7.326   5.820
 3208POPC   GL244018  25.109   7.513   5.881
 3208POPC   C1A44019  25.222   7.242   6.267
 3208POPC   D2A44020  24.968   7.430   6.579
 3208POPC   C3A44021  25.058   7.177   6.937
 3208POPC   C4A44022  25.330   7.124   7.322
 3208POPC   C1B44023  25.343   7.727   6.222
 3208POPC   C2B44024  25.464   7.565   6.632
 3208POPC   C3B44025  25.294   7.598   7.070
 3208POPC   C4B44026  25.492   7.580   7.470
 3209POPC   NC344027  31.751  22.035   5.355
 3209POPC   PO444028  31.257  22.539   5.252
 3209POPC   GL144029  31.337  22.281   5.656
 3209POPC   GL244030  31.691  22.317   5.799
 3209POPC   C1A44031  31.251  22.255   6.115
 3209POPC   D2A44032  31.394  22.324   6.568
 3209POPC   C3A44033  31.231  22.097   6.924
 3209POPC   C4A44034  31.088  22.103   7.350
 3209POPC   C1B44035  31.727  22.093   6.224
 3209POPC   C2B44036  31.731  21.929   6.646
 3209POPC   C3B44037  31.690  21.902   7.088
 3209POPC   C4B44038  31.582  22.189   7.361
 3210POPC   NC344039  41.109  44.531   5.357
 3210POPC   PO444040  40.462  44.550   5.219
 3210POPC   GL144041  40.685  44.726   5.598
 3210POPC   GL244042  40.767  44.399   5.758
 3210POPC   C1A44043  40.835  44.821   6.049
 3210POPC   D2A44044  41.066  44.769   6.461
 3210POPC   C3A44045  40.798  44.697   6.860
 3210POPC   C4A44046  40.938  44.663   7.288
 3210POPC   C1B44047  40.540  44.401   6.192
 3210POPC   C2B44048  40.379  44.431   6.654
 3210POPC   C3B44049  40.472  44.417   7.127
 3210POPC   C4B44050  40.558  44.491   7.592
 3211POPC   NC344051   9.157  33.038   5.168
 3211POPC   PO444052   8.506  32.933   5.306
 3211POPC   GL144053   8.882  33.070   5.601
 3211POPC   GL244054   9.179  32.859   5.695
 3211POPC   C1A44055   9.028  33.179   6.040
 3211POPC   D2A44056   9.159  32.941   6.416
 3211POPC   C3A44057   9.064  32.978   6.847
 3211POPC   C4A44058   9.277  33.260   7.135
 3211POPC   C1B44059   8.906  32.676   6.056
 3211POPC   C2B44060   8.713  32.683   6.519
 3211POPC   C3B44061   8.620  32.760   6.992
 3211POPC   C4B44062   8.879  33.003   7.321
 3212POPC   NC344063   5.208   8.259   5.244
 3212POPC   PO444064   5.618   8.454   5.715
 3212POPC   GL144065   5.230   8.189   5.777
 3212POPC   GL244066   5.364   7.861   5.923
 3212POPC   C1A44067   4.903   8.373   6.071
 3212POPC   D2A44068   5.089   8.533   6.473
 3212POPC   C3A44069   5.010   8.353   6.889
 3212POPC   C4A44070   5.249   8.340   7.252
 3212POPC   C1B44071   5.012   7.882   6.181
 3212POPC   C2B44072   5.118   7.916   6.610
 3212POPC   C3B44073   5.373   7.926   6.986
 3212POPC   C4B44074   5.216   7.834   7.413
 3213POPC   NC344075  17.345  26.093   5.310
 3213POPC   PO444076  17.779  25.591   5.444
 3213POPC   GL144077  17.375  25.717   5.708
 3213POPC   GL244078  17.310  26.088   5.810
 3213POPC   C1A44079  17.213  25.747   6.167
 3213POPC   D2A44080  17.180  25.843   6.606
 3213POPC   C3A44081  17.527  25.902   6.882
 3213POPC   C4A44082  17.625  25.942   7.291
 3213POPC   C1B44083  17.503  26.293   6.163
 3213POPC   C2B44084  17.505  26.306   6.592
 3213POPC   C3B44085  17.416  26.379   7.036
 3213POPC   C4B44086  17.277  26.283   7.460
 3214POPC   NC344087  37.605  10.284   5.571
 3214POPC   PO444088  37.344   9.627   5.448
 3214POPC   GL144089  37.452   9.850   5.815
 3214POPC   GL244090  37.781   9.833   5.915
 3214POPC   C1A44091  37.406  10.117   6.189
 3214POPC   D2A44092  37.200  10.059   6.594
 3214POPC   C3A44093  37.342   9.910   7.022
 3214POPC   C4A44094  37.377   9.663   7.460
 3214POPC   C1B44095  37.634   9.673   6.316
 3214POPC   C2B44096  37.720   9.698   6.764
 3214POPC   C3B44097  37.844   9.534   7.155
 3214POPC   C4B44098  38.217   9.314   7.324
 3215POPC   NC344099  16.010  44.345   5.380
 3215POPC   PO444100  16.047  44.995   5.396
 3215POPC   GL144101  15.750  44.771   5.678
 3215POPC   GL244102  15.814  44.423   5.837
 3215POPC   C1A44103  15.746  44.811   6.139
 3215POPC   D2A44104  16.062  44.683   6.462
 3215POPC   C3A44105  16.078  44.916   6.858
 3215POPC   C4A44106  16.087  44.818   7.302
 3215POPC   C1B44107  15.749  44.302   6.255
 3215POPC   C2B44108  15.640  44.485   6.668
 3215POPC   C3B44109  15.989  44.423   6.964
 3215POPC   C4B44110  15.971  44.358   7.426
 3216POPC   NC344111  30.803   7.798   5.457
 3216POPC   PO444112  30.571   7.184   5.399
 3216POPC   GL144113  30.668   7.406   5.747
 3216POPC   GL244114  30.965   7.273   5.905
 3216POPC   C1A44115  30.544   7.613   6.115
 3216POPC   D2A44116  30.759   7.475   6.471
 3216POPC   C3A44117  30.530   7.449   6.859
 3216POPC   C4A44118  30.718   7.508   7.278
 3216POPC   C1B44119  30.997   6.966   6.294
 3216POPC   C2B44120  31.049   6.902   6.760
 3216POPC   C3B44121  30.775   7.017   7.123
 3216POPC   C4B44122  30.776   7.089   7.584
 3217POPC   NC344123  24.761  23.107   5.450
 3217POPC   PO444124  24.373  22.521   5.525
 3217POPC   GL144125  24.299  22.847   5.848
 3217POPC   GL244126  24.542  23.145   5.909
 3217POPC   C1A44127  24.400  22.843   6.285
 3217POPC   D2A44128  24.685  22.884   6.612
 3217POPC   C3A44129  24.376  22.849   6.931
 3217POPC   C4A44130  24.184  22.767   7.320
 3217POPC   C1B44131  24.667  23.452   6.223
 3217POPC   C2B44132  24.861  23.415   6.616
 3217POPC   C3B44133  24.724  23.237   6.976
 3217POPC   C4B44134  24.506  23.150   7.334
 3218POPC   NC344135  41.496  10.377   5.236
 3218POPC   PO444136  41.436  10.969   5.531
 3218POPC   GL144137  41.565  10.587   5.740
 3218POPC   GL244138  41.374  10.267   5.725
 3218POPC   C1A44139  41.737  10.657   6.139
 3218POPC   D2A44140  41.731  10.886   6.485
 3218POPC   C3A44141  41.768  10.708   6.873
 3218POPC   C4A44142  41.630  10.765   7.274
 3218POPC   C1B44143  41.740  10.174   6.047
 3218POPC   C2B44144  41.757  10.289   6.527
 3218POPC   C3B44145  41.465  10.275   6.925
 3218POPC   C4B44146  41.340  10.330   7.377
 3219POPC   NC344147  34.865  42.534   5.048
 3219POPC   PO444148  35.359  42.080   5.215
 3219POPC   GL144149  35.514  42.190   5.637
 3219POPC   GL244150  35.434  41.891   5.783
 3219POPC   C1A44151  35.424  42.415   6.063
 3219POPC   D2A44152  35.314  42.490   6.510
 3219POPC   C3A44153  35.509  42.469   6.914
 3219POPC   C4A44154  35.252  42.511   7.252
 3219POPC   C1B44155  35.716  42.010   6.147
 3219POPC   C2B44156  35.728  42.133   6.592
 3219POPC   C3B44157  35.785  42.033   7.053
 3219POPC   C4B44158  35.952  42.139   7.478
 3220POPC   NC344159  43.127  38.261   5.346
 3220POPC   PO444160  42.589  38.622   5.121
 3220POPC   GL144161  42.818  38.640   5.555
 3220POPC   GL244162  43.195  38.658   5.649
 3220POPC   C1A44163  42.859  38.506   6.030
 3220POPC   D2A44164  42.680  38.704   6.423
 3220POPC   C3A44165  42.898  38.633   6.844
 3220POPC   C4A44166  43.097  38.354   7.181
 3220POPC   C1B44167  43.400  38.476   6.027
 3220POPC   C2B44168  43.379  38.545   6.493
 3220POPC   C3B44169  43.549  38.454   6.928
 3220POPC   C4B44170  43.487  38.617   7.364
 3221POPC   NC344171  31.098  19.691   5.332
 3221POPC   PO444172  30.561  20.085   5.367
 3221POPC   GL144173  30.637  19.730   5.678
 3221POPC   GL244174  30.938  19.580   5.795
 3221POPC   C1A44175  30.481  19.715   6.117
 3221POPC   D2A44176  30.393  19.861   6.532
 3221POPC   C3A44177  30.496  19.603   6.886
 3221POPC   C4A44178  30.380  19.652   7.340
 3221POPC   C1B44179  30.976  19.845   6.091
 3221POPC   C2B44180  30.900  19.746   6.490
 3221POPC   C3B44181  30.982  19.744   6.896
 3221POPC   C4B44182  30.870  19.504   7.242
 3222POPC   NC344183   9.656  17.467   5.519
 3222POPC   PO444184   9.229  17.111   5.644
 3222POPC   GL144185   9.346  17.465   5.942
 3222POPC   GL244186   9.619  17.721   5.939
 3222POPC   C1A44187   9.507  17.473   6.361
 3222POPC   D2A44188   9.835  17.416   6.645
 3222POPC   C3A44189   9.664  17.530   7.052
 3222POPC   C4A44190   9.237  17.690   7.134
 3222POPC   C1B44191   9.838  17.892   6.315
 3222POPC   C2B44192  10.005  17.891   6.747
 3222POPC   C3B44193   9.965  17.915   7.191
 3222POPC   C4B44194  10.077  17.916   7.643
 3223POPC   NC344195  21.866  37.778   5.657
 3223POPC   PO444196  21.385  37.633   5.299
 3223POPC   GL144197  21.445  37.505   5.749
 3223POPC   GL244198  21.510  37.796   5.995
 3223POPC   C1A44199  21.532  37.285   6.143
 3223POPC   D2A44200  21.307  37.101   6.502
 3223POPC   C3A44201  21.394  37.303   6.901
 3223POPC   C4A44202  21.599  37.562   7.212
 3223POPC   C1B44203  21.326  38.048   6.328
 3223POPC   C2B44204  21.230  38.013   6.747
 3223POPC   C3B44205  21.447  38.035   7.135
 3223POPC   C4B44206  21.784  38.011   7.469
 3224POPC   NC344207  13.637  10.105   5.363
 3224POPC   PO444208  13.611   9.520   4.934
 3224POPC   GL144209  13.548   9.581   5.491
 3224POPC   GL244210  13.711   9.809   5.751
 3224POPC   C1A44211  13.518   9.427   6.005
 3224POPC   D2A44212  13.688   9.313   6.452
 3224POPC   C3A44213  13.690   9.587   6.841
 3224POPC   C4A44214  13.340   9.646   7.141
 3224POPC   C1B44215  13.563   9.971   6.126
 3224POPC   C2B44216  13.372   9.800   6.455
 3224POPC   C3B44217  13.370  10.021   6.811
 3224POPC   C4B44218  13.632  10.057   7.166
 3225POPC   NC344219   8.960   1.474   5.457
 3225POPC   PO444220   8.870   0.807   5.598
 3225POPC   GL144221   8.750   1.158   5.816
 3225POPC   GL244222   9.113   1.212   5.863
 3225POPC   C1A44223   8.733   1.142   6.236
 3225POPC   D2A44224   9.043   1.010   6.523
 3225POPC   C3A44225   8.920   0.993   6.943
 3225POPC   C4A44226   9.030   1.158   7.341
 3225POPC   C1B44227   9.146   1.444   6.230
 3225POPC   C2B44228   9.446   1.513   6.513
 3225POPC   C3B44229   9.276   1.381   6.903
 3225POPC   C4B44230   9.470   1.383   7.277
 3226POPC   NC344231   7.145  31.358   5.268
 3226POPC   PO444232   6.481  31.469   5.167
 3226POPC   GL144233   6.400  31.515   5.629
 3226POPC   GL244234   6.749  31.473   5.698
 3226POPC   C1A44235   6.364  31.459   6.086
 3226POPC   D2A44236   6.551  31.520   6.516
 3226POPC   C3A44237   6.490  31.367   6.933
 3226POPC   C4A44238   6.422  31.563   7.344
 3226POPC   C1B44239   6.859  31.326   6.133
 3226POPC   C2B44240   6.920  31.059   6.494
 3226POPC   C3B44241   6.976  31.095   6.943
 3226POPC   C4B44242   6.892  31.354   7.304
 3227POPC   NC344243   6.737   3.432   5.490
 3227POPC   PO444244   6.136   3.878   5.635
 3227POPC   GL144245   6.407   3.620   5.911
 3227POPC   GL244246   6.809   3.636   5.946
 3227POPC   C1A44247   6.512   3.832   6.291
 3227POPC   D2A44248   6.719   3.589   6.573
 3227POPC   C3A44249   6.688   3.692   6.987
 3227POPC   C4A44250   6.317   3.649   7.206
 3227POPC   C1B44251   6.726   3.278   6.160
 3227POPC   C2B44252   6.844   3.078   6.525
 3227POPC   C3B44253   6.946   3.132   6.961
 3227POPC   C4B44254   7.109   3.494   7.198
 3228POPC   NC344255  17.694   4.929   5.455
 3228POPC   PO444256  17.099   5.312   5.512
 3228POPC   GL144257  17.495   5.302   5.781
 3228POPC   GL244258  17.640   5.021   5.951
 3228POPC   C1A44259  17.346   5.306   6.240
 3228POPC   D2A44260  17.340   5.001   6.573
 3228POPC   C3A44261  17.354   5.157   6.997
 3228POPC   C4A44262  17.271   5.007   7.427
 3228POPC   C1B44263  17.845   5.245   6.313
 3228POPC   C2B44264  17.818   5.096   6.743
 3228POPC   C3B44265  17.847   5.153   7.206
 3228POPC   C4B44266  18.029   5.394   7.570
 3229POPC   NC344267   1.293   4.465   5.329
 3229POPC   PO444268   1.249   3.808   5.203
 3229POPC   GL144269   1.386   4.033   5.609
 3229POPC   GL244270   1.104   4.181   5.757
 3229POPC   C1A44271   1.569   4.191   6.035
 3229POPC   D2A44272   1.496   4.074   6.485
 3229POPC   C3A44273   1.504   4.317   6.876
 3229POPC   C4A44274   1.287   4.554   7.162
 3229POPC   C1B44275   1.069   4.281   6.218
 3229POPC   C2B44276   1.046   4.413   6.662
 3229POPC   C3B44277   0.849   4.346   7.083
 3229POPC   C4B44278   0.935   4.647   7.487
 3230POPC   NC344279  15.033  39.747   5.525
 3230POPC   PO444280  15.446  39.966   5.033
 3230POPC   GL144281  15.448  40.070   5.543
 3230POPC   GL244282  15.452  39.788   5.812
 3230POPC   C1A44283  15.343  40.224   6.027
 3230POPC   D2A44284  15.131  40.257   6.454
 3230POPC   C3A44285  15.325  40.281   6.903
 3230POPC   C4A44286  14.991  40.488   7.149
 3230POPC   C1B44287  15.282  39.730   6.248
 3230POPC   C2B44288  15.230  39.817   6.686
 3230POPC   C3B44289  14.904  39.999   6.974
 3230POPC   C4B44290  15.061  40.061   7.395
 3231POPC   NC344291   9.072  36.636   5.539
 3231POPC   PO444292   8.795  36.043   5.390
 3231POPC   GL144293   8.873  36.176   5.794
 3231POPC   GL244294   8.524  36.147   5.824
 3231POPC   C1A44295   9.083  36.171   6.217
 3231POPC   D2A44296   8.871  36.247   6.615
 3231POPC   C3A44297   9.094  36.395   6.976
 3231POPC   C4A44298   8.990  36.176   7.349
 3231POPC   C1B44299   8.591  36.013   6.220
 3231POPC   C2B44300   8.442  35.954   6.628
 3231POPC   C3B44301   8.647  35.967   7.001
 3231POPC   C4B44302   8.733  35.726   7.335
 3232POPC   NC344303  36.668  34.202   5.575
 3232POPC   PO444304  37.306  34.419   5.408
 3232POPC   GL144305  37.032  34.489   5.810
 3232POPC   GL244306  37.271  34.478   6.005
 3232POPC   C1A44307  36.878  34.758   6.220
 3232POPC   D2A44308  36.911  34.649   6.717
 3232POPC   C3A44309  36.712  34.803   7.139
 3232POPC   C4A44310  36.532  34.964   7.564
 3232POPC   C1B44311  36.968  34.278   6.282
 3232POPC   C2B44312  37.305  34.330   6.561
 3232POPC   C3B44313  37.379  34.509   6.915
 3232POPC   C4B44314  37.096  34.449   7.220
 3233POPC   NC344315  15.117  29.773   5.448
 3233POPC   PO444316  15.285  30.448   5.371
 3233POPC   GL144317  15.410  30.240   5.753
 3233POPC   GL244318  15.041  30.140   5.802
 3233POPC   C1A44319  15.326  30.165   6.204
 3233POPC   D2A44320  14.977  30.108   6.482
 3233POPC   C3A44321  15.081  29.998   6.886
 3233POPC   C4A44322  15.394  30.124   7.165
 3233POPC   C1B44323  14.963  29.782   6.103
 3233POPC   C2B44324  14.745  29.640   6.478
 3233POPC   C3B44325  14.790  29.560   6.907
 3233POPC   C4B44326  14.757  29.842   7.259
 3234POPC   NC344327   3.943  15.837   5.228
 3234POPC   PO444328   4.567  15.856   5.443
 3234POPC   GL144329   4.229  15.933   5.754
 3234POPC   GL244330   3.960  15.686   5.711
 3234POPC   C1A44331   4.234  16.047   6.213
 3234POPC   D2A44332   4.366  16.040   6.659
 3234POPC   C3A44333   4.202  16.204   7.055
 3234POPC   C4A44334   4.296  16.241   7.516
 3234POPC   C1B44335   4.057  15.570   6.125
 3234POPC   C2B44336   4.129  15.602   6.542
 3234POPC   C3B44337   4.102  15.691   6.959
 3234POPC   C4B44338   4.351  15.776   7.286
 3235POPC   NC344339  25.127  14.088   5.446
 3235POPC   PO444340  25.085  14.795   5.235
 3235POPC   GL144341  25.052  14.574   5.644
 3235POPC   GL244342  24.719  14.674   5.756
 3235POPC   C1A44343  25.303  14.503   6.065
 3235POPC   D2A44344  25.327  14.737   6.491
 3235POPC   C3A44345  25.498  14.688   6.907
 3235POPC   C4A44346  25.307  14.535   7.314
 3235POPC   C1B44347  24.874  14.738   6.194
 3235POPC   C2B44348  24.880  14.491   6.606
 3235POPC   C3B44349  24.894  14.241   6.990
 3235POPC   C4B44350  24.826  14.347   7.416
 3236POPC   NC344351  20.822  42.566   5.407
 3236POPC   PO444352  20.185  42.427   5.369
 3236POPC   GL144353  20.433  42.332   5.766
 3236POPC   GL244354  20.752  42.135   5.711
 3236POPC   C1A44355  20.469  42.475   6.221
 3236POPC   D2A44356  20.629  42.513   6.673
 3236POPC   C3A44357  20.378  42.551   7.065
 3236POPC   C4A44358  20.425  42.590   7.535
 3236POPC   C1B44359  20.631  41.950   6.105
 3236POPC   C2B44360  20.445  42.038   6.495
 3236POPC   C3B44361  20.520  42.024   6.925
 3236POPC   C4B44362  20.448  41.948   7.361
 3237POPC   NC344363  15.799   8.824   5.371
 3237POPC   PO444364  16.370   9.160   5.378
 3237POPC   GL144365  16.050   9.137   5.724
 3237POPC   GL244366  15.998   8.781   5.857
 3237POPC   C1A44367  15.912   9.180   6.173
 3237POPC   D2A44368  16.068   9.044   6.593
 3237POPC   C3A44369  15.867   9.087   7.027
 3237POPC   C4A44370  16.061   9.248   7.416
 3237POPC   C1B44371  15.794   8.648   6.268
 3237POPC   C2B44372  15.802   8.633   6.722
 3237POPC   C3B44373  15.603   8.641   7.120
 3237POPC   C4B44374  15.794   8.809   7.485
 3238POPC   NC344375  38.218  11.072   5.499
 3238POPC   PO444376  38.763  11.463   5.585
 3238POPC   GL144377  38.506  11.328   5.886
 3238POPC   GL244378  38.290  11.626   5.949
 3238POPC   C1A44379  38.391  11.297   6.327
 3238POPC   D2A44380  38.284  11.353   6.740
 3238POPC   C3A44381  38.332  11.036   7.000
 3238POPC   C4A44382  38.249  11.049   7.469
 3238POPC   C1B44383  38.709  11.700   6.186
 3238POPC   C2B44384  38.821  11.652   6.607
 3238POPC   C3B44385  38.605  11.683   6.976
 3238POPC   C4B44386  38.524  11.420   7.262
 3239POPC   NC344387  26.415  23.575   5.506
 3239POPC   PO444388  25.796  23.868   5.573
 3239POPC   GL144389  26.181  23.881   5.832
 3239POPC   GL244390  26.201  24.150   6.038
 3239POPC   C1A44391  26.338  23.651   6.211
 3239POPC   D2A44392  26.433  23.814   6.629
 3239POPC   C3A44393  26.187  23.815   6.998
 3239POPC   C4A44394  26.138  23.481   7.278
 3239POPC   C1B44395  25.879  23.868   6.264
 3239POPC   C2B44396  25.844  23.626   6.650
 3239POPC   C3B44397  25.689  23.747   7.058
 3239POPC   C4B44398  25.816  23.781   7.521
 3240POPC   NC344399  38.586  42.632   5.677
 3240POPC   PO444400  38.509  43.269   5.277
 3240POPC   GL144401  38.435  43.211   5.809
 3240POPC   GL244402  38.230  42.992   5.930
 3240POPC   C1A44403  38.665  43.087   6.207
 3240POPC   D2A44404  38.598  43.246   6.602
 3240POPC   C3A44405  38.577  42.924   6.893
 3240POPC   C4A44406  38.785  43.135   7.180
 3240POPC   C1B44407  38.190  43.239   6.281
 3240POPC   C2B44408  38.097  42.977   6.620
 3240POPC   C3B44409  38.096  42.994   7.059
 3240POPC   C4B44410  38.130  43.363   7.296
 3241POPC   NC344411  33.498   6.108   5.766
 3241POPC   PO444412  33.837   6.516   5.296
 3241POPC   GL144413  33.714   6.595   5.748
 3241POPC   GL244414  33.722   6.944   5.886
 3241POPC   C1A44415  33.859   6.561   6.188
 3241POPC   D2A44416  33.901   6.777   6.567
 3241POPC   C3A44417  33.903   6.531   6.931
 3241POPC   C4A44418  33.747   6.250   7.199
 3241POPC   C1B44419  33.513   7.081   6.285
 3241POPC   C2B44420  33.559   7.100   6.724
 3241POPC   C3B44421  33.579   6.892   7.110
 3241POPC   C4B44422  33.437   7.048   7.491
 3242POPC   NC344423  28.399  30.547   5.424
 3242POPC   PO444424  28.041  31.175   5.429
 3242POPC   GL144425  28.129  30.872   5.751
 3242POPC   GL244426  28.175  30.517   5.887
 3242POPC   C1A44427  28.333  30.952   6.150
 3242POPC   D2A44428  28.535  30.937   6.583
 3242POPC   C3A44429  28.391  30.835   7.030
 3242POPC   C4A44430  28.427  30.739   7.501
 3242POPC   C1B44431  28.497  30.480   6.256
 3242POPC   C2B44432  28.503  30.439   6.731
 3242POPC   C3B44433  28.434  30.331   7.187
 3242POPC   C4B44434  28.693  30.160   7.559
 3243POPC   NC344435  37.280  26.022   5.181
 3243POPC   PO444436  37.885  25.849   5.309
 3243POPC   GL144437  37.835  26.011   5.687
 3243POPC   GL244438  37.819  26.368   5.732
 3243POPC   C1A44439  37.791  25.986   6.102
 3243POPC   D2A44440  37.642  26.154   6.467
 3243POPC   C3A44441  37.649  25.893   6.807
 3243POPC   C4A44442  37.663  25.921   7.241
 3243POPC   C1B44443  37.560  26.524   6.102
 3243POPC   C2B44444  37.302  26.544   6.511
 3243POPC   C3B44445  37.510  26.400   6.904
 3243POPC   C4B44446  37.593  26.421   7.344
 3244POPC   NC344447   9.103  35.691   5.275
 3244POPC   PO444448   8.535  35.440   5.174
 3244POPC   GL144449   8.657  35.355   5.611
 3244POPC   GL244450   8.683  35.670   5.747
 3244POPC   C1A44451   8.748  35.250   6.079
 3244POPC   D2A44452   9.133  35.285   6.385
 3244POPC   C3A44453   9.147  35.366   6.849
 3244POPC   C4A44454   8.980  35.275   7.254
 3244POPC   C1B44455   8.982  35.696   6.084
 3244POPC   C2B44456   8.941  35.750   6.546
 3244POPC   C3B44457   9.142  35.865   6.954
 3244POPC   C4B44458   9.244  35.713   7.374
 3245POPC   NC344459  14.583  43.564   5.271
 3245POPC   PO444460  14.035  43.922   5.418
 3245POPC   GL144461  14.302  43.940   5.784
 3245POPC   GL244462  14.643  44.062   5.698
 3245POPC   C1A44463  14.394  43.977   6.236
 3245POPC   D2A44464  14.164  43.969   6.624
 3245POPC   C3A44465  14.423  43.857   6.942
 3245POPC   C4A44466  14.441  44.068   7.317
 3245POPC   C1B44467  14.884  44.025   6.085
 3245POPC   C2B44468  14.855  43.846   6.514
 3245POPC   C3B44469  14.841  43.554   6.865
 3245POPC   C4B44470  14.799  43.719   7.289
 3246POPC   NC344471  34.342  40.724   5.339
 3246POPC   PO444472  34.905  41.192   5.288
 3246POPC   GL144473  34.752  40.844   5.678
 3246POPC   GL244474  34.787  41.077   5.906
 3246POPC   C1A44475  34.507  40.733   6.160
 3246POPC   D2A44476  34.687  40.707   6.634
 3246POPC   C3A44477  34.566  40.622   7.100
 3246POPC   C4A44478  34.515  40.874   7.490
 3246POPC   C1B44479  34.965  40.888   6.241
 3246POPC   C2B44480  34.997  41.138   6.547
 3246POPC   C3B44481  35.015  41.260   6.930
 3246POPC   C4B44482  34.951  40.936   7.198
 3247POPC   NC344483   5.626  19.721   4.972
 3247POPC   PO444484   6.131  20.115   5.272
 3247POPC   GL144485   5.828  20.000   5.709
 3247POPC   GL244486   5.571  19.731   5.810
 3247POPC   C1A44487   5.906  19.838   6.177
 3247POPC   D2A44488   5.658  19.904   6.579
 3247POPC   C3A44489   5.767  19.799   7.033
 3247POPC   C4A44490   5.687  19.994   7.466
 3247POPC   C1B44491   5.501  19.519   6.210
 3247POPC   C2B44492   5.706  19.394   6.610
 3247POPC   C3B44493   5.688  19.295   7.042
 3247POPC   C4B44494   5.655  19.495   7.434
 3248POPC   NC344495  37.107  43.436   5.396
 3248POPC   PO444496  36.579  43.058   5.543
 3248POPC   GL144497  36.785  43.147   5.852
 3248POPC   GL244498  36.798  43.501   5.790
 3248POPC   C1A44499  36.795  42.968   6.255
 3248POPC   D2A44500  36.547  43.009   6.609
 3248POPC   C3A44501  36.757  43.005   6.987
 3248POPC   C4A44502  36.792  43.237   7.359
 3248POPC   C1B44503  37.004  43.475   6.180
 3248POPC   C2B44504  36.960  43.347   6.593
 3248POPC   C3B44505  37.195  43.355   6.944
 3248POPC   C4B44506  37.227  43.480   7.340
 3249POPC   NC344507   3.181   5.891   5.364
 3249POPC   PO444508   2.548   5.797   5.351
 3249POPC   GL144509   2.585   5.964   5.759
 3249POPC   GL244510   2.649   5.618   5.843
 3249POPC   C1A44511   2.860   5.965   6.144
 3249POPC   D2A44512   2.844   5.778   6.545
 3249POPC   C3A44513   3.089   5.912   6.878
 3249POPC   C4A44514   2.960   5.950   7.236
 3249POPC   C1B44515   2.435   5.670   6.235
 3249POPC   C2B44516   2.266   5.870   6.589
 3249POPC   C3B44517   2.526   5.900   6.956
 3249POPC   C4B44518   2.564   5.601   7.290
 3250POPC   NC344519  13.206  28.362   5.179
 3250POPC   PO444520  12.585  28.125   5.408
 3250POPC   GL144521  12.724  28.177   5.839
 3250POPC   GL244522  13.047  28.297   5.780
 3250POPC   C1A44523  12.972  27.986   6.193
 3250POPC   D2A44524  13.166  28.109   6.603
 3250POPC   C3A44525  13.026  28.001   7.001
 3250POPC   C4A44526  12.841  28.098   7.408
 3250POPC   C1B44527  12.944  28.486   6.207
 3250POPC   C2B44528  12.768  28.420   6.632
 3250POPC   C3B44529  12.931  28.489   7.049
 3250POPC   C4B44530  13.091  28.648   7.414
 3251POPC   NC344531  16.532  31.401   5.436
 3251POPC   PO444532  17.007  31.817   5.295
 3251POPC   GL144533  16.908  31.641   5.756
 3251POPC   GL244534  16.866  31.259   5.826
 3251POPC   C1A44535  16.944  31.584   6.235
 3251POPC   D2A44536  17.001  31.828   6.657
 3251POPC   C3A44537  16.978  31.599   7.094
 3251POPC   C4A44538  16.860  31.467   7.539
 3251POPC   C1B44539  16.604  31.111   6.213
 3251POPC   C2B44540  16.658  31.166   6.701
 3251POPC   C3B44541  16.498  31.124   7.165
 3251POPC   C4B44542  16.493  31.138   7.667
 3252POPC   NC344543  42.332   0.272   5.105
 3252POPC   PO444544  42.510   0.767   5.458
 3252POPC   GL144545  42.332   0.454   5.651
 3252POPC   GL244546  42.550   0.172   5.567
 3252POPC   C1A44547  42.209   0.386   6.071
 3252POPC   D2A44548  42.238   0.477   6.511
 3252POPC   C3A44549  42.030   0.407   6.900
 3252POPC   C4A44550  42.105   0.323   7.295
 3252POPC   C1B44551  42.496  44.983   5.955
 3252POPC   C2B44552  42.400  44.991   6.401
 3252POPC   C3B44553  42.502   0.185   6.822
 3252POPC   C4B44554  42.568   0.113   7.252
 3253POPC   NC344555  15.781  28.062   5.504
 3253POPC   PO444556  16.202  28.541   5.547
 3253POPC   GL144557  16.062  28.347   5.936
 3253POPC   GL244558  15.931  27.988   5.974
 3253POPC   C1A44559  16.099  28.276   6.374
 3253POPC   D2A44560  15.807  28.353   6.689
 3253POPC   C3A44561  15.890  28.595   7.028
 3253POPC   C4A44562  15.779  28.578   7.429
 3253POPC   C1B44563  16.361  27.910   6.083
 3253POPC   C2B44564  16.427  27.834   6.504
 3253POPC   C3B44565  16.222  28.054   6.848
 3253POPC   C4B44566  16.014  28.142   7.242
 3254POPC   NC344567   6.420  43.631   4.986
 3254POPC   PO444568   5.988  44.090   5.165
 3254POPC   GL144569   5.877  44.015   5.620
 3254POPC   GL244570   6.123  44.076   5.881
 3254POPC   C1A44571   5.648  43.924   6.041
 3254POPC   D2A44572   5.594  44.011   6.503
 3254POPC   C3A44573   5.764  43.719   6.771
 3254POPC   C4A44574   5.853  43.778   7.211
 3254POPC   C1B44575   6.090  44.090   6.351
 3254POPC   C2B44576   6.231  43.946   6.760
 3254POPC   C3B44577   6.338  43.935   7.190
 3254POPC   C4B44578   6.206  43.715   7.589
 3255POPC   NC344579  42.250  38.637   5.426
 3255POPC   PO444580  42.696  38.114   5.524
 3255POPC   GL144581  42.426  38.349   5.799
 3255POPC   GL244582  42.427  38.720   5.890
 3255POPC   C1A44583  42.343  38.345   6.226
 3255POPC   D2A44584  42.252  37.965   6.433
 3255POPC   C3A44585  41.966  38.071   6.743
 3255POPC   C4A44586  42.156  38.134   7.175
 3255POPC   C1B44587  42.250  38.926   6.234
 3255POPC   C2B44588  42.236  38.860   6.664
 3255POPC   C3B44589  42.372  38.566   6.997
 3255POPC   C4B44590  42.179  38.572   7.453
 3256POPC   NC344591   5.689   3.946   5.499
 3256POPC   PO444592   5.944   4.618   5.345
 3256POPC   GL144593   5.740   4.523   5.749
 3256POPC   GL244594   6.003   4.300   5.886
 3256POPC   C1A44595   5.607   4.300   6.168
 3256POPC   D2A44596   5.842   4.088   6.506
 3256POPC   C3A44597   5.642   4.212   6.887
 3256POPC   C4A44598   5.738   4.482   7.226
 3256POPC   C1B44599   6.006   4.628   6.222
 3256POPC   C2B44600   6.173   4.666   6.640
 3256POPC   C3B44601   6.143   4.287   6.902
 3256POPC   C4B44602   6.026   4.057   7.260
 3257POPC   NC344603  33.216  20.975   5.254
 3257POPC   PO444604  32.868  21.549   5.160
 3257POPC   GL144605  32.866  21.486   5.663
 3257POPC   GL244606  32.962  21.811   5.814
 3257POPC   C1A44607  32.970  21.285   6.134
 3257POPC   D2A44608  33.036  21.075   6.585
 3257POPC   C3A44609  33.161  21.316   6.953
 3257POPC   C4A44610  33.069  21.445   7.360
 3257POPC   C1B44611  33.112  21.764   6.258
 3257POPC   C2B44612  33.168  21.784   6.711
 3257POPC   C3B44613  32.877  21.817   7.059
 3257POPC   C4B44614  32.854  21.879   7.514
 3258POPC   NC344615  21.341   5.871   5.385
 3258POPC   PO444616  21.901   6.232   5.517
 3258POPC   GL144617  21.577   5.967   5.832
 3258POPC   GL244618  21.177   5.850   5.853
 3258POPC   C1A44619  21.406   6.025   6.258
 3258POPC   D2A44620  21.199   5.903   6.588
 3258POPC   C3A44621  21.385   6.001   6.967
 3258POPC   C4A44622  21.296   5.746   7.313
 3258POPC   C1B44623  20.911   6.116   6.133
 3258POPC   C2B44624  21.069   6.399   6.441
 3258POPC   C3B44625  20.964   6.288   6.836
 3258POPC   C4B44626  20.984   6.135   7.254
 3259POPC   NC344627  43.407  39.624   5.465
 3259POPC   PO444628  43.078  39.073   5.362
 3259POPC   GL144629  43.128  39.156   5.768
 3259POPC   GL244630  43.037  39.477   5.808
 3259POPC   C1A44631  43.130  38.916   6.129
 3259POPC   D2A44632  43.045  39.038   6.529
 3259POPC   C3A44633  43.325  38.933   6.850
 3259POPC   C4A44634  43.221  39.024   7.263
 3259POPC   C1B44635  43.237  39.416   6.217
 3259POPC   C2B44636  43.347  39.426   6.666
 3259POPC   C3B44637  43.220  39.502   7.096
 3259POPC   C4B44638  43.229  39.627   7.564
 3260POPC   NC344639  27.813  36.861   5.169
 3260POPC   PO444640  27.169  37.054   5.381
 3260POPC   GL144641  27.203  36.975   5.822
 3260POPC   GL244642  27.414  37.232   5.922
 3260POPC   C1A44643  27.371  36.768   6.229
 3260POPC   D2A44644  27.423  36.833   6.704
 3260POPC   C3A44645  27.681  36.916   7.084
 3260POPC   C4A44646  27.856  36.694   7.432
 3260POPC   C1B44647  27.412  37.247   6.387
 3260POPC   C2B44648  27.763  37.279   6.685
 3260POPC   C3B44649  27.925  37.360   7.111
 3260POPC   C4B44650  27.868  37.196   7.578
 3261POPC   NC344651   5.846  24.929   5.311
 3261POPC   PO444652   5.658  25.542   5.409
 3261POPC   GL144653   6.007  25.398   5.687
 3261POPC   GL244654   6.111  25.080   5.733
 3261POPC   C1A44655   5.942  25.457   6.125
 3261POPC   D2A44656   5.624  25.422   6.423
 3261POPC   C3A44657   5.779  25.481   6.826
 3261POPC   C4A44658   5.641  25.425   7.217
 3261POPC   C1B44659   6.104  24.940   6.151
 3261POPC   C2B44660   6.042  25.113   6.530
 3261POPC   C3B44661   5.951  24.976   6.923
 3261POPC   C4B44662   5.994  25.095   7.357
 3262POPC   NC344663  25.588  27.121   5.400
 3262POPC   PO444664  26.273  26.989   5.503
 3262POPC   GL144665  26.072  26.870   5.856
 3262POPC   GL244666  25.798  26.665   5.764
 3262POPC   C1A44667  26.190  26.895   6.287
 3262POPC   D2A44668  25.974  27.016   6.652
 3262POPC   C3A44669  26.210  26.987   7.012
 3262POPC   C4A44670  26.324  26.783   7.404
 3262POPC   C1B44671  25.686  26.808   6.214
 3262POPC   C2B44672  25.522  26.788   6.657
 3262POPC   C3B44673  25.764  26.648   7.046
 3262POPC   C4B44674  25.807  26.751   7.483
 3263POPC   NC344675   8.585  40.445   5.526
 3263POPC   PO444676   9.018  40.951   5.280
 3263POPC   GL144677   9.139  40.912   5.733
 3263POPC   GL244678   8.779  40.875   5.797
 3263POPC   C1A44679   9.118  40.761   6.195
 3263POPC   D2A44680   9.058  40.870   6.616
 3263POPC   C3A44681   9.014  40.604   6.977
 3263POPC   C4A44682   9.068  40.545   7.425
 3263POPC   C1B44683   8.712  41.107   6.174
 3263POPC   C2B44684   8.551  41.013   6.564
 3263POPC   C3B44685   8.646  41.055   6.974
 3263POPC   C4B44686   8.634  40.757   7.295
 3264POPC   NC344687  41.044  20.400   4.906
 3264POPC   PO444688  41.262  20.818   5.477
 3264POPC   GL144689  41.271  20.690   5.961
 3264POPC   GL244690  41.303  20.975   6.182
 3264POPC   C1A44691  41.116  20.353   6.247
 3264POPC   D2A44692  41.112  20.177   6.669
 3264POPC   C3A44693  41.289  20.513   6.955
 3264POPC   C4A44694  41.353  20.852   7.267
 3264POPC   C1B44695  41.455  20.663   6.499
 3264POPC   C2B44696  41.782  20.567   6.833
 3264POPC   C3B44697  41.827  20.621   7.276
 3264POPC   C4B44698  42.122  20.738   7.593
 3265POPC   NC344699  38.264  21.530   5.291
 3265POPC   PO444700  38.613  21.092   5.625
 3265POPC   GL144701  38.313  21.356   5.791
 3265POPC   GL244702  38.495  21.661   5.749
 3265POPC   C1A44703  38.260  21.496   6.234
 3265POPC   D2A44704  38.403  21.296   6.645
 3265POPC   C3A44705  38.336  21.384   7.091
 3265POPC   C4A44706  38.100  21.136   7.398
 3265POPC   C1B44707  38.647  21.823   6.137
 3265POPC   C2B44708  38.628  21.849   6.570
 3265POPC   C3B44709  38.908  21.778   6.924
 3265POPC   C4B44710  38.818  21.523   7.292
 3266POPC   NC344711  17.072  13.511   5.313
 3266POPC   PO444712  16.643  13.971   5.360
 3266POPC   GL144713  16.824  13.741   5.736
 3266POPC   GL244714  16.899  13.364   5.763
 3266POPC   C1A44715  16.805  13.700   6.195
 3266POPC   D2A44716  16.525  13.767   6.535
 3266POPC   C3A44717  16.793  13.760   6.894
 3266POPC   C4A44718  16.930  13.548   7.247
 3266POPC   C1B44719  16.532  13.326   6.027
 3266POPC   C2B44720  16.636  13.280   6.474
 3266POPC   C3B44721  16.457  13.348   6.882
 3266POPC   C4B44722  16.508  13.160   7.274
 3267POPC   NC344723   9.880  12.305   5.304
 3267POPC   PO444724   9.506  11.769   5.357
 3267POPC   GL144725   9.710  11.974   5.708
 3267POPC   GL244726   9.384  11.983   5.925
 3267POPC   C1A44727   9.838  11.937   6.144
 3267POPC   D2A44728   9.589  12.066   6.506
 3267POPC   C3A44729   9.691  12.092   6.972
 3267POPC   C4A44730  10.043  12.369   7.155
 3267POPC   C1B44731   9.131  11.874   6.330
 3267POPC   C2B44732   9.192  11.896   6.783
 3267POPC   C3B44733   9.167  12.064   7.178
 3267POPC   C4B44734   9.400  11.990   7.555
 3268POPC   NC344735  31.855   1.428   5.345
 3268POPC   PO444736  31.105   1.251   5.388
 3268POPC   GL144737  31.290   1.433   5.787
 3268POPC   GL244738  31.656   1.485   5.806
 3268POPC   C1A44739  31.422   1.256   6.195
 3268POPC   D2A44740  31.708   1.246   6.549
 3268POPC   C3A44741  31.612   1.014   6.871
 3268POPC   C4A44742  31.583   0.969   7.265
 3268POPC   C1B44743  31.750   1.670   6.210
 3268POPC   C2B44744  31.720   1.738   6.658
 3268POPC   C3B44745  31.899   1.455   6.983
 3268POPC   C4B44746  31.788   1.403   7.411
 3269POPC   NC344747  44.465  36.389   5.514
 3269POPC   PO444748  44.792  36.922   5.396
 3269POPC   GL144749  44.746  37.156   5.787
 3269POPC   GL244750  44.372  37.094   5.719
 3269POPC   C1A44751  44.912  37.189   6.230
 3269POPC   D2A44752   0.152  37.043   6.628
 3269POPC   C3A44753  44.984  36.741   6.926
 3269POPC   C4A44754  44.661  36.909   7.204
 3269POPC   C1B44755  44.484  36.840   6.092
 3269POPC   C2B44756  44.660  36.810   6.517
 3269POPC   C3B44757  44.459  36.581   6.853
 3269POPC   C4B44758  44.513  36.415   7.269
 3270POPC   NC344759  19.525  25.802   5.365
 3270POPC   PO444760  20.124  26.165   5.242
 3270POPC   GL144761  20.120  26.086   5.689
 3270POPC   GL244762  19.785  26.001   5.768
 3270POPC   C1A44763  20.075  26.237   6.125
 3270POPC   D2A44764  20.022  25.963   6.496
 3270POPC   C3A44765  19.955  26.138   6.893
 3270POPC   C4A44766  20.164  26.072   7.274
 3270POPC   C1B44767  19.611  26.051   6.189
 3270POPC   C2B44768  19.497  26.119   6.610
 3270POPC   C3B44769  19.350  26.128   7.020
 3270POPC   C4B44770  19.656  26.021   7.297
 3271POPC   NC344771  36.577  18.197   5.262
 3271POPC   PO444772  37.093  18.584   5.394
 3271POPC   GL144773  36.763  18.529   5.689
 3271POPC   GL244774  36.695  18.179   5.765
 3271POPC   C1A44775  36.886  18.480   6.120
 3271POPC   D2A44776  37.009  18.244   6.489
 3271POPC   C3A44777  36.858  18.487   6.820
 3271POPC   C4A44778  36.701  18.350   7.214
 3271POPC   C1B44779  36.727  17.953   6.156
 3271POPC   C2B44780  36.852  17.742   6.537
 3271POPC   C3B44781  36.850  17.927   6.958
 3271POPC   C4B44782  36.669  17.870   7.403
 3272POPC   NC344783  17.725  21.327   5.495
 3272POPC   PO444784  17.171  21.695   5.440
 3272POPC   GL144785  17.373  21.561   5.787
 3272POPC   GL244786  17.510  21.831   5.959
 3272POPC   C1A44787  17.422  21.320   6.175
 3272POPC   D2A44788  17.415  21.502   6.611
 3272POPC   C3A44789  17.201  21.349   6.995
 3272POPC   C4A44790  17.382  21.067   7.295
 3272POPC   C1B44791  17.833  21.633   6.243
 3272POPC   C2B44792  17.934  21.491   6.652
 3272POPC   C3B44793  17.709  21.423   7.047
 3272POPC   C4B44794  17.468  21.799   7.120
 3273POPC   NC344795  43.763  11.431   5.129
 3273POPC   PO444796  43.079  11.427   5.329
 3273POPC   GL144797  43.016  11.512   5.770
 3273POPC   GL244798  43.210  11.779   5.928
 3273POPC   C1A44799  42.960  11.388   6.194
 3273POPC   D2A44800  43.025  11.053   6.495
 3273POPC   C3A44801  42.961  11.237   6.894
 3273POPC   C4A44802  42.881  11.333   7.329
 3273POPC   C1B44803  43.454  11.659   6.263
 3273POPC   C2B44804  43.263  11.578   6.657
 3273POPC   C3B44805  43.329  11.542   7.090
 3273POPC   C4B44806  43.538  11.838   7.299
 3274POPC   NC344807   6.120   6.553   4.980
 3274POPC   PO444808   5.713   6.891   5.427
 3274POPC   GL144809   5.801   6.818   5.832
 3274POPC   GL244810   6.153   6.851   5.820
 3274POPC   C1A44811   5.811   6.823   6.280
 3274POPC   D2A44812   5.568   6.721   6.625
 3274POPC   C3A44813   5.644   6.945   6.971
 3274POPC   C4A44814   5.802   6.811   7.347
 3274POPC   C1B44815   6.176   6.506   6.132
 3274POPC   C2B44816   6.166   6.534   6.571
 3274POPC   C3B44817   6.103   6.607   6.985
 3274POPC   C4B44818   6.009   6.356   7.333
 3275POPC   NC344819  41.011  41.968   5.577
 3275POPC   PO444820  41.129  41.339   5.274
 3275POPC   GL144821  40.989  41.385   5.730
 3275POPC   GL244822  40.727  41.599   5.806
 3275POPC   C1A44823  41.021  41.435   6.210
 3275POPC   D2A44824  40.758  41.474   6.604
 3275POPC   C3A44825  40.906  41.469   7.020
 3275POPC   C4A44826  41.116  41.808   7.218
 3275POPC   C1B44827  40.550  41.735   6.199
 3275POPC   C2B44828  40.353  41.825   6.602
 3275POPC   C3B44829  40.382  41.881   7.055
 3275POPC   C4B44830  40.285  42.084   7.448
 3276POPC   NC344831   4.701  26.559   5.450
 3276POPC   PO444832   4.104  26.700   5.434
 3276POPC   GL144833   4.386  26.762   5.822
 3276POPC   GL244834   4.271  27.067   5.970
 3276POPC   C1A44835   4.752  26.942   6.103
 3276POPC   D2A44836   4.803  27.150   6.566
 3276POPC   C3A44837   4.706  27.037   7.054
 3276POPC   C4A44838   4.503  27.176   7.486
 3276POPC   C1B44839   4.357  26.837   6.405
 3276POPC   C2B44840   4.447  26.656   6.851
 3276POPC   C3B44841   4.318  26.719   7.309
 3276POPC   C4B44842   4.106  26.462   7.620
 3277POPC   NC344843  38.083  13.954   5.365
 3277POPC   PO444844  37.448  13.668   5.372
 3277POPC   GL144845  37.729  13.803   5.730
 3277POPC   GL244846  37.894  13.551   5.756
 3277POPC   C1A44847  37.656  13.847   6.191
 3277POPC   D2A44848  37.596  13.633   6.604
 3277POPC   C3A44849  37.602  13.818   7.031
 3277POPC   C4A44850  37.502  13.552   7.400
 3277POPC   C1B44851  38.054  13.540   6.110
 3277POPC   C2B44852  38.141  13.798   6.411
 3277POPC   C3B44853  38.077  13.710   6.823
 3277POPC   C4B44854  37.969  13.360   7.020
 3278POPC   NC344855  16.073   9.584   5.403
 3278POPC   PO444856  15.567  10.210   5.501
 3278POPC   GL144857  15.687   9.887   5.792
 3278POPC   GL244858  16.062   9.934   5.795
 3278POPC   C1A44859  15.832   9.857   6.249
 3278POPC   D2A44860  16.109  10.108   6.536
 3278POPC   C3A44861  16.025  10.127   6.998
 3278POPC   C4A44862  15.760  10.064   7.368
 3278POPC   C1B44863  16.249   9.598   6.078
 3278POPC   C2B44864  16.383   9.445   6.507
 3278POPC   C3B44865  16.308   9.349   6.954
 3278POPC   C4B44866  16.218   9.698   7.234
 3279POPC   NC344867  26.782  32.342   5.385
 3279POPC   PO444868  27.283  31.824   5.518
 3279POPC   GL144869  26.997  32.058   5.813
 3279POPC   GL244870  26.625  32.151   5.817
 3279POPC   C1A44871  26.910  32.174   6.253
 3279POPC   D2A44872  27.082  31.976   6.601
 3279POPC   C3A44873  26.862  32.143   6.948
 3279POPC   C4A44874  26.836  31.992   7.370
 3279POPC   C1B44875  26.515  32.464   6.122
 3279POPC   C2B44876  26.453  32.362   6.539
 3279POPC   C3B44877  26.353  32.330   6.975
 3279POPC   C4B44878  26.648  32.455   7.297
 3280POPC   NC344879  27.176  40.737   5.403
 3280POPC   PO444880  26.493  40.587   5.467
 3280POPC   GL144881  26.779  40.667   5.769
 3280POPC   GL244882  26.782  41.013   5.807
 3280POPC   C1A44883  26.841  40.701   6.232
 3280POPC   D2A44884  26.758  40.993   6.606
 3280POPC   C3A44885  26.792  40.789   7.002
 3280POPC   C4A44886  27.045  40.676   7.348
 3280POPC   C1B44887  26.419  40.921   6.069
 3280POPC   C2B44888  26.341  40.739   6.486
 3280POPC   C3B44889  26.278  40.893   6.897
 3280POPC   C4B44890  26.458  41.107   7.260
 3281POPC   NC344891  16.206  20.105   5.540
 3281POPC   PO444892  15.845  20.730   5.407
 3281POPC   GL144893  15.927  20.496   5.776
 3281POPC   GL244894  16.084  20.782   5.888
 3281POPC   C1A44895  15.963  20.440   6.233
 3281POPC   D2A44896  15.703  20.527   6.594
 3281POPC   C3A44897  15.888  20.552   6.974
 3281POPC   C4A44898  15.910  20.907   7.224
 3281POPC   C1B44899  16.205  20.926   6.252
 3281POPC   C2B44900  16.480  20.899   6.582
 3281POPC   C3B44901  16.356  20.775   6.993
 3281POPC   C4B44902  16.343  20.311   7.122
 3282POPC   NC344903  32.499   5.745   5.089
 3282POPC   PO444904  32.087   5.488   5.539
 3282POPC   GL144905  32.086   5.607   5.908
 3282POPC   GL244906  32.155   5.964   5.825
 3282POPC   C1A44907  32.280   5.480   6.278
 3282POPC   D2A44908  32.298   5.745   6.654
 3282POPC   C3A44909  32.335   5.670   7.089
 3282POPC   C4A44910  32.067   5.724   7.472
 3282POPC   C1B44911  32.413   5.991   6.192
 3282POPC   C2B44912  32.407   6.232   6.559
 3282POPC   C3B44913  32.261   6.239   7.003
 3282POPC   C4B44914  32.451   6.061   7.392
 3283POPC   NC344915  41.661  34.674   5.288
 3283POPC   PO444916  41.342  34.233   5.552
 3283POPC   GL144917  41.376  34.663   5.767
 3283POPC   GL244918  41.354  34.997   5.631
 3283POPC   C1A44919  41.549  34.771   6.179
 3283POPC   D2A44920  41.437  34.472   6.533
 3283POPC   C3A44921  41.595  34.507   6.958
 3283POPC   C4A44922  41.721  34.763   7.303
 3283POPC   C1B44923  41.149  35.061   6.074
 3283POPC   C2B44924  41.216  34.959   6.532
 3283POPC   C3B44925  41.034  34.926   6.939
 3283POPC   C4B44926  41.222  34.701   7.279
 3284POPC   NC344927  41.598  12.605   5.396
 3284POPC   PO444928  41.448  13.235   5.435
 3284POPC   GL144929  41.450  12.917   5.773
 3284POPC   GL244930  41.219  12.622   5.743
 3284POPC   C1A44931  41.697  12.724   6.116
 3284POPC   D2A44932  41.868  12.558   6.524
 3284POPC   C3A44933  41.714  12.572   6.959
 3284POPC   C4A44934  41.638  12.890   7.276
 3284POPC   C1B44935  41.176  12.625   6.202
 3284POPC   C2B44936  41.315  12.550   6.640
 3284POPC   C3B44937  41.205  12.630   7.098
 3284POPC   C4B44938  41.303  12.610   7.562
 3285POPC   NC344939  19.288  43.185   5.404
 3285POPC   PO444940  18.675  42.989   5.303
 3285POPC   GL144941  18.843  43.092   5.707
 3285POPC   GL244942  18.656  42.802   5.820
 3285POPC   C1A44943  19.085  43.269   6.080
 3285POPC   D2A44944  18.965  43.362   6.519
 3285POPC   C3A44945  19.234  43.287   6.895
 3285POPC   C4A44946  19.200  43.171   7.341
 3285POPC   C1B44947  18.658  43.005   6.219
 3285POPC   C2B44948  18.626  42.971   6.648
 3285POPC   C3B44949  18.782  43.061   7.043
 3285POPC   C4B44950  18.654  42.963   7.460
 3286POPC   NC344951  24.758  26.916   5.313
 3286POPC   PO444952  24.342  26.468   5.686
 3286POPC   GL144953  24.636  26.626   5.998
 3286POPC   GL244954  24.756  26.931   5.847
 3286POPC   C1A44955  24.549  26.677   6.404
 3286POPC   D2A44956  24.176  26.843   6.600
 3286POPC   C3A44957  24.245  26.736   7.010
 3286POPC   C4A44958  24.615  26.887   7.164
 3286POPC   C1B44959  24.509  27.128   6.213
 3286POPC   C2B44960  24.629  27.138   6.700
 3286POPC   C3B44961  24.851  27.339   7.090
 3286POPC   C4B44962  24.745  27.184   7.556
 3287POPC   NC344963  39.589  20.008   5.498
 3287POPC   PO444964  40.159  19.641   5.320
 3287POPC   GL144965  39.950  19.702   5.723
 3287POPC   GL244966  39.773  19.462   5.876
 3287POPC   C1A44967  40.157  19.814   6.122
 3287POPC   D2A44968  40.089  19.975   6.508
 3287POPC   C3A44969  40.248  19.836   6.881
 3287POPC   C4A44970  40.029  19.764   7.251
 3287POPC   C1B44971  39.712  19.633   6.261
 3287POPC   C2B44972  39.881  19.515   6.627
 3287POPC   C3B44973  39.670  19.514   6.996
 3287POPC   C4B44974  39.497  19.840   7.225
 3288POPC   NC344975  23.107  15.725   5.643
 3288POPC   PO444976  22.522  16.011   5.484
 3288POPC   GL144977  22.725  16.112   5.827
 3288POPC   GL244978  23.080  16.220   5.714
 3288POPC   C1A44979  22.757  15.892   6.191
 3288POPC   D2A44980  22.993  15.573   6.351
 3288POPC   C3A44981  23.250  15.645   6.717
 3288POPC   C4A44982  23.162  15.654   7.149
 3288POPC   C1B44983  23.184  16.186   6.169
 3288POPC   C2B44984  23.010  16.089   6.583
 3288POPC   C3B44985  22.836  16.141   6.978
 3288POPC   C4B44986  22.713  15.874   7.288
 3289POPC   NC344987  42.609  41.063   5.186
 3289POPC   PO444988  41.971  40.801   5.312
 3289POPC   GL144989  42.157  40.821   5.691
 3289POPC   GL244990  42.531  40.849   5.686
 3289POPC   C1A44991  42.114  40.670   6.100
 3289POPC   D2A44992  42.239  40.423   6.431
 3289POPC   C3A44993  42.033  40.552   6.822
 3289POPC   C4A44994  42.240  40.674   7.204
 3289POPC   C1B44995  42.653  40.736   6.151
 3289POPC   C2B44996  42.801  40.864   6.606
 3289POPC   C3B44997  42.702  40.895   7.069
 3289POPC   C4B44998  42.660  40.694   7.495
 3290POPC   NC344999  43.655  40.592   5.422
 3290POPC   PO445000  42.970  40.756   5.294
 3290POPC   GL145001  43.063  40.764   5.734
 3290POPC   GL245002  42.891  40.469   5.754
 3290POPC   C1A45003  43.154  40.947   6.166
 3290POPC   D2A45004  43.416  41.101   6.522
 3290POPC   C3A45005  43.234  40.983   6.922
 3290POPC   C4A45006  43.168  40.917   7.377
 3290POPC   C1B45007  43.161  40.432   6.130
 3290POPC   C2B45008  43.269  40.437   6.576
 3290POPC   C3B45009  43.022  40.497   6.956
 3290POPC   C4B45010  43.066  40.429   7.396
 3291POPC   NC345011  16.470  36.113   5.349
 3291POPC   PO445012  17.027  36.589   5.216
 3291POPC   GL145013  16.920  36.572   5.685
 3291POPC   GL245014  16.814  36.221   5.802
 3291POPC   C1A45015  16.932  36.579   6.153
 3291POPC   D2A45016  16.876  36.239   6.460
 3291POPC   C3A45017  16.990  36.199   6.875
 3291POPC   C4A45018  17.093  35.972   7.247
 3291POPC   C1B45019  16.500  36.256   6.121
 3291POPC   C2B45020  16.371  36.138   6.547
 3291POPC   C3B45021  16.467  36.336   6.910
 3291POPC   C4B45022  16.679  36.319   7.271
 3292POPC   NC345023  40.871  28.676   5.252
 3292POPC   PO445024  40.858  27.995   5.422
 3292POPC   GL145025  41.029  28.237   5.780
 3292POPC   GL245026  41.010  28.626   5.770
 3292POPC   C1A45027  40.903  28.324   6.199
 3292POPC   D2A45028  40.701  28.120   6.542
 3292POPC   C3A45029  40.805  28.269   6.943
 3292POPC   C4A45030  40.546  28.531   7.188
 3292POPC   C1B45031  41.080  28.894   6.170
 3292POPC   C2B45032  41.335  28.890   6.562
 3292POPC   C3B45033  41.146  28.824   6.981
 3292POPC   C4B45034  41.066  28.545   7.317
 3293POPC   NC345035  10.758  37.619   5.497
 3293POPC   PO445036  10.279  38.089   5.423
 3293POPC   GL145037  10.459  37.908   5.788
 3293POPC   GL245038  10.824  37.931   5.909
 3293POPC   C1A45039  10.404  37.762   6.173
 3293POPC   D2A45040  10.561  37.500   6.463
 3293POPC   C3A45041  10.511  37.684   6.858
 3293POPC   C4A45042  10.291  37.567   7.203
 3293POPC   C1B45043  10.789  38.005   6.386
 3293POPC   C2B45044  10.854  38.085   6.806
 3293POPC   C3B45045  10.928  37.828   7.156
 3293POPC   C4B45046  10.887  37.750   7.585
 3294POPC   NC345047   8.833  22.495   5.262
 3294POPC   PO445048   8.796  21.836   5.397
 3294POPC   GL145049   8.759  22.213   5.730
 3294POPC   GL245050   8.916  22.560   5.772
 3294POPC   C1A45051   8.826  22.176   6.179
 3294POPC   D2A45052   9.007  21.981   6.569
 3294POPC   C3A45053   8.718  21.881   6.921
 3294POPC   C4A45054   8.725  21.920   7.376
 3294POPC   C1B45055   9.092  22.622   6.210
 3294POPC   C2B45056   9.013  22.503   6.655
 3294POPC   C3B45057   9.019  22.281   7.064
 3294POPC   C4B45058   9.305  22.350   7.426
 3295POPC   NC345059  20.315   5.672   5.046
 3295POPC   PO445060  19.687   5.726   5.357
 3295POPC   GL145061  19.601   5.881   5.787
 3295POPC   GL245062  19.936   5.930   5.868
 3295POPC   C1A45063  19.617   5.752   6.252
 3295POPC   D2A45064  19.669   5.975   6.661
 3295POPC   C3A45065  19.526   5.830   7.054
 3295POPC   C4A45066  19.659   5.955   7.459
 3295POPC   C1B45067  19.969   6.185   6.248
 3295POPC   C2B45068  20.168   6.098   6.639
 3295POPC   C3B45069  20.046   5.896   7.038
 3295POPC   C4B45070  20.188   5.988   7.442
 3296POPC   NC345071   6.178  23.265   5.644
 3296POPC   PO445072   5.828  23.716   5.224
 3296POPC   GL145073   5.982  23.860   5.688
 3296POPC   GL245074   6.141  23.662   5.957
 3296POPC   C1A45075   5.767  23.955   6.129
 3296POPC   D2A45076   5.800  23.640   6.485
 3296POPC   C3A45077   5.608  23.723   6.916
 3296POPC   C4A45078   5.732  23.650   7.361
 3296POPC   C1B45079   6.260  23.934   6.325
 3296POPC   C2B45080   6.061  24.004   6.749
 3296POPC   C3B45081   6.193  23.905   7.188
 3296POPC   C4B45082   6.241  23.987   7.645
 3297POPC   NC345083   0.325  36.278   5.275
 3297POPC   PO445084   0.878  35.900   5.370
 3297POPC   GL145085   0.508  35.910   5.611
 3297POPC   GL245086   0.433  35.610   5.790
 3297POPC   C1A45087   0.386  36.147   5.992
 3297POPC   D2A45088   0.319  36.119   6.455
 3297POPC   C3A45089   0.581  36.284   6.805
 3297POPC   C4A45090   0.412  36.379   7.224
 3297POPC   C1B45091   0.528  35.694   6.217
 3297POPC   C2B45092   0.668  35.775   6.648
 3297POPC   C3B45093   0.496  35.826   7.065
 3297POPC   C4B45094   0.535  35.581   7.452
 3298POPC   NC345095  42.796  33.689   5.474
 3298POPC   PO445096  42.301  34.111   5.558
 3298POPC   GL145097  42.357  33.705   5.773
 3298POPC   GL245098  42.044  33.575   5.879
 3298POPC   C1A45099  42.567  33.609   6.159
 3298POPC   D2A45100  42.547  33.789   6.575
 3298POPC   C3A45101  42.744  33.611   6.947
 3298POPC   C4A45102  42.518  33.542   7.335
 3298POPC   C1B45103  42.079  33.785   6.276
 3298POPC   C2B45104  42.053  33.680   6.710
 3298POPC   C3B45105  42.290  33.919   7.031
 3298POPC   C4B45106  42.139  33.945   7.463
 3299POPC   NC345107  31.797   7.326   5.442
 3299POPC   PO445108  31.167   7.505   5.417
 3299POPC   GL145109  31.430   7.497   5.792
 3299POPC   GL245110  31.586   7.162   5.902
 3299POPC   C1A45111  31.250   7.548   6.203
 3299POPC   D2A45112  31.277   7.306   6.541
 3299POPC   C3A45113  31.053   7.389   6.885
 3299POPC   C4A45114  31.240   7.173   7.234
 3299POPC   C1B45115  31.732   7.398   6.275
 3299POPC   C2B45116  31.612   7.675   6.587
 3299POPC   C3B45117  31.557   7.493   6.962
 3299POPC   C4B45118  31.781   7.238   7.204
 3300POPC   NC345119  33.180   2.855   5.409
 3300POPC   PO445120  32.533   2.693   5.442
 3300POPC   GL145121  32.690   2.919   5.823
 3300POPC   GL245122  33.059   3.031   5.882
 3300POPC   C1A45123  32.805   2.704   6.218
 3300POPC   D2A45124  32.996   2.546   6.623
 3300POPC   C3A45125  32.822   2.683   7.030
 3300POPC   C4A45126  32.624   2.600   7.421
 3300POPC   C1B45127  33.226   2.956   6.349
 3300POPC   C2B45128  33.370   2.861   6.791
 3300POPC   C3B45129  33.297   2.904   7.265
 3300POPC   C4B45130  33.325   3.008   7.706
 3301POPC   NC345131  39.367  31.681   5.333
 3301POPC   PO445132  38.848  31.214   5.375
 3301POPC   GL145133  38.985  31.304   5.791
 3301POPC   GL245134  39.137  31.636   5.831
 3301POPC   C1A45135  39.118  31.272   6.223
 3301POPC   D2A45136  38.887  31.272   6.606
 3301POPC   C3A45137  39.152  31.146   6.916
 3301POPC   C4A45138  39.308  31.223   7.294
 3301POPC   C1B45139  39.324  31.746   6.261
 3301POPC   C2B45140  39.364  31.571   6.682
 3301POPC   C3B45141  39.448  31.674   7.122
 3301POPC   C4B45142  39.344  31.659   7.576
 3302POPC   NC345143  10.007   3.240   5.315
 3302POPC   PO445144   9.743   3.786   5.546
 3302POPC   GL145145   9.774   3.408   5.780
 3302POPC   GL245146   9.588   3.608   6.015
 3302POPC   C1A45147   9.999   3.304   6.166
 3302POPC   D2A45148  10.200   3.431   6.574
 3302POPC   C3A45149  10.076   3.299   6.976
 3302POPC   C4A45150   9.802   3.395   7.305
 3302POPC   C1B45151   9.514   3.311   6.333
 3302POPC   C2B45152   9.598   3.365   6.767
 3302POPC   C3B45153   9.416   3.670   7.079
 3302POPC   C4B45154   9.356   3.589   7.532
 3303POPC   NC345155  21.972  31.665   5.498
 3303POPC   PO445156  22.555  31.232   5.490
 3303POPC   GL145157  22.441  31.575   5.802
 3303POPC   GL245158  22.090  31.589   5.955
 3303POPC   C1A45159  22.471  31.572   6.257
 3303POPC   D2A45160  22.440  31.283   6.581
 3303POPC   C3A45161  22.319  31.439   6.949
 3303POPC   C4A45162  22.169  31.197   7.294
 3303POPC   C1B45163  22.003  31.321   6.257
 3303POPC   C2B45164  21.958  31.512   6.598
 3303POPC   C3B45165  21.829  31.284   6.933
 3303POPC   C4B45166  21.882  31.604   7.247
 3304POPC   NC345167  24.434   9.802   5.332
 3304POPC   PO445168  23.997  10.161   5.668
 3304POPC   GL145169  24.332   9.883   5.843
 3304POPC   GL245170  24.680   9.752   5.774
 3304POPC   C1A45171  24.465   9.685   6.225
 3304POPC   D2A45172  24.356   9.598   6.598
 3304POPC   C3A45173  24.293  10.004   6.772
 3304POPC   C4A45174  24.522   9.897   7.110
 3304POPC   C1B45175  24.852   9.419   6.032
 3304POPC   C2B45176  24.896   9.417   6.482
 3304POPC   C3B45177  24.737   9.450   6.914
 3304POPC   C4B45178  24.938   9.523   7.297
 3305POPC   NC345179  35.870  26.084   5.240
 3305POPC   PO445180  36.297  25.562   5.238
 3305POPC   GL145181  36.231  25.580   5.702
 3305POPC   GL245182  36.080  25.916   5.749
 3305POPC   C1A45183  36.365  25.762   6.119
 3305POPC   D2A45184  36.105  26.088   6.365
 3305POPC   C3A45185  36.164  26.070   6.826
 3305POPC   C4A45186  36.128  26.129   7.279
 3305POPC   C1B45187  35.865  25.685   6.149
 3305POPC   C2B45188  35.734  25.818   6.607
 3305POPC   C3B45189  35.707  25.967   7.044
 3305POPC   C4B45190  35.699  25.883   7.514
 3306POPC   NC345191  38.170  27.006   5.460
 3306POPC   PO445192  38.589  26.573   5.243
 3306POPC   GL145193  38.600  26.642   5.721
 3306POPC   GL245194  38.243  26.724   5.854
 3306POPC   C1A45195  38.565  26.529   6.189
 3306POPC   D2A45196  38.303  26.733   6.520
 3306POPC   C3A45197  38.454  26.581   6.904
 3306POPC   C4A45198  38.830  26.750   7.106
 3306POPC   C1B45199  38.471  27.018   6.115
 3306POPC   C2B45200  38.674  27.256   6.441
 3306POPC   C3B45201  38.676  27.196   6.885
 3306POPC   C4B45202  38.323  27.037   7.156
 3307POPC   NC345203  24.866  28.856   5.288
 3307POPC   PO445204  25.376  29.180   5.544
 3307POPC   GL145205  25.171  28.975   5.837
 3307POPC   GL245206  24.818  28.843   5.782
 3307POPC   C1A45207  25.315  29.140   6.258
 3307POPC   D2A45208  25.271  29.289   6.681
 3307POPC   C3A45209  25.343  28.962   6.941
 3307POPC   C4A45210  25.503  28.888   7.330
 3307POPC   C1B45211  24.828  29.010   6.184
 3307POPC   C2B45212  24.982  28.858   6.561
 3307POPC   C3B45213  24.844  29.019   6.926
 3307POPC   C4B45214  25.004  29.081   7.332
 3308POPC   NC345215  37.014  13.750   5.187
 3308POPC   PO445216  36.632  13.221   5.154
 3308POPC   GL145217  36.835  13.423   5.566
 3308POPC   GL245218  36.725  13.772   5.678
 3308POPC   C1A45219  37.057  13.526   6.000
 3308POPC   D2A45220  36.929  13.469   6.489
 3308POPC   C3A45221  37.147  13.621   6.903
 3308POPC   C4A45222  37.145  13.923   7.272
 3308POPC   C1B45223  36.627  13.746   6.138
 3308POPC   C2B45224  36.726  13.948   6.541
 3308POPC   C3B45225  36.710  13.860   6.983
 3308POPC   C4B45226  36.660  13.834   7.402
 3309POPC   NC345227  10.095   6.608   5.222
 3309POPC   PO445228   9.415   6.442   5.125
 3309POPC   GL145229   9.646   6.673   5.541
 3309POPC   GL245230   9.930   6.470   5.691
 3309POPC   C1A45231   9.580   6.671   6.038
 3309POPC   D2A45232   9.604   6.438   6.474
 3309POPC   C3A45233   9.475   6.688   6.867
 3309POPC   C4A45234   9.539   6.989   7.235
 3309POPC   C1B45235  10.093   6.732   6.033
 3309POPC   C2B45236  10.090   6.602   6.461
 3309POPC   C3B45237   9.999   6.718   6.883
 3309POPC   C4B45238   9.810   6.564   7.258
 3310POPC   NC345239  43.458   1.365   5.144
 3310POPC   PO445240  43.129   1.036   5.674
 3310POPC   GL145241  42.967   1.397   5.884
 3310POPC   GL245242  42.650   1.467   5.909
 3310POPC   C1A45243  43.077   1.546   6.270
 3310POPC   D2A45244  43.450   1.440   6.495
 3310POPC   C3A45245  43.447   1.460   6.943
 3310POPC   C4A45246  43.252   1.158   7.143
 3310POPC   C1B45247  42.732   1.089   6.204
 3310POPC   C2B45248  43.015   1.048   6.528
 3310POPC   C3B45249  42.812   1.072   6.909
 3310POPC   C4B45250  42.834   0.942   7.318
 3311POPC   NC345251  42.011   9.894   5.506
 3311POPC   PO445252  41.366   9.946   5.319
 3311POPC   GL145253  41.556   9.788   5.715
 3311POPC   GL245254  41.299   9.630   5.854
 3311POPC   C1A45255  41.722   9.660   6.154
 3311POPC   D2A45256  41.958   9.811   6.526
 3311POPC   C3A45257  41.785   9.801   6.956
 3311POPC   C4A45258  41.631   9.465   7.239
 3311POPC   C1B45259  41.302   9.979   6.164
 3311POPC   C2B45260  41.423   9.871   6.563
 3311POPC   C3B45261  41.284   9.642   6.906
 3311POPC   C4B45262  41.242   9.826   7.296
 3312POPC   NC345263  33.592  32.477   5.158
 3312POPC   PO445264  33.810  33.046   5.478
 3312POPC   GL145265  34.004  33.046   5.807
 3312POPC   GL245266  34.168  33.335   5.762
 3312POPC   C1A45267  33.815  33.101   6.177
 3312POPC   D2A45268  33.588  33.036   6.525
 3312POPC   C3A45269  33.780  33.086   6.914
 3312POPC   C4A45270  33.654  32.942   7.329
 3312POPC   C1B45271  34.319  33.199   6.185
 3312POPC   C2B45272  34.410  33.068   6.589
 3312POPC   C3B45273  34.345  33.335   6.927
 3312POPC   C4B45274  34.061  33.298   7.252
 3313POPC   NC345275  19.268  15.577   5.359
 3313POPC   PO445276  18.786  15.086   5.335
 3313POPC   GL145277  18.968  15.235   5.714
 3313POPC   GL245278  19.344  15.198   5.687
 3313POPC   C1A45279  18.921  15.127   6.165
 3313POPC   D2A45280  18.811  15.355   6.554
 3313POPC   C3A45281  18.912  15.214   6.964
 3313POPC   C4A45282  18.747  14.817   7.134
 3313POPC   C1B45283  19.388  15.314   6.108
 3313POPC   C2B45284  19.331  15.199   6.534
 3313POPC   C3B45285  19.492  15.208   6.945
 3313POPC   C4B45286  19.270  15.098   7.312
 3314POPC   NC345287  43.917  10.545   5.377
 3314POPC   PO445288  44.298  10.230   5.691
 3314POPC   GL145289  43.842  10.321   5.856
 3314POPC   GL245290  43.587  10.617   5.772
 3314POPC   C1A45291  43.735  10.302   6.294
 3314POPC   D2A45292  44.081  10.324   6.597
 3314POPC   C3A45293  43.962  10.458   6.997
 3314POPC   C4A45294  43.660  10.322   7.345
 3314POPC   C1B45295  43.785  10.811   6.132
 3314POPC   C2B45296  43.829  10.774   6.570
 3314POPC   C3B45297  43.969  10.965   6.938
 3314POPC   C4B45298  43.737  10.812   7.264
 3315POPC   NC345299  41.849  34.119   5.466
 3315POPC   PO445300  41.445  33.613   5.417
 3315POPC   GL145301  41.535  33.586   5.816
 3315POPC   GL245302  41.624  33.905   5.881
 3315POPC   C1A45303  41.649  33.493   6.237
 3315POPC   D2A45304  41.445  33.595   6.619
 3315POPC   C3A45305  41.620  33.533   7.032
 3315POPC   C4A45306  42.017  33.522   7.202
 3315POPC   C1B45307  41.610  34.016   6.309
 3315POPC   C2B45308  41.866  34.148   6.658
 3315POPC   C3B45309  41.783  34.017   7.080
 3315POPC   C4B45310  41.524  34.210   7.386
 3316POPC   NC345311  39.105  39.079   5.172
 3316POPC   PO445312  39.639  39.468   5.451
 3316POPC   GL145313  39.351  39.234   5.726
 3316POPC   GL245314  39.204  38.887   5.665
 3316POPC   C1A45315  39.199  39.308   6.154
 3316POPC   D2A45316  39.104  39.545   6.505
 3316POPC   C3A45317  39.344  39.495   6.846
 3316POPC   C4A45318  39.196  39.436   7.255
 3316POPC   C1B45319  39.443  38.868   6.087
 3316POPC   C2B45320  39.355  38.982   6.537
 3316POPC   C3B45321  39.332  39.008   6.973
 3316POPC   C4B45322  39.125  38.809   7.236
 3317POPC   NC345323  32.875  31.481   5.213
 3317POPC   PO445324  32.249  31.299   5.407
 3317POPC   GL145325  32.133  31.343   5.836
 3317POPC   GL245326  32.415  31.502   5.861
 3317POPC   C1A45327  32.065  31.372   6.318
 3317POPC   D2A45328  32.273  31.381   6.739
 3317POPC   C3A45329  32.142  31.344   7.202
 3317POPC   C4A45330  32.015  31.177   7.639
 3317POPC   C1B45331  32.546  31.597   6.254
 3317POPC   C2B45332  32.742  31.500   6.607
 3317POPC   C3B45333  32.643  31.618   7.014
 3317POPC   C4B45334  32.616  31.416   7.407
 3318POPC   NC345335  38.195  19.831   5.427
 3318POPC   PO445336  38.884  19.756   5.423
 3318POPC   GL145337  38.619  19.958   5.720
 3318POPC   GL245338  38.405  19.695   5.888
 3318POPC   C1A45339  38.506  20.120   6.140
 3318POPC   D2A45340  38.416  19.875   6.508
 3318POPC   C3A45341  38.403  20.112   6.912
 3318POPC   C4A45342  38.422  19.951   7.317
 3318POPC   C1B45343  38.097  19.517   6.204
 3318POPC   C2B45344  38.030  19.409   6.641
 3318POPC   C3B45345  38.227  19.584   7.002
 3318POPC   C4B45346  38.213  19.504   7.466
 3319POPC   NC345347  27.219   4.265   5.721
 3319POPC   PO445348  26.667   4.123   5.359
 3319POPC   GL145349  26.728   4.398   5.765
 3319POPC   GL245350  26.990   4.690   5.695
 3319POPC   C1A45351  26.827   4.285   6.230
 3319POPC   D2A45352  26.609   4.279   6.618
 3319POPC   C3A45353  26.750   4.092   6.984
 3319POPC   C4A45354  26.870   4.306   7.357
 3319POPC   C1B45355  26.924   4.787   6.102
 3319POPC   C2B45356  26.985   4.694   6.518
 3319POPC   C3B45357  26.918   4.577   6.917
 3319POPC   C4B45358  26.931   4.821   7.269
 3320POPC   NC345359  43.712  33.361   4.878
 3320POPC   PO445360  43.741  33.026   5.501
 3320POPC   GL145361  43.958  33.064   5.847
 3320POPC   GL245362  44.216  33.321   5.751
 3320POPC   C1A45363  43.669  32.996   6.194
 3320POPC   D2A45364  43.477  33.074   6.579
 3320POPC   C3A45365  43.696  32.905   6.918
 3320POPC   C4A45366  43.774  32.998   7.319
 3320POPC   C1B45367  44.279  33.330   6.196
 3320POPC   C2B45368  44.000  33.222   6.517
 3320POPC   C3B45369  43.917  33.359   6.931
 3320POPC   C4B45370  44.229  33.237   7.226
 3321POPC   NC345371  15.430  41.784   5.336
 3321POPC   PO445372  14.863  41.465   5.594
 3321POPC   GL145373  15.181  41.623   5.839
 3321POPC   GL245374  15.499  41.451   5.795
 3321POPC   C1A45375  15.085  41.729   6.282
 3321POPC   D2A45376  14.886  41.578   6.658
 3321POPC   C3A45377  15.008  41.678   7.093
 3321POPC   C4A45378  14.929  41.405   7.476
 3321POPC   C1B45379  15.569  41.587   6.227
 3321POPC   C2B45380  15.419  41.669   6.696
 3321POPC   C3B45381  15.505  41.827   7.141
 3321POPC   C4B45382  15.383  41.599   7.520
 3322POPC   NC345383  26.565  35.201   5.434
 3322POPC   PO445384  26.082  34.961   5.051
 3322POPC   GL145385  26.044  35.037   5.547
 3322POPC   GL245386  26.105  35.413   5.618
 3322POPC   C1A45387  25.928  35.139   6.022
 3322POPC   D2A45388  25.817  35.067   6.496
 3322POPC   C3A45389  25.995  35.209   6.913
 3322POPC   C4A45390  25.972  35.228   7.376
 3322POPC   C1B45391  26.254  35.558   6.040
 3322POPC   C2B45392  26.185  35.501   6.498
 3322POPC   C3B45393  26.256  35.668   6.946
 3322POPC   C4B45394  26.032  35.763   7.344
 3323POPC   NC345395   2.617   3.294   5.358
 3323POPC   PO445396   2.813   3.868   5.517
 3323POPC   GL145397   2.905   3.617   5.822
 3323POPC   GL245398   2.556   3.526   5.843
 3323POPC   C1A45399   3.026   3.569   6.249
 3323POPC   D2A45400   3.120   3.347   6.625
 3323POPC   C3A45401   3.202   3.535   7.009
 3323POPC   C4A45402   3.116   3.292   7.369
 3323POPC   C1B45403   2.582   3.841   6.210
 3323POPC   C2B45404   2.755   3.778   6.653
 3323POPC   C3B45405   2.694   3.588   7.078
 3323POPC   C4B45406   2.594   3.821   7.455
 3324POPC   NC345407  40.370  24.757   5.271
 3324POPC   PO445408  39.865  24.349   5.520
 3324POPC   GL145409  39.873  24.372   5.974
 3324POPC   GL245410  39.694  24.139   6.143
 3324POPC   C1A45411  40.151  24.487   6.325
 3324POPC   D2A45412  40.396  24.620   6.687
 3324POPC   C3A45413  40.239  24.392   7.035
 3324POPC   C4A45414  40.260  24.572   7.410
 3324POPC   C1B45415  39.634  24.538   6.407
 3324POPC   C2B45416  39.507  24.619   6.830
 3324POPC   C3B45417  39.760  24.541   7.205
 3324POPC   C4B45418  39.841  24.412   7.620
 3325POPC   NC345419   0.447  40.368   5.426
 3325POPC   PO445420   0.101  39.722   5.507
 3325POPC   GL145421   0.360  39.940   5.786
 3325POPC   GL245422   0.127  39.806   6.026
 3325POPC   C1A45423   0.608  39.912   6.174
 3325POPC   D2A45424   0.452  39.872   6.602
 3325POPC   C3A45425   0.713  39.955   6.949
 3325POPC   C4A45426   0.629  40.273   7.293
 3325POPC   C1B45427   0.144  40.206   6.216
 3325POPC   C2B45428   0.200  40.329   6.646
 3325POPC   C3B45429   0.207  40.104   7.021
 3325POPC   C4B45430   0.372  39.720   7.237
 3326POPC   NC345431  43.447  24.610   5.308
 3326POPC   PO445432  44.086  24.353   5.375
 3326POPC   GL145433  44.036  24.463   5.804
 3326POPC   GL245434  43.697  24.558   5.800
 3326POPC   C1A45435  44.129  24.537   6.250
 3326POPC   D2A45436  43.947  24.779   6.628
 3326POPC   C3A45437  43.741  24.574   6.994
 3326POPC   C4A45438  43.890  24.236   7.213
 3326POPC   C1B45439  43.648  24.778   6.212
 3326POPC   C2B45440  43.443  24.849   6.658
 3326POPC   C3B45441  43.513  25.035   7.058
 3326POPC   C4B45442  43.546  24.874   7.484
 3327POPC   NC345443  44.552  26.802   5.351
 3327POPC   PO445444  44.666  26.357   5.411
 3327POPC   GL145445  44.707  26.562   5.814
 3327POPC   GL245446  44.963  26.780   5.701
 3327POPC   C1A45447  44.606  26.816   6.212
 3327POPC   D2A45448  44.453  26.755   6.672
 3327POPC   C3A45449  44.681  26.497   7.025
 3327POPC   C4A45450  44.948  26.351   7.415
 3327POPC   C1B45451   0.112  26.846   6.132
 3327POPC   C2B45452  44.955  27.074   6.511
 3327POPC   C3B45453  44.812  26.997   6.938
 3327POPC   C4B45454  44.870  26.845   7.354
 3328POPC   NC345455  43.048  35.712   5.339
 3328POPC   PO445456  43.258  36.359   5.436
 3328POPC   GL145457  43.225  36.038   5.709
 3328POPC   GL245458  42.871  36.000   5.730
 3328POPC   C1A45459  43.219  35.982   6.161
 3328POPC   D2A45460  43.456  35.971   6.561
 3328POPC   C3A45461  43.256  36.060   6.967
 3328POPC   C4A45462  43.127  36.438   7.213
 3328POPC   C1B45463  42.762  35.721   6.084
 3328POPC   C2B45464  42.572  35.846   6.489
 3328POPC   C3B45465  42.729  36.079   6.854
 3328POPC   C4B45466  42.853  35.954   7.278
 3329POPC   NC345467  41.112  21.987   5.482
 3329POPC   PO445468  40.570  21.767   5.210
 3329POPC   GL145469  40.574  22.032   5.713
 3329POPC   GL245470  40.644  22.360   5.792
 3329POPC   C1A45471  40.785  21.989   6.174
 3329POPC   D2A45472  40.958  22.159   6.602
 3329POPC   C3A45473  40.756  22.061   7.002
 3329POPC   C4A45474  40.344  22.156   7.118
 3329POPC   C1B45475  40.427  22.337   6.213
 3329POPC   C2B45476  40.515  22.405   6.664
 3329POPC   C3B45477  40.637  22.555   7.086
 3329POPC   C4B45478  40.453  22.430   7.522
 3330POPC   NC345479  40.426  27.801   5.446
 3330POPC   PO445480  41.038  27.489   5.323
 3330POPC   GL145481  40.846  27.536   5.733
 3330POPC   GL245482  40.984  27.192   5.833
 3330POPC   C1A45483  40.766  27.776   6.136
 3330POPC   D2A45484  40.517  27.656   6.540
 3330POPC   C3A45485  40.721  27.747   6.941
 3330POPC   C4A45486  40.686  27.624   7.353
 3330POPC   C1B45487  41.128  27.426   6.191
 3330POPC   C2B45488  41.077  27.561   6.628
 3330POPC   C3B45489  41.110  27.447   7.104
 3330POPC   C4B45490  41.135  27.572   7.555
 3331POPC   NC345491  37.489  14.871   5.400
 3331POPC   PO445492  37.918  15.388   5.380
 3331POPC   GL145493  37.687  15.198   5.741
 3331POPC   GL245494  37.854  14.865   5.773
 3331POPC   C1A45495  37.668  15.242   6.195
 3331POPC   D2A45496  37.942  15.209   6.552
 3331POPC   C3A45497  37.780  15.426   6.882
 3331POPC   C4A45498  37.431  15.342   7.125
 3331POPC   C1B45499  38.059  14.870   6.176
 3331POPC   C2B45500  37.953  14.685   6.583
 3331POPC   C3B45501  37.731  14.865   6.919
 3331POPC   C4B45502  37.870  15.088   7.265
 3332POPC   NC345503  18.884   1.453   5.339
 3332POPC   PO445504  18.885   0.801   5.059
 3332POPC   GL145505  18.903   1.036   5.626
 3332POPC   GL245506  18.979   1.408   5.815
 3332POPC   C1A45507  19.048   1.028   6.098
 3332POPC   D2A45508  19.213   1.091   6.509
 3332POPC   C3A45509  19.101   0.852   6.862
 3332POPC   C4A45510  19.118   1.009   7.280
 3332POPC   C1B45511  18.879   1.479   6.270
 3332POPC   C2B45512  18.909   1.452   6.728
 3332POPC   C3B45513  18.921   1.489   7.165
 3332POPC   C4B45514  19.322   1.523   7.333
 3333POPC   NC345515  33.904  36.524   5.357
 3333POPC   PO445516  34.057  37.095   5.321
 3333POPC   GL145517  34.045  36.862   5.716
 3333POPC   GL245518  33.690  36.799   5.788
 3333POPC   C1A45519  34.054  36.746   6.169
 3333POPC   D2A45520  33.868  36.571   6.571
 3333POPC   C3A45521  33.992  36.751   6.980
 3333POPC   C4A45522  34.049  37.175   7.034
 3333POPC   C1B45523  33.586  36.928   6.246
 3333POPC   C2B45524  33.647  37.035   6.705
 3333POPC   C3B45525  33.555  36.970   7.148
 3333POPC   C4B45526  33.399  37.082   7.561
 3334POPC   NC345527  26.584   6.197   5.408
 3334POPC   PO445528  26.704   5.498   5.438
 3334POPC   GL145529  26.820   5.715   5.811
 3334POPC   GL245530  26.668   6.031   5.873
 3334POPC   C1A45531  26.620   5.681   6.227
 3334POPC   D2A45532  26.675   5.887   6.577
 3334POPC   C3A45533  26.667   5.696   6.958
 3334POPC   C4A45534  26.813   5.831   7.351
 3334POPC   C1B45535  26.987   6.084   6.200
 3334POPC   C2B45536  27.167   6.040   6.605
 3334POPC   C3B45537  26.985   6.131   6.997
 3334POPC   C4B45538  27.268   6.130   7.372
 3335POPC   NC345539   2.595  17.193   5.444
 3335POPC   PO445540   2.958  17.796   5.351
 3335POPC   GL145541   2.893  17.610   5.802
 3335POPC   GL245542   2.892  17.248   5.897
 3335POPC   C1A45543   2.808  17.621   6.284
 3335POPC   D2A45544   2.902  17.462   6.736
 3335POPC   C3A45545   2.778  17.721   7.113
 3335POPC   C4A45546   2.378  17.963   7.208
 3335POPC   C1B45547   2.611  17.150   6.258
 3335POPC   C2B45548   2.527  17.050   6.719
 3335POPC   C3B45549   2.581  17.254   7.145
 3335POPC   C4B45550   2.486  17.556   7.513
 3336POPC   NC345551  29.087   3.146   5.662
 3336POPC   PO445552  29.159   3.709   5.282
 3336POPC   GL145553  29.317   3.614   5.668
 3336POPC   GL245554  28.997   3.605   5.853
 3336POPC   C1A45555  29.461   3.616   6.096
 3336POPC   D2A45556  29.491   3.356   6.489
 3336POPC   C3A45557  29.622   3.615   6.820
 3336POPC   C4A45558  29.516   3.633   7.235
 3336POPC   C1B45559  29.032   3.357   6.265
 3336POPC   C2B45560  29.026   3.114   6.647
 3336POPC   C3B45561  29.200   3.332   6.974
 3336POPC   C4B45562  29.254   3.232   7.427
 3337POPC   NC345563  17.054  16.344   5.513
 3337POPC   PO445564  16.563  16.846   5.431
 3337POPC   GL145565  16.694  16.959   5.842
 3337POPC   GL245566  17.069  16.910   5.826
 3337POPC   C1A45567  16.660  16.894   6.282
 3337POPC   D2A45568  16.599  17.020   6.708
 3337POPC   C3A45569  16.574  16.721   7.026
 3337POPC   C4A45570  16.446  16.792   7.437
 3337POPC   C1B45571  17.176  16.775   6.251
 3337POPC   C2B45572  16.928  16.627   6.611
 3337POPC   C3B45573  17.016  16.444   7.001
 3337POPC   C4B45574  17.263  16.663   7.293
 3338POPC   NC345575  11.538  41.618   5.396
 3338POPC   PO445576  10.913  41.338   5.613
 3338POPC   GL145577  11.164  41.637   5.783
 3338POPC   GL245578  11.402  41.382   5.827
 3338POPC   C1A45579  11.312  41.776   6.168
 3338POPC   D2A45580  11.528  41.796   6.566
 3338POPC   C3A45581  11.328  41.867   6.964
 3338POPC   C4A45582  11.491  41.978   7.367
 3338POPC   C1B45583  11.218  41.269   6.219
 3338POPC   C2B45584  11.457  41.259   6.599
 3338POPC   C3B45585  11.557  41.416   6.962
 3338POPC   C4B45586  11.332  41.493   7.320
 3339POPC   NC345587  38.065  32.398   5.553
 3339POPC   PO445588  38.665  32.045   5.447
 3339POPC   GL145589  38.457  32.173   5.793
 3339POPC   GL245590  38.741  32.251   5.925
 3339POPC   C1A45591  38.344  32.037   6.215
 3339POPC   D2A45592  38.521  32.178   6.611
 3339POPC   C3A45593  38.251  32.257   6.977
 3339POPC   C4A45594  38.067  32.617   7.192
 3339POPC   C1B45595  38.554  32.578   6.152
 3339POPC   C2B45596  38.736  32.651   6.529
 3339POPC   C3B45597  38.822  32.486   6.927
 3339POPC   C4B45598  38.718  32.084   7.097
 3340POPC   NC345599  32.486   6.725   5.287
 3340POPC   PO445600  32.208   6.108   5.327
 3340POPC   GL145601  32.226   6.468   5.692
 3340POPC   GL245602  31.981   6.782   5.781
 3340POPC   C1A45603  32.086   6.414   6.139
 3340POPC   D2A45604  32.019   6.587   6.553
 3340POPC   C3A45605  32.415   6.692   6.757
 3340POPC   C4A45606  32.551   6.655   7.174
 3340POPC   C1B45607  32.067   7.007   6.210
 3340POPC   C2B45608  32.039   7.079   6.698
 3340POPC   C3B45609  32.042   6.797   7.085
 3340POPC   C4B45610  31.997   6.931   7.553
 3341POPC   NC345611  36.923  15.972   5.485
 3341POPC   PO445612  36.527  16.494   5.539
 3341POPC   GL145613  36.793  16.384   5.876
 3341POPC   GL245614  36.609  16.097   5.885
 3341POPC   C1A45615  37.048  16.127   6.165
 3341POPC   D2A45616  37.010  15.961   6.604
 3341POPC   C3A45617  37.010  16.152   7.065
 3341POPC   C4A45618  36.917  16.246   7.548
 3341POPC   C1B45619  36.622  15.822   6.239
 3341POPC   C2B45620  36.514  15.750   6.655
 3341POPC   C3B45621  36.544  15.917   7.069
 3341POPC   C4B45622  36.381  16.044   7.440
 3342POPC   NC345623  33.895  44.162   5.303
 3342POPC   PO445624  33.477  43.680   5.608
 3342POPC   GL145625  33.713  43.929   5.838
 3342POPC   GL245626  33.788  43.603   6.010
 3342POPC   C1A45627  33.744  44.004   6.276
 3342POPC   D2A45628  33.857  43.828   6.630
 3342POPC   C3A45629  33.783  44.069   6.970
 3342POPC   C4A45630  34.056  44.343   7.194
 3342POPC   C1B45631  33.621  43.412   6.345
 3342POPC   C2B45632  33.784  43.321   6.724
 3342POPC   C3B45633  33.809  43.537   7.092
 3342POPC   C4B45634  33.752  43.514   7.531
 3343POPC   NC345635   7.121  21.151   5.265
 3343POPC   PO445636   7.377  20.566   5.228
 3343POPC   GL145637   7.270  20.549   5.692
 3343POPC   GL245638   7.370  20.875   5.729
 3343POPC   C1A45639   7.492  20.493   6.110
 3343POPC   D2A45640   7.451  20.671   6.535
 3343POPC   C3A45641   7.607  20.619   6.977
 3343POPC   C4A45642   7.344  20.635   7.331
 3343POPC   C1B45643   7.133  20.853   6.128
 3343POPC   C2B45644   6.951  20.812   6.525
 3343POPC   C3B45645   7.136  20.899   6.920
 3343POPC   C4B45646   6.917  20.927   7.304
 3344POPC   NC345647   0.216  36.976   5.251
 3344POPC   PO445648   0.700  36.569   5.170
 3344POPC   GL145649   0.571  36.708   5.608
 3344POPC   GL245650   0.341  37.015   5.751
 3344POPC   C1A45651   0.633  36.668   6.066
 3344POPC   D2A45652   0.404  36.631   6.461
 3344POPC   C3A45653   0.560  36.816   6.865
 3344POPC   C4A45654   0.596  36.897   7.306
 3344POPC   C1B45655   0.440  37.162   6.190
 3344POPC   C2B45656   0.646  37.287   6.584
 3344POPC   C3B45657   0.487  37.333   7.007
 3344POPC   C4B45658   0.115  37.159   7.200
 3345POPC   NC345659  26.058  38.582   5.289
 3345POPC   PO445660  26.390  37.985   5.456
 3345POPC   GL145661  26.217  38.391   5.741
 3345POPC   GL245662  25.886  38.570   5.763
 3345POPC   C1A45663  26.210  38.703   6.132
 3345POPC   D2A45664  26.000  38.827   6.555
 3345POPC   C3A45665  25.963  38.533   6.914
 3345POPC   C4A45666  26.130  38.507   7.342
 3345POPC   C1B45667  25.694  38.646   6.176
 3345POPC   C2B45668  25.513  38.620   6.600
 3345POPC   C3B45669  25.529  38.769   7.031
 3345POPC   C4B45670  25.733  38.789   7.435
 3346POPC   NC345671  20.820  26.513   5.531
 3346POPC   PO445672  20.870  27.175   5.468
 3346POPC   GL145673  20.657  26.951   5.780
 3346POPC   GL245674  20.310  26.999   5.771
 3346POPC   C1A45675  20.596  26.750   6.182
 3346POPC   D2A45676  20.824  26.608   6.525
 3346POPC   C3A45677  20.623  26.809   6.864
 3346POPC   C4A45678  20.692  26.748   7.268
 3346POPC   C1B45679  20.353  27.226   6.119
 3346POPC   C2B45680  20.379  27.123   6.524
 3346POPC   C3B45681  20.297  27.298   6.904
 3346POPC   C4B45682  20.438  27.183   7.298
 3347POPC   NC345683  25.423   4.863   5.538
 3347POPC   PO445684  24.978   5.412   5.419
 3347POPC   GL145685  25.227   5.285   5.812
 3347POPC   GL245686  25.570   5.377   5.961
 3347POPC   C1A45687  25.198   5.189   6.274
 3347POPC   D2A45688  25.464   5.159   6.655
 3347POPC   C3A45689  25.243   5.192   7.044
 3347POPC   C4A45690  25.113   5.089   7.477
 3347POPC   C1B45691  25.641   4.965   6.177
 3347POPC   C2B45692  25.683   4.707   6.600
 3347POPC   C3B45693  25.542   4.749   7.015
 3347POPC   C4B45694  25.619   5.031   7.351
 3348POPC   NC345695  11.208  11.326   5.334
 3348POPC   PO445696  11.854  11.277   5.372
 3348POPC   GL145697  11.675  11.113   5.772
 3348POPC   GL245698  11.304  11.135   5.795
 3348POPC   C1A45699  11.556  11.018   6.222
 3348POPC   D2A45700  11.485  11.349   6.525
 3348POPC   C3A45701  11.379  11.234   6.900
 3348POPC   C4A45702  11.644  11.162   7.247
 3348POPC   C1B45703  11.157  11.405   6.142
 3348POPC   C2B45704  11.012  11.604   6.542
 3348POPC   C3B45705  11.053  11.608   6.993
 3348POPC   C4B45706  11.231  11.417   7.342
 3349POPC   NC345707   3.402  34.920   5.282
 3349POPC   PO445708   3.800  34.438   5.412
 3349POPC   GL145709   3.445  34.523   5.723
 3349POPC   GL245710   3.347  34.878   5.821
 3349POPC   C1A45711   3.293  34.478   6.178
 3349POPC   D2A45712   3.486  34.664   6.573
 3349POPC   C3A45713   3.339  34.555   6.986
 3349POPC   C4A45714   3.595  34.600   7.383
 3349POPC   C1B45715   3.233  34.988   6.263
 3349POPC   C2B45716   3.148  35.021   6.730
 3349POPC   C3B45717   3.336  35.024   7.187
 3349POPC   C4B45718   3.508  35.022   7.648
 3350POPC   NC345719  16.864  22.746   5.550
 3350POPC   PO445720  16.327  23.127   5.411
 3350POPC   GL145721  16.561  23.084   5.777
 3350POPC   GL245722  16.465  22.758   5.842
 3350POPC   C1A45723  16.777  23.037   6.177
 3350POPC   D2A45724  16.927  22.862   6.559
 3350POPC   C3A45725  16.815  23.112   6.897
 3350POPC   C4A45726  16.811  22.995   7.297
 3350POPC   C1B45727  16.300  22.839   6.219
 3350POPC   C2B45728  16.424  23.025   6.583
 3350POPC   C3B45729  16.409  22.850   6.995
 3350POPC   C4B45730  16.431  22.632   7.385
 3351POPC   NC345731   5.671  38.672   5.224
 3351POPC   PO445732   5.871  39.359   5.279
 3351POPC   GL145733   6.117  39.155   5.644
 3351POPC   GL245734   6.124  39.518   5.745
 3351POPC   C1A45735   6.158  39.136   6.103
 3351POPC   D2A45736   5.908  39.212   6.482
 3351POPC   C3A45737   5.910  38.969   6.834
 3351POPC   C4A45738   5.607  38.934   7.129
 3351POPC   C1B45739   6.002  39.623   6.190
 3351POPC   C2B45740   5.807  39.719   6.582
 3351POPC   C3B45741   5.630  39.473   6.929
 3351POPC   C4B45742   5.693  39.384   7.358
 3352POPC   NC345743   9.633  26.357   5.488
 3352POPC   PO445744   9.895  25.679   5.313
 3352POPC   GL145745   9.821  25.912   5.715
 3352POPC   GL245746  10.003  26.159   5.803
 3352POPC   C1A45747   9.723  25.853   6.183
 3352POPC   D2A45748   9.941  25.906   6.593
 3352POPC   C3A45749   9.700  26.022   6.953
 3352POPC   C4A45750   9.531  25.968   7.360
 3352POPC   C1B45751   9.926  26.326   6.196
 3352POPC   C2B45752   9.750  26.407   6.588
 3352POPC   C3B45753   9.967  26.477   6.941
 3352POPC   C4B45754   9.968  26.274   7.310
 3353POPC   NC345755  23.411  42.223   5.235
 3353POPC   PO445756  23.728  42.697   5.309
 3353POPC   GL145757  23.557  42.364   5.701
 3353POPC   GL245758  23.266  42.071   5.733
 3353POPC   C1A45759  23.599  42.223   6.174
 3353POPC   D2A45760  23.627  42.308   6.661
 3353POPC   C3A45761  23.916  42.393   7.047
 3353POPC   C4A45762  24.070  42.692   7.379
 3353POPC   C1B45763  23.149  41.940   6.198
 3353POPC   C2B45764  23.195  42.006   6.680
 3353POPC   C3B45765  23.353  42.207   7.095
 3353POPC   C4B45766  23.413  42.385   7.552
 3354POPC   NC345767   7.939  41.189   5.599
 3354POPC   PO445768   8.426  41.625   5.294
 3354POPC   GL145769   8.241  41.781   5.734
 3354POPC   GL245770   8.082  41.508   5.941
 3354POPC   C1A45771   8.045  41.935   6.158
 3354POPC   D2A45772   7.977  41.642   6.508
 3354POPC   C3A45773   7.928  41.860   6.883
 3354POPC   C4A45774   8.060  41.855   7.305
 3354POPC   C1B45775   8.436  41.568   6.237
 3354POPC   C2B45776   8.481  41.510   6.691
 3354POPC   C3B45777   8.365  41.466   7.125
 3354POPC   C4B45778   8.531  41.222   7.458
 3355POPC   NC345779  43.554  34.249   5.493
 3355POPC   PO445780  43.039  34.582   5.075
 3355POPC   GL145781  43.096  34.561   5.553
 3355POPC   GL245782  43.378  34.678   5.728
 3355POPC   C1A45783  42.958  34.528   6.016
 3355POPC   D2A45784  42.776  34.663   6.438
 3355POPC   C3A45785  43.018  34.621   6.841
 3355POPC   C4A45786  42.845  34.644   7.280
 3355POPC   C1B45787  43.490  34.590   6.160
 3355POPC   C2B45788  43.513  34.724   6.581
 3355POPC   C3B45789  43.425  34.970   6.926
 3355POPC   C4B45790  43.364  34.685   7.226
 3356POPC   NC345791  33.603  11.320   5.525
 3356POPC   PO445792  34.194  11.372   5.576
 3356POPC   GL145793  34.092  11.119   5.935
 3356POPC   GL245794  33.742  11.015   5.909
 3356POPC   C1A45795  33.956  11.160   6.365
 3356POPC   D2A45796  34.010  10.999   6.767
 3356POPC   C3A45797  33.871  11.319   7.090
 3356POPC   C4A45798  34.063  11.325   7.523
 3356POPC   C1B45799  33.617  10.794   6.297
 3356POPC   C2B45800  33.508  10.886   6.737
 3356POPC   C3B45801  33.527  10.935   7.186
 3356POPC   C4B45802  33.636  10.844   7.620
 3357POPC   NC345803  17.713  43.377   5.468
 3357POPC   PO445804  17.220  42.857   5.275
 3357POPC   GL145805  17.376  43.059   5.678
 3357POPC   GL245806  17.698  43.040   5.872
 3357POPC   C1A45807  17.266  43.275   6.078
 3357POPC   D2A45808  17.336  43.115   6.500
 3357POPC   C3A45809  17.234  43.266   6.923
 3357POPC   C4A45810  17.373  43.098   7.320
 3357POPC   C1B45811  17.751  42.865   6.319
 3357POPC   C2B45812  17.740  42.962   6.784
 3357POPC   C3B45813  17.883  43.061   7.194
 3357POPC   C4B45814  17.829  43.115   7.628
 3358POPC   NC345815  18.753  44.241   5.369
 3358POPC   PO445816  19.044  43.590   5.411
 3358POPC   GL145817  19.022  43.892   5.767
 3358POPC   GL245818  18.723  44.102   5.848
 3358POPC   C1A45819  19.082  43.796   6.211
 3358POPC   D2A45820  19.329  43.700   6.586
 3358POPC   C3A45821  19.151  43.824   6.975
 3358POPC   C4A45822  19.354  44.153   7.179
 3358POPC   C1B45823  18.864  44.247   6.243
 3358POPC   C2B45824  18.833  44.000   6.618
 3358POPC   C3B45825  18.593  44.055   6.966
 3358POPC   C4B45826  18.589  44.353   7.263
 3359POPC   NC345827  21.688  18.434   5.504
 3359POPC   PO445828  21.009  18.205   5.428
 3359POPC   GL145829  21.106  18.221   5.829
 3359POPC   GL245830  21.442  18.101   5.819
 3359POPC   C1A45831  21.049  17.972   6.198
 3359POPC   D2A45832  21.088  18.225   6.535
 3359POPC   C3A45833  21.293  18.053   6.875
 3359POPC   C4A45834  21.622  18.170   7.133
 3359POPC   C1B45835  21.548  18.106   6.254
 3359POPC   C2B45836  21.801  18.079   6.625
 3359POPC   C3B45837  22.083  18.019   6.991
 3359POPC   C4B45838  22.004  18.107   7.463
 3360POPC   NC345839  16.073  22.739   5.424
 3360POPC   PO445840  15.545  23.180   5.489
 3360POPC   GL145841  15.734  22.858   5.805
 3360POPC   GL245842  16.041  23.050   5.825
 3360POPC   C1A45843  15.841  22.626   6.232
 3360POPC   D2A45844  15.964  22.791   6.664
 3360POPC   C3A45845  15.974  22.669   7.125
 3360POPC   C4A45846  16.091  23.011   7.439
 3360POPC   C1B45847  16.282  23.337   6.118
 3360POPC   C2B45848  16.118  23.438   6.518
 3360POPC   C3B45849  16.097  23.251   6.920
 3360POPC   C4B45850  16.430  23.328   7.199
 3361POPC   NC345851   7.268  39.482   5.356
 3361POPC   PO445852   7.319  40.230   5.404
 3361POPC   GL145853   7.445  40.186   5.818
 3361POPC   GL245854   7.610  39.878   5.706
 3361POPC   C1A45855   7.220  40.034   6.205
 3361POPC   D2A45856   7.247  39.686   6.544
 3361POPC   C3A45857   7.078  39.906   6.901
 3361POPC   C4A45858   7.118  40.108   7.297
 3361POPC   C1B45859   7.615  39.740   6.132
 3361POPC   C2B45860   7.643  39.985   6.526
 3361POPC   C3B45861   7.589  39.966   6.942
 3361POPC   C4B45862   7.419  39.688   7.241
 3362POPC   NC345863   3.981  13.985   5.303
 3362POPC   PO445864   4.362  13.433   5.319
 3362POPC   GL145865   4.097  13.422   5.704
 3362POPC   GL245866   3.844  13.141   5.658
 3362POPC   C1A45867   4.152  13.520   6.206
 3362POPC   D2A45868   4.109  13.579   6.702
 3362POPC   C3A45869   4.453  13.789   6.994
 3362POPC   C4A45870   4.596  14.138   7.303
 3362POPC   C1B45871   4.037  13.049   6.039
 3362POPC   C2B45872   4.003  13.096   6.478
 3362POPC   C3B45873   4.056  13.090   6.900
 3362POPC   C4B45874   4.236  13.382   7.202
 3363POPC   NC345875  44.317   4.366   5.495
 3363POPC   PO445876  44.977   4.623   5.573
 3363POPC   GL145877  44.705   4.419   5.849
 3363POPC   GL245878  44.722   4.081   5.735
 3363POPC   C1A45879  44.760   4.319   6.277
 3363POPC   D2A45880   0.039   4.201   6.593
 3363POPC   C3A45881  44.939   4.280   7.031
 3363POPC   C4A45882   0.005   4.596   7.351
 3363POPC   C1B45883  44.439   3.958   6.080
 3363POPC   C2B45884  44.317   3.862   6.495
 3363POPC   C3B45885  44.326   3.830   6.932
 3363POPC   C4B45886  44.491   4.092   7.261
 3364POPC   NC345887  19.265  16.446   5.367
 3364POPC   PO445888  18.850  15.874   5.402
 3364POPC   GL145889  18.973  16.060   5.786
 3364POPC   GL245890  19.136  15.726   5.834
 3364POPC   C1A45891  18.872  16.174   6.239
 3364POPC   D2A45892  18.742  15.936   6.640
 3364POPC   C3A45893  18.948  16.071   7.048
 3364POPC   C4A45894  18.751  16.265   7.457
 3364POPC   C1B45895  19.046  15.679   6.269
 3364POPC   C2B45896  19.182  15.673   6.729
 3364POPC   C3B45897  19.216  15.581   7.178
 3364POPC   C4B45898  19.238  15.489   7.639
 3365POPC   NC345899  41.944  41.991   5.335
 3365POPC   PO445900  41.302  42.382   5.431
 3365POPC   GL145901  41.220  42.476   5.840
 3365POPC   GL245902  41.301  42.136   5.967
 3365POPC   C1A45903  41.286  42.515   6.296
 3365POPC   D2A45904  41.408  42.181   6.580
 3365POPC   C3A45905  41.238  42.270   6.989
 3365POPC   C4A45906  41.212  42.582   7.315
 3365POPC   C1B45907  41.715  42.351   6.058
 3365POPC   C2B45908  41.895  42.427   6.473
 3365POPC   C3B45909  41.784  42.370   6.895
 3365POPC   C4B45910  42.025  42.427   7.241
 3366POPC   NC345911  12.437   2.531   5.481
 3366POPC   PO445912  12.967   2.120   5.545
 3366POPC   GL145913  12.741   1.953   5.839
 3366POPC   GL245914  12.629   2.310   5.899
 3366POPC   C1A45915  12.909   1.717   6.197
 3366POPC   D2A45916  13.009   1.841   6.609
 3366POPC   C3A45917  13.045   1.544   6.938
 3366POPC   C4A45918  13.244   1.672   7.314
 3366POPC   C1B45919  12.828   2.233   6.252
 3366POPC   C2B45920  12.629   2.205   6.581
 3366POPC   C3B45921  12.685   2.305   6.947
 3366POPC   C4B45922  12.965   2.051   7.097
 3367POPC   NC345923  38.093  18.046   5.414
 3367POPC   PO445924  38.557  18.592   5.469
 3367POPC   GL145925  38.577  18.370   5.819
 3367POPC   GL245926  38.240  18.329   5.807
 3367POPC   C1A45927  38.594  18.196   6.217
 3367POPC   D2A45928  38.764  18.365   6.577
 3367POPC   C3A45929  38.605  18.222   6.930
 3367POPC   C4A45930  38.529  18.143   7.317
 3367POPC   C1B45931  38.126  18.379   6.212
 3367POPC   C2B45932  38.221  18.278   6.612
 3367POPC   C3B45933  38.101  18.093   7.009
 3367POPC   C4B45934  38.050  18.292   7.396
 3368POPC   NC345935   5.734  18.149   5.298
 3368POPC   PO445936   5.697  17.496   5.276
 3368POPC   GL145937   5.713  17.603   5.773
 3368POPC   GL245938   6.043  17.627   5.915
 3368POPC   C1A45939   5.561  17.587   6.229
 3368POPC   D2A45940   5.695  17.521   6.680
 3368POPC   C3A45941   5.456  17.366   7.058
 3368POPC   C4A45942   5.583  17.213   7.484
 3368POPC   C1B45943   5.894  17.970   6.189
 3368POPC   C2B45944   5.628  18.029   6.583
 3368POPC   C3B45945   5.600  17.874   7.041
 3368POPC   C4B45946   5.892  17.565   7.239
 3369POPC   NC345947  22.112  14.766   5.434
 3369POPC   PO445948  22.385  15.379   5.223
 3369POPC   GL145949  22.178  15.263   5.622
 3369POPC   GL245950  21.856  15.441   5.679
 3369POPC   C1A45951  22.293  15.051   6.033
 3369POPC   D2A45952  22.404  14.959   6.469
 3369POPC   C3A45953  22.338  15.240   6.813
 3369POPC   C4A45954  22.240  15.402   7.193
 3369POPC   C1B45955  21.818  15.242   6.084
 3369POPC   C2B45956  21.926  15.322   6.509
 3369POPC   C3B45957  21.822  15.222   6.951
 3369POPC   C4B45958  21.702  15.422   7.325
 3370POPC   NC345959  35.233  39.372   5.303
 3370POPC   PO445960  35.850  39.229   5.051
 3370POPC   GL145961  35.686  39.253   5.516
 3370POPC   GL245962  35.477  39.023   5.714
 3370POPC   C1A45963  35.655  39.412   6.009
 3370POPC   D2A45964  35.400  39.461   6.413
 3370POPC   C3A45965  35.533  39.346   6.863
 3370POPC   C4A45966  35.354  39.395   7.302
 3370POPC   C1B45967  35.215  39.054   6.128
 3370POPC   C2B45968  35.074  39.083   6.596
 3370POPC   C3B45969  35.020  39.052   7.070
 3370POPC   C4B45970  35.207  38.886   7.455
 3371POPC   NC345971  37.588  39.941   5.175
 3371POPC   PO445972  38.030  40.296   5.464
 3371POPC   GL145973  37.840  40.137   5.795
 3371POPC   GL245974  37.548  40.057   5.703
 3371POPC   C1A45975  37.883  39.874   6.188
 3371POPC   D2A45976  38.035  39.749   6.631
 3371POPC   C3A45977  37.790  39.702   7.007
 3371POPC   C4A45978  37.766  39.936   7.387
 3371POPC   C1B45979  37.456  40.133   6.146
 3371POPC   C2B45980  37.554  39.968   6.576
 3371POPC   C3B45981  37.480  40.119   6.968
 3371POPC   C4B45982  37.466  40.429   7.265
 3372POPC   NC345983  42.897  26.270   5.420
 3372POPC   PO445984  43.471  26.023   5.402
 3372POPC   GL145985  43.197  25.987   5.788
 3372POPC   GL245986  42.835  26.005   5.877
 3372POPC   C1A45987  43.285  26.049   6.261
 3372POPC   D2A45988  43.103  26.170   6.710
 3372POPC   C3A45989  43.270  26.110   7.145
 3372POPC   C4A45990  43.125  26.235   7.559
 3372POPC   C1B45991  42.793  26.144   6.307
 3372POPC   C2B45992  42.618  25.982   6.696
 3372POPC   C3B45993  42.752  26.008   7.104
 3372POPC   C4B45994  42.650  26.303   7.448
 3373POPC   NC345995  12.454  18.947   5.148
 3373POPC   PO445996  11.864  18.936   5.484
 3373POPC   GL145997  11.868  19.022   5.909
 3373POPC   GL245998  12.034  19.325   5.945
 3373POPC   C1A45999  12.122  18.951   6.283
 3373POPC   D2A46000  12.238  19.311   6.507
 3373POPC   C3A46001  12.067  19.301   6.913
 3373POPC   C4A46002  12.297  19.168   7.269
 3373POPC   C1B46003  11.766  19.309   6.328
 3373POPC   C2B46004  11.571  19.361   6.723
 3373POPC   C3B46005  11.579  19.278   7.149
 3373POPC   C4B46006  11.823  19.019   7.394
 3374POPC   NC346007  25.400  13.375   5.260
 3374POPC   PO446008  24.855  13.765   5.273
 3374POPC   GL146009  25.158  13.603   5.648
 3374POPC   GL246010  25.531  13.446   5.733
 3374POPC   C1A46011  25.206  13.562   6.116
 3374POPC   D2A46012  25.074  13.847   6.481
 3374POPC   C3A46013  25.101  13.753   6.936
 3374POPC   C4A46014  25.300  14.022   7.240
 3374POPC   C1B46015  25.730  13.383   6.150
 3374POPC   C2B46016  25.555  13.272   6.584
 3374POPC   C3B46017  25.715  13.171   7.016
 3374POPC   C4B46018  25.478  13.390   7.329
 3375POPC   NC346019  40.420   0.027   5.227
 3375POPC   PO446020  41.117   0.061   5.373
 3375POPC   GL146021  40.881   0.257   5.719
 3375POPC   GL246022  40.567   0.480   5.689
 3375POPC   C1A46023  40.793   0.341   6.150
 3375POPC   D2A46024  40.692   0.128   6.521
 3375POPC   C3A46025  41.006   0.138   6.828
 3375POPC   C4A46026  40.823   0.176   7.215
 3375POPC   C1B46027  40.370   0.633   6.095
 3375POPC   C2B46028  40.529   0.709   6.512
 3375POPC   C3B46029  40.578   0.493   6.904
 3375POPC   C4B46030  40.408   0.425   7.340
 3376POPC   NC346031  41.655  30.668   5.259
 3376POPC   PO446032  41.199  31.149   5.464
 3376POPC   GL146033  41.464  30.783   5.744
 3376POPC   GL246034  41.752  30.511   5.752
 3376POPC   C1A46035  41.695  30.842   6.203
 3376POPC   D2A46036  41.950  31.078   6.584
 3376POPC   C3A46037  41.853  31.065   7.031
 3376POPC   C4A46038  41.489  30.932   7.251
 3376POPC   C1B46039  41.408  30.387   6.053
 3376POPC   C2B46040  41.397  30.453   6.490
 3376POPC   C3B46041  41.617  30.546   6.876
 3376POPC   C4B46042  41.857  30.581   7.249
 3377POPC   NC346043  10.375   4.715   5.516
 3377POPC   PO446044  10.641   5.389   5.465
 3377POPC   GL146045  10.692   5.369   5.892
 3377POPC   GL246046  10.463   5.072   5.879
 3377POPC   C1A46047  10.529   5.343   6.320
 3377POPC   D2A46048  10.367   5.075   6.659
 3377POPC   C3A46049  10.574   4.973   7.081
 3377POPC   C4A46050  10.358   5.051   7.506
 3377POPC   C1B46051  10.614   4.848   6.245
 3377POPC   C2B46052  10.889   5.044   6.545
 3377POPC   C3B46053  11.006   4.777   6.822
 3377POPC   C4B46054  10.827   4.490   7.105
 3378POPC   NC346055  43.221  14.840   5.261
 3378POPC   PO446056  42.893  15.400   5.366
 3378POPC   GL146057  42.889  15.068   5.679
 3378POPC   GL246058  43.171  14.837   5.810
 3378POPC   C1A46059  42.925  15.215   6.098
 3378POPC   D2A46060  43.055  15.108   6.505
 3378POPC   C3A46061  43.097  15.316   6.885
 3378POPC   C4A46062  42.989  15.340   7.324
 3378POPC   C1B46063  43.245  14.686   6.263
 3378POPC   C2B46064  43.287  14.738   6.750
 3378POPC   C3B46065  43.192  14.900   7.168
 3378POPC   C4B46066  43.165  14.955   7.618
 3379POPC   NC346067  25.255  41.588   5.250
 3379POPC   PO446068  24.862  41.267   5.639
 3379POPC   GL146069  25.212  41.410   5.826
 3379POPC   GL246070  25.245  41.705   5.780
 3379POPC   C1A46071  25.232  41.474   6.252
 3379POPC   D2A46072  25.194  41.746   6.596
 3379POPC   C3A46073  25.172  41.500   6.958
 3379POPC   C4A46074  25.254  41.215   7.287
 3379POPC   C1B46075  25.581  41.796   6.100
 3379POPC   C2B46076  25.702  41.941   6.521
 3379POPC   C3B46077  25.547  41.927   6.914
 3379POPC   C4B46078  25.570  41.623   7.242
 3380POPC   NC346079   6.183  20.616   5.214
 3380POPC   PO446080   5.555  20.832   5.343
 3380POPC   GL146081   5.922  20.853   5.612
 3380POPC   GL246082   5.940  20.505   5.671
 3380POPC   C1A46083   6.103  20.830   6.049
 3380POPC   D2A46084   5.880  20.749   6.438
 3380POPC   C3A46085   6.069  20.723   6.851
 3380POPC   C4A46086   6.002  20.815   7.269
 3380POPC   C1B46087   5.929  20.340   6.104
 3380POPC   C2B46088   6.051  20.267   6.550
 3380POPC   C3B46089   5.880  20.282   6.994
 3380POPC   C4B46090   6.075  20.308   7.386
 3381POPC   NC346091   4.346   2.650   5.389
 3381POPC   PO446092   3.898   3.058   5.456
 3381POPC   GL146093   4.293   3.063   5.727
 3381POPC   GL246094   4.343   2.738   5.881
 3381POPC   C1A46095   4.524   3.169   6.143
 3381POPC   D2A46096   4.715   2.895   6.493
 3381POPC   C3A46097   4.621   2.891   6.948
 3381POPC   C4A46098   4.350   2.722   7.270
 3381POPC   C1B46099   4.202   2.809   6.292
 3381POPC   C2B46100   4.233   2.661   6.714
 3381POPC   C3B46101   3.920   2.762   7.021
 3381POPC   C4B46102   3.825   2.577   7.431
 3382POPC   NC346103  38.982  14.175   4.987
 3382POPC   PO446104  39.281  13.797   5.423
 3382POPC   GL146105  39.227  13.539   5.800
 3382POPC   GL246106  38.901  13.388   5.828
 3382POPC   C1A46107  39.389  13.377   6.230
 3382POPC   D2A46108  39.539  13.518   6.649
 3382POPC   C3A46109  39.214  13.523   6.979
 3382POPC   C4A46110  39.181  13.604   7.436
 3382POPC   C1B46111  38.991  13.700   6.211
 3382POPC   C2B46112  39.147  13.900   6.595
 3382POPC   C3B46113  38.969  13.952   7.009
 3382POPC   C4B46114  38.755  13.843   7.378
 3383POPC   NC346115   7.805  40.320   5.447
 3383POPC   PO446116   8.405  40.017   5.454
 3383POPC   GL146117   8.316  40.135   5.869
 3383POPC   GL246118   7.980  40.193   5.899
 3383POPC   C1A46119   8.469  40.171   6.277
 3383POPC   D2A46120   8.642  40.440   6.602
 3383POPC   C3A46121   8.550  40.226   6.974
 3383POPC   C4A46122   8.513  40.046   7.371
 3383POPC   C1B46123   7.935  40.316   6.291
 3383POPC   C2B46124   8.113  40.184   6.703
 3383POPC   C3B46125   8.057  40.017   7.151
 3383POPC   C4B46126   8.085  40.171   7.607
 3384POPC   NC346127   3.519  40.298   5.331
 3384POPC   PO446128   3.312  39.654   5.479
 3384POPC   GL146129   3.357  39.848   5.867
 3384POPC   GL246130   3.554  40.158   5.824
 3384POPC   C1A46131   3.228  39.838   6.308
 3384POPC   D2A46132   3.426  39.963   6.690
 3384POPC   C3A46133   3.263  40.227   7.035
 3384POPC   C4A46134   3.414  40.067   7.448
 3384POPC   C1B46135   3.602  40.229   6.257
 3384POPC   C2B46136   3.870  40.194   6.610
 3384POPC   C3B46137   3.773  40.105   7.050
 3384POPC   C4B46138   3.926  40.249   7.452
 3385POPC   NC346139  32.039  42.484   5.286
 3385POPC   PO446140  32.502  42.057   5.302
 3385POPC   GL146141  32.301  42.143   5.727
 3385POPC   GL246142  32.074  42.449   5.789
 3385POPC   C1A46143  32.244  42.146   6.181
 3385POPC   D2A46144  32.484  42.183   6.559
 3385POPC   C3A46145  32.312  42.230   6.963
 3385POPC   C4A46146  31.952  42.384   7.202
 3385POPC   C1B46147  32.438  42.618   5.971
 3385POPC   C2B46148  32.639  42.672   6.380
 3385POPC   C3B46149  32.575  42.682   6.838
 3385POPC   C4B46150  32.729  42.765   7.260
 3386POPC   NC346151  16.260  41.800   5.418
 3386POPC   PO446152  15.705  42.267   5.235
 3386POPC   GL146153  15.891  42.141   5.592
 3386POPC   GL246154  16.219  42.262   5.653
 3386POPC   C1A46155  15.857  42.185   6.028
 3386POPC   D2A46156  15.638  42.060   6.413
 3386POPC   C3A46157  15.780  42.164   6.828
 3386POPC   C4A46158  15.646  42.327   7.238
 3386POPC   C1B46159  16.363  42.195   6.091
 3386POPC   C2B46160  16.155  42.266   6.489
 3386POPC   C3B46161  16.331  42.278   6.926
 3386POPC   C4B46162  16.350  42.348   7.388
 3387POPC   NC346163   9.724   4.818   5.149
 3387POPC   PO446164  10.156   5.162   5.455
 3387POPC   GL146165   9.925   4.996   5.786
 3387POPC   GL246166   9.617   5.160   5.701
 3387POPC   C1A46167   9.702   5.051   6.214
 3387POPC   D2A46168   9.850   5.035   6.669
 3387POPC   C3A46169   9.553   4.945   7.010
 3387POPC   C4A46170   9.682   4.591   7.205
 3387POPC   C1B46171   9.846   5.469   5.990
 3387POPC   C2B46172  10.006   5.479   6.422
 3387POPC   C3B46173  10.112   5.505   6.853
 3387POPC   C4B46174   9.931   5.293   7.156
 3388POPC   NC346175  18.102  30.920   5.367
 3388POPC   PO446176  18.587  30.571   5.570
 3388POPC   GL146177  18.280  30.778   5.854
 3388POPC   GL246178  18.031  30.524   5.787
 3388POPC   C1A46179  18.043  30.776   6.286
 3388POPC   D2A46180  18.063  30.794   6.774
 3388POPC   C3A46181  18.467  30.833   6.990
 3388POPC   C4A46182  18.737  31.186   7.126
 3388POPC   C1B46183  18.268  30.325   6.144
 3388POPC   C2B46184  18.397  30.458   6.564
 3388POPC   C3B46185  18.276  30.346   6.986
 3388POPC   C4B46186  18.598  30.352   7.293
 3389POPC   NC346187  11.191  35.302   5.585
 3389POPC   PO446188  11.517  34.919   5.783
 3389POPC   GL146189  11.401  35.277   6.049
 3389POPC   GL246190  11.498  35.589   5.918
 3389POPC   C1A46191  11.147  35.530   6.336
 3389POPC   D2A46192  11.007  35.505   6.803
 3389POPC   C3A46193  11.319  35.251   7.040
 3389POPC   C4A46194  11.271  35.016   7.447
 3389POPC   C1B46195  11.661  35.596   6.355
 3389POPC   C2B46196  11.451  35.728   6.723
 3389POPC   C3B46197  11.351  35.749   7.141
 3389POPC   C4B46198  11.458  35.488   7.503
 3390POPC   NC346199  24.722  15.632   5.372
 3390POPC   PO446200  24.193  15.224   5.359
 3390POPC   GL146201  24.399  15.107   5.755
 3390POPC   GL246202  24.480  15.445   5.800
 3390POPC   C1A46203  24.534  15.132   6.213
 3390POPC   D2A46204  24.643  14.943   6.596
 3390POPC   C3A46205  24.622  15.163   6.943
 3390POPC   C4A46206  24.435  15.065   7.318
 3390POPC   C1B46207  24.530  15.640   6.187
 3390POPC   C2B46208  24.601  15.580   6.622
 3390POPC   C3B46209  24.937  15.590   6.924
 3390POPC   C4B46210  24.871  15.379   7.333
 3391POPC   NC346211  16.964   1.336   5.010
 3391POPC   PO446212  17.438   1.122   5.492
 3391POPC   GL146213  17.594   1.188   5.908
 3391POPC   GL246214  17.816   0.935   6.054
 3391POPC   C1A46215  17.477   1.190   6.346
 3391POPC   D2A46216  17.615   0.903   6.663
 3391POPC   C3A46217  17.348   0.919   7.047
 3391POPC   C4A46218  17.379   1.108   7.494
 3391POPC   C1B46219  17.992   1.256   6.329
 3391POPC   C2B46220  17.945   1.414   6.744
 3391POPC   C3B46221  17.740   1.239   7.094
 3391POPC   C4B46222  17.841   1.306   7.516
 3392POPC   NC346223  37.664  36.430   5.480
 3392POPC   PO446224  38.055  35.891   5.208
 3392POPC   GL146225  37.838  36.021   5.691
 3392POPC   GL246226  37.500  36.125   5.855
 3392POPC   C1A46227  37.908  36.227   6.125
 3392POPC   D2A46228  37.676  36.272   6.532
 3392POPC   C3A46229  37.903  36.188   6.897
 3392POPC   C4A46230  37.806  36.253   7.312
 3392POPC   C1B46231  37.479  35.888   6.241
 3392POPC   C2B46232  37.628  35.764   6.640
 3392POPC   C3B46233  37.408  35.970   6.976
 3392POPC   C4B46234  37.345  36.018   7.405
 3393POPC   NC346235  18.132  24.424   5.490
 3393POPC   PO446236  18.512  24.937   5.325
 3393POPC   GL146237  18.292  24.865   5.761
 3393POPC   GL246238  17.962  24.715   5.898
 3393POPC   C1A46239  18.367  24.802   6.231
 3393POPC   D2A46240  18.542  24.500   6.574
 3393POPC   C3A46241  18.335  24.560   6.984
 3393POPC   C4A46242  18.371  24.685   7.423
 3393POPC   C1B46243  18.099  24.378   6.162
 3393POPC   C2B46244  18.022  24.354   6.593
 3393POPC   C3B46245  17.988  24.096   6.932
 3393POPC   C4B46246  18.136  24.194   7.313
 3394POPC   NC346247  23.527   6.705   5.196
 3394POPC   PO446248  22.924   6.887   5.220
 3394POPC   GL146249  23.048   6.587   5.582
 3394POPC   GL246250  22.806   6.756   5.776
 3394POPC   C1A46251  23.090   6.398   6.055
 3394POPC   D2A46252  23.232   6.621   6.477
 3394POPC   C3A46253  23.094   6.525   6.931
 3394POPC   C4A46254  23.341   6.337   7.295
 3394POPC   C1B46255  22.662   6.668   6.193
 3394POPC   C2B46256  22.613   6.467   6.578
 3394POPC   C3B46257  22.414   6.421   6.954
 3394POPC   C4B46258  22.528   6.715   7.229
 3395POPC   NC346259  17.520  31.898   5.223
 3395POPC   PO446260  17.352  31.446   5.604
 3395POPC   GL146261  17.568  31.575   5.934
 3395POPC   GL246262  17.761  31.243   6.009
 3395POPC   C1A46263  17.413  31.804   6.297
 3395POPC   D2A46264  17.598  32.000   6.636
 3395POPC   C3A46265  17.392  31.961   7.017
 3395POPC   C4A46266  17.571  31.794   7.378
 3395POPC   C1B46267  17.358  31.239   6.236
 3395POPC   C2B46268  17.226  31.376   6.629
 3395POPC   C3B46269  17.455  31.457   6.986
 3395POPC   C4B46270  17.322  31.305   7.376
 3396POPC   NC346271  14.227   5.966   5.029
 3396POPC   PO446272  13.621   5.858   5.363
 3396POPC   GL146273  13.645   5.924   5.814
 3396POPC   GL246274  13.370   6.164   5.801
 3396POPC   C1A46275  13.568   5.704   6.209
 3396POPC   D2A46276  13.772   5.654   6.599
 3396POPC   C3A46277  13.677   5.772   7.007
 3396POPC   C4A46278  13.885   6.062   7.281
 3396POPC   C1B46279  13.282   6.113   6.214
 3396POPC   C2B46280  13.493   6.095   6.599
 3396POPC   C3B46281  13.284   6.083   6.998
 3396POPC   C4B46282  13.402   6.224   7.386
 3397POPC   NC346283   3.630  37.858   5.237
 3397POPC   PO446284   3.520  37.223   5.360
 3397POPC   GL146285   3.549  37.536   5.673
 3397POPC   GL246286   3.234  37.697   5.601
 3397POPC   C1A46287   3.641  37.667   6.116
 3397POPC   D2A46288   3.432  37.735   6.530
 3397POPC   C3A46289   3.576  37.814   6.964
 3397POPC   C4A46290   3.781  37.609   7.296
 3397POPC   C1B46291   3.117  37.593   6.071
 3397POPC   C2B46292   2.934  37.658   6.506
 3397POPC   C3B46293   3.077  37.649   6.934
 3397POPC   C4B46294   3.233  37.627   7.351
 3398POPC   NC346295  32.245   4.621   5.110
 3398POPC   PO446296  32.517   5.279   5.321
 3398POPC   GL146297  32.342   5.129   5.776
 3398POPC   GL246298  32.070   4.859   5.762
 3398POPC   C1A46299  32.358   4.905   6.195
 3398POPC   D2A46300  32.203   5.084   6.601
 3398POPC   C3A46301  32.358   4.834   6.926
 3398POPC   C4A46302  32.394   5.029   7.322
 3398POPC   C1B46303  31.872   5.007   6.182
 3398POPC   C2B46304  31.682   5.021   6.594
 3398POPC   C3B46305  31.846   4.944   6.985
 3398POPC   C4B46306  31.999   5.307   7.208
 3399POPC   NC346307  23.423   7.923   5.652
 3399POPC   PO446308  23.964   8.040   5.192
 3399POPC   GL146309  23.823   8.278   5.628
 3399POPC   GL246310  23.543   8.348   5.927
 3399POPC   C1A46311  24.031   8.342   6.045
 3399POPC   D2A46312  24.125   8.187   6.479
 3399POPC   C3A46313  23.923   8.284   6.873
 3399POPC   C4A46314  24.113   8.186   7.241
 3399POPC   C1B46315  23.359   8.053   6.279
 3399POPC   C2B46316  23.182   7.967   6.691
 3399POPC   C3B46317  23.373   7.934   7.098
 3399POPC   C4B46318  23.574   8.187   7.409
 3400POPC   NC346319   9.761   0.189   4.952
 3400POPC   PO446320   9.939   0.679   5.372
 3400POPC   GL146321   9.688   0.511   5.722
 3400POPC   GL246322   9.675   0.161   5.751
 3400POPC   C1A46323   9.709   0.563   6.171
 3400POPC   D2A46324   9.974   0.780   6.463
 3400POPC   C3A46325   9.865   0.695   6.883
 3400POPC   C4A46326   9.614   0.384   7.082
 3400POPC   C1B46327   9.944   0.117   6.143
 3400POPC   C2B46328  10.001   0.253   6.591
 3400POPC   C3B46329  10.051   0.033   6.993
 3400POPC   C4B46330   9.802   0.020   7.388
 3401POPC   NC346331  42.878  40.255   5.244
 3401POPC   PO446332  43.513  40.052   5.296
 3401POPC   GL146333  43.223  40.070   5.680
 3401POPC   GL246334  42.852  39.955   5.697
 3401POPC   C1A46335  43.143  39.920   6.106
 3401POPC   D2A46336  43.325  39.908   6.486
 3401POPC   C3A46337  43.053  40.000   6.820
 3401POPC   C4A46338  43.216  39.999   7.208
 3401POPC   C1B46339  42.675  39.708   6.075
 3401POPC   C2B46340  42.850  39.649   6.493
 3401POPC   C3B46341  42.649  39.673   6.912
 3401POPC   C4B46342  42.804  39.711   7.306
 3402POPC   NC346343  28.514   9.395   5.563
 3402POPC   PO446344  28.443   8.707   5.397
 3402POPC   GL146345  28.266   8.819   5.786
 3402POPC   GL246346  27.988   8.993   5.839
 3402POPC   C1A46347  28.111   8.727   6.240
 3402POPC   D2A46348  28.345   8.667   6.597
 3402POPC   C3A46349  28.190   8.752   6.998
 3402POPC   C4A46350  28.516   8.691   7.273
 3402POPC   C1B46351  28.364   9.141   6.136
 3402POPC   C2B46352  28.504   9.192   6.533
 3402POPC   C3B46353  28.608   9.061   6.914
 3402POPC   C4B46354  28.431   9.173   7.302
 3403POPC   NC346355  23.619   8.365   5.150
 3403POPC   PO446356  23.857   8.893   5.491
 3403POPC   GL146357  23.776   8.883   5.916
 3403POPC   GL246358  23.708   9.238   5.880
 3403POPC   C1A46359  24.002   8.784   6.311
 3403POPC   D2A46360  24.209   8.690   6.693
 3403POPC   C3A46361  23.918   8.800   6.978
 3403POPC   C4A46362  23.752   8.662   7.306
 3403POPC   C1B46363  23.765   9.231   6.320
 3403POPC   C2B46364  23.966   9.246   6.699
 3403POPC   C3B46365  23.747   9.261   7.101
 3403POPC   C4B46366  23.645   9.119   7.507
 3404POPC   NC346367  35.748  13.819   5.443
 3404POPC   PO446368  35.645  13.312   5.020
 3404POPC   GL146369  35.451  13.386   5.515
 3404POPC   GL246370  35.178  13.437   5.795
 3404POPC   C1A46371  35.656  13.500   5.989
 3404POPC   D2A46372  35.716  13.860   6.335
 3404POPC   C3A46373  35.807  13.793   6.803
 3404POPC   C4A46374  35.587  13.509   7.121
 3404POPC   C1B46375  35.247  13.637   6.250
 3404POPC   C2B46376  35.309  13.748   6.707
 3404POPC   C3B46377  35.076  13.651   7.088
 3404POPC   C4B46378  34.973  13.463   7.461
 3405POPC   NC346379  30.621   9.398   5.446
 3405POPC   PO446380  30.475  10.008   5.469
 3405POPC   GL146381  30.583   9.710   5.858
 3405POPC   GL246382  30.889   9.480   5.881
 3405POPC   C1A46383  30.542   9.503   6.296
 3405POPC   D2A46384  30.403   9.474   6.739
 3405POPC   C3A46385  30.563   9.691   7.134
 3405POPC   C4A46386  30.422   9.834   7.552
 3405POPC   C1B46387  30.961   9.780   6.248
 3405POPC   C2B46388  30.850   9.743   6.700
 3405POPC   C3B46389  31.088   9.704   7.104
 3405POPC   C4B46390  31.315   9.823   7.511
 3406POPC   NC346391  42.733   3.738   5.395
 3406POPC   PO446392  43.414   3.753   5.164
 3406POPC   GL146393  43.096   3.469   5.575
 3406POPC   GL246394  42.970   3.121   5.714
 3406POPC   C1A46395  42.988   3.518   6.053
 3406POPC   D2A46396  42.908   3.621   6.512
 3406POPC   C3A46397  43.113   3.880   6.823
 3406POPC   C4A46398  43.401   4.041   7.125
 3406POPC   C1B46399  43.233   3.087   6.139
 3406POPC   C2B46400  43.172   3.201   6.582
 3406POPC   C3B46401  43.046   3.337   7.016
 3406POPC   C4B46402  43.251   3.245   7.398
 3407POPC   NC346403  26.278  31.482   5.316
 3407POPC   PO446404  25.661  31.452   5.157
 3407POPC   GL146405  25.866  31.392   5.626
 3407POPC   GL246406  26.128  31.611   5.804
 3407POPC   C1A46407  25.770  31.267   6.066
 3407POPC   D2A46408  25.860  31.316   6.507
 3407POPC   C3A46409  25.577  31.369   6.871
 3407POPC   C4A46410  25.828  31.492   7.213
 3407POPC   C1B46411  26.399  31.692   6.198
 3407POPC   C2B46412  26.544  31.870   6.611
 3407POPC   C3B46413  26.434  31.842   7.072
 3407POPC   C4B46414  26.241  31.680   7.439
 3408POPC   NC346415  36.376  29.968   5.093
 3408POPC   PO446416  37.028  30.077   5.328
 3408POPC   GL146417  36.898  30.074   5.752
 3408POPC   GL246418  36.628  29.845   5.597
 3408POPC   C1A46419  36.982  30.081   6.217
 3408POPC   D2A46420  37.088  29.955   6.651
 3408POPC   C3A46421  36.910  30.122   7.053
 3408POPC   C4A46422  37.003  30.018   7.515
 3408POPC   C1B46423  36.594  29.731   6.015
 3408POPC   C2B46424  36.538  29.833   6.439
 3408POPC   C3B46425  36.650  29.716   6.848
 3408POPC   C4B46426  36.554  29.814   7.270
 3409POPC   NC346427  15.173   6.300   5.161
 3409POPC   PO446428  15.235   5.642   5.357
 3409POPC   GL146429  15.288   5.780   5.784
 3409POPC   GL246430  14.960   5.855   5.850
 3409POPC   C1A46431  15.506   5.668   6.166
 3409POPC   D2A46432  15.350   5.700   6.581
 3409POPC   C3A46433  15.543   5.768   6.952
 3409POPC   C4A46434  15.330   5.586   7.313
 3409POPC   C1B46435  14.974   5.800   6.253
 3409POPC   C2B46436  15.003   6.065   6.565
 3409POPC   C3B46437  15.070   5.953   6.958
 3409POPC   C4B46438  14.968   5.973   7.347
 3410POPC   NC346439  35.394  11.861   5.585
 3410POPC   PO446440  35.522  12.419   5.232
 3410POPC   GL146441  35.315  12.337   5.729
 3410POPC   GL246442  35.549  12.136   5.963
 3410POPC   C1A46443  35.200  12.298   6.252
 3410POPC   D2A46444  35.198  11.932   6.573
 3410POPC   C3A46445  35.070  11.970   7.035
 3410POPC   C4A46446  35.033  11.714   7.410
 3410POPC   C1B46447  35.711  11.837   6.207
 3410POPC   C2B46448  35.809  11.914   6.563
 3410POPC   C3B46449  35.592  11.840   6.890
 3410POPC   C4B46450  35.527  12.026   7.234
 3411POPC   NC346451  27.760   7.739   5.415
 3411POPC   PO446452  27.376   7.197   5.650
 3411POPC   GL146453  27.586   7.491   5.860
 3411POPC   GL246454  27.905   7.381   5.767
 3411POPC   C1A46455  27.600   7.364   6.279
 3411POPC   D2A46456  27.356   7.156   6.601
 3411POPC   C3A46457  27.423   7.371   6.991
 3411POPC   C4A46458  27.303   7.373   7.406
 3411POPC   C1B46459  28.034   7.614   6.130
 3411POPC   C2B46460  28.055   7.469   6.518
 3411POPC   C3B46461  27.913   7.507   6.898
 3411POPC   C4B46462  27.830   7.555   7.296
 3412POPC   NC346463  18.775  38.136   5.393
 3412POPC   PO446464  18.161  38.337   5.300
 3412POPC   GL146465  18.218  38.420   5.738
 3412POPC   GL246466  18.547  38.351   5.801
 3412POPC   C1A46467  18.133  38.402   6.198
 3412POPC   D2A46468  18.167  38.115   6.573
 3412POPC   C3A46469  18.037  38.318   6.947
 3412POPC   C4A46470  18.104  38.358   7.400
 3412POPC   C1B46471  18.582  38.666   6.104
 3412POPC   C2B46472  18.627  38.695   6.542
 3412POPC   C3B46473  18.574  38.374   6.858
 3412POPC   C4B46474  18.627  38.373   7.278
 3413POPC   NC346475  13.483  27.433   5.241
 3413POPC   PO446476  14.084  27.385   5.119
 3413POPC   GL146477  14.027  27.537   5.580
 3413POPC   GL246478  13.701  27.679   5.648
 3413POPC   C1A46479  13.998  27.589   6.077
 3413POPC   D2A46480  13.778  27.382   6.451
 3413POPC   C3A46481  13.959  27.328   6.883
 3413POPC   C4A46482  13.745  27.394   7.269
 3413POPC   C1B46483  13.498  27.754   6.076
 3413POPC   C2B46484  13.620  27.868   6.506
 3413POPC   C3B46485  13.510  27.631   6.870
 3413POPC   C4B46486  13.376  27.742   7.256
 3414POPC   NC346487  33.983  21.499   5.350
 3414POPC   PO446488  33.368  21.251   5.611
 3414POPC   GL146489  33.741  21.303   5.778
 3414POPC   GL246490  33.744  21.668   5.770
 3414POPC   C1A46491  33.798  21.302   6.224
 3414POPC   D2A46492  33.512  21.380   6.569
 3414POPC   C3A46493  33.679  21.232   6.978
 3414POPC   C4A46494  33.600  21.389   7.381
 3414POPC   C1B46495  33.805  21.804   6.196
 3414POPC   C2B46496  33.939  21.682   6.626
 3414POPC   C3B46497  33.828  21.759   7.076
 3414POPC   C4B46498  34.087  21.606   7.443
 3415POPC   NC346499  30.975   1.742   5.478
 3415POPC   PO446500  31.668   1.856   5.397
 3415POPC   GL146501  31.619   1.988   5.817
 3415POPC   GL246502  31.286   1.951   5.841
 3415POPC   C1A46503  31.549   2.169   6.218
 3415POPC   D2A46504  31.198   2.193   6.488
 3415POPC   C3A46505  31.323   1.990   6.883
 3415POPC   C4A46506  31.698   1.898   7.168
 3415POPC   C1B46507  31.240   1.736   6.236
 3415POPC   C2B46508  31.246   1.488   6.640
 3415POPC   C3B46509  31.397   1.478   7.070
 3415POPC   C4B46510  31.367   1.686   7.490
 3416POPC   NC346511  24.460  32.794   5.417
 3416POPC   PO446512  24.613  33.448   5.445
 3416POPC   GL146513  24.374  33.259   5.815
 3416POPC   GL246514  24.308  32.910   5.869
 3416POPC   C1A46515  24.275  33.248   6.248
 3416POPC   D2A46516  24.462  33.284   6.645
 3416POPC   C3A46517  24.236  33.191   7.033
 3416POPC   C4A46518  24.489  33.241   7.388
 3416POPC   C1B46519  24.238  32.703   6.221
 3416POPC   C2B46520  24.192  32.849   6.598
 3416POPC   C3B46521  24.243  32.679   6.945
 3416POPC   C4B46522  24.322  32.764   7.365
 3417POPC   NC346523  19.198  12.260   5.563
 3417POPC   PO446524  18.572  12.051   5.477
 3417POPC   GL146525  18.823  12.015   5.824
 3417POPC   GL246526  19.116  11.805   5.770
 3417POPC   C1A46527  18.999  12.148   6.211
 3417POPC   D2A46528  18.835  12.003   6.603
 3417POPC   C3A46529  19.003  12.239   6.945
 3417POPC   C4A46530  19.239  12.315   7.302
 3417POPC   C1B46531  18.938  11.627   6.125
 3417POPC   C2B46532  19.074  11.508   6.516
 3417POPC   C3B46533  19.122  11.714   6.906
 3417POPC   C4B46534  18.759  11.793   7.171
 3418POPC   NC346535  35.914  40.250   5.474
 3418POPC   PO446536  36.454  40.014   5.136
 3418POPC   GL146537  36.298  39.937   5.645
 3418POPC   GL246538  36.114  40.230   5.930
 3418POPC   C1A46539  36.087  39.750   6.038
 3418POPC   D2A46540  36.227  39.796   6.469
 3418POPC   C3A46541  36.111  40.019   6.874
 3418POPC   C4A46542  36.068  39.806   7.293
 3418POPC   C1B46543  36.454  40.165   6.185
 3418POPC   C2B46544  36.647  40.142   6.594
 3418POPC   C3B46545  36.567  40.340   6.993
 3418POPC   C4B46546  36.214  40.299   7.294
 3419POPC   NC346547  19.933  35.953   5.490
 3419POPC   PO446548  19.880  35.405   5.106
 3419POPC   GL146549  19.865  35.467   5.601
 3419POPC   GL246550  19.592  35.677   5.757
 3419POPC   C1A46551  19.977  35.513   6.074
 3419POPC   D2A46552  19.866  35.255   6.452
 3419POPC   C3A46553  19.891  35.372   6.903
 3419POPC   C4A46554  19.969  35.499   7.341
 3419POPC   C1B46555  19.567  35.791   6.208
 3419POPC   C2B46556  19.408  35.535   6.563
 3419POPC   C3B46557  19.432  35.148   6.736
 3419POPC   C4B46558  19.494  34.938   7.082
 3420POPC   NC346559  22.873   4.025   5.588
 3420POPC   PO446560  22.617   4.536   5.385
 3420POPC   GL146561  22.785   4.543   5.796
 3420POPC   GL246562  22.646   4.816   5.935
 3420POPC   C1A46563  22.830   4.292   6.188
 3420POPC   D2A46564  22.939   4.016   6.516
 3420POPC   C3A46565  22.960   4.229   6.908
 3420POPC   C4A46566  22.722   4.275   7.260
 3420POPC   C1B46567  22.590   4.723   6.352
 3420POPC   C2B46568  22.804   4.722   6.730
 3420POPC   C3B46569  22.539   4.703   7.094
 3420POPC   C4B46570  22.563   4.654   7.585
 3421POPC   NC346571  27.174  10.084   5.313
 3421POPC   PO446572  27.741   9.738   5.115
 3421POPC   GL146573  27.617   9.678   5.601
 3421POPC   GL246574  27.256   9.647   5.764
 3421POPC   C1A46575  27.699   9.807   6.080
 3421POPC   D2A46576  27.690   9.629   6.541
 3421POPC   C3A46577  27.798   9.833   6.974
 3421POPC   C4A46578  27.810   9.757   7.455
 3421POPC   C1B46579  27.302   9.470   6.210
 3421POPC   C2B46580  27.427   9.200   6.593
 3421POPC   C3B46581  27.531   9.391   6.981
 3421POPC   C4B46582  27.300   9.612   7.297
 3422POPC   NC346583  34.476  33.123   5.345
 3422POPC   PO446584  35.020  33.485   5.585
 3422POPC   GL146585  34.756  33.226   5.866
 3422POPC   GL246586  34.517  32.939   5.808
 3422POPC   C1A46587  34.820  33.290   6.329
 3422POPC   D2A46588  34.932  33.083   6.711
 3422POPC   C3A46589  34.838  33.255   7.104
 3422POPC   C4A46590  34.534  33.110   7.384
 3422POPC   C1B46591  34.670  32.800   6.205
 3422POPC   C2B46592  34.695  32.594   6.605
 3422POPC   C3B46593  34.692  32.753   7.020
 3422POPC   C4B46594  34.245  32.863   7.050
 3423POPC   NC346595  28.037   4.112   5.403
 3423POPC   PO446596  28.606   4.456   5.452
 3423POPC   GL146597  28.452   4.436   5.830
 3423POPC   GL246598  28.091   4.423   5.802
 3423POPC   C1A46599  28.587   4.313   6.255
 3423POPC   D2A46600  28.431   4.004   6.544
 3423POPC   C3A46601  28.566   4.011   6.939
 3423POPC   C4A46602  28.858   4.204   7.193
 3423POPC   C1B46603  28.081   4.246   6.207
 3423POPC   C2B46604  27.952   4.164   6.604
 3423POPC   C3B46605  28.020   4.071   7.034
 3423POPC   C4B46606  28.259   4.348   7.251
 3424POPC   NC346607  40.503  18.627   5.552
 3424POPC   PO446608  40.951  19.082   5.567
 3424POPC   GL146609  40.906  18.639   5.887
 3424POPC   GL246610  40.730  18.280   5.854
 3424POPC   C1A46611  40.992  18.291   6.266
 3424POPC   D2A46612  40.852  18.208   6.663
 3424POPC   C3A46613  41.170  18.229   6.966
 3424POPC   C4A46614  41.118  18.197   7.404
 3424POPC   C1B46615  40.486  18.115   6.240
 3424POPC   C2B46616  40.307  18.265   6.657
 3424POPC   C3B46617  40.428  18.308   7.103
 3424POPC   C4B46618  40.441  18.606   7.442
 3425POPC   NC346619  14.178  40.257   5.429
 3425POPC   PO446620  14.835  40.123   5.359
 3425POPC   GL146621  14.543  39.967   5.690
 3425POPC   GL246622  14.574  39.618   5.738
 3425POPC   C1A46623  14.352  40.043   6.132
 3425POPC   D2A46624  14.559  40.182   6.554
 3425POPC   C3A46625  14.315  40.195   6.951
 3425POPC   C4A46626  14.151  39.854   7.231
 3425POPC   C1B46627  14.779  39.768   6.136
 3425POPC   C2B46628  14.752  39.673   6.561
 3425POPC   C3B46629  14.527  39.659   6.921
 3425POPC   C4B46630  14.632  39.655   7.335
 3426POPC   NC346631  39.817  32.436   5.601
 3426POPC   PO446632  40.381  32.622   5.284
 3426POPC   GL146633  40.376  32.281   5.659
 3426POPC   GL246634  40.177  32.390   5.951
 3426POPC   C1A46635  40.345  31.950   6.057
 3426POPC   D2A46636  40.157  32.184   6.445
 3426POPC   C3A46637  40.121  32.033   6.863
 3426POPC   C4A46638  40.130  32.232   7.259
 3426POPC   C1B46639  39.920  32.598   6.235
 3426POPC   C2B46640  39.713  32.534   6.584
 3426POPC   C3B46641  39.834  32.581   6.975
 3426POPC   C4B46642  39.737  32.533   7.394
 3427POPC   NC346643  25.391  22.848   5.131
 3427POPC   PO446644  26.046  22.924   5.359
 3427POPC   GL146645  26.120  22.893   5.793
 3427POPC   GL246646  25.926  22.600   5.800
 3427POPC   C1A46647  26.230  23.053   6.241
 3427POPC   D2A46648  26.202  22.806   6.650
 3427POPC   C3A46649  26.106  23.014   7.043
 3427POPC   C4A46650  25.710  23.260   7.131
 3427POPC   C1B46651  25.927  22.659   6.224
 3427POPC   C2B46652  25.770  22.549   6.595
 3427POPC   C3B46653  26.000  22.488   7.005
 3427POPC   C4B46654  25.893  22.713   7.417
 3428POPC   NC346655   8.680  10.652   5.283
 3428POPC   PO446656   9.241  10.321   5.230
 3428POPC   GL146657   9.136  10.259   5.679
 3428POPC   GL246658   9.484  10.178   5.766
 3428POPC   C1A46659   8.874  10.428   6.052
 3428POPC   D2A46660   8.752  10.323   6.511
 3428POPC   C3A46661   8.866  10.593   6.932
 3428POPC   C4A46662   9.256  10.725   7.210
 3428POPC   C1B46663   9.323  10.207   6.204
 3428POPC   C2B46664   9.240  10.354   6.643
 3428POPC   C3B46665   9.177  10.228   7.103
 3428POPC   C4B46666   9.341  10.322   7.529
 3429POPC   NC346667   5.380  12.326   5.190
 3429POPC   PO446668   5.028  12.817   5.426
 3429POPC   GL146669   4.762  12.680   5.752
 3429POPC   GL246670   4.632  13.016   5.863
 3429POPC   C1A46671   4.879  12.691   6.207
 3429POPC   D2A46672   4.857  12.899   6.627
 3429POPC   C3A46673   5.004  12.708   7.028
 3429POPC   C4A46674   5.325  12.782   7.389
 3429POPC   C1B46675   4.492  13.114   6.298
 3429POPC   C2B46676   4.504  13.255   6.735
 3429POPC   C3B46677   4.759  13.166   7.094
 3429POPC   C4B46678   4.850  12.895   7.475
 3430POPC   NC346679  35.184  19.809   5.482
 3430POPC   PO446680  35.798  19.674   5.267
 3430POPC   GL146681  35.618  19.717   5.701
 3430POPC   GL246682  35.620  20.065   5.781
 3430POPC   C1A46683  35.424  19.675   6.133
 3430POPC   D2A46684  35.424  19.879   6.545
 3430POPC   C3A46685  35.445  19.554   6.884
 3430POPC   C4A46686  35.344  19.516   7.323
 3430POPC   C1B46687  35.265  20.173   6.093
 3430POPC   C2B46688  35.019  20.270   6.482
 3430POPC   C3B46689  35.108  20.098   6.885
 3430POPC   C4B46690  35.410  20.008   7.206
 3431POPC   NC346691  19.988  42.816   5.481
 3431POPC   PO446692  19.710  43.432   5.417
 3431POPC   GL146693  19.768  43.195   5.810
 3431POPC   GL246694  19.519  42.931   5.803
 3431POPC   C1A46695  20.012  43.126   6.223
 3431POPC   D2A46696  20.225  42.848   6.554
 3431POPC   C3A46697  20.150  43.009   6.980
 3431POPC   C4A46698  20.095  43.395   7.208
 3431POPC   C1B46699  19.587  42.799   6.230
 3431POPC   C2B46700  19.708  42.808   6.694
 3431POPC   C3B46701  19.656  42.936   7.155
 3431POPC   C4B46702  19.535  42.868   7.615
 3432POPC   NC346703  34.511   9.198   5.242
 3432POPC   PO446704  35.021   8.784   5.482
 3432POPC   GL146705  34.779   8.959   5.789
 3432POPC   GL246706  34.467   8.930   5.685
 3432POPC   C1A46707  34.757   9.191   6.167
 3432POPC   D2A46708  34.962   9.175   6.572
 3432POPC   C3A46709  34.739   9.262   6.979
 3432POPC   C4A46710  34.729   9.152   7.404
 3432POPC   C1B46711  34.381   8.837   6.121
 3432POPC   C2B46712  34.567   8.855   6.532
 3432POPC   C3B46713  34.676   8.717   6.939
 3432POPC   C4B46714  34.325   8.618   7.195
 3433POPC   NC346715  30.440   2.153   5.670
 3433POPC   PO446716  31.052   2.257   5.500
 3433POPC   GL146717  30.851   2.201   5.968
 3433POPC   GL246718  30.774   1.854   5.999
 3433POPC   C1A46719  30.455   2.165   6.308
 3433POPC   D2A46720  30.276   2.239   6.750
 3433POPC   C3A46721  30.599   1.986   7.015
 3433POPC   C4A46722  30.589   1.812   7.453
 3433POPC   C1B46723  30.790   1.818   6.479
 3433POPC   C2B46724  30.756   1.531   6.836
 3433POPC   C3B46725  30.919   1.473   7.254
 3433POPC   C4B46726  30.926   1.516   7.729
 3434POPC   NC346727   5.484  33.727   5.518
 3434POPC   PO446728   6.100  33.899   5.283
 3434POPC   GL146729   5.888  33.975   5.719
 3434POPC   GL246730   5.948  33.635   5.791
 3434POPC   C1A46731   5.774  33.928   6.196
 3434POPC   D2A46732   5.967  33.640   6.515
 3434POPC   C3A46733   6.100  33.675   6.969
 3434POPC   C4A46734   5.971  33.959   7.268
 3434POPC   C1B46735   5.719  33.422   6.095
 3434POPC   C2B46736   5.505  33.385   6.466
 3434POPC   C3B46737   5.685  33.344   6.866
 3434POPC   C4B46738   5.682  33.552   7.264
 3435POPC   NC346739   2.226  12.281   5.437
 3435POPC   PO446740   1.910  11.777   5.166
 3435POPC   GL146741   1.814  12.079   5.617
 3435POPC   GL246742   2.114  12.059   5.875
 3435POPC   C1A46743   1.717  12.279   6.063
 3435POPC   D2A46744   1.995  12.149   6.417
 3435POPC   C3A46745   1.907  12.288   6.823
 3435POPC   C4A46746   1.719  12.100   7.173
 3435POPC   C1B46747   2.422  11.895   6.183
 3435POPC   C2B46748   2.543  11.811   6.614
 3435POPC   C3B46749   2.268  11.963   6.937
 3435POPC   C4B46750   2.198  12.077   7.363
 3436POPC   NC346751  22.480  34.398   5.505
 3436POPC   PO446752  21.752  34.374   5.364
 3436POPC   GL146753  21.835  34.583   5.792
 3436POPC   GL246754  22.181  34.666   5.859
 3436POPC   C1A46755  21.843  34.852   6.204
 3436POPC   D2A46756  21.731  35.005   6.635
 3436POPC   C3A46757  21.853  34.661   6.920
 3436POPC   C4A46758  22.229  34.443   7.103
 3436POPC   C1B46759  22.363  34.701   6.282
 3436POPC   C2B46760  22.462  34.397   6.630
 3436POPC   C3B46761  22.725  34.382   6.988
 3436POPC   C4B46762  22.665  34.694   7.263
 3437POPC   NC346763  18.363  13.742   5.332
 3437POPC   PO446764  17.865  13.706   5.751
 3437POPC   GL146765  18.203  13.561   5.960
 3437POPC   GL246766  18.405  13.839   5.847
 3437POPC   C1A46767  18.183  13.501   6.417
 3437POPC   D2A46768  17.951  13.237   6.711
 3437POPC   C3A46769  17.890  13.404   7.138
 3437POPC   C4A46770  17.859  13.278   7.571
 3437POPC   C1B46771  18.577  13.818   6.273
 3437POPC   C2B46772  18.620  13.625   6.681
 3437POPC   C3B46773  18.369  13.575   7.038
 3437POPC   C4B46774  18.133  13.917   7.221
 3438POPC   NC346775   0.412  34.332   5.354
 3438POPC   PO446776   0.288  33.743   5.613
 3438POPC   GL146777   0.581  33.861   5.846
 3438POPC   GL246778   0.764  33.559   5.787
 3438POPC   C1A46779   0.607  34.018   6.298
 3438POPC   D2A46780   0.296  33.877   6.624
 3438POPC   C3A46781   0.466  33.909   7.032
 3438POPC   C4A46782   0.685  34.085   7.310
 3438POPC   C1B46783   0.547  33.514   6.221
 3438POPC   C2B46784   0.629  33.457   6.660
 3438POPC   C3B46785   0.320  33.446   6.973
 3438POPC   C4B46786   0.358  33.477   7.384
 3439POPC   NC346787  38.942  21.868   5.561
 3439POPC   PO446788  38.273  22.013   5.433
 3439POPC   GL146789  38.437  22.200   5.832
 3439POPC   GL246790  38.749  22.417   5.760
 3439POPC   C1A46791  38.283  22.171   6.296
 3439POPC   D2A46792  38.235  22.215   6.766
 3439POPC   C3A46793  38.414  21.902   7.034
 3439POPC   C4A46794  38.546  21.955   7.461
 3439POPC   C1B46795  38.775  22.317   6.217
 3439POPC   C2B46796  38.705  22.402   6.637
 3439POPC   C3B46797  38.758  22.271   7.055
 3439POPC   C4B46798  38.738  22.430   7.459
 3440POPC   NC346799  26.466  14.816   5.265
 3440POPC   PO446800  26.997  14.456   5.571
 3440POPC   GL146801  26.745  14.382   5.899
 3440POPC   GL246802  26.512  14.623   5.751
 3440POPC   C1A46803  26.839  14.389   6.383
 3440POPC   D2A46804  27.143  14.309   6.737
 3440POPC   C3A46805  26.900  14.336   7.097
 3440POPC   C4A46806  26.512  14.116   7.078
 3440POPC   C1B46807  26.695  14.828   6.111
 3440POPC   C2B46808  26.588  14.899   6.480
 3440POPC   C3B46809  26.828  14.759   6.808
 3440POPC   C4B46810  26.618  14.782   7.183
 3441POPC   NC346811  21.454  37.181   5.221
 3441POPC   PO446812  21.810  36.703   5.448
 3441POPC   GL146813  21.417  36.677   5.652
 3441POPC   GL246814  21.360  36.998   5.751
 3441POPC   C1A46815  21.236  36.574   6.064
 3441POPC   D2A46816  21.433  36.423   6.459
 3441POPC   C3A46817  21.552  36.731   6.774
 3441POPC   C4A46818  21.676  36.833   7.197
 3441POPC   C1B46819  21.042  37.148   6.033
 3441POPC   C2B46820  20.808  37.174   6.411
 3441POPC   C3B46821  20.884  37.131   6.851
 3441POPC   C4B46822  21.171  36.881   7.110
 3442POPC   NC346823  32.633  19.489   5.476
 3442POPC   PO446824  33.114  18.884   5.420
 3442POPC   GL146825  32.946  19.141   5.734
 3442POPC   GL246826  32.627  19.035   5.713
 3442POPC   C1A46827  33.037  19.139   6.178
 3442POPC   D2A46828  33.280  19.047   6.552
 3442POPC   C3A46829  33.116  19.148   6.964
 3442POPC   C4A46830  33.089  18.924   7.340
 3442POPC   C1B46831  32.547  19.293   6.093
 3442POPC   C2B46832  32.738  19.433   6.483
 3442POPC   C3B46833  32.646  19.337   6.892
 3442POPC   C4B46834  32.661  19.169   7.299
 3443POPC   NC346835  15.601   0.186   5.389
 3443POPC   PO446836  16.188   0.580   5.500
 3443POPC   GL146837  15.947   0.596   5.876
 3443POPC   GL246838  15.850   0.256   5.838
 3443POPC   C1A46839  15.742   0.785   6.263
 3443POPC   D2A46840  15.622   0.749   6.696
 3443POPC   C3A46841  15.981   0.618   6.934
 3443POPC   C4A46842  16.078   0.302   7.213
 3443POPC   C1B46843  15.570   0.289   6.192
 3443POPC   C2B46844  15.533   0.011   6.564
 3443POPC   C3B46845  15.652   0.174   6.957
 3443POPC   C4B46846  15.582   0.181   7.404
 3444POPC   NC346847   3.287  31.265   5.360
 3444POPC   PO446848   2.706  31.431   5.450
 3444POPC   GL146849   2.848  31.546   5.801
 3444POPC   GL246850   3.189  31.619   5.741
 3444POPC   C1A46851   2.703  31.737   6.167
 3444POPC   D2A46852   2.894  31.680   6.538
 3444POPC   C3A46853   2.628  31.680   6.863
 3444POPC   C4A46854   2.732  31.774   7.241
 3444POPC   C1B46855   3.165  31.397   6.170
 3444POPC   C2B46856   3.184  31.259   6.610
 3444POPC   C3B46857   3.025  31.370   7.016
 3444POPC   C4B46858   3.140  31.168   7.429
 3445POPC   NC346859  18.791  41.133   5.364
 3445POPC   PO446860  19.127  41.745   5.503
 3445POPC   GL146861  19.135  41.503   5.901
 3445POPC   GL246862  18.999  41.178   5.828
 3445POPC   C1A46863  19.098  41.558   6.363
 3445POPC   D2A46864  18.940  41.847   6.710
 3445POPC   C3A46865  18.998  41.742   7.152
 3445POPC   C4A46866  19.308  41.479   7.409
 3445POPC   C1B46867  18.859  40.957   6.211
 3445POPC   C2B46868  18.941  41.133   6.615
 3445POPC   C3B46869  19.052  41.264   7.016
 3445POPC   C4B46870  18.942  41.106   7.439
 3446POPC   NC346871   9.846  37.978   5.303
 3446POPC   PO446872   9.522  37.439   5.352
 3446POPC   GL146873   9.598  37.650   5.733
 3446POPC   GL246874   9.963  37.754   5.773
 3446POPC   C1A46875   9.611  37.539   6.168
 3446POPC   D2A46876   9.435  37.417   6.584
 3446POPC   C3A46877   9.516  37.624   6.947
 3446POPC   C4A46878   9.779  37.499   7.217
 3446POPC   C1B46879   9.945  37.963   6.180
 3446POPC   C2B46880  10.134  37.937   6.596
 3446POPC   C3B46881   9.959  37.956   7.027
 3446POPC   C4B46882   9.973  37.901   7.471
 3447POPC   NC346883  14.311  17.363   5.441
 3447POPC   PO446884  14.805  17.893   5.393
 3447POPC   GL146885  14.661  17.664   5.735
 3447POPC   GL246886  14.337  17.753   5.874
 3447POPC   C1A46887  14.725  17.444   6.135
 3447POPC   D2A46888  14.734  17.278   6.563
 3447POPC   C3A46889  14.546  17.445   6.943
 3447POPC   C4A46890  14.491  17.652   7.337
 3447POPC   C1B46891  14.177  17.922   6.294
 3447POPC   C2B46892  14.161  17.802   6.748
 3447POPC   C3B46893  14.018  17.446   7.005
 3447POPC   C4B46894  14.161  17.275   7.377
 3448POPC   NC346895  12.225  28.427   5.357
 3448POPC   PO446896  11.617  28.344   5.530
 3448POPC   GL146897  11.949  28.399   5.814
 3448POPC   GL246898  12.200  28.131   5.811
 3448POPC   C1A46899  11.930  28.359   6.268
 3448POPC   D2A46900  11.776  28.236   6.679
 3448POPC   C3A46901  11.958  28.438   7.077
 3448POPC   C4A46902  12.270  28.738   7.250
 3448POPC   C1B46903  12.420  28.195   6.241
 3448POPC   C2B46904  12.293  28.244   6.675
 3448POPC   C3B46905  12.453  28.294   7.091
 3448POPC   C4B46906  12.317  28.053   7.441
 3449POPC   NC346907   2.783  33.813   5.320
 3449POPC   PO446908   2.199  33.868   5.591
 3449POPC   GL146909   2.490  33.636   5.827
 3449POPC   GL246910   2.851  33.506   5.780
 3449POPC   C1A46911   2.541  33.684   6.244
 3449POPC   D2A46912   2.734  33.526   6.610
 3449POPC   C3A46913   2.554  33.738   6.959
 3449POPC   C4A46914   2.636  33.929   7.369
 3449POPC   C1B46915   3.042  33.563   6.193
 3449POPC   C2B46916   3.037  33.941   6.492
 3449POPC   C3B46917   3.026  33.978   6.963
 3449POPC   C4B46918   3.114  33.758   7.381
 3450POPC   NC346919   4.958  34.092   5.435
 3450POPC   PO446920   5.150  33.543   5.766
 3450POPC   GL146921   5.317  33.857   5.992
 3450POPC   GL246922   5.066  34.062   5.936
 3450POPC   C1A46923   5.170  33.880   6.416
 3450POPC   D2A46924   5.031  33.557   6.717
 3450POPC   C3A46925   5.203  33.702   7.098
 3450POPC   C4A46926   5.462  34.022   7.194
 3450POPC   C1B46927   4.747  34.147   6.190
 3450POPC   C2B46928   4.560  34.142   6.597
 3450POPC   C3B46929   4.848  34.035   6.916
 3450POPC   C4B46930   4.990  34.162   7.315
 3451POPC   NC346931   8.074  24.394   5.436
 3451POPC   PO446932   8.634  24.673   5.127
 3451POPC   GL146933   8.488  24.794   5.594
 3451POPC   GL246934   8.357  24.511   5.837
 3451POPC   C1A46935   8.436  24.943   6.073
 3451POPC   D2A46936   8.367  24.678   6.481
 3451POPC   C3A46937   8.058  24.581   6.824
 3451POPC   C4A46938   8.128  24.694   7.229
 3451POPC   C1B46939   8.403  24.222   6.211
 3451POPC   C2B46940   8.320  24.167   6.655
 3451POPC   C3B46941   8.404  24.261   7.103
 3451POPC   C4B46942   8.158  24.271   7.527
 3452POPC   NC346943  36.114   6.276   5.451
 3452POPC   PO446944  36.277   6.843   5.068
 3452POPC   GL146945  36.228   6.779   5.594
 3452POPC   GL246946  36.355   6.547   5.884
 3452POPC   C1A46947  36.141   6.946   6.079
 3452POPC   D2A46948  36.236   7.058   6.551
 3452POPC   C3A46949  36.239   6.765   6.933
 3452POPC   C4A46950  35.876   6.586   7.169
 3452POPC   C1B46951  36.356   6.554   6.382
 3452POPC   C2B46952  36.245   6.284   6.770
 3452POPC   C3B46953  36.226   6.233   7.232
 3452POPC   C4B46954  36.230   6.487   7.623
 3453POPC   NC346955  18.800  30.979   5.467
 3453POPC   PO446956  19.121  30.342   5.418
 3453POPC   GL146957  19.044  30.589   5.791
 3453POPC   GL246958  19.236  30.878   5.710
 3453POPC   C1A46959  18.827  30.530   6.219
 3453POPC   D2A46960  18.932  30.376   6.655
 3453POPC   C3A46961  18.945  30.652   7.036
 3453POPC   C4A46962  19.035  30.565   7.459
 3453POPC   C1B46963  19.071  30.982   6.126
 3453POPC   C2B46964  18.951  30.920   6.581
 3453POPC   C3B46965  19.213  31.089   6.934
 3453POPC   C4B46966  19.182  31.035   7.378
 3454POPC   NC346967  40.278  24.508   5.694
 3454POPC   PO446968  40.814  24.668   5.233
 3454POPC   GL146969  40.811  24.475   5.729
 3454POPC   GL246970  40.850  24.097   5.793
 3454POPC   C1A46971  41.054  24.416   6.166
 3454POPC   D2A46972  41.261  24.349   6.605
 3454POPC   C3A46973  41.113  24.635   6.948
 3454POPC   C4A46974  40.689  24.721   7.177
 3454POPC   C1B46975  40.580  24.216   6.174
 3454POPC   C2B46976  40.467  24.115   6.602
 3454POPC   C3B46977  40.722  24.274   6.938
 3454POPC   C4B46978  40.648  24.218   7.376
 3455POPC   NC346979  21.882   9.395   5.403
 3455POPC   PO446980  22.419   9.661   5.070
 3455POPC   GL146981  22.323   9.730   5.556
 3455POPC   GL246982  21.990   9.709   5.813
 3455POPC   C1A46983  22.412   9.860   6.019
 3455POPC   D2A46984  22.104   9.826   6.387
 3455POPC   C3A46985  22.225   9.817   6.827
 3455POPC   C4A46986  22.555   9.712   7.148
 3455POPC   C1B46987  21.737  10.019   6.096
 3455POPC   C2B46988  21.777  10.215   6.547
 3455POPC   C3B46989  21.784  10.051   7.005
 3455POPC   C4B46990  21.965   9.702   7.276
 3456POPC   NC346991  15.036  14.951   5.233
 3456POPC   PO446992  14.942  15.532   5.127
 3456POPC   GL146993  15.204  15.360   5.575
 3456POPC   GL246994  15.145  15.039   5.746
 3456POPC   C1A46995  15.128  15.441   6.090
 3456POPC   D2A46996  14.911  15.561   6.540
 3456POPC   C3A46997  15.092  15.488   6.983
 3456POPC   C4A46998  15.429  15.368   7.299
 3456POPC   C1B46999  15.119  14.933   6.206
 3456POPC   C2B47000  15.192  15.115   6.621
 3456POPC   C3B47001  15.191  14.981   7.053
 3456POPC   C4B47002  14.882  14.823   7.328
 3457POPC   NC347003  22.134  10.007   5.136
 3457POPC   PO447004  22.070  10.579   5.373
 3457POPC   GL147005  22.166  10.231   5.675
 3457POPC   GL247006  22.536  10.201   5.631
 3457POPC   C1A47007  22.160  10.303   6.152
 3457POPC   D2A47008  22.260  10.548   6.543
 3457POPC   C3A47009  22.078  10.476   6.943
 3457POPC   C4A47010  22.141  10.625   7.353
 3457POPC   C1B47011  22.685  10.306   6.069
 3457POPC   C2B47012  22.548  10.109   6.458
 3457POPC   C3B47013  22.527  10.223   6.878
 3457POPC   C4B47014  22.267  10.118   7.253
 3458POPC   NC347015   7.993   9.132   5.513
 3458POPC   PO447016   7.385   8.813   5.316
 3458POPC   GL147017   7.580   8.935   5.725
 3458POPC   GL247018   7.812   8.670   5.816
 3458POPC   C1A47019   7.368   9.020   6.126
 3458POPC   D2A47020   7.026   8.954   6.446
 3458POPC   C3A47021   7.186   9.129   6.828
 3458POPC   C4A47022   7.062   9.196   7.235
 3458POPC   C1B47023   7.674   8.584   6.211
 3458POPC   C2B47024   7.446   8.693   6.587
 3458POPC   C3B47025   7.456   8.695   7.033
 3458POPC   C4B47026   7.679   8.623   7.413
 3459POPC   NC347027  23.410  14.564   5.210
 3459POPC   PO447028  24.054  14.362   5.309
 3459POPC   GL147029  23.799  14.204   5.716
 3459POPC   GL247030  23.655  14.512   5.769
 3459POPC   C1A47031  23.602  14.218   6.190
 3459POPC   D2A47032  23.785  14.418   6.596
 3459POPC   C3A47033  23.895  14.322   7.034
 3459POPC   C4A47034  24.046  13.945   7.219
 3459POPC   C1B47035  23.808  14.690   6.164
 3459POPC   C2B47036  23.764  14.950   6.578
 3459POPC   C3B47037  23.691  14.791   7.004
 3459POPC   C4B47038  23.548  14.540   7.366
 3460POPC   NC347039  29.488  23.932   5.496
 3460POPC   PO447040  29.141  23.495   5.284
 3460POPC   GL147041  29.089  23.675   5.701
 3460POPC   GL247042  28.742  23.758   5.723
 3460POPC   C1A47043  29.289  23.773   6.134
 3460POPC   D2A47044  29.144  23.906   6.565
 3460POPC   C3A47045  29.361  23.823   6.969
 3460POPC   C4A47046  29.356  23.430   7.257
 3460POPC   C1B47047  28.841  23.548   6.133
 3460POPC   C2B47048  28.982  23.413   6.544
 3460POPC   C3B47049  28.905  23.590   6.954
 3460POPC   C4B47050  28.989  23.842   7.330
 3461POPC   NC347051  36.365  23.138   5.426
 3461POPC   PO447052  35.924  22.628   5.482
 3461POPC   GL147053  36.176  22.763   5.790
 3461POPC   GL247054  35.990  23.058   5.816
 3461POPC   C1A47055  36.385  22.684   6.189
 3461POPC   D2A47056  36.400  22.773   6.635
 3461POPC   C3A47057  36.040  22.666   6.881
 3461POPC   C4A47058  35.914  22.571   7.299
 3461POPC   C1B47059  36.281  23.182   6.112
 3461POPC   C2B47060  36.337  23.277   6.534
 3461POPC   C3B47061  36.371  23.172   6.946
 3461POPC   C4B47062  36.026  23.100   7.205
 3462POPC   NC347063  10.945   6.237   5.597
 3462POPC   PO447064  11.316   6.773   5.259
 3462POPC   GL147065  11.478   6.862   5.679
 3462POPC   GL247066  11.152   6.858   5.818
 3462POPC   C1A47067  11.577   6.731   6.123
 3462POPC   D2A47068  11.422   6.887   6.537
 3462POPC   C3A47069  11.644   7.018   6.917
 3462POPC   C4A47070  11.623   6.768   7.309
 3462POPC   C1B47071  11.055   6.677   6.190
 3462POPC   C2B47072  10.999   6.517   6.592
 3462POPC   C3B47073  11.183   6.694   6.957
 3462POPC   C4B47074  11.173   6.506   7.329
 3463POPC   NC347075  42.450   5.758   5.152
 3463POPC   PO447076  41.942   6.194   5.379
 3463POPC   GL147077  42.211   5.955   5.689
 3463POPC   GL247078  42.543   5.835   5.683
 3463POPC   C1A47079  42.209   5.865   6.157
 3463POPC   D2A47080  42.407   5.852   6.594
 3463POPC   C3A47081  42.279   5.660   7.020
 3463POPC   C4A47082  42.089   5.883   7.373
 3463POPC   C1B47083  42.732   5.935   6.120
 3463POPC   C2B47084  42.920   5.862   6.550
 3463POPC   C3B47085  42.761   5.806   6.977
 3463POPC   C4B47086  42.598   5.834   7.398
 3464POPC   NC347087  25.368  34.418   5.110
 3464POPC   PO447088  25.028  34.834   5.562
 3464POPC   GL147089  25.294  34.686   5.818
 3464POPC   GL247090  25.262  34.347   5.737
 3464POPC   C1A47091  25.272  34.636   6.247
 3464POPC   D2A47092  25.494  34.671   6.599
 3464POPC   C3A47093  25.385  34.457   6.968
 3464POPC   C4A47094  25.392  34.690   7.348
 3464POPC   C1B47095  25.090  34.181   6.162
 3464POPC   C2B47096  25.007  34.251   6.627
 3464POPC   C3B47097  24.929  34.165   7.093
 3464POPC   C4B47098  25.095  34.324   7.489
 3465POPC   NC347099  35.609  14.635   5.397
 3465POPC   PO447100  35.357  14.022   5.556
 3465POPC   GL147101  35.361  14.385   5.812
 3465POPC   GL247102  35.684  14.507   5.888
 3465POPC   C1A47103  35.398  14.265   6.249
 3465POPC   D2A47104  35.310  14.397   6.644
 3465POPC   C3A47105  35.126  14.162   6.962
 3465POPC   C4A47106  35.389  13.999   7.239
 3465POPC   C1B47107  35.751  14.745   6.284
 3465POPC   C2B47108  35.667  14.761   6.727
 3465POPC   C3B47109  35.489  14.542   7.111
 3465POPC   C4B47110  35.701  14.743   7.441
 3466POPC   NC347111   3.992  37.180   5.482
 3466POPC   PO447112   4.453  36.768   5.180
 3466POPC   GL147113   4.478  36.855   5.656
 3466POPC   GL247114   4.174  36.945   5.894
 3466POPC   C1A47115   4.600  36.782   6.093
 3466POPC   D2A47116   4.294  36.901   6.421
 3466POPC   C3A47117   4.383  36.755   6.825
 3466POPC   C4A47118   4.425  36.930   7.232
 3466POPC   C1B47119   3.952  37.237   6.190
 3466POPC   C2B47120   3.813  37.164   6.626
 3466POPC   C3B47121   3.919  37.105   7.113
 3466POPC   C4B47122   3.999  37.278   7.601
 3467POPC   NC347123  37.839  24.142   5.362
 3467POPC   PO447124  37.463  23.582   5.364
 3467POPC   GL147125  37.787  23.681   5.638
 3467POPC   GL247126  37.614  23.951   5.770
 3467POPC   C1A47127  37.970  23.706   6.071
 3467POPC   D2A47128  37.723  23.776   6.436
 3467POPC   C3A47129  37.878  23.664   6.826
 3467POPC   C4A47130  37.685  23.659   7.193
 3467POPC   C1B47131  37.357  24.098   6.089
 3467POPC   C2B47132  37.428  24.211   6.502
 3467POPC   C3B47133  37.456  23.994   6.867
 3467POPC   C4B47134  37.457  24.105   7.293
 3468POPC   NC347135  12.871   3.148   5.390
 3468POPC   PO447136  12.792   2.570   5.196
 3468POPC   GL147137  12.913   2.702   5.657
 3468POPC   GL247138  13.115   2.498   5.862
 3468POPC   C1A47139  12.866   2.882   6.101
 3468POPC   D2A47140  12.679   2.721   6.489
 3468POPC   C3A47141  12.871   2.791   6.896
 3468POPC   C4A47142  12.673   2.684   7.288
 3468POPC   C1B47143  13.212   2.563   6.292
 3468POPC   C2B47144  13.168   2.338   6.665
 3468POPC   C3B47145  13.259   2.480   7.067
 3468POPC   C4B47146  13.188   2.714   7.433
 3469POPC   NC347147  22.693  10.689   5.504
 3469POPC   PO447148  23.023  10.157   5.443
 3469POPC   GL147149  23.152  10.383   5.811
 3469POPC   GL247150  23.129  10.737   5.765
 3469POPC   C1A47151  23.215  10.428   6.243
 3469POPC   D2A47152  23.001  10.288   6.576
 3469POPC   C3A47153  22.977  10.484   6.943
 3469POPC   C4A47154  23.136  10.579   7.323
 3469POPC   C1B47155  22.892  10.817   6.157
 3469POPC   C2B47156  22.732  10.778   6.588
 3469POPC   C3B47157  22.529  10.737   6.991
 3469POPC   C4B47158  22.648  10.684   7.405
 3470POPC   NC347159  25.016  30.373   5.697
 3470POPC   PO447160  25.216  30.925   5.294
 3470POPC   GL147161  25.275  30.914   5.735
 3470POPC   GL247162  24.955  30.842   5.889
 3470POPC   C1A47163  25.252  31.139   6.155
 3470POPC   D2A47164  25.420  31.044   6.528
 3470POPC   C3A47165  25.319  30.777   6.867
 3470POPC   C4A47166  25.561  30.652   7.222
 3470POPC   C1B47167  25.247  30.641   6.235
 3470POPC   C2B47168  25.489  30.373   6.511
 3470POPC   C3B47169  25.399  30.275   6.920
 3470POPC   C4B47170  25.029  30.304   7.089
 3471POPC   NC347171  35.214  43.321   5.118
 3471POPC   PO447172  35.080  42.695   5.443
 3471POPC   GL147173  35.429  42.909   5.655
 3471POPC   GL247174  35.359  43.275   5.705
 3471POPC   C1A47175  35.487  42.956   6.110
 3471POPC   D2A47176  35.243  43.002   6.499
 3471POPC   C3A47177  35.497  42.984   6.882
 3471POPC   C4A47178  35.640  42.847   7.282
 3471POPC   C1B47179  35.086  43.313   6.095
 3471POPC   C2B47180  35.123  43.506   6.485
 3471POPC   C3B47181  35.067  43.323   6.865
 3471POPC   C4B47182  35.232  43.136   7.298
 3472POPC   NC347183  20.157  28.151   5.444
 3472POPC   PO447184  19.732  28.639   5.299
 3472POPC   GL147185  19.770  28.450   5.690
 3472POPC   GL247186  19.828  28.769   5.844
 3472POPC   C1A47187  19.605  28.413   6.123
 3472POPC   D2A47188  19.697  28.658   6.487
 3472POPC   C3A47189  19.537  28.497   6.898
 3472POPC   C4A47190  19.508  28.328   7.328
 3472POPC   C1B47191  20.141  28.832   6.171
 3472POPC   C2B47192  20.209  28.762   6.606
 3472POPC   C3B47193  20.109  28.534   6.988
 3472POPC   C4B47194  20.227  28.578   7.418
 3473POPC   NC347195  22.562  11.638   5.639
 3473POPC   PO447196  22.062  11.427   5.174
 3473POPC   GL147197  22.045  11.403   5.673
 3473POPC   GL247198  22.153  11.682   5.912
 3473POPC   C1A47199  21.927  11.269   6.139
 3473POPC   D2A47200  21.786  11.212   6.607
 3473POPC   C3A47201  22.110  11.033   6.922
 3473POPC   C4A47202  22.335  11.102   7.341
 3473POPC   C1B47203  22.353  11.525   6.273
 3473POPC   C2B47204  22.206  11.517   6.697
 3473POPC   C3B47205  22.244  11.551   7.129
 3473POPC   C4B47206  22.480  11.600   7.525
 3474POPC   NC347207   5.621   8.831   5.420
 3474POPC   PO447208   5.015   9.153   5.351
 3474POPC   GL147209   4.957   9.093   5.800
 3474POPC   GL247210   4.776   9.338   6.030
 3474POPC   C1A47211   5.201   9.023   6.196
 3474POPC   D2A47212   5.030   9.011   6.635
 3474POPC   C3A47213   5.261   8.821   6.974
 3474POPC   C4A47214   5.374   9.119   7.299
 3474POPC   C1B47215   4.713   8.887   6.198
 3474POPC   C2B47216   4.609   8.690   6.583
 3474POPC   C3B47217   4.674   8.730   6.988
 3474POPC   C4B47218   4.891   8.974   7.288
 3475POPC   NC347219  28.773  36.116   5.073
 3475POPC   PO447220  28.322  35.669   5.352
 3475POPC   GL147221  28.145  35.674   5.818
 3475POPC   GL247222  27.787  35.747   5.857
 3475POPC   C1A47223  28.162  35.685   6.312
 3475POPC   D2A47224  28.385  35.730   6.771
 3475POPC   C3A47225  28.444  36.144   7.027
 3475POPC   C4A47226  28.258  36.335   7.455
 3475POPC   C1B47227  27.807  36.047   6.235
 3475POPC   C2B47228  28.014  36.071   6.677
 3475POPC   C3B47229  27.975  35.997   7.131
 3475POPC   C4B47230  27.727  36.191   7.479
 3476POPC   NC347231  14.740  28.468   5.521
 3476POPC   PO447232  15.423  28.367   5.532
 3476POPC   GL147233  15.158  28.185   5.828
 3476POPC   GL247234  15.410  27.952   5.868
 3476POPC   C1A47235  15.096  28.389   6.235
 3476POPC   D2A47236  14.937  28.585   6.587
 3476POPC   C3A47237  14.963  28.383   6.944
 3476POPC   C4A47238  14.954  28.374   7.354
 3476POPC   C1B47239  15.528  28.123   6.277
 3476POPC   C2B47240  15.337  28.159   6.688
 3476POPC   C3B47241  15.468  28.243   7.125
 3476POPC   C4B47242  15.429  28.231   7.571
 3477POPC   NC347243  41.868  10.883   5.461
 3477POPC   PO447244  41.336  11.449   5.327
 3477POPC   GL147245  41.584  11.413   5.752
 3477POPC   GL247246  41.762  11.127   5.915
 3477POPC   C1A47247  41.470  11.459   6.192
 3477POPC   D2A47248  41.366  11.236   6.570
 3477POPC   C3A47249  41.602  11.195   6.928
 3477POPC   C4A47250  41.573  11.305   7.344
 3477POPC   C1B47251  41.974  11.293   6.305
 3477POPC   C2B47252  42.086  11.120   6.739
 3477POPC   C3B47253  42.015  11.102   7.227
 3477POPC   C4B47254  41.916  11.203   7.717
 3478POPC   NC347255  43.252  42.949   5.371
 3478POPC   PO447256  42.603  43.232   5.322
 3478POPC   GL147257  42.827  43.008   5.661
 3478POPC   GL247258  43.143  43.126   5.833
 3478POPC   C1A47259  42.777  42.828   6.064
 3478POPC   D2A47260  42.952  43.050   6.415
 3478POPC   C3A47261  42.953  42.824   6.792
 3478POPC   C4A47262  42.842  43.053   7.180
 3478POPC   C1B47263  43.398  43.171   6.192
 3478POPC   C2B47264  43.454  43.022   6.610
 3478POPC   C3B47265  43.312  43.126   6.977
 3478POPC   C4B47266  43.319  43.324   7.326
 3479POPC   NC347267   9.702  41.480   5.096
 3479POPC   PO447268   9.922  41.209   5.622
 3479POPC   GL147269   9.703  41.293   5.950
 3479POPC   GL247270   9.803  41.638   5.898
 3479POPC   C1A47271   9.912  41.402   6.322
 3479POPC   D2A47272  10.172  41.610   6.561
 3479POPC   C3A47273   9.948  41.464   6.919
 3479POPC   C4A47274   9.857  41.623   7.296
 3479POPC   C1B47275   9.499  41.668   6.233
 3479POPC   C2B47276   9.483  41.457   6.627
 3479POPC   C3B47277   9.427  41.648   7.019
 3479POPC   C4B47278   9.380  42.026   7.225
 3480POPC   NC347279   4.813  20.804   5.593
 3480POPC   PO447280   4.141  20.861   5.393
 3480POPC   GL147281   4.325  20.662   5.744
 3480POPC   GL247282   4.234  20.329   5.817
 3480POPC   C1A47283   4.392  20.626   6.193
 3480POPC   D2A47284   4.544  20.581   6.586
 3480POPC   C3A47285   4.289  20.802   6.811
 3480POPC   C4A47286   4.225  20.828   7.187
 3480POPC   C1B47287   4.160  20.112   6.211
 3480POPC   C2B47288   4.278  20.062   6.672
 3480POPC   C3B47289   4.370  20.359   7.037
 3480POPC   C4B47290   4.199  20.412   7.491
 3481POPC   NC347291  24.175  24.472   5.471
 3481POPC   PO447292  24.772  24.248   5.146
 3481POPC   GL147293  24.663  24.341   5.589
 3481POPC   GL247294  24.768  24.644   5.790
 3481POPC   C1A47295  24.529  24.222   6.024
 3481POPC   D2A47296  24.405  24.504   6.376
 3481POPC   C3A47297  24.296  24.377   6.799
 3481POPC   C4A47298  24.467  24.269   7.195
 3481POPC   C1B47299  24.922  24.490   6.224
 3481POPC   C2B47300  24.844  24.370   6.638
 3481POPC   C3B47301  24.700  24.693   6.864
 3481POPC   C4B47302  24.588  24.798   7.248
 3482POPC   NC347303  15.941  19.426   5.352
 3482POPC   PO447304  15.761  20.119   5.451
 3482POPC   GL147305  15.903  19.847   5.828
 3482POPC   GL247306  16.143  19.586   5.792
 3482POPC   C1A47307  16.057  19.915   6.215
 3482POPC   D2A47308  15.877  20.049   6.575
 3482POPC   C3A47309  16.036  19.889   6.925
 3482POPC   C4A47310  15.925  20.098   7.262
 3482POPC   C1B47311  16.221  19.422   6.212
 3482POPC   C2B47312  16.163  19.441   6.657
 3482POPC   C3B47313  16.315  19.501   7.097
 3482POPC   C4B47314  16.339  19.801   7.409
 3483POPC   NC347315  40.752  31.064   5.424
 3483POPC   PO447316  40.365  30.596   5.382
 3483POPC   GL147317  40.612  30.686   5.752
 3483POPC   GL247318  40.960  30.721   5.835
 3483POPC   C1A47319  40.543  30.911   6.129
 3483POPC   D2A47320  40.744  30.803   6.508
 3483POPC   C3A47321  40.662  30.755   6.945
 3483POPC   C4A47322  40.687  30.557   7.373
 3483POPC   C1B47323  41.169  30.850   6.238
 3483POPC   C2B47324  41.196  30.846   6.745
 3483POPC   C3B47325  41.144  30.577   7.142
 3483POPC   C4B47326  41.079  30.260   7.487
 3484POPC   NC347327  14.908   9.141   5.513
 3484POPC   PO447328  15.657   9.266   5.401
 3484POPC   GL147329  15.527   9.018   5.811
 3484POPC   GL247330  15.170   8.903   5.866
 3484POPC   C1A47331  15.418   8.991   6.290
 3484POPC   D2A47332  15.310   8.736   6.670
 3484POPC   C3A47333  15.131   8.900   7.053
 3484POPC   C4A47334  15.255   9.293   7.285
 3484POPC   C1B47335  14.839   8.736   6.166
 3484POPC   C2B47336  14.804   8.673   6.624
 3484POPC   C3B47337  14.715   8.584   7.067
 3484POPC   C4B47338  14.753   8.663   7.526
 3485POPC   NC347339  17.406  23.813   5.424
 3485POPC   PO447340  17.190  23.414   5.826
 3485POPC   GL147341  17.481  23.741   5.925
 3485POPC   GL247342  17.809  23.567   5.908
 3485POPC   C1A47343  17.400  23.965   6.304
 3485POPC   D2A47344  17.142  23.966   6.700
 3485POPC   C3A47345  17.331  23.883   7.107
 3485POPC   C4A47346  17.612  24.171   7.333
 3485POPC   C1B47347  17.611  23.469   6.347
 3485POPC   C2B47348  17.646  23.427   6.802
 3485POPC   C3B47349  17.804  23.678   7.159
 3485POPC   C4B47350  17.721  23.740   7.585
 3486POPC   NC347351  16.861  12.533   5.318
 3486POPC   PO447352  16.676  13.166   5.329
 3486POPC   GL147353  16.607  12.910   5.728
 3486POPC   GL247354  16.945  12.795   5.761
 3486POPC   C1A47355  16.449  12.860   6.204
 3486POPC   D2A47356  16.753  12.794   6.567
 3486POPC   C3A47357  16.647  12.774   6.977
 3486POPC   C4A47358  16.356  12.581   7.191
 3486POPC   C1B47359  16.962  13.025   6.144
 3486POPC   C2B47360  17.181  13.087   6.523
 3486POPC   C3B47361  16.957  13.176   6.890
 3486POPC   C4B47362  17.026  13.029   7.286
 3487POPC   NC347363  23.883  30.705   5.471
 3487POPC   PO447364  23.536  30.299   5.096
 3487POPC   GL147365  23.676  30.261   5.619
 3487POPC   GL247366  23.533  30.556   5.818
 3487POPC   C1A47367  23.888  30.366   6.106
 3487POPC   D2A47368  23.686  30.546   6.539
 3487POPC   C3A47369  23.713  30.343   7.000
 3487POPC   C4A47370  24.065  30.374   7.365
 3487POPC   C1B47371  23.363  30.814   6.153
 3487POPC   C2B47372  23.233  30.933   6.568
 3487POPC   C3B47373  23.414  30.786   6.918
 3487POPC   C4B47374  23.767  30.821   7.167
 3488POPC   NC347375  37.041  28.439   5.356
 3488POPC   PO447376  36.547  28.900   5.243
 3488POPC   GL147377  36.740  28.732   5.712
 3488POPC   GL247378  36.826  28.384   5.805
 3488POPC   C1A47379  36.925  28.712   6.180
 3488POPC   D2A47380  37.174  28.414   6.483
 3488POPC   C3A47381  37.110  28.496   6.928
 3488POPC   C4A47382  36.760  28.680   7.191
 3488POPC   C1B47383  36.768  28.236   6.210
 3488POPC   C2B47384  36.686  28.404   6.609
 3488POPC   C3B47385  36.646  28.230   6.982
 3488POPC   C4B47386  36.929  28.197   7.299
 3489POPC   NC347387   6.523  33.640   5.258
 3489POPC   PO447388   7.053  34.016   5.562
 3489POPC   GL147389   6.755  33.773   5.810
 3489POPC   GL247390   6.402  33.914   5.785
 3489POPC   C1A47391   6.583  33.725   6.236
 3489POPC   D2A47392   6.469  33.551   6.621
 3489POPC   C3A47393   6.716  33.697   6.956
 3489POPC   C4A47394   6.949  33.820   7.314
 3489POPC   C1B47395   6.233  34.122   6.196
 3489POPC   C2B47396   6.203  34.074   6.656
 3489POPC   C3B47397   6.423  34.090   7.034
 3489POPC   C4B47398   6.444  33.811   7.383
 3490POPC   NC347399  18.623  23.254   5.336
 3490POPC   PO447400  18.534  23.974   5.356
 3490POPC   GL147401  18.801  23.792   5.725
 3490POPC   GL247402  18.827  23.451   5.737
 3490POPC   C1A47403  19.196  23.670   6.030
 3490POPC   D2A47404  19.295  23.797   6.479
 3490POPC   C3A47405  19.262  23.624   6.896
 3490POPC   C4A47406  19.308  23.683   7.339
 3490POPC   C1B47407  18.865  23.304   6.132
 3490POPC   C2B47408  18.939  23.448   6.523
 3490POPC   C3B47409  18.751  23.639   6.858
 3490POPC   C4B47410  18.836  23.416   7.228
 3491POPC   NC347411  13.147  29.959   5.416
 3491POPC   PO447412  13.764  29.691   5.340
 3491POPC   GL147413  13.813  29.873   5.757
 3491POPC   GL247414  13.458  29.924   5.839
 3491POPC   C1A47415  13.779  29.934   6.244
 3491POPC   D2A47416  13.480  29.840   6.584
 3491POPC   C3A47417  13.594  29.831   6.999
 3491POPC   C4A47418  13.936  29.938   7.183
 3491POPC   C1B47419  13.317  30.171   6.210
 3491POPC   C2B47420  13.396  30.344   6.632
 3491POPC   C3B47421  13.554  30.324   7.078
 3491POPC   C4B47422  13.558  30.073   7.479
 3492POPC   NC347423  12.767  18.109   5.594
 3492POPC   PO447424  13.327  18.267   5.370
 3492POPC   GL147425  13.191  18.260   5.849
 3492POPC   GL247426  12.883  18.483   5.913
 3492POPC   C1A47427  13.141  17.980   6.271
 3492POPC   D2A47428  13.238  17.810   6.710
 3492POPC   C3A47429  12.961  17.949   7.037
 3492POPC   C4A47430  12.677  18.168   7.256
 3492POPC   C1B47431  12.767  18.347   6.341
 3492POPC   C2B47432  12.842  18.396   6.803
 3492POPC   C3B47433  12.969  18.553   7.201
 3492POPC   C4B47434  12.620  18.746   7.368
 3493POPC   NC347435  35.028  42.236   5.512
 3493POPC   PO447436  34.428  42.443   5.190
 3493POPC   GL147437  34.511  42.221   5.583
 3493POPC   GL247438  34.665  42.540   5.771
 3493POPC   C1A47439  34.522  42.127   6.027
 3493POPC   D2A47440  34.409  42.455   6.357
 3493POPC   C3A47441  34.419  42.439   6.822
 3493POPC   C4A47442  34.591  42.668   7.188
 3493POPC   C1B47443  34.914  42.393   6.172
 3493POPC   C2B47444  34.795  42.150   6.573
 3493POPC   C3B47445  34.853  42.223   7.035
 3493POPC   C4B47446  34.900  42.267   7.503
 3494POPC   NC347447  17.546  38.642   5.489
 3494POPC   PO447448  17.674  38.010   5.660
 3494POPC   GL147449  17.657  38.371   5.940
 3494POPC   GL247450  17.831  38.711   5.905
 3494POPC   C1A47451  17.351  38.343   6.294
 3494POPC   D2A47452  17.306  38.030   6.625
 3494POPC   C3A47453  17.401  38.234   7.011
 3494POPC   C4A47454  17.275  38.478   7.350
 3494POPC   C1B47455  17.680  38.744   6.298
 3494POPC   C2B47456  17.646  38.534   6.697
 3494POPC   C3B47457  17.732  38.666   7.165
 3494POPC   C4B47458  17.569  38.801   7.601
 3495POPC   NC347459  17.402   0.369   5.349
 3495POPC   PO447460  16.905   0.139   5.739
 3495POPC   GL147461  17.312   0.306   5.907
 3495POPC   GL247462  17.553   0.575   5.810
 3495POPC   C1A47463  17.427   0.519   6.310
 3495POPC   D2A47464  17.479   0.287   6.678
 3495POPC   C3A47465  17.249   0.386   7.047
 3495POPC   C4A47466  17.206   0.264   7.517
 3495POPC   C1B47467  17.899   0.436   6.140
 3495POPC   C2B47468  17.988   0.474   6.615
 3495POPC   C3B47469  17.747   0.550   7.014
 3495POPC   C4B47470  17.533   0.623   7.410
 3496POPC   NC347471  26.942  20.514   5.314
 3496POPC   PO447472  26.429  20.124   5.464
 3496POPC   GL147473  26.674  20.424   5.755
 3496POPC   GL247474  27.076  20.438   5.805
 3496POPC   C1A47475  26.654  20.565   6.202
 3496POPC   D2A47476  26.573  20.302   6.553
 3496POPC   C3A47477  26.782  20.276   6.950
 3496POPC   C4A47478  26.897  20.399   7.384
 3496POPC   C1B47479  27.178  20.640   6.198
 3496POPC   C2B47480  27.082  20.539   6.620
 3496POPC   C3B47481  26.965  20.771   6.999
 3496POPC   C4B47482  27.244  21.031   7.222
 3497POPC   NC347483   1.310  35.748   5.271
 3497POPC   PO447484   1.248  35.061   5.276
 3497POPC   GL147485   1.165  35.270   5.736
 3497POPC   GL247486   0.962  35.583   5.791
 3497POPC   C1A47487   1.377  35.358   6.175
 3497POPC   D2A47488   1.550  35.134   6.565
 3497POPC   C3A47489   1.543  35.357   6.969
 3497POPC   C4A47490   1.345  35.246   7.357
 3497POPC   C1B47491   1.037  35.734   6.236
 3497POPC   C2B47492   1.143  35.550   6.638
 3497POPC   C3B47493   0.939  35.510   7.044
 3497POPC   C4B47494   1.027  35.645   7.452
 3498POPC   NC347495  35.153  27.463   5.446
 3498POPC   PO447496  35.747  27.785   5.330
 3498POPC   GL147497  35.453  27.782   5.681
 3498POPC   GL247498  35.600  27.523   5.751
 3498POPC   C1A47499  35.308  27.706   6.150
 3498POPC   D2A47500  35.459  27.658   6.585
 3498POPC   C3A47501  35.298  27.396   6.895
 3498POPC   C4A47502  35.138  27.582   7.233
 3498POPC   C1B47503  35.690  27.323   6.110
 3498POPC   C2B47504  35.850  27.345   6.510
 3498POPC   C3B47505  35.815  27.409   6.919
 3498POPC   C4B47506  35.630  27.489   7.311
 3499POPC   NC347507  13.837  21.651   5.606
 3499POPC   PO447508  13.379  21.399   5.250
 3499POPC   GL147509  13.528  21.266   5.800
 3499POPC   GL247510  13.781  21.438   6.057
 3499POPC   C1A47511  13.510  21.096   6.282
 3499POPC   D2A47512  13.684  21.379   6.646
 3499POPC   C3A47513  13.728  21.262   7.064
 3499POPC   C4A47514  13.397  21.083   7.310
 3499POPC   C1B47515  13.395  21.600   6.294
 3499POPC   C2B47516  13.209  21.772   6.632
 3499POPC   C3B47517  13.414  21.693   6.983
 3499POPC   C4B47518  13.472  21.578   7.373
 3500POPC   NC347519  40.864  12.076   5.359
 3500POPC   PO447520  40.381  11.706   5.682
 3500POPC   GL147521  40.815  11.788   5.875
 3500POPC   GL247522  41.089  12.067   5.838
 3500POPC   C1A47523  40.961  11.677   6.298
 3500POPC   D2A47524  40.794  11.913   6.675
 3500POPC   C3A47525  40.818  11.809   7.117
 3500POPC   C4A47526  40.766  11.819   7.569
 3500POPC   C1B47527  40.849  12.211   6.192
 3500POPC   C2B47528  40.815  12.417   6.585
 3500POPC   C3B47529  40.749  12.343   7.029
 3500POPC   C4B47530  40.615  12.303   7.473
 3501POPC   NC347531  10.569  36.852   5.070
 3501POPC   PO447532  10.373  37.372   5.423
 3501POPC   GL147533  10.352  37.373   5.849
 3501POPC   GL247534  10.684  37.409   5.945
 3501POPC   C1A47535  10.378  37.067   6.198
 3501POPC   D2A47536  10.329  37.066   6.648
 3501POPC   C3A47537  10.471  36.728   6.920
 3501POPC   C4A47538  10.372  36.540   7.316
 3501POPC   C1B47539  10.882  37.125   6.228
 3501POPC   C2B47540  10.848  37.115   6.668
 3501POPC   C3B47541  10.646  37.205   7.053
 3501POPC   C4B47542  10.737  36.884   7.368
 3502POPC   NC347543  12.431  11.823   4.975
 3502POPC   PO447544  11.999  12.267   5.367
 3502POPC   GL147545  12.142  12.123   5.746
 3502POPC   GL247546  12.302  12.406   5.862
 3502POPC   C1A47547  12.007  11.965   6.163
 3502POPC   D2A47548  11.910  12.132   6.582
 3502POPC   C3A47549  12.084  11.941   6.965
 3502POPC   C4A47550  12.023  12.016   7.417
 3502POPC   C1B47551  12.261  12.416   6.305
 3502POPC   C2B47552  12.427  12.470   6.721
 3502POPC   C3B47553  12.314  12.431   7.144
 3502POPC   C4B47554  12.212  12.460   7.580
 3503POPC   NC347555   3.193  14.191   5.283
 3503POPC   PO447556   3.818  14.446   5.370
 3503POPC   GL147557   3.550  14.484   5.779
 3503POPC   GL247558   3.346  14.185   5.769
 3503POPC   C1A47559   3.510  14.512   6.262
 3503POPC   D2A47560   3.176  14.582   6.589
 3503POPC   C3A47561   3.360  14.587   7.004
 3503POPC   C4A47562   3.767  14.739   7.215
 3503POPC   C1B47563   3.314  14.054   6.182
 3503POPC   C2B47564   3.279  14.084   6.619
 3503POPC   C3B47565   3.530  14.081   6.979
 3503POPC   C4B47566   3.595  14.285   7.367
 3504POPC   NC347567  25.038  43.229   5.464
 3504POPC   PO447568  25.560  42.829   5.401
 3504POPC   GL147569  25.618  42.948   5.834
 3504POPC   GL247570  25.297  43.069   5.887
 3504POPC   C1A47571  25.599  43.091   6.314
 3504POPC   D2A47572  25.373  42.895   6.693
 3504POPC   C3A47573  25.429  42.981   7.144
 3504POPC   C4A47574  25.507  43.077   7.572
 3504POPC   C1B47575  25.070  43.050   6.275
 3504POPC   C2B47576  24.904  43.102   6.704
 3504POPC   C3B47577  24.945  42.835   7.067
 3504POPC   C4B47578  24.866  42.428   7.180
 3505POPC   NC347579  13.543   8.104   5.319
 3505POPC   PO447580  13.635   8.783   5.327
 3505POPC   GL147581  13.602   8.445   5.715
 3505POPC   GL247582  13.580   8.052   5.817
 3505POPC   C1A47583  13.652   8.426   6.179
 3505POPC   D2A47584  13.839   8.383   6.599
 3505POPC   C3A47585  13.679   8.421   7.047
 3505POPC   C4A47586  13.904   8.394   7.459
 3505POPC   C1B47587  13.455   7.966   6.243
 3505POPC   C2B47588  13.662   7.895   6.608
 3505POPC   C3B47589  13.572   7.932   7.006
 3505POPC   C4B47590  13.823   7.867   7.311
 3506POPC   NC347591   6.637  35.973   5.345
 3506POPC   PO447592   6.217  36.533   5.487
 3506POPC   GL147593   6.322  36.204   5.836
 3506POPC   GL247594   6.357  35.840   5.779
 3506POPC   C1A47595   6.541  36.166   6.288
 3506POPC   D2A47596   6.940  36.331   6.520
 3506POPC   C3A47597   6.883  36.490   6.953
 3506POPC   C4A47598   6.824  36.286   7.365
 3506POPC   C1B47599   6.758  35.760   6.045
 3506POPC   C2B47600   6.927  35.813   6.492
 3506POPC   C3B47601   6.717  35.984   6.847
 3506POPC   C4B47602   6.451  35.941   7.178
 3507POPC   NC347603  39.606  44.009   5.394
 3507POPC   PO447604  40.263  43.783   5.263
 3507POPC   GL147605  40.179  43.740   5.736
 3507POPC   GL247606  39.829  43.623   5.801
 3507POPC   C1A47607  40.287  43.953   6.141
 3507POPC   D2A47608  40.205  43.911   6.567
 3507POPC   C3A47609  40.506  43.952   6.877
 3507POPC   C4A47610  40.410  43.915   7.296
 3507POPC   C1B47611  39.821  43.758   6.231
 3507POPC   C2B47612  39.832  43.560   6.638
 3507POPC   C3B47613  39.689  43.736   7.040
 3507POPC   C4B47614  39.897  43.835   7.380
 3508POPC   NC347615  11.903  21.955   5.420
 3508POPC   PO447616  12.411  21.470   5.491
 3508POPC   GL147617  12.095  21.392   5.783
 3508POPC   GL247618  11.810  21.196   5.684
 3508POPC   C1A47619  12.108  21.272   6.208
 3508POPC   D2A47620  12.439  21.158   6.495
 3508POPC   C3A47621  12.256  21.207   6.909
 3508POPC   C4A47622  12.507  21.254   7.280
 3508POPC   C1B47623  11.617  21.160   6.102
 3508POPC   C2B47624  11.660  21.397   6.507
 3508POPC   C3B47625  11.686  21.245   6.930
 3508POPC   C4B47626  11.907  21.306   7.286
 3509POPC   NC347627  23.621  27.893   5.296
 3509POPC   PO447628  24.029  27.378   5.414
 3509POPC   GL147629  23.838  27.637   5.734
 3509POPC   GL247630  24.042  27.845   5.915
 3509POPC   C1A47631  23.605  27.697   6.145
 3509POPC   D2A47632  23.636  27.722   6.601
 3509POPC   C3A47633  23.526  27.358   6.894
 3509POPC   C4A47634  23.526  27.513   7.317
 3509POPC   C1B47635  24.130  27.598   6.285
 3509POPC   C2B47636  23.989  27.347   6.658
 3509POPC   C3B47637  23.945  27.625   7.044
 3509POPC   C4B47638  23.974  27.754   7.504
 3510POPC   NC347639  12.715  17.313   5.432
 3510POPC   PO447640  13.072  17.765   5.686
 3510POPC   GL147641  12.863  17.496   5.935
 3510POPC   GL247642  12.562  17.673   5.841
 3510POPC   C1A47643  12.996  17.453   6.381
 3510POPC   D2A47644  12.799  17.504   6.791
 3510POPC   C3A47645  12.981  17.479   7.218
 3510POPC   C4A47646  13.184  17.425   7.612
 3510POPC   C1B47647  12.639  17.836   6.270
 3510POPC   C2B47648  12.582  17.966   6.711
 3510POPC   C3B47649  12.473  17.737   7.114
 3510POPC   C4B47650  12.409  17.847   7.555
 3511POPC   NC347651  44.540  43.797   5.483
 3511POPC   PO447652  44.306  43.097   5.467
 3511POPC   GL147653  44.191  43.013   5.854
 3511POPC   GL247654  44.459  43.191   5.969
 3511POPC   C1A47655  44.259  42.795   6.247
 3511POPC   D2A47656  44.539  42.560   6.524
 3511POPC   C3A47657  44.649  42.649   6.987
 3511POPC   C4A47658  44.636  42.630   7.461
 3511POPC   C1B47659  44.747  42.950   6.219
 3511POPC   C2B47660  44.881  42.955   6.643
 3511POPC   C3B47661   0.160  42.829   6.958
 3511POPC   C4B47662   0.130  42.611   7.315
 3512POPC   NC347663   7.663   8.356   5.412
 3512POPC   PO447664   7.121   7.923   5.494
 3512POPC   GL147665   7.363   8.175   5.783
 3512POPC   GL247666   7.316   8.514   5.740
 3512POPC   C1A47667   7.516   8.110   6.176
 3512POPC   D2A47668   7.627   8.204   6.590
 3512POPC   C3A47669   7.497   7.947   6.938
 3512POPC   C4A47670   7.475   8.172   7.306
 3512POPC   C1B47671   7.174   8.541   6.145
 3512POPC   C2B47672   7.009   8.420   6.510
 3512POPC   C3B47673   7.139   8.332   6.900
 3512POPC   C4B47674   6.974   8.360   7.306
 3513POPC   NC347675  27.737  14.139   5.346
 3513POPC   PO447676  27.239  13.601   5.441
 3513POPC   GL147677  27.269  13.800   5.865
 3513POPC   GL247678  27.308  14.165   5.850
 3513POPC   C1A47679  27.432  13.628   6.285
 3513POPC   D2A47680  27.539  13.371   6.676
 3513POPC   C3A47681  27.580  13.509   7.118
 3513POPC   C4A47682  27.624  13.718   7.532
 3513POPC   C1B47683  27.399  14.159   6.316
 3513POPC   C2B47684  27.521  13.929   6.747
 3513POPC   C3B47685  27.882  13.904   7.097
 3513POPC   C4B47686  28.065  14.001   7.522
 3514POPC   NC347687   4.806  40.510   5.240
 3514POPC   PO447688   5.222  41.082   5.414
 3514POPC   GL147689   5.143  40.707   5.685
 3514POPC   GL247690   5.500  40.614   5.831
 3514POPC   C1A47691   4.826  40.524   5.991
 3514POPC   D2A47692   4.831  40.311   6.430
 3514POPC   C3A47693   4.703  40.389   6.895
 3514POPC   C4A47694   4.822  40.384   7.341
 3514POPC   C1B47695   5.262  40.652   6.231
 3514POPC   C2B47696   5.073  40.703   6.659
 3514POPC   C3B47697   5.169  40.684   7.116
 3514POPC   C4B47698   5.224  40.734   7.570
 3515POPC   NC347699  13.877  12.098   5.495
 3515POPC   PO447700  13.437  11.543   5.523
 3515POPC   GL147701  13.461  11.877   5.751
 3515POPC   GL247702  13.785  11.750   5.867
 3515POPC   C1A47703  13.404  12.257   5.992
 3515POPC   D2A47704  13.356  12.152   6.430
 3515POPC   C3A47705  13.507  12.344   6.805
 3515POPC   C4A47706  13.484  12.292   7.249
 3515POPC   C1B47707  13.779  11.985   6.201
 3515POPC   C2B47708  13.930  12.351   6.372
 3515POPC   C3B47709  14.020  12.359   6.801
 3515POPC   C4B47710  13.856  12.004   7.061
 3516POPC   NC347711  28.215  14.933   5.423
 3516POPC   PO447712  28.226  15.537   5.429
 3516POPC   GL147713  28.194  15.401   5.890
 3516POPC   GL247714  27.926  15.174   6.005
 3516POPC   C1A47715  28.391  15.183   6.278
 3516POPC   D2A47716  28.354  15.092   6.743
 3516POPC   C3A47717  28.337  15.381   7.096
 3516POPC   C4A47718  28.004  15.648   7.278
 3516POPC   C1B47719  27.971  15.421   6.405
 3516POPC   C2B47720  27.912  15.368   6.837
 3516POPC   C3B47721  27.666  15.083   7.068
 3516POPC   C4B47722  27.501  15.206   7.479
 3517POPC   NC347723   5.409   6.436   5.444
 3517POPC   PO447724   5.131   7.074   5.414
 3517POPC   GL147725   5.274   6.871   5.766
 3517POPC   GL247726   5.129   6.546   5.867
 3517POPC   C1A47727   5.309   6.913   6.202
 3517POPC   D2A47728   5.049   6.778   6.549
 3517POPC   C3A47729   5.128   6.884   6.975
 3517POPC   C4A47730   5.051   6.559   7.285
 3517POPC   C1B47731   5.327   6.402   6.268
 3517POPC   C2B47732   5.317   6.282   6.724
 3517POPC   C3B47733   5.547   6.436   7.088
 3517POPC   C4B47734   5.485   6.451   7.551
 3518POPC   NC347735  21.677  13.635   5.617
 3518POPC   PO447736  22.296  13.718   5.386
 3518POPC   GL147737  22.188  13.634   5.799
 3518POPC   GL247738  21.997  13.896   5.942
 3518POPC   C1A47739  22.356  13.707   6.223
 3518POPC   D2A47740  22.351  13.922   6.602
 3518POPC   C3A47741  22.021  13.760   6.837
 3518POPC   C4A47742  22.086  13.668   7.236
 3518POPC   C1B47743  21.815  13.590   6.256
 3518POPC   C2B47744  21.597  13.445   6.652
 3518POPC   C3B47745  21.769  13.304   7.046
 3518POPC   C4B47746  21.734  13.428   7.502
 3519POPC   NC347747  12.549  29.281   5.565
 3519POPC   PO447748  12.029  28.938   5.233
 3519POPC   GL147749  12.064  28.900   5.693
 3519POPC   GL247750  12.069  29.250   5.804
 3519POPC   C1A47751  12.022  28.862   6.171
 3519POPC   D2A47752  12.055  28.712   6.635
 3519POPC   C3A47753  11.913  28.984   6.989
 3519POPC   C4A47754  12.059  29.225   7.363
 3519POPC   C1B47755  12.094  29.396   6.247
 3519POPC   C2B47756  12.150  29.363   6.711
 3519POPC   C3B47757  12.390  29.522   7.071
 3519POPC   C4B47758  12.335  29.650   7.508
 3520POPC   NC347759  22.927  28.084   5.333
 3520POPC   PO447760  23.329  28.558   5.421
 3520POPC   GL147761  23.124  28.272   5.768
 3520POPC   GL247762  22.750  28.181   5.813
 3520POPC   C1A47763  23.119  28.237   6.220
 3520POPC   D2A47764  23.139  28.453   6.609
 3520POPC   C3A47765  22.883  28.486   7.005
 3520POPC   C4A47766  23.225  28.283   7.210
 3520POPC   C1B47767  22.635  28.038   6.231
 3520POPC   C2B47768  22.710  28.133   6.672
 3520POPC   C3B47769  22.774  28.017   7.114
 3520POPC   C4B47770  22.824  28.201   7.531
 3521POPC   NC347771  21.841  21.403   5.419
 3521POPC   PO447772  21.255  21.229   5.508
 3521POPC   GL147773  21.471  21.098   5.875
 3521POPC   GL247774  21.820  21.138   5.890
 3521POPC   C1A47775  21.483  21.325   6.274
 3521POPC   D2A47776  21.299  21.638   6.568
 3521POPC   C3A47777  21.208  21.475   7.003
 3521POPC   C4A47778  21.143  21.171   7.324
 3521POPC   C1B47779  21.871  21.571   6.040
 3521POPC   C2B47780  21.794  21.723   6.446
 3521POPC   C3B47781  21.723  21.531   6.825
 3521POPC   C4B47782  21.703  21.608   7.236
 3522POPC   NC347783  35.503  37.166   5.358
 3522POPC   PO447784  34.906  37.198   5.495
 3522POPC   GL147785  35.226  36.944   5.798
 3522POPC   GL247786  35.598  36.951   5.818
 3522POPC   C1A47787  35.371  36.861   6.274
 3522POPC   D2A47788  35.217  36.670   6.688
 3522POPC   C3A47789  35.179  36.845   7.119
 3522POPC   C4A47790  35.159  36.646   7.544
 3522POPC   C1B47791  35.846  37.099   6.216
 3522POPC   C2B47792  35.844  37.093   6.705
 3522POPC   C3B47793  35.662  37.274   7.121
 3522POPC   C4B47794  35.777  37.280   7.582
 3523POPC   NC347795  10.622  43.498   5.108
 3523POPC   PO447796  10.545  42.842   5.385
 3523POPC   GL147797  10.561  42.971   5.814
 3523POPC   GL247798  10.289  43.178   5.916
 3523POPC   C1A47799  10.649  43.019   6.265
 3523POPC   D2A47800  10.549  43.226   6.668
 3523POPC   C3A47801  10.521  42.939   6.999
 3523POPC   C4A47802  10.365  42.853   7.396
 3523POPC   C1B47803  10.489  43.515   6.203
 3523POPC   C2B47804  10.427  43.727   6.588
 3523POPC   C3B47805  10.129  43.544   6.838
 3523POPC   C4B47806  10.271  43.331   7.221
 3524POPC   NC347807  38.572  16.424   5.326
 3524POPC   PO447808  38.060  16.888   5.565
 3524POPC   GL147809  38.141  16.812   5.959
 3524POPC   GL247810  38.483  16.797   5.937
 3524POPC   C1A47811  38.258  16.764   6.400
 3524POPC   D2A47812  38.588  16.851   6.694
 3524POPC   C3A47813  38.477  16.821   7.112
 3524POPC   C4A47814  38.221  16.573   7.391
 3524POPC   C1B47815  38.598  16.428   6.185
 3524POPC   C2B47816  38.803  16.140   6.483
 3524POPC   C3B47817  38.742  16.318   6.893
 3524POPC   C4B47818  38.730  16.462   7.323
 3525POPC   NC347819  28.193   0.801   5.502
 3525POPC   PO447820  27.852   1.393   5.343
 3525POPC   GL147821  27.706   1.169   5.711
 3525POPC   GL247822  27.698   1.459   5.959
 3525POPC   C1A47823  27.536   1.033   6.137
 3525POPC   D2A47824  27.447   1.361   6.474
 3525POPC   C3A47825  27.619   1.229   6.867
 3525POPC   C4A47826  27.589   0.831   7.080
 3525POPC   C1B47827  27.946   1.245   6.351
 3525POPC   C2B47828  28.101   0.971   6.696
 3525POPC   C3B47829  28.081   0.941   7.142
 3525POPC   C4B47830  27.804   1.225   7.387
 3526POPC   NC347831  22.540  16.873   5.133
 3526POPC   PO447832  21.993  16.979   5.404
 3526POPC   GL147833  22.073  16.724   5.732
 3526POPC   GL247834  22.382  16.868   5.838
 3526POPC   C1A47835  21.979  16.768   6.144
 3526POPC   D2A47836  21.936  16.886   6.568
 3526POPC   C3A47837  22.099  16.772   6.963
 3526POPC   C4A47838  22.353  17.049   7.227
 3526POPC   C1B47839  22.433  16.556   6.195
 3526POPC   C2B47840  22.474  16.645   6.631
 3526POPC   C3B47841  22.549  16.559   7.068
 3526POPC   C4B47842  22.338  16.276   7.315
 3527POPC   NC347843  19.393  29.970   5.278
 3527POPC   PO447844  19.895  30.270   5.799
 3527POPC   GL147845  19.755  29.873   5.909
 3527POPC   GL247846  20.015  29.655   5.859
 3527POPC   C1A47847  19.652  29.694   6.281
 3527POPC   D2A47848  19.854  29.717   6.662
 3527POPC   C3A47849  19.585  29.602   6.994
 3527POPC   C4A47850  19.664  29.739   7.402
 3527POPC   C1B47851  20.177  29.855   6.238
 3527POPC   C2B47852  20.421  29.748   6.580
 3527POPC   C3B47853  20.275  29.866   6.959
 3527POPC   C4B47854  20.155  29.923   7.378
 3528POPC   NC347855   5.868  10.299   5.584
 3528POPC   PO447856   5.717  10.975   5.507
 3528POPC   GL147857   5.682  10.704   5.892
 3528POPC   GL247858   6.010  10.638   6.011
 3528POPC   C1A47859   5.666  10.527   6.352
 3528POPC   D2A47860   5.787  10.348   6.764
 3528POPC   C3A47861   5.653  10.453   7.223
 3528POPC   C4A47862   5.827  10.263   7.633
 3528POPC   C1B47863   6.208  10.454   6.371
 3528POPC   C2B47864   6.388  10.572   6.764
 3528POPC   C3B47865   6.144  10.484   7.127
 3528POPC   C4B47866   6.082  10.711   7.541
 3529POPC   NC347867  19.112  18.696   5.455
 3529POPC   PO447868  18.768  19.126   5.061
 3529POPC   GL147869  18.784  19.114   5.597
 3529POPC   GL247870  19.022  18.950   5.878
 3529POPC   C1A47871  18.740  19.312   6.085
 3529POPC   D2A47872  18.968  19.229   6.522
 3529POPC   C3A47873  18.959  19.416   6.958
 3529POPC   C4A47874  18.742  19.464   7.383
 3529POPC   C1B47875  19.360  18.722   6.123
 3529POPC   C2B47876  19.451  18.605   6.572
 3529POPC   C3B47877  19.252  18.812   6.945
 3529POPC   C4B47878  19.333  19.150   7.251
 3530POPC   NC347879  43.993   6.642   5.350
 3530POPC   PO447880  43.689   7.237   5.172
 3530POPC   GL147881  43.658   6.952   5.613
 3530POPC   GL247882  43.703   6.572   5.752
 3530POPC   C1A47883  43.742   6.927   6.118
 3530POPC   D2A47884  43.863   7.041   6.569
 3530POPC   C3A47885  43.830   6.801   6.968
 3530POPC   C4A47886  44.200   6.751   7.200
 3530POPC   C1B47887  43.725   6.360   6.159
 3530POPC   C2B47888  43.834   6.285   6.606
 3530POPC   C3B47889  43.698   6.292   7.049
 3530POPC   C4B47890  43.454   6.334   7.427
 3531POPC   NC347891   7.462  27.852   5.485
 3531POPC   PO447892   7.158  27.333   5.382
 3531POPC   GL147893   7.292  27.305   5.811
 3531POPC   GL247894   7.578  27.395   5.761
 3531POPC   C1A47895   7.357  27.626   6.171
 3531POPC   D2A47896   7.308  27.902   6.544
 3531POPC   C3A47897   7.446  27.732   6.968
 3531POPC   C4A47898   7.427  27.615   7.429
 3531POPC   C1B47899   7.641  27.208   6.184
 3531POPC   C2B47900   7.631  27.379   6.617
 3531POPC   C3B47901   7.785  27.338   7.051
 3531POPC   C4B47902   7.906  27.470   7.474
 3532POPC   NC347903  18.205  12.379   5.472
 3532POPC   PO447904  18.406  13.030   5.366
 3532POPC   GL147905  18.246  12.993   5.797
 3532POPC   GL247906  18.262  12.648   5.918
 3532POPC   C1A47907  18.186  13.026   6.258
 3532POPC   D2A47908  18.346  12.887   6.675
 3532POPC   C3A47909  18.138  12.946   7.087
 3532POPC   C4A47910  18.352  13.136   7.429
 3532POPC   C1B47911  18.068  12.531   6.323
 3532POPC   C2B47912  18.018  12.500   6.782
 3532POPC   C3B47913  17.820  12.549   7.166
 3532POPC   C4B47914  18.200  12.441   7.333
 3533POPC   NC347915  17.391  24.523   5.393
 3533POPC   PO447916  17.816  24.066   5.399
 3533POPC   GL147917  17.669  24.269   5.769
 3533POPC   GL247918  17.295  24.249   5.823
 3533POPC   C1A47919  17.594  24.435   6.187
 3533POPC   D2A47920  17.265  24.428   6.492
 3533POPC   C3A47921  17.525  24.336   6.836
 3533POPC   C4A47922  17.832  24.582   7.070
 3533POPC   C1B47923  17.196  24.705   6.038
 3533POPC   C2B47924  17.116  24.911   6.461
 3533POPC   C3B47925  17.037  24.723   6.870
 3533POPC   C4B47926  17.128  24.367   7.140
 3534POPC   NC347927  38.926  26.316   5.422
 3534POPC   PO447928  39.306  25.716   5.381
 3534POPC   GL147929  39.109  25.659   5.787
 3534POPC   GL247930  38.783  25.694   5.893
 3534POPC   C1A47931  39.204  25.811   6.217
 3534POPC   D2A47932  39.578  26.063   6.400
 3534POPC   C3A47933  39.470  26.208   6.814
 3534POPC   C4A47934  39.221  25.983   7.170
 3534POPC   C1B47935  38.823  26.114   6.051
 3534POPC   C2B47936  39.059  26.329   6.397
 3534POPC   C3B47937  38.966  26.326   6.853
 3534POPC   C4B47938  38.727  26.252   7.235
 3535POPC   NC347939  26.246  21.273   5.220
 3535POPC   PO447940  25.755  21.553   5.578
 3535POPC   GL147941  25.946  21.227   5.781
 3535POPC   GL247942  26.309  21.253   5.800
 3535POPC   C1A47943  26.002  21.218   6.229
 3535POPC   D2A47944  25.922  21.508   6.567
 3535POPC   C3A47945  26.027  21.315   6.948
 3535POPC   C4A47946  25.904  21.312   7.379
 3535POPC   C1B47947  26.383  21.580   6.190
 3535POPC   C2B47948  26.534  21.779   6.600
 3535POPC   C3B47949  26.441  21.606   7.019
 3535POPC   C4B47950  26.400  21.589   7.476
 3536POPC   NC347951   0.798   9.555   5.524
 3536POPC   PO447952   0.351   9.969   5.250
 3536POPC   GL147953   0.254   9.888   5.683
 3536POPC   GL247954   0.346   9.565   5.795
 3536POPC   C1A47955   0.316   9.984   6.133
 3536POPC   D2A47956   0.170   9.861   6.537
 3536POPC   C3A47957   0.402   9.990   6.906
 3536POPC   C4A47958   0.387   9.748   7.290
 3536POPC   C1B47959   0.455   9.496   6.258
 3536POPC   C2B47960   0.618   9.581   6.690
 3536POPC   C3B47961   0.638   9.343   7.082
 3536POPC   C4B47962   0.494   9.285   7.543
 3537POPC   NC347963  34.335  18.856   5.324
 3537POPC   PO447964  34.780  19.273   5.240
 3537POPC   GL147965  34.702  19.035   5.672
 3537POPC   GL247966  34.367  19.023   5.812
 3537POPC   C1A47967  34.743  19.068   6.160
 3537POPC   D2A47968  34.925  19.228   6.533
 3537POPC   C3A47969  34.631  19.249   6.877
 3537POPC   C4A47970  34.685  19.113   7.299
 3537POPC   C1B47971  34.254  18.938   6.258
 3537POPC   C2B47972  34.238  18.943   6.730
 3537POPC   C3B47973  34.193  18.971   7.185
 3537POPC   C4B47974  34.373  18.783   7.562
 3538POPC   NC347975   5.179  25.663   5.433
 3538POPC   PO447976   4.836  25.048   5.395
 3538POPC   GL147977   5.142  24.980   5.787
 3538POPC   GL247978   5.233  25.320   5.882
 3538POPC   C1A47979   5.350  24.996   6.276
 3538POPC   D2A47980   5.443  25.081   6.770
 3538POPC   C3A47981   5.189  25.210   7.200
 3538POPC   C4A47982   5.054  25.289   7.671
 3538POPC   C1B47983   5.104  25.446   6.326
 3538POPC   C2B47984   5.077  25.518   6.794
 3538POPC   C3B47985   4.803  25.550   7.177
 3538POPC   C4B47986   4.890  25.777   7.568
 3539POPC   NC347987  22.814  27.059   5.339
 3539POPC   PO447988  23.360  26.734   5.504
 3539POPC   GL147989  23.080  26.916   5.832
 3539POPC   GL247990  22.755  26.751   5.912
 3539POPC   C1A47991  23.140  26.771   6.269
 3539POPC   D2A47992  22.918  26.720   6.624
 3539POPC   C3A47993  23.118  26.839   6.990
 3539POPC   C4A47994  22.961  26.528   7.234
 3539POPC   C1B47995  22.658  27.014   6.257
 3539POPC   C2B47996  22.730  27.195   6.670
 3539POPC   C3B47997  22.644  27.028   7.064
 3539POPC   C4B47998  22.640  27.199   7.476
 3540POPC   NC347999  30.167  29.724   5.353
 3540POPC   PO448000  29.876  30.193   5.424
 3540POPC   GL148001  29.744  29.970   5.816
 3540POPC   GL248002  29.444  30.077   6.005
 3540POPC   C1A48003  29.821  29.774   6.227
 3540POPC   D2A48004  30.075  29.808   6.605
 3540POPC   C3A48005  29.880  29.902   7.020
 3540POPC   C4A48006  30.019  29.969   7.457
 3540POPC   C1B48007  29.334  29.824   6.386
 3540POPC   C2B48008  29.504  29.609   6.753
 3540POPC   C3B48009  29.436  29.695   7.208
 3540POPC   C4B48010  29.508  30.002   7.571
 3541POPC   NC348011  25.059  33.594   5.422
 3541POPC   PO448012  24.458  34.013   5.516
 3541POPC   GL148013  24.518  33.749   5.848
 3541POPC   GL248014  24.867  33.840   5.865
 3541POPC   C1A48015  24.628  33.616   6.272
 3541POPC   D2A48016  24.715  33.811   6.666
 3541POPC   C3A48017  24.530  33.625   7.020
 3541POPC   C4A48018  24.568  33.736   7.420
 3541POPC   C1B48019  24.581  34.124   6.177
 3541POPC   C2B48020  24.394  34.246   6.570
 3541POPC   C3B48021  24.429  34.127   6.995
 3541POPC   C4B48022  24.211  34.255   7.348
 3542POPC   NC348023  14.751  27.008   5.489
 3542POPC   PO448024  15.449  27.234   5.440
 3542POPC   GL148025  15.200  26.993   5.728
 3542POPC   GL248026  15.060  26.673   5.700
 3542POPC   C1A48027  14.997  27.091   6.101
 3542POPC   D2A48028  14.989  26.968   6.513
 3542POPC   C3A48029  15.324  26.953   6.790
 3542POPC   C4A48030  15.277  27.128   7.172
 3542POPC   C1B48031  14.994  26.555   6.139
 3542POPC   C2B48032  14.810  26.505   6.557
 3542POPC   C3B48033  14.881  26.679   7.009
 3542POPC   C4B48034  15.185  26.676   7.369
 3543POPC   NC348035  24.000  34.873   5.411
 3543POPC   PO448036  24.612  34.689   5.193
 3543POPC   GL148037  24.519  34.713   5.695
 3543POPC   GL248038  24.798  34.536   5.907
 3543POPC   C1A48039  24.375  34.611   6.156
 3543POPC   D2A48040  24.096  34.680   6.515
 3543POPC   C3A48041  24.211  34.630   6.956
 3543POPC   C4A48042  24.046  34.756   7.374
 3543POPC   C1B48043  24.811  34.856   6.192
 3543POPC   C2B48044  24.705  34.689   6.586
 3543POPC   C3B48045  24.912  34.669   6.970
 3543POPC   C4B48046  24.627  34.542   7.265
 3544POPC   NC348047  26.283   4.371   5.405
 3544POPC   PO448048  25.639   4.401   5.440
 3544POPC   GL148049  25.908   4.586   5.729
 3544POPC   GL248050  26.034   4.275   5.830
 3544POPC   C1A48051  25.971   4.578   6.213
 3544POPC   D2A48052  26.139   4.465   6.652
 3544POPC   C3A48053  25.923   4.417   7.074
 3544POPC   C4A48054  25.903   4.631   7.456
 3544POPC   C1B48055  26.313   4.194   6.176
 3544POPC   C2B48056  26.219   3.948   6.534
 3544POPC   C3B48057  26.230   3.989   6.970
 3544POPC   C4B48058  26.351   4.242   7.295
 3545POPC   NC348059  20.243  35.122   5.029
 3545POPC   PO448060  20.305  35.708   5.376
 3545POPC   GL148061  20.375  35.417   5.758
 3545POPC   GL248062  20.711  35.323   5.844
 3545POPC   C1A48063  20.327  35.149   6.172
 3545POPC   D2A48064  20.334  34.959   6.595
 3545POPC   C3A48065  20.632  35.191   6.855
 3545POPC   C4A48066  20.459  35.389   7.190
 3545POPC   C1B48067  20.975  35.464   6.166
 3545POPC   C2B48068  20.836  35.568   6.558
 3545POPC   C3B48069  20.889  35.707   6.947
 3545POPC   C4B48070  21.225  35.595   7.194
 3546POPC   NC348071  20.269  41.251   5.505
 3546POPC   PO448072  20.967  41.371   5.489
 3546POPC   GL148073  20.654  41.535   5.784
 3546POPC   GL248074  20.363  41.763   5.702
 3546POPC   C1A48075  20.722  41.412   6.225
 3546POPC   D2A48076  21.023  41.200   6.505
 3546POPC   C3A48077  20.873  41.234   6.938
 3546POPC   C4A48078  20.796  41.622   7.186
 3546POPC   C1B48079  20.237  41.540   6.121
 3546POPC   C2B48080  20.323  41.547   6.575
 3546POPC   C3B48081  20.361  41.373   6.975
 3546POPC   C4B48082  20.370  41.422   7.401
 3547POPC   NC348083  13.230   2.444   5.345
 3547POPC   PO448084  13.687   2.975   5.272
 3547POPC   GL148085  13.449   2.921   5.660
 3547POPC   GL248086  13.596   2.613   5.756
 3547POPC   C1A48087  13.419   3.013   6.127
 3547POPC   D2A48088  13.549   2.861   6.577
 3547POPC   C3A48089  13.546   3.023   7.038
 3547POPC   C4A48090  13.612   2.964   7.517
 3547POPC   C1B48091  13.877   2.797   6.065
 3547POPC   C2B48092  13.985   3.072   6.396
 3547POPC   C3B48093  14.033   2.992   6.834
 3547POPC   C4B48094  14.035   3.036   7.275
 3548POPC   NC348095  28.858   4.076   5.374
 3548POPC   PO448096  29.342   4.482   5.457
 3548POPC   GL148097  29.048   4.420   5.767
 3548POPC   GL248098  29.177   4.095   5.791
 3548POPC   C1A48099  29.082   4.470   6.226
 3548POPC   D2A48100  28.967   4.269   6.642
 3548POPC   C3A48101  29.291   4.387   6.953
 3548POPC   C4A48102  29.648   4.589   7.200
 3548POPC   C1B48103  29.014   3.971   6.187
 3548POPC   C2B48104  29.235   3.818   6.517
 3548POPC   C3B48105  29.193   3.884   6.923
 3548POPC   C4B48106  28.999   3.712   7.250
 3549POPC   NC348107   2.516  12.721   5.109
 3549POPC   PO448108   1.815  12.506   5.280
 3549POPC   GL148109   1.892  12.591   5.699
 3549POPC   GL248110   2.194  12.708   5.710
 3549POPC   C1A48111   1.834  12.822   6.094
 3549POPC   D2A48112   1.936  12.699   6.523
 3549POPC   C3A48113   1.837  12.936   6.937
 3549POPC   C4A48114   1.736  12.885   7.407
 3549POPC   C1B48115   2.239  12.481   6.106
 3549POPC   C2B48116   2.399  12.450   6.516
 3549POPC   C3B48117   2.310  12.647   6.903
 3549POPC   C4B48118   2.055  12.551   7.223
 3550POPC   NC348119  23.622   7.023   5.656
 3550POPC   PO448120  23.760   6.382   5.433
 3550POPC   GL148121  23.517   6.539   5.792
 3550POPC   GL248122  23.288   6.837   5.960
 3550POPC   C1A48123  23.651   6.546   6.197
 3550POPC   D2A48124  23.798   6.715   6.572
 3550POPC   C3A48125  23.602   6.532   6.888
 3550POPC   C4A48126  23.848   6.475   7.251
 3550POPC   C1B48127  23.473   7.059   6.305
 3550POPC   C2B48128  23.451   7.056   6.729
 3550POPC   C3B48129  23.694   6.989   7.055
 3550POPC   C4B48130  23.423   6.824   7.302
 3551POPC   NC348131  19.437  43.874   5.420
 3551POPC   PO448132  20.104  44.005   5.370
 3551POPC   GL148133  19.876  43.860   5.732
 3551POPC   GL248134  19.543  43.981   5.897
 3551POPC   C1A48135  20.014  43.671   6.103
 3551POPC   D2A48136  19.833  43.711   6.487
 3551POPC   C3A48137  20.071  43.729   6.837
 3551POPC   C4A48138  20.032  43.905   7.208
 3551POPC   C1B48139  19.513  43.560   6.071
 3551POPC   C2B48140  19.537  43.264   6.419
 3551POPC   C3B48141  19.747  43.317   6.811
 3551POPC   C4B48142  19.616  43.652   7.081
 3552POPC   NC348143  14.483  29.257   5.576
 3552POPC   PO448144  14.143  28.768   5.398
 3552POPC   GL148145  14.183  28.935   5.864
 3552POPC   GL248146  14.499  29.086   6.030
 3552POPC   C1A48147  14.091  29.102   6.316
 3552POPC   D2A48148  14.376  29.329   6.622
 3552POPC   C3A48149  14.422  29.158   7.011
 3552POPC   C4A48150  14.072  28.936   7.160
 3552POPC   C1B48151  14.593  28.921   6.393
 3552POPC   C2B48152  14.835  29.066   6.711
 3552POPC   C3B48153  14.865  28.855   7.095
 3552POPC   C4B48154  14.549  28.840   7.392
 3553POPC   NC348155  14.832  44.933   5.449
 3553POPC   PO448156  15.195   0.518   5.407
 3553POPC   GL148157  15.215   0.224   5.735
 3553POPC   GL248158  14.909   0.383   5.813
 3553POPC   C1A48159  15.132   0.044   6.127
 3553POPC   D2A48160  15.027   0.084   6.531
 3553POPC   C3A48161  15.221   0.402   6.710
 3553POPC   C4A48162  15.331   0.544   7.088
 3553POPC   C1B48163  15.132   0.577   6.182
 3553POPC   C2B48164  15.140   0.870   6.548
 3553POPC   C3B48165  14.928   0.881   6.925
 3553POPC   C4B48166  14.927   0.693   7.364
 3554POPC   NC348167  21.618  22.959   5.375
 3554POPC   PO448168  21.137  22.510   5.470
 3554POPC   GL148169  21.285  22.798   5.753
 3554POPC   GL248170  21.046  23.067   5.732
 3554POPC   C1A48171  21.431  22.917   6.152
 3554POPC   D2A48172  21.300  23.137   6.511
 3554POPC   C3A48173  21.416  22.981   6.882
 3554POPC   C4A48174  21.529  23.191   7.255
 3554POPC   C1B48175  20.934  22.881   6.135
 3554POPC   C2B48176  20.790  22.987   6.531
 3554POPC   C3B48177  20.891  22.845   6.929
 3554POPC   C4B48178  21.070  22.978   7.311
 3555POPC   NC348179   7.883  22.621   5.505
 3555POPC   PO448180   7.266  22.697   5.172
 3555POPC   GL148181   7.340  22.969   5.594
 3555POPC   GL248182   7.614  22.896   5.815
 3555POPC   C1A48183   7.250  23.132   6.062
 3555POPC   D2A48184   7.066  23.086   6.506
 3555POPC   C3A48185   7.305  22.958   6.891
 3555POPC   C4A48186   7.385  22.999   7.354
 3555POPC   C1B48187   7.822  22.743   6.175
 3555POPC   C2B48188   7.714  22.804   6.586
 3555POPC   C3B48189   7.819  22.956   6.982
 3555POPC   C4B48190   7.760  22.664   7.298
 3556POPC   NC348191  19.491  27.408   5.497
 3556POPC   PO448192  20.033  27.715   5.391
 3556POPC   GL148193  19.928  27.619   5.793
 3556POPC   GL248194  19.707  27.925   5.759
 3556POPC   C1A48195  19.901  27.435   6.226
 3556POPC   D2A48196  19.922  27.643   6.661
 3556POPC   C3A48197  19.783  27.435   7.074
 3556POPC   C4A48198  19.938  27.185   7.433
 3556POPC   C1B48199  19.780  27.934   6.196
 3556POPC   C2B48200  19.597  28.086   6.566
 3556POPC   C3B48201  19.676  27.983   6.979
 3556POPC   C4B48202  19.465  27.825   7.313
 3557POPC   NC348203  21.650  26.137   5.355
 3557POPC   PO448204  20.982  26.050   5.486
 3557POPC   GL148205  21.310  26.092   5.743
 3557POPC   GL248206  21.487  25.763   5.698
 3557POPC   C1A48207  21.432  26.284   6.121
 3557POPC   D2A48208  21.549  26.111   6.507
 3557POPC   C3A48209  21.400  26.326   6.859
 3557POPC   C4A48210  21.668  26.285   7.206
 3557POPC   C1B48211  21.382  25.739   6.149
 3557POPC   C2B48212  21.294  25.648   6.583
 3557POPC   C3B48213  21.450  25.838   6.970
 3557POPC   C4B48214  21.279  25.813   7.400
 3558POPC   NC348215  14.452  21.706   5.540
 3558POPC   PO448216  14.086  21.197   5.519
 3558POPC   GL148217  14.269  21.369   5.865
 3558POPC   GL248218  14.614  21.291   5.806
 3558POPC   C1A48219  14.244  21.696   6.173
 3558POPC   D2A48220  14.149  21.432   6.475
 3558POPC   C3A48221  14.154  21.502   6.899
 3558POPC   C4A48222  14.161  21.426   7.347
 3558POPC   C1B48223  14.628  21.292   6.248
 3558POPC   C2B48224  14.552  21.190   6.687
 3558POPC   C3B48225  14.618  21.363   7.117
 3558POPC   C4B48226  14.601  21.265   7.576
 3559POPC   NC348227   6.903  20.502   5.290
 3559POPC   PO448228   6.465  20.974   5.177
 3559POPC   GL148229   6.445  20.681   5.649
 3559POPC   GL248230   6.747  20.449   5.770
 3559POPC   C1A48231   6.605  20.800   6.116
 3559POPC   D2A48232   6.428  20.691   6.498
 3559POPC   C3A48233   6.575  20.826   6.903
 3559POPC   C4A48234   6.474  20.627   7.311
 3559POPC   C1B48235   6.942  20.393   6.196
 3559POPC   C2B48236   7.071  20.317   6.625
 3559POPC   C3B48237   6.906  20.445   7.049
 3559POPC   C4B48238   6.907  20.448   7.507
 3560POPC   NC348239  22.835  40.909   5.547
 3560POPC   PO448240  23.340  40.792   5.074
 3560POPC   GL148241  23.258  40.644   5.568
 3560POPC   GL248242  23.018  40.354   5.610
 3560POPC   C1A48243  23.181  40.851   6.076
 3560POPC   D2A48244  22.842  41.006   6.403
 3560POPC   C3A48245  22.792  40.925   6.860
 3560POPC   C4A48246  22.546  40.627   7.129
 3560POPC   C1B48247  23.010  40.381   6.065
 3560POPC   C2B48248  22.955  40.506   6.507
 3560POPC   C3B48249  23.114  40.544   6.935
 3560POPC   C4B48250  22.988  40.633   7.365
 3561POPC   NC348251  26.943  17.144   5.428
 3561POPC   PO448252  26.551  17.633   5.332
 3561POPC   GL148253  26.766  17.552   5.711
 3561POPC   GL248254  26.566  17.263   5.766
 3561POPC   C1A48255  26.846  17.638   6.175
 3561POPC   D2A48256  26.802  17.888   6.589
 3561POPC   C3A48257  26.970  17.719   6.995
 3561POPC   C4A48258  27.189  17.925   7.365
 3561POPC   C1B48259  26.687  17.147   6.186
 3561POPC   C2B48260  26.825  17.294   6.610
 3561POPC   C3B48261  26.938  17.192   7.048
 3561POPC   C4B48262  26.901  17.403   7.448
 3562POPC   NC348263  26.844  10.759   5.495
 3562POPC   PO448264  26.266  10.458   5.293
 3562POPC   GL148265  26.529  10.328   5.669
 3562POPC   GL248266  26.919  10.286   5.735
 3562POPC   C1A48267  26.580  10.492   6.102
 3562POPC   D2A48268  26.678  10.772   6.456
 3562POPC   C3A48269  26.667  10.647   6.903
 3562POPC   C4A48270  26.777  10.895   7.283
 3562POPC   C1B48271  27.113  10.513   6.112
 3562POPC   C2B48272  27.042  10.393   6.549
 3562POPC   C3B48273  27.155  10.515   6.972
 3562POPC   C4B48274  27.024  10.473   7.417
 3563POPC   NC348275  25.065  30.459   5.183
 3563POPC   PO448276  24.379  30.613   5.417
 3563POPC   GL148277  24.325  30.706   5.848
 3563POPC   GL248278  24.085  30.992   5.854
 3563POPC   C1A48279  24.604  30.713   6.231
 3563POPC   D2A48280  24.901  30.854   6.583
 3563POPC   C3A48281  24.767  30.740   7.002
 3563POPC   C4A48282  24.533  30.378   7.155
 3563POPC   C1B48283  24.172  31.162   6.258
 3563POPC   C2B48284  24.263  30.884   6.580
 3563POPC   C3B48285  24.152  30.600   6.872
 3563POPC   C4B48286  24.269  30.820   7.214
 3564POPC   NC348287  43.470  43.916   5.502
 3564POPC   PO448288  44.106  43.757   5.356
 3564POPC   GL148289  43.891  43.706   5.778
 3564POPC   GL248290  43.570  43.573   5.891
 3564POPC   C1A48291  43.931  43.818   6.225
 3564POPC   D2A48292  44.054  44.140   6.537
 3564POPC   C3A48293  43.956  44.064   6.964
 3564POPC   C4A48294  43.601  44.166   7.183
 3564POPC   C1B48295  43.428  43.884   6.188
 3564POPC   C2B48296  43.572  43.929   6.609
 3564POPC   C3B48297  43.531  43.695   6.992
 3564POPC   C4B48298  43.301  43.813   7.351
 3565POPC   NC348299  31.006  33.104   5.421
 3565POPC   PO448300  31.611  32.945   5.295
 3565POPC   GL148301  31.610  32.882   5.763
 3565POPC   GL248302  31.912  32.683   5.837
 3565POPC   C1A48303  31.329  33.008   6.168
 3565POPC   D2A48304  31.177  32.909   6.624
 3565POPC   C3A48305  31.221  33.128   7.047
 3565POPC   C4A48306  31.036  33.388   7.406
 3565POPC   C1B48307  31.681  32.665   6.239
 3565POPC   C2B48308  31.742  32.663   6.655
 3565POPC   C3B48309  31.518  32.706   7.015
 3565POPC   C4B48310  31.591  32.555   7.411
 3566POPC   NC348311  15.355  12.681   4.967
 3566POPC   PO448312  15.021  12.930   5.458
 3566POPC   GL148313  15.030  12.815   5.818
 3566POPC   GL248314  14.784  12.534   5.783
 3566POPC   C1A48315  15.244  12.990   6.168
 3566POPC   D2A48316  15.398  12.942   6.602
 3566POPC   C3A48317  15.219  13.140   6.962
 3566POPC   C4A48318  15.238  12.901   7.356
 3566POPC   C1B48319  14.888  12.594   6.227
 3566POPC   C2B48320  14.991  12.470   6.598
 3566POPC   C3B48321  14.937  12.729   6.916
 3566POPC   C4B48322  14.819  12.574   7.267
 3567POPC   NC348323  37.600  31.371   5.436
 3567POPC   PO448324  37.187  31.682   5.787
 3567POPC   GL148325  37.654  31.587   5.882
 3567POPC   GL248326  37.716  31.219   5.948
 3567POPC   C1A48327  37.986  31.584   6.196
 3567POPC   D2A48328  37.760  31.579   6.571
 3567POPC   C3A48329  37.952  31.374   6.902
 3567POPC   C4A48330  37.916  31.532   7.302
 3567POPC   C1B48331  37.413  31.322   6.285
 3567POPC   C2B48332  37.329  31.192   6.716
 3567POPC   C3B48333  37.467  31.354   7.110
 3567POPC   C4B48334  37.477  31.784   7.271
 3568POPC   NC348335  26.465  41.048   5.401
 3568POPC   PO448336  25.763  40.937   5.364
 3568POPC   GL148337  26.043  40.743   5.682
 3568POPC   GL248338  26.112  40.365   5.716
 3568POPC   C1A48339  25.977  40.681   6.114
 3568POPC   D2A48340  25.858  40.903   6.483
 3568POPC   C3A48341  25.817  40.634   6.803
 3568POPC   C4A48342  25.928  40.694   7.209
 3568POPC   C1B48343  26.393  40.383   6.096
 3568POPC   C2B48344  26.264  40.239   6.493
 3568POPC   C3B48345  26.257  40.373   6.926
 3568POPC   C4B48346  26.433  40.579   7.302
 3569POPC   NC348347  17.542  21.975   5.448
 3569POPC   PO448348  17.414  22.638   5.237
 3569POPC   GL148349  17.376  22.436   5.659
 3569POPC   GL248350  17.137  22.165   5.708
 3569POPC   C1A48351  17.507  22.329   6.088
 3569POPC   D2A48352  17.368  22.419   6.517
 3569POPC   C3A48353  17.604  22.214   6.836
 3569POPC   C4A48354  17.703  22.364   7.227
 3569POPC   C1B48355  17.050  22.080   6.139
 3569POPC   C2B48356  17.149  21.930   6.549
 3569POPC   C3B48357  17.115  22.126   6.949
 3569POPC   C4B48358  17.227  22.234   7.346
 3570POPC   NC348359   6.283   4.322   5.464
 3570POPC   PO448360   6.511   3.797   5.272
 3570POPC   GL148361   6.595   4.053   5.741
 3570POPC   GL248362   6.911   4.140   5.869
 3570POPC   C1A48363   6.490   4.354   6.099
 3570POPC   D2A48364   6.601   4.308   6.540
 3570POPC   C3A48365   6.587   4.513   6.941
 3570POPC   C4A48366   6.539   4.152   7.225
 3570POPC   C1B48367   7.016   4.412   6.236
 3570POPC   C2B48368   7.041   4.578   6.674
 3570POPC   C3B48369   7.050   4.525   7.145
 3570POPC   C4B48370   6.982   4.788   7.539
 3571POPC   NC348371   5.946  23.071   5.179
 3571POPC   PO448372   5.693  23.457   5.701
 3571POPC   GL148373   5.840  23.219   6.058
 3571POPC   GL248374   5.931  22.897   5.954
 3571POPC   C1A48375   5.630  22.952   6.385
 3571POPC   D2A48376   5.728  22.828   6.820
 3571POPC   C3A48377   5.634  23.174   7.148
 3571POPC   C4A48378   5.694  23.224   7.630
 3571POPC   C1B48379   6.008  22.614   6.296
 3571POPC   C2B48380   6.227  22.519   6.659
 3571POPC   C3B48381   6.099  22.520   7.060
 3571POPC   C4B48382   5.827  22.744   7.327
 3572POPC   NC348383  12.233  24.861   5.350
 3572POPC   PO448384  11.962  24.192   5.301
 3572POPC   GL148385  12.066  24.334   5.735
 3572POPC   GL248386  11.967  24.668   5.754
 3572POPC   C1A48387  12.168  24.444   6.205
 3572POPC   D2A48388  12.406  24.658   6.578
 3572POPC   C3A48389  12.454  24.547   7.055
 3572POPC   C4A48390  12.285  24.244   7.409
 3572POPC   C1B48391  11.817  24.857   6.147
 3572POPC   C2B48392  11.875  24.705   6.566
 3572POPC   C3B48393  12.009  24.398   6.882
 3572POPC   C4B48394  11.988  24.637   7.277
 3573POPC   NC348395  32.054   9.649   4.751
 3573POPC   PO448396  32.295   9.618   5.369
 3573POPC   GL148397  32.392   9.679   5.843
 3573POPC   GL248398  32.551   9.978   5.851
 3573POPC   C1A48399  32.322   9.808   6.311
 3573POPC   D2A48400  32.371   9.961   6.757
 3573POPC   C3A48401  32.161   9.830   7.163
 3573POPC   C4A48402  31.807   9.549   7.341
 3573POPC   C1B48403  32.815   9.819   6.211
 3573POPC   C2B48404  32.784   9.668   6.673
 3573POPC   C3B48405  32.660   9.685   7.121
 3573POPC   C4B48406  32.688   9.986   7.467
 3574POPC   NC348407  25.507  42.349   5.395
 3574POPC   PO448408  25.006  41.954   5.376
 3574POPC   GL148409  25.207  42.202   5.785
 3574POPC   GL248410  25.253  42.568   5.770
 3574POPC   C1A48411  25.243  42.149   6.267
 3574POPC   D2A48412  25.081  42.272   6.706
 3574POPC   C3A48413  25.089  41.995   7.089
 3574POPC   C4A48414  25.340  42.073   7.461
 3574POPC   C1B48415  25.386  42.640   6.204
 3574POPC   C2B48416  25.557  42.440   6.596
 3574POPC   C3B48417  25.444  42.442   7.048
 3574POPC   C4B48418  25.639  42.591   7.419
 3575POPC   NC348419  21.990  19.380   5.615
 3575POPC   PO448420  22.122  18.747   5.514
 3575POPC   GL148421  22.224  18.974   5.894
 3575POPC   GL248422  21.868  19.017   5.967
 3575POPC   C1A48423  22.200  18.918   6.365
 3575POPC   D2A48424  22.067  18.941   6.805
 3575POPC   C3A48425  22.331  19.090   7.152
 3575POPC   C4A48426  22.374  19.044   7.602
 3575POPC   C1B48427  21.950  19.359   6.262
 3575POPC   C2B48428  21.844  19.390   6.664
 3575POPC   C3B48429  21.859  19.308   7.113
 3575POPC   C4B48430  21.906  18.953   7.412
 3576POPC   NC348431  25.455  21.129   5.475
 3576POPC   PO448432  25.036  21.706   5.380
 3576POPC   GL148433  25.268  21.532   5.758
 3576POPC   GL248434  25.033  21.317   5.883
 3576POPC   C1A48435  25.467  21.327   6.165
 3576POPC   D2A48436  25.282  21.244   6.584
 3576POPC   C3A48437  25.496  21.288   6.983
 3576POPC   C4A48438  25.440  21.066   7.378
 3576POPC   C1B48439  24.997  21.577   6.257
 3576POPC   C2B48440  24.908  21.593   6.684
 3576POPC   C3B48441  24.906  21.267   6.956
 3576POPC   C4B48442  25.086  21.408   7.312
 3577POPC   NC348443   9.932  37.307   5.530
 3577POPC   PO448444   9.400  36.913   5.398
 3577POPC   GL148445   9.553  37.112   5.820
 3577POPC   GL248446   9.897  37.150   6.006
 3577POPC   C1A48447   9.463  37.037   6.252
 3577POPC   D2A48448   9.785  37.041   6.590
 3577POPC   C3A48449   9.584  37.055   6.994
 3577POPC   C4A48450   9.344  36.760   7.305
 3577POPC   C1B48451  10.059  37.431   6.347
 3577POPC   C2B48452  10.030  37.451   6.785
 3577POPC   C3B48453  10.112  37.107   7.124
 3577POPC   C4B48454  10.207  36.950   7.555
 3578POPC   NC348455  21.241  14.542   5.531
 3578POPC   PO448456  21.611  14.091   5.701
 3578POPC   GL148457  21.477  14.394   6.015
 3578POPC   GL248458  21.205  14.604   6.015
 3578POPC   C1A48459  21.447  14.534   6.479
 3578POPC   D2A48460  21.615  14.598   6.940
 3578POPC   C3A48461  21.432  14.323   7.260
 3578POPC   C4A48462  21.152  14.007   7.276
 3578POPC   C1B48463  20.894  14.765   6.274
 3578POPC   C2B48464  20.939  14.587   6.668
 3578POPC   C3B48465  21.111  14.658   7.065
 3578POPC   C4B48466  20.972  14.491   7.473
 3579POPC   NC348467  24.608  36.691   5.620
 3579POPC   PO448468  24.765  36.094   5.246
 3579POPC   GL148469  24.764  36.170   5.665
 3579POPC   GL248470  24.454  36.175   5.745
 3579POPC   C1A48471  24.739  36.260   6.142
 3579POPC   D2A48472  24.733  35.981   6.499
 3579POPC   C3A48473  24.673  36.154   6.905
 3579POPC   C4A48474  24.585  36.385   7.270
 3579POPC   C1B48475  24.498  35.811   6.049
 3579POPC   C2B48476  24.378  35.606   6.431
 3579POPC   C3B48477  24.274  35.855   6.779
 3579POPC   C4B48478  24.349  35.898   7.222
 3580POPC   NC348479  39.734  44.977   5.588
 3580POPC   PO448480  40.185   0.419   5.329
 3580POPC   GL148481  40.033   0.445   5.741
 3580POPC   GL248482  40.210   0.111   5.792
 3580POPC   C1A48483  39.847   0.677   6.123
 3580POPC   D2A48484  40.014   0.786   6.543
 3580POPC   C3A48485  39.715   0.776   6.905
 3580POPC   C4A48486  39.600   0.479   7.237
 3580POPC   C1B48487  40.057   0.210   6.204
 3580POPC   C2B48488  40.213   0.321   6.581
 3580POPC   C3B48489  40.054   0.396   6.991
 3580POPC   C4B48490  39.956   0.101   7.344
 3581POPC   NC348491  28.195  27.644   5.315
 3581POPC   PO448492  28.730  27.581   5.453
 3581POPC   GL148493  28.373  27.642   5.820
 3581POPC   GL248494  28.068  27.439   5.799
 3581POPC   C1A48495  28.163  27.837   6.258
 3581POPC   D2A48496  27.906  27.830   6.691
 3581POPC   C3A48497  28.172  27.811   7.117
 3581POPC   C4A48498  28.554  27.905   7.422
 3581POPC   C1B48499  28.217  27.338   6.239
 3581POPC   C2B48500  28.324  27.529   6.674
 3581POPC   C3B48501  28.510  27.446   7.097
 3581POPC   C4B48502  28.395  27.442   7.545
 3582POPC   NC348503  10.586  26.634   5.367
 3582POPC   PO448504  10.299  27.266   5.448
 3582POPC   GL148505  10.367  26.917   5.730
 3582POPC   GL248506  10.732  26.909   5.783
 3582POPC   C1A48507  10.386  26.686   6.131
 3582POPC   D2A48508  10.540  26.843   6.532
 3582POPC   C3A48509  10.525  26.599   6.911
 3582POPC   C4A48510  10.662  26.377   7.278
 3582POPC   C1B48511  10.891  27.109   6.176
 3582POPC   C2B48512  11.010  27.015   6.611
 3582POPC   C3B48513  10.735  27.069   6.971
 3582POPC   C4B48514  10.718  26.893   7.367
 3583POPC   NC348515  34.799  24.812   5.390
 3583POPC   PO448516  34.287  24.391   5.232
 3583POPC   GL148517  34.379  24.405   5.711
 3583POPC   GL248518  34.368  24.736   5.660
 3583POPC   C1A48519  34.630  24.331   6.135
 3583POPC   D2A48520  34.789  24.322   6.569
 3583POPC   C3A48521  34.519  24.256   6.913
 3583POPC   C4A48522  34.777  24.411   7.262
 3583POPC   C1B48523  34.360  24.747   6.118
 3583POPC   C2B48524  34.342  24.567   6.537
 3583POPC   C3B48525  34.383  24.732   6.974
 3583POPC   C4B48526  34.321  24.551   7.348
 3584POPC   NC348527  14.580  38.712   5.332
 3584POPC   PO448528  14.199  38.149   5.295
 3584POPC   GL148529  14.406  38.225   5.718
 3584POPC   GL248530  14.409  38.577   5.801
 3584POPC   C1A48531  14.649  38.290   6.149
 3584POPC   D2A48532  14.536  38.396   6.578
 3584POPC   C3A48533  14.653  38.357   7.003
 3584POPC   C4A48534  14.396  38.250   7.366
 3584POPC   C1B48535  14.175  38.499   6.183
 3584POPC   C2B48536  14.190  38.753   6.538
 3584POPC   C3B48537  14.395  38.815   6.877
 3584POPC   C4B48538  14.331  38.732   7.235
 3585POPC   NC348539  40.853  39.366   5.401
 3585POPC   PO448540  40.800  38.756   5.419
 3585POPC   GL148541  40.984  38.993   5.795
 3585POPC   GL248542  40.907  39.366   5.901
 3585POPC   C1A48543  40.837  39.023   6.262
 3585POPC   D2A48544  40.893  38.846   6.692
 3585POPC   C3A48545  40.817  39.074   7.082
 3585POPC   C4A48546  40.950  38.986   7.502
 3585POPC   C1B48547  40.875  39.601   6.297
 3585POPC   C2B48548  40.692  39.539   6.728
 3585POPC   C3B48549  40.743  39.561   7.190
 3585POPC   C4B48550  40.667  39.405   7.618
 3586POPC   NC348551  25.366  14.972   5.569
 3586POPC   PO448552  26.054  15.022   5.332
 3586POPC   GL148553  26.016  15.206   5.732
 3586POPC   GL248554  25.676  15.346   5.696
 3586POPC   C1A48555  26.158  15.136   6.153
 3586POPC   D2A48556  26.284  15.314   6.533
 3586POPC   C3A48557  26.244  15.057   6.911
 3586POPC   C4A48558  25.891  14.921   7.158
 3586POPC   C1B48559  25.779  15.495   6.103
 3586POPC   C2B48560  25.865  15.670   6.503
 3586POPC   C3B48561  25.986  15.526   6.885
 3586POPC   C4B48562  25.825  15.515   7.262
 3587POPC   NC348563  38.517  23.940   5.199
 3587POPC   PO448564  38.833  23.340   5.370
 3587POPC   GL148565  38.530  23.532   5.708
 3587POPC   GL248566  38.569  23.879   5.821
 3587POPC   C1A48567  38.493  23.538   6.188
 3587POPC   D2A48568  38.652  23.542   6.630
 3587POPC   C3A48569  38.354  23.499   6.955
 3587POPC   C4A48570  38.184  23.735   7.283
 3587POPC   C1B48571  38.375  24.050   6.184
 3587POPC   C2B48572  38.260  23.845   6.534
 3587POPC   C3B48573  38.394  24.002   6.908
 3587POPC   C4B48574  38.407  24.246   7.256
 3588POPC   NC348575  23.325  32.157   5.411
 3588POPC   PO448576  23.954  32.142   5.445
 3588POPC   GL148577  23.670  32.153   5.805
 3588POPC   GL248578  23.506  31.833   5.775
 3588POPC   C1A48579  23.597  32.463   6.158
 3588POPC   D2A48580  23.765  32.592   6.544
 3588POPC   C3A48581  23.545  32.513   6.937
 3588POPC   C4A48582  23.471  32.449   7.420
 3588POPC   C1B48583  23.496  31.965   6.231
 3588POPC   C2B48584  23.416  32.127   6.617
 3588POPC   C3B48585  23.588  32.014   7.020
 3588POPC   C4B48586  23.979  31.801   7.074
 3589POPC   NC348587  33.051  17.800   5.401
 3589POPC   PO448588  33.248  17.259   5.299
 3589POPC   GL148589  33.266  17.472   5.745
 3589POPC   GL248590  32.965  17.639   5.869
 3589POPC   C1A48591  33.380  17.522   6.186
 3589POPC   D2A48592  33.225  17.753   6.559
 3589POPC   C3A48593  33.186  17.523   6.908
 3589POPC   C4A48594  33.453  17.513   7.206
 3589POPC   C1B48595  32.856  17.522   6.285
 3589POPC   C2B48596  32.712  17.757   6.662
 3589POPC   C3B48597  32.742  17.668   7.098
 3589POPC   C4B48598  32.815  17.244   7.226
 3590POPC   NC348599  15.334  22.065   5.419
 3590POPC   PO448600  14.834  21.814   5.766
 3590POPC   GL148601  15.097  22.210   5.876
 3590POPC   GL248602  14.996  22.584   5.904
 3590POPC   C1A48603  15.439  22.300   6.140
 3590POPC   D2A48604  15.650  22.194   6.512
 3590POPC   C3A48605  15.391  22.017   6.870
 3590POPC   C4A48606  15.303  21.974   7.331
 3590POPC   C1B48607  15.014  22.447   6.377
 3590POPC   C2B48608  14.963  22.026   6.579
 3590POPC   C3B48609  14.891  21.966   7.016
 3590POPC   C4B48610  15.014  22.357   7.169
 3591POPC   NC348611  20.895  34.572   5.527
 3591POPC   PO448612  20.315  34.716   5.254
 3591POPC   GL148613  20.353  34.575   5.700
 3591POPC   GL248614  20.548  34.852   5.802
 3591POPC   C1A48615  20.480  34.487   6.157
 3591POPC   D2A48616  20.644  34.311   6.555
 3591POPC   C3A48617  20.390  34.448   6.907
 3591POPC   C4A48618  20.393  34.300   7.336
 3591POPC   C1B48619  20.809  34.933   6.192
 3591POPC   C2B48620  20.827  34.782   6.614
 3591POPC   C3B48621  20.881  34.637   7.023
 3591POPC   C4B48622  20.956  34.705   7.473
 3592POPC   NC348623  31.540  24.632   5.173
 3592POPC   PO448624  31.895  24.249   5.314
 3592POPC   GL148625  31.632  24.436   5.683
 3592POPC   GL248626  31.627  24.804   5.817
 3592POPC   C1A48627  31.490  24.403   6.159
 3592POPC   D2A48628  31.444  24.552   6.623
 3592POPC   C3A48629  31.411  24.354   7.060
 3592POPC   C4A48630  31.417  24.097   7.472
 3592POPC   C1B48631  31.363  24.908   6.231
 3592POPC   C2B48632  31.131  24.950   6.676
 3592POPC   C3B48633  31.138  24.832   7.150
 3592POPC   C4B48634  30.964  24.834   7.601
 3593POPC   NC348635  35.128  40.116   5.231
 3593POPC   PO448636  35.628  39.769   5.459
 3593POPC   GL148637  35.361  40.039   5.732
 3593POPC   GL248638  35.598  40.251   5.858
 3593POPC   C1A48639  35.266  39.981   6.213
 3593POPC   D2A48640  35.375  40.170   6.648
 3593POPC   C3A48641  35.190  40.147   7.060
 3593POPC   C4A48642  35.257  40.178   7.514
 3593POPC   C1B48643  35.753  40.147   6.280
 3593POPC   C2B48644  35.720  39.813   6.602
 3593POPC   C3B48645  35.621  39.833   7.042
 3593POPC   C4B48646  35.700  40.231   7.254
 3594POPC   NC348647   8.879  41.485   5.360
 3594POPC   PO448648   9.413  41.863   5.207
 3594POPC   GL148649   9.340  41.645   5.718
 3594POPC   GL248650   9.092  41.408   5.802
 3594POPC   C1A48651   9.019  41.758   6.159
 3594POPC   D2A48652   9.156  41.877   6.573
 3594POPC   C3A48653   8.918  41.729   6.895
 3594POPC   C4A48654   8.872  41.549   7.265
 3594POPC   C1B48655   9.200  41.264   6.184
 3594POPC   C2B48656   8.980  41.363   6.552
 3594POPC   C3B48657   9.137  41.236   6.960
 3594POPC   C4B48658   9.036  41.061   7.339
 3595POPC   NC348659  35.167  44.309   4.966
 3595POPC   PO448660  35.501  44.761   5.466
 3595POPC   GL148661  35.422  44.705   5.891
 3595POPC   GL248662  35.349  44.350   5.830
 3595POPC   C1A48663  35.443  44.858   6.343
 3595POPC   D2A48664  35.354  44.928   6.808
 3595POPC   C3A48665  35.537  44.756   7.211
 3595POPC   C4A48666  35.680   0.024   7.592
 3595POPC   C1B48667  35.499  44.350   6.260
 3595POPC   C2B48668  35.284  44.313   6.674
 3595POPC   C3B48669  35.087  44.334   7.088
 3595POPC   C4B48670  35.295  44.401   7.492
 3596POPC   NC348671  33.886  44.884   5.463
 3596POPC   PO448672  33.442  44.437   5.237
 3596POPC   GL148673  33.658  44.451   5.673
 3596POPC   GL248674  33.608  44.772   5.885
 3596POPC   C1A48675  33.936  44.398   6.053
 3596POPC   D2A48676  33.907  44.417   6.553
 3596POPC   C3A48677  33.629  44.578   6.894
 3596POPC   C4A48678  33.567  44.451   7.326
 3596POPC   C1B48679  33.965  44.885   6.186
 3596POPC   C2B48680  33.987   0.003   6.621
 3596POPC   C3B48681  34.079  44.805   7.004
 3596POPC   C4B48682  33.930  44.782   7.444
 3597POPC   NC348683  41.390  17.432   5.494
 3597POPC   PO448684  42.129  17.483   5.717
 3597POPC   GL148685  41.661  17.476   5.930
 3597POPC   GL248686  41.266  17.607   5.973
 3597POPC   C1A48687  41.504  17.311   6.305
 3597POPC   D2A48688  41.471  17.437   6.720
 3597POPC   C3A48689  41.530  17.270   7.109
 3597POPC   C4A48690  41.748  17.133   7.512
 3597POPC   C1B48691  41.273  17.813   6.392
 3597POPC   C2B48692  41.517  17.926   6.754
 3597POPC   C3B48693  41.803  17.726   7.001
 3597POPC   C4B48694  41.734  17.632   7.416
 3598POPC   NC348695  13.862   5.448   5.488
 3598POPC   PO448696  13.341   5.093   5.254
 3598POPC   GL148697  13.327   5.168   5.716
 3598POPC   GL248698  13.669   5.070   5.817
 3598POPC   C1A48699  13.363   5.230   6.193
 3598POPC   D2A48700  13.783   5.176   6.427
 3598POPC   C3A48701  13.834   5.249   6.899
 3598POPC   C4A48702  13.583   5.304   7.274
 3598POPC   C1B48703  13.583   4.772   6.153
 3598POPC   C2B48704  13.623   4.701   6.592
 3598POPC   C3B48705  13.457   4.906   6.953
 3598POPC   C4B48706  13.460   4.770   7.373
 3599POPC   NC348707  37.983  35.568   5.521
 3599POPC   PO448708  37.568  35.042   5.529
 3599POPC   GL148709  37.427  35.272   5.885
 3599POPC   GL248710  37.568  35.601   5.838
 3599POPC   C1A48711  37.601  35.364   6.291
 3599POPC   D2A48712  37.794  35.178   6.600
 3599POPC   C3A48713  37.682  35.303   6.931
 3599POPC   C4A48714  37.790  35.284   7.335
 3599POPC   C1B48715  37.944  35.705   6.133
 3599POPC   C2B48716  38.137  35.524   6.494
 3599POPC   C3B48717  38.061  35.675   6.895
 3599POPC   C4B48718  37.802  35.766   7.200
 3600POPC   NC348719  22.197   4.342   5.303
 3600POPC   PO448720  22.453   3.830   5.554
 3600POPC   GL148721  22.404   4.206   5.806
 3600POPC   GL248722  22.246   4.554   5.754
 3600POPC   C1A48723  22.323   4.290   6.238
 3600POPC   D2A48724  22.514   4.309   6.660
 3600POPC   C3A48725  22.263   4.229   7.041
 3600POPC   C4A48726  21.895   4.105   7.316
 3600POPC   C1B48727  22.128   4.775   6.121
 3600POPC   C2B48728  22.117   4.966   6.534
 3600POPC   C3B48729  22.051   4.783   6.941
 3600POPC   C4B48730  22.095   4.609   7.339
 3601POPC   NC348731  10.372   2.044   5.034
 3601POPC   PO448732  10.930   2.185   5.405
 3601POPC   GL148733  10.581   2.258   5.678
 3601POPC   GL248734  10.454   1.935   5.632
 3601POPC   C1A48735  10.440   2.350   6.121
 3601POPC   D2A48736  10.567   2.321   6.595
 3601POPC   C3A48737  10.448   1.989   6.895
 3601POPC   C4A48738  10.259   2.028   7.297
 3601POPC   C1B48739  10.525   1.836   6.078
 3601POPC   C2B48740  10.728   1.802   6.488
 3601POPC   C3B48741  10.814   1.611   6.904
 3601POPC   C4B48742  10.623   1.666   7.293
 3602POPC   NC348743  41.253  38.685   5.364
 3602POPC   PO448744  41.864  38.285   5.518
 3602POPC   GL148745  41.554  38.504   5.738
 3602POPC   GL248746  41.652  38.854   5.647
 3602POPC   C1A48747  41.440  38.439   6.168
 3602POPC   D2A48748  41.402  38.708   6.556
 3602POPC   C3A48749  41.357  38.500   6.961
 3602POPC   C4A48750  41.286  38.587   7.391
 3602POPC   C1B48751  41.782  38.804   6.079
 3602POPC   C2B48752  41.892  38.542   6.447
 3602POPC   C3B48753  41.872  38.547   6.903
 3602POPC   C4B48754  41.743  38.772   7.246
 3603POPC   NC348755  41.859  14.640   5.386
 3603POPC   PO448756  42.544  14.589   5.360
 3603POPC   GL148757  42.287  14.397   5.692
 3603POPC   GL248758  41.981  14.568   5.880
 3603POPC   C1A48759  42.392  14.310   6.123
 3603POPC   D2A48760  42.181  14.314   6.516
 3603POPC   C3A48761  42.478  14.433   6.838
 3603POPC   C4A48762  42.538  14.381   7.268
 3603POPC   C1B48763  42.202  14.773   6.219
 3603POPC   C2B48764  42.180  14.818   6.631
 3603POPC   C3B48765  42.022  14.594   6.933
 3603POPC   C4B48766  42.283  14.808   7.164
 3604POPC   NC348767  26.941  18.811   5.379
 3604POPC   PO448768  26.552  19.352   5.262
 3604POPC   GL148769  26.746  19.127   5.723
 3604POPC   GL248770  27.107  19.047   5.809
 3604POPC   C1A48771  26.633  18.852   6.143
 3604POPC   D2A48772  26.507  18.942   6.599
 3604POPC   C3A48773  26.631  18.753   7.017
 3604POPC   C4A48774  26.600  19.013   7.428
 3604POPC   C1B48775  26.994  19.204   6.216
 3604POPC   C2B48776  26.895  19.323   6.624
 3604POPC   C3B48777  26.799  19.264   7.032
 3604POPC   C4B48778  27.064  19.278   7.381
 3605POPC   NC348779  17.774  15.120   5.448
 3605POPC   PO448780  17.209  15.508   5.492
 3605POPC   GL148781  17.414  15.302   5.783
 3605POPC   GL248782  17.368  14.948   5.793
 3605POPC   C1A48783  17.443  15.353   6.188
 3605POPC   D2A48784  17.674  15.364   6.529
 3605POPC   C3A48785  17.375  15.418   6.849
 3605POPC   C4A48786  17.435  15.257   7.233
 3605POPC   C1B48787  17.386  14.817   6.248
 3605POPC   C2B48788  17.485  14.903   6.697
 3605POPC   C3B48789  17.681  14.840   7.107
 3605POPC   C4B48790  17.551  14.897   7.561
 3606POPC   NC348791  26.660  33.330   5.289
 3606POPC   PO448792  27.044  32.762   5.266
 3606POPC   GL148793  26.992  33.090   5.626
 3606POPC   GL248794  27.211  33.421   5.656
 3606POPC   C1A48795  26.813  33.060   6.070
 3606POPC   D2A48796  26.792  32.758   6.429
 3606POPC   C3A48797  26.723  32.912   6.833
 3606POPC   C4A48798  26.960  32.870   7.189
 3606POPC   C1B48799  27.323  33.134   6.023
 3606POPC   C2B48800  27.274  33.007   6.470
 3606POPC   C3B48801  27.366  33.088   6.912
 3606POPC   C4B48802  27.287  33.415   7.201
 3607POPC   NC348803  33.371  30.475   5.422
 3607POPC   PO448804  32.920  31.016   5.254
 3607POPC   GL148805  33.033  30.879   5.726
 3607POPC   GL248806  33.151  30.563   5.871
 3607POPC   C1A48807  32.928  30.871   6.194
 3607POPC   D2A48808  33.100  30.684   6.598
 3607POPC   C3A48809  32.947  30.750   7.026
 3607POPC   C4A48810  32.813  30.640   7.470
 3607POPC   C1B48811  32.872  30.368   6.215
 3607POPC   C2B48812  32.724  30.350   6.670
 3607POPC   C3B48813  32.930  30.258   7.082
 3607POPC   C4B48814  33.335  30.469   7.253
 3608POPC   NC348815  39.776  19.281   5.347
 3608POPC   PO448816  40.042  18.682   5.534
 3608POPC   GL148817  40.046  19.058   5.754
 3608POPC   GL248818  39.881  18.909   6.001
 3608POPC   C1A48819  40.138  19.288   6.179
 3608POPC   D2A48820  40.134  19.025   6.560
 3608POPC   C3A48821  40.075  19.200   6.987
 3608POPC   C4A48822  40.120  18.985   7.358
 3608POPC   C1B48823  39.679  19.123   6.314
 3608POPC   C2B48824  39.647  19.058   6.732
 3608POPC   C3B48825  39.569  19.018   7.146
 3608POPC   C4B48826  39.650  18.886   7.529
 3609POPC   NC348827  34.875   5.733   5.422
 3609POPC   PO448828  34.213   5.601   5.445
 3609POPC   GL148829  34.460   5.882   5.747
 3609POPC   GL248830  34.605   5.630   5.846
 3609POPC   C1A48831  34.636   6.019   6.174
 3609POPC   D2A48832  34.467   5.901   6.557
 3609POPC   C3A48833  34.701   5.991   6.964
 3609POPC   C4A48834  34.665   6.105   7.405
 3609POPC   C1B48835  34.248   5.609   6.129
 3609POPC   C2B48836  34.113   5.520   6.528
 3609POPC   C3B48837  34.308   5.577   6.916
 3609POPC   C4B48838  34.521   5.608   7.302
 3610POPC   NC348839  23.347  11.128   5.423
 3610POPC   PO448840  23.757  11.630   5.179
 3610POPC   GL148841  23.679  11.501   5.671
 3610POPC   GL248842  23.694  11.189   5.792
 3610POPC   C1A48843  23.512  11.492   6.149
 3610POPC   D2A48844  23.509  11.289   6.582
 3610POPC   C3A48845  23.651  11.442   7.006
 3610POPC   C4A48846  23.361  11.577   7.356
 3610POPC   C1B48847  23.866  11.101   6.199
 3610POPC   C2B48848  23.781  10.862   6.574
 3610POPC   C3B48849  23.652  10.932   7.000
 3610POPC   C4B48850  23.825  10.863   7.413
 3611POPC   NC348851  31.881   4.978   5.258
 3611POPC   PO448852  31.303   5.345   5.378
 3611POPC   GL148853  31.389   5.256   5.779
 3611POPC   GL248854  31.710   5.215   5.764
 3611POPC   C1A48855  31.356   5.084   6.203
 3611POPC   D2A48856  31.172   5.198   6.587
 3611POPC   C3A48857  31.309   5.013   6.959
 3611POPC   C4A48858  31.496   5.130   7.337
 3611POPC   C1B48859  31.664   5.484   6.158
 3611POPC   C2B48860  31.855   5.494   6.568
 3611POPC   C3B48861  31.609   5.435   6.930
 3611POPC   C4B48862  31.524   5.655   7.326
 3612POPC   NC348863   2.736   2.439   5.384
 3612POPC   PO448864   3.005   3.019   5.341
 3612POPC   GL148865   2.946   3.095   5.768
 3612POPC   GL248866   2.839   2.747   5.835
 3612POPC   C1A48867   2.882   3.070   6.237
 3612POPC   D2A48868   2.928   2.845   6.653
 3612POPC   C3A48869   2.778   3.055   7.040
 3612POPC   C4A48870   2.340   3.048   7.158
 3612POPC   C1B48871   2.636   2.571   6.240
 3612POPC   C2B48872   2.522   2.459   6.688
 3612POPC   C3B48873   2.624   2.535   7.132
 3612POPC   C4B48874   2.685   2.317   7.548
 3613POPC   NC348875   0.906   2.099   5.529
 3613POPC   PO448876   1.462   1.766   5.153
 3613POPC   GL148877   1.292   1.763   5.656
 3613POPC   GL248878   1.233   2.059   5.915
 3613POPC   C1A48879   1.194   1.624   6.130
 3613POPC   D2A48880   1.132   1.831   6.550
 3613POPC   C3A48881   1.255   1.885   6.983
 3613POPC   C4A48882   1.497   2.209   7.172
 3613POPC   C1B48883   0.817   2.041   6.180
 3613POPC   C2B48884   0.649   2.024   6.620
 3613POPC   C3B48885   0.851   2.262   6.944
 3613POPC   C4B48886   0.997   2.145   7.345
 3614POPC   NC348887   8.490   8.402   5.306
 3614POPC   PO448888   7.940   7.983   5.354
 3614POPC   GL148889   7.927   8.146   5.795
 3614POPC   GL248890   8.256   8.333   5.814
 3614POPC   C1A48891   8.033   8.186   6.239
 3614POPC   D2A48892   8.302   8.160   6.574
 3614POPC   C3A48893   8.022   8.030   6.875
 3614POPC   C4A48894   7.924   7.875   7.259
 3614POPC   C1B48895   8.477   8.524   6.185
 3614POPC   C2B48896   8.515   8.609   6.633
 3614POPC   C3B48897   8.293   8.436   7.018
 3614POPC   C4B48898   8.415   8.308   7.413
 3615POPC   NC348899  26.376   8.371   5.343
 3615POPC   PO448900  25.762   8.345   5.376
 3615POPC   GL148901  25.960   8.079   5.719
 3615POPC   GL248902  25.713   7.868   5.864
 3615POPC   C1A48903  26.183   7.988   6.143
 3615POPC   D2A48904  26.060   8.175   6.548
 3615POPC   C3A48905  26.171   8.083   6.947
 3615POPC   C4A48906  26.336   8.266   7.307
 3615POPC   C1B48907  25.691   8.114   6.205
 3615POPC   C2B48908  25.543   8.125   6.563
 3615POPC   C3B48909  25.634   7.945   6.943
 3615POPC   C4B48910  25.886   7.849   7.298
 3616POPC   NC348911  20.129  38.833   5.328
 3616POPC   PO448912  19.768  38.321   5.151
 3616POPC   GL148913  19.829  38.413   5.613
 3616POPC   GL248914  19.527  38.508   5.781
 3616POPC   C1A48915  19.927  38.382   6.095
 3616POPC   D2A48916  19.746  38.233   6.531
 3616POPC   C3A48917  19.938  38.344   6.961
 3616POPC   C4A48918  19.981  38.388   7.455
 3616POPC   C1B48919  19.569  38.725   6.203
 3616POPC   C2B48920  19.744  38.740   6.626
 3616POPC   C3B48921  19.535  38.650   7.014
 3616POPC   C4B48922  19.503  38.311   7.302
 3617POPC   NC348923  41.654  41.160   5.468
 3617POPC   PO448924  41.591  40.556   5.691
 3617POPC   GL148925  41.458  40.847   5.864
 3617POPC   GL248926  41.189  40.926   5.623
 3617POPC   C1A48927  41.468  40.981   6.306
 3617POPC   D2A48928  41.727  41.117   6.653
 3617POPC   C3A48929  41.695  40.922   7.063
 3617POPC   C4A48930  41.441  40.600   7.211
 3617POPC   C1B48931  41.009  40.934   6.047
 3617POPC   C2B48932  41.001  40.905   6.511
 3617POPC   C3B48933  41.202  41.005   6.886
 3617POPC   C4B48934  41.133  41.006   7.334
 3618POPC   NC348935  17.488  10.785   5.504
 3618POPC   PO448936  18.023  10.421   5.407
 3618POPC   GL148937  17.854  10.367   5.797
 3618POPC   GL248938  17.960  10.708   5.830
 3618POPC   C1A48939  17.656  10.425   6.212
 3618POPC   D2A48940  17.250  10.450   6.471
 3618POPC   C3A48941  17.357  10.334   6.890
 3618POPC   C4A48942  17.781  10.217   7.048
 3618POPC   C1B48943  17.895  10.898   6.211
 3618POPC   C2B48944  17.622  10.839   6.537
 3618POPC   C3B48945  17.741  10.694   6.890
 3618POPC   C4B48946  17.531  10.643   7.263
 3619POPC   NC348947  22.346  33.407   5.480
 3619POPC   PO448948  21.989  32.809   5.267
 3619POPC   GL148949  22.167  32.963   5.656
 3619POPC   GL248950  21.942  33.215   5.806
 3619POPC   C1A48951  22.303  32.885   6.102
 3619POPC   D2A48952  22.129  32.824   6.551
 3619POPC   C3A48953  22.287  32.904   6.966
 3619POPC   C4A48954  22.163  32.850   7.414
 3619POPC   C1B48955  22.016  33.273   6.264
 3619POPC   C2B48956  21.861  33.270   6.684
 3619POPC   C3B48957  21.863  33.130   7.093
 3619POPC   C4B48958  21.799  33.205   7.523
 3620POPC   NC348959  12.847  43.368   5.233
 3620POPC   PO448960  13.025  42.614   5.259
 3620POPC   GL148961  12.792  42.925   5.595
 3620POPC   GL248962  13.041  43.199   5.704
 3620POPC   C1A48963  12.758  43.013   6.072
 3620POPC   D2A48964  12.890  43.222   6.474
 3620POPC   C3A48965  12.791  42.971   6.832
 3620POPC   C4A48966  12.884  43.029   7.237
 3620POPC   C1B48967  13.259  43.221   6.123
 3620POPC   C2B48968  13.350  43.465   6.519
 3620POPC   C3B48969  13.261  43.250   6.912
 3620POPC   C4B48970  13.432  43.145   7.319
 3621POPC   NC348971   7.307  11.465   5.364
 3621POPC   PO448972   7.638  10.860   5.467
 3621POPC   GL148973   7.475  11.085   5.869
 3621POPC   GL248974   7.166  11.284   5.894
 3621POPC   C1A48975   7.332  11.086   6.344
 3621POPC   D2A48976   7.382  10.864   6.757
 3621POPC   C3A48977   7.571  11.111   7.130
 3621POPC   C4A48978   7.645  11.327   7.554
 3621POPC   C1B48979   6.825  11.181   6.218
 3621POPC   C2B48980   6.860  11.308   6.645
 3621POPC   C3B48981   7.047  11.243   7.038
 3621POPC   C4B48982   7.189  11.434   7.393
 3622POPC   NC348983  39.936  39.082   5.541
 3622POPC   PO448984  40.348  39.633   5.345
 3622POPC   GL148985  40.290  39.361   5.759
 3622POPC   GL248986  40.475  39.059   5.825
 3622POPC   C1A48987  40.016  39.395   6.141
 3622POPC   D2A48988  39.654  39.396   6.432
 3622POPC   C3A48989  39.784  39.228   6.843
 3622POPC   C4A48990  39.696  39.280   7.272
 3622POPC   C1B48991  40.315  38.978   6.236
 3622POPC   C2B48992  40.254  39.255   6.606
 3622POPC   C3B48993  40.260  39.320   7.062
 3622POPC   C4B48994  40.105  38.986   7.315
 3623POPC   NC348995  26.861   7.758   5.371
 3623POPC   PO448996  27.245   7.212   5.153
 3623POPC   GL148997  26.922   7.371   5.656
 3623POPC   GL248998  27.095   7.678   5.816
 3623POPC   C1A48999  26.743   7.397   6.124
 3623POPC   D2A49000  26.550   7.621   6.527
 3623POPC   C3A49001  26.657   7.444   6.979
 3623POPC   C4A49002  26.794   7.473   7.438
 3623POPC   C1B49003  27.158   7.670   6.262
 3623POPC   C2B49004  27.047   7.566   6.684
 3623POPC   C3B49005  27.094   7.740   7.105
 3623POPC   C4B49006  27.145   7.820   7.575
 3624POPC   NC349007   6.383  29.175   5.418
 3624POPC   PO449008   6.939  29.459   5.437
 3624POPC   GL149009   6.779  29.185   5.774
 3624POPC   GL249010   6.632  28.841   5.715
 3624POPC   C1A49011   6.572  29.190   6.171
 3624POPC   D2A49012   6.484  29.339   6.593
 3624POPC   C3A49013   6.705  29.296   6.943
 3624POPC   C4A49014   6.877  29.361   7.324
 3624POPC   C1B49015   6.469  28.670   6.087
 3624POPC   C2B49016   6.442  28.814   6.501
 3624POPC   C3B49017   6.373  28.901   6.923
 3624POPC   C4B49018   6.626  28.917   7.288
 3625POPC   NC349019  12.323  21.019   5.460
 3625POPC   PO449020  11.707  20.732   5.351
 3625POPC   GL149021  11.991  20.719   5.734
 3625POPC   GL249022  12.173  20.410   5.765
 3625POPC   C1A49023  11.951  20.734   6.198
 3625POPC   D2A49024  11.757  20.844   6.618
 3625POPC   C3A49025  11.948  20.826   7.082
 3625POPC   C4A49026  11.721  20.853   7.525
 3625POPC   C1B49027  12.243  20.279   6.200
 3625POPC   C2B49028  12.248  20.178   6.636
 3625POPC   C3B49029  12.072  20.310   7.025
 3625POPC   C4B49030  12.085  20.501   7.460
 3626POPC   NC349031   2.340  14.706   5.200
 3626POPC   PO449032   1.986  14.060   5.303
 3626POPC   GL149033   1.753  14.341   5.583
 3626POPC   GL249034   2.064  14.473   5.753
 3626POPC   C1A49035   1.627  14.396   6.033
 3626POPC   D2A49036   1.828  14.474   6.438
 3626POPC   C3A49037   1.687  14.512   6.872
 3626POPC   C4A49038   1.837  14.516   7.301
 3626POPC   C1B49039   2.255  14.522   6.178
 3626POPC   C2B49040   2.314  14.371   6.589
 3626POPC   C3B49041   2.201  14.582   6.943
 3626POPC   C4B49042   2.476  14.635   7.285
 3627POPC   NC349043  36.821  39.834   5.414
 3627POPC   PO449044  37.296  40.282   5.319
 3627POPC   GL149045  37.055  40.245   5.723
 3627POPC   GL249046  37.071  39.904   5.869
 3627POPC   C1A49047  36.964  40.265   6.190
 3627POPC   D2A49048  37.070  39.870   6.426
 3627POPC   C3A49049  37.027  39.881   6.872
 3627POPC   C4A49050  37.028  40.168   7.224
 3627POPC   C1B49051  36.695  39.727   6.093
 3627POPC   C2B49052  36.684  39.521   6.506
 3627POPC   C3B49053  36.537  39.723   6.860
 3627POPC   C4B49054  36.572  39.899   7.232
 3628POPC   NC349055  31.658  22.936   5.359
 3628POPC   PO449056  31.121  23.104   5.662
 3628POPC   GL149057  31.460  22.784   5.805
 3628POPC   GL249058  31.786  22.941   5.850
 3628POPC   C1A49059  31.626  22.616   6.204
 3628POPC   D2A49060  31.568  22.794   6.616
 3628POPC   C3A49061  31.635  22.586   7.026
 3628POPC   C4A49062  31.407  22.659   7.463
 3628POPC   C1B49063  31.547  23.126   6.189
 3628POPC   C2B49064  31.647  23.300   6.570
 3628POPC   C3B49065  31.525  23.195   6.960
 3628POPC   C4B49066  31.777  23.018   7.272
 3629POPC   NC349067  22.447  32.643   5.170
 3629POPC   PO449068  22.316  32.024   5.517
 3629POPC   GL149069  22.036  32.106   5.839
 3629POPC   GL249070  22.130  32.463   5.818
 3629POPC   C1A49071  22.042  31.975   6.282
 3629POPC   D2A49072  22.398  31.988   6.576
 3629POPC   C3A49073  22.342  32.361   6.836
 3629POPC   C4A49074  22.108  32.096   7.111
 3629POPC   C1B49075  21.887  32.557   6.180
 3629POPC   C2B49076  21.855  32.381   6.601
 3629POPC   C3B49077  21.877  32.587   7.012
 3629POPC   C4B49078  21.902  32.423   7.429
 3630POPC   NC349079  19.821  12.552   5.392
 3630POPC   PO449080  20.072  13.103   5.130
 3630POPC   GL149081  20.015  13.006   5.613
 3630POPC   GL249082  20.007  12.669   5.836
 3630POPC   C1A49083  19.916  13.084   6.085
 3630POPC   D2A49084  19.891  12.748   6.419
 3630POPC   C3A49085  19.912  12.877   6.828
 3630POPC   C4A49086  19.636  13.062   7.095
 3630POPC   C1B49087  19.672  12.435   6.057
 3630POPC   C2B49088  19.492  12.394   6.460
 3630POPC   C3B49089  19.448  12.606   6.843
 3630POPC   C4B49090  19.662  12.578   7.239
 3631POPC   NC349091   4.820   4.094   5.556
 3631POPC   PO449092   5.365   4.390   5.366
 3631POPC   GL149093   5.275   4.259   5.760
 3631POPC   GL249094   4.998   4.449   5.862
 3631POPC   C1A49095   5.177   4.036   6.148
 3631POPC   D2A49096   5.199   4.252   6.566
 3631POPC   C3A49097   5.169   4.063   7.002
 3631POPC   C4A49098   5.319   4.222   7.406
 3631POPC   C1B49099   4.771   4.624   6.206
 3631POPC   C2B49100   4.582   4.593   6.589
 3631POPC   C3B49101   4.801   4.428   6.890
 3631POPC   C4B49102   4.823   4.319   7.295
 3632POPC   NC349103   4.680  31.844   5.275
 3632POPC   PO449104   5.367  31.590   5.251
 3632POPC   GL149105   5.244  31.693   5.669
 3632POPC   GL249106   4.930  31.559   5.641
 3632POPC   C1A49107   5.390  31.711   6.121
 3632POPC   D2A49108   5.291  31.901   6.531
 3632POPC   C3A49109   5.392  31.813   6.956
 3632POPC   C4A49110   5.145  31.809   7.333
 3632POPC   C1B49111   5.073  31.315   6.006
 3632POPC   C2B49112   4.971  31.427   6.441
 3632POPC   C3B49113   4.949  31.551   6.877
 3632POPC   C4B49114   4.900  31.377   7.283
 3633POPC   NC349115  22.460  16.476   5.508
 3633POPC   PO449116  22.978  16.744   5.167
 3633POPC   GL149117  22.862  16.844   5.617
 3633POPC   GL249118  22.830  16.614   5.889
 3633POPC   C1A49119  22.866  17.091   6.035
 3633POPC   D2A49120  22.733  17.132   6.481
 3633POPC   C3A49121  22.885  16.888   6.852
 3633POPC   C4A49122  22.837  16.933   7.314
 3633POPC   C1B49123  22.942  16.628   6.350
 3633POPC   C2B49124  23.240  16.537   6.703
 3633POPC   C3B49125  23.134  16.530   7.152
 3633POPC   C4B49126  22.832  16.356   7.467
 3634POPC   NC349127  33.830  10.347   5.482
 3634POPC   PO449128  33.911   9.721   5.436
 3634POPC   GL149129  33.769   9.939   5.805
 3634POPC   GL249130  34.086  10.088   5.916
 3634POPC   C1A49131  33.807   9.783   6.242
 3634POPC   D2A49132  34.000   9.601   6.601
 3634POPC   C3A49133  33.778   9.539   7.003
 3634POPC   C4A49134  33.934   9.617   7.419
 3634POPC   C1B49135  34.349  10.205   6.278
 3634POPC   C2B49136  34.223  10.104   6.701
 3634POPC   C3B49137  33.784  10.020   6.847
 3634POPC   C4B49138  33.608   9.993   7.293
 3635POPC   NC349139   9.835   9.179   5.525
 3635POPC   PO449140   9.719   8.473   5.486
 3635POPC   GL149141   9.603   8.782   5.823
 3635POPC   GL249142   9.917   8.914   5.962
 3635POPC   C1A49143   9.519   8.907   6.288
 3635POPC   D2A49144   9.729   9.054   6.697
 3635POPC   C3A49145   9.562   9.009   7.137
 3635POPC   C4A49146   9.428   8.692   7.497
 3635POPC   C1B49147  10.259   9.043   6.244
 3635POPC   C2B49148  10.213   9.212   6.667
 3635POPC   C3B49149  10.153   9.002   7.088
 3635POPC   C4B49150   9.923   8.867   7.461
 3636POPC   NC349151   2.352   4.051   5.459
 3636POPC   PO449152   2.164   3.435   5.360
 3636POPC   GL149153   1.877   3.505   5.734
 3636POPC   GL249154   2.063   3.784   5.800
 3636POPC   C1A49155   1.701   3.682   6.139
 3636POPC   D2A49156   1.723   3.621   6.579
 3636POPC   C3A49157   1.789   3.895   6.934
 3636POPC   C4A49158   1.625   3.690   7.300
 3636POPC   C1B49159   2.177   3.502   6.178
 3636POPC   C2B49160   2.113   3.283   6.578
 3636POPC   C3B49161   1.976   3.413   6.984
 3636POPC   C4B49162   2.222   3.512   7.313
 3637POPC   NC349163   4.806   6.743   5.503
 3637POPC   PO449164   4.286   6.555   5.281
 3637POPC   GL149165   4.244   6.430   5.668
 3637POPC   GL249166   4.101   6.756   5.752
 3637POPC   C1A49167   4.305   6.360   6.088
 3637POPC   D2A49168   4.068   6.384   6.459
 3637POPC   C3A49169   4.301   6.376   6.832
 3637POPC   C4A49170   4.171   6.553   7.231
 3637POPC   C1B49171   4.224   6.852   6.183
 3637POPC   C2B49172   4.508   6.756   6.559
 3637POPC   C3B49173   4.606   6.740   7.028
 3637POPC   C4B49174   4.362   7.011   7.354
 3638POPC   NC349175  31.662   5.618   5.469
 3638POPC   PO449176  31.357   6.174   5.528
 3638POPC   GL149177  31.323   5.842   5.796
 3638POPC   GL249178  31.657   5.915   5.878
 3638POPC   C1A49179  31.298   5.916   6.232
 3638POPC   D2A49180  31.469   5.809   6.610
 3638POPC   C3A49181  31.380   6.023   6.978
 3638POPC   C4A49182  30.976   6.030   7.229
 3638POPC   C1B49183  31.886   5.937   6.257
 3638POPC   C2B49184  31.901   6.088   6.638
 3638POPC   C3B49185  31.876   5.879   6.996
 3638POPC   C4B49186  31.818   6.166   7.307
 3639POPC   NC349187  16.898  14.489   5.438
 3639POPC   PO449188  16.407  14.918   5.579
 3639POPC   GL149189  16.601  14.628   5.836
 3639POPC   GL249190  16.465  14.319   5.682
 3639POPC   C1A49191  16.915  14.565   6.168
 3639POPC   D2A49192  16.819  14.737   6.580
 3639POPC   C3A49193  16.835  14.554   7.011
 3639POPC   C4A49194  16.706  14.629   7.470
 3639POPC   C1B49195  16.607  14.155   6.081
 3639POPC   C2B49196  16.729  14.226   6.520
 3639POPC   C3B49197  16.496  14.171   6.898
 3639POPC   C4B49198  16.625  14.143   7.309
 3640POPC   NC349199  40.012  15.606   5.119
 3640POPC   PO449200  39.645  16.186   5.420
 3640POPC   GL149201  39.795  15.951   5.790
 3640POPC   GL249202  39.850  15.612   5.685
 3640POPC   C1A49203  40.112  15.917   6.155
 3640POPC   D2A49204  40.177  16.101   6.590
 3640POPC   C3A49205  39.768  16.180   6.777
 3640POPC   C4A49206  39.631  16.133   7.196
 3640POPC   C1B49207  39.791  15.516   6.148
 3640POPC   C2B49208  39.739  15.568   6.626
 3640POPC   C3B49209  39.962  15.772   6.991
 3640POPC   C4B49210  40.308  15.835   7.277
 3641POPC   NC349211   7.514  27.025   5.325
 3641POPC   PO449212   7.425  26.349   5.338
 3641POPC   GL149213   7.337  26.686   5.683
 3641POPC   GL249214   7.668  26.870   5.790
 3641POPC   C1A49215   7.271  26.855   6.115
 3641POPC   D2A49216   7.236  27.013   6.537
 3641POPC   C3A49217   7.268  26.711   6.900
 3641POPC   C4A49218   7.049  26.616   7.290
 3641POPC   C1B49219   7.756  26.701   6.220
 3641POPC   C2B49220   7.722  26.879   6.622
 3641POPC   C3B49221   7.776  26.775   7.056
 3641POPC   C4B49222   7.535  26.525   7.377
 3642POPC   NC349223   8.503   6.200   5.616
 3642POPC   PO449224   8.122   5.647   5.519
 3642POPC   GL149225   7.950   5.965   5.809
 3642POPC   GL249226   8.148   5.792   6.014
 3642POPC   C1A49227   8.040   6.218   6.236
 3642POPC   D2A49228   8.302   6.015   6.586
 3642POPC   C3A49229   8.301   6.129   7.057
 3642POPC   C4A49230   8.050   6.088   7.468
 3642POPC   C1B49231   8.316   5.433   6.166
 3642POPC   C2B49232   8.456   5.472   6.567
 3642POPC   C3B49233   8.227   5.583   6.895
 3642POPC   C4B49234   8.301   5.669   7.303
 3643POPC   NC349235  42.094  26.097   5.268
 3643POPC   PO449236  42.699  25.857   5.406
 3643POPC   GL149237  42.352  25.971   5.690
 3643POPC   GL249238  42.192  25.696   5.803
 3643POPC   C1A49239  42.344  26.060   6.142
 3643POPC   D2A49240  42.187  26.193   6.556
 3643POPC   C3A49241  42.275  26.198   7.075
 3643POPC   C4A49242  42.234  26.057   7.552
 3643POPC   C1B49243  42.007  25.703   6.160
 3643POPC   C2B49244  42.231  25.661   6.491
 3643POPC   C3B49245  42.169  25.759   6.871
 3643POPC   C4B49246  42.281  25.658   7.250
 3644POPC   NC349247  38.503  39.546   5.101
 3644POPC   PO449248  38.679  38.923   5.341
 3644POPC   GL149249  38.570  39.012   5.749
 3644POPC   GL249250  38.823  39.246   5.800
 3644POPC   C1A49251  38.243  39.051   6.050
 3644POPC   D2A49252  38.174  39.367   6.330
 3644POPC   C3A49253  38.343  39.304   6.746
 3644POPC   C4A49254  38.295  39.539   7.115
 3644POPC   C1B49255  38.693  39.262   6.243
 3644POPC   C2B49256  38.867  39.119   6.632
 3644POPC   C3B49257  38.780  39.197   7.040
 3644POPC   C4B49258  38.411  39.070   7.267
 3645POPC   NC349259  19.255  34.804   5.339
 3645POPC   PO449260  18.593  34.517   5.292
 3645POPC   GL149261  18.849  34.686   5.643
 3645POPC   GL249262  19.047  34.384   5.600
 3645POPC   C1A49263  19.183  34.659   5.990
 3645POPC   D2A49264  19.185  34.431   6.334
 3645POPC   C3A49265  19.227  34.661   6.679
 3645POPC   C4A49266  19.062  34.650   7.091
 3645POPC   C1B49267  18.774  34.308   5.986
 3645POPC   C2B49268  18.803  34.103   6.412
 3645POPC   C3B49269  18.790  34.221   6.867
 3645POPC   C4B49270  18.962  34.167   7.282
 3646POPC   NC349271   7.665   3.778   5.390
 3646POPC   PO449272   7.042   3.778   5.514
 3646POPC   GL149273   7.336   3.651   5.837
 3646POPC   GL249274   7.674   3.849   5.878
 3646POPC   C1A49275   7.216   3.448   6.228
 3646POPC   D2A49276   7.189   3.461   6.669
 3646POPC   C3A49277   7.522   3.376   6.928
 3646POPC   C4A49278   7.654   3.467   7.338
 3646POPC   C1B49279   7.691   3.636   6.252
 3646POPC   C2B49280   7.554   3.807   6.622
 3646POPC   C3B49281   7.676   3.863   7.027
 3646POPC   C4B49282   7.518   3.964   7.445
 3647POPC   NC349283   4.453  39.942   5.353
 3647POPC   PO449284   3.971  40.355   5.340
 3647POPC   GL149285   4.031  40.014   5.688
 3647POPC   GL249286   4.360  39.888   5.846
 3647POPC   C1A49287   3.983  39.927   6.153
 3647POPC   D2A49288   4.311  39.934   6.480
 3647POPC   C3A49289   4.212  39.917   6.900
 3647POPC   C4A49290   4.396  40.098   7.260
 3647POPC   C1B49291   4.322  39.535   6.169
 3647POPC   C2B49292   4.325  39.419   6.595
 3647POPC   C3B49293   4.522  39.532   6.943
 3647POPC   C4B49294   4.370  39.609   7.325
 3648POPC   NC349295   9.352   3.548   5.514
 3648POPC   PO449296   8.724   3.259   5.364
 3648POPC   GL149297   8.900   3.459   5.763
 3648POPC   GL249298   9.211   3.282   5.912
 3648POPC   C1A49299   9.086   3.754   6.102
 3648POPC   D2A49300   9.258   3.709   6.533
 3648POPC   C3A49301   8.930   3.713   6.842
 3648POPC   C4A49302   8.933   3.499   7.206
 3648POPC   C1B49303   8.997   3.290   6.330
 3648POPC   C2B49304   9.094   3.241   6.789
 3648POPC   C3B49305   9.357   3.175   7.184
 3648POPC   C4B49306   9.535   3.039   7.589
 3649POPC   NC349307   4.523   5.022   5.332
 3649POPC   PO449308   3.964   5.242   5.546
 3649POPC   GL149309   4.260   4.950   5.779
 3649POPC   GL249310   4.636   4.795   5.751
 3649POPC   C1A49311   4.292   4.822   6.208
 3649POPC   D2A49312   4.248   5.003   6.625
 3649POPC   C3A49313   4.380   4.840   7.028
 3649POPC   C4A49314   4.166   4.933   7.413
 3649POPC   C1B49315   4.690   5.100   6.028
 3649POPC   C2B49316   4.733   5.082   6.460
 3649POPC   C3B49317   4.809   5.062   6.900
 3649POPC   C4B49318   4.831   4.827   7.301
 3650POPC   NC349319   5.612  39.168   5.661
 3650POPC   PO449320   5.058  39.057   5.275
 3650POPC   GL149321   5.066  39.075   5.752
 3650POPC   GL249322   5.163  39.395   5.797
 3650POPC   C1A49323   5.223  39.010   6.202
 3650POPC   D2A49324   5.385  39.046   6.638
 3650POPC   C3A49325   5.110  38.898   6.972
 3650POPC   C4A49326   5.192  39.020   7.400
 3650POPC   C1B49327   4.830  39.370   6.107
 3650POPC   C2B49328   4.825  39.290   6.559
 3650POPC   C3B49329   5.025  39.407   6.948
 3650POPC   C4B49330   4.835  39.406   7.347
 3651POPC   NC349331  36.076  15.504   5.234
 3651POPC   PO449332  36.358  14.905   5.213
 3651POPC   GL149333  36.363  15.095   5.741
 3651POPC   GL249334  36.653  15.067   5.826
 3651POPC   C1A49335  36.227  14.965   6.195
 3651POPC   D2A49336  36.182  14.777   6.630
 3651POPC   C3A49337  36.022  15.008   7.009
 3651POPC   C4A49338  35.882  15.402   7.188
 3651POPC   C1B49339  36.639  15.306   6.163
 3651POPC   C2B49340  36.467  15.242   6.580
 3651POPC   C3B49341  36.381  15.382   6.990
 3651POPC   C4B49342  36.426  15.114   7.326
 3652POPC   NC349343  15.816  37.382   5.414
 3652POPC   PO449344  16.186  38.017   5.432
 3652POPC   GL149345  15.945  37.777   5.709
 3652POPC   GL249346  15.615  37.919   5.723
 3652POPC   C1A49347  16.015  37.544   6.090
 3652POPC   D2A49348  16.191  37.737   6.462
 3652POPC   C3A49349  16.028  37.640   6.877
 3652POPC   C4A49350  16.180  37.696   7.302
 3652POPC   C1B49351  15.514  37.651   6.102
 3652POPC   C2B49352  15.670  37.439   6.493
 3652POPC   C3B49353  15.508  37.593   6.890
 3652POPC   C4B49354  15.657  37.746   7.283
 3653POPC   NC349355  23.277  22.908   5.446
 3653POPC   PO449356  22.666  23.239   5.368
 3653POPC   GL149357  22.948  23.274   5.719
 3653POPC   GL249358  22.875  22.924   5.791
 3653POPC   C1A49359  23.030  23.217   6.183
 3653POPC   D2A49360  22.964  22.917   6.550
 3653POPC   C3A49361  22.910  23.082   6.959
 3653POPC   C4A49362  23.263  23.218   7.216
 3653POPC   C1B49363  22.767  22.669   6.138
 3653POPC   C2B49364  22.705  22.463   6.544
 3653POPC   C3B49365  22.812  22.575   6.950
 3653POPC   C4B49366  22.961  22.740   7.342
 3654POPC   NC349367  18.562   0.768   5.408
 3654POPC   PO449368  17.892   0.441   5.441
 3654POPC   GL149369  18.245   0.408   5.761
 3654POPC   GL249370  18.268   0.754   5.838
 3654POPC   C1A49371  18.428   0.319   6.216
 3654POPC   D2A49372  18.550   0.534   6.642
 3654POPC   C3A49373  18.556   0.346   7.058
 3654POPC   C4A49374  18.131   0.267   7.228
 3654POPC   C1B49375  18.249   0.794   6.287
 3654POPC   C2B49376  18.219   0.964   6.683
 3654POPC   C3B49377  18.225   0.742   7.019
 3654POPC   C4B49378  18.003   0.807   7.364
 3655POPC   NC349379  12.931  27.831   5.536
 3655POPC   PO449380  12.730  27.158   5.397
 3655POPC   GL149381  12.701  27.402   5.777
 3655POPC   GL249382  12.497  27.711   5.764
 3655POPC   C1A49383  13.001  27.472   6.112
 3655POPC   D2A49384  13.164  27.609   6.497
 3655POPC   C3A49385  12.952  27.515   6.873
 3655POPC   C4A49386  12.885  27.603   7.298
 3655POPC   C1B49387  12.542  27.695   6.211
 3655POPC   C2B49388  12.689  27.893   6.607
 3655POPC   C3B49389  12.539  27.813   7.014
 3655POPC   C4B49390  12.381  27.556   7.345
 3656POPC   NC349391  30.171  16.450   5.468
 3656POPC   PO449392  29.864  16.913   5.466
 3656POPC   GL149393  29.974  17.114   5.865
 3656POPC   GL249394  30.232  16.863   5.897
 3656POPC   C1A49395  29.967  17.050   6.338
 3656POPC   D2A49396  30.089  16.716   6.647
 3656POPC   C3A49397  29.921  16.731   7.073
 3656POPC   C4A49398  29.720  17.011   7.370
 3656POPC   C1B49399  30.444  17.149   6.189
 3656POPC   C2B49400  30.397  17.124   6.623
 3656POPC   C3B49401  30.056  17.190   6.898
 3656POPC   C4B49402  30.214  17.139   7.301
 3657POPC   NC349403  22.757  23.762   5.417
 3657POPC   PO449404  23.404  23.671   5.423
 3657POPC   GL149405  23.124  23.815   5.803
 3657POPC   GL249406  22.748  23.962   5.894
 3657POPC   C1A49407  23.087  23.742   6.254
 3657POPC   D2A49408  22.883  23.492   6.589
 3657POPC   C3A49409  22.934  23.579   7.003
 3657POPC   C4A49410  23.203  23.699   7.358
 3657POPC   C1B49411  22.593  23.872   6.342
 3657POPC   C2B49412  22.559  23.896   6.802
 3657POPC   C3B49413  22.474  23.697   7.216
 3657POPC   C4B49414  22.712  23.800   7.613
 3658POPC   NC349415  12.570   6.738   5.393
 3658POPC   PO449416  13.306   6.458   5.386
 3658POPC   GL149417  13.084   6.596   5.759
 3658POPC   GL249418  12.745   6.618   5.871
 3658POPC   C1A49419  13.127   6.617   6.213
 3658POPC   D2A49420  13.070   6.392   6.595
 3658POPC   C3A49421  13.109   6.576   7.005
 3658POPC   C4A49422  12.935   6.472   7.384
 3658POPC   C1B49423  12.626   6.567   6.323
 3658POPC   C2B49424  12.742   6.798   6.711
 3658POPC   C3B49425  12.701   6.891   7.172
 3658POPC   C4B49426  12.482   6.739   7.535
 3659POPC   NC349427   6.869  37.569   5.290
 3659POPC   PO449428   6.593  38.185   5.237
 3659POPC   GL149429   6.612  37.910   5.606
 3659POPC   GL249430   6.297  37.948   5.706
 3659POPC   C1A49431   6.712  37.742   6.039
 3659POPC   D2A49432   6.616  37.851   6.482
 3659POPC   C3A49433   6.751  37.625   6.869
 3659POPC   C4A49434   6.780  37.636   7.317
 3659POPC   C1B49435   6.214  37.891   6.149
 3659POPC   C2B49436   6.119  37.812   6.583
 3659POPC   C3B49437   6.275  37.843   7.027
 3659POPC   C4B49438   6.280  37.786   7.502
 3660POPC   NC349439  43.143  29.515   5.375
 3660POPC   PO449440  43.158  28.807   5.361
 3660POPC   GL149441  43.144  29.113   5.727
 3660POPC   GL249442  42.867  29.396   5.788
 3660POPC   C1A49443  43.188  29.251   6.151
 3660POPC   D2A49444  42.963  29.346   6.512
 3660POPC   C3A49445  43.149  29.223   6.926
 3660POPC   C4A49446  43.121  29.367   7.334
 3660POPC   C1B49447  42.556  29.477   6.135
 3660POPC   C2B49448  42.504  29.612   6.576
 3660POPC   C3B49449  42.724  29.497   6.939
 3660POPC   C4B49450  42.631  29.420   7.355
 3661POPC   NC349451  21.148  28.033   5.475
 3661POPC   PO449452  21.752  28.494   5.432
 3661POPC   GL149453  21.613  28.198   5.728
 3661POPC   GL249454  21.330  28.424   5.738
 3661POPC   C1A49455  21.395  28.100   6.137
 3661POPC   D2A49456  21.165  28.291   6.497
 3661POPC   C3A49457  21.330  28.311   6.931
 3661POPC   C4A49458  21.547  28.108   7.271
 3661POPC   C1B49459  21.491  28.604   6.114
 3661POPC   C2B49460  21.569  28.642   6.560
 3661POPC   C3B49461  21.549  28.798   6.995
 3661POPC   C4B49462  21.601  28.798   7.473
 3662POPC   NC349463   4.229  35.429   5.372
 3662POPC   PO449464   4.627  34.832   5.460
 3662POPC   GL149465   4.388  35.135   5.767
 3662POPC   GL249466   4.413  35.525   5.840
 3662POPC   C1A49467   4.386  35.199   6.222
 3662POPC   D2A49468   4.185  35.324   6.593
 3662POPC   C3A49469   4.267  35.059   6.954
 3662POPC   C4A49470   4.556  34.982   7.294
 3662POPC   C1B49471   4.051  35.596   6.151
 3662POPC   C2B49472   3.990  35.830   6.544
 3662POPC   C3B49473   4.079  35.659   6.957
 3662POPC   C4B49474   4.201  35.416   7.321
 3663POPC   NC349475  10.108  42.752   5.531
 3663POPC   PO449476   9.623  43.212   5.275
 3663POPC   GL149477   9.830  43.213   5.688
 3663POPC   GL249478   9.773  42.894   5.875
 3663POPC   C1A49479   9.857  43.303   6.162
 3663POPC   D2A49480   9.670  43.127   6.531
 3663POPC   C3A49481   9.910  43.068   6.943
 3663POPC   C4A49482   9.770  43.273   7.343
 3663POPC   C1B49483   9.408  42.817   6.129
 3663POPC   C2B49484   9.250  42.810   6.536
 3663POPC   C3B49485   9.387  42.966   6.951
 3663POPC   C4B49486   9.270  42.779   7.342
 3664POPC   NC349487  30.142   7.032   5.420
 3664POPC   PO449488  29.694   7.616   5.306
 3664POPC   GL149489  29.949   7.477   5.648
 3664POPC   GL249490  29.755   7.211   5.692
 3664POPC   C1A49491  30.046   7.302   6.088
 3664POPC   D2A49492  30.126   7.174   6.496
 3664POPC   C3A49493  29.967   7.359   6.850
 3664POPC   C4A49494  30.166   7.395   7.219
 3664POPC   C1B49495  29.537   7.140   6.048
 3664POPC   C2B49496  29.606   7.258   6.467
 3664POPC   C3B49497  29.480   7.232   6.891
 3664POPC   C4B49498  29.614   7.390   7.292
 3665POPC   NC349499   0.961  30.159   5.469
 3665POPC   PO449500   1.429  29.855   5.389
 3665POPC   GL149501   1.235  29.865   5.841
 3665POPC   GL249502   0.878  29.851   5.891
 3665POPC   C1A49503   1.159  30.011   6.313
 3665POPC   D2A49504   0.999  29.993   6.772
 3665POPC   C3A49505   1.305  30.082   7.120
 3665POPC   C4A49506   1.370  30.284   7.510
 3665POPC   C1B49507   1.023  29.531   6.218
 3665POPC   C2B49508   1.208  29.527   6.660
 3665POPC   C3B49509   1.103  29.617   7.118
 3665POPC   C4B49510   0.996  29.890   7.500
 3666POPC   NC349511  15.964  42.654   5.352
 3666POPC   PO449512  15.757  43.293   5.229
 3666POPC   GL149513  15.846  43.095   5.684
 3666POPC   GL249514  15.895  42.748   5.843
 3666POPC   C1A49515  16.102  43.154   6.094
 3666POPC   D2A49516  16.418  43.171   6.452
 3666POPC   C3A49517  16.212  43.207   6.860
 3666POPC   C4A49518  15.894  43.166   7.169
 3666POPC   C1B49519  15.951  42.712   6.299
 3666POPC   C2B49520  15.832  42.912   6.684
 3666POPC   C3B49521  15.941  42.673   7.031
 3666POPC   C4B49522  16.019  42.726   7.474
 3667POPC   NC349523   3.131  12.508   5.390
 3667POPC   PO449524   2.849  13.107   5.296
 3667POPC   GL149525   2.922  12.869   5.705
 3667POPC   GL249526   2.621  12.922   5.831
 3667POPC   C1A49527   2.903  12.751   6.202
 3667POPC   D2A49528   2.671  12.874   6.610
 3667POPC   C3A49529   2.854  12.755   7.028
 3667POPC   C4A49530   3.017  12.423   7.263
 3667POPC   C1B49531   2.324  12.969   6.197
 3667POPC   C2B49532   2.171  13.145   6.581
 3667POPC   C3B49533   2.345  13.149   6.985
 3667POPC   C4B49534   2.495  12.936   7.349
 3668POPC   NC349535  30.603  41.757   5.473
 3668POPC   PO449536  31.081  41.209   5.527
 3668POPC   GL149537  30.866  41.446   5.884
 3668POPC   GL249538  30.880  41.820   5.893
 3668POPC   C1A49539  30.687  41.559   6.308
 3668POPC   D2A49540  30.807  41.621   6.719
 3668POPC   C3A49541  30.539  41.563   7.088
 3668POPC   C4A49542  30.624  41.298   7.472
 3668POPC   C1B49543  30.947  42.029   6.254
 3668POPC   C2B49544  31.102  42.028   6.649
 3668POPC   C3B49545  30.975  41.979   7.024
 3668POPC   C4B49546  31.030  41.559   7.181
 3669POPC   NC349547  37.628  25.479   5.427
 3669POPC   PO449548  37.746  24.880   5.514
 3669POPC   GL149549  37.615  25.105   5.869
 3669POPC   GL249550  37.608  25.484   5.928
 3669POPC   C1A49551  37.691  25.152   6.306
 3669POPC   D2A49552  37.429  25.114   6.653
 3669POPC   C3A49553  37.639  25.025   7.012
 3669POPC   C4A49554  37.639  25.218   7.406
 3669POPC   C1B49555  37.451  25.652   6.323
 3669POPC   C2B49556  37.225  25.581   6.700
 3669POPC   C3B49557  37.402  25.513   7.086
 3669POPC   C4B49558  37.361  25.622   7.540
 3670POPC   NC349559   4.483  23.203   5.379
 3670POPC   PO449560   3.968  22.738   5.434
 3670POPC   GL149561   4.325  22.847   5.734
 3670POPC   GL249562   4.564  22.566   5.736
 3670POPC   C1A49563   4.515  22.921   6.161
 3670POPC   D2A49564   4.620  23.118   6.599
 3670POPC   C3A49565   4.541  22.916   7.037
 3670POPC   C4A49566   4.363  23.039   7.455
 3670POPC   C1B49567   4.291  22.475   6.129
 3670POPC   C2B49568   4.196  22.710   6.529
 3670POPC   C3B49569   4.030  22.653   6.958
 3670POPC   C4B49570   4.092  22.617   7.411
 3671POPC   NC349571   2.887  23.310   5.402
 3671POPC   PO449572   3.198  23.928   5.354
 3671POPC   GL149573   3.077  23.704   5.766
 3671POPC   GL249574   2.750  23.554   5.827
 3671POPC   C1A49575   3.023  23.721   6.258
 3671POPC   D2A49576   2.887  23.869   6.721
 3671POPC   C3A49577   3.032  23.731   7.144
 3671POPC   C4A49578   3.090  23.549   7.574
 3671POPC   C1B49579   2.503  23.602   6.207
 3671POPC   C2B49580   2.408  23.696   6.653
 3671POPC   C3B49581   2.449  23.785   7.090
 3671POPC   C4B49582   2.184  23.829   7.487
 3672POPC   NC349583  16.309  20.726   5.444
 3672POPC   PO449584  16.673  20.181   5.525
 3672POPC   GL149585  16.449  20.419   5.859
 3672POPC   GL249586  16.606  20.707   5.961
 3672POPC   C1A49587  16.469  20.354   6.309
 3672POPC   D2A49588  16.844  20.416   6.555
 3672POPC   C3A49589  16.784  20.515   6.974
 3672POPC   C4A49590  16.592  20.630   7.412
 3672POPC   C1B49591  16.888  20.925   6.260
 3672POPC   C2B49592  16.971  20.963   6.723
 3672POPC   C3B49593  16.900  20.959   7.177
 3672POPC   C4B49594  16.854  20.987   7.646
 3673POPC   NC349595  16.971  44.819   5.410
 3673POPC   PO449596  17.664  44.641   5.367
 3673POPC   GL149597  17.385  44.646   5.681
 3673POPC   GL249598  17.319  44.302   5.763
 3673POPC   C1A49599  17.420  44.794   6.100
 3673POPC   D2A49600  17.454  44.605   6.515
 3673POPC   C3A49601  17.550  44.826   6.887
 3673POPC   C4A49602  17.613   0.095   7.252
 3673POPC   C1B49603  17.681  44.332   6.091
 3673POPC   C2B49604  17.930  44.403   6.509
 3673POPC   C3B49605  17.737  44.338   6.961
 3673POPC   C4B49606  17.519  44.536   7.315
 3674POPC   NC349607  25.396  10.093   5.437
 3674POPC   PO449608  25.915   9.638   5.276
 3674POPC   GL149609  25.984   9.543   5.702
 3674POPC   GL249610  26.071   9.873   5.867
 3674POPC   C1A49611  25.950   9.449   6.140
 3674POPC   D2A49612  25.726   9.485   6.533
 3674POPC   C3A49613  25.950   9.623   6.897
 3674POPC   C4A49614  26.337   9.771   7.071
 3674POPC   C1B49615  25.722   9.924   6.165
 3674POPC   C2B49616  25.736  10.014   6.599
 3674POPC   C3B49617  26.059  10.153   6.855
 3674POPC   C4B49618  25.981  10.114   7.269
 3675POPC   NC349619  10.602  11.769   5.368
 3675POPC   PO449620  10.302  11.164   5.334
 3675POPC   GL149621  10.490  11.299   5.706
 3675POPC   GL249622  10.831  11.397   5.691
 3675POPC   C1A49623  10.474  11.156   6.150
 3675POPC   D2A49624  10.770  11.108   6.512
 3675POPC   C3A49625  10.599  11.204   6.931
 3675POPC   C4A49626  10.267  11.384   7.223
 3675POPC   C1B49627  10.689  11.593   6.099
 3675POPC   C2B49628  10.501  11.533   6.537
 3675POPC   C3B49629  10.560  11.712   6.951
 3675POPC   C4B49630  10.699  11.609   7.391
 3676POPC   NC349631  33.415   3.818   5.277
 3676POPC   PO449632  32.965   3.335   5.380
 3676POPC   GL149633  33.144   3.542   5.744
 3676POPC   GL249634  32.818   3.509   5.881
 3676POPC   C1A49635  33.156   3.638   6.245
 3676POPC   D2A49636  33.142   3.585   6.725
 3676POPC   C3A49637  33.383   3.840   7.051
 3676POPC   C4A49638  33.235   3.892   7.495
 3676POPC   C1B49639  32.784   3.240   6.249
 3676POPC   C2B49640  32.782   3.030   6.629
 3676POPC   C3B49641  32.988   3.154   6.966
 3676POPC   C4B49642  33.066   3.468   7.242
 3677POPC   NC349643  23.252  18.253   5.648
 3677POPC   PO449644  22.756  18.645   5.237
 3677POPC   GL149645  22.725  18.618   5.766
 3677POPC   GL249646  22.748  18.326   5.865
 3677POPC   C1A49647  22.988  18.562   6.242
 3677POPC   D2A49648  23.136  18.250   6.604
 3677POPC   C3A49649  23.294  18.365   7.026
 3677POPC   C4A49650  23.156  18.505   7.439
 3677POPC   C1B49651  22.498  18.398   6.222
 3677POPC   C2B49652  22.624  18.229   6.629
 3677POPC   C3B49653  22.764  18.390   7.042
 3677POPC   C4B49654  22.712  18.754   7.312
 3678POPC   NC349655  15.280  19.569   5.494
 3678POPC   PO449656  15.014  20.174   5.378
 3678POPC   GL149657  15.137  20.155   5.795
 3678POPC   GL249658  15.409  19.946   5.816
 3678POPC   C1A49659  15.045  19.953   6.209
 3678POPC   D2A49660  15.117  19.648   6.560
 3678POPC   C3A49661  15.086  19.826   6.968
 3678POPC   C4A49662  15.054  20.163   7.248
 3678POPC   C1B49663  15.546  19.786   6.234
 3678POPC   C2B49664  15.642  19.597   6.625
 3678POPC   C3B49665  15.570  19.685   7.053
 3678POPC   C4B49666  15.782  19.605   7.426
 3679POPC   NC349667  18.032  44.932   5.431
 3679POPC   PO449668  18.620  44.681   5.343
 3679POPC   GL149669  18.380  44.483   5.686
 3679POPC   GL249670  18.316  44.796   5.875
 3679POPC   C1A49671  18.348  44.342   6.144
 3679POPC   D2A49672  18.500  44.400   6.577
 3679POPC   C3A49673  18.231  44.455   6.928
 3679POPC   C4A49674  17.978  44.752   7.157
 3679POPC   C1B49675  18.219  44.826   6.347
 3679POPC   C2B49676  18.260  44.983   6.785
 3679POPC   C3B49677  18.473  44.858   7.192
 3679POPC   C4B49678  18.373   0.027   7.612
 3680POPC   NC349679  17.278   3.567   5.376
 3680POPC   PO449680  17.899   3.802   5.260
 3680POPC   GL149681  17.716   3.743   5.713
 3680POPC   GL249682  17.543   3.428   5.786
 3680POPC   C1A49683  17.525   3.790   6.169
 3680POPC   D2A49684  17.598   3.886   6.614
 3680POPC   C3A49685  17.301   3.850   6.984
 3680POPC   C4A49686  17.088   3.777   7.378
 3680POPC   C1B49687  17.816   3.365   6.133
 3680POPC   C2B49688  17.617   3.352   6.547
 3680POPC   C3B49689  17.422   3.324   6.961
 3680POPC   C4B49690  17.692   3.295   7.347
 3681POPC   NC349691  44.088  11.520   5.622
 3681POPC   PO449692  43.797  10.995   5.286
 3681POPC   GL149693  43.765  11.137   5.715
 3681POPC   GL249694  43.524  11.403   5.677
 3681POPC   C1A49695  43.861  11.330   6.158
 3681POPC   D2A49696  44.023  11.295   6.545
 3681POPC   C3A49697  43.786  11.473   6.851
 3681POPC   C4A49698  43.791  11.331   7.256
 3681POPC   C1B49699  43.397  11.178   6.061
 3681POPC   C2B49700  43.517  11.164   6.499
 3681POPC   C3B49701  43.446  11.060   6.931
 3681POPC   C4B49702  43.355  11.143   7.397
 3682POPC   NC349703  12.196  11.281   5.057
 3682POPC   PO449704  12.556  11.012   5.508
 3682POPC   GL149705  12.229  11.313   5.786
 3682POPC   GL249706  12.007  11.604   5.733
 3682POPC   C1A49707  12.291  11.385   6.222
 3682POPC   D2A49708  12.468  11.029   6.494
 3682POPC   C3A49709  12.271  10.965   6.893
 3682POPC   C4A49710  12.157  11.054   7.301
 3682POPC   C1B49711  11.818  11.456   6.133
 3682POPC   C2B49712  11.925  11.619   6.557
 3682POPC   C3B49713  11.992  11.416   6.955
 3682POPC   C4B49714  11.955  11.518   7.402
 3683POPC   NC349715  43.472   3.806   5.617
 3683POPC   PO449716  43.778   4.392   5.338
 3683POPC   GL149717  43.860   4.246   5.743
 3683POPC   GL249718  43.963   3.921   5.813
 3683POPC   C1A49719  44.100   4.344   6.116
 3683POPC   D2A49720  43.990   4.326   6.538
 3683POPC   C3A49721  44.251   4.395   6.889
 3683POPC   C4A49722  44.044   4.662   7.169
 3683POPC   C1B49723  43.860   3.884   6.268
 3683POPC   C2B49724  43.859   3.898   6.761
 3683POPC   C3B49725  43.892   4.117   7.139
 3683POPC   C4B49726  43.675   4.013   7.566
 3684POPC   NC349727  15.578  40.585   5.547
 3684POPC   PO449728  16.070  40.710   5.169
 3684POPC   GL149729  16.003  40.901   5.649
 3684POPC   GL249730  15.710  40.982   5.864
 3684POPC   C1A49731  16.273  40.928   6.049
 3684POPC   D2A49732  16.384  40.880   6.497
 3684POPC   C3A49733  16.313  41.140   6.877
 3684POPC   C4A49734  16.046  40.942   7.209
 3684POPC   C1B49735  15.772  40.638   6.169
 3684POPC   C2B49736  15.602  40.469   6.505
 3684POPC   C3B49737  15.759  40.622   6.874
 3684POPC   C4B49738  15.736  40.428   7.240
 3685POPC   NC349739   5.468  20.364   5.466
 3685POPC   PO449740   5.176  19.826   5.183
 3685POPC   GL149741   5.154  19.941   5.628
 3685POPC   GL249742   4.856  19.813   5.791
 3685POPC   C1A49743   5.244  19.998   6.090
 3685POPC   D2A49744   5.152  19.796   6.479
 3685POPC   C3A49745   5.302  19.612   6.853
 3685POPC   C4A49746   5.267  19.768   7.244
 3685POPC   C1B49747   4.693  20.121   6.067
 3685POPC   C2B49748   4.763  20.123   6.515
 3685POPC   C3B49749   4.856  20.023   6.952
 3685POPC   C4B49750   4.816  20.283   7.313
 3686POPC   NC349751  27.779  11.790   5.669
 3686POPC   PO449752  27.808  11.256   5.258
 3686POPC   GL149753  27.581  11.241   5.678
 3686POPC   GL249754  27.348  10.957   5.701
 3686POPC   C1A49755  27.460  11.373   6.123
 3686POPC   D2A49756  27.292  11.393   6.548
 3686POPC   C3A49757  27.561  11.422   6.951
 3686POPC   C4A49758  27.919  11.621   7.199
 3686POPC   C1B49759  27.528  10.850   6.112
 3686POPC   C2B49760  27.662  11.032   6.511
 3686POPC   C3B49761  27.575  10.901   6.940
 3686POPC   C4B49762  27.344  10.849   7.307
 3687POPC   NC349763  37.713  34.635   5.377
 3687POPC   PO449764  37.748  34.042   5.397
 3687POPC   GL149765  37.711  34.279   5.814
 3687POPC   GL249766  37.756  34.670   5.881
 3687POPC   C1A49767  37.741  34.366   6.291
 3687POPC   D2A49768  37.806  34.674   6.645
 3687POPC   C3A49769  37.863  34.482   7.060
 3687POPC   C4A49770  37.559  34.260   7.343
 3687POPC   C1B49771  37.529  34.858   6.232
 3687POPC   C2B49772  37.318  34.992   6.612
 3687POPC   C3B49773  37.243  34.999   7.048
 3687POPC   C4B49774  37.565  34.826   7.292
 3688POPC   NC349775  10.056  38.834   5.059
 3688POPC   PO449776   9.576  38.358   5.324
 3688POPC   GL149777   9.711  38.520   5.745
 3688POPC   GL249778  10.009  38.318   5.810
 3688POPC   C1A49779   9.520  38.672   6.163
 3688POPC   D2A49780   9.594  38.827   6.602
 3688POPC   C3A49781   9.483  38.528   6.943
 3688POPC   C4A49782   9.680  38.358   7.332
 3688POPC   C1B49783  10.008  38.510   6.248
 3688POPC   C2B49784   9.954  38.435   6.701
 3688POPC   C3B49785  10.092  38.578   7.104
 3688POPC   C4B49786  10.180  38.347   7.493
 3689POPC   NC349787  24.068  20.601   5.275
 3689POPC   PO449788  23.425  20.815   5.461
 3689POPC   GL149789  23.585  20.490   5.729
 3689POPC   GL249790  23.388  20.160   5.745
 3689POPC   C1A49791  23.812  20.555   6.114
 3689POPC   D2A49792  23.885  20.904   6.407
 3689POPC   C3A49793  23.875  20.777   6.845
 3689POPC   C4A49794  23.835  20.892   7.275
 3689POPC   C1B49795  23.351  20.332   6.152
 3689POPC   C2B49796  23.313  20.155   6.569
 3689POPC   C3B49797  23.314  20.278   6.992
 3689POPC   C4B49798  23.604  20.463   7.241
 3690POPC   NC349799  11.288  13.143   5.487
 3690POPC   PO449800  10.851  13.556   5.744
 3690POPC   GL149801  11.269  13.408   5.977
 3690POPC   GL249802  11.618  13.549   6.016
 3690POPC   C1A49803  11.355  13.397   6.449
 3690POPC   D2A49804  11.165  13.501   6.852
 3690POPC   C3A49805  11.390  13.681   7.195
 3690POPC   C4A49806  11.564  13.929   7.538
 3690POPC   C1B49807  11.423  13.882   6.322
 3690POPC   C2B49808  11.310  14.000   6.782
 3690POPC   C3B49809  11.151  14.115   7.226
 3690POPC   C4B49810  11.111  14.083   7.720
 3691POPC   NC349811  18.928  25.159   5.316
 3691POPC   PO449812  19.069  25.881   5.333
 3691POPC   GL149813  19.045  25.508   5.724
 3691POPC   GL249814  19.189  25.177   5.750
 3691POPC   C1A49815  19.025  25.408   6.203
 3691POPC   D2A49816  19.298  25.135   6.487
 3691POPC   C3A49817  19.171  25.060   6.932
 3691POPC   C4A49818  19.262  25.258   7.324
 3691POPC   C1B49819  18.813  25.009   5.987
 3691POPC   C2B49820  18.807  24.941   6.461
 3691POPC   C3B49821  18.646  24.959   6.904
 3691POPC   C4B49822  18.805  24.934   7.331
 3692POPC   NC349823  36.655  29.362   5.349
 3692POPC   PO449824  37.118  29.070   5.611
 3692POPC   GL149825  36.855  29.316   5.833
 3692POPC   GL249826  37.064  29.606   5.860
 3692POPC   C1A49827  36.607  29.133   6.161
 3692POPC   D2A49828  36.591  28.895   6.536
 3692POPC   C3A49829  36.924  28.957   6.788
 3692POPC   C4A49830  36.752  29.206   7.099
 3692POPC   C1B49831  36.958  29.527   6.321
 3692POPC   C2B49832  37.114  29.444   6.752
 3692POPC   C3B49833  37.066  29.627   7.155
 3692POPC   C4B49834  36.845  29.446   7.521
 3693POPC   NC349835  44.211  13.303   5.545
 3693POPC   PO449836  43.760  12.801   5.401
 3693POPC   GL149837  43.795  12.664   5.798
 3693POPC   GL249838  44.140  12.809   5.823
 3693POPC   C1A49839  43.588  12.687   6.200
 3693POPC   D2A49840  43.809  12.783   6.582
 3693POPC   C3A49841  43.673  12.935   6.958
 3693POPC   C4A49842  43.881  12.833   7.372
 3693POPC   C1B49843  43.951  13.050   6.177
 3693POPC   C2B49844  44.101  13.216   6.603
 3693POPC   C3B49845  44.117  13.179   7.073
 3693POPC   C4B49846  44.175  13.281   7.542
 3694POPC   NC349847  41.426  33.156   5.397
 3694POPC   PO449848  41.897  32.726   5.508
 3694POPC   GL149849  41.552  32.843   5.766
 3694POPC   GL249850  41.764  33.131   5.823
 3694POPC   C1A49851  41.320  33.106   6.086
 3694POPC   D2A49852  41.108  33.145   6.495
 3694POPC   C3A49853  41.318  33.133   6.900
 3694POPC   C4A49854  41.292  33.259   7.322
 3694POPC   C1B49855  41.807  33.005   6.250
 3694POPC   C2B49856  41.780  33.186   6.650
 3694POPC   C3B49857  41.845  33.055   7.050
 3694POPC   C4B49858  41.865  32.754   7.382
 3695POPC   NC349859  18.982  26.355   5.342
 3695POPC   PO449860  18.890  27.074   5.365
 3695POPC   GL149861  19.061  26.823   5.738
 3695POPC   GL249862  19.306  27.064   5.818
 3695POPC   C1A49863  19.079  26.760   6.221
 3695POPC   D2A49864  18.898  26.809   6.655
 3695POPC   C3A49865  19.118  26.643   7.031
 3695POPC   C4A49866  19.052  26.843   7.374
 3695POPC   C1B49867  19.500  27.081   6.201
 3695POPC   C2B49868  19.304  27.115   6.569
 3695POPC   C3B49869  19.416  27.050   6.943
 3695POPC   C4B49870  19.540  26.929   7.309
 3696POPC   NC349871   3.917  11.537   5.304
 3696POPC   PO449872   4.383  12.045   5.450
 3696POPC   GL149873   4.347  12.235   5.827
 3696POPC   GL249874   4.418  11.893   5.945
 3696POPC   C1A49875   4.219  12.206   6.268
 3696POPC   D2A49876   4.246  12.007   6.632
 3696POPC   C3A49877   4.409  12.232   6.966
 3696POPC   C4A49878   4.348  12.412   7.349
 3696POPC   C1B49879   4.038  11.733   6.158
 3696POPC   C2B49880   3.884  11.646   6.571
 3696POPC   C3B49881   4.135  11.634   6.963
 3696POPC   C4B49882   4.189  11.915   7.305
 3697POPC   NC349883  16.597  24.381   5.275
 3697POPC   PO449884  17.090  24.874   5.337
 3697POPC   GL149885  16.920  24.561   5.640
 3697POPC   GL249886  16.601  24.630   5.746
 3697POPC   C1A49887  16.864  24.355   6.085
 3697POPC   D2A49888  16.681  24.441   6.469
 3697POPC   C3A49889  16.705  24.182   6.833
 3697POPC   C4A49890  16.648  24.255   7.252
 3697POPC   C1B49891  16.718  24.876   6.126
 3697POPC   C2B49892  16.626  24.941   6.572
 3697POPC   C3B49893  16.515  24.668   6.922
 3697POPC   C4B49894  16.477  24.730   7.348
 3698POPC   NC349895  22.461  40.125   5.453
 3698POPC   PO449896  21.809  39.918   5.296
 3698POPC   GL149897  21.994  40.147   5.691
 3698POPC   GL249898  22.298  40.131   5.924
 3698POPC   C1A49899  21.855  40.198   6.121
 3698POPC   D2A49900  22.100  39.967   6.428
 3698POPC   C3A49901  21.967  40.060   6.828
 3698POPC   C4A49902  21.827  39.970   7.245
 3698POPC   C1B49903  22.336  40.433   6.272
 3698POPC   C2B49904  22.489  40.358   6.662
 3698POPC   C3B49905  22.498  39.980   6.814
 3698POPC   C4B49906  22.330  40.053   7.204
 3699POPC   NC349907  36.160  16.662   5.324
 3699POPC   PO449908  35.763  17.151   5.497
 3699POPC   GL149909  36.097  16.868   5.793
 3699POPC   GL249910  36.234  16.490   5.947
 3699POPC   C1A49911  36.159  16.855   6.261
 3699POPC   D2A49912  36.091  16.993   6.662
 3699POPC   C3A49913  36.079  16.752   7.042
 3699POPC   C4A49914  36.036  16.377   7.254
 3699POPC   C1B49915  36.546  16.470   6.317
 3699POPC   C2B49916  36.611  16.610   6.780
 3699POPC   C3B49917  36.567  16.487   7.245
 3699POPC   C4B49918  36.465  16.442   7.737
 3700POPC   NC349919  16.629  32.148   5.230
 3700POPC   PO449920  17.158  32.425   5.553
 3700POPC   GL149921  16.834  32.243   5.780
 3700POPC   GL249922  16.614  32.526   5.943
 3700POPC   C1A49923  16.795  32.147   6.229
 3700POPC   D2A49924  16.780  32.536   6.469
 3700POPC   C3A49925  16.704  32.408   6.869
 3700POPC   C4A49926  16.904  32.100   7.093
 3700POPC   C1B49927  16.324  32.396   6.278
 3700POPC   C2B49928  16.270  32.194   6.703
 3700POPC   C3B49929  16.325  32.235   7.174
 3700POPC   C4B49930  16.318  32.440   7.606
 3701POPC   NC349931  24.489  13.155   5.321
 3701POPC   PO449932  24.329  12.425   5.383
 3701POPC   GL149933  24.403  12.702   5.768
 3701POPC   GL249934  24.741  12.810   5.840
 3701POPC   C1A49935  24.172  12.759   6.153
 3701POPC   D2A49936  24.086  12.949   6.545
 3701POPC   C3A49937  24.178  12.726   6.921
 3701POPC   C4A49938  24.418  12.713   7.259
 3701POPC   C1B49939  24.627  12.939   6.300
 3701POPC   C2B49940  24.502  13.171   6.701
 3701POPC   C3B49941  24.563  13.195   7.135
 3701POPC   C4B49942  24.957  13.363   7.250
 3702POPC   NC349943  40.429  26.191   5.347
 3702POPC   PO449944  40.858  25.734   5.313
 3702POPC   GL149945  40.802  25.968   5.695
 3702POPC   GL249946  40.984  25.740   5.914
 3702POPC   C1A49947  40.570  26.182   6.060
 3702POPC   D2A49948  40.584  26.073   6.519
 3702POPC   C3A49949  40.413  26.275   6.870
 3702POPC   C4A49950  40.485  26.333   7.291
 3702POPC   C1B49951  41.081  26.175   6.090
 3702POPC   C2B49952  40.997  26.395   6.491
 3702POPC   C3B49953  40.957  26.186   6.882
 3702POPC   C4B49954  40.700  25.875   7.090
 3703POPC   NC349955  27.737   3.454   5.446
 3703POPC   PO449956  27.190   3.850   5.524
 3703POPC   GL149957  27.540   3.825   5.871
 3703POPC   GL249958  27.719   3.526   5.953
 3703POPC   C1A49959  27.610   3.883   6.348
 3703POPC   D2A49960  27.778   3.713   6.761
 3703POPC   C3A49961  27.585   3.800   7.185
 3703POPC   C4A49962  27.606   3.825   7.651
 3703POPC   C1B49963  27.493   3.383   6.302
 3703POPC   C2B49964  27.347   3.450   6.704
 3703POPC   C3B49965  27.557   3.306   7.059
 3703POPC   C4B49966  27.730   3.320   7.456
 3704POPC   NC349967  11.036  40.870   5.582
 3704POPC   PO449968  11.620  41.107   5.426
 3704POPC   GL149969  11.506  40.871   5.852
 3704POPC   GL249970  11.585  40.504   5.896
 3704POPC   C1A49971  11.292  40.761   6.282
 3704POPC   D2A49972  11.043  40.989   6.655
 3704POPC   C3A49973  11.181  41.011   7.102
 3704POPC   C4A49974  11.015  40.876   7.518
 3704POPC   C1B49975  11.698  40.326   6.282
 3704POPC   C2B49976  11.507  40.455   6.652
 3704POPC   C3B49977  11.204  40.531   6.932
 3704POPC   C4B49978  11.407  40.585   7.327
 3705POPC   NC349979  36.278  37.270   5.316
 3705POPC   PO449980  35.780  36.789   5.351
 3705POPC   GL149981  36.103  36.892   5.710
 3705POPC   GL249982  36.408  37.109   5.777
 3705POPC   C1A49983  36.213  36.741   6.144
 3705POPC   D2A49984  36.232  36.504   6.549
 3705POPC   C3A49985  35.991  36.608   6.912
 3705POPC   C4A49986  36.058  36.959   7.175
 3705POPC   C1B49987  36.593  37.074   6.192
 3705POPC   C2B49988  36.468  36.946   6.610
 3705POPC   C3B49989  36.478  37.170   6.992
 3705POPC   C4B49990  36.487  37.047   7.441
 3706POPC   NC349991  34.260   6.047   5.324
 3706POPC   PO449992  33.635   5.848   5.420
 3706POPC   GL149993  33.908   5.826   5.807
 3706POPC   GL249994  34.008   6.162   5.741
 3706POPC   C1A49995  33.808   5.875   6.290
 3706POPC   D2A49996  33.800   5.927   6.737
 3706POPC   C3A49997  33.544   5.730   7.059
 3706POPC   C4A49998  33.642   5.658   7.512
 3706POPC   C1B49999  34.179   6.177   6.127
 3706POPC   C2B50000  34.193   6.336   6.549
 3706POPC   C3B50001  34.213   6.114   6.950
 3706POPC   C4B50002  34.016   5.841   7.213
 3707POPC   NC350003   6.913   8.576   5.371
 3707POPC   PO450004   6.401   8.985   5.255
 3707POPC   GL150005   6.675   8.970   5.622
 3707POPC   GL250006   6.509   8.671   5.724
 3707POPC   C1A50007   6.740   9.153   6.067
 3707POPC   D2A50008   6.524   9.199   6.495
 3707POPC   C3A50009   6.677   9.329   6.916
 3707POPC   C4A50010   6.580   9.301   7.373
 3707POPC   C1B50011   6.661   8.641   6.154
 3707POPC   C2B50012   6.589   8.687   6.587
 3707POPC   C3B50013   6.816   8.773   6.962
 3707POPC   C4B50014   6.644   8.792   7.370
 3708POPC   NC350015  28.524   8.246   5.266
 3708POPC   PO450016  27.939   8.177   5.456
 3708POPC   GL150017  28.288   8.322   5.708
 3708POPC   GL250018  28.089   8.348   5.929
 3708POPC   C1A50019  28.545   8.472   6.092
 3708POPC   D2A50020  28.682   8.236   6.457
 3708POPC   C3A50021  28.442   8.196   6.837
 3708POPC   C4A50022  28.600   8.156   7.266
 3708POPC   C1B50023  28.148   8.214   6.357
 3708POPC   C2B50024  28.005   7.957   6.670
 3708POPC   C3B50025  28.046   7.997   7.102
 3708POPC   C4B50026  28.142   8.362   7.356
 3709POPC   NC350027  29.256  43.347   5.373
 3709POPC   PO450028  29.392  44.051   5.375
 3709POPC   GL150029  29.296  44.014   5.814
 3709POPC   GL250030  28.937  43.933   5.868
 3709POPC   C1A50031  29.333  43.914   6.249
 3709POPC   D2A50032  29.090  44.109   6.583
 3709POPC   C3A50033  29.114  43.937   6.993
 3709POPC   C4A50034  29.377  43.855   7.333
 3709POPC   C1B50035  28.910  43.610   6.244
 3709POPC   C2B50036  28.934  43.535   6.694
 3709POPC   C3B50037  28.869  43.519   7.144
 3709POPC   C4B50038  28.898  43.754   7.494
 3710POPC   NC350039  34.074   7.695   5.373
 3710POPC   PO450040  34.565   7.151   5.443
 3710POPC   GL150041  34.469   7.557   5.687
 3710POPC   GL250042  34.672   7.887   5.676
 3710POPC   C1A50043  34.422   7.505   6.114
 3710POPC   D2A50044  34.684   7.282   6.398
 3710POPC   C3A50045  34.634   7.353   6.834
 3710POPC   C4A50046  34.588   7.193   7.231
 3710POPC   C1B50047  34.568   8.000   6.110
 3710POPC   C2B50048  34.436   7.854   6.509
 3710POPC   C3B50049  34.391   7.794   6.941
 3710POPC   C4B50050  34.572   7.718   7.328
 3711POPC   NC350051  18.580   8.119   5.342
 3711POPC   PO450052  18.027   8.437   5.379
 3711POPC   GL150053  18.288   8.323   5.739
 3711POPC   GL250054  18.313   7.967   5.834
 3711POPC   C1A50055  18.279   8.332   6.198
 3711POPC   D2A50056  18.409   8.150   6.585
 3711POPC   C3A50057  18.246   8.326   6.982
 3711POPC   C4A50058  18.211   8.720   7.223
 3711POPC   C1B50059  17.982   7.925   6.174
 3711POPC   C2B50060  18.015   7.827   6.618
 3711POPC   C3B50061  18.292   7.805   6.973
 3711POPC   C4B50062  18.205   7.892   7.386
 3712POPC   NC350063  41.279  25.907   5.456
 3712POPC   PO450064  41.973  25.652   5.322
 3712POPC   GL150065  41.746  25.886   5.661
 3712POPC   GL250066  41.772  26.254   5.627
 3712POPC   C1A50067  41.489  25.851   6.072
 3712POPC   D2A50068  41.209  25.811   6.449
 3712POPC   C3A50069  41.390  25.822   6.878
 3712POPC   C4A50070  41.399  26.172   7.160
 3712POPC   C1B50071  41.861  26.186   6.063
 3712POPC   C2B50072  41.722  26.019   6.482
 3712POPC   C3B50073  41.808  26.142   6.878
 3712POPC   C4B50074  41.843  25.941   7.239
 3713POPC   NC350075   6.863  40.349   5.501
 3713POPC   PO450076   6.502  39.832   5.394
 3713POPC   GL150077   6.737  39.950   5.791
 3713POPC   GL250078   7.085  39.821   5.706
 3713POPC   C1A50079   6.717  40.241   6.166
 3713POPC   D2A50080   6.951  40.290   6.562
 3713POPC   C3A50081   6.796  40.381   6.992
 3713POPC   C4A50082   6.576  40.175   7.337
 3713POPC   C1B50083   7.008  39.592   6.081
 3713POPC   C2B50084   6.774  39.802   6.433
 3713POPC   C3B50085   6.595  39.761   6.822
 3713POPC   C4B50086   6.735  39.694   7.229
 3714POPC   NC350087  10.812  12.310   5.203
 3714POPC   PO450088  10.202  11.960   5.519
 3714POPC   GL150089  10.265  11.751   5.851
 3714POPC   GL250090  10.060  11.494   5.933
 3714POPC   C1A50091  10.336  11.923   6.243
 3714POPC   D2A50092  10.655  12.014   6.523
 3714POPC   C3A50093  10.463  12.204   6.870
 3714POPC   C4A50094  10.531  12.113   7.281
 3714POPC   C1B50095  10.025  11.524   6.387
 3714POPC   C2B50096  10.095  11.839   6.712
 3714POPC   C3B50097  10.110  11.863   7.163
 3714POPC   C4B50098  10.251  11.782   7.609
 3715POPC   NC350099  18.480  10.670   5.442
 3715POPC   PO450100  18.163  11.238   5.297
 3715POPC   GL150101  18.161  11.446   5.748
 3715POPC   GL250102  18.443  11.665   5.878
 3715POPC   C1A50103  18.163  11.351   6.201
 3715POPC   D2A50104  18.306  11.021   6.513
 3715POPC   C3A50105  18.147  11.039   6.941
 3715POPC   C4A50106  18.146  11.129   7.389
 3715POPC   C1B50107  18.479  11.747   6.311
 3715POPC   C2B50108  18.333  11.528   6.678
 3715POPC   C3B50109  18.304  11.539   7.125
 3715POPC   C4B50110  18.396  11.506   7.631
 3716POPC   NC350111  14.985   7.282   5.157
 3716POPC   PO450112  15.468   7.643   5.410
 3716POPC   GL150113  15.230   7.274   5.696
 3716POPC   GL250114  14.837   7.240   5.779
 3716POPC   C1A50115  15.304   7.100   6.159
 3716POPC   D2A50116  15.388   7.331   6.585
 3716POPC   C3A50117  15.447   7.224   7.042
 3716POPC   C4A50118  15.311   7.361   7.481
 3716POPC   C1B50119  14.825   7.237   6.274
 3716POPC   C2B50120  14.900   7.227   6.749
 3716POPC   C3B50121  14.969   7.534   7.106
 3716POPC   C4B50122  14.892   7.649   7.561
 3717POPC   NC350123  23.410  38.305   5.449
 3717POPC   PO450124  24.011  38.689   5.404
 3717POPC   GL150125  23.792  38.525   5.748
 3717POPC   GL250126  23.868  38.804   5.953
 3717POPC   C1A50127  23.631  38.415   6.164
 3717POPC   D2A50128  23.602  38.292   6.603
 3717POPC   C3A50129  23.627  38.542   6.967
 3717POPC   C4A50130  23.795  38.367   7.328
 3717POPC   C1B50131  23.919  38.798   6.415
 3717POPC   C2B50132  24.079  38.801   6.848
 3717POPC   C3B50133  24.209  38.651   7.250
 3717POPC   C4B50134  23.999  38.738   7.637
 3718POPC   NC350135  44.917   3.575   5.371
 3718POPC   PO450136  44.314   3.886   5.442
 3718POPC   GL150137  44.580   3.574   5.760
 3718POPC   GL250138  44.957   3.641   5.889
 3718POPC   C1A50139  44.679   3.310   6.151
 3718POPC   D2A50140  44.571   3.414   6.579
 3718POPC   C3A50141  44.764   3.319   6.948
 3718POPC   C4A50142  44.595   3.570   7.269
 3718POPC   C1B50143  44.850   3.773   6.345
 3718POPC   C2B50144  44.864   3.791   6.830
 3718POPC   C3B50145   0.068   3.696   7.253
 3718POPC   C4B50146   0.016   3.658   7.697
 3719POPC   NC350147  26.935  37.335   5.099
 3719POPC   PO450148  26.541  36.867   5.255
 3719POPC   GL150149  26.670  36.998   5.726
 3719POPC   GL250150  26.347  37.040   5.875
 3719POPC   C1A50151  26.862  36.794   6.153
 3719POPC   D2A50152  26.994  36.572   6.554
 3719POPC   C3A50153  27.024  36.761   6.996
 3719POPC   C4A50154  27.156  37.015   7.351
 3719POPC   C1B50155  26.416  36.580   6.098
 3719POPC   C2B50156  26.499  36.455   6.563
 3719POPC   C3B50157  26.557  36.557   7.006
 3719POPC   C4B50158  26.642  36.905   7.316
 3720POPC   NC350159   0.452  10.382   5.074
 3720POPC   PO450160   0.613  10.971   5.261
 3720POPC   GL150161   0.435  10.736   5.677
 3720POPC   GL250162   0.194  10.433   5.593
 3720POPC   C1A50163   0.495  10.771   6.177
 3720POPC   D2A50164   0.433  10.890   6.656
 3720POPC   C3A50165   0.353  10.549   7.000
 3720POPC   C4A50166   0.503  10.261   7.336
 3720POPC   C1B50167   0.115  10.447   6.055
 3720POPC   C2B50168   0.223  10.384   6.501
 3720POPC   C3B50169  44.958  10.229   6.855
 3720POPC   C4B50170   0.017  10.108   7.260
 3721POPC   NC350171  19.244   8.604   5.337
 3721POPC   PO450172  18.994   8.013   5.162
 3721POPC   GL150173  19.058   8.136   5.617
 3721POPC   GL250174  18.854   8.457   5.638
 3721POPC   C1A50175  19.227   8.141   6.076
 3721POPC   D2A50176  19.231   7.950   6.507
 3721POPC   C3A50177  19.383   8.108   6.889
 3721POPC   C4A50178  19.199   8.351   7.226
 3721POPC   C1B50179  18.743   8.296   6.017
 3721POPC   C2B50180  18.878   8.308   6.434
 3721POPC   C3B50181  18.850   8.205   6.865
 3721POPC   C4B50182  18.695   8.504   7.177
 3722POPC   NC350183   1.933  17.756   4.948
 3722POPC   PO450184   2.094  17.302   5.340
 3722POPC   GL150185   2.091  17.218   5.839
 3722POPC   GL250186   1.899  17.511   5.986
 3722POPC   C1A50187   2.137  17.268   6.358
 3722POPC   D2A50188   2.375  17.534   6.711
 3722POPC   C3A50189   2.135  17.515   7.118
 3722POPC   C4A50190   1.982  17.580   7.562
 3722POPC   C1B50191   2.103  17.786   6.337
 3722POPC   C2B50192   2.106  17.976   6.778
 3722POPC   C3B50193   1.857  17.947   7.177
 3722POPC   C4B50194   1.520  17.681   7.382
 3723POPC   NC350195   6.428   1.788   5.333
 3723POPC   PO450196   7.001   2.166   5.371
 3723POPC   GL150197   6.906   1.952   5.762
 3723POPC   GL250198   6.876   2.279   5.896
 3723POPC   C1A50199   6.709   1.894   6.206
 3723POPC   D2A50200   6.465   1.968   6.592
 3723POPC   C3A50201   6.626   1.771   6.973
 3723POPC   C4A50202   6.346   1.868   7.296
 3723POPC   C1B50203   7.166   2.363   6.200
 3723POPC   C2B50204   7.087   2.163   6.556
 3723POPC   C3B50205   6.838   2.221   6.880
 3723POPC   C4B50206   6.819   2.135   7.300
 3724POPC   NC350207  20.514  25.944   5.362
 3724POPC   PO450208  20.375  26.530   5.610
 3724POPC   GL150209  20.573  26.242   5.901
 3724POPC   GL250210  20.645  25.894   5.849
 3724POPC   C1A50211  20.522  26.139   6.340
 3724POPC   D2A50212  20.388  26.353   6.696
 3724POPC   C3A50213  20.603  26.266   7.088
 3724POPC   C4A50214  20.468  26.376   7.549
 3724POPC   C1B50215  20.974  26.032   6.160
 3724POPC   C2B50216  21.009  26.084   6.617
 3724POPC   C3B50217  20.923  25.827   7.003
 3724POPC   C4B50218  20.524  25.714   7.199
 3725POPC   NC350219   4.269  34.431   5.424
 3725POPC   PO450220   4.943  34.496   5.211
 3725POPC   GL150221   4.680  34.384   5.722
 3725POPC   GL250222   4.575  34.657   5.934
 3725POPC   C1A50223   4.277  34.254   6.078
 3725POPC   D2A50224   4.066  34.333   6.536
 3725POPC   C3A50225   4.329  34.533   6.864
 3725POPC   C4A50226   4.570  34.466   7.252
 3725POPC   C1B50227   4.376  34.699   6.347
 3725POPC   C2B50228   3.984  34.844   6.565
 3725POPC   C3B50229   3.853  34.733   6.976
 3725POPC   C4B50230   4.015  34.904   7.397
 3726POPC   NC350231  20.688  10.337   5.311
 3726POPC   PO450232  20.419  10.959   5.358
 3726POPC   GL150233  20.378  10.838   5.784
 3726POPC   GL250234  20.692  10.896   5.870
 3726POPC   C1A50235  20.342  10.728   6.247
 3726POPC   D2A50236  20.146  10.691   6.671
 3726POPC   C3A50237  20.388  10.662   7.059
 3726POPC   C4A50238  20.401  10.843   7.477
 3726POPC   C1B50239  20.885  10.764   6.250
 3726POPC   C2B50240  20.701  10.601   6.625
 3726POPC   C3B50241  20.863  10.447   7.002
 3726POPC   C4B50242  20.758  10.459   7.437
 3727POPC   NC350243  37.814  44.125   5.560
 3727POPC   PO450244  37.135  43.888   5.580
 3727POPC   GL150245  37.355  43.730   5.918
 3727POPC   GL250246  37.688  43.863   5.983
 3727POPC   C1A50247  37.334  43.854   6.360
 3727POPC   D2A50248  37.463  44.129   6.714
 3727POPC   C3A50249  37.384  43.919   7.096
 3727POPC   C4A50250  37.703  43.650   7.245
 3727POPC   C1B50251  37.659  44.279   6.248
 3727POPC   C2B50252  37.934  44.446   6.633
 3727POPC   C3B50253  38.169  44.242   6.983
 3727POPC   C4B50254  38.176  43.869   7.250
 3728POPC   NC350255  34.894  21.087   5.395
 3728POPC   PO450256  34.930  21.714   5.230
 3728POPC   GL150257  34.776  21.532   5.635
 3728POPC   GL250258  34.570  21.712   5.815
 3728POPC   C1A50259  34.698  21.308   6.063
 3728POPC   D2A50260  34.709  21.179   6.505
 3728POPC   C3A50261  34.738  21.421   6.893
 3728POPC   C4A50262  34.921  21.345   7.290
 3728POPC   C1B50263  34.327  21.727   6.189
 3728POPC   C2B50264  34.442  21.848   6.595
 3728POPC   C3B50265  34.341  21.782   7.003
 3728POPC   C4B50266  34.586  21.735   7.322
 3729POPC   NC350267  38.252  25.582   5.359
 3729POPC   PO450268  38.520  25.098   5.360
 3729POPC   GL150269  38.473  25.314   5.732
 3729POPC   GL250270  38.096  25.318   5.774
 3729POPC   C1A50271  38.490  25.387   6.170
 3729POPC   D2A50272  38.660  25.608   6.524
 3729POPC   C3A50273  38.544  25.391   6.912
 3729POPC   C4A50274  38.793  25.200   7.237
 3729POPC   C1B50275  38.022  25.549   6.184
 3729POPC   C2B50276  38.096  25.703   6.622
 3729POPC   C3B50277  37.991  25.494   7.043
 3729POPC   C4B50278  38.104  25.066   7.241
 3730POPC   NC350279  28.652  10.353   5.393
 3730POPC   PO450280  29.262  10.170   5.357
 3730POPC   GL150281  29.210  10.297   5.795
 3730POPC   GL250282  28.907  10.485   5.854
 3730POPC   C1A50283  29.387  10.222   6.214
 3730POPC   D2A50284  29.448  10.451   6.624
 3730POPC   C3A50285  29.369  10.316   7.075
 3730POPC   C4A50286  29.316  10.492   7.534
 3730POPC   C1B50287  28.979  10.491   6.332
 3730POPC   C2B50288  28.964  10.415   6.766
 3730POPC   C3B50289  29.068  10.744   7.062
 3730POPC   C4B50290  28.742  11.068   7.146
 3731POPC   NC350291  24.217  39.687   5.508
 3731POPC   PO450292  23.800  40.224   5.342
 3731POPC   GL150293  23.808  40.105   5.776
 3731POPC   GL250294  23.519  40.296   5.820
 3731POPC   C1A50295  23.894  39.905   6.193
 3731POPC   D2A50296  23.877  40.055   6.636
 3731POPC   C3A50297  23.810  39.715   6.935
 3731POPC   C4A50298  23.660  39.716   7.322
 3731POPC   C1B50299  23.470  40.182   6.219
 3731POPC   C2B50300  23.411  40.276   6.609
 3731POPC   C3B50301  23.499  40.136   6.989
 3731POPC   C4B50302  23.907  40.165   7.176
 3732POPC   NC350303  40.964  20.478   5.597
 3732POPC   PO450304  40.422  20.780   5.264
 3732POPC   GL150305  40.539  20.711   5.782
 3732POPC   GL250306  40.854  20.953   5.834
 3732POPC   C1A50307  40.578  20.377   6.179
 3732POPC   D2A50308  40.575  20.152   6.621
 3732POPC   C3A50309  40.575  20.363   7.018
 3732POPC   C4A50310  40.938  20.392   7.295
 3732POPC   C1B50311  40.840  20.797   6.256
 3732POPC   C2B50312  40.861  20.607   6.653
 3732POPC   C3B50313  40.842  20.810   7.054
 3732POPC   C4B50314  40.944  21.189   7.192
 3733POPC   NC350315  18.507  15.518   5.401
 3733POPC   PO450316  18.218  14.903   5.546
 3733POPC   GL150317  18.437  15.170   5.776
 3733POPC   GL250318  18.141  15.404   5.783
 3733POPC   C1A50319  18.529  15.434   6.110
 3733POPC   D2A50320  18.289  15.388   6.468
 3733POPC   C3A50321  18.424  15.171   6.807
 3733POPC   C4A50322  18.427  15.296   7.203
 3733POPC   C1B50323  17.989  15.127   6.140
 3733POPC   C2B50324  17.993  14.984   6.603
 3733POPC   C3B50325  17.935  15.272   6.964
 3733POPC   C4B50326  17.963  15.170   7.385
 3734POPC   NC350327  43.428   1.410   5.688
 3734POPC   PO450328  43.910   0.920   5.419
 3734POPC   GL150329  43.858   1.141   5.821
 3734POPC   GL250330  43.940   1.503   5.800
 3734POPC   C1A50331  43.605   1.018   6.215
 3734POPC   D2A50332  43.485   0.874   6.646
 3734POPC   C3A50333  43.715   0.963   7.056
 3734POPC   C4A50334  43.761   0.776   7.487
 3734POPC   C1B50335  43.931   1.440   6.258
 3734POPC   C2B50336  43.887   1.596   6.694
 3734POPC   C3B50337  43.962   1.425   7.110
 3734POPC   C4B50338  44.197   1.199   7.385
 3735POPC   NC350339  44.863  33.923   5.621
 3735POPC   PO450340  44.346  34.315   5.727
 3735POPC   GL150341  44.528  34.065   5.992
 3735POPC   GL250342  44.528  33.711   5.957
 3735POPC   C1A50343  44.575  34.079   6.414
 3735POPC   D2A50344  44.503  34.223   6.798
 3735POPC   C3A50345  44.889  34.087   6.921
 3735POPC   C4A50346   0.009  33.812   7.216
 3735POPC   C1B50347  44.745  33.608   6.315
 3735POPC   C2B50348  44.843  33.609   6.738
 3735POPC   C3B50349  44.678  33.447   7.104
 3735POPC   C4B50350  44.853  33.413   7.516
 3736POPC   NC350351  24.738  37.354   5.382
 3736POPC   PO450352  24.143  37.699   5.355
 3736POPC   GL150353  24.447  37.671   5.719
 3736POPC   GL250354  24.464  37.999   5.863
 3736POPC   C1A50355  24.673  37.564   6.130
 3736POPC   D2A50356  24.794  37.414   6.577
 3736POPC   C3A50357  24.716  37.518   7.034
 3736POPC   C4A50358  24.953  37.507   7.427
 3736POPC   C1B50359  24.357  37.937   6.298
 3736POPC   C2B50360  24.407  37.887   6.760
 3736POPC   C3B50361  24.179  37.699   7.137
 3736POPC   C4B50362  24.221  37.743   7.597
 3737POPC   NC350363  22.569  27.663   5.449
 3737POPC   PO450364  23.176  27.693   5.289
 3737POPC   GL150365  22.976  27.700   5.732
 3737POPC   GL250366  22.760  27.362   5.816
 3737POPC   C1A50367  23.031  27.716   6.177
 3737POPC   D2A50368  23.152  27.498   6.544
 3737POPC   C3A50369  23.121  27.669   6.953
 3737POPC   C4A50370  23.060  27.319   7.204
 3737POPC   C1B50371  22.543  27.512   6.205
 3737POPC   C2B50372  22.499  27.665   6.646
 3737POPC   C3B50373  22.609  27.548   7.089
 3737POPC   C4B50374  22.702  27.690   7.534
 3738POPC   NC350375   4.990  10.534   5.366
 3738POPC   PO450376   4.567  11.072   5.583
 3738POPC   GL150377   4.962  10.800   5.834
 3738POPC   GL250378   5.188  10.473   5.845
 3738POPC   C1A50379   5.142  10.790   6.254
 3738POPC   D2A50380   5.228  10.538   6.615
 3738POPC   C3A50381   5.335  10.755   6.955
 3738POPC   C4A50382   5.188  10.743   7.347
 3738POPC   C1B50383   5.305  10.200   6.225
 3738POPC   C2B50384   5.378  10.039   6.667
 3738POPC   C3B50385   5.192  10.230   7.067
 3738POPC   C4B50386   5.020   9.970   7.424
 3739POPC   NC350387  40.505   8.424   5.450
 3739POPC   PO450388  40.469   7.873   5.416
 3739POPC   GL150389  40.694   8.087   5.809
 3739POPC   GL250390  40.841   8.456   5.827
 3739POPC   C1A50391  40.715   8.199   6.282
 3739POPC   D2A50392  40.506   8.271   6.711
 3739POPC   C3A50393  40.539   8.082   7.165
 3739POPC   C4A50394  40.491   7.922   7.618
 3739POPC   C1B50395  40.896   8.701   6.208
 3739POPC   C2B50396  40.775   8.757   6.643
 3739POPC   C3B50397  40.790   8.532   7.051
 3739POPC   C4B50398  40.787   8.409   7.494
 3740POPC   NC350399  24.428  31.091   5.413
 3740POPC   PO450400  24.791  31.670   5.429
 3740POPC   GL150401  24.521  31.512   5.787
 3740POPC   GL250402  24.571  31.181   5.889
 3740POPC   C1A50403  24.426  31.633   6.233
 3740POPC   D2A50404  24.722  31.816   6.541
 3740POPC   C3A50405  24.777  31.689   6.953
 3740POPC   C4A50406  24.429  31.646   7.221
 3740POPC   C1B50407  24.684  31.199   6.292
 3740POPC   C2B50408  24.579  31.270   6.717
 3740POPC   C3B50409  24.595  31.192   7.151
 3740POPC   C4B50410  24.801  31.004   7.500
 3741POPC   NC350411  11.932   2.856   5.295
 3741POPC   PO450412  12.491   2.997   5.603
 3741POPC   GL150413  12.171   2.954   5.906
 3741POPC   GL250414  11.903   2.734   5.831
 3741POPC   C1A50415  12.248   3.041   6.335
 3741POPC   D2A50416  12.257   2.947   6.750
 3741POPC   C3A50417  11.847   2.790   6.810
 3741POPC   C4A50418  11.763   2.772   7.218
 3741POPC   C1B50419  11.937   2.604   6.281
 3741POPC   C2B50420  12.157   2.413   6.648
 3741POPC   C3B50421  12.207   2.521   7.092
 3741POPC   C4B50422  12.279   2.467   7.556
 3742POPC   NC350423  34.332   9.892   5.512
 3742POPC   PO450424  34.862   9.498   5.221
 3742POPC   GL150425  34.556   9.449   5.699
 3742POPC   GL250426  34.526   9.778   5.960
 3742POPC   C1A50427  34.286   9.375   6.130
 3742POPC   D2A50428  34.448   9.364   6.590
 3742POPC   C3A50429  34.303   9.599   7.020
 3742POPC   C4A50430  34.138  10.032   7.212
 3742POPC   C1B50431  34.755   9.667   6.326
 3742POPC   C2B50432  34.689   9.811   6.726
 3742POPC   C3B50433  34.631   9.998   7.111
 3742POPC   C4B50434  34.744   9.659   7.335
 3743POPC   NC350435  12.300  18.910   5.654
 3743POPC   PO450436  12.862  19.147   5.267
 3743POPC   GL150437  12.799  18.992   5.704
 3743POPC   GL250438  12.729  19.297   5.807
 3743POPC   C1A50439  12.660  18.871   6.175
 3743POPC   D2A50440  12.476  18.724   6.581
 3743POPC   C3A50441  12.731  18.899   6.894
 3743POPC   C4A50442  13.042  19.060   7.159
 3743POPC   C1B50443  13.059  19.183   6.177
 3743POPC   C2B50444  13.244  19.241   6.631
 3743POPC   C3B50445  13.298  19.491   7.034
 3743POPC   C4B50446  13.336  19.298   7.494
 3744POPC   NC350447  39.877   3.512   5.408
 3744POPC   PO450448  40.235   3.084   5.404
 3744POPC   GL150449  40.100   3.239   5.839
 3744POPC   GL250450  39.959   3.580   5.909
 3744POPC   C1A50451  40.164   3.305   6.312
 3744POPC   D2A50452  39.955   3.351   6.749
 3744POPC   C3A50453  40.169   3.455   7.144
 3744POPC   C4A50454  40.370   3.480   7.563
 3744POPC   C1B50455  39.721   3.563   6.308
 3744POPC   C2B50456  39.649   3.782   6.703
 3744POPC   C3B50457  39.662   3.635   7.133
 3744POPC   C4B50458  39.500   3.773   7.551
 3745POPC   NC350459  42.651  44.429   4.996
 3745POPC   PO450460  42.387  43.906   5.346
 3745POPC   GL150461  42.359  43.780   5.731
 3745POPC   GL250462  41.989  43.752   5.734
 3745POPC   C1A50463  42.512  43.613   6.149
 3745POPC   D2A50464  42.697  43.495   6.549
 3745POPC   C3A50465  42.586  43.760   6.888
 3745POPC   C4A50466  42.414  43.781   7.287
 3745POPC   C1B50467  42.145  43.987   6.130
 3745POPC   C2B50468  42.320  43.995   6.536
 3745POPC   C3B50469  42.320  44.203   6.963
 3745POPC   C4B50470  42.111  44.167   7.369
 3746POPC   NC350471   5.673  40.938   5.437
 3746POPC   PO450472   6.071  40.487   5.469
 3746POPC   GL150473   6.038  40.556   5.884
 3746POPC   GL250474   6.014  40.921   5.871
 3746POPC   C1A50475   6.176  40.508   6.310
 3746POPC   D2A50476   6.088  40.696   6.718
 3746POPC   C3A50477   6.216  40.505   7.095
 3746POPC   C4A50478   6.274  40.515   7.555
 3746POPC   C1B50479   5.773  40.818   6.261
 3746POPC   C2B50480   5.586  40.598   6.641
 3746POPC   C3B50481   5.687  40.691   7.087
 3746POPC   C4B50482   5.547  41.079   7.331
 3747POPC   NC350483   0.804   7.421   5.300
 3747POPC   PO450484   0.346   7.873   5.296
 3747POPC   GL150485   0.352   7.649   5.709
 3747POPC   GL250486   0.711   7.598   5.800
 3747POPC   C1A50487   0.212   7.470   6.128
 3747POPC   D2A50488   0.325   7.185   6.487
 3747POPC   C3A50489   0.320   7.321   6.927
 3747POPC   C4A50490   0.417   7.172   7.338
 3747POPC   C1B50491   0.749   7.479   6.236
 3747POPC   C2B50492   0.796   7.372   6.673
 3747POPC   C3B50493   0.796   7.519   7.087
 3747POPC   C4B50494   0.806   7.477   7.533
 3748POPC   NC350495   4.045   4.144   5.329
 3748POPC   PO450496   3.433   4.512   5.362
 3748POPC   GL150497   3.529   4.206   5.656
 3748POPC   GL250498   3.814   4.410   5.726
 3748POPC   C1A50499   3.473   4.302   6.095
 3748POPC   D2A50500   3.706   4.393   6.460
 3748POPC   C3A50501   3.456   4.491   6.822
 3748POPC   C4A50502   3.479   4.700   7.213
 3748POPC   C1B50503   3.911   4.034   5.986
 3748POPC   C2B50504   3.924   3.916   6.437
 3748POPC   C3B50505   3.900   4.125   6.854
 3748POPC   C4B50506   3.946   4.126   7.321
 3749POPC   NC350507  17.354  37.672   5.573
 3749POPC   PO450508  18.003  37.353   5.385
 3749POPC   GL150509  17.758  37.457   5.809
 3749POPC   GL250510  17.407  37.325   5.960
 3749POPC   C1A50511  17.606  37.680   6.227
 3749POPC   D2A50512  17.539  37.551   6.635
 3749POPC   C3A50513  17.762  37.853   6.840
 3749POPC   C4A50514  17.787  37.972   7.221
 3749POPC   C1B50515  17.104  37.542   6.266
 3749POPC   C2B50516  17.015  37.608   6.708
 3749POPC   C3B50517  17.260  37.562   7.102
 3749POPC   C4B50518  17.570  37.311   7.343
 3750POPC   NC350519  25.759  40.467   5.326
 3750POPC   PO450520  26.143  39.912   5.377
 3750POPC   GL150521  26.102  39.860   5.819
 3750POPC   GL250522  26.440  39.886   5.993
 3750POPC   C1A50523  25.900  40.114   6.150
 3750POPC   D2A50524  25.719  40.163   6.577
 3750POPC   C3A50525  25.834  40.131   7.073
 3750POPC   C4A50526  25.984  40.309   7.513
 3750POPC   C1B50527  26.210  39.723   6.311
 3750POPC   C2B50528  26.091  39.826   6.710
 3750POPC   C3B50529  26.025  39.631   7.068
 3750POPC   C4B50530  26.020  39.773   7.463
 3751POPC   NC350531  18.204  32.444   5.412
 3751POPC   PO450532  17.782  31.947   5.637
 3751POPC   GL150533  18.172  32.175   5.851
 3751POPC   GL250534  18.468  32.442   5.842
 3751POPC   C1A50535  18.246  32.274   6.262
 3751POPC   D2A50536  18.333  32.090   6.614
 3751POPC   C3A50537  18.216  32.285   6.944
 3751POPC   C4A50538  18.293  32.023   7.259
 3751POPC   C1B50539  18.526  32.691   6.179
 3751POPC   C2B50540  18.343  32.726   6.571
 3751POPC   C3B50541  18.523  32.690   6.986
 3751POPC   C4B50542  18.540  32.455   7.381
 3752POPC   NC350543   6.784  27.708   5.302
 3752POPC   PO450544   6.447  27.140   5.531
 3752POPC   GL150545   6.496  27.530   5.711
 3752POPC   GL250546   6.858  27.572   5.782
 3752POPC   C1A50547   6.337  27.708   6.086
 3752POPC   D2A50548   6.366  27.467   6.483
 3752POPC   C3A50549   6.370  27.660   6.884
 3752POPC   C4A50550   6.467  27.487   7.290
 3752POPC   C1B50551   6.866  27.781   6.173
 3752POPC   C2B50552   6.843  27.684   6.611
 3752POPC   C3B50553   6.892  27.693   7.046
 3752POPC   C4B50554   6.950  27.459   7.436
 3753POPC   NC350555  27.072   5.224   5.400
 3753POPC   PO450556  26.578   4.745   5.421
 3753POPC   GL150557  26.744   5.111   5.772
 3753POPC   GL250558  26.499   5.321   5.892
 3753POPC   C1A50559  26.995   5.337   6.096
 3753POPC   D2A50560  26.972   5.448   6.532
 3753POPC   C3A50561  26.903   5.151   6.853
 3753POPC   C4A50562  26.886   5.326   7.249
 3753POPC   C1B50563  26.589   5.158   6.289
 3753POPC   C2B50564  26.470   5.342   6.633
 3753POPC   C3B50565  26.423   5.238   7.039
 3753POPC   C4B50566  26.416   5.480   7.406
 3754POPC   NC350567   7.716  25.285   5.415
 3754POPC   PO450568   7.073  24.941   5.168
 3754POPC   GL150569   7.433  24.911   5.543
 3754POPC   GL250570   7.297  25.264   5.691
 3754POPC   C1A50571   7.584  25.042   6.034
 3754POPC   D2A50572   7.411  25.211   6.458
 3754POPC   C3A50573   7.435  25.055   6.889
 3754POPC   C4A50574   7.659  24.884   7.230
 3754POPC   C1B50575   7.383  25.546   6.075
 3754POPC   C2B50576   7.584  25.697   6.469
 3754POPC   C3B50577   7.758  25.444   6.813
 3754POPC   C4B50578   7.642  25.518   7.225
 3755POPC   NC350579  18.547  21.789   5.625
 3755POPC   PO450580  18.105  21.486   5.167
 3755POPC   GL150581  18.208  21.299   5.629
 3755POPC   GL250582  18.240  21.542   5.933
 3755POPC   C1A50583  18.059  21.106   6.067
 3755POPC   D2A50584  18.311  21.187   6.466
 3755POPC   C3A50585  18.221  21.181   6.925
 3755POPC   C4A50586  18.459  21.362   7.251
 3755POPC   C1B50587  18.379  21.697   6.337
 3755POPC   C2B50588  18.399  21.672   6.791
 3755POPC   C3B50589  18.111  21.707   7.123
 3755POPC   C4B50590  17.873  21.903   7.423
 3756POPC   NC350591   4.134  32.644   5.505
 3756POPC   PO450592   4.245  32.005   5.311
 3756POPC   GL150593   4.147  32.168   5.724
 3756POPC   GL250594   4.459  32.304   5.859
 3756POPC   C1A50595   4.081  32.093   6.160
 3756POPC   D2A50596   4.037  32.323   6.556
 3756POPC   C3A50597   4.076  32.099   6.939
 3756POPC   C4A50598   4.097  31.923   7.336
 3756POPC   C1B50599   4.473  32.422   6.321
 3756POPC   C2B50600   4.475  32.447   6.833
 3756POPC   C3B50601   4.321  32.434   7.304
 3756POPC   C4B50602   4.625  32.563   7.699
 3757POPC   NC350603  15.792  18.840   5.279
 3757POPC   PO450604  15.657  19.422   5.701
 3757POPC   GL150605  15.852  19.205   5.965
 3757POPC   GL250606  16.029  19.023   5.720
 3757POPC   C1A50607  15.837  19.094   6.396
 3757POPC   D2A50608  15.558  19.109   6.744
 3757POPC   C3A50609  15.857  19.259   7.025
 3757POPC   C4A50610  16.090  19.156   7.371
 3757POPC   C1B50611  15.787  18.719   6.023
 3757POPC   C2B50612  15.753  18.584   6.473
 3757POPC   C3B50613  15.867  18.748   6.899
 3757POPC   C4B50614  15.717  18.818   7.319
 3758POPC   NC350615  10.268  25.477   5.528
 3758POPC   PO450616  10.605  24.974   5.308
 3758POPC   GL150617  10.616  25.160   5.719
 3758POPC   GL250618  10.833  24.900   5.802
 3758POPC   C1A50619  10.435  25.293   6.126
 3758POPC   D2A50620  10.371  25.013   6.448
 3758POPC   C3A50621  10.561  25.141   6.819
 3758POPC   C4A50622  10.525  25.113   7.260
 3758POPC   C1B50623  10.869  25.049   6.233
 3758POPC   C2B50624  11.066  25.084   6.632
 3758POPC   C3B50625  11.029  24.833   6.973
 3758POPC   C4B50626  10.933  24.822   7.414
 3759POPC   NC350627  24.108  11.152   5.431
 3759POPC   PO450628  24.735  11.511   5.353
 3759POPC   GL150629  24.684  11.729   5.759
 3759POPC   GL250630  24.321  11.642   5.789
 3759POPC   C1A50631  24.732  11.649   6.222
 3759POPC   D2A50632  24.630  11.385   6.616
 3759POPC   C3A50633  24.587  11.466   7.072
 3759POPC   C4A50634  24.571  11.208   7.465
 3759POPC   C1B50635  24.277  11.407   6.221
 3759POPC   C2B50636  24.065  11.310   6.651
 3759POPC   C3B50637  24.115  11.216   7.114
 3759POPC   C4B50638  24.207  11.554   7.408
 3760POPC   NC350639  10.185  41.038   5.292
 3760POPC   PO450640  10.710  40.666   5.332
 3760POPC   GL150641  10.592  40.719   5.778
 3760POPC   GL250642  10.785  40.454   5.922
 3760POPC   C1A50643  10.770  40.866   6.211
 3760POPC   D2A50644  10.754  40.581   6.601
 3760POPC   C3A50645  10.564  40.868   6.877
 3760POPC   C4A50646  10.657  41.078   7.231
 3760POPC   C1B50647  10.416  40.507   6.227
 3760POPC   C2B50648  10.208  40.555   6.630
 3760POPC   C3B50649  10.313  40.448   7.064
 3760POPC   C4B50650  10.753  40.515   7.201
 3761POPC   NC350651  22.840   5.579   5.281
 3761POPC   PO450652  22.788   6.149   5.426
 3761POPC   GL150653  22.709   5.907   5.782
 3761POPC   GL250654  23.028   5.758   5.756
 3761POPC   C1A50655  22.761   6.033   6.203
 3761POPC   D2A50656  23.014   6.168   6.531
 3761POPC   C3A50657  22.800   6.103   6.906
 3761POPC   C4A50658  22.895   6.042   7.324
 3761POPC   C1B50659  23.244   5.878   6.141
 3761POPC   C2B50660  23.259   5.742   6.569
 3761POPC   C3B50661  23.296   5.965   6.940
 3761POPC   C4B50662  23.366   5.844   7.345
 3762POPC   NC350663  31.079  42.282   5.606
 3762POPC   PO450664  31.583  42.451   5.284
 3762POPC   GL150665  31.577  42.341   5.764
 3762POPC   GL250666  31.358  42.149   5.990
 3762POPC   C1A50667  31.766  42.358   6.203
 3762POPC   D2A50668  31.687  42.377   6.674
 3762POPC   C3A50669  31.456  42.217   7.035
 3762POPC   C4A50670  31.418  42.410   7.463
 3762POPC   C1B50671  31.488  41.983   6.345
 3762POPC   C2B50672  31.900  41.955   6.536
 3762POPC   C3B50673  31.896  41.930   6.982
 3762POPC   C4B50674  31.772  41.964   7.420
 3763POPC   NC350675  38.618  44.816   5.505
 3763POPC   PO450676  38.119  44.400   5.291
 3763POPC   GL150677  38.310  44.379   5.735
 3763POPC   GL250678  38.557  44.637   5.960
 3763POPC   C1A50679  38.146  44.470   6.175
 3763POPC   D2A50680  38.379  44.743   6.510
 3763POPC   C3A50681  38.492  44.629   6.924
 3763POPC   C4A50682  38.549  44.656   7.384
 3763POPC   C1B50683  38.675   0.038   6.203
 3763POPC   C2B50684  38.872   0.032   6.630
 3763POPC   C3B50685  38.675   0.101   7.048
 3763POPC   C4B50686  38.774   0.104   7.478
 3764POPC   NC350687  20.705   8.106   5.041
 3764POPC   PO450688  20.395   8.330   5.607
 3764POPC   GL150689  20.555   8.396   5.994
 3764POPC   GL250690  20.585   8.007   5.977
 3764POPC   C1A50691  20.886   8.294   6.280
 3764POPC   D2A50692  20.845   7.934   6.551
 3764POPC   C3A50693  20.829   8.048   6.967
 3764POPC   C4A50694  20.737   8.145   7.380
 3764POPC   C1B50695  20.383   8.049   6.355
 3764POPC   C2B50696  20.528   8.328   6.663
 3764POPC   C3B50697  20.374   8.332   7.034
 3764POPC   C4B50698  20.049   8.520   7.210
 3765POPC   NC350699   7.721   0.374   5.091
 3765POPC   PO450700   7.038   0.589   5.240
 3765POPC   GL150701   7.320   0.314   5.533
 3765POPC   GL250702   7.695   0.369   5.670
 3765POPC   C1A50703   7.308   0.402   6.002
 3765POPC   D2A50704   7.427   0.575   6.437
 3765POPC   C3A50705   7.240   0.420   6.845
 3765POPC   C4A50706   7.224   0.538   7.282
 3765POPC   C1B50707   7.782   0.305   6.174
 3765POPC   C2B50708   7.665   0.157   6.640
 3765POPC   C3B50709   7.636   0.227   7.119
 3765POPC   C4B50710   7.493   0.175   7.567
 3766POPC   NC350711  40.297  12.728   5.402
 3766POPC   PO450712  39.646  12.881   5.438
 3766POPC   GL150713  39.855  12.792   5.837
 3766POPC   GL250714  40.211  12.906   5.894
 3766POPC   C1A50715  39.984  12.640   6.266
 3766POPC   D2A50716  39.750  12.622   6.639
 3766POPC   C3A50717  39.982  12.725   6.986
 3766POPC   C4A50718  39.973  12.878   7.383
 3766POPC   C1B50719  39.950  13.150   6.182
 3766POPC   C2B50720  39.907  13.124   6.618
 3766POPC   C3B50721  39.724  13.169   7.009
 3766POPC   C4B50722  39.409  13.170   7.292
 3767POPC   NC350723   7.201   7.471   5.467
 3767POPC   PO450724   7.765   7.075   5.366
 3767POPC   GL150725   7.621   7.339   5.748
 3767POPC   GL250726   7.582   7.723   5.703
 3767POPC   C1A50727   7.451   7.325   6.173
 3767POPC   D2A50728   7.427   7.010   6.483
 3767POPC   C3A50729   7.417   7.196   6.894
 3767POPC   C4A50730   7.090   7.441   7.134
 3767POPC   C1B50731   7.797   7.708   6.073
 3767POPC   C2B50732   7.651   7.678   6.502
 3767POPC   C3B50733   7.826   7.549   6.883
 3767POPC   C4B50734   7.576   7.510   7.258
 3768POPC   NC350735  35.713   7.993   5.139
 3768POPC   PO450736  36.201   8.400   5.366
 3768POPC   GL150737  36.026   8.427   5.782
 3768POPC   GL250738  36.333   8.445   5.966
 3768POPC   C1A50739  35.884   8.186   6.170
 3768POPC   D2A50740  35.922   8.003   6.588
 3768POPC   C3A50741  35.884   8.203   7.001
 3768POPC   C4A50742  36.063   8.330   7.433
 3768POPC   C1B50743  36.383   8.145   6.331
 3768POPC   C2B50744  36.400   8.050   6.776
 3768POPC   C3B50745  36.465   8.305   7.126
 3768POPC   C4B50746  36.559   8.185   7.558
 3769POPC   NC350747  36.919  39.187   5.260
 3769POPC   PO450748  37.297  39.703   5.443
 3769POPC   GL150749  37.023  39.429   5.716
 3769POPC   GL250750  37.019  39.066   5.759
 3769POPC   C1A50751  37.070  39.404   6.170
 3769POPC   D2A50752  37.088  39.079   6.477
 3769POPC   C3A50753  36.952  39.149   6.903
 3769POPC   C4A50754  36.873  39.490   7.179
 3769POPC   C1B50755  36.702  39.076   6.119
 3769POPC   C2B50756  36.531  39.020   6.588
 3769POPC   C3B50757  36.540  38.849   7.015
 3769POPC   C4B50758  36.752  39.039   7.405
 3770POPC   NC350759  23.493  19.099   5.519
 3770POPC   PO450760  24.098  19.365   5.440
 3770POPC   GL150761  23.885  19.232   5.825
 3770POPC   GL250762  23.909  18.898   5.855
 3770POPC   C1A50763  23.571  19.092   6.165
 3770POPC   D2A50764  23.334  19.122   6.510
 3770POPC   C3A50765  23.596  19.336   6.761
 3770POPC   C4A50766  23.518  19.401   7.182
 3770POPC   C1B50767  23.873  18.651   6.258
 3770POPC   C2B50768  23.551  18.667   6.630
 3770POPC   C3B50769  23.659  18.726   7.064
 3770POPC   C4B50770  24.072  18.712   7.237
 3771POPC   NC350771  18.171   3.290   5.293
 3771POPC   PO450772  18.526   3.816   5.174
 3771POPC   GL150773  18.252   3.690   5.602
 3771POPC   GL250774  18.280   3.371   5.785
 3771POPC   C1A50775  18.117   3.832   6.031
 3771POPC   D2A50776  18.265   3.870   6.477
 3771POPC   C3A50777  18.209   3.622   6.857
 3771POPC   C4A50778  17.796   3.671   7.020
 3771POPC   C1B50779  18.397   3.445   6.212
 3771POPC   C2B50780  18.574   3.315   6.594
 3771POPC   C3B50781  18.709   3.428   6.974
 3771POPC   C4B50782  18.518   3.409   7.353
 3772POPC   NC350783  21.710   3.502   4.852
 3772POPC   PO450784  21.326   3.700   5.214
 3772POPC   GL150785  21.334   3.746   5.698
 3772POPC   GL250786  21.014   3.689   5.864
 3772POPC   C1A50787  21.426   3.710   6.178
 3772POPC   D2A50788  21.353   3.896   6.620
 3772POPC   C3A50789  21.512   3.813   7.060
 3772POPC   C4A50790  21.277   3.802   7.459
 3772POPC   C1B50791  20.917   3.834   6.294
 3772POPC   C2B50792  20.960   3.571   6.664
 3772POPC   C3B50793  21.121   3.480   7.072
 3772POPC   C4B50794  21.116   3.212   7.439
 3773POPC   NC350795  29.954  22.622   5.412
 3773POPC   PO450796  30.298  23.143   5.331
 3773POPC   GL150797  30.221  22.941   5.775
 3773POPC   GL250798  30.177  22.594   5.897
 3773POPC   C1A50799  30.006  22.925   6.223
 3773POPC   D2A50800  29.884  22.707   6.629
 3773POPC   C3A50801  29.691  22.962   6.966
 3773POPC   C4A50802  29.879  23.337   7.173
 3773POPC   C1B50803  30.270  22.497   6.345
 3773POPC   C2B50804  30.348  22.542   6.791
 3773POPC   C3B50805  30.182  22.863   7.119
 3773POPC   C4B50806  29.994  22.692   7.510
 3774POPC   NC350807  24.458  29.739   5.521
 3774POPC   PO450808  24.431  29.071   5.284
 3774POPC   GL150809  24.502  29.240   5.702
 3774POPC   GL250810  24.856  29.379   5.692
 3774POPC   C1A50811  24.336  29.171   6.136
 3774POPC   D2A50812  24.460  28.935   6.514
 3774POPC   C3A50813  24.330  29.019   6.907
 3774POPC   C4A50814  24.487  28.875   7.278
 3774POPC   C1B50815  24.736  29.525   6.114
 3774POPC   C2B50816  24.803  29.429   6.556
 3774POPC   C3B50817  24.926  29.499   6.996
 3774POPC   C4B50818  24.591  29.381   7.236
 3775POPC   NC350819  40.961  16.860   5.421
 3775POPC   PO450820  40.390  16.728   5.483
 3775POPC   GL150821  40.591  16.890   5.844
 3775POPC   GL250822  40.916  16.727   5.941
 3775POPC   C1A50823  40.498  16.690   6.242
 3775POPC   D2A50824  40.754  16.746   6.568
 3775POPC   C3A50825  40.641  16.699   6.988
 3775POPC   C4A50826  40.526  17.064   7.184
 3775POPC   C1B50827  41.169  16.605   6.326
 3775POPC   C2B50828  41.146  16.546   6.801
 3775POPC   C3B50829  41.068  16.498   7.226
 3775POPC   C4B50830  41.194  16.415   7.652
 3776POPC   NC350831  40.964   1.361   5.445
 3776POPC   PO450832  40.316   1.333   5.425
 3776POPC   GL150833  40.602   1.327   5.779
 3776POPC   GL250834  40.684   0.994   5.695
 3776POPC   C1A50835  40.880   1.402   6.138
 3776POPC   D2A50836  40.729   1.525   6.559
 3776POPC   C3A50837  40.907   1.483   6.955
 3776POPC   C4A50838  41.081   1.260   7.285
 3776POPC   C1B50839  40.829   0.881   6.103
 3776POPC   C2B50840  40.899   1.055   6.507
 3776POPC   C3B50841  40.765   0.987   6.912
 3776POPC   C4B50842  40.738   0.797   7.292
 3777POPC   NC350843  25.992  20.304   5.534
 3777POPC   PO450844  25.867  20.929   5.275
 3777POPC   GL150845  25.784  20.744   5.713
 3777POPC   GL250846  25.766  20.434   5.960
 3777POPC   C1A50847  26.150  20.749   6.036
 3777POPC   D2A50848  26.221  20.812   6.480
 3777POPC   C3A50849  26.196  20.598   6.857
 3777POPC   C4A50850  26.472  20.595   7.197
 3777POPC   C1B50851  25.654  20.817   6.206
 3777POPC   C2B50852  25.746  20.983   6.636
 3777POPC   C3B50853  25.814  20.861   7.083
 3777POPC   C4B50854  25.693  20.641   7.456
 3778POPC   NC350855  19.440  30.260   5.739
 3778POPC   PO450856  19.103  29.718   5.539
 3778POPC   GL150857  19.254  29.791   5.899
 3778POPC   GL250858  19.417  29.465   5.865
 3778POPC   C1A50859  19.215  29.970   6.334
 3778POPC   D2A50860  19.344  30.009   6.784
 3778POPC   C3A50861  19.067  30.150   7.132
 3778POPC   C4A50862  18.944  30.104   7.601
 3778POPC   C1B50863  19.194  29.419   6.226
 3778POPC   C2B50864  19.236  29.517   6.602
 3778POPC   C3B50865  19.034  29.612   6.932
 3778POPC   C4B50866  19.169  29.684   7.330
 3779POPC   NC350867  35.518  24.393   5.360
 3779POPC   PO450868  34.847  24.381   5.537
 3779POPC   GL150869  35.153  24.412   5.812
 3779POPC   GL250870  35.261  24.702   5.663
 3779POPC   C1A50871  35.188  24.330   6.249
 3779POPC   D2A50872  35.252  24.564   6.644
 3779POPC   C3A50873  35.261  24.444   7.095
 3779POPC   C4A50874  35.535  24.342   7.470
 3779POPC   C1B50875  35.391  24.777   6.092
 3779POPC   C2B50876  35.663  24.797   6.451
 3779POPC   C3B50877  35.596  24.898   6.863
 3779POPC   C4B50878  35.309  24.972   7.173
 3780POPC   NC350879  26.393  33.754   5.684
 3780POPC   PO450880  26.926  33.753   5.324
 3780POPC   GL150881  26.889  33.901   5.735
 3780POPC   GL250882  26.662  34.208   5.802
 3780POPC   C1A50883  26.980  33.635   6.094
 3780POPC   D2A50884  26.995  33.847   6.497
 3780POPC   C3A50885  26.933  33.619   6.869
 3780POPC   C4A50886  26.948  33.815   7.251
 3780POPC   C1B50887  26.755  34.288   6.226
 3780POPC   C2B50888  26.458  34.296   6.589
 3780POPC   C3B50889  26.268  34.291   7.004
 3780POPC   C4B50890  26.441  33.960   7.285
 3781POPC   NC350891  21.037  35.521   5.503
 3781POPC   PO450892  21.632  35.334   5.109
 3781POPC   GL150893  21.537  35.342   5.584
 3781POPC   GL250894  21.665  35.098   5.807
 3781POPC   C1A50895  21.493  35.527   6.042
 3781POPC   D2A50896  21.354  35.638   6.487
 3781POPC   C3A50897  21.579  35.458   6.861
 3781POPC   C4A50898  21.697  35.502   7.341
 3781POPC   C1B50899  21.339  35.057   6.157
 3781POPC   C2B50900  21.164  35.162   6.573
 3781POPC   C3B50901  21.209  35.097   7.014
 3781POPC   C4B50902  21.639  35.034   7.200
 3782POPC   NC350903  36.092   9.568   5.363
 3782POPC   PO450904  35.559   9.968   5.364
 3782POPC   GL150905  35.920   9.869   5.768
 3782POPC   GL250906  36.279   9.758   5.784
 3782POPC   C1A50907  36.112   9.734   6.251
 3782POPC   D2A50908  36.343   9.476   6.558
 3782POPC   C3A50909  36.157   9.441   6.945
 3782POPC   C4A50910  36.038   9.757   7.204
 3782POPC   C1B50911  36.378  10.107   6.062
 3782POPC   C2B50912  36.271  10.163   6.482
 3782POPC   C3B50913  36.362   9.940   6.849
 3782POPC   C4B50914  36.467  10.046   7.266
 3783POPC   NC350915  12.834  24.960   5.356
 3783POPC   PO450916  13.139  25.569   5.400
 3783POPC   GL150917  12.912  25.319   5.758
 3783POPC   GL250918  13.014  24.974   5.861
 3783POPC   C1A50919  12.804  25.480   6.167
 3783POPC   D2A50920  12.660  25.368   6.581
 3783POPC   C3A50921  12.903  25.406   6.937
 3783POPC   C4A50922  12.817  25.240   7.322
 3783POPC   C1B50923  13.207  25.159   6.242
 3783POPC   C2B50924  13.282  25.147   6.702
 3783POPC   C3B50925  13.299  24.936   7.125
 3783POPC   C4B50926  13.187  25.011   7.609
 3784POPC   NC350927  25.957   6.628   5.202
 3784POPC   PO450928  26.572   6.675   5.366
 3784POPC   GL150929  26.266   6.499   5.695
 3784POPC   GL250930  25.872   6.488   5.675
 3784POPC   C1A50931  26.150   6.640   6.112
 3784POPC   D2A50932  26.356   6.747   6.518
 3784POPC   C3A50933  26.104   6.593   6.868
 3784POPC   C4A50934  26.146   6.654   7.306
 3784POPC   C1B50935  25.705   6.383   6.068
 3784POPC   C2B50936  25.732   6.508   6.479
 3784POPC   C3B50937  25.620   6.336   6.866
 3784POPC   C4B50938  25.649   6.472   7.257
 3785POPC   NC350939  22.456  35.397   5.521
 3785POPC   PO450940  23.102  35.332   5.454
 3785POPC   GL150941  22.871  35.279   5.820
 3785POPC   GL250942  22.576  35.018   5.861
 3785POPC   C1A50943  23.074  35.448   6.170
 3785POPC   D2A50944  23.294  35.536   6.516
 3785POPC   C3A50945  23.058  35.336   6.829
 3785POPC   C4A50946  23.033  35.582   7.172
 3785POPC   C1B50947  22.702  35.121   6.282
 3785POPC   C2B50948  22.659  35.513   6.518
 3785POPC   C3B50949  22.555  35.499   6.958
 3785POPC   C4B50950  22.714  35.184   7.213
 3786POPC   NC350951  22.629  37.763   5.140
 3786POPC   PO450952  22.195  38.086   5.640
 3786POPC   GL150953  22.226  37.798   6.015
 3786POPC   GL250954  21.967  37.547   6.103
 3786POPC   C1A50955  22.477  37.483   6.213
 3786POPC   D2A50956  22.266  37.408   6.569
 3786POPC   C3A50957  22.454  37.636   6.898
 3786POPC   C4A50958  22.584  37.813   7.266
 3786POPC   C1B50959  21.838  37.827   6.372
 3786POPC   C2B50960  21.676  37.767   6.741
 3786POPC   C3B50961  21.985  37.825   7.011
 3786POPC   C4B50962  22.101  37.585   7.299
 3787POPC   NC350963  26.234  21.713   5.594
 3787POPC   PO450964  26.675  21.177   5.398
 3787POPC   GL150965  26.839  21.278   5.804
 3787POPC   GL250966  26.828  20.911   5.858
 3787POPC   C1A50967  27.084  21.192   6.184
 3787POPC   D2A50968  26.941  21.036   6.559
 3787POPC   C3A50969  26.885  21.342   6.865
 3787POPC   C4A50970  26.808  21.345   7.266
 3787POPC   C1B50971  26.561  21.086   6.197
 3787POPC   C2B50972  26.442  21.262   6.584
 3787POPC   C3B50973  26.489  21.033   6.925
 3787POPC   C4B50974  26.362  21.113   7.299
 3788POPC   NC350975  22.782  38.774   5.156
 3788POPC   PO450976  22.773  38.161   5.395
 3788POPC   GL150977  22.910  38.527   5.700
 3788POPC   GL250978  23.257  38.584   5.849
 3788POPC   C1A50979  22.725  38.714   6.090
 3788POPC   D2A50980  22.612  38.529   6.520
 3788POPC   C3A50981  22.711  38.744   6.919
 3788POPC   C4A50982  22.618  38.617   7.367
 3788POPC   C1B50983  23.142  38.499   6.289
 3788POPC   C2B50984  23.176  38.692   6.701
 3788POPC   C3B50985  23.106  38.479   7.100
 3788POPC   C4B50986  23.304  38.188   7.332
 3789POPC   NC350987  16.670  35.195   5.579
 3789POPC   PO450988  16.840  35.823   5.421
 3789POPC   GL150989  16.862  35.592   5.851
 3789POPC   GL250990  16.483  35.523   5.926
 3789POPC   C1A50991  16.821  35.244   6.212
 3789POPC   D2A50992  16.695  34.949   6.572
 3789POPC   C3A50993  16.723  35.150   6.990
 3789POPC   C4A50994  16.947  35.510   7.081
 3789POPC   C1B50995  16.634  35.774   6.271
 3789POPC   C2B50996  16.724  35.795   6.698
 3789POPC   C3B50997  16.556  35.855   7.096
 3789POPC   C4B50998  16.392  35.510   7.303
 3790POPC   NC350999   8.278  27.757   5.543
 3790POPC   PO451000   7.933  27.200   5.456
 3790POPC   GL151001   8.079  27.408   5.867
 3790POPC   GL251002   7.900  27.771   5.871
 3790POPC   C1A51003   8.394  27.604   6.198
 3790POPC   D2A51004   8.705  27.606   6.557
 3790POPC   C3A51005   8.548  27.667   6.976
 3790POPC   C4A51006   8.338  27.778   7.349
 3790POPC   C1B51007   7.880  27.663   6.268
 3790POPC   C2B51008   7.825  27.861   6.616
 3790POPC   C3B51009   7.990  27.825   6.981
 3790POPC   C4B51010   7.838  27.948   7.335
 3791POPC   NC351011  28.213  16.819   5.471
 3791POPC   PO451012  28.630  16.313   5.572
 3791POPC   GL151013  28.290  16.452   5.894
 3791POPC   GL251014  28.233  16.797   5.984
 3791POPC   C1A51015  28.214  16.487   6.375
 3791POPC   D2A51016  28.188  16.771   6.750
 3791POPC   C3A51017  28.258  16.652   7.161
 3791POPC   C4A51018  28.562  16.372   7.299
 3791POPC   C1B51019  28.374  17.094   6.342
 3791POPC   C2B51020  28.565  17.113   6.774
 3791POPC   C3B51021  28.494  17.105   7.240
 3791POPC   C4B51022  28.214  17.029   7.595
 3792POPC   NC351023   8.072  31.382   5.300
 3792POPC   PO451024   7.887  32.106   5.424
 3792POPC   GL151025   7.946  31.690   5.721
 3792POPC   GL251026   7.940  31.305   5.782
 3792POPC   C1A51027   8.141  31.561   6.154
 3792POPC   D2A51028   8.000  31.686   6.553
 3792POPC   C3A51029   8.252  31.552   6.924
 3792POPC   C4A51030   8.113  31.463   7.331
 3792POPC   C1B51031   7.884  31.075   6.165
 3792POPC   C2B51032   7.900  31.169   6.585
 3792POPC   C3B51033   8.003  31.102   6.973
 3792POPC   C4B51034   8.226  30.968   7.301
 3793POPC   NC351035  35.594   0.232   5.448
 3793POPC   PO451036  35.086   0.738   5.466
 3793POPC   GL151037  35.226   0.583   5.872
 3793POPC   GL251038  35.329   0.220   5.872
 3793POPC   C1A51039  35.449   0.693   6.302
 3793POPC   D2A51040  35.777   0.646   6.651
 3793POPC   C3A51041  35.629   0.789   7.065
 3793POPC   C4A51042  35.227   0.686   7.237
 3793POPC   C1B51043  35.118   0.280   6.255
 3793POPC   C2B51044  34.857   0.372   6.573
 3793POPC   C3B51045  35.008   0.291   6.956
 3793POPC   C4B51046  35.308   0.197   7.266
 3794POPC   NC351047   7.263   1.772   5.321
 3794POPC   PO451048   7.586   2.433   5.457
 3794POPC   GL151049   7.395   2.161   5.772
 3794POPC   GL251050   7.416   1.783   5.801
 3794POPC   C1A51051   7.594   2.065   6.186
 3794POPC   D2A51052   7.557   1.809   6.578
 3794POPC   C3A51053   7.748   1.960   6.970
 3794POPC   C4A51054   7.647   2.098   7.393
 3794POPC   C1B51055   7.193   1.768   6.189
 3794POPC   C2B51056   7.069   1.664   6.628
 3794POPC   C3B51057   7.185   1.856   7.001
 3794POPC   C4B51058   7.095   1.733   7.412
 3795POPC   NC351059  32.511   5.665   5.621
 3795POPC   PO451060  33.116   5.951   5.561
 3795POPC   GL151061  33.215   5.692   5.891
 3795POPC   GL251062  32.874   5.714   6.024
 3795POPC   C1A51063  33.302   5.693   6.334
 3795POPC   D2A51064  33.277   5.973   6.671
 3795POPC   C3A51065  33.045   5.858   7.049
 3795POPC   C4A51066  33.160   5.571   7.367
 3795POPC   C1B51067  33.006   6.117   6.216
 3795POPC   C2B51068  32.947   6.388   6.557
 3795POPC   C3B51069  32.782   6.285   6.930
 3795POPC   C4B51070  32.920   6.322   7.340
 3796POPC   NC351071  29.404   7.192   5.324
 3796POPC   PO451072  28.963   7.680   5.419
 3796POPC   GL151073  29.088   7.372   5.688
 3796POPC   GL251074  29.379   7.541   5.726
 3796POPC   C1A51075  29.036   7.328   6.113
 3796POPC   D2A51076  29.119   7.412   6.553
 3796POPC   C3A51077  28.839   7.319   6.885
 3796POPC   C4A51078  29.096   7.075   7.186
 3796POPC   C1B51079  29.450   7.660   6.149
 3796POPC   C2B51080  29.454   7.802   6.576
 3796POPC   C3B51081  29.539   7.837   7.005
 3796POPC   C4B51082  29.189   7.583   7.124
 3797POPC   NC351083   1.702   5.412   5.186
 3797POPC   PO451084   1.287   4.891   5.143
 3797POPC   GL151085   1.353   4.909   5.596
 3797POPC   GL251086   1.390   5.220   5.634
 3797POPC   C1A51087   1.090   5.090   6.013
 3797POPC   D2A51088   1.062   5.013   6.457
 3797POPC   C3A51089   1.164   5.280   6.833
 3797POPC   C4A51090   1.301   5.111   7.226
 3797POPC   C1B51091   1.568   4.936   6.032
 3797POPC   C2B51092   1.447   4.651   6.367
 3797POPC   C3B51093   1.421   4.823   6.770
 3797POPC   C4B51094   1.729   4.788   7.088
 3798POPC   NC351095  35.730  18.343   5.333
 3798POPC   PO451096  36.354  18.613   5.259
 3798POPC   GL151097  36.219  18.349   5.603
 3798POPC   GL251098  35.957  18.493   5.752
 3798POPC   C1A51099  36.273  18.238   6.057
 3798POPC   D2A51100  36.484  18.385   6.414
 3798POPC   C3A51101  36.381  18.291   6.819
 3798POPC   C4A51102  36.185  18.208   7.199
 3798POPC   C1B51103  36.023  18.711   6.109
 3798POPC   C2B51104  35.804  18.680   6.456
 3798POPC   C3B51105  36.031  18.671   6.805
 3798POPC   C4B51106  35.960  18.677   7.202
 3799POPC   NC351107  32.130  31.749   5.455
 3799POPC   PO451108  32.188  32.497   5.425
 3799POPC   GL151109  32.400  32.363   5.823
 3799POPC   GL251110  32.412  32.018   5.827
 3799POPC   C1A51111  32.475  32.231   6.273
 3799POPC   D2A51112  32.243  32.405   6.629
 3799POPC   C3A51113  32.410  32.266   7.038
 3799POPC   C4A51114  32.421  32.280   7.506
 3799POPC   C1B51115  32.131  31.837   6.119
 3799POPC   C2B51116  32.231  31.871   6.559
 3799POPC   C3B51117  32.102  31.836   6.975
 3799POPC   C4B51118  32.310  31.823   7.347
 3800POPC   NC351119  39.981  35.778   5.339
 3800POPC   PO451120  40.109  35.117   5.342
 3800POPC   GL151121  40.023  35.308   5.747
 3800POPC   GL251122  39.793  35.599   5.773
 3800POPC   C1A51123  40.009  35.428   6.202
 3800POPC   D2A51124  40.032  35.282   6.636
 3800POPC   C3A51125  40.010  35.519   7.035
 3800POPC   C4A51126  39.990  35.419   7.515
 3800POPC   C1B51127  39.513  35.646   6.111
 3800POPC   C2B51128  39.647  35.634   6.548
 3800POPC   C3B51129  39.515  35.515   6.945
 3800POPC   C4B51130  39.623  35.705   7.322
 3801POPC   NC351131  19.442  21.154   5.458
 3801POPC   PO451132  18.965  21.619   5.539
 3801POPC   GL151133  19.242  21.562   5.866
 3801POPC   GL251134  19.334  21.214   5.959
 3801POPC   C1A51135  19.128  21.583   6.301
 3801POPC   D2A51136  18.790  21.430   6.581
 3801POPC   C3A51137  18.882  21.498   7.017
 3801POPC   C4A51138  19.270  21.528   7.243
 3801POPC   C1B51139  18.913  21.108   6.177
 3801POPC   C2B51140  18.728  20.913   6.582
 3801POPC   C3B51141  18.680  20.963   7.030
 3801POPC   C4B51142  18.914  21.128   7.397
 3802POPC   NC351143   6.342  39.411   5.285
 3802POPC   PO451144   6.976  39.107   5.308
 3802POPC   GL151145   6.661  39.121   5.631
 3802POPC   GL251146   6.685  39.449   5.688
 3802POPC   C1A51147   6.697  39.139   6.106
 3802POPC   D2A51148   6.907  39.281   6.483
 3802POPC   C3A51149   6.755  39.261   6.915
 3802POPC   C4A51150   7.077  39.296   7.251
 3802POPC   C1B51151   6.493  39.596   6.068
 3802POPC   C2B51152   6.396  39.433   6.474
 3802POPC   C3B51153   6.175  39.457   6.862
 3802POPC   C4B51154   6.215  39.185   7.209
 3803POPC   NC351155  12.108  10.911   5.527
 3803POPC   PO451156  11.679  10.350   5.567
 3803POPC   GL151157  12.073  10.411   5.796
 3803POPC   GL251158  11.916  10.677   5.920
 3803POPC   C1A51159  12.278  10.473   6.200
 3803POPC   D2A51160  12.075  10.610   6.568
 3803POPC   C3A51161  12.190  10.465   6.993
 3803POPC   C4A51162  12.197  10.563   7.453
 3803POPC   C1B51163  12.068  10.951   6.168
 3803POPC   C2B51164  11.957  11.121   6.526
 3803POPC   C3B51165  11.746  10.910   6.810
 3803POPC   C4B51166  11.774  10.685   7.174
 3804POPC   NC351167  13.078  26.781   5.362
 3804POPC   PO451168  12.544  26.242   5.398
 3804POPC   GL151169  12.765  26.484   5.809
 3804POPC   GL251170  12.835  26.859   5.812
 3804POPC   C1A51171  12.791  26.607   6.258
 3804POPC   D2A51172  12.929  26.471   6.674
 3804POPC   C3A51173  12.766  26.713   7.042
 3804POPC   C4A51174  12.630  27.152   7.122
 3804POPC   C1B51175  13.145  26.968   6.101
 3804POPC   C2B51176  13.050  26.979   6.546
 3804POPC   C3B51177  13.125  27.055   6.975
 3804POPC   C4B51178  13.251  27.270   7.346
 3805POPC   NC351179  35.786  33.903   5.307
 3805POPC   PO451180  35.208  33.692   5.107
 3805POPC   GL151181  35.376  33.824   5.609
 3805POPC   GL251182  35.691  33.680   5.762
 3805POPC   C1A51183  35.338  33.685   6.123
 3805POPC   D2A51184  35.311  33.761   6.602
 3805POPC   C3A51185  35.139  33.763   7.069
 3805POPC   C4A51186  35.361  33.760   7.461
 3805POPC   C1B51187  35.751  34.007   6.101
 3805POPC   C2B51188  35.720  34.085   6.584
 3805POPC   C3B51189  35.635  33.837   6.985
 3805POPC   C4B51190  35.849  33.794   7.372
 3806POPC   NC351191  20.888  18.110   4.999
 3806POPC   PO451192  20.312  18.040   5.372
 3806POPC   GL151193  20.565  18.273   5.701
 3806POPC   GL251194  20.394  18.558   5.764
 3806POPC   C1A51195  20.707  18.360   6.153
 3806POPC   D2A51196  20.559  18.321   6.592
 3806POPC   C3A51197  20.854  18.342   6.967
 3806POPC   C4A51198  20.805  18.133   7.393
 3806POPC   C1B51199  20.389  18.757   6.211
 3806POPC   C2B51200  20.422  18.827   6.666
 3806POPC   C3B51201  20.371  18.557   7.017
 3806POPC   C4B51202  20.648  18.616   7.333
 3807POPC   NC351203  14.660  13.296   5.339
 3807POPC   PO451204  14.252  12.693   5.247
 3807POPC   GL151205  14.307  12.765   5.686
 3807POPC   GL251206  14.370  13.117   5.747
 3807POPC   C1A51207  14.397  12.714   6.141
 3807POPC   D2A51208  14.567  12.812   6.575
 3807POPC   C3A51209  14.391  12.850   7.018
 3807POPC   C4A51210  14.438  12.790   7.501
 3807POPC   C1B51211  14.715  13.147   6.084
 3807POPC   C2B51212  14.919  13.163   6.506
 3807POPC   C3B51213  14.700  13.257   6.876
 3807POPC   C4B51214  14.783  13.100   7.265
 3808POPC   NC351215  19.424  17.460   5.194
 3808POPC   PO451216  18.843  17.459   5.537
 3808POPC   GL151217  19.038  17.517   5.949
 3808POPC   GL251218  19.388  17.648   5.853
 3808POPC   C1A51219  19.025  17.374   6.376
 3808POPC   D2A51220  18.828  17.595   6.704
 3808POPC   C3A51221  18.906  17.475   7.159
 3808POPC   C4A51222  18.673  17.511   7.571
 3808POPC   C1B51223  19.441  17.676   6.308
 3808POPC   C2B51224  19.327  17.636   6.762
 3808POPC   C3B51225  19.385  17.675   7.211
 3808POPC   C4B51226  19.641  17.458   7.484
 3809POPC   NC351227  26.515  19.664   5.622
 3809POPC   PO451228  26.961  20.031   5.225
 3809POPC   GL151229  26.923  19.967   5.669
 3809POPC   GL251230  26.999  19.607   5.810
 3809POPC   C1A51231  26.752  20.058   6.105
 3809POPC   D2A51232  26.861  19.816   6.476
 3809POPC   C3A51233  26.668  19.765   6.915
 3809POPC   C4A51234  26.557  19.992   7.314
 3809POPC   C1B51235  27.236  19.903   6.084
 3809POPC   C2B51236  27.316  20.080   6.501
 3809POPC   C3B51237  27.155  19.928   6.866
 3809POPC   C4B51238  27.050  19.804   7.289
 3810POPC   NC351239  38.694  24.661   5.369
 3810POPC   PO451240  38.269  24.148   5.537
 3810POPC   GL151241  38.423  24.475   5.795
 3810POPC   GL251242  38.311  24.818   5.749
 3810POPC   C1A51243  38.259  24.571   6.217
 3810POPC   D2A51244  38.408  24.437   6.632
 3810POPC   C3A51245  38.141  24.593   6.995
 3810POPC   C4A51246  38.149  24.615   7.478
 3810POPC   C1B51247  38.651  24.898   6.049
 3810POPC   C2B51248  38.699  25.000   6.496
 3810POPC   C3B51249  38.618  24.831   6.930
 3810POPC   C4B51250  38.813  24.690   7.341
 3811POPC   NC351251  20.705   6.369   5.487
 3811POPC   PO451252  20.542   7.011   5.286
 3811POPC   GL151253  20.609   6.827   5.700
 3811POPC   GL251254  20.986   6.768   5.672
 3811POPC   C1A51255  20.735   6.640   6.113
 3811POPC   D2A51256  20.533   6.386   6.427
 3811POPC   C3A51257  20.511   6.559   6.845
 3811POPC   C4A51258  20.812   6.614   7.188
 3811POPC   C1B51259  20.957   7.095   5.988
 3811POPC   C2B51260  20.990   7.116   6.437
 3811POPC   C3B51261  20.778   7.021   6.824
 3811POPC   C4B51262  20.833   7.114   7.259
 3812POPC   NC351263  29.386   0.218   5.251
 3812POPC   PO451264  28.905   0.731   5.123
 3812POPC   GL151265  28.939   0.587   5.583
 3812POPC   GL251266  29.135   0.284   5.687
 3812POPC   C1A51267  28.990   0.608   6.052
 3812POPC   D2A51268  29.226   0.651   6.464
 3812POPC   C3A51269  29.037   0.508   6.870
 3812POPC   C4A51270  28.836   0.481   7.290
 3812POPC   C1B51271  29.380   0.289   6.079
 3812POPC   C2B51272  29.365   0.171   6.492
 3812POPC   C3B51273  29.513   0.277   6.858
 3812POPC   C4B51274  29.368   0.309   7.232
 3813POPC   NC351275  22.835  15.375   5.107
 3813POPC   PO451276  23.193  15.278   5.605
 3813POPC   GL151277  22.811  15.285   5.801
 3813POPC   GL251278  22.624  15.539   5.640
 3813POPC   C1A51279  22.815  15.107   6.206
 3813POPC   D2A51280  22.819  15.189   6.652
 3813POPC   C3A51281  22.724  14.885   6.949
 3813POPC   C4A51282  23.136  14.778   7.101
 3813POPC   C1B51283  22.367  15.565   6.015
 3813POPC   C2B51284  22.435  15.597   6.460
 3813POPC   C3B51285  22.736  15.659   6.801
 3813POPC   C4B51286  22.751  15.361   7.154
 3814POPC   NC351287  36.035  38.825   5.062
 3814POPC   PO451288  36.195  38.335   5.420
 3814POPC   GL151289  36.131  38.426   5.848
 3814POPC   GL251290  36.186  38.766   5.768
 3814POPC   C1A51291  35.948  38.414   6.295
 3814POPC   D2A51292  35.968  38.123   6.699
 3814POPC   C3A51293  35.775  38.269   7.132
 3814POPC   C4A51294  35.848  38.251   7.592
 3814POPC   C1B51295  36.347  38.732   6.193
 3814POPC   C2B51296  36.373  38.496   6.559
 3814POPC   C3B51297  36.167  38.519   6.938
 3814POPC   C4B51298  36.269  38.501   7.345
 3815POPC   NC351299  11.830   0.347   5.151
 3815POPC   PO451300  12.090   1.054   5.154
 3815POPC   GL151301  11.951   0.753   5.517
 3815POPC   GL251302  12.090   0.387   5.583
 3815POPC   C1A51303  11.959   0.644   5.994
 3815POPC   D2A51304  12.144   0.563   6.441
 3815POPC   C3A51305  11.906   0.481   6.841
 3815POPC   C4A51306  11.883   0.673   7.263
 3815POPC   C1B51307  12.254   0.226   5.994
 3815POPC   C2B51308  12.492   0.139   6.381
 3815POPC   C3B51309  12.384   0.161   6.812
 3815POPC   C4B51310  12.302   0.354   7.201
 3816POPC   NC351311  43.758   8.520   5.456
 3816POPC   PO451312  44.060   8.005   5.433
 3816POPC   GL151313  44.016   8.229   5.820
 3816POPC   GL251314  43.661   8.197   5.867
 3816POPC   C1A51315  44.118   8.195   6.260
 3816POPC   D2A51316  44.340   8.307   6.637
 3816POPC   C3A51317  44.227   8.176   7.060
 3816POPC   C4A51318  43.990   8.100   7.444
 3816POPC   C1B51319  43.620   8.175   6.327
 3816POPC   C2B51320  43.798   8.300   6.740
 3816POPC   C3B51321  43.601   8.286   7.164
 3816POPC   C4B51322  43.604   8.376   7.621
 3817POPC   NC351323  31.377  44.199   5.183
 3817POPC   PO451324  31.964  43.849   5.257
 3817POPC   GL151325  31.753  43.884   5.678
 3817POPC   GL251326  31.660  43.575   5.861
 3817POPC   C1A51327  31.464  43.998   6.039
 3817POPC   D2A51328  31.472  43.960   6.485
 3817POPC   C3A51329  31.084  43.942   6.715
 3817POPC   C4A51330  31.153  44.082   7.106
 3817POPC   C1B51331  31.865  43.714   6.261
 3817POPC   C2B51332  31.910  43.783   6.734
 3817POPC   C3B51333  31.745  43.878   7.147
 3817POPC   C4B51334  31.741  43.697   7.578
 3818POPC   NC351335  42.852  41.892   5.382
 3818POPC   PO451336  43.010  42.546   5.411
 3818POPC   GL151337  43.129  42.514   5.809
 3818POPC   GL251338  43.113  42.146   5.789
 3818POPC   C1A51339  43.267  42.651   6.231
 3818POPC   D2A51340  43.462  42.495   6.630
 3818POPC   C3A51341  43.167  42.367   6.975
 3818POPC   C4A51342  42.730  42.488   7.108
 3818POPC   C1B51343  43.030  42.189   6.227
 3818POPC   C2B51344  42.793  42.288   6.594
 3818POPC   C3B51345  42.785  41.999   6.928
 3818POPC   C4B51346  42.876  41.831   7.304
 3819POPC   NC351347   4.647  38.970   5.488
 3819POPC   PO451348   4.265  39.531   5.514
 3819POPC   GL151349   4.303  39.182   5.812
 3819POPC   GL251350   3.965  39.204   5.906
 3819POPC   C1A51351   4.471  39.024   6.231
 3819POPC   D2A51352   4.351  38.892   6.676
 3819POPC   C3A51353   4.594  39.054   7.041
 3819POPC   C4A51354   4.445  39.107   7.492
 3819POPC   C1B51355   3.979  39.137   6.349
 3819POPC   C2B51356   3.909  39.140   6.794
 3819POPC   C3B51357   4.107  39.229   7.154
 3819POPC   C4B51358   4.032  39.357   7.648
 3820POPC   NC351359  39.538  22.269   5.394
 3820POPC   PO451360  39.331  21.769   5.792
 3820POPC   GL151361  39.115  22.019   6.018
 3820POPC   GL251362  39.245  22.324   5.871
 3820POPC   C1A51363  39.117  21.955   6.447
 3820POPC   D2A51364  39.521  21.962   6.677
 3820POPC   C3A51365  39.371  21.936   7.087
 3820POPC   C4A51366  39.056  21.988   7.408
 3820POPC   C1B51367  39.361  22.386   6.327
 3820POPC   C2B51368  39.204  22.343   6.773
 3820POPC   C3B51369  39.231  22.426   7.200
 3820POPC   C4B51370  39.504  22.712   7.458
 3821POPC   NC351371   1.447   6.230   5.399
 3821POPC   PO451372   1.150   5.556   5.299
 3821POPC   GL151373   1.125   5.663   5.736
 3821POPC   GL251374   1.388   5.901   5.814
 3821POPC   C1A51375   1.005   5.730   6.179
 3821POPC   D2A51376   1.286   5.739   6.555
 3821POPC   C3A51377   1.172   5.849   7.008
 3821POPC   C4A51378   0.958   5.549   7.309
 3821POPC   C1B51379   1.316   6.144   6.198
 3821POPC   C2B51380   1.449   6.244   6.649
 3821POPC   C3B51381   1.516   6.383   7.090
 3821POPC   C4B51382   1.395   6.283   7.531
 3822POPC   NC351383  13.402  42.056   5.490
 3822POPC   PO451384  13.708  42.639   5.466
 3822POPC   GL151385  13.699  42.439   5.861
 3822POPC   GL251386  13.386  42.348   5.889
 3822POPC   C1A51387  13.829  42.316   6.294
 3822POPC   D2A51388  13.807  42.038   6.644
 3822POPC   C3A51389  13.703  42.243   7.015
 3822POPC   C4A51390  13.767  42.186   7.442
 3822POPC   C1B51391  13.332  42.191   6.236
 3822POPC   C2B51392  13.345  42.308   6.630
 3822POPC   C3B51393  13.221  42.090   6.970
 3822POPC   C4B51394  13.272  42.188   7.378
 3823POPC   NC351395   9.932  11.591   5.417
 3823POPC   PO451396   9.400  11.113   5.435
 3823POPC   GL151397   9.666  11.211   5.761
 3823POPC   GL251398   9.548  11.506   5.826
 3823POPC   C1A51399   9.777  11.119   6.207
 3823POPC   D2A51400   9.637  11.089   6.658
 3823POPC   C3A51401   9.783  11.260   7.069
 3823POPC   C4A51402   9.557  11.173   7.471
 3823POPC   C1B51403   9.524  11.563   6.274
 3823POPC   C2B51404   9.622  11.610   6.726
 3823POPC   C3B51405   9.467  11.649   7.156
 3823POPC   C4B51406   9.771  11.637   7.455
 3824POPC   NC351407  12.107  38.981   5.179
 3824POPC   PO451408  12.191  39.537   5.477
 3824POPC   GL151409  12.014  39.180   5.753
 3824POPC   GL251410  11.621  39.101   5.683
 3824POPC   C1A51411  12.059  39.192   6.242
 3824POPC   D2A51412  11.972  39.318   6.680
 3824POPC   C3A51413  12.262  39.368   7.058
 3824POPC   C4A51414  12.146  39.257   7.486
 3824POPC   C1B51415  11.697  38.888   6.076
 3824POPC   C2B51416  11.866  38.807   6.527
 3824POPC   C3B51417  12.030  38.882   6.979
 3824POPC   C4B51418  11.810  38.867   7.398
 3825POPC   NC351419   9.039  29.937   5.286
 3825POPC   PO451420   8.529  29.441   5.289
 3825POPC   GL151421   8.803  29.561   5.710
 3825POPC   GL251422   9.131  29.721   5.818
 3825POPC   C1A51423   8.809  29.794   6.169
 3825POPC   D2A51424   8.743  29.958   6.589
 3825POPC   C3A51425   8.943  29.787   6.978
 3825POPC   C4A51426   8.852  29.787   7.436
 3825POPC   C1B51427   9.267  29.978   6.268
 3825POPC   C2B51428   9.184  30.181   6.720
 3825POPC   C3B51429   9.145  30.231   7.193
 3825POPC   C4B51430   9.180  30.169   7.693
 3826POPC   NC351431  10.901  43.147   5.427
 3826POPC   PO451432  11.520  42.963   5.574
 3826POPC   GL151433  11.180  42.940   5.845
 3826POPC   GL251434  10.974  42.684   5.706
 3826POPC   C1A51435  11.160  43.077   6.306
 3826POPC   D2A51436  11.348  43.271   6.665
 3826POPC   C3A51437  11.333  43.187   7.093
 3826POPC   C4A51438  11.648  43.159   7.425
 3826POPC   C1B51439  11.008  42.608   6.177
 3826POPC   C2B51440  10.899  42.696   6.634
 3826POPC   C3B51441  10.999  42.792   7.091
 3826POPC   C4B51442  10.855  42.762   7.538
 3827POPC   NC351443  41.607  32.360   5.426
 3827POPC   PO451444  41.960  31.775   5.409
 3827POPC   GL151445  41.732  32.025   5.794
 3827POPC   GL251446  41.765  32.378   5.907
 3827POPC   C1A51447  41.722  31.956   6.244
 3827POPC   D2A51448  41.533  32.144   6.634
 3827POPC   C3A51449  41.771  32.195   7.034
 3827POPC   C4A51450  41.957  32.270   7.449
 3827POPC   C1B51451  41.493  32.601   6.198
 3827POPC   C2B51452  41.402  32.734   6.594
 3827POPC   C3B51453  41.504  32.655   7.024
 3827POPC   C4B51454  41.454  32.397   7.395
 3828POPC   NC351455  29.494  34.529   5.285
 3828POPC   PO451456  30.086  34.454   5.230
 3828POPC   GL151457  29.994  34.371   5.732
 3828POPC   GL251458  30.254  34.467   5.999
 3828POPC   C1A51459  29.801  34.435   6.196
 3828POPC   D2A51460  29.816  34.610   6.633
 3828POPC   C3A51461  29.970  34.372   6.996
 3828POPC   C4A51462  30.125  34.281   7.410
 3828POPC   C1B51463  30.128  34.845   6.279
 3828POPC   C2B51464  30.088  35.052   6.702
 3828POPC   C3B51465  30.152  34.862   7.132
 3828POPC   C4B51466  30.245  34.753   7.590
 3829POPC   NC351467  36.411  33.513   5.397
 3829POPC   PO451468  36.206  34.165   5.373
 3829POPC   GL151469  36.155  33.971   5.777
 3829POPC   GL251470  36.398  33.701   5.867
 3829POPC   C1A51471  36.239  34.087   6.231
 3829POPC   D2A51472  36.532  34.232   6.599
 3829POPC   C3A51473  36.305  34.086   6.987
 3829POPC   C4A51474  35.909  34.248   7.069
 3829POPC   C1B51475  36.039  33.587   6.137
 3829POPC   C2B51476  35.812  33.582   6.553
 3829POPC   C3B51477  36.060  33.545   6.955
 3829POPC   C4B51478  36.469  33.326   6.975
 3830POPC   NC351479   2.315  11.294   5.571
 3830POPC   PO451480   2.901  11.358   5.283
 3830POPC   GL151481   2.803  11.364   5.729
 3830POPC   GL251482   3.036  11.104   5.754
 3830POPC   C1A51483   2.620  11.403   6.162
 3830POPC   D2A51484   2.450  11.219   6.524
 3830POPC   C3A51485   2.641  11.349   6.916
 3830POPC   C4A51486   2.453  11.587   7.231
 3830POPC   C1B51487   3.140  11.253   6.158
 3830POPC   C2B51488   2.978  11.140   6.553
 3830POPC   C3B51489   3.160  11.194   6.960
 3830POPC   C4B51490   3.326  11.346   7.392
 3831POPC   NC351491  18.084  21.027   5.173
 3831POPC   PO451492  18.450  20.555   5.282
 3831POPC   GL151493  18.299  20.761   5.685
 3831POPC   GL251494  18.129  20.513   5.908
 3831POPC   C1A51495  18.467  20.804   6.134
 3831POPC   D2A51496  18.190  20.655   6.489
 3831POPC   C3A51497  18.260  20.653   6.952
 3831POPC   C4A51498  18.254  20.882   7.360
 3831POPC   C1B51499  18.251  20.196   6.221
 3831POPC   C2B51500  18.456  20.011   6.589
 3831POPC   C3B51501  18.289  20.124   6.968
 3831POPC   C4B51502  18.013  20.250   7.276
 3832POPC   NC351503  17.862  44.224   5.386
 3832POPC   PO451504  17.347  43.695   5.443
 3832POPC   GL151505  17.634  43.808   5.789
 3832POPC   GL251506  17.904  43.550   5.897
 3832POPC   C1A51507  17.502  43.844   6.210
 3832POPC   D2A51508  17.534  44.096   6.554
 3832POPC   C3A51509  17.496  43.886   6.928
 3832POPC   C4A51510  17.586  43.971   7.382
 3832POPC   C1B51511  17.746  43.388   6.278
 3832POPC   C2B51512  17.672  43.465   6.720
 3832POPC   C3B51513  17.653  43.502   7.207
 3832POPC   C4B51514  17.543  43.544   7.692
 3833POPC   NC351515  20.486  44.261   5.431
 3833POPC   PO451516  20.380  44.888   5.612
 3833POPC   GL151517  20.356  44.502   5.873
 3833POPC   GL251518  20.700  44.341   5.880
 3833POPC   C1A51519  20.247  44.532   6.314
 3833POPC   D2A51520  20.191  44.726   6.732
 3833POPC   C3A51521  20.482  44.678   7.092
 3833POPC   C4A51522  20.538  44.370   7.419
 3833POPC   C1B51523  20.748  44.529   6.267
 3833POPC   C2B51524  20.632  44.376   6.671
 3833POPC   C3B51525  20.896  44.377   7.061
 3833POPC   C4B51526  21.014  44.575   7.475
 3834POPC   NC351527  38.786  36.971   5.506
 3834POPC   PO451528  39.433  37.147   5.344
 3834POPC   GL151529  39.266  36.862   5.712
 3834POPC   GL251530  39.066  37.102   5.916
 3834POPC   C1A51531  39.360  36.655   6.149
 3834POPC   D2A51532  39.238  36.482   6.592
 3834POPC   C3A51533  39.233  36.672   7.039
 3834POPC   C4A51534  39.066  36.713   7.471
 3834POPC   C1B51535  38.945  36.924   6.313
 3834POPC   C2B51536  38.689  36.942   6.664
 3834POPC   C3B51537  38.734  37.234   6.965
 3834POPC   C4B51538  39.086  37.188   7.211
 3835POPC   NC351539  21.275  41.722   5.415
 3835POPC   PO451540  21.936  41.568   5.341
 3835POPC   GL151541  21.658  41.485   5.701
 3835POPC   GL251542  21.582  41.857   5.815
 3835POPC   C1A51543  21.388  41.470   6.090
 3835POPC   D2A51544  21.508  41.456   6.539
 3835POPC   C3A51545  21.347  41.616   6.937
 3835POPC   C4A51546  21.230  41.376   7.294
 3835POPC   C1B51547  21.735  41.848   6.260
 3835POPC   C2B51548  21.688  42.014   6.703
 3835POPC   C3B51549  21.768  41.892   7.138
 3835POPC   C4B51550  21.534  41.761   7.483
 3836POPC   NC351551  18.667   3.955   5.594
 3836POPC   PO451552  19.025   4.381   5.226
 3836POPC   GL151553  19.023   4.367   5.693
 3836POPC   GL251554  18.679   4.364   5.890
 3836POPC   C1A51555  19.088   4.540   6.115
 3836POPC   D2A51556  18.801   4.492   6.469
 3836POPC   C3A51557  18.933   4.340   6.859
 3836POPC   C4A51558  19.103   4.610   7.176
 3836POPC   C1B51559  18.675   4.043   6.232
 3836POPC   C2B51560  18.743   3.875   6.643
 3836POPC   C3B51561  18.616   3.947   7.048
 3836POPC   C4B51562  18.838   4.220   7.369
 3837POPC   NC351563   9.333   8.334   5.711
 3837POPC   PO451564   8.905   8.193   5.198
 3837POPC   GL151565   8.783   8.094   5.683
 3837POPC   GL251566   9.052   7.966   5.953
 3837POPC   C1A51567   8.575   8.020   6.130
 3837POPC   D2A51568   8.780   7.933   6.551
 3837POPC   C3A51569   8.690   8.122   6.959
 3837POPC   C4A51570   8.771   7.950   7.381
 3837POPC   C1B51571   8.962   8.336   6.248
 3837POPC   C2B51572   9.020   8.457   6.667
 3837POPC   C3B51573   9.192   8.268   7.035
 3837POPC   C4B51574   9.035   8.390   7.438
 3838POPC   NC351575  22.965  24.939   5.487
 3838POPC   PO451576  22.927  24.217   5.479
 3838POPC   GL151577  22.868  24.550   5.817
 3838POPC   GL251578  22.572  24.472   5.974
 3838POPC   C1A51579  22.848  24.816   6.214
 3838POPC   D2A51580  23.044  24.963   6.591
 3838POPC   C3A51581  22.859  24.836   6.970
 3838POPC   C4A51582  23.074  24.519   7.166
 3838POPC   C1B51583  22.942  24.282   6.254
 3838POPC   C2B51584  23.023  24.064   6.674
 3838POPC   C3B51585  22.921  24.051   7.131
 3838POPC   C4B51586  23.045  24.155   7.548
 3839POPC   NC351587  25.740  11.790   5.414
 3839POPC   PO451588  26.401  12.011   5.416
 3839POPC   GL151589  26.150  11.811   5.758
 3839POPC   GL251590  25.961  12.091   5.882
 3839POPC   C1A51591  26.235  11.619   6.157
 3839POPC   D2A51592  26.396  11.716   6.565
 3839POPC   C3A51593  26.161  11.999   6.859
 3839POPC   C4A51594  26.026  11.925   7.274
 3839POPC   C1B51595  26.076  12.062   6.347
 3839POPC   C2B51596  25.753  12.221   6.690
 3839POPC   C3B51597  25.619  12.197   7.126
 3839POPC   C4B51598  25.704  12.232   7.568
 3840POPC   NC351599  23.912  25.007   5.402
 3840POPC   PO451600  23.993  25.709   5.349
 3840POPC   GL151601  23.896  25.447   5.723
 3840POPC   GL251602  24.149  25.203   5.821
 3840POPC   C1A51603  23.673  25.331   6.107
 3840POPC   D2A51604  23.559  25.128   6.487
 3840POPC   C3A51605  23.524  25.459   6.812
 3840POPC   C4A51606  23.473  25.390   7.267
 3840POPC   C1B51607  24.083  25.084   6.259
 3840POPC   C2B51608  24.018  25.356   6.613
 3840POPC   C3B51609  23.950  25.325   7.076
 3840POPC   C4B51610  23.795  24.985   7.329
 3841POPC   NC351611  30.298  19.586   5.323
 3841POPC   PO451612  29.607  19.929   5.388
 3841POPC   GL151613  29.781  19.787   5.727
 3841POPC   GL251614  29.654  19.467   5.827
 3841POPC   C1A51615  29.747  20.013   6.111
 3841POPC   D2A51616  29.871  19.911   6.520
 3841POPC   C3A51617  29.543  19.908   6.814
 3841POPC   C4A51618  29.647  19.871   7.232
 3841POPC   C1B51619  29.967  19.540   6.145
 3841POPC   C2B51620  30.124  19.418   6.549
 3841POPC   C3B51621  29.984  19.582   6.935
 3841POPC   C4B51622  29.890  19.401   7.314
 3842POPC   NC351623  12.041  17.005   5.443
 3842POPC   PO451624  12.324  17.615   5.313
 3842POPC   GL151625  12.079  17.632   5.695
 3842POPC   GL251626  12.172  17.327   5.839
 3842POPC   C1A51627  12.135  17.704   6.177
 3842POPC   D2A51628  12.291  17.565   6.611
 3842POPC   C3A51629  12.021  17.543   6.999
 3842POPC   C4A51630  12.155  17.408   7.411
 3842POPC   C1B51631  12.201  17.189   6.276
 3842POPC   C2B51632  11.923  17.164   6.656
 3842POPC   C3B51633  11.853  17.053   7.106
 3842POPC   C4B51634  11.947  16.915   7.530
 3843POPC   NC351635  13.749  24.563   5.438
 3843POPC   PO451636  13.040  24.581   5.521
 3843POPC   GL151637  13.362  24.452   5.790
 3843POPC   GL251638  13.522  24.775   5.907
 3843POPC   C1A51639  13.524  24.360   6.201
 3843POPC   D2A51640  13.501  24.644   6.549
 3843POPC   C3A51641  13.586  24.405   6.900
 3843POPC   C4A51642  13.338  24.347   7.260
 3843POPC   C1B51643  13.897  24.731   6.202
 3843POPC   C2B51644  14.022  24.624   6.647
 3843POPC   C3B51645  13.957  24.821   7.079
 3843POPC   C4B51646  14.029  24.800   7.556
 3844POPC   NC351647   6.328  29.898   5.323
 3844POPC   PO451648   5.820  30.143   5.656
 3844POPC   GL151649   6.168  30.047   5.884
 3844POPC   GL251650   6.092  29.715   5.901
 3844POPC   C1A51651   6.125  30.114   6.340
 3844POPC   D2A51652   5.761  30.158   6.641
 3844POPC   C3A51653   5.864  30.120   7.079
 3844POPC   C4A51654   6.261  29.938   7.131
 3844POPC   C1B51655   5.754  29.785   6.227
 3844POPC   C2B51656   5.713  29.610   6.641
 3844POPC   C3B51657   5.571  29.698   7.045
 3844POPC   C4B51658   5.485  29.742   7.488
 3845POPC   NC351659  30.066  31.557   5.520
 3845POPC   PO451660  29.600  31.078   5.251
 3845POPC   GL151661  29.635  31.271   5.692
 3845POPC   GL251662  29.697  31.602   5.875
 3845POPC   C1A51663  29.663  31.192   6.160
 3845POPC   D2A51664  29.523  31.294   6.557
 3845POPC   C3A51665  29.819  31.507   6.757
 3845POPC   C4A51666  29.816  31.624   7.157
 3845POPC   C1B51667  29.991  31.590   6.236
 3845POPC   C2B51668  30.147  31.871   6.584
 3845POPC   C3B51669  30.186  31.976   7.059
 3845POPC   C4B51670  30.254  31.687   7.421
 3846POPC   NC351671  23.960  12.680   5.516
 3846POPC   PO451672  23.652  13.145   5.229
 3846POPC   GL151673  23.794  13.128   5.734
 3846POPC   GL251674  23.691  12.835   5.962
 3846POPC   C1A51675  23.888  13.258   6.182
 3846POPC   D2A51676  23.709  13.301   6.630
 3846POPC   C3A51677  23.937  13.146   7.011
 3846POPC   C4A51678  23.887  12.834   7.347
 3846POPC   C1B51679  23.668  12.678   6.427
 3846POPC   C2B51680  23.405  12.565   6.838
 3846POPC   C3B51681  23.381  12.499   7.312
 3846POPC   C4B51682  23.640  12.537   7.684
 3847POPC   NC351683  17.806   4.205   5.465
 3847POPC   PO451684  17.248   4.442   5.300
 3847POPC   GL151685  17.447   4.546   5.710
 3847POPC   GL251686  17.533   4.228   5.902
 3847POPC   C1A51687  17.351   4.630   6.158
 3847POPC   D2A51688  17.335   4.279   6.429
 3847POPC   C3A51689  17.249   4.364   6.852
 3847POPC   C4A51690  17.449   4.658   7.128
 3847POPC   C1B51691  17.833   4.204   6.261
 3847POPC   C2B51692  17.985   4.223   6.699
 3847POPC   C3B51693  17.687   4.183   7.039
 3847POPC   C4B51694  17.362   4.216   7.353
 3848POPC   NC351695  34.553  11.648   5.478
 3848POPC   PO451696  34.727  10.977   5.356
 3848POPC   GL151697  34.670  11.014   5.821
 3848POPC   GL251698  34.642  11.362   5.882
 3848POPC   C1A51699  34.862  11.107   6.257
 3848POPC   D2A51700  34.645  11.107   6.677
 3848POPC   C3A51701  34.862  11.207   7.098
 3848POPC   C4A51702  34.943  11.210   7.558
 3848POPC   C1B51703  34.415  11.358   6.269
 3848POPC   C2B51704  34.263  11.452   6.687
 3848POPC   C3B51705  34.374  11.325   7.087
 3848POPC   C4B51706  34.551  11.512   7.449
 3849POPC   NC351707  26.041  27.925   5.415
 3849POPC   PO451708  25.488  27.879   5.773
 3849POPC   GL151709  25.900  27.701   5.850
 3849POPC   GL251710  25.980  27.389   5.667
 3849POPC   C1A51711  26.265  27.604   6.142
 3849POPC   D2A51712  26.384  27.324   6.516
 3849POPC   C3A51713  26.367  27.476   6.947
 3849POPC   C4A51714  26.145  27.761   7.213
 3849POPC   C1B51715  25.891  27.273   6.114
 3849POPC   C2B51716  25.882  27.499   6.527
 3849POPC   C3B51717  25.855  27.397   6.977
 3849POPC   C4B51718  25.579  27.101   7.150
 3850POPC   NC351719   3.830   6.488   5.373
 3850POPC   PO451720   3.448   7.100   5.304
 3850POPC   GL151721   3.581   6.803   5.664
 3850POPC   GL251722   3.340   6.631   5.830
 3850POPC   C1A51723   3.765   6.563   6.071
 3850POPC   D2A51724   3.563   6.573   6.472
 3850POPC   C3A51725   3.805   6.607   6.854
 3850POPC   C4A51726   3.681   6.489   7.263
 3850POPC   C1B51727   3.280   6.298   6.122
 3850POPC   C2B51728   3.189   6.206   6.496
 3850POPC   C3B51729   3.302   6.398   6.898
 3850POPC   C4B51730   3.183   6.410   7.291
 3851POPC   NC351731  14.153  28.609   4.973
 3851POPC   PO451732  14.423  28.162   5.321
 3851POPC   GL151733  14.295  28.297   5.729
 3851POPC   GL251734  14.078  28.022   5.764
 3851POPC   C1A51735  14.362  28.549   6.107
 3851POPC   D2A51736  14.466  28.411   6.497
 3851POPC   C3A51737  14.462  28.666   6.839
 3851POPC   C4A51738  14.486  28.404   7.158
 3851POPC   C1B51739  14.124  28.090   6.196
 3851POPC   C2B51740  14.049  28.138   6.618
 3851POPC   C3B51741  14.258  27.999   6.965
 3851POPC   C4B51742  14.116  27.711   7.266
 3852POPC   NC351743  12.520   1.059   5.019
 3852POPC   PO451744  12.120   1.420   5.546
 3852POPC   GL151745  12.042   1.178   5.842
 3852POPC   GL251746  12.025   1.475   6.065
 3852POPC   C1A51747  12.240   1.018   6.173
 3852POPC   D2A51748  12.115   1.182   6.517
 3852POPC   C3A51749  12.144   0.941   6.868
 3852POPC   C4A51750  12.221   1.082   7.275
 3852POPC   C1B51751  11.673   1.580   6.305
 3852POPC   C2B51752  11.683   1.476   6.712
 3852POPC   C3B51753  12.088   1.481   6.913
 3852POPC   C4B51754  12.238   1.588   7.281
 3853POPC   NC351755  21.722  34.859   5.359
 3853POPC   PO451756  21.007  35.015   5.545
 3853POPC   GL151757  21.348  34.717   5.691
 3853POPC   GL251758  21.339  34.318   5.657
 3853POPC   C1A51759  21.413  34.553   6.103
 3853POPC   D2A51760  21.158  34.418   6.438
 3853POPC   C3A51761  21.328  34.671   6.753
 3853POPC   C4A51762  21.376  34.611   7.180
 3853POPC   C1B51763  21.473  34.060   6.022
 3853POPC   C2B51764  21.532  34.053   6.459
 3853POPC   C3B51765  21.368  34.165   6.867
 3853POPC   C4B51766  21.676  34.197   7.197
 3854POPC   NC351767  11.347   2.419   5.456
 3854POPC   PO451768  11.130   3.057   5.307
 3854POPC   GL151769  11.095   2.933   5.785
 3854POPC   GL251770  11.027   2.532   5.821
 3854POPC   C1A51771  11.139   3.105   6.246
 3854POPC   D2A51772  11.392   2.980   6.631
 3854POPC   C3A51773  11.342   3.030   7.093
 3854POPC   C4A51774  11.416   2.901   7.561
 3854POPC   C1B51775  11.326   2.614   6.163
 3854POPC   C2B51776  11.496   2.463   6.551
 3854POPC   C3B51777  11.454   2.426   6.999
 3854POPC   C4B51778  11.279   2.420   7.428
 3855POPC   NC351779  41.132  15.294   5.180
 3855POPC   PO451780  40.545  15.092   5.271
 3855POPC   GL151781  40.779  15.247   5.657
 3855POPC   GL251782  40.528  15.083   5.865
 3855POPC   C1A51783  40.842  15.349   6.151
 3855POPC   D2A51784  40.671  15.257   6.601
 3855POPC   C3A51785  40.910  15.388   7.005
 3855POPC   C4A51786  40.982  15.145   7.437
 3855POPC   C1B51787  40.380  14.892   6.272
 3855POPC   C2B51788  40.320  14.897   6.745
 3855POPC   C3B51789  40.600  15.011   7.113
 3855POPC   C4B51790  40.514  15.280   7.508
 3856POPC   NC351791  17.465  42.468   5.134
 3856POPC   PO451792  17.910  42.224   5.598
 3856POPC   GL151793  17.547  42.327   5.826
 3856POPC   GL251794  17.257  42.504   5.652
 3856POPC   C1A51795  17.610  42.333   6.258
 3856POPC   D2A51796  17.762  42.445   6.657
 3856POPC   C3A51797  17.708  42.126   6.965
 3856POPC   C4A51798  17.405  41.921   7.221
 3856POPC   C1B51799  17.307  42.723   6.053
 3856POPC   C2B51800  17.241  42.619   6.483
 3856POPC   C3B51801  17.308  42.732   6.883
 3856POPC   C4B51802  17.340  42.436   7.159
 3857POPC   NC351803  25.679  31.027   5.333
 3857POPC   PO451804  26.147  30.578   5.175
 3857POPC   GL151805  25.923  30.612   5.576
 3857POPC   GL251806  26.197  30.831   5.667
 3857POPC   C1A51807  25.699  30.754   5.983
 3857POPC   D2A51808  25.830  30.738   6.433
 3857POPC   C3A51809  25.828  30.917   6.852
 3857POPC   C4A51810  26.054  30.845   7.242
 3857POPC   C1B51811  26.194  30.642   6.077
 3857POPC   C2B51812  26.361  30.739   6.502
 3857POPC   C3B51813  26.393  30.621   6.930
 3857POPC   C4B51814  26.226  30.364   7.268
 3858POPC   NC351815   6.445  44.422   5.267
 3858POPC   PO451816   6.785  43.807   5.186
 3858POPC   GL151817   6.828  43.986   5.630
 3858POPC   GL251818   6.598  44.256   5.789
 3858POPC   C1A51819   6.815  43.924   6.095
 3858POPC   D2A51820   6.954  44.008   6.525
 3858POPC   C3A51821   6.732  43.770   6.853
 3858POPC   C4A51822   6.789  43.643   7.296
 3858POPC   C1B51823   6.579  44.343   6.301
 3858POPC   C2B51824   6.622  44.276   6.788
 3858POPC   C3B51825   6.804  44.143   7.198
 3858POPC   C4B51826   6.607  44.039   7.612
 3859POPC   NC351827  42.232  37.952   5.470
 3859POPC   PO451828  42.434  37.341   5.165
 3859POPC   GL151829  42.370  37.451   5.637
 3859POPC   GL251830  42.626  37.645   5.743
 3859POPC   C1A51831  42.213  37.536   6.107
 3859POPC   D2A51832  42.067  37.506   6.562
 3859POPC   C3A51833  42.279  37.713   6.911
 3859POPC   C4A51834  42.343  37.640   7.353
 3859POPC   C1B51835  42.714  37.420   6.131
 3859POPC   C2B51836  42.588  37.475   6.574
 3859POPC   C3B51837  42.590  37.338   7.013
 3859POPC   C4B51838  42.888  37.467   7.316
 3860POPC   NC351839  13.606  43.763   5.414
 3860POPC   PO451840  13.555  44.416   5.506
 3860POPC   GL151841  13.431  44.109   5.751
 3860POPC   GL251842  13.763  44.053   5.850
 3860POPC   C1A51843  13.398  43.839   6.133
 3860POPC   D2A51844  13.599  43.960   6.524
 3860POPC   C3A51845  13.367  43.915   6.859
 3860POPC   C4A51846  13.490  43.656   7.177
 3860POPC   C1B51847  13.920  43.817   6.171
 3860POPC   C2B51848  13.922  43.531   6.560
 3860POPC   C3B51849  13.974  43.585   6.967
 3860POPC   C4B51850  13.970  43.913   7.210
 3861POPC   NC351851   9.883  24.747   5.485
 3861POPC   PO451852   9.301  24.347   5.334
 3861POPC   GL151853   9.606  24.416   5.733
 3861POPC   GL251854   9.624  24.755   5.914
 3861POPC   C1A51855   9.701  24.220   6.142
 3861POPC   D2A51856   9.726  24.418   6.554
 3861POPC   C3A51857   9.815  24.191   6.940
 3861POPC   C4A51858  10.036  24.379   7.287
 3861POPC   C1B51859   9.599  24.920   6.346
 3861POPC   C2B51860   9.486  24.828   6.770
 3861POPC   C3B51861   9.684  24.747   7.132
 3861POPC   C4B51862  10.104  24.863   7.127
 3862POPC   NC351863   7.341  33.133   4.987
 3862POPC   PO451864   7.643  33.364   5.568
 3862POPC   GL151865   7.334  33.234   5.884
 3862POPC   GL251866   7.331  32.876   5.862
 3862POPC   C1A51867   7.369  33.187   6.348
 3862POPC   D2A51868   7.586  32.989   6.734
 3862POPC   C3A51869   7.379  33.146   7.096
 3862POPC   C4A51870   7.088  33.336   7.367
 3862POPC   C1B51871   7.046  32.793   6.203
 3862POPC   C2B51872   7.074  32.880   6.649
 3862POPC   C3B51873   7.191  32.678   7.016
 3862POPC   C4B51874   7.623  32.660   7.186
 3863POPC   NC351875  15.001   2.493   5.274
 3863POPC   PO451876  15.487   2.919   5.337
 3863POPC   GL151877  15.277   2.682   5.696
 3863POPC   GL251878  14.903   2.711   5.721
 3863POPC   C1A51879  15.203   2.567   6.135
 3863POPC   D2A51880  15.167   2.339   6.507
 3863POPC   C3A51881  15.187   2.587   6.887
 3863POPC   C4A51882  14.934   2.661   7.218
 3863POPC   C1B51883  14.891   2.965   6.106
 3863POPC   C2B51884  15.066   2.909   6.510
 3863POPC   C3B51885  14.944   3.061   6.910
 3863POPC   C4B51886  15.158   3.147   7.269
 3864POPC   NC351887  11.732   1.239   5.364
 3864POPC   PO451888  11.031   1.209   5.213
 3864POPC   GL151889  11.289   1.191   5.653
 3864POPC   GL251890  11.560   1.333   5.858
 3864POPC   C1A51891  11.188   1.051   6.075
 3864POPC   D2A51892  11.307   1.231   6.438
 3864POPC   C3A51893  11.232   1.117   6.839
 3864POPC   C4A51894  11.234   1.308   7.248
 3864POPC   C1B51895  11.713   1.053   6.200
 3864POPC   C2B51896  11.681   0.915   6.633
 3864POPC   C3B51897  11.704   1.104   7.053
 3864POPC   C4B51898  11.717   1.510   7.237
 3865POPC   NC351899  10.750   9.279   5.325
 3865POPC   PO451900  10.231   8.926   5.554
 3865POPC   GL151901  10.543   9.159   5.795
 3865POPC   GL251902  10.914   9.123   5.786
 3865POPC   C1A51903  10.679   9.349   6.173
 3865POPC   D2A51904  10.697   9.123   6.535
 3865POPC   C3A51905  10.656   9.326   6.904
 3865POPC   C4A51906  10.628   9.089   7.268
 3865POPC   C1B51907  10.809   8.820   6.134
 3865POPC   C2B51908  10.880   8.627   6.560
 3865POPC   C3B51909  10.756   8.616   7.009
 3865POPC   C4B51910  10.880   8.425   7.407
 3866POPC   NC351911  30.353   3.840   5.444
 3866POPC   PO451912  30.837   3.437   5.436
 3866POPC   GL151913  30.689   3.474   5.866
 3866POPC   GL251914  30.302   3.510   5.850
 3866POPC   C1A51915  30.905   3.582   6.274
 3866POPC   D2A51916  30.709   3.878   6.549
 3866POPC   C3A51917  30.710   3.761   6.958
 3866POPC   C4A51918  31.035   3.890   7.204
 3866POPC   C1B51919  30.389   3.546   6.282
 3866POPC   C2B51920  30.563   3.364   6.654
 3866POPC   C3B51921  30.577   3.286   7.099
 3866POPC   C4B51922  30.711   3.566   7.456
 3867POPC   NC351923  13.180   6.006   5.314
 3867POPC   PO451924  12.663   5.571   5.361
 3867POPC   GL151925  12.875   5.830   5.706
 3867POPC   GL251926  13.205   5.673   5.746
 3867POPC   C1A51927  12.791   6.109   6.086
 3867POPC   D2A51928  12.654   6.040   6.517
 3867POPC   C3A51929  12.789   6.113   6.918
 3867POPC   C4A51930  12.812   5.852   7.236
 3867POPC   C1B51931  13.027   5.637   6.172
 3867POPC   C2B51932  13.088   5.767   6.597
 3867POPC   C3B51933  13.171   5.556   6.986
 3867POPC   C4B51934  13.284   5.710   7.385
 3868POPC   NC351935  16.360  16.330   5.461
 3868POPC   PO451936  15.869  16.748   5.344
 3868POPC   GL151937  16.106  16.847   5.725
 3868POPC   GL251938  15.833  17.001   5.888
 3868POPC   C1A51939  16.163  16.661   6.151
 3868POPC   D2A51940  16.292  16.638   6.580
 3868POPC   C3A51941  15.961  16.589   6.824
 3868POPC   C4A51942  16.012  16.623   7.243
 3868POPC   C1B51943  15.673  16.906   6.308
 3868POPC   C2B51944  15.594  16.929   6.766
 3868POPC   C3B51945  15.662  16.995   7.221
 3868POPC   C4B51946  15.507  17.122   7.637
 3869POPC   NC351947  41.182  31.548   5.220
 3869POPC   PO451948  40.504  31.410   5.217
 3869POPC   GL151949  40.829  31.531   5.626
 3869POPC   GL251950  40.911  31.247   5.889
 3869POPC   C1A51951  40.958  31.752   6.054
 3869POPC   D2A51952  41.111  31.820   6.514
 3869POPC   C3A51953  40.788  31.792   6.874
 3869POPC   C4A51954  40.625  31.718   7.301
 3869POPC   C1B51955  40.709  31.368   6.288
 3869POPC   C2B51956  40.495  31.226   6.640
 3869POPC   C3B51957  40.638  31.267   7.044
 3869POPC   C4B51958  41.012  31.091   7.175
 3870POPC   NC351959  20.259  23.361   5.223
 3870POPC   PO451960  20.655  23.883   5.379
 3870POPC   GL151961  20.510  23.704   5.758
 3870POPC   GL251962  20.233  23.451   5.768
 3870POPC   C1A51963  20.643  23.710   6.189
 3870POPC   D2A51964  20.513  23.859   6.610
 3870POPC   C3A51965  20.816  23.837   6.964
 3870POPC   C4A51966  20.656  23.937   7.363
 3870POPC   C1B51967  20.185  23.529   6.244
 3870POPC   C2B51968  20.403  23.352   6.587
 3870POPC   C3B51969  20.526  23.414   7.013
 3870POPC   C4B51970  20.333  23.476   7.414
 3871POPC   NC351971  28.851   8.815   5.219
 3871POPC   PO451972  29.344   9.233   5.391
 3871POPC   GL151973  29.016   9.071   5.670
 3871POPC   GL251974  29.202   8.751   5.636
 3871POPC   C1A51975  28.908   9.102   6.138
 3871POPC   D2A51976  29.241   9.033   6.481
 3871POPC   C3A51977  29.144   8.933   6.924
 3871POPC   C4A51978  28.934   9.027   7.306
 3871POPC   C1B51979  29.065   8.614   6.077
 3871POPC   C2B51980  28.856   8.706   6.496
 3871POPC   C3B51981  28.836   8.515   6.911
 3871POPC   C4B51982  28.989   8.538   7.340
 3872POPC   NC351983  13.848   9.117   5.077
 3872POPC   PO451984  14.047   9.486   5.580
 3872POPC   GL151985  13.834   9.093   5.719
 3872POPC   GL251986  13.484   8.958   5.772
 3872POPC   C1A51987  13.820   8.911   6.145
 3872POPC   D2A51988  14.037   8.883   6.540
 3872POPC   C3A51989  13.886   9.082   6.905
 3872POPC   C4A51990  13.778   8.890   7.304
 3872POPC   C1B51991  13.302   8.802   6.117
 3872POPC   C2B51992  13.189   8.854   6.522
 3872POPC   C3B51993  13.410   8.845   6.914
 3872POPC   C4B51994  13.282   9.044   7.283
 3873POPC   NC351995  25.088  39.869   5.106
 3873POPC   PO451996  25.469  39.321   5.404
 3873POPC   GL151997  25.393  39.150   5.802
 3873POPC   GL251998  25.052  39.240   5.827
 3873POPC   C1A51999  25.375  39.041   6.231
 3873POPC   D2A52000  25.585  39.123   6.596
 3873POPC   C3A52001  25.423  39.246   6.967
 3873POPC   C4A52002  25.340  39.211   7.338
 3873POPC   C1B52003  25.173  39.507   6.180
 3873POPC   C2B52004  25.152  39.404   6.581
 3873POPC   C3B52005  25.105  39.641   6.964
 3873POPC   C4B52006  25.062  39.646   7.404
 3874POPC   NC352007  21.643  24.793   5.531
 3874POPC   PO452008  21.328  24.180   5.376
 3874POPC   GL152009  21.285  24.438   5.732
 3874POPC   GL252010  21.623  24.373   5.828
 3874POPC   C1A52011  21.193  24.573   6.180
 3874POPC   D2A52012  21.338  24.632   6.631
 3874POPC   C3A52013  21.127  24.396   6.991
 3874POPC   C4A52014  21.292  24.353   7.426
 3874POPC   C1B52015  21.678  24.344   6.272
 3874POPC   C2B52016  21.620  24.140   6.696
 3874POPC   C3B52017  21.639  24.422   7.044
 3874POPC   C4B52018  21.740  24.606   7.505
 3875POPC   NC352019  11.279   3.284   4.939
 3875POPC   PO452020  11.311   3.773   5.414
 3875POPC   GL152021  11.432   3.611   5.790
 3875POPC   GL252022  11.122   3.709   5.929
 3875POPC   C1A52023  11.489   3.521   6.235
 3875POPC   D2A52024  11.439   3.743   6.614
 3875POPC   C3A52025  11.484   3.519   6.983
 3875POPC   C4A52026  11.625   3.684   7.336
 3875POPC   C1B52027  10.974   3.621   6.333
 3875POPC   C2B52028  11.067   3.397   6.715
 3875POPC   C3B52029  10.992   3.417   7.165
 3875POPC   C4B52030  11.258   3.371   7.529
 3876POPC   NC352031  42.990  32.049   5.323
 3876POPC   PO452032  43.634  32.132   5.392
 3876POPC   GL152033  43.309  32.078   5.755
 3876POPC   GL252034  42.956  32.237   5.826
 3876POPC   C1A52035  43.179  31.965   6.185
 3876POPC   D2A52036  42.971  32.206   6.487
 3876POPC   C3A52037  43.214  32.210   6.855
 3876POPC   C4A52038  43.185  31.965   7.247
 3876POPC   C1B52039  42.820  32.585   6.105
 3876POPC   C2B52040  42.643  32.641   6.506
 3876POPC   C3B52041  42.748  32.567   6.916
 3876POPC   C4B52042  42.998  32.439   7.262
 3877POPC   NC352043  17.825  14.127   5.543
 3877POPC   PO452044  17.532  13.514   5.340
 3877POPC   GL152045  17.344  13.657   5.722
 3877POPC   GL252046  17.281  14.005   5.616
 3877POPC   C1A52047  17.270  13.480   6.132
 3877POPC   D2A52048  17.545  13.476   6.491
 3877POPC   C3A52049  17.364  13.473   6.891
 3877POPC   C4A52050  17.410  13.404   7.317
 3877POPC   C1B52051  17.124  14.066   6.030
 3877POPC   C2B52052  17.199  13.896   6.457
 3877POPC   C3B52053  17.376  13.982   6.854
 3877POPC   C4B52054  17.104  14.093   7.178
 3878POPC   NC352055  17.103  20.544   5.483
 3878POPC   PO452056  17.752  20.817   5.432
 3878POPC   GL152057  17.587  20.536   5.781
 3878POPC   GL252058  17.692  20.732   6.057
 3878POPC   C1A52059  17.269  20.461   6.168
 3878POPC   D2A52060  17.343  20.315   6.617
 3878POPC   C3A52061  17.278  20.609   6.990
 3878POPC   C4A52062  17.164  20.587   7.451
 3878POPC   C1B52063  17.772  20.346   6.316
 3878POPC   C2B52064  17.850  20.342   6.784
 3878POPC   C3B52065  17.770  20.674   7.157
 3878POPC   C4B52066  17.746  20.873   7.587
 3879POPC   NC352067  14.484  20.816   5.526
 3879POPC   PO452068  14.249  20.217   5.571
 3879POPC   GL152069  14.557  20.436   5.893
 3879POPC   GL252070  14.622  20.814   6.009
 3879POPC   C1A52071  14.532  20.479   6.375
 3879POPC   D2A52072  14.561  20.674   6.799
 3879POPC   C3A52073  14.251  20.487   7.104
 3879POPC   C4A52074  14.012  20.079   7.172
 3879POPC   C1B52075  14.227  20.956   6.230
 3879POPC   C2B52076  14.022  20.962   6.657
 3879POPC   C3B52077  14.234  21.008   7.046
 3879POPC   C4B52078  14.608  20.854   7.279
 3880POPC   NC352079  18.622  41.884   5.400
 3880POPC   PO452080  18.306  41.261   5.416
 3880POPC   GL152081  18.282  41.469   5.780
 3880POPC   GL252082  18.626  41.546   5.771
 3880POPC   C1A52083  18.202  41.636   6.182
 3880POPC   D2A52084  18.501  41.809   6.458
 3880POPC   C3A52085  18.406  41.799   6.904
 3880POPC   C4A52086  18.069  41.837   7.222
 3880POPC   C1B52087  18.652  41.404   6.163
 3880POPC   C2B52088  18.453  41.304   6.543
 3880POPC   C3B52089  18.446  41.122   6.922
 3880POPC   C4B52090  18.575  41.417   7.230
 3881POPC   NC352091  11.020   0.825   5.490
 3881POPC   PO452092  11.363   0.447   5.094
 3881POPC   GL152093  11.469   0.537   5.554
 3881POPC   GL252094  11.395   0.235   5.721
 3881POPC   C1A52095  11.455   0.622   6.048
 3881POPC   D2A52096  11.210   0.690   6.457
 3881POPC   C3A52097  11.363   0.587   6.879
 3881POPC   C4A52098  11.334   0.799   7.244
 3881POPC   C1B52099  11.237   0.176   6.144
 3881POPC   C2B52100  11.408   0.182   6.561
 3881POPC   C3B52101  11.237   0.094   6.984
 3881POPC   C4B52102  11.130   0.333   7.338
 3882POPC   NC352103  21.911  43.278   5.377
 3882POPC   PO452104  22.169  42.718   5.365
 3882POPC   GL152105  22.033  42.860   5.740
 3882POPC   GL252106  22.350  42.932   5.834
 3882POPC   C1A52107  21.976  42.810   6.185
 3882POPC   D2A52108  21.876  42.995   6.554
 3882POPC   C3A52109  21.976  42.922   6.967
 3882POPC   C4A52110  21.857  43.277   7.217
 3882POPC   C1B52111  22.479  42.885   6.264
 3882POPC   C2B52112  22.425  42.889   6.711
 3882POPC   C3B52113  22.720  42.854   7.055
 3882POPC   C4B52114  22.767  42.801   7.517
 3883POPC   NC352115  41.335  36.478   5.209
 3883POPC   PO452116  41.422  35.848   5.400
 3883POPC   GL152117  41.506  35.997   5.799
 3883POPC   GL252118  41.391  36.321   5.721
 3883POPC   C1A52119  41.626  35.923   6.242
 3883POPC   D2A52120  41.629  35.794   6.683
 3883POPC   C3A52121  41.803  36.089   7.017
 3883POPC   C4A52122  41.921  36.000   7.469
 3883POPC   C1B52123  41.205  36.218   6.145
 3883POPC   C2B52124  41.131  36.419   6.572
 3883POPC   C3B52125  41.324  36.308   6.969
 3883POPC   C4B52126  41.435  36.148   7.388
 3884POPC   NC352127  40.900  19.545   5.547
 3884POPC   PO452128  40.959  19.963   5.056
 3884POPC   GL152129  41.328  20.021   5.486
 3884POPC   GL252130  41.486  20.294   5.735
 3884POPC   C1A52131  41.345  19.898   6.004
 3884POPC   D2A52132  41.277  19.619   6.371
 3884POPC   C3A52133  41.310  19.716   6.808
 3884POPC   C4A52134  41.310  20.027   7.116
 3884POPC   C1B52135  41.623  20.258   6.231
 3884POPC   C2B52136  41.622  20.110   6.701
 3884POPC   C3B52137  41.805  20.126   7.157
 3884POPC   C4B52138  41.932  20.242   7.610
 3885POPC   NC352139   5.164  34.853   5.440
 3885POPC   PO452140   5.414  34.187   5.571
 3885POPC   GL152141   5.204  34.526   5.804
 3885POPC   GL252142   5.369  34.868   5.890
 3885POPC   C1A52143   5.013  34.612   6.189
 3885POPC   D2A52144   5.030  34.373   6.563
 3885POPC   C3A52145   4.989  34.551   6.961
 3885POPC   C4A52146   5.349  34.521   7.192
 3885POPC   C1B52147   5.622  34.810   6.232
 3885POPC   C2B52148   5.492  34.714   6.619
 3885POPC   C3B52149   5.175  34.977   6.742
 3885POPC   C4B52150   5.051  35.083   7.137
 3886POPC   NC352151  16.920  19.781   5.359
 3886POPC   PO452152  16.398  19.350   5.410
 3886POPC   GL152153  16.652  19.618   5.757
 3886POPC   GL252154  16.495  19.920   5.936
 3886POPC   C1A52155  16.703  19.564   6.214
 3886POPC   D2A52156  16.478  19.844   6.505
 3886POPC   C3A52157  16.592  19.899   6.932
 3886POPC   C4A52158  16.839  19.689   7.253
 3886POPC   C1B52159  16.882  20.038   6.171
 3886POPC   C2B52160  17.029  19.889   6.576
 3886POPC   C3B52161  17.063  20.070   6.991
 3886POPC   C4B52162  16.811  20.189   7.350
 3887POPC   NC352163  42.378  27.089   5.664
 3887POPC   PO452164  42.179  26.535   5.394
 3887POPC   GL152165  42.160  26.544   5.846
 3887POPC   GL252166  42.514  26.440   5.844
 3887POPC   C1A52167  41.982  26.613   6.307
 3887POPC   D2A52168  42.027  26.626   6.770
 3887POPC   C3A52169  42.163  27.023   6.968
 3887POPC   C4A52170  42.236  27.058   7.424
 3887POPC   C1B52171  42.482  26.547   6.291
 3887POPC   C2B52172  42.551  26.495   6.742
 3887POPC   C3B52173  42.454  26.663   7.151
 3887POPC   C4B52174  42.710  26.843   7.460
 3888POPC   NC352175   9.402  25.498   5.032
 3888POPC   PO452176   9.669  25.157   5.569
 3888POPC   GL152177   9.653  25.272   5.961
 3888POPC   GL252178   9.943  25.467   5.921
 3888POPC   C1A52179   9.439  25.423   6.330
 3888POPC   D2A52180   9.524  25.579   6.747
 3888POPC   C3A52181   9.625  25.255   7.059
 3888POPC   C4A52182   9.815  25.192   7.440
 3888POPC   C1B52183   9.957  25.391   6.350
 3888POPC   C2B52184   9.974  25.167   6.708
 3888POPC   C3B52185  10.115  25.362   7.056
 3888POPC   C4B52186   9.931  25.680   7.275
 3889POPC   NC352187   4.445  25.036   5.171
 3889POPC   PO452188   3.926  25.217   5.488
 3889POPC   GL152189   4.336  25.178   5.819
 3889POPC   GL252190   4.698  25.250   5.843
 3889POPC   C1A52191   4.418  25.219   6.295
 3889POPC   D2A52192   4.554  25.371   6.718
 3889POPC   C3A52193   4.301  25.252   7.090
 3889POPC   C4A52194   4.164  25.347   7.524
 3889POPC   C1B52195   4.857  24.989   6.203
 3889POPC   C2B52196   4.948  25.062   6.641
 3889POPC   C3B52197   4.756  25.019   7.040
 3889POPC   C4B52198   4.635  25.137   7.455
 3890POPC   NC352199  25.450  29.621   5.560
 3890POPC   PO452200  25.407  30.297   5.470
 3890POPC   GL152201  25.382  30.049   5.874
 3890POPC   GL252202  25.058  29.870   5.892
 3890POPC   C1A52203  25.513  29.883   6.299
 3890POPC   D2A52204  25.728  29.952   6.707
 3890POPC   C3A52205  25.722  29.634   7.023
 3890POPC   C4A52206  25.418  29.383   7.208
 3890POPC   C1B52207  24.991  29.943   6.361
 3890POPC   C2B52208  25.219  29.831   6.762
 3890POPC   C3B52209  25.265  29.876   7.235
 3890POPC   C4B52210  24.992  30.000   7.667
 3891POPC   NC352211  34.257  41.715   5.392
 3891POPC   PO452212  34.863  41.811   5.501
 3891POPC   GL152213  34.604  41.633   5.802
 3891POPC   GL252214  34.409  41.353   5.712
 3891POPC   C1A52215  34.509  41.665   6.240
 3891POPC   D2A52216  34.817  41.633   6.558
 3891POPC   C3A52217  34.655  41.623   6.926
 3891POPC   C4A52218  34.656  41.801   7.292
 3891POPC   C1B52219  34.300  41.214   6.114
 3891POPC   C2B52220  34.502  41.206   6.510
 3891POPC   C3B52221  34.507  41.108   6.932
 3891POPC   C4B52222  34.408  41.322   7.269
 3892POPC   NC352223  36.675   6.831   5.321
 3892POPC   PO452224  36.563   6.268   5.513
 3892POPC   GL152225  36.854   6.465   5.791
 3892POPC   GL252226  36.795   6.816   5.822
 3892POPC   C1A52227  36.867   6.509   6.266
 3892POPC   D2A52228  36.754   6.370   6.701
 3892POPC   C3A52229  36.879   6.602   7.076
 3892POPC   C4A52230  36.628   6.677   7.415
 3892POPC   C1B52231  36.641   6.965   6.233
 3892POPC   C2B52232  36.691   6.884   6.688
 3892POPC   C3B52233  36.598   7.083   7.116
 3892POPC   C4B52234  36.584   7.173   7.589
 3893POPC   NC352235  25.515  14.943   5.107
 3893POPC   PO452236  25.167  15.448   5.508
 3893POPC   GL152237  25.196  15.285   5.896
 3893POPC   GL252238  24.908  15.156   5.884
 3893POPC   C1A52239  25.432  15.150   6.226
 3893POPC   D2A52240  25.761  15.163   6.541
 3893POPC   C3A52241  25.554  15.208   6.921
 3893POPC   C4A52242  25.381  15.043   7.295
 3893POPC   C1B52243  24.958  15.362   6.322
 3893POPC   C2B52244  25.099  15.162   6.685
 3893POPC   C3B52245  25.031  14.854   6.975
 3893POPC   C4B52246  24.916  14.855   7.413
 3894POPC   NC352247   6.142  25.728   5.322
 3894POPC   PO452248   5.905  26.414   5.453
 3894POPC   GL152249   5.905  26.231   5.861
 3894POPC   GL252250   5.926  25.894   5.766
 3894POPC   C1A52251   6.143  25.996   6.227
 3894POPC   D2A52252   6.143  25.824   6.675
 3894POPC   C3A52253   5.882  26.066   6.999
 3894POPC   C4A52254   5.728  25.942   7.410
 3894POPC   C1B52255   5.636  25.871   6.131
 3894POPC   C2B52256   5.612  25.921   6.593
 3894POPC   C3B52257   5.415  25.839   7.015
 3894POPC   C4B52258   5.238  26.087   7.368
 3895POPC   NC352259   9.429   6.233   5.548
 3895POPC   PO452260   9.032   5.721   5.358
 3895POPC   GL152261   8.966   5.948   5.743
 3895POPC   GL252262   8.659   5.752   5.860
 3895POPC   C1A52263   8.956   6.009   6.206
 3895POPC   D2A52264   8.804   5.934   6.633
 3895POPC   C3A52265   9.137   5.867   6.939
 3895POPC   C4A52266   9.160   5.744   7.336
 3895POPC   C1B52267   8.842   5.471   6.194
 3895POPC   C2B52268   8.966   5.464   6.627
 3895POPC   C3B52269   8.746   5.574   7.029
 3895POPC   C4B52270   8.743   5.547   7.503
 3896POPC   NC352271  29.961  43.467   5.275
 3896POPC   PO452272  30.165  44.057   5.252
 3896POPC   GL152273  29.830  44.011   5.632
 3896POPC   GL252274  29.647  43.674   5.633
 3896POPC   C1A52275  29.791  44.164   6.067
 3896POPC   D2A52276  30.151  43.970   6.319
 3896POPC   C3A52277  30.152  44.027   6.758
 3896POPC   C4A52278  29.873  44.159   7.112
 3896POPC   C1B52279  29.784  43.667   6.095
 3896POPC   C2B52280  29.896  43.489   6.523
 3896POPC   C3B52281  29.890  43.659   6.974
 3896POPC   C4B52282  29.849  43.747   7.458
 3897POPC   NC352283   8.080  20.889   5.372
 3897POPC   PO452284   8.328  20.278   5.333
 3897POPC   GL152285   8.230  20.457   5.777
 3897POPC   GL252286   8.269  20.815   5.883
 3897POPC   C1A52287   8.061  20.344   6.220
 3897POPC   D2A52288   8.267  20.280   6.628
 3897POPC   C3A52289   8.097  20.379   7.065
 3897POPC   C4A52290   7.805  20.400   7.436
 3897POPC   C1B52291   7.911  20.834   6.187
 3897POPC   C2B52292   7.960  20.691   6.622
 3897POPC   C3B52293   8.139  20.885   7.003
 3897POPC   C4B52294   8.097  20.879   7.468
 3898POPC   NC352295  34.902   6.821   5.432
 3898POPC   PO452296  34.777   6.178   5.337
 3898POPC   GL152297  34.583   6.381   5.759
 3898POPC   GL252298  34.258   6.605   5.838
 3898POPC   C1A52299  34.576   6.527   6.214
 3898POPC   D2A52300  34.710   6.352   6.586
 3898POPC   C3A52301  34.541   6.494   6.954
 3898POPC   C4A52302  34.704   6.684   7.290
 3898POPC   C1B52303  34.255   6.930   6.220
 3898POPC   C2B52304  34.374   6.915   6.698
 3898POPC   C3B52305  34.218   6.855   7.157
 3898POPC   C4B52306  34.343   6.840   7.604
 3899POPC   NC352307  11.099   7.161   5.423
 3899POPC   PO452308  11.509   7.727   5.431
 3899POPC   GL152309  11.458   7.384   5.713
 3899POPC   GL252310  11.184   7.569   5.861
 3899POPC   C1A52311  11.356   7.196   6.134
 3899POPC   D2A52312  11.169   7.453   6.454
 3899POPC   C3A52313  11.192   7.360   6.890
 3899POPC   C4A52314  11.274   7.122   7.260
 3899POPC   C1B52315  11.614   7.643   6.118
 3899POPC   C2B52316  11.711   7.886   6.502
 3899POPC   C3B52317  11.545   7.769   6.909
 3899POPC   C4B52318  11.330   7.645   7.309
 3900POPC   NC352319  22.915  30.950   5.410
 3900POPC   PO452320  23.163  30.358   5.539
 3900POPC   GL152321  22.861  30.473   5.827
 3900POPC   GL252322  22.599  30.188   5.783
 3900POPC   C1A52323  22.881  30.691   6.254
 3900POPC   D2A52324  22.713  30.842   6.652
 3900POPC   C3A52325  22.917  30.829   7.062
 3900POPC   C4A52326  23.175  30.570   7.296
 3900POPC   C1B52327  22.741  30.198   6.233
 3900POPC   C2B52328  22.599  30.350   6.613
 3900POPC   C3B52329  22.698  30.375   7.047
 3900POPC   C4B52330  22.745  30.433   7.513
 3901POPC   NC352331   3.823  14.971   5.355
 3901POPC   PO452332   3.259  15.361   5.444
 3901POPC   GL152333   3.442  15.060   5.739
 3901POPC   GL252334   3.759  15.215   5.849
 3901POPC   C1A52335   3.312  14.968   6.182
 3901POPC   D2A52336   3.532  14.961   6.601
 3901POPC   C3A52337   3.436  15.098   7.024
 3901POPC   C4A52338   3.533  15.107   7.465
 3901POPC   C1B52339   3.588  15.384   6.272
 3901POPC   C2B52340   3.657  15.511   6.709
 3901POPC   C3B52341   3.658  15.543   7.155
 3901POPC   C4B52342   3.799  15.501   7.613
 3902POPC   NC352343  25.012  20.346   5.460
 3902POPC   PO452344  24.285  20.171   5.517
 3902POPC   GL152345  24.431  20.526   5.732
 3902POPC   GL252346  24.773  20.521   5.874
 3902POPC   C1A52347  24.327  20.520   6.156
 3902POPC   D2A52348  24.320  20.690   6.542
 3902POPC   C3A52349  24.385  20.428   6.847
 3902POPC   C4A52350  24.193  20.536   7.195
 3902POPC   C1B52351  24.839  20.481   6.320
 3902POPC   C2B52352  24.804  20.767   6.670
 3902POPC   C3B52353  24.716  20.797   7.091
 3902POPC   C4B52354  24.938  20.915   7.416
 3903POPC   NC352355  20.202  24.086   5.461
 3903POPC   PO452356  19.876  23.533   5.401
 3903POPC   GL152357  19.796  23.738   5.783
 3903POPC   GL252358  20.074  23.912   5.924
 3903POPC   C1A52359  19.703  23.698   6.210
 3903POPC   D2A52360  19.763  23.649   6.663
 3903POPC   C3A52361  19.684  23.901   7.045
 3903POPC   C4A52362  19.829  23.628   7.379
 3903POPC   C1B52363  19.959  24.131   6.298
 3903POPC   C2B52364  20.044  24.089   6.732
 3903POPC   C3B52365  20.217  23.880   7.091
 3903POPC   C4B52366  20.172  23.960   7.548
 3904POPC   NC352367  31.792   6.343   5.466
 3904POPC   PO452368  31.542   6.947   5.421
 3904POPC   GL152369  31.472   6.664   5.738
 3904POPC   GL252370  31.197   6.810   5.863
 3904POPC   C1A52371  31.624   6.670   6.162
 3904POPC   D2A52372  31.544   6.827   6.570
 3904POPC   C3A52373  31.635   6.536   6.918
 3904POPC   C4A52374  31.580   6.786   7.290
 3904POPC   C1B52375  31.139   6.464   6.151
 3904POPC   C2B52376  31.285   6.353   6.569
 3904POPC   C3B52377  31.128   6.468   6.998
 3904POPC   C4B52378  31.351   6.361   7.350
 3905POPC   NC352379  12.089  41.181   5.369
 3905POPC   PO452380  12.160  40.524   5.317
 3905POPC   GL152381  12.042  40.768   5.693
 3905POPC   GL252382  12.374  40.959   5.743
 3905POPC   C1A52383  11.931  40.817   6.161
 3905POPC   D2A52384  11.988  40.618   6.590
 3905POPC   C3A52385  11.780  40.743   7.004
 3905POPC   C4A52386  12.022  40.729   7.416
 3905POPC   C1B52387  12.454  40.792   6.169
 3905POPC   C2B52388  12.330  40.977   6.564
 3905POPC   C3B52389  12.274  40.884   6.992
 3905POPC   C4B52390  12.397  41.108   7.378
 3906POPC   NC352391  15.113  24.728   5.192
 3906POPC   PO452392  15.449  24.130   5.191
 3906POPC   GL152393  15.332  24.365   5.610
 3906POPC   GL252394  15.048  24.670   5.690
 3906POPC   C1A52395  15.206  24.369   6.067
 3906POPC   D2A52396  15.072  24.574   6.460
 3906POPC   C3A52397  15.298  24.549   6.846
 3906POPC   C4A52398  15.164  24.289   7.159
 3906POPC   C1B52399  14.881  24.878   6.095
 3906POPC   C2B52400  14.826  25.025   6.556
 3906POPC   C3B52401  14.939  24.919   6.995
 3906POPC   C4B52402  15.150  24.831   7.411
 3907POPC   NC352403  14.867  15.720   5.545
 3907POPC   PO452404  14.299  15.983   5.289
 3907POPC   GL152405  14.374  15.788   5.705
 3907POPC   GL252406  14.146  15.510   5.679
 3907POPC   C1A52407  14.521  15.801   6.161
 3907POPC   D2A52408  14.406  15.985   6.576
 3907POPC   C3A52409  14.605  15.791   6.914
 3907POPC   C4A52410  14.666  16.032   7.283
 3907POPC   C1B52411  14.165  15.394   6.130
 3907POPC   C2B52412  14.376  15.467   6.549
 3907POPC   C3B52413  14.219  15.420   6.969
 3907POPC   C4B52414  14.242  15.730   7.273
 3908POPC   NC352415   7.416  35.526   5.401
 3908POPC   PO452416   7.191  34.933   5.188
 3908POPC   GL152417   7.432  35.129   5.668
 3908POPC   GL252418   7.702  35.301   5.757
 3908POPC   C1A52419   7.318  35.399   6.085
 3908POPC   D2A52420   7.158  35.368   6.533
 3908POPC   C3A52421   7.281  35.606   6.879
 3908POPC   C4A52422   7.406  35.486   7.282
 3908POPC   C1B52423   7.813  35.553   6.119
 3908POPC   C2B52424   7.645  35.554   6.526
 3908POPC   C3B52425   7.761  35.377   6.930
 3908POPC   C4B52426   7.954  35.309   7.356
 3909POPC   NC352427  34.619  17.191   5.444
 3909POPC   PO452428  34.450  17.817   5.224
 3909POPC   GL152429  34.533  17.648   5.673
 3909POPC   GL252430  34.872  17.657   5.885
 3909POPC   C1A52431  34.433  17.600   6.128
 3909POPC   D2A52432  34.714  17.675   6.493
 3909POPC   C3A52433  34.488  17.781   6.871
 3909POPC   C4A52434  34.402  17.449   7.145
 3909POPC   C1B52435  34.816  17.249   6.162
 3909POPC   C2B52436  34.716  17.154   6.627
 3909POPC   C3B52437  34.879  17.427   6.970
 3909POPC   C4B52438  35.088  17.284   7.332
 3910POPC   NC352439  14.053  27.041   5.427
 3910POPC   PO452440  14.376  26.457   5.324
 3910POPC   GL152441  14.491  26.659   5.749
 3910POPC   GL252442  14.148  26.763   5.850
 3910POPC   C1A52443  14.535  26.798   6.216
 3910POPC   D2A52444  14.505  27.136   6.564
 3910POPC   C3A52445  14.418  26.975   6.989
 3910POPC   C4A52446  14.071  26.987   7.277
 3910POPC   C1B52447  14.098  26.478   6.183
 3910POPC   C2B52448  14.279  26.480   6.572
 3910POPC   C3B52449  14.142  26.359   6.958
 3910POPC   C4B52450  14.343  26.544   7.299
 3911POPC   NC352451  17.521  11.783   5.466
 3911POPC   PO452452  16.949  12.103   5.446
 3911POPC   GL152453  17.236  12.082   5.761
 3911POPC   GL252454  17.178  11.739   5.872
 3911POPC   C1A52455  17.548  12.177   6.074
 3911POPC   D2A52456  17.676  12.240   6.490
 3911POPC   C3A52457  17.479  12.288   6.878
 3911POPC   C4A52458  17.534  12.135   7.274
 3911POPC   C1B52459  17.447  11.719   6.279
 3911POPC   C2B52460  17.610  11.779   6.738
 3911POPC   C3B52461  17.539  11.642   7.185
 3911POPC   C4B52462  17.511  11.786   7.658
 3912POPC   NC352463  27.707   9.292   5.208
 3912POPC   PO452464  27.452   8.835   5.431
 3912POPC   GL152465  27.456   8.838   5.837
 3912POPC   GL252466  27.520   9.201   5.819
 3912POPC   C1A52467  27.602   8.879   6.247
 3912POPC   D2A52468  27.787   8.733   6.629
 3912POPC   C3A52469  27.694   8.909   7.012
 3912POPC   C4A52470  27.848   8.789   7.425
 3912POPC   C1B52471  27.791   9.321   6.151
 3912POPC   C2B52472  27.988   9.189   6.500
 3912POPC   C3B52473  28.079   9.264   6.907
 3912POPC   C4B52474  27.905   9.272   7.315
 3913POPC   NC352475   3.019  41.032   5.478
 3913POPC   PO452476   3.643  41.075   5.405
 3913POPC   GL152477   3.563  41.205   5.894
 3913POPC   GL252478   3.830  41.472   5.988
 3913POPC   C1A52479   3.728  41.136   6.356
 3913POPC   D2A52480   3.876  41.243   6.784
 3913POPC   C3A52481   3.845  41.559   7.142
 3913POPC   C4A52482   3.873  41.788   7.566
 3913POPC   C1B52483   3.474  41.568   6.279
 3913POPC   C2B52484   3.498  41.610   6.750
 3913POPC   C3B52485   3.440  41.855   7.154
 3913POPC   C4B52486   3.641  42.210   7.355
 3914POPC   NC352487  14.888  36.005   5.523
 3914POPC   PO452488  15.148  36.616   5.258
 3914POPC   GL152489  15.159  36.503   5.739
 3914POPC   GL252490  15.129  36.182   5.917
 3914POPC   C1A52491  15.230  36.559   6.218
 3914POPC   D2A52492  15.196  36.305   6.586
 3914POPC   C3A52493  15.291  36.396   6.999
 3914POPC   C4A52494  15.156  36.239   7.369
 3914POPC   C1B52495  15.113  35.886   6.321
 3914POPC   C2B52496  15.091  35.845   6.783
 3914POPC   C3B52497  15.108  35.753   7.227
 3914POPC   C4B52498  15.428  35.776   7.526
 3915POPC   NC352499  21.139  30.703   5.423
 3915POPC   PO452500  21.658  30.975   5.124
 3915POPC   GL152501  21.501  30.957   5.670
 3915POPC   GL252502  21.228  30.782   5.891
 3915POPC   C1A52503  21.532  31.068   6.161
 3915POPC   D2A52504  21.256  30.951   6.540
 3915POPC   C3A52505  21.423  30.933   6.968
 3915POPC   C4A52506  21.447  30.824   7.419
 3915POPC   C1B52507  21.382  30.558   6.235
 3915POPC   C2B52508  21.232  30.419   6.655
 3915POPC   C3B52509  21.277  30.430   7.125
 3915POPC   C4B52510  21.290  30.384   7.611
 3916POPC   NC352511  12.473  15.730   5.586
 3916POPC   PO452512  12.877  15.746   5.026
 3916POPC   GL152513  12.917  15.927   5.578
 3916POPC   GL252514  12.755  16.094   5.860
 3916POPC   C1A52515  13.025  15.787   6.139
 3916POPC   D2A52516  12.920  15.796   6.586
 3916POPC   C3A52517  13.027  15.954   6.986
 3916POPC   C4A52518  12.896  15.862   7.427
 3916POPC   C1B52519  12.536  15.855   6.232
 3916POPC   C2B52520  12.431  15.839   6.674
 3916POPC   C3B52521  12.527  15.978   7.071
 3916POPC   C4B52522  12.484  16.339   7.322
 3917POPC   NC352523  15.638  33.056   5.562
 3917POPC   PO452524  16.175  33.328   5.377
 3917POPC   GL152525  16.122  33.104   5.799
 3917POPC   GL252526  16.262  33.294   6.081
 3917POPC   C1A52527  15.964  32.917   6.226
 3917POPC   D2A52528  16.080  33.137   6.620
 3917POPC   C3A52529  15.911  33.077   7.053
 3917POPC   C4A52530  15.925  33.402   7.371
 3917POPC   C1B52531  16.472  32.924   6.309
 3917POPC   C2B52532  16.333  32.708   6.686
 3917POPC   C3B52533  16.367  32.747   7.130
 3917POPC   C4B52534  16.165  32.915   7.477
 3918POPC   NC352535  38.493  44.125   5.213
 3918POPC   PO452536  38.120  43.714   5.612
 3918POPC   GL152537  38.445  43.739   5.866
 3918POPC   GL252538  38.681  43.984   5.723
 3918POPC   C1A52539  38.693  43.624   6.220
 3918POPC   D2A52540  38.858  43.779   6.598
 3918POPC   C3A52541  38.650  43.629   6.976
 3918POPC   C4A52542  38.591  43.590   7.407
 3918POPC   C1B52543  38.555  44.153   6.131
 3918POPC   C2B52544  38.470  44.230   6.552
 3918POPC   C3B52545  38.710  44.163   6.917
 3918POPC   C4B52546  38.608  44.128   7.318
 3919POPC   NC352547  27.505  44.138   5.343
 3919POPC   PO452548  27.931  43.529   5.275
 3919POPC   GL152549  27.642  43.515   5.641
 3919POPC   GL252550  27.554  43.861   5.765
 3919POPC   C1A52551  27.697  43.516   6.100
 3919POPC   D2A52552  27.829  43.763   6.434
 3919POPC   C3A52553  27.889  43.632   6.846
 3919POPC   C4A52554  27.881  43.838   7.234
 3919POPC   C1B52555  27.392  43.936   6.199
 3919POPC   C2B52556  27.325  43.787   6.625
 3919POPC   C3B52557  27.402  43.883   7.058
 3919POPC   C4B52558  27.552  44.203   7.389
 3920POPC   NC352559   4.111  31.024   5.226
 3920POPC   PO452560   3.612  31.574   5.306
 3920POPC   GL152561   3.647  31.407   5.737
 3920POPC   GL252562   3.946  31.263   5.777
 3920POPC   C1A52563   3.602  31.646   6.135
 3920POPC   D2A52564   3.393  31.719   6.531
 3920POPC   C3A52565   3.563  31.698   6.928
 3920POPC   C4A52566   3.388  31.596   7.278
 3920POPC   C1B52567   4.091  31.563   6.120
 3920POPC   C2B52568   3.965  31.760   6.537
 3920POPC   C3B52569   4.042  31.566   6.945
 3920POPC   C4B52570   3.864  31.479   7.380
 3921POPC   NC352571  42.495  16.145   5.403
 3921POPC   PO452572  42.147  15.546   5.463
 3921POPC   GL152573  42.218  15.790   5.899
 3921POPC   GL252574  42.390  16.118   5.886
 3921POPC   C1A52575  42.396  15.958   6.359
 3921POPC   D2A52576  42.441  16.323   6.733
 3921POPC   C3A52577  42.536  16.107   7.091
 3921POPC   C4A52578  42.318  15.731   7.064
 3921POPC   C1B52579  42.055  16.261   6.148
 3921POPC   C2B52580  41.985  16.148   6.599
 3921POPC   C3B52581  42.000  16.135   7.071
 3921POPC   C4B52582  42.138  15.997   7.476
 3922POPC   NC352583  27.812   5.150   5.182
 3922POPC   PO452584  27.258   4.817   5.279
 3922POPC   GL152585  27.539   5.076   5.616
 3922POPC   GL252586  27.302   5.074   5.831
 3922POPC   C1A52587  27.717   5.270   6.057
 3922POPC   D2A52588  27.898   5.422   6.476
 3922POPC   C3A52589  27.828   5.147   6.875
 3922POPC   C4A52590  27.434   5.218   7.155
 3922POPC   C1B52591  27.350   4.994   6.268
 3922POPC   C2B52592  27.366   5.025   6.684
 3922POPC   C3B52593  27.386   4.737   7.033
 3922POPC   C4B52594  27.382   4.695   7.495
 3923POPC   NC352595  37.127  32.934   5.399
 3923POPC   PO452596  36.488  33.074   5.255
 3923POPC   GL152597  36.640  33.159   5.701
 3923POPC   GL252598  36.729  32.862   5.886
 3923POPC   C1A52599  36.812  33.369   6.091
 3923POPC   D2A52600  36.794  33.419   6.556
 3923POPC   C3A52601  36.885  33.059   6.796
 3923POPC   C4A52602  37.043  32.915   7.171
 3923POPC   C1B52603  36.632  32.947   6.350
 3923POPC   C2B52604  36.394  32.857   6.752
 3923POPC   C3B52605  36.536  32.809   7.176
 3923POPC   C4B52606  36.591  32.754   7.635
 3924POPC   NC352607  21.196  22.053   5.406
 3924POPC   PO452608  21.893  21.868   5.345
 3924POPC   GL152609  21.622  21.944   5.720
 3924POPC   GL252610  21.530  22.312   5.788
 3924POPC   C1A52611  21.435  21.941   6.152
 3924POPC   D2A52612  21.505  22.140   6.568
 3924POPC   C3A52613  21.394  21.957   6.965
 3924POPC   C4A52614  21.460  22.141   7.353
 3924POPC   C1B52615  21.233  22.428   6.134
 3924POPC   C2B52616  21.165  22.608   6.527
 3924POPC   C3B52617  21.233  22.452   6.921
 3924POPC   C4B52618  21.440  22.630   7.238
 3925POPC   NC352619  43.453   5.838   5.387
 3925POPC   PO452620  42.860   5.895   5.271
 3925POPC   GL152621  43.057   5.929   5.705
 3925POPC   GL252622  43.314   6.186   5.768
 3925POPC   C1A52623  43.170   5.664   6.075
 3925POPC   D2A52624  43.374   5.593   6.495
 3925POPC   C3A52625  43.172   5.518   6.889
 3925POPC   C4A52626  42.982   5.511   7.321
 3925POPC   C1B52627  43.239   6.147   6.234
 3925POPC   C2B52628  43.362   6.086   6.679
 3925POPC   C3B52629  43.236   5.981   7.120
 3925POPC   C4B52630  43.291   5.850   7.552
 3926POPC   NC352631  34.044  22.365   5.423
 3926POPC   PO452632  33.702  21.876   5.256
 3926POPC   GL152633  33.658  22.169   5.686
 3926POPC   GL252634  33.991  22.165   5.893
 3926POPC   C1A52635  33.613  22.290   6.173
 3926POPC   D2A52636  33.608  22.074   6.580
 3926POPC   C3A52637  33.586  22.284   6.965
 3926POPC   C4A52638  33.342  22.120   7.294
 3926POPC   C1B52639  34.135  22.210   6.329
 3926POPC   C2B52640  34.081  22.166   6.783
 3926POPC   C3B52641  34.046  22.215   7.216
 3926POPC   C4B52642  34.003  22.440   7.641
 3927POPC   NC352643  16.993  22.737   5.033
 3927POPC   PO452644  16.463  22.420   5.434
 3927POPC   GL152645  16.626  22.261   5.818
 3927POPC   GL252646  16.701  21.883   5.790
 3927POPC   C1A52647  16.761  22.508   6.189
 3927POPC   D2A52648  16.866  22.353   6.574
 3927POPC   C3A52649  16.823  22.543   6.994
 3927POPC   C4A52650  16.716  22.203   7.286
 3927POPC   C1B52651  16.549  21.861   6.221
 3927POPC   C2B52652  16.500  21.975   6.656
 3927POPC   C3B52653  16.376  21.800   7.081
 3927POPC   C4B52654  16.526  21.815   7.535
 3928POPC   NC352655  16.694  39.133   5.306
 3928POPC   PO452656  16.209  39.635   5.463
 3928POPC   GL152657  16.517  39.501   5.794
 3928POPC   GL252658  16.771  39.223   5.791
 3928POPC   C1A52659  16.456  39.368   6.231
 3928POPC   D2A52660  16.465  38.960   6.496
 3928POPC   C3A52661  16.439  39.098   6.937
 3928POPC   C4A52662  16.247  39.511   7.065
 3928POPC   C1B52663  16.871  39.076   6.185
 3928POPC   C2B52664  16.855  39.295   6.600
 3928POPC   C3B52665  16.922  39.292   7.045
 3928POPC   C4B52666  16.670  39.241   7.412
 3929POPC   NC352667  33.087  39.787   5.548
 3929POPC   PO452668  33.154  40.345   5.541
 3929POPC   GL152669  33.040  40.114   5.948
 3929POPC   GL252670  32.738  39.874   5.924
 3929POPC   C1A52671  33.226  40.145   6.373
 3929POPC   D2A52672  33.361  40.497   6.676
 3929POPC   C3A52673  33.189  40.385   7.064
 3929POPC   C4A52674  33.106  39.946   7.143
 3929POPC   C1B52675  32.729  39.983   6.361
 3929POPC   C2B52676  32.738  39.921   6.795
 3929POPC   C3B52677  32.601  40.054   7.213
 3929POPC   C4B52678  32.496  40.093   7.671
 3930POPC   NC352679  18.303  38.786   5.369
 3930POPC   PO452680  18.590  39.405   5.565
 3930POPC   GL152681  18.319  39.289   5.889
 3930POPC   GL252682  18.270  38.966   5.835
 3930POPC   C1A52683  18.262  39.498   6.272
 3930POPC   D2A52684  18.525  39.666   6.580
 3930POPC   C3A52685  18.331  39.563   6.977
 3930POPC   C4A52686  18.308  39.292   7.331
 3930POPC   C1B52687  18.173  38.929   6.260
 3930POPC   C2B52688  18.119  38.733   6.649
 3930POPC   C3B52689  18.267  38.760   7.071
 3930POPC   C4B52690  18.128  38.848   7.492
 3931POPC   NC352691  27.426  39.858   5.444
 3931POPC   PO452692  28.068  40.071   5.407
 3931POPC   GL152693  27.822  39.996   5.846
 3931POPC   GL252694  27.467  40.091   5.910
 3931POPC   C1A52695  27.746  40.169   6.326
 3931POPC   D2A52696  27.538  40.259   6.732
 3931POPC   C3A52697  27.712  40.105   7.142
 3931POPC   C4A52698  27.685  40.230   7.593
 3931POPC   C1B52699  27.281  39.920   6.334
 3931POPC   C2B52700  27.130  39.903   6.789
 3931POPC   C3B52701  27.281  39.773   7.223
 3931POPC   C4B52702  27.362  39.833   7.691
 3932POPC   NC352703  18.563  16.280   5.455
 3932POPC   PO452704  18.117  15.817   5.454
 3932POPC   GL152705  18.421  15.893   5.767
 3932POPC   GL252706  18.208  16.195   5.829
 3932POPC   C1A52707  18.398  15.925   6.212
 3932POPC   D2A52708  18.050  15.825   6.474
 3932POPC   C3A52709  18.250  15.724   6.863
 3932POPC   C4A52710  18.442  16.028   7.114
 3932POPC   C1B52711  17.937  16.273   6.203
 3932POPC   C2B52712  17.787  16.231   6.641
 3932POPC   C3B52713  17.966  16.186   7.058
 3932POPC   C4B52714  17.854  16.093   7.501
 3933POPC   NC352715  12.407  42.091   5.543
 3933POPC   PO452716  11.921  42.508   5.408
 3933POPC   GL152717  12.084  42.430   5.809
 3933POPC   GL252718  12.424  42.533   5.883
 3933POPC   C1A52719  11.897  42.303   6.191
 3933POPC   D2A52720  11.951  42.090   6.574
 3933POPC   C3A52721  11.766  42.258   6.945
 3933POPC   C4A52722  11.767  42.409   7.369
 3933POPC   C1B52723  12.400  42.384   6.329
 3933POPC   C2B52724  12.364  42.339   6.800
 3933POPC   C3B52725  12.253  42.211   7.247
 3933POPC   C4B52726  12.451  41.952   7.624
 3934POPC   NC352727  21.650  29.843   5.449
 3934POPC   PO452728  21.533  30.486   5.517
 3934POPC   GL152729  21.223  30.232   5.798
 3934POPC   GL252730  21.160  29.843   5.784
 3934POPC   C1A52731  21.219  30.081   6.235
 3934POPC   D2A52732  21.623  30.115   6.425
 3934POPC   C3A52733  21.634  30.129   6.867
 3934POPC   C4A52734  21.587  30.071   7.325
 3934POPC   C1B52735  21.419  29.634   6.134
 3934POPC   C2B52736  21.455  29.651   6.612
 3934POPC   C3B52737  21.340  29.696   7.066
 3934POPC   C4B52738  21.365  29.676   7.549
 3935POPC   NC352739   0.616  31.090   5.347
 3935POPC   PO452740   0.641  30.471   5.421
 3935POPC   GL152741   0.617  30.786   5.774
 3935POPC   GL252742   0.336  31.014   5.809
 3935POPC   C1A52743   0.607  30.864   6.237
 3935POPC   D2A52744   0.413  30.852   6.671
 3935POPC   C3A52745   0.612  30.637   7.020
 3935POPC   C4A52746   0.893  30.365   7.275
 3935POPC   C1B52747   0.113  31.004   6.260
 3935POPC   C2B52748   0.008  31.153   6.728
 3935POPC   C3B52749   0.160  30.937   7.143
 3935POPC   C4B52750  44.992  30.872   7.582
 3936POPC   NC352751  39.597  14.149   5.334
 3936POPC   PO452752  39.925  14.834   5.377
 3936POPC   GL152753  40.073  14.601   5.769
 3936POPC   GL252754  40.227  14.258   5.662
 3936POPC   C1A52755  39.959  14.597   6.240
 3936POPC   D2A52756  39.706  14.651   6.637
 3936POPC   C3A52757  39.899  14.577   7.043
 3936POPC   C4A52758  40.051  14.477   7.486
 3936POPC   C1B52759  39.994  14.117   6.014
 3936POPC   C2B52760  39.844  14.119   6.459
 3936POPC   C3B52761  39.821  14.093   6.917
 3936POPC   C4B52762  40.207  14.073   7.193
 3937POPC   NC352763  25.315   8.453   5.395
 3937POPC   PO452764  25.362   7.742   5.512
 3937POPC   GL152765  25.236   8.072   5.835
 3937POPC   GL252766  25.482   8.343   5.836
 3937POPC   C1A52767  25.053   8.152   6.277
 3937POPC   D2A52768  25.111   7.938   6.706
 3937POPC   C3A52769  25.135   8.088   7.152
 3937POPC   C4A52770  25.116   7.875   7.582
 3937POPC   C1B52771  25.369   8.569   6.183
 3937POPC   C2B52772  25.511   8.646   6.581
 3937POPC   C3B52773  25.773   8.445   6.891
 3937POPC   C4B52774  25.609   8.312   7.278
 3938POPC   NC352775   4.900  18.446   5.448
 3938POPC   PO452776   5.403  17.979   5.579
 3938POPC   GL152777   5.079  18.063   5.891
 3938POPC   GL252778   4.727  18.076   5.816
 3938POPC   C1A52779   5.041  18.217   6.321
 3938POPC   D2A52780   4.990  18.486   6.675
 3938POPC   C3A52781   4.930  18.202   7.014
 3938POPC   C4A52782   5.256  18.160   7.324
 3938POPC   C1B52783   4.645  18.450   6.109
 3938POPC   C2B52784   4.494  18.485   6.542
 3938POPC   C3B52785   4.597  18.662   6.949
 3938POPC   C4B52786   4.964  18.666   7.220
 3939POPC   NC352787   8.293   9.779   5.211
 3939POPC   PO452788   8.323   9.130   5.183
 3939POPC   GL152789   8.309   9.470   5.668
 3939POPC   GL252790   8.371   9.856   5.703
 3939POPC   C1A52791   8.464   9.601   6.135
 3939POPC   D2A52792   8.555   9.826   6.575
 3939POPC   C3A52793   8.483   9.582   6.966
 3939POPC   C4A52794   8.086   9.348   7.063
 3939POPC   C1B52795   8.029   9.879   6.004
 3939POPC   C2B52796   7.936   9.852   6.457
 3939POPC   C3B52797   8.040   9.858   6.902
 3939POPC   C4B52798   8.118  10.067   7.274
 3940POPC   NC352799  15.451  28.888   5.612
 3940POPC   PO452800  14.795  28.923   5.602
 3940POPC   GL152801  14.941  29.314   5.813
 3940POPC   GL252802  15.288  29.478   5.855
 3940POPC   C1A52803  14.985  29.270   6.246
 3940POPC   D2A52804  15.217  29.448   6.604
 3940POPC   C3A52805  15.189  29.245   7.018
 3940POPC   C4A52806  14.823  29.290   7.351
 3940POPC   C1B52807  15.508  29.247   6.197
 3940POPC   C2B52808  15.314  28.931   6.480
 3940POPC   C3B52809  15.381  28.681   6.848
 3940POPC   C4B52810  15.321  28.714   7.276
 3941POPC   NC352811  32.068  44.580   5.425
 3941POPC   PO452812  32.496   0.052   5.175
 3941POPC   GL152813  32.306  44.849   5.742
 3941POPC   GL252814  32.307  44.503   5.887
 3941POPC   C1A52815  31.930  44.774   6.085
 3941POPC   D2A52816  31.779  44.859   6.518
 3941POPC   C3A52817  32.066  44.725   6.823
 3941POPC   C4A52818  32.103  44.695   7.241
 3941POPC   C1B52819  32.303  44.519   6.327
 3941POPC   C2B52820  32.503  44.479   6.684
 3941POPC   C3B52821  32.591  44.625   7.077
 3941POPC   C4B52822  32.517  44.424   7.452
 3942POPC   NC352823  16.583   5.668   5.173
 3942POPC   PO452824  17.190   6.014   5.109
 3942POPC   GL152825  17.009   5.990   5.551
 3942POPC   GL252826  16.746   5.773   5.669
 3942POPC   C1A52827  16.988   6.118   6.015
 3942POPC   D2A52828  16.906   6.204   6.467
 3942POPC   C3A52829  16.826   5.960   6.844
 3942POPC   C4A52830  16.905   5.964   7.321
 3942POPC   C1B52831  16.506   5.972   6.031
 3942POPC   C2B52832  16.413   5.892   6.467
 3942POPC   C3B52833  16.340   6.102   6.847
 3942POPC   C4B52834  16.376   5.935   7.243
 3943POPC   NC352835  18.492  37.233   5.335
 3943POPC   PO452836  18.209  36.647   5.368
 3943POPC   GL152837  18.216  36.989   5.694
 3943POPC   GL252838  18.178  36.747   5.928
 3943POPC   C1A52839  18.388  37.169   6.099
 3943POPC   D2A52840  18.270  36.941   6.474
 3943POPC   C3A52841  18.354  37.100   6.888
 3943POPC   C4A52842  18.445  37.064   7.316
 3943POPC   C1B52843  17.871  36.579   6.189
 3943POPC   C2B52844  18.012  36.480   6.565
 3943POPC   C3B52845  18.085  36.657   6.912
 3943POPC   C4B52846  17.845  36.458   7.204
 3944POPC   NC352847   7.902  44.495   5.428
 3944POPC   PO452848   8.584  44.562   5.420
 3944POPC   GL152849   8.408  44.454   5.860
 3944POPC   GL252850   8.028  44.505   5.920
 3944POPC   C1A52851   8.406  44.538   6.332
 3944POPC   D2A52852   8.417  44.381   6.771
 3944POPC   C3A52853   8.365  44.654   7.123
 3944POPC   C4A52854   8.511  44.780   7.536
 3944POPC   C1B52855   7.965  44.813   6.246
 3944POPC   C2B52856   8.123  44.898   6.632
 3944POPC   C3B52857   7.894  44.787   6.968
 3944POPC   C4B52858   7.647  44.744   7.327
 3945POPC   NC352859  37.449  38.586   5.474
 3945POPC   PO452860  38.020  38.193   5.523
 3945POPC   GL152861  37.806  38.391   5.823
 3945POPC   GL252862  37.472  38.325   5.911
 3945POPC   C1A52863  37.876  38.339   6.238
 3945POPC   D2A52864  37.923  38.640   6.537
 3945POPC   C3A52865  37.816  38.501   6.948
 3945POPC   C4A52866  37.952  38.697   7.304
 3945POPC   C1B52867  37.445  38.623   6.318
 3945POPC   C2B52868  37.490  38.889   6.724
 3945POPC   C3B52869  37.410  38.779   7.133
 3945POPC   C4B52870  37.347  38.316   7.117
 3946POPC   NC352871  18.999  44.969   5.455
 3946POPC   PO452872  19.231  44.309   5.408
 3946POPC   GL152873  19.177  44.387   5.826
 3946POPC   GL252874  18.877  44.588   5.804
 3946POPC   C1A52875  19.375  44.325   6.232
 3946POPC   D2A52876  19.299  44.205   6.651
 3946POPC   C3A52877  18.976  44.413   6.901
 3946POPC   C4A52878  19.067  44.548   7.315
 3946POPC   C1B52879  18.709  44.740   6.205
 3946POPC   C2B52880  18.732  44.853   6.652
 3946POPC   C3B52881  18.952  44.955   7.021
 3946POPC   C4B52882  18.906   0.023   7.440
 3947POPC   NC352883  22.461  31.633   5.286
 3947POPC   PO452884  23.171  31.745   5.262
 3947POPC   GL152885  22.998  31.617   5.698
 3947POPC   GL252886  22.920  31.265   5.852
 3947POPC   C1A52887  23.171  31.602   6.124
 3947POPC   D2A52888  23.340  31.458   6.516
 3947POPC   C3A52889  23.242  31.679   6.892
 3947POPC   C4A52890  23.114  31.471   7.261
 3947POPC   C1B52891  22.887  31.226   6.331
 3947POPC   C2B52892  22.911  31.277   6.821
 3947POPC   C3B52893  22.674  31.244   7.249
 3947POPC   C4B52894  22.590  31.323   7.705
 3948POPC   NC352895  24.491  28.374   5.187
 3948POPC   PO452896  24.772  28.027   5.577
 3948POPC   GL152897  24.483  28.353   5.739
 3948POPC   GL252898  24.315  28.682   5.636
 3948POPC   C1A52899  24.517  28.601   6.117
 3948POPC   D2A52900  24.689  28.434   6.476
 3948POPC   C3A52901  24.618  28.580   6.863
 3948POPC   C4A52902  24.598  28.354   7.245
 3948POPC   C1B52903  24.035  28.733   6.045
 3948POPC   C2B52904  24.091  28.585   6.480
 3948POPC   C3B52905  24.129  28.533   6.934
 3948POPC   C4B52906  24.143  28.519   7.402
 3949POPC   NC352907   5.429  11.205   5.235
 3949POPC   PO452908   6.095  11.460   5.358
 3949POPC   GL152909   5.997  11.469   5.796
 3949POPC   GL252910   5.983  11.158   5.928
 3949POPC   C1A52911   5.868  11.544   6.242
 3949POPC   D2A52912   5.949  11.364   6.636
 3949POPC   C3A52913   5.780  11.574   6.974
 3949POPC   C4A52914   5.835  11.523   7.403
 3949POPC   C1B52915   5.789  11.019   6.290
 3949POPC   C2B52916   5.953  10.834   6.668
 3949POPC   C3B52917   6.046  10.996   7.070
 3949POPC   C4B52918   5.658  11.052   7.263
 3950POPC   NC352919  21.018  25.570   5.597
 3950POPC   PO452920  21.535  25.220   5.414
 3950POPC   GL152921  21.367  25.227   5.824
 3950POPC   GL252922  21.142  24.942   5.780
 3950POPC   C1A52923  21.456  25.230   6.280
 3950POPC   D2A52924  21.580  25.118   6.697
 3950POPC   C3A52925  21.350  25.346   7.010
 3950POPC   C4A52926  21.250  25.299   7.447
 3950POPC   C1B52927  20.979  25.053   6.195
 3950POPC   C2B52928  21.032  25.182   6.624
 3950POPC   C3B52929  21.089  24.911   6.989
 3950POPC   C4B52930  21.465  24.871   7.164
 3951POPC   NC352931  26.472  19.791   5.122
 3951POPC   PO452932  25.819  20.030   5.202
 3951POPC   GL152933  25.755  19.872   5.652
 3951POPC   GL252934  26.091  19.875   5.801
 3951POPC   C1A52935  25.715  19.942   6.132
 3951POPC   D2A52936  25.605  19.858   6.605
 3951POPC   C3A52937  25.863  19.809   6.995
 3951POPC   C4A52938  26.232  19.590   7.205
 3951POPC   C1B52939  26.225  20.202   6.122
 3951POPC   C2B52940  26.049  20.227   6.518
 3951POPC   C3B52941  26.260  20.098   6.900
 3951POPC   C4B52942  26.119  20.239   7.273
 3952POPC   NC352943  17.811  30.176   5.451
 3952POPC   PO452944  17.286  29.735   5.352
 3952POPC   GL152945  17.319  29.836   5.764
 3952POPC   GL252946  17.651  29.930   5.872
 3952POPC   C1A52947  17.163  29.864   6.171
 3952POPC   D2A52948  17.430  30.030   6.497
 3952POPC   C3A52949  17.362  29.803   6.860
 3952POPC   C4A52950  17.229  29.525   7.158
 3952POPC   C1B52951  17.747  30.295   6.154
 3952POPC   C2B52952  17.840  30.360   6.588
 3952POPC   C3B52953  17.788  30.059   6.931
 3952POPC   C4B52954  17.518  30.062   7.300
 3953POPC   NC352955  19.975  18.365   5.297
 3953POPC   PO452956  19.709  17.747   5.441
 3953POPC   GL152957  19.934  18.079   5.752
 3953POPC   GL252958  19.718  18.362   5.906
 3953POPC   C1A52959  20.163  18.289   6.124
 3953POPC   D2A52960  20.058  18.474   6.498
 3953POPC   C3A52961  20.035  18.195   6.816
 3953POPC   C4A52962  19.929  18.294   7.216
 3953POPC   C1B52963  19.429  18.195   6.220
 3953POPC   C2B52964  19.576  18.075   6.622
 3953POPC   C3B52965  19.438  18.278   6.990
 3953POPC   C4B52966  19.446  18.231   7.416
 3954POPC   NC352967  10.283   7.813   5.438
 3954POPC   PO452968  10.717   7.367   5.280
 3954POPC   GL152969  10.701   7.629   5.688
 3954POPC   GL252970  10.369   7.600   5.878
 3954POPC   C1A52971  10.767   7.660   6.171
 3954POPC   D2A52972  10.600   7.411   6.538
 3954POPC   C3A52973  10.682   7.557   6.966
 3954POPC   C4A52974  10.876   7.420   7.328
 3954POPC   C1B52975  10.328   7.205   6.109
 3954POPC   C2B52976  10.160   7.103   6.508
 3954POPC   C3B52977  10.298   7.157   6.937
 3954POPC   C4B52978  10.428   7.204   7.350
 3955POPC   NC352979   5.417  41.549   5.519
 3955POPC   PO452980   6.017  41.264   5.444
 3955POPC   GL152981   5.881  41.417   5.816
 3955POPC   GL252982   5.834  41.737   5.772
 3955POPC   C1A52983   6.100  41.378   6.212
 3955POPC   D2A52984   6.292  41.112   6.506
 3955POPC   C3A52985   6.208  41.267   6.937
 3955POPC   C4A52986   5.954  41.433   7.301
 3955POPC   C1B52987   5.835  41.824   6.228
 3955POPC   C2B52988   5.960  41.692   6.643
 3955POPC   C3B52989   6.011  41.874   7.034
 3955POPC   C4B52990   5.852  41.914   7.456
 3956POPC   NC352991  10.486  10.797   5.572
 3956POPC   PO452992  10.698  10.161   5.522
 3956POPC   GL152993  10.647  10.384   5.866
 3956POPC   GL252994  10.331  10.411   5.868
 3956POPC   C1A52995  10.657  10.664   6.233
 3956POPC   D2A52996  10.865  10.624   6.638
 3956POPC   C3A52997  10.647  10.606   7.017
 3956POPC   C4A52998  10.850  10.297   7.223
 3956POPC   C1B52999  10.327  10.261   6.254
 3956POPC   C2B53000  10.332  10.507   6.612
 3956POPC   C3B53001  10.168  10.375   6.964
 3956POPC   C4B53002  10.341  10.066   7.240
 3957POPC   NC353003  19.992  40.598   5.289
 3957POPC   PO453004  19.862  41.091   5.681
 3957POPC   GL153005  19.952  40.673   5.790
 3957POPC   GL253006  19.682  40.437   5.684
 3957POPC   C1A53007  20.110  40.619   6.205
 3957POPC   D2A53008  19.959  40.982   6.474
 3957POPC   C3A53009  19.871  40.910   6.906
 3957POPC   C4A53010  20.037  41.070   7.242
 3957POPC   C1B53011  19.619  40.561   6.150
 3957POPC   C2B53012  19.719  40.538   6.611
 3957POPC   C3B53013  19.626  40.500   7.095
 3957POPC   C4B53014  19.653  40.656   7.540
 3958POPC   NC353015  26.010  43.011   5.371
 3958POPC   PO453016  26.354  42.450   5.389
 3958POPC   GL153017  26.040  42.622   5.713
 3958POPC   GL253018  26.205  42.946   5.830
 3958POPC   C1A53019  25.917  42.725   6.164
 3958POPC   D2A53020  26.078  42.838   6.551
 3958POPC   C3A53021  25.860  42.787   6.931
 3958POPC   C4A53022  25.944  43.013   7.315
 3958POPC   C1B53023  26.100  43.212   6.197
 3958POPC   C2B53024  25.973  43.328   6.629
 3958POPC   C3B53025  26.030  43.454   7.065
 3958POPC   C4B53026  26.369  43.424   7.356
 3959POPC   NC353027  20.026  37.602   5.504
 3959POPC   PO453028  19.479  37.959   5.721
 3959POPC   GL153029  19.630  37.566   5.826
 3959POPC   GL253030  19.353  37.407   5.881
 3959POPC   C1A53031  19.935  37.400   6.151
 3959POPC   D2A53032  19.961  37.251   6.593
 3959POPC   C3A53033  20.015  37.578   6.916
 3959POPC   C4A53034  20.102  37.939   7.221
 3959POPC   C1B53035  19.459  37.473   6.323
 3959POPC   C2B53036  19.420  37.816   6.616
 3959POPC   C3B53037  19.604  37.925   6.990
 3959POPC   C4B53038  19.695  37.618   7.297
 3960POPC   NC353039   6.198  19.687   5.560
 3960POPC   PO453040   6.827  20.038   5.331
 3960POPC   GL153041   6.602  19.949   5.747
 3960POPC   GL253042   6.314  20.158   5.756
 3960POPC   C1A53043   6.438  19.801   6.182
 3960POPC   D2A53044   6.592  19.678   6.615
 3960POPC   C3A53045   6.464  19.746   7.030
 3960POPC   C4A53046   6.622  19.625   7.437
 3960POPC   C1B53047   6.431  20.313   6.144
 3960POPC   C2B53048   6.575  20.195   6.542
 3960POPC   C3B53049   6.415  20.271   6.951
 3960POPC   C4B53050   6.531  20.124   7.370
 3961POPC   NC353051  18.529  17.885   5.506
 3961POPC   PO453052  18.101  17.334   5.417
 3961POPC   GL153053  18.360  17.470   5.777
 3961POPC   GL253054  18.224  17.779   5.889
 3961POPC   C1A53055  18.549  17.531   6.202
 3961POPC   D2A53056  18.305  17.628   6.577
 3961POPC   C3A53057  18.426  17.473   6.984
 3961POPC   C4A53058  18.356  17.214   7.331
 3961POPC   C1B53059  17.962  17.936   6.192
 3961POPC   C2B53060  18.041  18.080   6.602
 3961POPC   C3B53061  18.124  17.894   7.007
 3961POPC   C4B53062  18.211  17.713   7.413
 3962POPC   NC353063  18.399  21.975   5.142
 3962POPC   PO453064  17.912  21.743   5.605
 3962POPC   GL153065  18.131  22.062   5.823
 3962POPC   GL253066  18.443  22.286   5.687
 3962POPC   C1A53067  18.056  22.125   6.263
 3962POPC   D2A53068  18.379  22.200   6.559
 3962POPC   C3A53069  18.310  22.160   6.990
 3962POPC   C4A53070  18.590  21.882   7.222
 3962POPC   C1B53071  18.288  22.521   6.036
 3962POPC   C2B53072  18.304  22.696   6.443
 3962POPC   C3B53073  18.378  22.679   6.892
 3962POPC   C4B53074  18.168  22.604   7.303
 3963POPC   NC353075  35.824  31.678   5.559
 3963POPC   PO453076  36.233  31.054   5.540
 3963POPC   GL153077  36.049  31.300   5.839
 3963POPC   GL253078  35.688  31.187   5.819
 3963POPC   C1A53079  36.231  31.522   6.211
 3963POPC   D2A53080  36.486  31.478   6.612
 3963POPC   C3A53081  36.271  31.660   6.942
 3963POPC   C4A53082  36.167  31.469   7.286
 3963POPC   C1B53083  35.843  31.133   6.269
 3963POPC   C2B53084  35.852  31.058   6.702
 3963POPC   C3B53085  35.760  31.249   7.069
 3963POPC   C4B53086  35.708  31.687   7.154
 3964POPC   NC353087  18.580   6.494   5.390
 3964POPC   PO453088  18.046   6.971   5.498
 3964POPC   GL153089  18.087   6.779   5.868
 3964POPC   GL253090  18.424   6.745   5.852
 3964POPC   C1A53091  18.081   6.568   6.277
 3964POPC   D2A53092  18.341   6.541   6.661
 3964POPC   C3A53093  18.246   6.295   7.021
 3964POPC   C4A53094  17.851   6.258   7.217
 3964POPC   C1B53095  18.630   6.589   6.223
 3964POPC   C2B53096  18.835   6.576   6.634
 3964POPC   C3B53097  18.728   6.484   7.039
 3964POPC   C4B53098  18.907   6.515   7.427
 3965POPC   NC353099  20.531  14.703   5.342
 3965POPC   PO453100  20.628  14.101   5.518
 3965POPC   GL153101  20.897  14.248   5.792
 3965POPC   GL253102  20.755  14.554   5.783
 3965POPC   C1A53103  20.971  14.219   6.248
 3965POPC   D2A53104  20.659  14.156   6.575
 3965POPC   C3A53105  20.761  14.207   7.008
 3965POPC   C4A53106  20.518  14.302   7.364
 3965POPC   C1B53107  20.510  14.434   6.143
 3965POPC   C2B53108  20.443  14.655   6.523
 3965POPC   C3B53109  20.407  14.585   6.937
 3965POPC   C4B53110  20.225  14.742   7.302
 3966POPC   NC353111  38.987  20.862   5.468
 3966POPC   PO453112  39.501  20.391   5.271
 3966POPC   GL153113  39.434  20.394   5.771
 3966POPC   GL253114  39.087  20.504   5.809
 3966POPC   C1A53115  39.436  20.559   6.216
 3966POPC   D2A53116  39.241  20.442   6.628
 3966POPC   C3A53117  39.456  20.462   7.031
 3966POPC   C4A53118  39.383  20.621   7.456
 3966POPC   C1B53119  38.981  20.310   6.187
 3966POPC   C2B53120  38.804  20.189   6.581
 3966POPC   C3B53121  38.831  20.399   6.994
 3966POPC   C4B53122  38.607  20.424   7.384
 3967POPC   NC353123  36.569  11.255   5.220
 3967POPC   PO453124  37.183  11.353   5.477
 3967POPC   GL153125  37.054  11.187   5.842
 3967POPC   GL253126  36.738  11.358   5.873
 3967POPC   C1A53127  37.118  11.399   6.221
 3967POPC   D2A53128  36.904  11.462   6.550
 3967POPC   C3A53129  37.038  11.183   6.836
 3967POPC   C4A53130  37.077  11.253   7.235
 3967POPC   C1B53131  36.742  11.064   6.245
 3967POPC   C2B53132  36.562  11.109   6.634
 3967POPC   C3B53133  36.606  11.402   6.989
 3967POPC   C4B53134  36.348  11.534   7.312
 3968POPC   NC353135  25.155  11.721   5.464
 3968POPC   PO453136  25.636  12.261   5.468
 3968POPC   GL153137  25.404  12.223   5.828
 3968POPC   GL253138  25.479  11.873   5.851
 3968POPC   C1A53139  25.036  12.061   6.105
 3968POPC   D2A53140  24.760  12.075   6.496
 3968POPC   C3A53141  24.913  12.243   6.856
 3968POPC   C4A53142  25.126  12.194   7.177
 3968POPC   C1B53143  25.575  12.052   6.243
 3968POPC   C2B53144  25.294  12.232   6.502
 3968POPC   C3B53145  25.325  11.940   6.785
 3968POPC   C4B53146  25.569  11.692   7.070
 3969POPC   NC353147  31.446  18.192   5.346
 3969POPC   PO453148  31.379  18.839   5.147
 3969POPC   GL153149  31.445  18.773   5.717
 3969POPC   GL253150  31.371  18.394   5.824
 3969POPC   C1A53151  31.676  18.621   6.185
 3969POPC   D2A53152  31.807  18.371   6.607
 3969POPC   C3A53153  31.721  18.584   7.054
 3969POPC   C4A53154  31.392  18.598   7.388
 3969POPC   C1B53155  31.643  18.118   6.139
 3969POPC   C2B53156  31.733  17.862   6.522
 3969POPC   C3B53157  31.778  17.944   6.964
 3969POPC   C4B53158  31.437  18.170   7.130
 3970POPC   NC353159  42.759  28.603   5.523
 3970POPC   PO453160  42.416  28.151   5.303
 3970POPC   GL153161  42.237  28.197   5.693
 3970POPC   GL253162  42.305  28.520   5.751
 3970POPC   C1A53163  42.393  28.184   6.130
 3970POPC   D2A53164  42.205  28.109   6.547
 3970POPC   C3A53165  42.081  28.387   6.869
 3970POPC   C4A53166  42.226  28.348   7.303
 3970POPC   C1B53167  42.310  28.692   6.149
 3970POPC   C2B53168  42.459  28.566   6.555
 3970POPC   C3B53169  42.592  28.530   6.993
 3970POPC   C4B53170  42.667  28.583   7.475
 3971POPC   NC353171  40.519  23.079   5.138
 3971POPC   PO453172  40.910  22.539   5.348
 3971POPC   GL153173  41.046  22.662   5.774
 3971POPC   GL253174  40.792  22.873   5.863
 3971POPC   C1A53175  40.942  22.547   6.237
 3971POPC   D2A53176  40.835  22.801   6.613
 3971POPC   C3A53177  41.024  22.945   6.993
 3971POPC   C4A53178  41.053  23.210   7.353
 3971POPC   C1B53179  40.500  22.876   6.211
 3971POPC   C2B53180  40.410  23.082   6.604
 3971POPC   C3B53181  40.518  23.040   7.017
 3971POPC   C4B53182  40.368  22.897   7.392
 3972POPC   NC353183  35.250   6.179   5.268
 3972POPC   PO453184  35.286   5.541   5.404
 3972POPC   GL153185  35.303   5.914   5.708
 3972POPC   GL253186  34.991   5.969   5.834
 3972POPC   C1A53187  35.381   5.957   6.187
 3972POPC   D2A53188  35.407   5.596   6.512
 3972POPC   C3A53189  35.685   5.621   6.889
 3972POPC   C4A53190  35.679   5.909   7.239
 3972POPC   C1B53191  34.978   5.654   6.178
 3972POPC   C2B53192  34.982   5.880   6.547
 3972POPC   C3B53193  35.255   5.935   6.883
 3972POPC   C4B53194  35.128   5.955   7.271
 3973POPC   NC353195  21.366   4.707   5.432
 3973POPC   PO453196  21.316   5.421   5.300
 3973POPC   GL153197  21.507   5.435   5.720
 3973POPC   GL253198  21.437   5.094   5.857
 3973POPC   C1A53199  21.383   5.510   6.162
 3973POPC   D2A53200  21.101   5.406   6.514
 3973POPC   C3A53201  21.343   5.477   6.883
 3973POPC   C4A53202  21.447   5.250   7.246
 3973POPC   C1B53203  21.291   4.984   6.302
 3973POPC   C2B53204  21.273   4.974   6.795
 3973POPC   C3B53205  21.332   4.744   7.222
 3973POPC   C4B53206  21.271   4.484   7.638
 3974POPC   NC353207  20.306  11.263   5.040
 3974POPC   PO453208  19.761  11.142   5.390
 3974POPC   GL153209  19.953  11.181   5.788
 3974POPC   GL253210  19.636  11.118   5.958
 3974POPC   C1A53211  19.940  11.500   6.122
 3974POPC   D2A53212  19.752  11.522   6.540
 3974POPC   C3A53213  20.045  11.483   6.868
 3974POPC   C4A53214  20.099  11.597   7.280
 3974POPC   C1B53215  19.903  11.033   6.336
 3974POPC   C2B53216  19.813  11.056   6.786
 3974POPC   C3B53217  19.735  11.211   7.193
 3974POPC   C4B53218  19.524  11.098   7.569
 3975POPC   NC353219  19.366  38.203   5.344
 3975POPC   PO453220  18.818  38.649   5.465
 3975POPC   GL153221  19.019  38.612   5.844
 3975POPC   GL253222  19.068  38.278   5.849
 3975POPC   C1A53223  19.063  38.824   6.241
 3975POPC   D2A53224  19.257  38.920   6.618
 3975POPC   C3A53225  18.997  38.749   6.915
 3975POPC   C4A53226  19.089  38.612   7.280
 3975POPC   C1B53227  19.275  38.306   6.258
 3975POPC   C2B53228  19.270  38.345   6.704
 3975POPC   C3B53229  19.081  38.160   7.049
 3975POPC   C4B53230  18.802  37.895   7.242
 3976POPC   NC353231  38.776  43.483   5.580
 3976POPC   PO453232  39.445  43.574   5.456
 3976POPC   GL153233  39.215  43.887   5.725
 3976POPC   GL253234  39.515  44.059   5.901
 3976POPC   C1A53235  39.057  44.209   6.039
 3976POPC   D2A53236  39.333  44.301   6.390
 3976POPC   C3A53237  39.223  44.195   6.817
 3976POPC   C4A53238  39.105  44.218   7.261
 3976POPC   C1B53239  39.309  43.801   6.227
 3976POPC   C2B53240  39.354  43.719   6.648
 3976POPC   C3B53241  39.153  43.745   7.052
 3976POPC   C4B53242  39.091  43.473   7.375
 3977POPC   NC353243  17.802  27.640   5.268
 3977POPC   PO453244  18.444  27.882   5.250
 3977POPC   GL153245  18.241  27.653   5.586
 3977POPC   GL253246  18.015  27.869   5.721
 3977POPC   C1A53247  18.230  27.528   6.047
 3977POPC   D2A53248  18.380  27.365   6.464
 3977POPC   C3A53249  18.301  27.524   6.892
 3977POPC   C4A53250  18.498  27.836   7.148
 3977POPC   C1B53251  17.803  27.824   6.102
 3977POPC   C2B53252  17.946  27.664   6.495
 3977POPC   C3B53253  17.812  27.731   6.903
 3977POPC   C4B53254  17.969  27.716   7.292
 3978POPC   NC353255  26.630  28.666   5.309
 3978POPC   PO453256  25.935  28.375   5.347
 3978POPC   GL153257  26.021  28.631   5.757
 3978POPC   GL253258  26.399  28.698   5.825
 3978POPC   C1A53259  25.960  28.547   6.223
 3978POPC   D2A53260  25.768  28.293   6.581
 3978POPC   C3A53261  26.008  28.216   6.990
 3978POPC   C4A53262  26.267  28.246   7.358
 3978POPC   C1B53263  26.357  28.859   6.264
 3978POPC   C2B53264  26.111  28.782   6.675
 3978POPC   C3B53265  26.208  28.720   7.130
 3978POPC   C4B53266  26.570  28.642   7.425
 3979POPC   NC353267  20.959  37.448   5.395
 3979POPC   PO453268  20.457  37.786   5.639
 3979POPC   GL153269  20.751  37.570   5.870
 3979POPC   GL253270  21.025  37.779   5.865
 3979POPC   C1A53271  20.643  37.643   6.284
 3979POPC   D2A53272  20.432  37.484   6.618
 3979POPC   C3A53273  20.533  37.667   7.002
 3979POPC   C4A53274  20.692  37.371   7.256
 3979POPC   C1B53275  21.140  37.583   6.274
 3979POPC   C2B53276  20.980  37.584   6.680
 3979POPC   C3B53277  21.065  37.678   7.099
 3979POPC   C4B53278  20.846  37.970   7.343
 3980POPC   NC353279  39.988  28.673   5.226
 3980POPC   PO453280  39.822  28.030   5.399
 3980POPC   GL153281  40.147  28.211   5.703
 3980POPC   GL253282  40.518  28.167   5.789
 3980POPC   C1A53283  40.194  28.449   6.109
 3980POPC   D2A53284  40.141  28.660   6.520
 3980POPC   C3A53285  39.960  28.398   6.802
 3980POPC   C4A53286  40.041  28.381   7.224
 3980POPC   C1B53287  40.295  27.939   6.114
 3980POPC   C2B53288  40.163  28.051   6.499
 3980POPC   C3B53289  40.302  28.029   6.923
 3980POPC   C4B53290  40.482  28.072   7.344
 3981POPC   NC353291  11.308  44.336   5.431
 3981POPC   PO453292  11.003  43.721   5.266
 3981POPC   GL153293  11.147  43.907   5.687
 3981POPC   GL253294  11.523  43.855   5.720
 3981POPC   C1A53295  11.286  44.088   6.111
 3981POPC   D2A53296  11.208  44.288   6.495
 3981POPC   C3A53297  11.306  44.146   6.908
 3981POPC   C4A53298  11.026  43.933   7.188
 3981POPC   C1B53299  11.428  43.593   6.113
 3981POPC   C2B53300  11.333  43.767   6.540
 3981POPC   C3B53301  11.465  43.673   6.971
 3981POPC   C4B53302  11.355  43.598   7.388
 3982POPC   NC353303   3.471  34.126   5.365
 3982POPC   PO453304   3.562  33.498   5.443
 3982POPC   GL153305   3.661  33.769   5.797
 3982POPC   GL253306   3.951  34.001   5.732
 3982POPC   C1A53307   3.490  33.798   6.239
 3982POPC   D2A53308   3.345  33.568   6.653
 3982POPC   C3A53309   3.541  33.715   7.042
 3982POPC   C4A53310   3.587  33.594   7.481
 3982POPC   C1B53311   3.751  34.214   6.123
 3982POPC   C2B53312   3.563  34.162   6.586
 3982POPC   C3B53313   3.742  34.202   7.015
 3982POPC   C4B53314   4.070  34.372   7.285
 3983POPC   NC353315   9.119  38.988   5.372
 3983POPC   PO453316   8.722  39.516   5.393
 3983POPC   GL153317   8.879  39.285   5.732
 3983POPC   GL253318   8.763  38.942   5.763
 3983POPC   C1A53319   8.950  39.337   6.163
 3983POPC   D2A53320   8.892  39.463   6.583
 3983POPC   C3A53321   8.587  39.254   6.805
 3983POPC   C4A53322   8.616  39.212   7.248
 3983POPC   C1B53323   8.991  38.819   6.140
 3983POPC   C2B53324   9.113  39.010   6.540
 3983POPC   C3B53325   8.989  38.954   6.953
 3983POPC   C4B53326   9.221  38.824   7.284
 3984POPC   NC353327   4.858  34.967   5.074
 3984POPC   PO453328   4.702  35.534   5.337
 3984POPC   GL153329   4.924  35.480   5.754
 3984POPC   GL253330   4.882  35.151   5.873
 3984POPC   C1A53331   5.255  35.337   6.150
 3984POPC   D2A53332   5.545  35.283   6.510
 3984POPC   C3A53333   5.416  35.410   6.918
 3984POPC   C4A53334   5.090  35.637   7.162
 3984POPC   C1B53335   4.792  35.512   6.233
 3984POPC   C2B53336   4.954  35.480   6.668
 3984POPC   C3B53337   4.657  35.411   7.031
 3984POPC   C4B53338   4.664  35.579   7.454
 3985POPC   NC353339  33.382  40.739   5.463
 3985POPC   PO453340  33.097  41.266   5.156
 3985POPC   GL153341  32.914  41.003   5.631
 3985POPC   GL253342  33.010  40.719   5.835
 3985POPC   C1A53343  32.961  41.077   6.170
 3985POPC   D2A53344  33.021  40.888   6.630
 3985POPC   C3A53345  33.012  41.000   7.090
 3985POPC   C4A53346  32.777  40.866   7.476
 3985POPC   C1B53347  32.931  40.536   6.241
 3985POPC   C2B53348  32.855  40.399   6.662
 3985POPC   C3B53349  32.709  40.561   7.046
 3985POPC   C4B53350  32.410  40.514   7.390
 3986POPC   NC353351   5.089  22.568   5.288
 3986POPC   PO453352   5.324  21.802   5.417
 3986POPC   GL153353   5.343  22.114   5.788
 3986POPC   GL253354   5.029  22.154   5.847
 3986POPC   C1A53355   5.236  22.030   6.273
 3986POPC   D2A53356   5.063  22.158   6.680
 3986POPC   C3A53357   5.262  21.959   7.055
 3986POPC   C4A53358   5.389  22.085   7.467
 3986POPC   C1B53359   4.802  22.367   6.159
 3986POPC   C2B53360   4.725  22.600   6.512
 3986POPC   C3B53361   4.672  22.441   6.895
 3986POPC   C4B53362   4.736  22.021   7.087
 3987POPC   NC353363  27.709  30.843   5.382
 3987POPC   PO453364  27.104  30.491   5.450
 3987POPC   GL153365  27.189  30.612   5.888
 3987POPC   GL253366  27.467  30.839   5.852
 3987POPC   C1A53367  27.316  30.757   6.330
 3987POPC   D2A53368  27.636  30.888   6.616
 3987POPC   C3A53369  27.496  30.841   7.007
 3987POPC   C4A53370  27.548  30.475   7.150
 3987POPC   C1B53371  27.813  30.776   6.142
 3987POPC   C2B53372  28.068  30.634   6.487
 3987POPC   C3B53373  27.997  30.506   6.900
 3987POPC   C4B53374  27.979  30.671   7.299
 3988POPC   NC353375  15.360  14.010   5.333
 3988POPC   PO453376  14.922  14.516   5.398
 3988POPC   GL153377  15.221  14.376   5.748
 3988POPC   GL253378  15.458  14.656   5.886
 3988POPC   C1A53379  15.158  14.150   6.173
 3988POPC   D2A53380  14.800  14.160   6.502
 3988POPC   C3A53381  14.871  13.988   6.902
 3988POPC   C4A53382  15.246  14.049   7.153
 3988POPC   C1B53383  15.613  14.816   6.305
 3988POPC   C2B53384  15.447  14.659   6.710
 3988POPC   C3B53385  15.030  14.505   6.895
 3988POPC   C4B53386  14.840  14.320   7.275
 3989POPC   NC353387   8.391  42.795   5.198
 3989POPC   PO453388   8.023  43.151   5.578
 3989POPC   GL153389   8.437  43.228   5.668
 3989POPC   GL253390   8.614  42.934   5.651
 3989POPC   C1A53391   8.526  43.300   6.090
 3989POPC   D2A53392   8.213  43.171   6.409
 3989POPC   C3A53393   8.148  43.362   6.818
 3989POPC   C4A53394   8.136  43.235   7.248
 3989POPC   C1B53395   8.359  42.779   6.008
 3989POPC   C2B53396   8.363  42.662   6.454
 3989POPC   C3B53397   8.356  42.884   6.860
 3989POPC   C4B53398   8.278  42.748   7.284
 3990POPC   NC353399  36.725  40.349   5.328
 3990POPC   PO453400  36.685  41.017   5.162
 3990POPC   GL153401  36.712  40.850   5.587
 3990POPC   GL253402  36.646  41.134   5.781
 3990POPC   C1A53403  36.977  40.789   6.007
 3990POPC   D2A53404  37.155  40.884   6.468
 3990POPC   C3A53405  37.086  40.588   6.847
 3990POPC   C4A53406  36.858  40.703   7.231
 3990POPC   C1B53407  36.625  41.131   6.235
 3990POPC   C2B53408  36.307  41.112   6.575
 3990POPC   C3B53409  36.489  41.151   6.949
 3990POPC   C4B53410  36.926  41.133   6.961
 3991POPC   NC353411  13.518  29.302   5.318
 3991POPC   PO453412  13.559  28.656   5.231
 3991POPC   GL153413  13.729  28.949   5.599
 3991POPC   GL253414  13.921  29.311   5.652
 3991POPC   C1A53415  13.683  28.983   6.031
 3991POPC   D2A53416  13.486  28.832   6.406
 3991POPC   C3A53417  13.629  28.846   6.864
 3991POPC   C4A53418  13.447  29.005   7.263
 3991POPC   C1B53419  13.686  29.478   6.041
 3991POPC   C2B53420  13.497  29.348   6.440
 3991POPC   C3B53421  13.491  29.358   6.887
 3991POPC   C4B53422  13.864  29.408   7.162
 3992POPC   NC353423   2.230   7.946   5.581
 3992POPC   PO453424   2.175   7.279   5.351
 3992POPC   GL153425   2.009   7.167   5.800
 3992POPC   GL253426   1.713   7.372   5.803
 3992POPC   C1A53427   2.006   7.172   6.278
 3992POPC   D2A53428   2.260   7.160   6.670
 3992POPC   C3A53429   2.195   7.399   7.065
 3992POPC   C4A53430   2.187   7.367   7.522
 3992POPC   C1B53431   1.786   7.632   6.147
 3992POPC   C2B53432   1.905   7.638   6.575
 3992POPC   C3B53433   1.785   7.785   6.975
 3992POPC   C4B53434   2.057   7.814   7.354
 3993POPC   NC353435  31.735  17.264   5.110
 3993POPC   PO453436  31.478  17.759   5.196
 3993POPC   GL153437  31.528  17.818   5.713
 3993POPC   GL253438  31.787  17.655   5.940
 3993POPC   C1A53439  31.315  17.735   6.165
 3993POPC   D2A53440  31.234  17.516   6.576
 3993POPC   C3A53441  31.289  17.706   6.993
 3993POPC   C4A53442  31.107  17.732   7.404
 3993POPC   C1B53443  31.682  17.395   6.339
 3993POPC   C2B53444  31.687  17.429   6.829
 3993POPC   C3B53445  31.920  17.507   7.235
 3993POPC   C4B53446  31.881  17.451   7.707
 3994POPC   NC353447  33.591   9.384   5.354
 3994POPC   PO453448  34.117   8.960   5.300
 3994POPC   GL153449  33.988   8.790   5.762
 3994POPC   GL253450  33.668   8.811   5.749
 3994POPC   C1A53451  33.874   8.731   6.216
 3994POPC   D2A53452  34.060   9.052   6.484
 3994POPC   C3A53453  34.202   9.042   6.914
 3994POPC   C4A53454  33.971   9.134   7.275
 3994POPC   C1B53455  33.769   9.197   6.035
 3994POPC   C2B53456  33.610   9.292   6.479
 3994POPC   C3B53457  33.533   9.090   6.906
 3994POPC   C4B53458  33.460   9.267   7.339
 3995POPC   NC353459  42.322  41.697   4.952
 3995POPC   PO453460  42.724  41.447   5.437
 3995POPC   GL153461  42.342  41.629   5.591
 3995POPC   GL253462  42.121  41.341   5.724
 3995POPC   C1A53463  42.293  41.701   6.052
 3995POPC   D2A53464  42.316  41.463   6.449
 3995POPC   C3A53465  42.574  41.368   6.784
 3995POPC   C4A53466  42.433  41.639   7.084
 3995POPC   C1B53467  42.324  41.138   6.068
 3995POPC   C2B53468  42.290  40.947   6.503
 3995POPC   C3B53469  42.176  41.079   6.908
 3995POPC   C4B53470  42.333  41.191   7.310
 3996POPC   NC353471  34.932  27.041   4.963
 3996POPC   PO453472  34.525  26.575   5.327
 3996POPC   GL153473  34.611  26.753   5.754
 3996POPC   GL253474  34.880  26.984   5.652
 3996POPC   C1A53475  34.397  26.905   6.166
 3996POPC   D2A53476  34.232  26.775   6.582
 3996POPC   C3A53477  34.386  26.945   6.973
 3996POPC   C4A53478  34.698  26.741   7.221
 3996POPC   C1B53479  34.912  26.925   6.139
 3996POPC   C2B53480  34.781  27.033   6.598
 3996POPC   C3B53481  34.839  27.201   7.044
 3996POPC   C4B53482  35.092  27.069   7.390
 3997POPC   NC353483  33.861   0.393   5.069
 3997POPC   PO453484  33.434  44.952   5.421
 3997POPC   GL153485  33.748   0.283   5.706
 3997POPC   GL253486  33.596   0.536   5.855
 3997POPC   C1A53487  34.062   0.377   6.091
 3997POPC   D2A53488  33.952   0.553   6.525
 3997POPC   C3A53489  34.143   0.545   6.937
 3997POPC   C4A53490  34.129   0.240   7.256
 3997POPC   C1B53491  33.587   0.244   6.208
 3997POPC   C2B53492  33.480   0.169   6.641
 3997POPC   C3B53493  33.662   0.090   7.037
 3997POPC   C4B53494  33.673   0.486   7.193
 3998POPC   NC353495  22.149  15.753   5.357
 3998POPC   PO453496  22.039  16.394   5.325
 3998POPC   GL153497  22.116  16.179   5.724
 3998POPC   GL253498  21.858  15.977   5.707
 3998POPC   C1A53499  22.277  16.057   6.158
 3998POPC   D2A53500  22.475  16.108   6.592
 3998POPC   C3A53501  22.324  15.871   6.983
 3998POPC   C4A53502  22.133  15.827   7.437
 3998POPC   C1B53503  21.804  16.260   6.089
 3998POPC   C2B53504  22.005  16.373   6.466
 3998POPC   C3B53505  22.063  16.282   6.861
 3998POPC   C4B53506  21.836  16.308   7.204
 3999POPC   NC353507  22.079  41.128   5.415
 3999POPC   PO453508  22.504  40.575   5.578
 3999POPC   GL153509  22.095  40.628   5.872
 3999POPC   GL253510  21.987  40.960   5.887
 3999POPC   C1A53511  21.887  40.687   6.335
 3999POPC   D2A53512  21.818  40.759   6.822
 3999POPC   C3A53513  22.064  40.488   7.072
 3999POPC   C4A53514  22.038  40.396   7.525
 3999POPC   C1B53515  22.310  40.988   6.221
 3999POPC   C2B53516  22.315  40.850   6.663
 3999POPC   C3B53517  22.341  41.087   7.054
 3999POPC   C4B53518  22.688  41.143   7.346
 4000POPC   NC353519  39.538  17.528   5.501
 4000POPC   PO453520  38.824  17.595   5.681
 4000POPC   GL153521  39.180  17.503   5.877
 4000POPC   GL253522  39.438  17.246   5.925
 4000POPC   C1A53523  39.419  17.729   6.145
 4000POPC   D2A53524  39.518  17.669   6.551
 4000POPC   C3A53525  39.221  17.595   6.865
 4000POPC   C4A53526  39.376  17.730   7.243
 4000POPC   C1B53527  39.242  17.266   6.336
 4000POPC   C2B53528  38.834  17.315   6.556
 4000POPC   C3B53529  38.920  17.168   6.935
 4000POPC   C4B53530  39.384  17.123   7.092
 4001POPC   NC353531  19.583  31.600   5.495
 4001POPC   PO453532  19.997  31.151   5.337
 4001POPC   GL153533  19.836  31.228   5.777
 4001POPC   GL253534  19.490  31.286   5.879
 4001POPC   C1A53535  19.984  31.277   6.223
 4001POPC   D2A53536  19.958  31.546   6.617
 4001POPC   C3A53537  20.046  31.354   7.030
 4001POPC   C4A53538  20.175  31.282   7.502
 4001POPC   C1B53539  19.570  31.618   6.200
 4001POPC   C2B53540  19.463  31.714   6.637
 4001POPC   C3B53541  19.607  31.645   7.049
 4001POPC   C4B53542  19.893  31.712   7.376
 4002POPC   NC353543  11.529  38.199   5.411
 4002POPC   PO453544  10.986  38.615   5.517
 4002POPC   GL153545  11.381  38.590   5.764
 4002POPC   GL253546  11.229  38.279   5.826
 4002POPC   C1A53547  11.442  38.498   6.223
 4002POPC   D2A53548  11.096  38.419   6.505
 4002POPC   C3A53549  11.087  38.627   6.881
 4002POPC   C4A53550  11.263  38.634   7.267
 4002POPC   C1B53551  11.257  38.041   6.182
 4002POPC   C2B53552  11.342  37.971   6.601
 4002POPC   C3B53553  11.308  38.154   7.027
 4002POPC   C4B53554  11.191  38.161   7.476
 4003POPC   NC353555  27.617  31.813   5.159
 4003POPC   PO453556  27.820  32.464   5.219
 4003POPC   GL153557  27.819  32.333   5.630
 4003POPC   GL253558  27.477  32.289   5.653
 4003POPC   C1A53559  27.908  32.323   6.088
 4003POPC   D2A53560  27.748  32.301   6.517
 4003POPC   C3A53561  27.955  32.362   6.928
 4003POPC   C4A53562  27.675  32.184   7.255
 4003POPC   C1B53563  27.390  32.293   6.091
 4003POPC   C2B53564  27.264  32.483   6.478
 4003POPC   C3B53565  27.344  32.357   6.886
 4003POPC   C4B53566  27.172  32.404   7.305
 4004POPC   NC353567  14.138  44.701   5.083
 4004POPC   PO453568  14.633  44.494   5.426
 4004POPC   GL153569  14.407  44.688   5.738
 4004POPC   GL253570  14.330  44.420   5.977
 4004POPC   C1A53571  14.259  44.893   6.112
 4004POPC   D2A53572  14.080  44.842   6.507
 4004POPC   C3A53573  14.269  44.769   6.898
 4004POPC   C4A53574  14.556  44.522   7.150
 4004POPC   C1B53575  13.988  44.336   6.298
 4004POPC   C2B53576  13.853  44.375   6.747
 4004POPC   C3B53577  14.056  44.405   7.159
 4004POPC   C4B53578  13.944  44.367   7.579
 4005POPC   NC353579   2.205   5.601   5.572
 4005POPC   PO453580   2.026   5.080   5.256
 4005POPC   GL153581   1.905   5.191   5.706
 4005POPC   GL253582   1.751   5.527   5.782
 4005POPC   C1A53583   2.022   5.096   6.164
 4005POPC   D2A53584   1.891   4.866   6.563
 4005POPC   C3A53585   2.202   4.821   6.877
 4005POPC   C4A53586   2.241   5.108   7.200
 4005POPC   C1B53587   1.457   5.453   6.106
 4005POPC   C2B53588   1.556   5.249   6.485
 4005POPC   C3B53589   1.687   5.281   6.920
 4005POPC   C4B53590   1.570   5.578   7.244
 4006POPC   NC353591  23.134  37.089   5.330
 4006POPC   PO453592  22.671  36.654   5.487
 4006POPC   GL153593  23.066  36.714   5.699
 4006POPC   GL253594  22.900  37.006   5.797
 4006POPC   C1A53595  23.234  36.806   6.112
 4006POPC   D2A53596  23.142  36.993   6.503
 4006POPC   C3A53597  22.892  36.822   6.803
 4006POPC   C4A53598  22.786  36.877   7.211
 4006POPC   C1B53599  22.716  36.969   6.205
 4006POPC   C2B53600  22.457  36.900   6.550
 4006POPC   C3B53601  22.446  37.108   6.932
 4006POPC   C4B53602  22.529  37.321   7.323
 4007POPC   NC353603  10.084   1.126   5.307
 4007POPC   PO453604   9.412   1.276   5.342
 4007POPC   GL153605   9.618   1.282   5.736
 4007POPC   GL253606   9.836   1.002   5.808
 4007POPC   C1A53607   9.834   1.487   6.098
 4007POPC   D2A53608  10.033   1.574   6.513
 4007POPC   C3A53609   9.817   1.380   6.860
 4007POPC   C4A53610   9.882   1.111   7.198
 4007POPC   C1B53611   9.529   1.053   6.188
 4007POPC   C2B53612   9.539   1.017   6.642
 4007POPC   C3B53613   9.416   0.891   7.069
 4007POPC   C4B53614   9.518   0.916   7.510
 4008POPC   NC353615  29.984   1.613   5.442
 4008POPC   PO453616  29.627   2.227   5.478
 4008POPC   GL153617  29.749   1.882   5.792
 4008POPC   GL253618  30.125   1.822   5.876
 4008POPC   C1A53619  29.791   1.803   6.248
 4008POPC   D2A53620  29.717   2.047   6.648
 4008POPC   C3A53621  29.879   1.890   7.033
 4008POPC   C4A53622  30.191   2.109   7.255
 4008POPC   C1B53623  30.314   1.655   6.237
 4008POPC   C2B53624  30.294   1.750   6.661
 4008POPC   C3B53625  30.289   1.571   7.068
 4008POPC   C4B53626  30.112   1.654   7.445
 4009POPC   NC353627  44.496   8.681   5.352
 4009POPC   PO453628  44.677   9.323   5.507
 4009POPC   GL153629  44.481   9.020   5.762
 4009POPC   GL253630  44.727   8.750   5.808
 4009POPC   C1A53631  44.520   8.991   6.212
 4009POPC   D2A53632  44.612   8.788   6.586
 4009POPC   C3A53633  44.474   8.943   6.973
 4009POPC   C4A53634  44.454   8.604   7.241
 4009POPC   C1B53635  44.975   8.728   6.212
 4009POPC   C2B53636   0.152   8.755   6.630
 4009POPC   C3B53637  44.936   8.701   6.995
 4009POPC   C4B53638  44.829   8.924   7.347
 4010POPC   NC353639   1.695   3.676   5.295
 4010POPC   PO453640   1.290   3.216   5.332
 4010POPC   GL153641   1.324   3.536   5.669
 4010POPC   GL253642   1.368   3.335   5.935
 4010POPC   C1A53643   1.231   3.803   6.060
 4010POPC   D2A53644   1.213   3.640   6.475
 4010POPC   C3A53645   1.281   3.740   6.912
 4010POPC   C4A53646   1.249   4.038   7.261
 4010POPC   C1B53647   0.936   3.376   6.135
 4010POPC   C2B53648   0.751   3.431   6.575
 4010POPC   C3B53649   0.880   3.351   6.992
 4010POPC   C4B53650   1.053   3.461   7.389
 4011POPC   NC353651   7.845  42.095   5.452
 4011POPC   PO453652   7.286  42.493   5.443
 4011POPC   GL153653   7.403  42.273   5.779
 4011POPC   GL253654   7.179  41.976   5.756
 4011POPC   C1A53655   7.321  42.328   6.223
 4011POPC   D2A53656   7.567  42.278   6.607
 4011POPC   C3A53657   7.353  42.432   6.963
 4011POPC   C4A53658   7.581  42.650   7.288
 4011POPC   C1B53659   7.508  41.882   6.090
 4011POPC   C2B53660   7.473  41.784   6.526
 4011POPC   C3B53661   7.430  41.893   6.959
 4011POPC   C4B53662   7.630  42.125   7.279
 4012POPC   NC353663  16.836   7.913   5.553
 4012POPC   PO453664  16.526   8.563   5.698
 4012POPC   GL153665  16.536   8.153   5.880
 4012POPC   GL253666  16.888   8.135   5.995
 4012POPC   C1A53667  16.514   7.965   6.282
 4012POPC   D2A53668  16.804   8.054   6.590
 4012POPC   C3A53669  16.619   8.333   6.864
 4012POPC   C4A53670  16.500   8.185   7.247
 4012POPC   C1B53671  17.170   8.300   6.301
 4012POPC   C2B53672  17.259   8.230   6.743
 4012POPC   C3B53673  17.007   8.078   7.102
 4012POPC   C4B53674  16.931   8.367   7.435
 4013POPC   NC353675  36.129  27.974   5.512
 4013POPC   PO453676  36.254  27.333   5.551
 4013POPC   GL153677  36.309  27.500   5.953
 4013POPC   GL253678  36.045  27.703   5.924
 4013POPC   C1A53679  36.290  27.561   6.397
 4013POPC   D2A53680  36.426  27.812   6.747
 4013POPC   C3A53681  36.197  27.679   7.117
 4013POPC   C4A53682  36.132  27.279   7.315
 4013POPC   C1B53683  35.815  27.828   6.252
 4013POPC   C2B53684  35.911  27.858   6.680
 4013POPC   C3B53685  35.718  27.932   7.083
 4013POPC   C4B53686  35.926  27.888   7.514
 4014POPC   NC353687   2.501  35.464   5.214
 4014POPC   PO453688   3.033  35.103   5.488
 4014POPC   GL153689   2.806  35.181   5.833
 4014POPC   GL253690   2.748  35.507   5.695
 4014POPC   C1A53691   2.759  35.137   6.307
 4014POPC   D2A53692   2.562  34.947   6.670
 4014POPC   C3A53693   2.565  35.228   6.951
 4014POPC   C4A53694   2.905  35.328   7.211
 4014POPC   C1B53695   2.613  35.602   6.128
 4014POPC   C2B53696   2.650  35.629   6.608
 4014POPC   C3B53697   2.582  35.725   7.075
 4014POPC   C4B53698   2.364  35.620   7.513
 4015POPC   NC353699  22.413  29.410   5.035
 4015POPC   PO453700  22.127  29.893   5.433
 4015POPC   GL153701  22.143  29.903   5.834
 4015POPC   GL253702  21.788  30.034   5.919
 4015POPC   C1A53703  22.231  30.140   6.186
 4015POPC   D2A53704  22.084  30.277   6.580
 4015POPC   C3A53705  22.254  30.103   6.929
 4015POPC   C4A53706  22.368  29.829   7.259
 4015POPC   C1B53707  21.920  29.719   6.245
 4015POPC   C2B53708  21.965  29.759   6.668
 4015POPC   C3B53709  21.894  29.741   7.081
 4015POPC   C4B53710  21.827  29.544   7.429
 4016POPC   NC353711  38.091  24.595   5.355
 4016POPC   PO453712  37.427  24.351   5.411
 4016POPC   GL153713  37.580  24.465   5.800
 4016POPC   GL253714  37.911  24.441   5.808
 4016POPC   C1A53715  37.521  24.650   6.195
 4016POPC   D2A53716  37.786  24.690   6.543
 4016POPC   C3A53717  37.630  24.512   6.897
 4016POPC   C4A53718  37.687  24.562   7.289
 4016POPC   C1B53719  37.863  24.222   6.196
 4016POPC   C2B53720  37.937  24.204   6.644
 4016POPC   C3B53721  37.921  24.126   7.073
 4016POPC   C4B53722  37.964  24.127   7.504
 4017POPC   NC353723  41.284  35.413   5.277
 4017POPC   PO453724  41.883  35.060   5.398
 4017POPC   GL153725  41.780  35.292   5.758
 4017POPC   GL253726  41.477  35.479   5.758
 4017POPC   C1A53727  41.797  35.408   6.188
 4017POPC   D2A53728  41.735  35.162   6.573
 4017POPC   C3A53729  41.845  35.392   6.940
 4017POPC   C4A53730  41.609  35.664   7.194
 4017POPC   C1B53731  41.304  35.537   6.161
 4017POPC   C2B53732  41.047  35.424   6.489
 4017POPC   C3B53733  41.286  35.404   6.842
 4017POPC   C4B53734  41.453  35.137   7.122
 4018POPC   NC353735  19.897  34.070   5.408
 4018POPC   PO453736  19.623  33.463   5.458
 4018POPC   GL153737  19.554  33.754   5.767
 4018POPC   GL253738  19.870  33.648   5.860
 4018POPC   C1A53739  19.698  34.035   6.132
 4018POPC   D2A53740  19.957  33.923   6.529
 4018POPC   C3A53741  19.759  33.967   6.962
 4018POPC   C4A53742  19.482  34.092   7.350
 4018POPC   C1B53743  19.646  33.537   6.270
 4018POPC   C2B53744  19.776  33.477   6.738
 4018POPC   C3B53745  20.105  33.614   7.084
 4018POPC   C4B53746  20.092  33.504   7.566
 4019POPC   NC353747  24.393  14.688   5.349
 4019POPC   PO453748  24.747  14.139   5.717
 4019POPC   GL153749  24.315  14.295   5.747
 4019POPC   GL253750  24.142  14.640   5.769
 4019POPC   C1A53751  24.110  14.235   6.150
 4019POPC   D2A53752  24.434  14.245   6.476
 4019POPC   C3A53753  24.378  14.200   6.914
 4019POPC   C4A53754  24.332  14.321   7.352
 4019POPC   C1B53755  24.357  14.675   6.124
 4019POPC   C2B53756  24.199  14.711   6.505
 4019POPC   C3B53757  24.213  14.797   6.913
 4019POPC   C4B53758  24.586  14.651   7.071
 4020POPC   NC353759  33.401   4.532   5.467
 4020POPC   PO453760  33.037   4.096   5.148
 4020POPC   GL153761  32.964   4.261   5.575
 4020POPC   GL253762  32.910   4.007   5.804
 4020POPC   C1A53763  32.985   4.463   6.021
 4020POPC   D2A53764  32.881   4.473   6.493
 4020POPC   C3A53765  33.198   4.355   6.815
 4020POPC   C4A53766  33.307   4.653   7.150
 4020POPC   C1B53767  32.721   3.908   6.214
 4020POPC   C2B53768  32.827   3.977   6.642
 4020POPC   C3B53769  32.876   3.915   7.066
 4020POPC   C4B53770  32.991   4.255   7.281
 4021POPC   NC353771  15.780  35.618   5.410
 4021POPC   PO453772  16.223  35.061   5.473
 4021POPC   GL153773  16.015  35.300   5.811
 4021POPC   GL253774  15.964  35.672   5.885
 4021POPC   C1A53775  15.855  35.205   6.217
 4021POPC   D2A53776  15.786  35.401   6.608
 4021POPC   C3A53777  15.879  35.142   6.953
 4021POPC   C4A53778  15.796  35.198   7.373
 4021POPC   C1B53779  16.136  35.636   6.305
 4021POPC   C2B53780  16.197  35.673   6.754
 4021POPC   C3B53781  15.927  35.634   7.121
 4021POPC   C4B53782  15.946  35.775   7.555
 4022POPC   NC353783  34.097  20.506   5.317
 4022POPC   PO453784  33.709  21.027   5.295
 4022POPC   GL153785  34.029  20.864   5.697
 4022POPC   GL253786  34.078  20.478   5.815
 4022POPC   C1A53787  33.963  20.816   6.185
 4022POPC   D2A53788  34.035  21.026   6.607
 4022POPC   C3A53789  33.992  20.796   7.008
 4022POPC   C4A53790  33.702  20.751   7.345
 4022POPC   C1B53791  34.001  20.294   6.243
 4022POPC   C2B53792  33.815  20.444   6.641
 4022POPC   C3B53793  33.812  20.297   7.076
 4022POPC   C4B53794  34.175  20.027   7.185
 4023POPC   NC353795  10.000  19.417   5.298
 4023POPC   PO453796  10.202  18.786   5.432
 4023POPC   GL153797   9.930  18.983   5.784
 4023POPC   GL253798   9.852  19.346   5.808
 4023POPC   C1A53799   9.850  19.061   6.269
 4023POPC   D2A53800   9.839  19.244   6.714
 4023POPC   C3A53801   9.891  19.008   7.112
 4023POPC   C4A53802  10.011  18.719   7.443
 4023POPC   C1B53803   9.591  19.531   6.156
 4023POPC   C2B53804   9.468  19.607   6.637
 4023POPC   C3B53805   9.490  19.419   7.072
 4023POPC   C4B53806   9.253  19.179   7.385
 4024POPC   NC353807  33.383  16.018   5.547
 4024POPC   PO453808  34.056  16.150   5.600
 4024POPC   GL153809  34.096  16.158   6.009
 4024POPC   GL253810  34.098  16.497   6.097
 4024POPC   C1A53811  34.131  16.141   6.460
 4024POPC   D2A53812  34.108  16.268   6.877
 4024POPC   C3A53813  34.130  15.853   7.033
 4024POPC   C4A53814  33.943  15.578   7.323
 4024POPC   C1B53815  33.790  16.509   6.459
 4024POPC   C2B53816  33.764  16.661   6.882
 4024POPC   C3B53817  33.810  16.500   7.282
 4024POPC   C4B53818  33.698  16.337   7.727
 4025POPC   NC353819  16.822  23.483   5.552
 4025POPC   PO453820  17.062  24.133   5.355
 4025POPC   GL153821  16.765  24.043   5.707
 4025POPC   GL253822  16.961  23.862   5.951
 4025POPC   C1A53823  16.493  24.020   6.132
 4025POPC   D2A53824  16.350  23.904   6.564
 4025POPC   C3A53825  16.585  23.615   6.801
 4025POPC   C4A53826  16.804  23.766   7.155
 4025POPC   C1B53827  16.874  23.657   6.364
 4025POPC   C2B53828  17.129  23.454   6.708
 4025POPC   C3B53829  17.134  23.394   7.178
 4025POPC   C4B53830  17.249  23.570   7.586
 4026POPC   NC353831  16.370  15.335   5.366
 4026POPC   PO453832  15.710  15.130   5.408
 4026POPC   GL153833  15.875  15.157   5.806
 4026POPC   GL253834  16.040  15.452   5.731
 4026POPC   C1A53835  16.095  14.978   6.163
 4026POPC   D2A53836  16.355  15.066   6.515
 4026POPC   C3A53837  16.116  15.074   6.901
 4026POPC   C4A53838  15.725  14.968   7.119
 4026POPC   C1B53839  16.083  15.479   6.192
 4026POPC   C2B53840  15.843  15.354   6.588
 4026POPC   C3B53841  15.865  15.492   7.054
 4026POPC   C4B53842  15.842  15.626   7.520
 4027POPC   NC353843  35.621   5.251   5.300
 4027POPC   PO453844  36.015   4.870   5.540
 4027POPC   GL153845  35.902   4.836   5.990
 4027POPC   GL253846  35.672   4.569   5.987
 4027POPC   C1A53847  35.916   5.099   6.402
 4027POPC   D2A53848  35.951   5.125   6.888
 4027POPC   C3A53849  36.279   5.202   7.243
 4027POPC   C4A53850  36.240   5.408   7.671
 4027POPC   C1B53851  35.694   4.622   6.458
 4027POPC   C2B53852  35.844   4.598   6.896
 4027POPC   C3B53853  35.959   4.815   7.299
 4027POPC   C4B53854  35.743   4.946   7.672
 4028POPC   NC353855  26.629  27.259   5.536
 4028POPC   PO453856  26.781  27.845   5.407
 4028POPC   GL153857  26.804  27.637   5.841
 4028POPC   GL253858  26.954  27.297   5.938
 4028POPC   C1A53859  26.759  27.619   6.301
 4028POPC   D2A53860  26.840  27.555   6.739
 4028POPC   C3A53861  26.711  27.827   7.117
 4028POPC   C4A53862  26.728  28.108   7.507
 4028POPC   C1B53863  27.112  27.226   6.383
 4028POPC   C2B53864  27.171  27.190   6.850
 4028POPC   C3B53865  26.811  27.252   7.160
 4028POPC   C4B53866  26.695  27.184   7.595
 4029POPC   NC353867  40.042  30.983   5.363
 4029POPC   PO453868  39.524  30.632   5.522
 4029POPC   GL153869  39.780  30.790   5.826
 4029POPC   GL253870  40.111  30.661   5.816
 4029POPC   C1A53871  39.986  30.955   6.200
 4029POPC   D2A53872  40.221  30.793   6.520
 4029POPC   C3A53873  40.153  30.956   6.903
 4029POPC   C4A53874  39.962  30.749   7.201
 4029POPC   C1B53875  40.381  30.428   6.130
 4029POPC   C2B53876  40.466  30.349   6.555
 4029POPC   C3B53877  40.295  30.404   6.970
 4029POPC   C4B53878  40.188  30.031   7.183
 4030POPC   NC353879  24.374  16.569   5.337
 4030POPC   PO453880  24.917  16.872   5.153
 4030POPC   GL153881  24.718  16.853   5.611
 4030POPC   GL253882  24.359  16.942   5.702
 4030POPC   C1A53883  24.569  16.546   5.981
 4030POPC   D2A53884  24.713  16.434   6.434
 4030POPC   C3A53885  24.501  16.514   6.822
 4030POPC   C4A53886  24.841  16.465   7.149
 4030POPC   C1B53887  24.518  17.029   6.113
 4030POPC   C2B53888  24.680  16.927   6.514
 4030POPC   C3B53889  24.657  16.978   6.945
 4030POPC   C4B53890  24.361  16.841   7.245
 4031POPC   NC353891  20.188  32.293   5.531
 4031POPC   PO453892  19.461  32.050   5.486
 4031POPC   GL153893  19.624  32.267   5.814
 4031POPC   GL253894  19.921  32.086   5.941
 4031POPC   C1A53895  19.513  32.182   6.236
 4031POPC   D2A53896  19.815  32.057   6.507
 4031POPC   C3A53897  19.655  32.160   6.884
 4031POPC   C4A53898  19.777  32.274   7.268
 4031POPC   C1B53899  20.071  32.452   6.176
 4031POPC   C2B53900  20.382  32.499   6.487
 4031POPC   C3B53901  20.127  32.410   6.836
 4031POPC   C4B53902  20.135  32.632   7.182
 4032POPC   NC353903  13.727  43.077   5.300
 4032POPC   PO453904  14.362  43.083   5.273
 4032POPC   GL153905  14.423  43.040   5.723
 4032POPC   GL253906  14.096  43.130   5.802
 4032POPC   C1A53907  14.425  43.011   6.192
 4032POPC   D2A53908  14.195  43.068   6.575
 4032POPC   C3A53909  14.390  42.805   6.852
 4032POPC   C4A53910  14.505  42.822   7.257
 4032POPC   C1B53911  14.272  43.473   6.088
 4032POPC   C2B53912  14.439  43.514   6.530
 4032POPC   C3B53913  14.412  43.318   6.972
 4032POPC   C4B53914  14.336  43.540   7.353
 4033POPC   NC353915  20.243  15.231   5.401
 4033POPC   PO453916  20.937  14.902   5.425
 4033POPC   GL153917  20.600  15.036   5.721
 4033POPC   GL253918  20.513  15.383   5.834
 4033POPC   C1A53919  20.405  14.954   6.107
 4033POPC   D2A53920  20.466  15.185   6.500
 4033POPC   C3A53921  20.722  15.012   6.837
 4033POPC   C4A53922  20.710  14.879   7.254
 4033POPC   C1B53923  20.890  15.265   6.081
 4033POPC   C2B53924  20.993  15.325   6.505
 4033POPC   C3B53925  20.831  15.516   6.886
 4033POPC   C4B53926  20.823  15.405   7.321
 4034POPC   NC353927  39.251  11.594   5.621
 4034POPC   PO453928  39.547  11.075   5.242
 4034POPC   GL153929  39.321  11.087   5.697
 4034POPC   GL253930  38.992  11.060   5.820
 4034POPC   C1A53931  39.404  11.199   6.181
 4034POPC   D2A53932  39.311  11.509   6.523
 4034POPC   C3A53933  39.544  11.423   6.883
 4034POPC   C4A53934  39.592  11.096   7.129
 4034POPC   C1B53935  38.897  11.228   6.257
 4034POPC   C2B53936  38.782  11.134   6.694
 4034POPC   C3B53937  39.033  11.247   7.060
 4034POPC   C4B53938  38.975  11.438   7.477
 4035POPC   NC353939   8.985  39.887   5.388
 4035POPC   PO453940   9.017  40.433   5.663
 4035POPC   GL153941   8.857  40.090   5.918
 4035POPC   GL253942   8.690  39.778   5.827
 4035POPC   C1A53943   8.940  39.924   6.352
 4035POPC   D2A53944   9.266  39.802   6.683
 4035POPC   C3A53945   9.364  40.096   6.980
 4035POPC   C4A53946   8.991  40.112   7.189
 4035POPC   C1B53947   8.527  39.634   6.214
 4035POPC   C2B53948   8.493  39.785   6.658
 4035POPC   C3B53949   8.738  39.694   7.049
 4035POPC   C4B53950   8.775  39.648   7.518
 4036POPC   NC353951  15.607  31.539   5.468
 4036POPC   PO453952  15.015  31.330   5.323
 4036POPC   GL153953  15.265  31.219   5.719
 4036POPC   GL253954  15.626  31.247   5.889
 4036POPC   C1A53955  15.221  31.073   6.170
 4036POPC   D2A53956  15.213  31.242   6.613
 4036POPC   C3A53957  14.957  31.212   7.019
 4036POPC   C4A53958  15.055  31.485   7.387
 4036POPC   C1B53959  15.706  31.102   6.334
 4036POPC   C2B53960  15.627  30.985   6.758
 4036POPC   C3B53961  15.448  31.265   7.083
 4036POPC   C4B53962  15.561  31.369   7.526
 4037POPC   NC353963  26.990  22.250   5.221
 4037POPC   PO453964  26.488  22.117   5.608
 4037POPC   GL153965  26.829  22.171   5.835
 4037POPC   GL253966  26.894  21.825   5.768
 4037POPC   C1A53967  26.711  22.169   6.260
 4037POPC   D2A53968  26.884  22.219   6.632
 4037POPC   C3A53969  26.595  22.271   6.939
 4037POPC   C4A53970  26.777  22.260   7.365
 4037POPC   C1B53971  26.893  21.668   6.196
 4037POPC   C2B53972  27.058  21.748   6.618
 4037POPC   C3B53973  26.886  21.855   7.040
 4037POPC   C4B53974  26.876  21.771   7.521
 4038POPC   NC353975  16.605  33.143   5.325
 4038POPC   PO453976  16.767  32.586   5.151
 4038POPC   GL153977  16.866  32.825   5.623
 4038POPC   GL253978  16.658  33.062   5.828
 4038POPC   C1A53979  17.018  32.822   6.092
 4038POPC   D2A53980  16.983  33.028   6.490
 4038POPC   C3A53981  16.770  32.916   6.840
 4038POPC   C4A53982  16.792  33.034   7.255
 4038POPC   C1B53983  16.735  33.345   6.193
 4038POPC   C2B53984  16.560  33.356   6.617
 4038POPC   C3B53985  16.388  33.268   7.041
 4038POPC   C4B53986  16.442  33.326   7.504
 4039POPC   NC353987  44.223  40.867   5.555
 4039POPC   PO453988  43.556  40.997   5.619
 4039POPC   GL153989  43.838  40.938   5.871
 4039POPC   GL253990  43.901  40.576   5.882
 4039POPC   C1A53991  44.005  41.130   6.197
 4039POPC   D2A53992  44.106  40.948   6.559
 4039POPC   C3A53993  43.880  41.151   6.850
 4039POPC   C4A53994  43.760  40.969   7.190
 4039POPC   C1B53995  43.645  40.681   6.275
 4039POPC   C2B53996  43.677  40.685   6.743
 4039POPC   C3B53997  43.476  40.576   7.130
 4039POPC   C4B53998  43.516  40.576   7.601
 4040POPC   NC353999  41.496  38.005   5.604
 4040POPC   PO454000  41.879  37.538   5.515
 4040POPC   GL154001  41.706  37.606   5.906
 4040POPC   GL254002  41.353  37.503   5.939
 4040POPC   C1A54003  41.747  37.808   6.302
 4040POPC   D2A54004  41.577  37.693   6.702
 4040POPC   C3A54005  41.796  37.761   7.105
 4040POPC   C4A54006  41.905  37.835   7.555
 4040POPC   C1B54007  41.244  37.870   6.194
 4040POPC   C2B54008  41.257  38.151   6.558
 4040POPC   C3B54009  41.257  37.986   6.967
 4040POPC   C4B54010  41.394  37.880   7.393
 4041POPC   NC354011  13.266  42.751   5.610
 4041POPC   PO454012  13.370  43.366   5.340
 4041POPC   GL154013  13.581  43.320   5.733
 4041POPC   GL254014  13.629  42.955   5.866
 4041POPC   C1A54015  13.753  43.334   6.147
 4041POPC   D2A54016  13.658  43.076   6.520
 4041POPC   C3A54017  13.771  43.128   6.922
 4041POPC   C4A54018  14.044  43.045   7.241
 4041POPC   C1B54019  13.442  42.717   6.233
 4041POPC   C2B54020  13.228  42.813   6.601
 4041POPC   C3B54021  13.430  42.730   6.982
 4041POPC   C4B54022  13.673  42.684   7.346
 4042POPC   NC354023  37.518  29.289   5.582
 4042POPC   PO454024  38.115  28.917   5.437
 4042POPC   GL154025  37.943  29.079   5.839
 4042POPC   GL254026  37.973  29.439   5.788
 4042POPC   C1A54027  38.018  28.939   6.332
 4042POPC   D2A54028  37.992  28.750   6.797
 4042POPC   C3A54029  37.577  28.854   7.057
 4042POPC   C4A54030  37.249  29.140   7.241
 4042POPC   C1B54031  37.716  29.357   6.197
 4042POPC   C2B54032  37.629  29.152   6.612
 4042POPC   C3B54033  37.693  29.352   6.997
 4042POPC   C4B54034  37.589  29.741   7.193
 4043POPC   NC354035  10.469  20.752   5.431
 4043POPC   PO454036   9.993  20.183   5.251
 4043POPC   GL154037  10.210  20.189   5.752
 4043POPC   GL254038  10.559  20.349   5.738
 4043POPC   C1A54039  10.261  20.422   6.149
 4043POPC   D2A54040  10.359  20.624   6.514
 4043POPC   C3A54041  10.584  20.382   6.794
 4043POPC   C4A54042  10.430  20.483   7.183
 4043POPC   C1B54043  10.673  20.710   6.063
 4043POPC   C2B54044  10.849  20.777   6.506
 4043POPC   C3B54045  10.722  20.857   6.959
 4043POPC   C4B54046  10.456  21.059   7.268
 4044POPC   NC354047  26.534  29.523   5.426
 4044POPC   PO454048  27.042  28.903   5.257
 4044POPC   GL154049  26.924  28.946   5.716
 4044POPC   GL254050  26.795  29.285   5.828
 4044POPC   C1A54051  26.865  28.905   6.169
 4044POPC   D2A54052  26.736  29.079   6.559
 4044POPC   C3A54053  26.663  28.881   6.949
 4044POPC   C4A54054  27.013  28.844   7.262
 4044POPC   C1B54055  26.934  29.449   6.238
 4044POPC   C2B54056  26.909  29.532   6.704
 4044POPC   C3B54057  26.840  29.318   7.117
 4044POPC   C4B54058  26.740  29.513   7.509
 4045POPC   NC354059   2.406  14.086   5.543
 4045POPC   PO454060   2.830  14.508   5.224
 4045POPC   GL154061   2.912  14.433   5.654
 4045POPC   GL254062   2.618  14.404   5.859
 4045POPC   C1A54063   3.030  14.551   6.083
 4045POPC   D2A54064   2.705  14.717   6.398
 4045POPC   C3A54065   2.717  14.598   6.834
 4045POPC   C4A54066   2.918  14.366   7.189
 4045POPC   C1B54067   2.709  14.203   6.279
 4045POPC   C2B54068   2.762  14.110   6.730
 4045POPC   C3B54069   2.458  14.167   7.074
 4045POPC   C4B54070   2.243  14.243   7.503
 4046POPC   NC354071  21.079  38.822   5.400
 4046POPC   PO454072  21.542  39.316   5.599
 4046POPC   GL154073  21.330  39.013   5.803
 4046POPC   GL254074  21.489  38.730   5.698
 4046POPC   C1A54075  21.284  39.074   6.224
 4046POPC   D2A54076  21.362  38.904   6.600
 4046POPC   C3A54077  21.191  39.171   6.903
 4046POPC   C4A54078  21.037  39.565   7.096
 4046POPC   C1B54079  21.724  38.832   6.084
 4046POPC   C2B54080  21.881  38.742   6.484
 4046POPC   C3B54081  21.750  38.784   6.903
 4046POPC   C4B54082  21.603  39.027   7.210
 4047POPC   NC354083  13.999  36.456   5.441
 4047POPC   PO454084  14.704  36.418   5.534
 4047POPC   GL154085  14.604  36.247   5.891
 4047POPC   GL254086  14.245  36.213   5.853
 4047POPC   C1A54087  14.782  36.256   6.276
 4047POPC   D2A54088  14.640  36.209   6.679
 4047POPC   C3A54089  14.768  36.095   7.072
 4047POPC   C4A54090  14.577  35.812   7.350
 4047POPC   C1B54091  14.315  36.066   6.280
 4047POPC   C2B54092  14.145  36.138   6.649
 4047POPC   C3B54093  14.243  35.972   6.996
 4047POPC   C4B54094  14.141  36.166   7.343
 4048POPC   NC354095  12.645  22.586   5.643
 4048POPC   PO454096  12.195  22.405   5.211
 4048POPC   GL154097  12.194  22.287   5.701
 4048POPC   GL254098  12.263  21.900   5.761
 4048POPC   C1A54099  11.958  22.317   6.145
 4048POPC   D2A54100  11.657  22.372   6.521
 4048POPC   C3A54101  11.834  22.274   6.933
 4048POPC   C4A54102  11.982  22.307   7.349
 4048POPC   C1B54103  12.001  21.796   6.121
 4048POPC   C2B54104  11.836  21.891   6.536
 4048POPC   C3B54105  11.827  21.746   6.955
 4048POPC   C4B54106  12.222  21.691   7.158
 4049POPC   NC354107  17.718  18.470   5.507
 4049POPC   PO454108  17.158  18.362   5.193
 4049POPC   GL154109  17.280  18.101   5.604
 4049POPC   GL254110  17.634  18.057   5.786
 4049POPC   C1A54111  17.169  18.058   6.059
 4049POPC   D2A54112  17.147  18.366   6.426
 4049POPC   C3A54113  17.271  18.427   6.883
 4049POPC   C4A54114  17.536  18.668   7.205
 4049POPC   C1B54115  17.619  18.349   6.153
 4049POPC   C2B54116  17.704  18.487   6.591
 4049POPC   C3B54117  17.768  18.268   7.007
 4049POPC   C4B54118  17.808  18.024   7.396
 4050POPC   NC354119  34.816  43.054   5.581
 4050POPC   PO454120  34.128  42.924   5.648
 4050POPC   GL154121  34.442  43.087   5.952
 4050POPC   GL254122  34.596  43.440   5.892
 4050POPC   C1A54123  34.764  42.899   6.242
 4050POPC   D2A54124  34.840  42.654   6.615
 4050POPC   C3A54125  34.994  42.839   6.957
 4050POPC   C4A54126  34.742  43.154   7.215
 4050POPC   C1B54127  34.644  43.385   6.354
 4050POPC   C2B54128  34.533  43.091   6.720
 4050POPC   C3B54129  34.166  42.904   6.982
 4050POPC   C4B54130  34.137  42.712   7.414
 4051POPC   NC354131  20.855   5.390   5.360
 4051POPC   PO454132  20.496   5.994   5.308
 4051POPC   GL154133  20.435   5.893   5.737
 4051POPC   GL254134  20.285   5.567   5.684
 4051POPC   C1A54135  20.401   5.901   6.209
 4051POPC   D2A54136  20.672   5.921   6.589
 4051POPC   C3A54137  20.531   6.056   7.005
 4051POPC   C4A54138  20.652   5.785   7.328
 4051POPC   C1B54139  20.563   5.446   6.030
 4051POPC   C2B54140  20.570   5.416   6.497
 4051POPC   C3B54141  20.404   5.524   6.933
 4051POPC   C4B54142  20.314   5.444   7.390
 4052POPC   NC354143  36.508  26.584   5.478
 4052POPC   PO454144  36.986  27.027   5.613
 4052POPC   GL154145  36.865  26.642   5.855
 4052POPC   GL254146  36.890  26.886   6.104
 4052POPC   C1A54147  36.875  26.408   6.245
 4052POPC   D2A54148  36.760  26.718   6.571
 4052POPC   C3A54149  36.839  26.588   6.959
 4052POPC   C4A54150  37.112  26.481   7.254
 4052POPC   C1B54151  36.669  27.218   6.271
 4052POPC   C2B54152  36.740  27.408   6.653
 4052POPC   C3B54153  36.751  27.105   6.930
 4052POPC   C4B54154  36.947  26.980   7.271
 4053POPC   NC354155  18.107  39.639   5.583
 4053POPC   PO454156  18.477  40.049   5.131
 4053POPC   GL154157  18.516  40.221   5.593
 4053POPC   GL254158  18.156  40.221   5.752
 4053POPC   C1A54159  18.540  40.105   6.063
 4053POPC   D2A54160  18.477  40.215   6.517
 4053POPC   C3A54161  18.517  40.047   6.938
 4053POPC   C4A54162  18.417  40.045   7.412
 4053POPC   C1B54163  18.069  39.975   6.188
 4053POPC   C2B54164  18.049  39.854   6.646
 4053POPC   C3B54165  18.031  40.070   7.056
 4053POPC   C4B54166  17.799  40.452   7.118
 4054POPC   NC354167  38.355  15.554   5.456
 4054POPC   PO454168  38.588  14.970   5.612
 4054POPC   GL154169  38.530  15.229   5.885
 4054POPC   GL254170  38.173  15.300   5.872
 4054POPC   C1A54171  38.586  15.021   6.263
 4054POPC   D2A54172  38.446  14.769   6.561
 4054POPC   C3A54173  38.249  14.958   6.922
 4054POPC   C4A54174  38.549  14.841   7.222
 4054POPC   C1B54175  38.306  15.480   6.265
 4054POPC   C2B54176  38.435  15.340   6.634
 4054POPC   C3B54177  38.471  15.401   7.025
 4054POPC   C4B54178  38.143  15.630   7.189
 4055POPC   NC354179  26.263  26.507   5.519
 4055POPC   PO454180  25.715  26.253   5.338
 4055POPC   GL154181  25.766  26.118   5.765
 4055POPC   GL254182  26.116  26.099   5.823
 4055POPC   C1A54183  25.821  25.985   6.233
 4055POPC   D2A54184  26.100  26.028   6.590
 4055POPC   C3A54185  25.876  26.094   6.978
 4055POPC   C4A54186  25.803  25.900   7.402
 4055POPC   C1B54187  26.037  26.423   6.146
 4055POPC   C2B54188  25.969  26.514   6.581
 4055POPC   C3B54189  26.226  26.473   6.968
 4055POPC   C4B54190  26.070  26.333   7.395
 4056POPC   NC354191   1.146  41.011   5.523
 4056POPC   PO454192   1.529  40.442   5.510
 4056POPC   GL154193   1.198  40.590   5.812
 4056POPC   GL254194   1.408  40.502   6.063
 4056POPC   C1A54195   1.014  40.807   6.225
 4056POPC   D2A54196   0.765  40.843   6.635
 4056POPC   C3A54197   0.918  41.023   7.032
 4056POPC   C4A54198   1.023  41.071   7.492
 4056POPC   C1B54199   1.523  40.785   6.389
 4056POPC   C2B54200   1.301  40.935   6.718
 4056POPC   C3B54201   1.457  40.790   7.121
 4056POPC   C4B54202   1.905  40.818   7.282
 4057POPC   NC354203  40.664  41.055   5.362
 4057POPC   PO454204  40.802  40.425   5.514
 4057POPC   GL154205  40.596  40.710   5.831
 4057POPC   GL254206  40.557  41.099   5.844
 4057POPC   C1A54207  40.642  40.628   6.272
 4057POPC   D2A54208  40.694  40.436   6.681
 4057POPC   C3A54209  40.972  40.551   7.011
 4057POPC   C4A54210  40.904  40.570   7.476
 4057POPC   C1B54211  40.604  41.143   6.262
 4057POPC   C2B54212  40.511  40.935   6.665
 4057POPC   C3B54213  40.686  40.988   7.078
 4057POPC   C4B54214  40.629  41.302   7.428
 4058POPC   NC354215  17.746  29.463   5.307
 4058POPC   PO454216  17.271  28.968   5.300
 4058POPC   GL154217  17.354  29.120   5.729
 4058POPC   GL254218  17.593  29.393   5.805
 4058POPC   C1A54219  17.415  28.985   6.177
 4058POPC   D2A54220  17.299  28.839   6.627
 4058POPC   C3A54221  17.496  29.105   6.970
 4058POPC   C4A54222  17.465  29.166   7.436
 4058POPC   C1B54223  17.587  29.561   6.249
 4058POPC   C2B54224  17.814  29.607   6.671
 4058POPC   C3B54225  17.757  29.534   7.138
 4058POPC   C4B54226  17.901  29.360   7.566
 4059POPC   NC354227  12.471   9.263   5.423
 4059POPC   PO454228  12.029   8.761   5.502
 4059POPC   GL154229  12.129   9.068   5.773
 4059POPC   GL254230  12.438   8.923   5.844
 4059POPC   C1A54231  12.129   9.183   6.208
 4059POPC   D2A54232  12.250   8.917   6.561
 4059POPC   C3A54233  12.013   8.900   6.937
 4059POPC   C4A54234  12.032   9.254   7.194
 4059POPC   C1B54235  12.267   8.591   6.141
 4059POPC   C2B54236  12.258   8.392   6.566
 4059POPC   C3B54237  12.429   8.510   6.960
 4059POPC   C4B54238  12.373   8.796   7.298
 4060POPC   NC354239  38.647  28.844   5.467
 4060POPC   PO454240  38.416  28.192   5.403
 4060POPC   GL154241  38.464  28.446   5.757
 4060POPC   GL254242  38.833  28.442   5.741
 4060POPC   C1A54243  38.230  28.472   6.178
 4060POPC   D2A54244  38.006  28.217   6.533
 4060POPC   C3A54245  38.219  28.258   6.949
 4060POPC   C4A54246  38.376  28.633   7.179
 4060POPC   C1B54247  38.719  28.164   6.107
 4060POPC   C2B54248  38.565  28.286   6.528
 4060POPC   C3B54249  38.753  28.257   6.926
 4060POPC   C4B54250  38.647  28.222   7.335
 4061POPC   NC354251  22.731   7.308   5.301
 4061POPC   PO454252  23.206   7.819   5.250
 4061POPC   GL154253  22.961   7.653   5.659
 4061POPC   GL254254  22.947   7.270   5.775
 4061POPC   C1A54255  22.995   7.659   6.151
 4061POPC   D2A54256  23.204   7.474   6.538
 4061POPC   C3A54257  22.984   7.554   6.949
 4061POPC   C4A54258  23.017   7.720   7.391
 4061POPC   C1B54259  22.957   7.120   6.220
 4061POPC   C2B54260  22.933   6.989   6.663
 4061POPC   C3B54261  22.955   7.007   7.112
 4061POPC   C4B54262  22.746   7.108   7.503
 4062POPC   NC354263  21.942  30.791   5.435
 4062POPC   PO454264  22.620  30.705   5.159
 4062POPC   GL154265  22.423  30.648   5.614
 4062POPC   GL254266  22.123  30.409   5.728
 4062POPC   C1A54267  22.401  30.621   6.114
 4062POPC   D2A54268  22.208  30.786   6.540
 4062POPC   C3A54269  22.350  30.772   7.012
 4062POPC   C4A54270  22.438  30.832   7.483
 4062POPC   C1B54271  21.885  30.525   6.154
 4062POPC   C2B54272  21.714  30.626   6.617
 4062POPC   C3B54273  21.820  30.566   7.080
 4062POPC   C4B54274  21.807  30.476   7.537
 4063POPC   NC354275  36.113  32.930   5.031
 4063POPC   PO454276  35.907  33.439   5.366
 4063POPC   GL154277  36.129  33.243   5.702
 4063POPC   GL254278  36.100  32.905   5.611
 4063POPC   C1A54279  36.210  33.093   6.098
 4063POPC   D2A54280  36.211  33.262   6.504
 4063POPC   C3A54281  35.878  33.107   6.773
 4063POPC   C4A54282  36.058  33.046   7.172
 4063POPC   C1B54283  35.862  32.721   5.985
 4063POPC   C2B54284  35.851  32.687   6.445
 4063POPC   C3B54285  35.947  32.606   6.893
 4063POPC   C4B54286  35.722  32.663   7.266
 4064POPC   NC354287  33.895  31.743   5.400
 4064POPC   PO454288  33.323  31.388   5.340
 4064POPC   GL154289  33.537  31.466   5.767
 4064POPC   GL254290  33.363  31.710   5.996
 4064POPC   C1A54291  33.831  31.546   6.137
 4064POPC   D2A54292  33.907  31.766   6.541
 4064POPC   C3A54293  34.000  31.508   6.891
 4064POPC   C4A54294  33.992  31.215   7.216
 4064POPC   C1B54295  33.386  31.632   6.421
 4064POPC   C2B54296  33.566  31.347   6.717
 4064POPC   C3B54297  33.521  31.407   7.133
 4064POPC   C4B54298  33.490  31.830   7.195
 4065POPC   NC354299  27.020  21.508   5.382
 4065POPC   PO454300  27.648  21.350   5.554
 4065POPC   GL154301  27.762  21.439   5.938
 4065POPC   GL254302  27.589  21.210   6.067
 4065POPC   C1A54303  27.911  21.731   6.254
 4065POPC   D2A54304  27.858  21.724   6.704
 4065POPC   C3A54305  27.478  21.796   6.908
 4065POPC   C4A54306  27.257  21.546   7.188
 4065POPC   C1B54307  27.448  21.514   6.366
 4065POPC   C2B54308  27.382  21.317   6.738
 4065POPC   C3B54309  27.703  21.311   7.024
 4065POPC   C4B54310  27.904  21.021   7.268
 4066POPC   NC354311  21.955  17.472   5.445
 4066POPC   PO454312  22.579  17.229   5.430
 4066POPC   GL154313  22.308  17.378   5.817
 4066POPC   GL254314  21.955  17.220   5.887
 4066POPC   C1A54315  22.259  17.348   6.285
 4066POPC   D2A54316  22.292  17.232   6.732
 4066POPC   C3A54317  22.249  17.544   7.088
 4066POPC   C4A54318  22.262  17.619   7.527
 4066POPC   C1B54319  21.644  17.178   6.250
 4066POPC   C2B54320  21.577  17.203   6.719
 4066POPC   C3B54321  21.884  17.213   7.034
 4066POPC   C4B54322  21.941  17.222   7.484
 4067POPC   NC354323   2.385  37.749   5.395
 4067POPC   PO454324   1.772  37.797   5.249
 4067POPC   GL154325   1.818  37.830   5.723
 4067POPC   GL254326   2.164  37.734   5.862
 4067POPC   C1A54327   1.744  37.894   6.189
 4067POPC   D2A54328   1.886  37.690   6.597
 4067POPC   C3A54329   1.692  37.834   7.000
 4067POPC   C4A54330   1.781  37.741   7.473
 4067POPC   C1B54331   2.249  37.936   6.274
 4067POPC   C2B54332   2.211  38.056   6.712
 4067POPC   C3B54333   2.194  37.774   7.077
 4067POPC   C4B54334   2.220  37.968   7.450
 4068POPC   NC354335   2.737   8.113   5.226
 4068POPC   PO454336   1.982   8.238   5.318
 4068POPC   GL154337   1.966   8.354   5.762
 4068POPC   GL254338   2.287   8.473   5.812
 4068POPC   C1A54339   1.931   8.410   6.215
 4068POPC   D2A54340   1.761   8.161   6.572
 4068POPC   C3A54341   1.785   8.353   6.995
 4068POPC   C4A54342   1.662   8.120   7.341
 4068POPC   C1B54343   2.455   8.406   6.236
 4068POPC   C2B54344   2.389   8.307   6.675
 4068POPC   C3B54345   2.393   8.459   7.095
 4068POPC   C4B54346   2.136   8.312   7.403
 4069POPC   NC354347  21.250  15.273   5.403
 4069POPC   PO454348  21.656  14.728   5.435
 4069POPC   GL154349  21.462  14.994   5.786
 4069POPC   GL254350  21.370  15.379   5.875
 4069POPC   C1A54351  21.350  15.019   6.225
 4069POPC   D2A54352  21.493  15.045   6.605
 4069POPC   C3A54353  21.233  15.158   6.924
 4069POPC   C4A54354  21.270  15.121   7.327
 4069POPC   C1B54355  21.427  15.511   6.317
 4069POPC   C2B54356  21.495  15.573   6.733
 4069POPC   C3B54357  21.272  15.649   7.121
 4069POPC   C4B54358  21.236  15.591   7.567
 4070POPC   NC354359  27.265  16.605   5.235
 4070POPC   PO454360  26.596  16.815   5.428
 4070POPC   GL154361  26.799  16.782   5.799
 4070POPC   GL254362  27.179  16.755   5.760
 4070POPC   C1A54363  26.626  16.626   6.170
 4070POPC   D2A54364  26.683  16.790   6.566
 4070POPC   C3A54365  26.681  16.576   6.924
 4070POPC   C4A54366  26.691  16.764   7.281
 4070POPC   C1B54367  27.074  16.422   6.092
 4070POPC   C2B54368  27.061  16.417   6.575
 4070POPC   C3B54369  27.162  16.455   7.048
 4070POPC   C4B54370  26.911  16.343   7.478
 4071POPC   NC354371  16.652  28.539   5.389
 4071POPC   PO454372  17.251  28.549   5.675
 4071POPC   GL154373  16.908  28.336   5.829
 4071POPC   GL254374  16.574  28.493   5.889
 4071POPC   C1A54375  16.779  28.180   6.218
 4071POPC   D2A54376  16.575  28.317   6.568
 4071POPC   C3A54377  16.722  28.165   6.938
 4071POPC   C4A54378  16.771  28.313   7.360
 4071POPC   C1B54379  16.378  28.698   6.230
 4071POPC   C2B54380  16.241  28.705   6.650
 4071POPC   C3B54381  16.405  28.568   7.034
 4071POPC   C4B54382  16.275  28.541   7.447
 4072POPC   NC354383  14.275  19.072   5.378
 4072POPC   PO454384  14.827  19.402   5.570
 4072POPC   GL154385  14.631  19.026   5.808
 4072POPC   GL254386  14.317  18.919   5.910
 4072POPC   C1A54387  14.691  19.098   6.252
 4072POPC   D2A54388  14.530  19.122   6.681
 4072POPC   C3A54389  14.680  19.478   6.872
 4072POPC   C4A54390  14.742  19.599   7.285
 4072POPC   C1B54391  14.315  18.786   6.362
 4072POPC   C2B54392  14.043  18.884   6.698
 4072POPC   C3B54393  14.131  19.126   7.048
 4072POPC   C4B54394  14.503  19.153   7.252
 4073POPC   NC354395  12.421   4.432   5.529
 4073POPC   PO454396  11.734   4.288   5.426
 4073POPC   GL154397  12.029   4.214   5.796
 4073POPC   GL254398  12.062   3.862   5.871
 4073POPC   C1A54399  12.193   4.467   6.169
 4073POPC   D2A54400  12.391   4.600   6.574
 4073POPC   C3A54401  12.263   4.454   6.981
 4073POPC   C4A54402  12.118   4.504   7.426
 4073POPC   C1B54403  12.364   3.955   6.200
 4073POPC   C2B54404  12.358   4.066   6.622
 4073POPC   C3B54405  12.411   3.972   7.053
 4073POPC   C4B54406  12.347   4.028   7.506
 4074POPC   NC354407   3.014  11.926   5.120
 4074POPC   PO454408   2.638  12.479   5.484
 4074POPC   GL154409   2.603  12.246   5.831
 4074POPC   GL254410   2.724  11.898   5.769
 4074POPC   C1A54411   2.791  12.247   6.239
 4074POPC   D2A54412   2.925  12.431   6.626
 4074POPC   C3A54413   2.666  12.280   6.927
 4074POPC   C4A54414   2.705  12.020   7.250
 4074POPC   C1B54415   2.969  11.764   6.167
 4074POPC   C2B54416   3.056  11.647   6.627
 4074POPC   C3B54417   3.024  11.660   7.105
 4074POPC   C4B54418   3.060  11.806   7.560
 4075POPC   NC354419  37.457  20.339   5.242
 4075POPC   PO454420  37.800  20.655   5.628
 4075POPC   GL154421  37.448  20.610   5.833
 4075POPC   GL254422  37.341  20.958   5.871
 4075POPC   C1A54423  37.376  20.320   6.153
 4075POPC   D2A54424  37.670  20.332   6.493
 4075POPC   C3A54425  37.511  20.146   6.865
 4075POPC   C4A54426  37.339  20.337   7.226
 4075POPC   C1B54427  37.503  20.826   6.303
 4075POPC   C2B54428  37.505  20.941   6.766
 4075POPC   C3B54429  37.644  20.897   7.218
 4075POPC   C4B54430  37.673  21.023   7.672
 4076POPC   NC354431  42.621  11.541   5.425
 4076POPC   PO454432  42.591  10.907   5.518
 4076POPC   GL154433  42.550  11.242   5.864
 4076POPC   GL254434  42.221  11.406   5.853
 4076POPC   C1A54435  42.494  11.228   6.333
 4076POPC   D2A54436  42.562  10.946   6.690
 4076POPC   C3A54437  42.480  11.200   7.037
 4076POPC   C4A54438  42.541  11.649   7.094
 4076POPC   C1B54439  42.308  11.695   6.209
 4076POPC   C2B54440  42.265  11.623   6.644
 4076POPC   C3B54441  41.996  11.558   6.984
 4076POPC   C4B54442  42.102  11.568   7.416
 4077POPC   NC354443  11.527  26.964   5.394
 4077POPC   PO454444  11.000  26.444   5.320
 4077POPC   GL154445  11.283  26.493   5.718
 4077POPC   GL254446  11.248  26.842   5.832
 4077POPC   C1A54447  11.286  26.504   6.225
 4077POPC   D2A54448  10.932  26.495   6.565
 4077POPC   C3A54449  11.036  26.645   7.004
 4077POPC   C4A54450  11.371  26.642   7.304
 4077POPC   C1B54451  11.397  27.021   6.214
 4077POPC   C2B54452  11.706  26.906   6.516
 4077POPC   C3B54453  11.639  26.944   6.965
 4077POPC   C4B54454  11.238  27.147   7.075
 4078POPC   NC354455   2.938  16.514   5.473
 4078POPC   PO454456   2.345  16.737   5.464
 4078POPC   GL154457   2.665  16.763   5.835
 4078POPC   GL254458   2.782  16.419   5.953
 4078POPC   C1A54459   2.981  16.824   6.206
 4078POPC   D2A54460   3.168  16.766   6.622
 4078POPC   C3A54461   2.981  16.970   6.946
 4078POPC   C4A54462   2.741  16.787   7.274
 4078POPC   C1B54463   2.970  16.338   6.378
 4078POPC   C2B54464   2.885  16.199   6.779
 4078POPC   C3B54465   2.625  16.287   7.129
 4078POPC   C4B54466   2.722  16.353   7.567
 4079POPC   NC354467   0.726  32.700   5.219
 4079POPC   PO454468   1.358  32.611   5.158
 4079POPC   GL154469   1.254  32.622   5.609
 4079POPC   GL254470   0.921  32.727   5.688
 4079POPC   C1A54471   1.119  32.359   6.013
 4079POPC   D2A54472   1.072  32.113   6.428
 4079POPC   C3A54473   1.295  32.206   6.832
 4079POPC   C4A54474   1.342  31.965   7.218
 4079POPC   C1B54475   0.709  32.661   6.097
 4079POPC   C2B54476   0.802  32.529   6.490
 4079POPC   C3B54477   0.802  32.373   6.906
 4079POPC   C4B54478   1.052  32.382   7.282
 4080POPC   NC354479  41.976  17.887   5.867
 4080POPC   PO454480  41.476  17.886   5.596
 4080POPC   GL154481  41.497  18.073   5.999
 4080POPC   GL254482  41.337  18.364   5.918
 4080POPC   C1A54483  41.569  18.272   6.409
 4080POPC   D2A54484  41.693  18.399   6.854
 4080POPC   C3A54485  41.628  18.138   7.253
 4080POPC   C4A54486  41.865  18.054   7.681
 4080POPC   C1B54487  41.319  18.687   6.270
 4080POPC   C2B54488  41.270  18.691   6.759
 4080POPC   C3B54489  41.384  18.608   7.227
 4080POPC   C4B54490  41.488  18.435   7.659
 4081POPC   NC354491   3.998  13.168   5.178
 4081POPC   PO454492   3.598  12.628   5.375
 4081POPC   GL154493   3.442  12.803   5.745
 4081POPC   GL254494   3.350  13.152   5.803
 4081POPC   C1A54495   3.435  12.665   6.162
 4081POPC   D2A54496   3.584  12.819   6.558
 4081POPC   C3A54497   3.397  12.557   6.811
 4081POPC   C4A54498   3.502  12.441   7.179
 4081POPC   C1B54499   3.246  13.130   6.258
 4081POPC   C2B54500   3.159  13.017   6.707
 4081POPC   C3B54501   3.368  12.945   7.153
 4081POPC   C4B54502   3.430  13.237   7.556
 4082POPC   NC354503   5.053  19.399   5.285
 4082POPC   PO454504   5.227  18.768   5.345
 4082POPC   GL154505   5.030  19.046   5.685
 4082POPC   GL254506   5.147  19.398   5.787
 4082POPC   C1A54507   5.128  19.012   6.135
 4082POPC   D2A54508   5.191  19.245   6.517
 4082POPC   C3A54509   5.043  19.089   6.900
 4082POPC   C4A54510   5.311  19.026   7.224
 4082POPC   C1B54511   4.895  19.466   6.169
 4082POPC   C2B54512   4.758  19.524   6.626
 4082POPC   C3B54513   4.837  19.522   7.080
 4082POPC   C4B54514   5.007  19.356   7.436
 4083POPC   NC354515  34.339  15.756   5.625
 4083POPC   PO454516  34.975  15.797   5.421
 4083POPC   GL154517  34.708  16.107   5.718
 4083POPC   GL254518  34.743  15.854   5.934
 4083POPC   C1A54519  34.560  16.222   6.199
 4083POPC   D2A54520  34.578  15.979   6.648
 4083POPC   C3A54521  34.551  16.134   7.110
 4083POPC   C4A54522  34.561  16.210   7.594
 4083POPC   C1B54523  35.112  15.776   6.170
 4083POPC   C2B54524  35.141  15.734   6.609
 4083POPC   C3B54525  34.912  15.781   6.985
 4083POPC   C4B54526  34.885  15.858   7.443
 4084POPC   NC354527  15.535  43.523   5.574
 4084POPC   PO454528  15.012  43.801   5.205
 4084POPC   GL154529  15.181  43.888   5.675
 4084POPC   GL254530  15.370  44.134   5.894
 4084POPC   C1A54531  15.253  43.657   6.122
 4084POPC   D2A54532  15.299  43.563   6.575
 4084POPC   C3A54533  15.215  43.870   6.913
 4084POPC   C4A54534  14.873  44.142   6.996
 4084POPC   C1B54535  15.324  44.076   6.384
 4084POPC   C2B54536  15.654  43.978   6.698
 4084POPC   C3B54537  15.584  44.160   7.124
 4084POPC   C4B54538  15.470  44.342   7.531
 4085POPC   NC354539  26.553  40.061   5.531
 4085POPC   PO454540  27.183  40.256   5.478
 4085POPC   GL154541  26.955  40.197   5.859
 4085POPC   GL254542  26.995  39.865   5.918
 4085POPC   C1A54543  26.843  40.192   6.301
 4085POPC   D2A54544  26.706  40.391   6.687
 4085POPC   C3A54545  26.851  40.247   7.108
 4085POPC   C4A54546  27.209  40.224   7.421
 4085POPC   C1B54547  26.817  39.655   6.294
 4085POPC   C2B54548  26.617  39.864   6.622
 4085POPC   C3B54549  26.498  39.838   7.022
 4085POPC   C4B54550  26.395  40.080   7.320
 4086POPC   NC354551   9.621  28.697   5.450
 4086POPC   PO454552   9.432  28.076   5.380
 4086POPC   GL154553   9.500  28.287   5.774
 4086POPC   GL254554   9.186  28.322   5.960
 4086POPC   C1A54555   9.777  28.397   6.130
 4086POPC   D2A54556   9.981  28.269   6.536
 4086POPC   C3A54557   9.832  28.399   6.956
 4086POPC   C4A54558   9.948  28.336   7.378
 4086POPC   C1B54559   9.264  28.687   6.285
 4086POPC   C2B54560   9.243  28.834   6.742
 4086POPC   C3B54561   9.410  28.667   7.176
 4086POPC   C4B54562   9.430  28.215   7.238
 4087POPC   NC354563  44.784  35.696   5.517
 4087POPC   PO454564  44.396  35.148   5.457
 4087POPC   GL154565  44.362  35.266   5.842
 4087POPC   GL254566  44.715  35.243   5.885
 4087POPC   C1A54567  44.363  35.103   6.258
 4087POPC   D2A54568  44.027  35.090   6.553
 4087POPC   C3A54569  44.267  35.218   6.884
 4087POPC   C4A54570  44.305  35.264   7.304
 4087POPC   C1B54571  44.864  35.377   6.259
 4087POPC   C2B54572  44.716  35.343   6.657
 4087POPC   C3B54573  44.766  35.179   7.056
 4087POPC   C4B54574  44.759  35.413   7.459
 4088POPC   NC354575  38.760  38.498   5.184
 4088POPC   PO454576  39.405  38.649   5.195
 4088POPC   GL154577  39.245  38.370   5.571
 4088POPC   GL254578  38.997  38.093   5.552
 4088POPC   C1A54579  39.238  38.396   6.041
 4088POPC   D2A54580  39.481  38.483   6.432
 4088POPC   C3A54581  39.284  38.507   6.831
 4088POPC   C4A54582  39.395  38.329   7.205
 4088POPC   C1B54583  38.836  38.092   6.015
 4088POPC   C2B54584  39.052  38.095   6.439
 4088POPC   C3B54585  39.063  38.046   6.892
 4088POPC   C4B54586  38.876  38.268   7.195
 4089POPC   NC354587  24.648  18.022   5.317
 4089POPC   PO454588  24.602  18.656   5.240
 4089POPC   GL154589  24.537  18.614   5.686
 4089POPC   GL254590  24.194  18.492   5.752
 4089POPC   C1A54591  24.481  18.625   6.149
 4089POPC   D2A54592  24.592  18.284   6.452
 4089POPC   C3A54593  24.747  18.380   6.853
 4089POPC   C4A54594  24.384  18.335   7.092
 4089POPC   C1B54595  24.237  18.161   6.078
 4089POPC   C2B54596  24.123  18.017   6.508
 4089POPC   C3B54597  24.147  17.878   6.973
 4089POPC   C4B54598  24.281  17.911   7.425
 4090POPC   NC354599  13.797  38.152   5.061
 4090POPC   PO454600  13.573  37.571   5.365
 4090POPC   GL154601  13.806  37.632   5.766
 4090POPC   GL254602  13.932  37.973   5.713
 4090POPC   C1A54603  13.862  37.472   6.212
 4090POPC   D2A54604  13.880  37.595   6.669
 4090POPC   C3A54605  13.536  37.591   6.945
 4090POPC   C4A54606  13.731  37.544   7.322
 4090POPC   C1B54607  13.767  37.995   6.152
 4090POPC   C2B54608  13.569  37.989   6.572
 4090POPC   C3B54609  13.788  38.019   6.961
 4090POPC   C4B54610  13.632  38.051   7.345
 4091POPC   NC354611  25.204  35.926   5.460
 4091POPC   PO454612  25.067  36.609   5.642
 4091POPC   GL154613  25.198  36.285   5.904
 4091POPC   GL254614  25.444  36.042   5.886
 4091POPC   C1A54615  25.199  36.119   6.321
 4091POPC   D2A54616  25.335  35.931   6.699
 4091POPC   C3A54617  25.163  36.146   7.057
 4091POPC   C4A54618  24.868  35.957   7.346
 4091POPC   C1B54619  25.703  35.989   6.267
 4091POPC   C2B54620  25.865  35.870   6.640
 4091POPC   C3B54621  25.714  35.666   6.976
 4091POPC   C4B54622  25.511  35.867   7.296
 4092POPC   NC354623  13.579  35.568   5.378
 4092POPC   PO454624  13.567  35.011   5.634
 4092POPC   GL154625  13.615  35.386   5.928
 4092POPC   GL254626  13.549  35.749   5.892
 4092POPC   C1A54627  13.600  35.470   6.390
 4092POPC   D2A54628  13.709  35.199   6.732
 4092POPC   C3A54629  13.532  35.254   7.153
 4092POPC   C4A54630  13.681  35.413   7.544
 4092POPC   C1B54631  13.916  35.786   6.142
 4092POPC   C2B54632  14.074  35.639   6.569
 4092POPC   C3B54633  13.823  35.642   6.968
 4092POPC   C4B54634  13.378  35.749   7.085
 4093POPC   NC354635  11.445  18.754   5.389
 4093POPC   PO454636  11.621  18.205   5.086
 4093POPC   GL154637  11.585  18.307   5.641
 4093POPC   GL254638  11.548  18.634   5.852
 4093POPC   C1A54639  11.467  18.277   6.171
 4093POPC   D2A54640  11.399  18.465   6.623
 4093POPC   C3A54641  11.240  18.153   6.948
 4093POPC   C4A54642  11.098  17.926   7.344
 4093POPC   C1B54643  11.109  18.654   6.047
 4093POPC   C2B54644  10.924  18.666   6.500
 4093POPC   C3B54645  10.975  18.601   6.982
 4093POPC   C4B54646  10.999  18.824   7.377
 4094POPC   NC354647  23.331  34.919   5.439
 4094POPC   PO454648  22.949  34.321   5.351
 4094POPC   GL154649  23.156  34.516   5.730
 4094POPC   GL254650  23.426  34.317   5.918
 4094POPC   C1A54651  23.132  34.765   6.128
 4094POPC   D2A54652  22.885  34.693   6.521
 4094POPC   C3A54653  23.066  34.801   6.907
 4094POPC   C4A54654  23.206  34.547   7.230
 4094POPC   C1B54655  23.286  34.294   6.355
 4094POPC   C2B54656  23.168  34.259   6.778
 4094POPC   C3B54657  23.104  34.057   7.168
 4094POPC   C4B54658  23.341  34.144   7.565
 4095POPC   NC354659  17.114  36.185   5.399
 4095POPC   PO454660  17.625  35.853   5.535
 4095POPC   GL154661  17.322  36.009   5.840
 4095POPC   GL254662  17.369  36.368   5.898
 4095POPC   C1A54663  17.143  35.866   6.224
 4095POPC   D2A54664  17.234  35.734   6.657
 4095POPC   C3A54665  17.479  36.031   6.879
 4095POPC   C4A54666  17.603  36.034   7.308
 4095POPC   C1B54667  17.406  36.337   6.366
 4095POPC   C2B54668  17.521  36.531   6.773
 4095POPC   C3B54669  17.327  36.437   7.194
 4095POPC   C4B54670  17.379  36.336   7.652
 4096POPC   NC354671  13.765  14.607   5.473
 4096POPC   PO454672  13.401  14.082   5.422
 4096POPC   GL154673  13.493  14.338   5.794
 4096POPC   GL254674  13.734  14.135   5.852
 4096POPC   C1A54675  13.550  14.524   6.219
 4096POPC   D2A54676  13.787  14.629   6.578
 4096POPC   C3A54677  13.579  14.699   6.963
 4096POPC   C4A54678  13.534  14.510   7.353
 4096POPC   C1B54679  13.406  14.043   6.194
 4096POPC   C2B54680  13.539  14.147   6.593
 4096POPC   C3B54681  13.367  14.190   6.970
 4096POPC   C4B54682  13.442  14.002   7.340
 4097POPC   NC354683  12.833   7.684   5.464
 4097POPC   PO454684  12.928   7.040   5.459
 4097POPC   GL154685  12.740   7.145   5.830
 4097POPC   GL254686  12.941   7.453   5.911
 4097POPC   C1A54687  12.860   7.068   6.250
 4097POPC   D2A54688  13.121   7.292   6.506
 4097POPC   C3A54689  13.023   7.200   6.927
 4097POPC   C4A54690  12.999   7.293   7.364
 4097POPC   C1B54691  12.980   7.770   6.265
 4097POPC   C2B54692  13.145   7.822   6.704
 4097POPC   C3B54693  13.117   7.751   7.173
 4097POPC   C4B54694  13.224   7.680   7.657
 4098POPC   NC354695  13.378  36.214   5.095
 4098POPC   PO454696  13.813  35.968   5.481
 4098POPC   GL154697  13.728  36.244   5.829
 4098POPC   GL254698  13.405  36.364   5.821
 4098POPC   C1A54699  13.849  36.271   6.255
 4098POPC   D2A54700  13.685  35.970   6.581
 4098POPC   C3A54701  13.746  36.138   7.003
 4098POPC   C4A54702  13.666  35.971   7.439
 4098POPC   C1B54703  13.358  36.182   6.251
 4098POPC   C2B54704  13.334  36.295   6.736
 4098POPC   C3B54705  13.298  36.278   7.209
 4098POPC   C4B54706  13.363  36.388   7.654
 4099POPC   NC354707   2.653  34.812   5.294
 4099POPC   PO454708   3.036  34.230   5.237
 4099POPC   GL154709   2.945  34.506   5.580
 4099POPC   GL254710   2.619  34.339   5.634
 4099POPC   C1A54711   2.797  34.686   5.984
 4099POPC   D2A54712   2.560  34.564   6.349
 4099POPC   C3A54713   2.861  34.534   6.725
 4099POPC   C4A54714   2.864  34.825   7.092
 4099POPC   C1B54715   2.700  34.147   6.081
 4099POPC   C2B54716   2.547  34.085   6.553
 4099POPC   C3B54717   2.514  34.248   6.971
 4099POPC   C4B54718   2.842  34.370   7.279
 4100POPC   NC354719  27.796  17.526   5.662
 4100POPC   PO454720  27.369  17.063   5.267
 4100POPC   GL154721  27.354  17.240   5.707
 4100POPC   GL254722  27.275  17.565   5.831
 4100POPC   C1A54723  27.217  17.175   6.147
 4100POPC   D2A54724  27.518  17.236   6.468
 4100POPC   C3A54725  27.559  17.341   6.887
 4100POPC   C4A54726  27.356  17.461   7.214
 4100POPC   C1B54727  27.349  17.700   6.274
 4100POPC   C2B54728  27.319  17.972   6.651
 4100POPC   C3B54729  27.555  17.880   6.999
 4100POPC   C4B54730  27.930  17.686   7.103
 4101POPC   NC354731  16.201   1.321   5.300
 4101POPC   PO454732  15.593   1.333   5.221
 4101POPC   GL154733  15.689   1.428   5.697
 4101POPC   GL254734  16.045   1.502   5.743
 4101POPC   C1A54735  15.871   1.282   6.160
 4101POPC   D2A54736  16.001   1.133   6.617
 4101POPC   C3A54737  15.773   1.066   7.079
 4101POPC   C4A54738  15.655   1.107   7.596
 4101POPC   C1B54739  16.289   1.617   6.120
 4101POPC   C2B54740  16.443   1.483   6.551
 4101POPC   C3B54741  16.291   1.446   6.974
 4101POPC   C4B54742  16.074   1.341   7.365
 4102POPC   NC354743  33.423  19.209   5.535
 4102POPC   PO454744  34.069  19.319   5.428
 4102POPC   GL154745  33.856  19.131   5.790
 4102POPC   GL254746  33.909  18.778   5.717
 4102POPC   C1A54747  33.594  19.299   6.180
 4102POPC   D2A54748  33.478  19.525   6.584
 4102POPC   C3A54749  33.616  19.289   6.930
 4102POPC   C4A54750  33.583  18.943   7.194
 4102POPC   C1B54751  33.762  18.788   6.165
 4102POPC   C2B54752  33.753  18.831   6.623
 4102POPC   C3B54753  33.891  18.587   6.995
 4102POPC   C4B54754  33.864  18.622   7.473
 4103POPC   NC354755  15.751  26.214   5.439
 4103POPC   PO454756  16.042  25.629   5.385
 4103POPC   GL154757  16.141  25.954   5.686
 4103POPC   GL254758  16.297  26.266   5.632
 4103POPC   C1A54759  15.974  26.046   6.104
 4103POPC   D2A54760  16.200  25.965   6.487
 4103POPC   C3A54761  16.024  25.831   6.856
 4103POPC   C4A54762  15.866  26.129   7.132
 4103POPC   C1B54763  16.421  26.304   6.085
 4103POPC   C2B54764  16.475  26.383   6.531
 4103POPC   C3B54765  16.126  26.444   6.820
 4103POPC   C4B54766  16.177  26.511   7.263
 4104POPC   NC354767  19.185  33.395   5.604
 4104POPC   PO454768  18.877  32.776   5.283
 4104POPC   GL154769  18.732  32.978   5.676
 4104POPC   GL254770  19.024  32.901   5.860
 4104POPC   C1A54771  18.691  33.165   6.112
 4104POPC   D2A54772  18.859  32.922   6.492
 4104POPC   C3A54773  18.860  33.099   6.907
 4104POPC   C4A54774  18.855  32.887   7.308
 4104POPC   C1B54775  19.279  33.063   6.221
 4104POPC   C2B54776  19.450  33.039   6.653
 4104POPC   C3B54777  19.325  33.023   7.109
 4104POPC   C4B54778  19.259  33.284   7.481
 4105POPC   NC354779  29.841  34.061   5.324
 4105POPC   PO454780  30.237  33.524   5.356
 4105POPC   GL154781  29.994  33.730   5.681
 4105POPC   GL254782  29.645  33.690   5.613
 4105POPC   C1A54783  29.933  33.950   6.076
 4105POPC   D2A54784  29.705  33.977   6.469
 4105POPC   C3A54785  29.892  33.879   6.856
 4105POPC   C4A54786  29.897  33.775   7.290
 4105POPC   C1B54787  29.662  33.502   6.036
 4105POPC   C2B54788  29.841  33.441   6.461
 4105POPC   C3B54789  29.889  33.377   6.931
 4105POPC   C4B54790  29.574  33.376   7.258
 4106POPC   NC354791  14.712   6.055   5.466
 4106POPC   PO454792  14.245   5.556   5.244
 4106POPC   GL154793  14.145   5.807   5.680
 4106POPC   GL254794  14.418   5.928   5.840
 4106POPC   C1A54795  14.087   5.707   6.156
 4106POPC   D2A54796  14.258   5.505   6.552
 4106POPC   C3A54797  14.209   5.776   6.920
 4106POPC   C4A54798  14.457   5.911   7.274
 4106POPC   C1B54799  14.597   6.131   6.163
 4106POPC   C2B54800  14.512   5.982   6.559
 4106POPC   C3B54801  14.625   6.205   6.912
 4106POPC   C4B54802  14.874   6.462   7.185
 4107POPC   NC354803  15.003  18.988   5.469
 4107POPC   PO454804  15.515  19.226   5.224
 4107POPC   GL154805  15.422  19.007   5.758
 4107POPC   GL254806  15.109  19.039   5.950
 4107POPC   C1A54807  15.383  19.271   6.264
 4107POPC   D2A54808  15.066  19.138   6.606
 4107POPC   C3A54809  15.135  19.308   7.015
 4107POPC   C4A54810  15.433  19.235   7.287
 4107POPC   C1B54811  15.299  18.772   6.274
 4107POPC   C2B54812  15.307  18.598   6.693
 4107POPC   C3B54813  15.278  18.795   7.051
 4107POPC   C4B54814  14.918  18.867   7.256
 4108POPC   NC354815  40.197  33.357   5.682
 4108POPC   PO454816  39.722  32.884   5.454
 4108POPC   GL154817  39.968  32.903   5.829
 4108POPC   GL254818  40.280  32.831   5.740
 4108POPC   C1A54819  40.051  33.096   6.254
 4108POPC   D2A54820  40.101  33.298   6.646
 4108POPC   C3A54821  40.001  33.055   6.951
 4108POPC   C4A54822  39.662  32.996   7.227
 4108POPC   C1B54823  40.430  32.765   6.181
 4108POPC   C2B54824  40.243  32.707   6.635
 4108POPC   C3B54825  40.321  32.705   7.116
 4108POPC   C4B54826  40.104  32.861   7.538
 4109POPC   NC354827  11.626   9.512   5.251
 4109POPC   PO454828  11.218  10.041   4.997
 4109POPC   GL154829  11.215   9.818   5.483
 4109POPC   GL254830  11.528   9.857   5.626
 4109POPC   C1A54831  11.099   9.603   5.953
 4109POPC   D2A54832  10.973   9.662   6.446
 4109POPC   C3A54833  11.194   9.577   6.842
 4109POPC   C4A54834  11.024   9.421   7.236
 4109POPC   C1B54835  11.456   9.943   6.059
 4109POPC   C2B54836  11.358  10.015   6.483
 4109POPC   C3B54837  11.205  10.169   6.863
 4109POPC   C4B54838  11.240   9.938   7.229
 4110POPC   NC354839  12.354  27.435   5.343
 4110POPC   PO454840  11.796  27.510   5.454
 4110POPC   GL154841  11.998  27.617   5.822
 4110POPC   GL254842  12.190  27.295   5.842
 4110POPC   C1A54843  12.035  27.839   6.225
 4110POPC   D2A54844  12.206  27.736   6.624
 4110POPC   C3A54845  12.034  27.908   6.993
 4110POPC   C4A54846  11.634  28.045   7.129
 4110POPC   C1B54847  12.169  27.322   6.299
 4110POPC   C2B54848  11.979  27.286   6.725
 4110POPC   C3B54849  12.000  27.261   7.171
 4110POPC   C4B54850  12.260  27.090   7.484
 4111POPC   NC354851  11.812  25.379   5.468
 4111POPC   PO454852  12.493  25.280   5.428
 4111POPC   GL154853  12.306  25.457   5.779
 4111POPC   GL254854  12.097  25.163   5.843
 4111POPC   C1A54855  12.304  25.472   6.225
 4111POPC   D2A54856  12.153  25.127   6.459
 4111POPC   C3A54857  12.321  25.091   6.862
 4111POPC   C4A54858  12.388  25.450   7.131
 4111POPC   C1B54859  11.818  25.390   6.126
 4111POPC   C2B54860  11.880  25.618   6.508
 4111POPC   C3B54861  11.869  25.504   6.945
 4111POPC   C4B54862  11.918  25.122   7.170
 4112POPC   NC354863  32.419  21.518   5.275
 4112POPC   PO454864  32.300  20.928   5.387
 4112POPC   GL154865  32.245  21.155   5.807
 4112POPC   GL254866  32.315  21.507   5.765
 4112POPC   C1A54867  32.115  21.398   6.221
 4112POPC   D2A54868  31.939  21.460   6.635
 4112POPC   C3A54869  32.134  21.189   6.933
 4112POPC   C4A54870  32.345  21.052   7.309
 4112POPC   C1B54871  32.590  21.631   6.129
 4112POPC   C2B54872  32.728  21.523   6.554
 4112POPC   C3B54873  32.633  21.364   6.956
 4112POPC   C4B54874  32.552  21.508   7.364
 4113POPC   NC354875  15.544   5.038   5.273
 4113POPC   PO454876  14.945   4.948   5.618
 4113POPC   GL154877  14.913   4.993   6.022
 4113POPC   GL254878  15.055   5.348   5.995
 4113POPC   C1A54879  15.109   4.717   6.326
 4113POPC   D2A54880  15.318   4.916   6.661
 4113POPC   C3A54881  15.061   5.128   6.955
 4113POPC   C4A54882  15.177   5.072   7.374
 4113POPC   C1B54883  15.026   5.303   6.436
 4113POPC   C2B54884  14.798   5.555   6.731
 4113POPC   C3B54885  14.792   5.524   7.170
 4113POPC   C4B54886  14.929   5.455   7.593
 4114POPC   NC354887  10.284  44.487   5.436
 4114POPC   PO454888  10.936  44.542   5.190
 4114POPC   GL154889  10.686  44.846   5.593
 4114POPC   GL254890  10.415  44.715   5.855
 4114POPC   C1A54891  10.743   0.016   6.083
 4114POPC   D2A54892  10.949  44.911   6.516
 4114POPC   C3A54893  10.681  44.883   6.908
 4114POPC   C4A54894  10.819  44.922   7.327
 4114POPC   C1B54895  10.596  44.555   6.249
 4114POPC   C2B54896  10.756  44.450   6.650
 4114POPC   C3B54897  10.667  44.346   7.078
 4114POPC   C4B54898  10.314  44.598   7.152
 4115POPC   NC354899  34.900  17.907   5.420
 4115POPC   PO454900  34.386  18.407   5.166
 4115POPC   GL154901  34.576  18.268   5.521
 4115POPC   GL254902  34.604  18.543   5.680
 4115POPC   C1A54903  34.582  18.094   5.954
 4115POPC   D2A54904  34.500  18.136   6.388
 4115POPC   C3A54905  34.821  18.158   6.712
 4115POPC   C4A54906  34.712  18.216   7.114
 4115POPC   C1B54907  34.652  18.580   6.118
 4115POPC   C2B54908  34.612  18.628   6.554
 4115POPC   C3B54909  34.607  18.700   6.999
 4115POPC   C4B54910  34.899  18.654   7.333
 4116POPC   NC354911  40.956  37.736   5.287
 4116POPC   PO454912  40.318  37.897   5.410
 4116POPC   GL154913  40.677  37.979   5.708
 4116POPC   GL254914  40.896  37.703   5.787
 4116POPC   C1A54915  40.771  38.071   6.142
 4116POPC   D2A54916  40.851  37.845   6.539
 4116POPC   C3A54917  40.704  37.958   6.958
 4116POPC   C4A54918  40.708  37.751   7.347
 4116POPC   C1B54919  40.887  37.478   6.167
 4116POPC   C2B54920  41.174  37.418   6.507
 4116POPC   C3B54921  41.019  37.533   6.914
 4116POPC   C4B54922  41.099  37.459   7.334
 4117POPC   NC354923  23.097  26.419   5.705
 4117POPC   PO454924  22.999  25.809   5.387
 4117POPC   GL154925  22.726  25.803   5.815
 4117POPC   GL254926  22.704  26.171   5.897
 4117POPC   C1A54927  22.731  25.863   6.299
 4117POPC   D2A54928  23.061  26.131   6.511
 4117POPC   C3A54929  23.090  26.108   6.969
 4117POPC   C4A54930  23.196  26.123   7.429
 4117POPC   C1B54931  22.649  26.393   6.296
 4117POPC   C2B54932  22.633  26.307   6.746
 4117POPC   C3B54933  22.540  26.040   7.069
 4117POPC   C4B54934  22.663  26.165   7.459
 4118POPC   NC354935  14.610  19.943   5.456
 4118POPC   PO454936  14.084  19.777   5.054
 4118POPC   GL154937  14.160  19.702   5.561
 4118POPC   GL254938  14.307  19.413   5.747
 4118POPC   C1A54939  14.270  19.787   6.061
 4118POPC   D2A54940  14.613  19.630   6.360
 4118POPC   C3A54941  14.680  19.955   6.679
 4118POPC   C4A54942  14.560  20.055   7.119
 4118POPC   C1B54943  14.202  19.303   6.237
 4118POPC   C2B54944  14.204  19.526   6.667
 4118POPC   C3B54945  14.245  19.615   7.127
 4118POPC   C4B54946  14.172  19.401   7.545
 4119POPC   NC354947  25.496  17.833   5.608
 4119POPC   PO454948  25.220  17.193   5.628
 4119POPC   GL154949  25.299  17.490   5.926
 4119POPC   GL254950  25.041  17.734   5.868
 4119POPC   C1A54951  25.272  17.698   6.336
 4119POPC   D2A54952  25.334  17.476   6.709
 4119POPC   C3A54953  25.414  17.575   7.114
 4119POPC   C4A54954  25.461  17.155   7.189
 4119POPC   C1B54955  24.779  17.831   6.244
 4119POPC   C2B54956  24.842  17.887   6.693
 4119POPC   C3B54957  24.664  17.878   7.082
 4119POPC   C4B54958  24.840  17.777   7.476
 4120POPC   NC354959   6.775   0.225   5.102
 4120POPC   PO454960   6.660  44.719   5.557
 4120POPC   GL154961   6.994  44.593   5.853
 4120POPC   GL254962   7.107  44.927   5.822
 4120POPC   C1A54963   7.085  44.491   6.322
 4120POPC   D2A54964   7.088  44.459   6.771
 4120POPC   C3A54965   6.807  44.639   7.100
 4120POPC   C4A54966   6.409  44.469   7.244
 4120POPC   C1B54967   6.834  44.918   6.210
 4120POPC   C2B54968   6.686  44.794   6.631
 4120POPC   C3B54969   6.753   0.128   6.978
 4120POPC   C4B54970   6.686   0.481   7.308
 4121POPC   NC354971  13.992  38.476   5.540
 4121POPC   PO454972  13.396  38.298   5.252
 4121POPC   GL154973  13.488  38.224   5.706
 4121POPC   GL254974  13.555  38.541   5.812
 4121POPC   C1A54975  13.331  38.251   6.175
 4121POPC   D2A54976  13.237  38.425   6.598
 4121POPC   C3A54977  13.494  38.447   6.994
 4121POPC   C4A54978  13.351  38.451   7.442
 4121POPC   C1B54979  13.673  38.670   6.228
 4121POPC   C2B54980  13.801  38.435   6.571
 4121POPC   C3B54981  14.068  38.426   6.922
 4121POPC   C4B54982  13.890  38.477   7.325
 4122POPC   NC354983  42.828  14.334   5.617
 4122POPC   PO454984  43.462  14.530   5.503
 4122POPC   GL154985  43.282  14.308   5.851
 4122POPC   GL254986  43.503  14.013   5.854
 4122POPC   C1A54987  42.969  14.261   6.241
 4122POPC   D2A54988  42.885  14.143   6.688
 4122POPC   C3A54989  42.959  14.459   7.010
 4122POPC   C4A54990  43.026  14.472   7.468
 4122POPC   C1B54991  43.480  14.189   6.289
 4122POPC   C2B54992  43.391  14.241   6.693
 4122POPC   C3B54993  43.398  14.257   7.116
 4122POPC   C4B54994  43.498  14.568   7.368
 4123POPC   NC354995  43.471  23.139   5.446
 4123POPC   PO454996  43.941  22.635   5.246
 4123POPC   GL154997  43.742  22.742   5.699
 4123POPC   GL254998  43.588  23.040   5.919
 4123POPC   C1A54999  43.876  22.718   6.180
 4123POPC   D2A55000  43.729  22.848   6.617
 4123POPC   C3A55001  44.018  22.864   6.995
 4123POPC   C4A55002  44.038  22.814   7.480
 4123POPC   C1B55003  43.363  22.751   6.167
 4123POPC   C2B55004  43.189  22.855   6.562
 4123POPC   C3B55005  43.358  23.090   6.884
 4123POPC   C4B55006  43.585  22.949   7.256
 4124POPC   NC355007  37.115  34.918   5.561
 4124POPC   PO455008  36.641  35.410   5.472
 4124POPC   GL155009  36.601  35.450   5.871
 4124POPC   GL255010  36.924  35.334   5.960
 4124POPC   C1A55011  36.526  35.184   6.233
 4124POPC   D2A55012  36.842  35.138   6.544
 4124POPC   C3A55013  36.783  35.254   6.929
 4124POPC   C4A55014  36.909  35.256   7.344
 4124POPC   C1B55015  37.120  35.525   6.331
 4124POPC   C2B55016  37.210  35.494   6.785
 4124POPC   C3B55017  37.341  35.500   7.223
 4124POPC   C4B55018  37.359  35.197   7.598
 4125POPC   NC355019  34.190  16.606   5.601
 4125POPC   PO455020  34.843  16.783   5.528
 4125POPC   GL155021  34.595  16.685   5.905
 4125POPC   GL255022  34.346  16.949   6.025
 4125POPC   C1A55023  34.668  16.700   6.339
 4125POPC   D2A55024  34.548  16.475   6.679
 4125POPC   C3A55025  34.723  16.663   7.004
 4125POPC   C4A55026  34.667  17.023   7.189
 4125POPC   C1B55027  34.181  16.846   6.459
 4125POPC   C2B55028  34.244  16.824   6.910
 4125POPC   C3B55029  34.308  16.560   7.269
 4125POPC   C4B55030  34.131  16.599   7.677
 4126POPC   NC355031  23.377  34.135   5.151
 4126POPC   PO455032  23.643  34.590   5.559
 4126POPC   GL155033  23.966  34.543   5.838
 4126POPC   GL255034  23.957  34.871   5.992
 4126POPC   C1A55035  24.030  34.254   6.174
 4126POPC   D2A55036  23.819  34.217   6.514
 4126POPC   C3A55037  23.938  34.199   6.904
 4126POPC   C4A55038  23.700  34.390   7.224
 4126POPC   C1B55039  23.647  34.657   6.268
 4126POPC   C2B55040  23.565  34.585   6.734
 4126POPC   C3B55041  23.581  34.866   7.068
 4126POPC   C4B55042  23.261  35.106   7.281
 4127POPC   NC355043  35.800   4.492   5.423
 4127POPC   PO455044  35.728   3.897   5.432
 4127POPC   GL155045  35.888   4.127   5.832
 4127POPC   GL255046  36.145   4.403   5.784
 4127POPC   C1A55047  36.029   4.297   6.276
 4127POPC   D2A55048  36.220   4.262   6.734
 4127POPC   C3A55049  36.137   4.305   7.197
 4127POPC   C4A55050  36.394   4.163   7.559
 4127POPC   C1B55051  36.361   4.646   6.106
 4127POPC   C2B55052  36.224   4.727   6.533
 4127POPC   C3B55053  36.335   4.749   6.962
 4127POPC   C4B55054  36.475   4.657   7.375
 4128POPC   NC355055   7.042  44.676   5.319
 4128POPC   PO455056   7.633  44.864   5.353
 4128POPC   GL155057   7.508  44.625   5.720
 4128POPC   GL255058   7.620  44.906   5.885
 4128POPC   C1A55059   7.571  44.480   6.162
 4128POPC   D2A55060   7.576  44.645   6.588
 4128POPC   C3A55061   7.539  44.412   6.956
 4128POPC   C4A55062   7.244  44.394   7.259
 4128POPC   C1B55063   7.372  44.960   6.250
 4128POPC   C2B55064   7.170  44.951   6.638
 4128POPC   C3B55065   7.237  44.906   7.069
 4128POPC   C4B55066   7.012   0.087   7.412
 4129POPC   NC355067   3.680   4.885   5.499
 4129POPC   PO455068   3.267   5.425   5.359
 4129POPC   GL155069   3.499   5.313   5.794
 4129POPC   GL255070   3.776   5.075   5.973
 4129POPC   C1A55071   3.335   5.126   6.193
 4129POPC   D2A55072   3.549   4.986   6.579
 4129POPC   C3A55073   3.385   5.163   6.943
 4129POPC   C4A55074   3.141   5.058   7.288
 4129POPC   C1B55075   3.755   5.402   6.294
 4129POPC   C2B55076   3.933   5.402   6.684
 4129POPC   C3B55077   3.892   5.120   7.017
 4129POPC   C4B55078   3.643   5.231   7.370
 4130POPC   NC355079  19.991  10.734   5.455
 4130POPC   PO455080  20.237  10.215   5.334
 4130POPC   GL155081  20.046  10.358   5.818
 4130POPC   GL255082  19.910  10.687   5.940
 4130POPC   C1A55083  19.947  10.380   6.317
 4130POPC   D2A55084  19.842  10.145   6.682
 4130POPC   C3A55085  19.976  10.344   7.073
 4130POPC   C4A55086  20.216  10.369   7.484
 4130POPC   C1B55087  19.551  10.682   6.215
 4130POPC   C2B55088  19.614  10.621   6.654
 4130POPC   C3B55089  19.582  10.702   7.117
 4130POPC   C4B55090  19.881  10.755   7.467
 4131POPC   NC355091  20.177   7.045   4.994
 4131POPC   PO455092  19.780   7.461   5.438
 4131POPC   GL155093  19.881   7.457   5.845
 4131POPC   GL255094  20.198   7.637   5.851
 4131POPC   C1A55095  19.862   7.143   6.179
 4131POPC   D2A55096  19.649   7.195   6.571
 4131POPC   C3A55097  19.858   7.296   6.980
 4131POPC   C4A55098  19.879   7.222   7.470
 4131POPC   C1B55099  20.065   7.610   6.294
 4131POPC   C2B55100  20.181   7.700   6.699
 4131POPC   C3B55101  20.379   7.816   7.049
 4131POPC   C4B55102  20.099   7.640   7.316
 4132POPC   NC355103  29.763  44.292   5.214
 4132POPC   PO455104  29.770  44.951   5.157
 4132POPC   GL155105  29.784  44.674   5.569
 4132POPC   GL255106  29.482  44.477   5.669
 4132POPC   C1A55107  30.002  44.627   6.018
 4132POPC   D2A55108  30.072  44.449   6.465
 4132POPC   C3A55109  30.229  44.501   6.909
 4132POPC   C4A55110  30.029  44.628   7.286
 4132POPC   C1B55111  29.520  44.811   5.986
 4132POPC   C2B55112  29.708  44.803   6.420
 4132POPC   C3B55113  29.717  44.774   6.885
 4132POPC   C4B55114  29.454  44.809   7.281
 4133POPC   NC355115  39.339  44.681   5.242
 4133POPC   PO455116  38.835  44.364   5.398
 4133POPC   GL155117  39.049  44.636   5.726
 4133POPC   GL255118  39.388  44.576   5.787
 4133POPC   C1A55119  39.066  44.715   6.189
 4133POPC   D2A55120  38.893  44.525   6.579
 4133POPC   C3A55121  38.990  44.670   7.026
 4133POPC   C4A55122  39.078  44.687   7.502
 4133POPC   C1B55123  39.583  44.697   6.173
 4133POPC   C2B55124  39.410  44.772   6.599
 4133POPC   C3B55125  39.499  44.580   7.010
 4133POPC   C4B55126  39.619  44.251   7.298
 4134POPC   NC355127  14.723  41.080   5.393
 4134POPC   PO455128  14.056  40.723   5.395
 4134POPC   GL155129  14.278  40.764   5.780
 4134POPC   GL255130  14.627  40.875   5.855
 4134POPC   C1A55131  14.242  40.553   6.179
 4134POPC   D2A55132  14.230  40.604   6.618
 4134POPC   C3A55133  14.576  40.696   6.892
 4134POPC   C4A55134  14.473  40.612   7.318
 4134POPC   C1B55135  14.386  41.061   6.192
 4134POPC   C2B55136  14.434  41.315   6.566
 4134POPC   C3B55137  14.565  41.293   6.958
 4134POPC   C4B55138  14.525  41.106   7.334
 4135POPC   NC355139   2.112  22.805   5.241
 4135POPC   PO455140   1.480  23.004   5.355
 4135POPC   GL155141   1.720  22.994   5.714
 4135POPC   GL255142   2.075  23.021   5.700
 4135POPC   C1A55143   1.816  22.982   6.166
 4135POPC   D2A55144   1.805  22.757   6.569
 4135POPC   C3A55145   1.890  23.038   6.914
 4135POPC   C4A55146   1.792  22.998   7.337
 4135POPC   C1B55147   2.323  23.134   6.059
 4135POPC   C2B55148   2.338  23.203   6.487
 4135POPC   C3B55149   2.397  23.210   6.910
 4135POPC   C4B55150   2.139  23.388   7.233
 4136POPC   NC355151  19.293  28.318   5.377
 4136POPC   PO455152  18.864  28.777   5.298
 4136POPC   GL155153  18.862  28.538   5.695
 4136POPC   GL255154  18.979  28.170   5.759
 4136POPC   C1A55155  19.094  28.554   6.085
 4136POPC   D2A55156  19.217  28.442   6.494
 4136POPC   C3A55157  19.023  28.633   6.855
 4136POPC   C4A55158  19.045  28.513   7.259
 4136POPC   C1B55159  19.242  28.028   6.134
 4136POPC   C2B55160  19.100  27.940   6.564
 4136POPC   C3B55161  19.163  28.101   6.973
 4136POPC   C4B55162  18.955  28.012   7.373
 4137POPC   NC355163  43.248  16.578   5.299
 4137POPC   PO455164  42.939  17.184   5.281
 4137POPC   GL155165  42.922  16.991   5.737
 4137POPC   GL255166  42.780  17.238   5.969
 4137POPC   C1A55167  42.986  16.805   6.181
 4137POPC   D2A55168  43.285  16.876   6.591
 4137POPC   C3A55169  43.131  16.749   7.038
 4137POPC   C4A55170  42.809  16.510   7.268
 4137POPC   C1B55171  43.073  17.290   6.320
 4137POPC   C2B55172  43.336  17.364   6.678
 4137POPC   C3B55173  43.316  17.228   7.093
 4137POPC   C4B55174  43.045  17.330   7.419
 4138POPC   NC355175  35.526   1.888   5.491
 4138POPC   PO455176  34.833   1.873   5.403
 4138POPC   GL155177  35.065   1.883   5.780
 4138POPC   GL255178  35.217   1.558   5.729
 4138POPC   C1A55179  35.231   2.164   6.124
 4138POPC   D2A55180  35.073   2.304   6.524
 4138POPC   C3A55181  35.142   2.091   6.923
 4138POPC   C4A55182  35.344   2.231   7.289
 4138POPC   C1B55183  35.413   1.680   6.138
 4138POPC   C2B55184  35.467   1.910   6.537
 4138POPC   C3B55185  35.649   1.963   6.957
 4138POPC   C4B55186  35.580   1.789   7.360
 4139POPC   NC355187  33.273  31.827   5.523
 4139POPC   PO455188  32.611  31.795   5.431
 4139POPC   GL155189  32.859  31.731   5.792
 4139POPC   GL255190  33.010  31.416   5.733
 4139POPC   C1A55191  32.919  31.921   6.184
 4139POPC   D2A55192  32.864  31.985   6.631
 4139POPC   C3A55193  33.131  31.721   6.866
 4139POPC   C4A55194  33.064  31.603   7.314
 4139POPC   C1B55195  32.997  31.378   6.161
 4139POPC   C2B55196  33.133  31.189   6.537
 4139POPC   C3B55197  33.048  31.234   6.966
 4139POPC   C4B55198  33.044  31.091   7.409
 4140POPC   NC355199  31.528  41.377   5.495
 4140POPC   PO455200  31.061  41.870   5.423
 4140POPC   GL155201  31.471  41.858   5.613
 4140POPC   GL255202  31.359  41.639   5.910
 4140POPC   C1A55203  31.808  41.857   5.975
 4140POPC   D2A55204  31.709  41.530   6.340
 4140POPC   C3A55205  31.493  41.689   6.760
 4140POPC   C4A55206  31.537  41.572   7.198
 4140POPC   C1B55207  31.189  41.569   6.340
 4140POPC   C2B55208  31.189  41.274   6.708
 4140POPC   C3B55209  31.115  41.070   7.106
 4140POPC   C4B55210  31.293  41.209   7.499
 4141POPC   NC355211  34.748  12.624   5.590
 4141POPC   PO455212  34.917  11.964   5.422
 4141POPC   GL155213  34.952  11.826   5.854
 4141POPC   GL255214  34.849  12.159   5.914
 4141POPC   C1A55215  34.840  11.661   6.289
 4141POPC   D2A55216  34.783  11.600   6.753
 4141POPC   C3A55217  34.560  11.856   7.069
 4141POPC   C4A55218  34.265  12.120   7.331
 4141POPC   C1B55219  34.721  12.158   6.355
 4141POPC   C2B55220  34.856  12.322   6.756
 4141POPC   C3B55221  34.732  12.327   7.198
 4141POPC   C4B55222  34.741  12.565   7.586
 4142POPC   NC355223  13.602  25.544   5.378
 4142POPC   PO455224  13.931  24.970   5.286
 4142POPC   GL155225  13.788  25.168   5.705
 4142POPC   GL255226  13.429  25.283   5.772
 4142POPC   C1A55227  13.719  25.213   6.182
 4142POPC   D2A55228  13.796  25.082   6.608
 4142POPC   C3A55229  13.688  25.264   7.014
 4142POPC   C4A55230  13.671  25.115   7.413
 4142POPC   C1B55231  13.271  25.640   6.046
 4142POPC   C2B55232  13.161  25.654   6.515
 4142POPC   C3B55233  13.294  25.740   6.956
 4142POPC   C4B55234  13.299  25.439   7.300
 4143POPC   NC355235   7.171  29.969   5.480
 4143POPC   PO455236   6.608  30.251   5.188
 4143POPC   GL155237   6.683  30.098   5.655
 4143POPC   GL255238   6.596  29.731   5.744
 4143POPC   C1A55239   6.643  30.084   6.133
 4143POPC   D2A55240   6.526  29.827   6.488
 4143POPC   C3A55241   6.708  29.822   6.895
 4143POPC   C4A55242   6.708  30.187   7.112
 4143POPC   C1B55243   6.892  29.625   6.103
 4143POPC   C2B55244   6.980  29.540   6.544
 4143POPC   C3B55245   7.154  29.581   6.956
 4143POPC   C4B55246   7.049  29.846   7.333
 4144POPC   NC355247  29.731  18.765   5.388
 4144POPC   PO455248  29.889  19.345   5.388
 4144POPC   GL155249  29.932  19.048   5.773
 4144POPC   GL255250  29.625  18.929   5.850
 4144POPC   C1A55251  29.950  19.043   6.232
 4144POPC   D2A55252  30.046  18.875   6.607
 4144POPC   C3A55253  29.971  19.054   6.957
 4144POPC   C4A55254  30.040  18.914   7.369
 4144POPC   C1B55255  29.459  19.151   6.169
 4144POPC   C2B55256  29.493  18.973   6.532
 4144POPC   C3B55257  29.607  18.699   6.797
 4144POPC   C4B55258  29.561  18.858   7.222
 4145POPC   NC355259  14.387  18.084   5.481
 4145POPC   PO455260  14.653  18.706   5.334
 4145POPC   GL155261  14.553  18.512   5.702
 4145POPC   GL255262  14.763  18.230   5.780
 4145POPC   C1A55263  14.340  18.374   6.077
 4145POPC   D2A55264  14.491  18.298   6.494
 4145POPC   C3A55265  14.298  18.461   6.833
 4145POPC   C4A55266  14.174  18.172   7.119
 4145POPC   C1B55267  14.708  17.984   6.143
 4145POPC   C2B55268  14.649  17.803   6.547
 4145POPC   C3B55269  14.660  17.965   6.959
 4145POPC   C4B55270  14.963  17.829   7.286
 4146POPC   NC355271  15.741  30.553   5.434
 4146POPC   PO455272  16.267  31.014   5.359
 4146POPC   GL155273  16.004  30.878   5.767
 4146POPC   GL255274  15.896  30.493   5.911
 4146POPC   C1A55275  16.136  30.813   6.193
 4146POPC   D2A55276  15.970  30.636   6.558
 4146POPC   C3A55277  16.073  30.789   6.950
 4146POPC   C4A55278  15.771  30.958   7.273
 4146POPC   C1B55279  16.228  30.318   6.184
 4146POPC   C2B55280  16.278  30.222   6.627
 4146POPC   C3B55281  16.267  30.325   7.079
 4146POPC   C4B55282  16.160  30.323   7.541
 4147POPC   NC355283  17.032  43.292   5.368
 4147POPC   PO455284  16.369  42.916   5.435
 4147POPC   GL155285  16.539  43.107   5.815
 4147POPC   GL255286  16.886  43.015   5.803
 4147POPC   C1A55287  16.737  43.403   6.123
 4147POPC   D2A55288  16.917  43.396   6.525
 4147POPC   C3A55289  16.702  43.317   6.912
 4147POPC   C4A55290  16.490  43.228   7.283
 4147POPC   C1B55291  16.889  42.934   6.247
 4147POPC   C2B55292  16.842  42.900   6.684
 4147POPC   C3B55293  16.922  42.906   7.159
 4147POPC   C4B55294  17.057  42.740   7.601
 4148POPC   NC355295  27.877   8.626   5.504
 4148POPC   PO455296  27.365   8.061   5.538
 4148POPC   GL155297  27.570   8.307   5.807
 4148POPC   GL255298  27.742   7.989   5.887
 4148POPC   C1A55299  27.686   8.395   6.222
 4148POPC   D2A55300  27.588   8.254   6.619
 4148POPC   C3A55301  27.737   8.393   7.012
 4148POPC   C4A55302  27.420   8.533   7.268
 4148POPC   C1B55303  27.629   7.884   6.260
 4148POPC   C2B55304  27.531   7.726   6.623
 4148POPC   C3B55305  27.560   7.887   6.978
 4148POPC   C4B55306  27.551   8.016   7.354
 4149POPC   NC355307  36.440  24.650   5.556
 4149POPC   PO455308  35.958  24.202   5.471
 4149POPC   GL155309  36.060  24.410   5.800
 4149POPC   GL255310  35.767  24.647   5.756
 4149POPC   C1A55311  36.307  24.334   6.176
 4149POPC   D2A55312  36.342  24.149   6.590
 4149POPC   C3A55313  36.301  24.386   6.986
 4149POPC   C4A55314  36.443  24.400   7.396
 4149POPC   C1B55315  35.701  24.378   6.138
 4149POPC   C2B55316  35.762  24.310   6.577
 4149POPC   C3B55317  35.773  24.451   7.012
 4149POPC   C4B55318  35.980  24.581   7.393
 4150POPC   NC355319  39.153  10.828   5.241
 4150POPC   PO455320  39.579  10.434   5.566
 4150POPC   GL155321  39.357  10.632   5.904
 4150POPC   GL255322  39.015  10.540   5.867
 4150POPC   C1A55323  39.155  10.783   6.302
 4150POPC   D2A55324  39.294  10.996   6.676
 4150POPC   C3A55325  39.178  10.742   7.028
 4150POPC   C4A55326  39.327  10.422   7.291
 4150POPC   C1B55327  39.162  10.283   6.239
 4150POPC   C2B55328  39.139  10.284   6.701
 4150POPC   C3B55329  39.347  10.006   6.997
 4150POPC   C4B55330  39.494   9.964   7.443
 4151POPC   NC355331  21.115  23.783   5.473
 4151POPC   PO455332  21.683  23.425   5.376
 4151POPC   GL155333  21.533  23.272   5.772
 4151POPC   GL255334  21.339  23.526   5.856
 4151POPC   C1A55335  21.699  23.342   6.188
 4151POPC   D2A55336  21.800  23.497   6.586
 4151POPC   C3A55337  21.515  23.589   6.919
 4151POPC   C4A55338  21.465  23.940   7.209
 4151POPC   C1B55339  21.034  23.379   6.148
 4151POPC   C2B55340  20.905  23.481   6.572
 4151POPC   C3B55341  21.038  23.340   6.949
 4151POPC   C4B55342  21.156  23.528   7.311
 4152POPC   NC355343   3.118  20.951   5.525
 4152POPC   PO455344   2.713  21.541   5.253
 4152POPC   GL155345   2.930  21.627   5.688
 4152POPC   GL255346   3.077  21.334   5.878
 4152POPC   C1A55347   2.892  21.811   6.143
 4152POPC   D2A55348   2.810  21.875   6.623
 4152POPC   C3A55349   2.655  21.522   6.914
 4152POPC   C4A55350   2.435  21.151   7.107
 4152POPC   C1B55351   3.018  21.099   6.310
 4152POPC   C2B55352   2.853  21.037   6.771
 4152POPC   C3B55353   2.897  20.929   7.223
 4152POPC   C4B55354   3.114  21.054   7.619
 4153POPC   NC355355  41.856  25.100   5.408
 4153POPC   PO455356  41.297  25.460   5.607
 4153POPC   GL155357  41.512  25.147   5.835
 4153POPC   GL255358  41.783  25.380   5.836
 4153POPC   C1A55359  41.337  25.005   6.252
 4153POPC   D2A55360  41.253  25.315   6.600
 4153POPC   C3A55361  41.447  25.170   6.930
 4153POPC   C4A55362  41.325  25.012   7.290
 4153POPC   C1B55363  41.637  25.402   6.273
 4153POPC   C2B55364  41.762  25.522   6.677
 4153POPC   C3B55365  41.809  25.453   7.128
 4153POPC   C4B55366  41.472  25.520   7.413
 4154POPC   NC355367  29.394  31.500   5.181
 4154POPC   PO455368  28.780  31.285   5.466
 4154POPC   GL155369  29.093  31.319   5.768
 4154POPC   GL255370  29.237  31.589   5.662
 4154POPC   C1A55371  29.171  31.241   6.178
 4154POPC   D2A55372  29.009  31.117   6.555
 4154POPC   C3A55373  29.090  31.261   6.942
 4154POPC   C4A55374  28.960  31.538   7.243
 4154POPC   C1B55375  29.236  31.729   6.098
 4154POPC   C2B55376  29.133  31.624   6.541
 4154POPC   C3B55377  29.341  31.718   6.938
 4154POPC   C4B55378  29.224  31.956   7.310
 4155POPC   NC355379   4.666  11.532   5.487
 4155POPC   PO455380   5.024  10.964   5.175
 4155POPC   GL155381   5.059  11.209   5.579
 4155POPC   GL255382   5.184  11.500   5.613
 4155POPC   C1A55383   4.983  11.286   6.047
 4155POPC   D2A55384   4.826  11.198   6.465
 4155POPC   C3A55385   4.948  11.457   6.835
 4155POPC   C4A55386   4.961  11.152   7.172
 4155POPC   C1B55387   5.475  11.411   5.945
 4155POPC   C2B55388   5.378  11.300   6.382
 4155POPC   C3B55389   5.423  11.246   6.823
 4155POPC   C4B55390   5.347  11.478   7.214
 4156POPC   NC355391  32.983   1.821   5.420
 4156POPC   PO455392  33.258   2.379   5.400
 4156POPC   GL155393  33.301   2.076   5.779
 4156POPC   GL255394  33.379   1.678   5.731
 4156POPC   C1A55395  33.029   2.205   6.181
 4156POPC   D2A55396  32.692   2.144   6.515
 4156POPC   C3A55397  32.880   2.133   6.938
 4156POPC   C4A55398  33.236   2.402   7.121
 4156POPC   C1B55399  33.140   1.709   6.134
 4156POPC   C2B55400  33.244   1.907   6.574
 4156POPC   C3B55401  33.308   1.870   7.041
 4156POPC   C4B55402  32.978   1.677   7.239
 4157POPC   NC355403  42.779  43.671   5.288
 4157POPC   PO455404  43.411  43.445   5.424
 4157POPC   GL155405  43.084  43.625   5.724
 4157POPC   GL255406  42.866  43.920   5.741
 4157POPC   C1A55407  43.037  43.551   6.164
 4157POPC   D2A55408  43.275  43.496   6.564
 4157POPC   C3A55409  43.045  43.560   6.934
 4157POPC   C4A55410  42.854  43.563   7.316
 4157POPC   C1B55411  42.788  44.046   6.175
 4157POPC   C2B55412  43.033  43.935   6.528
 4157POPC   C3B55413  43.163  44.064   6.910
 4157POPC   C4B55414  42.843  44.085   7.192
 4158POPC   NC355415  36.664  31.164   5.415
 4158POPC   PO455416  36.862  31.770   5.238
 4158POPC   GL155417  36.694  31.588   5.708
 4158POPC   GL255418  36.877  31.261   5.873
 4158POPC   C1A55419  36.739  31.654   6.209
 4158POPC   D2A55420  37.090  31.682   6.543
 4158POPC   C3A55421  37.017  31.551   6.975
 4158POPC   C4A55422  36.660  31.391   7.222
 4158POPC   C1B55423  36.910  31.173   6.338
 4158POPC   C2B55424  36.821  31.099   6.781
 4158POPC   C3B55425  37.036  31.058   7.178
 4158POPC   C4B55426  36.887  31.054   7.644
 4159POPC   NC355427  21.583  28.880   5.210
 4159POPC   PO455428  21.306  29.517   5.420
 4159POPC   GL155429  21.162  29.217   5.702
 4159POPC   GL255430  21.148  28.888   5.518
 4159POPC   C1A55431  21.342  29.129   6.108
 4159POPC   D2A55432  21.444  29.135   6.545
 4159POPC   C3A55433  21.179  29.215   6.893
 4159POPC   C4A55434  21.406  29.231   7.281
 4159POPC   C1B55435  21.035  28.768   5.935
 4159POPC   C2B55436  21.079  28.788   6.374
 4159POPC   C3B55437  21.025  28.709   6.784
 4159POPC   C4B55438  21.082  28.810   7.199
 4160POPC   NC355439   7.437  34.558   5.275
 4160POPC   PO455440   7.027  34.891   5.712
 4160POPC   GL155441   7.409  34.616   5.788
 4160POPC   GL255442   7.766  34.752   5.703
 4160POPC   C1A55443   7.312  34.436   6.195
 4160POPC   D2A55444   7.001  34.544   6.525
 4160POPC   C3A55445   7.279  34.522   6.845
 4160POPC   C4A55446   7.363  34.568   7.243
 4160POPC   C1B55447   7.595  34.947   6.117
 4160POPC   C2B55448   7.362  34.915   6.496
 4160POPC   C3B55449   7.361  35.046   6.933
 4160POPC   C4B55450   7.727  34.903   7.156
 4161POPC   NC355451  18.491  11.576   5.385
 4161POPC   PO455452  17.912  11.915   5.255
 4161POPC   GL155453  17.965  11.937   5.740
 4161POPC   GL255454  18.232  12.125   5.900
 4161POPC   C1A55455  17.955  11.848   6.223
 4161POPC   D2A55456  18.151  12.036   6.603
 4161POPC   C3A55457  18.014  12.012   7.059
 4161POPC   C4A55458  18.329  11.959   7.415
 4161POPC   C1B55459  18.500  12.259   6.203
 4161POPC   C2B55460  18.519  12.414   6.601
 4161POPC   C3B55461  18.494  12.224   6.986
 4161POPC   C4B55462  18.713  12.283   7.383
 4162POPC   NC355463  22.184  22.293   5.268
 4162POPC   PO455464  22.681  21.883   5.545
 4162POPC   GL155465  22.285  22.099   5.737
 4162POPC   GL255466  22.249  22.473   5.727
 4162POPC   C1A55467  21.952  22.095   6.087
 4162POPC   D2A55468  22.035  22.155   6.539
 4162POPC   C3A55469  21.900  22.043   6.953
 4162POPC   C4A55470  22.258  22.066   7.224
 4162POPC   C1B55471  22.294  22.468   6.151
 4162POPC   C2B55472  22.218  22.615   6.529
 4162POPC   C3B55473  22.255  22.479   6.929
 4162POPC   C4B55474  22.448  22.594   7.299
 4163POPC   NC355475  44.364  36.284   4.998
 4163POPC   PO455476  44.896  36.160   5.441
 4163POPC   GL155477  44.584  36.042   5.832
 4163POPC   GL255478  44.539  35.727   5.986
 4163POPC   C1A55479  44.556  36.285   6.205
 4163POPC   D2A55480  44.805  36.307   6.579
 4163POPC   C3A55481  44.581  36.056   6.889
 4163POPC   C4A55482  44.601  35.881   7.298
 4163POPC   C1B55483  44.921  35.888   6.190
 4163POPC   C2B55484  44.950  35.809   6.622
 4163POPC   C3B55485   0.002  35.635   7.024
 4163POPC   C4B55486   0.097  35.844   7.397
 4164POPC   NC355487  33.662  32.638   5.665
 4164POPC   PO455488  33.948  32.158   5.207
 4164POPC   GL155489  34.052  32.195   5.667
 4164POPC   GL255490  34.156  32.535   5.774
 4164POPC   C1A55491  33.953  32.145   6.136
 4164POPC   D2A55492  33.731  32.250   6.548
 4164POPC   C3A55493  33.883  32.098   6.992
 4164POPC   C4A55494  33.725  32.155   7.467
 4164POPC   C1B55495  34.149  32.714   6.200
 4164POPC   C2B55496  33.987  32.718   6.609
 4164POPC   C3B55497  33.705  32.587   6.939
 4164POPC   C4B55498  33.965  32.531   7.273
 4165POPC   NC355499  38.120   0.624   5.584
 4165POPC   PO455500  37.745   0.277   5.114
 4165POPC   GL155501  37.743   0.240   5.621
 4165POPC   GL255502  37.437   0.408   5.755
 4165POPC   C1A55503  37.781   0.329   6.121
 4165POPC   D2A55504  37.875   0.565   6.539
 4165POPC   C3A55505  37.718   0.346   6.882
 4165POPC   C4A55506  37.759   0.135   7.269
 4165POPC   C1B55507  37.306   0.608   6.178
 4165POPC   C2B55508  37.286   0.591   6.656
 4165POPC   C3B55509  37.142   0.769   7.041
 4165POPC   C4B55510  37.203   0.949   7.425
 4166POPC   NC355511  44.006  35.423   5.444
 4166POPC   PO455512  43.715  34.821   5.341
 4166POPC   GL155513  43.755  35.038   5.786
 4166POPC   GL255514  43.694  35.395   5.846
 4166POPC   C1A55515  43.598  35.102   6.238
 4166POPC   D2A55516  43.591  35.444   6.560
 4166POPC   C3A55517  43.778  35.349   6.942
 4166POPC   C4A55518  43.907  34.954   7.145
 4166POPC   C1B55519  44.000  35.472   6.172
 4166POPC   C2B55520  44.254  35.605   6.544
 4166POPC   C3B55521  44.190  35.718   7.000
 4166POPC   C4B55522  43.930  35.609   7.347
 4167POPC   NC355523   7.429   4.735   5.224
 4167POPC   PO455524   7.263   5.425   5.357
 4167POPC   GL155525   7.361   5.187   5.714
 4167POPC   GL255526   7.494   4.842   5.726
 4167POPC   C1A55527   7.293   5.200   6.146
 4167POPC   D2A55528   7.490   5.352   6.519
 4167POPC   C3A55529   7.296   5.408   6.917
 4167POPC   C4A55530   7.093   5.168   7.223
 4167POPC   C1B55531   7.443   4.710   6.157
 4167POPC   C2B55532   7.624   4.813   6.554
 4167POPC   C3B55533   7.410   4.890   6.910
 4167POPC   C4B55534   7.438   4.811   7.325
 4168POPC   NC355535  24.856  24.708   5.263
 4168POPC   PO455536  25.477  24.390   5.500
 4168POPC   GL155537  25.270  24.515   5.837
 4168POPC   GL255538  25.090  24.214   5.836
 4168POPC   C1A55539  25.377  24.727   6.238
 4168POPC   D2A55540  25.145  24.841   6.603
 4168POPC   C3A55541  25.358  24.728   6.963
 4168POPC   C4A55542  25.044  24.509   7.172
 4168POPC   C1B55543  25.357  24.163   6.192
 4168POPC   C2B55544  25.368  24.348   6.596
 4168POPC   C3B55545  25.408  24.202   6.995
 4168POPC   C4B55546  25.391  24.001   7.360
 4169POPC   NC355547  43.933  39.892   5.163
 4169POPC   PO455548  44.121  40.449   5.388
 4169POPC   GL155549  44.125  40.127   5.697
 4169POPC   GL255550  43.796  40.036   5.701
 4169POPC   C1A55551  44.090  39.906   6.113
 4169POPC   D2A55552  44.298  39.796   6.506
 4169POPC   C3A55553  44.141  40.049   6.848
 4169POPC   C4A55554  44.165  39.982   7.270
 4169POPC   C1B55555  43.610  40.171   6.077
 4169POPC   C2B55556  43.752  40.204   6.492
 4169POPC   C3B55557  43.595  40.130   6.889
 4169POPC   C4B55558  43.707  40.185   7.307
 4170POPC   NC355559  19.612  36.768   5.137
 4170POPC   PO455560  18.951  36.958   5.362
 4170POPC   GL155561  18.946  36.988   5.762
 4170POPC   GL255562  19.267  36.922   5.805
 4170POPC   C1A55563  18.758  36.832   6.107
 4170POPC   D2A55564  18.771  36.939   6.536
 4170POPC   C3A55565  19.075  36.781   6.807
 4170POPC   C4A55566  18.896  36.753   7.205
 4170POPC   C1B55567  19.262  36.832   6.243
 4170POPC   C2B55568  19.480  37.026   6.574
 4170POPC   C3B55569  19.535  37.316   6.890
 4170POPC   C4B55570  19.308  37.083   7.200
 4171POPC   NC355571   0.224   2.762   5.217
 4171POPC   PO455572   0.756   2.961   5.400
 4171POPC   GL155573   0.369   3.041   5.667
 4171POPC   GL255574   0.610   3.059   5.908
 4171POPC   C1A55575   0.144   3.007   6.107
 4171POPC   D2A55576   0.140   2.770   6.528
 4171POPC   C3A55577   0.106   2.947   6.970
 4171POPC   C4A55578   0.328   2.850   7.355
 4171POPC   C1B55579   0.672   2.986   6.343
 4171POPC   C2B55580   0.567   2.986   6.760
 4171POPC   C3B55581   0.766   2.864   7.124
 4171POPC   C4B55582   0.807   3.035   7.507
 4172POPC   NC355583   0.122  14.896   5.448
 4172POPC   PO455584  44.521  15.231   5.319
 4172POPC   GL155585  44.581  14.964   5.658
 4172POPC   GL255586  44.850  15.156   5.793
 4172POPC   C1A55587  44.589  14.846   6.127
 4172POPC   D2A55588  44.816  14.769   6.569
 4172POPC   C3A55589  44.635  14.869   7.021
 4172POPC   C4A55590  44.562  14.852   7.522
 4172POPC   C1B55591   0.012  15.112   6.219
 4172POPC   C2B55592   0.199  15.126   6.631
 4172POPC   C3B55593   0.130  15.246   7.049
 4172POPC   C4B55594  44.753  15.283   7.299
 4173POPC   NC355595  42.908  36.652   5.529
 4173POPC   PO455596  43.340  37.206   5.414
 4173POPC   GL155597  43.205  36.982   5.815
 4173POPC   GL255598  42.891  36.864   6.020
 4173POPC   C1A55599  43.358  36.662   6.097
 4173POPC   D2A55600  43.176  36.505   6.475
 4173POPC   C3A55601  43.288  36.788   6.806
 4173POPC   C4A55602  43.436  36.866   7.228
 4173POPC   C1B55603  43.087  37.087   6.347
 4173POPC   C2B55604  43.008  37.212   6.760
 4173POPC   C3B55605  42.933  36.973   7.145
 4173POPC   C4B55606  42.810  36.785   7.523
 4174POPC   NC355607  43.730  37.863   5.219
 4174POPC   PO455608  44.149  37.412   5.353
 4174POPC   GL155609  43.945  37.662   5.678
 4174POPC   GL255610  43.599  37.606   5.659
 4174POPC   C1A55611  43.905  37.614   6.145
 4174POPC   D2A55612  43.997  37.384   6.541
 4174POPC   C3A55613  44.193  37.581   6.901
 4174POPC   C4A55614  44.004  37.739   7.266
 4174POPC   C1B55615  43.481  37.894   6.003
 4174POPC   C2B55616  43.494  37.934   6.470
 4174POPC   C3B55617  43.596  37.864   6.930
 4174POPC   C4B55618  43.673  38.131   7.324
 4175POPC   NC355619  32.627  31.123   5.588
 4175POPC   PO455620  32.792  30.464   5.488
 4175POPC   GL155621  32.589  30.633   5.862
 4175POPC   GL255622  32.297  30.834   5.818
 4175POPC   C1A55623  32.428  30.623   6.310
 4175POPC   D2A55624  32.167  30.897   6.598
 4175POPC   C3A55625  32.149  30.782   7.009
 4175POPC   C4A55626  32.485  30.537   7.111
 4175POPC   C1B55627  32.472  31.099   6.204
 4175POPC   C2B55628  32.664  30.992   6.622
 4175POPC   C3B55629  32.564  31.077   7.037
 4175POPC   C4B55630  32.423  30.952   7.443
 4176POPC   NC355631  28.149  33.496   5.537
 4176POPC   PO455632  28.546  34.039   5.331
 4176POPC   GL155633  28.427  33.948   5.802
 4176POPC   GL255634  28.170  34.201   5.934
 4176POPC   C1A55635  28.452  33.932   6.289
 4176POPC   D2A55636  28.441  34.062   6.752
 4176POPC   C3A55637  28.320  33.760   7.073
 4176POPC   C4A55638  28.415  33.695   7.528
 4176POPC   C1B55639  27.949  33.870   6.204
 4176POPC   C2B55640  27.998  33.819   6.634
 4176POPC   C3B55641  27.893  34.031   7.031
 4176POPC   C4B55642  28.064  34.061   7.490
 4177POPC   NC355643   3.237  21.840   5.302
 4177POPC   PO455644   3.510  21.201   5.509
 4177POPC   GL155645   3.735  21.365   5.855
 4177POPC   GL255646   3.520  21.602   5.896
 4177POPC   C1A55647   3.740  21.353   6.302
 4177POPC   D2A55648   3.654  21.669   6.614
 4177POPC   C3A55649   3.603  21.519   7.061
 4177POPC   C4A55650   3.525  21.093   7.186
 4177POPC   C1B55651   3.279  21.538   6.300
 4177POPC   C2B55652   3.293  21.313   6.699
 4177POPC   C3B55653   3.111  21.374   7.091
 4177POPC   C4B55654   3.212  21.552   7.472
 4178POPC   NC355655  21.369  20.756   5.469
 4178POPC   PO455656  20.965  20.292   5.704
 4178POPC   GL155657  21.353  20.476   5.884
 4178POPC   GL255658  21.600  20.262   5.933
 4178POPC   C1A55659  21.550  20.743   6.235
 4178POPC   D2A55660  21.570  21.000   6.657
 4178POPC   C3A55661  21.340  20.810   7.021
 4178POPC   C4A55662  21.328  20.419   7.208
 4178POPC   C1B55663  21.355  20.225   6.329
 4178POPC   C2B55664  21.336  20.136   6.778
 4178POPC   C3B55665  21.739  20.172   7.059
 4178POPC   C4B55666  21.796  20.589   7.275
 4179POPC   NC355667   8.264  39.502   5.442
 4179POPC   PO455668   7.902  39.040   5.711
 4179POPC   GL155669   8.146  39.332   5.943
 4179POPC   GL255670   8.067  39.676   5.881
 4179POPC   C1A55671   8.141  39.324   6.389
 4179POPC   D2A55672   8.166  38.982   6.658
 4179POPC   C3A55673   7.973  38.919   7.035
 4179POPC   C4A55674   8.171  38.998   7.401
 4179POPC   C1B55675   8.079  39.829   6.313
 4179POPC   C2B55676   7.990  39.673   6.745
 4179POPC   C3B55677   8.247  39.535   7.076
 4179POPC   C4B55678   8.283  39.493   7.520
 4180POPC   NC355679  23.769  37.446   5.177
 4180POPC   PO455680  23.752  38.032   5.553
 4180POPC   GL155681  23.951  37.887   5.872
 4180POPC   GL255682  23.657  37.659   5.945
 4180POPC   C1A55683  23.862  37.977   6.294
 4180POPC   D2A55684  23.891  37.806   6.685
 4180POPC   C3A55685  23.644  37.954   7.009
 4180POPC   C4A55686  23.708  37.856   7.420
 4180POPC   C1B55687  23.426  37.705   6.356
 4180POPC   C2B55688  23.348  37.444   6.729
 4180POPC   C3B55689  23.473  37.416   7.184
 4180POPC   C4B55690  23.426  37.426   7.641
 4181POPC   NC355691  33.316  27.095   5.436
 4181POPC   PO455692  32.938  26.694   5.380
 4181POPC   GL155693  33.200  26.744   5.799
 4181POPC   GL255694  32.952  26.711   6.088
 4181POPC   C1A55695  33.412  26.850   6.236
 4181POPC   D2A55696  33.386  27.084   6.648
 4181POPC   C3A55697  33.292  26.835   7.040
 4181POPC   C4A55698  33.364  26.505   7.371
 4181POPC   C1B55699  32.997  26.743   6.577
 4181POPC   C2B55700  32.779  26.890   6.974
 4181POPC   C3B55701  32.504  26.983   7.329
 4181POPC   C4B55702  32.711  27.093   7.721
 4182POPC   NC355703   8.764  20.466   5.338
 4182POPC   PO455704   9.435  20.653   5.301
 4182POPC   GL155705   9.091  20.681   5.695
 4182POPC   GL255706   8.751  20.551   5.824
 4182POPC   C1A55707   9.014  20.768   6.188
 4182POPC   D2A55708   8.859  21.138   6.458
 4182POPC   C3A55709   8.900  21.026   6.887
 4182POPC   C4A55710   9.068  20.627   7.042
 4182POPC   C1B55711   8.549  20.545   6.230
 4182POPC   C2B55712   8.651  20.624   6.666
 4182POPC   C3B55713   8.653  20.316   6.992
 4182POPC   C4B55714   8.707  20.252   7.421
 4183POPC   NC355715  25.939  18.953   5.384
 4183POPC   PO455716  26.289  19.309   5.791
 4183POPC   GL155717  25.917  19.127   5.914
 4183POPC   GL255718  25.684  19.333   5.726
 4183POPC   C1A55719  25.855  18.881   6.332
 4183POPC   D2A55720  26.056  18.714   6.726
 4183POPC   C3A55721  26.206  19.047   7.026
 4183POPC   C4A55722  26.104  19.082   7.471
 4183POPC   C1B55723  25.654  19.440   6.215
 4183POPC   C2B55724  25.801  19.362   6.669
 4183POPC   C3B55725  25.779  19.312   7.131
 4183POPC   C4B55726  25.691  19.359   7.582
 4184POPC   NC355727   5.160  35.705   5.337
 4184POPC   PO455728   4.991  36.435   5.481
 4184POPC   GL155729   5.023  36.035   5.735
 4184POPC   GL255730   4.668  35.964   5.728
 4184POPC   C1A55731   5.142  35.901   6.192
 4184POPC   D2A55732   5.368  35.835   6.624
 4184POPC   C3A55733   5.259  36.113   6.995
 4184POPC   C4A55734   4.981  36.140   7.364
 4184POPC   C1B55735   4.753  36.262   6.105
 4184POPC   C2B55736   4.845  36.145   6.551
 4184POPC   C3B55737   4.790  36.379   6.922
 4184POPC   C4B55738   4.448  36.405   7.199
 4185POPC   NC355739  11.116   0.034   5.342
 4185POPC   PO455740  10.913  44.411   5.678
 4185POPC   GL155741  11.136  44.732   5.873
 4185POPC   GL255742  11.464  44.731   5.754
 4185POPC   C1A55743  11.390  44.707   6.266
 4185POPC   D2A55744  11.403  44.697   6.710
 4185POPC   C3A55745  11.108  44.605   6.995
 4185POPC   C4A55746  11.439  44.509   7.246
 4185POPC   C1B55747  11.762  44.994   6.038
 4185POPC   C2B55748  11.946   0.072   6.472
 4185POPC   C3B55749  11.783  44.985   6.904
 4185POPC   C4B55750  11.641   0.196   7.285
 4186POPC   NC355751  33.148  10.607   5.277
 4186POPC   PO455752  32.734  10.175   5.378
 4186POPC   GL155753  32.993  10.379   5.727
 4186POPC   GL255754  32.930  10.722   5.725
 4186POPC   C1A55755  33.169  10.525   6.155
 4186POPC   D2A55756  33.336  10.439   6.568
 4186POPC   C3A55757  33.129  10.593   6.961
 4186POPC   C4A55758  33.118  10.713   7.425
 4186POPC   C1B55759  32.750  10.834   6.112
 4186POPC   C2B55760  32.845  10.705   6.534
 4186POPC   C3B55761  32.630  10.769   6.930
 4186POPC   C4B55762  32.648  10.967   7.371
 4187POPC   NC355763  34.547  39.774   4.863
 4187POPC   PO455764  34.669  40.225   5.261
 4187POPC   GL155765  34.810  40.304   5.701
 4187POPC   GL255766  34.465  40.375   5.804
 4187POPC   C1A55767  34.794  40.289   6.191
 4187POPC   D2A55768  34.881  40.057   6.574
 4187POPC   C3A55769  34.672  40.129   6.963
 4187POPC   C4A55770  34.384  39.910   7.261
 4187POPC   C1B55771  34.290  40.263   6.250
 4187POPC   C2B55772  34.292  40.380   6.714
 4187POPC   C3B55773  34.146  40.347   7.161
 4187POPC   C4B55774  33.917  40.118   7.494
 4188POPC   NC355775  21.965   5.242   4.935
 4188POPC   PO455776  21.835   4.640   5.294
 4188POPC   GL155777  21.913   4.979   5.663
 4188POPC   GL255778  22.244   5.104   5.752
 4188POPC   C1A55779  21.892   5.247   6.096
 4188POPC   D2A55780  21.669   5.282   6.509
 4188POPC   C3A55781  21.860   5.263   6.906
 4188POPC   C4A55782  21.926   5.126   7.333
 4188POPC   C1B55783  22.427   5.198   6.176
 4188POPC   C2B55784  22.577   5.188   6.595
 4188POPC   C3B55785  22.375   5.186   6.982
 4188POPC   C4B55786  22.418   5.090   7.398
 4189POPC   NC355787  27.965  15.894   5.305
 4189POPC   PO455788  27.335  16.142   5.403
 4189POPC   GL155789  27.458  15.940   5.795
 4189POPC   GL255790  27.730  15.648   5.736
 4189POPC   C1A55791  27.456  16.124   6.247
 4189POPC   D2A55792  27.587  16.350   6.630
 4189POPC   C3A55793  27.582  16.116   7.019
 4189POPC   C4A55794  27.241  16.005   7.283
 4189POPC   C1B55795  27.575  15.632   6.184
 4189POPC   C2B55796  27.602  15.753   6.640
 4189POPC   C3B55797  27.513  15.593   7.078
 4189POPC   C4B55798  27.543  15.703   7.538
 4190POPC   NC355799  28.570  21.613   5.448
 4190POPC   PO455800  28.304  20.942   5.425
 4190POPC   GL155801  28.160  21.135   5.826
 4190POPC   GL255802  28.252  21.502   5.843
 4190POPC   C1A55803  28.087  21.248   6.280
 4190POPC   D2A55804  28.280  21.393   6.651
 4190POPC   C3A55805  28.254  21.316   7.061
 4190POPC   C4A55806  28.412  20.958   7.285
 4190POPC   C1B55807  28.505  21.516   6.204
 4190POPC   C2B55808  28.771  21.586   6.550
 4190POPC   C3B55809  28.634  21.654   6.978
 4190POPC   C4B55810  28.606  21.550   7.418
 4191POPC   NC355811  36.531  44.211   5.403
 4191POPC   PO455812  36.948  44.785   5.269
 4191POPC   GL155813  36.948  44.849   5.704
 4191POPC   GL255814  37.329  44.887   5.717
 4191POPC   C1A55815  36.701  44.900   6.126
 4191POPC   D2A55816  36.931  44.883   6.526
 4191POPC   C3A55817  36.792  44.879   6.977
 4191POPC   C4A55818  36.826  44.645   7.369
 4191POPC   C1B55819  37.178  44.633   6.112
 4191POPC   C2B55820  37.100  44.374   6.481
 4191POPC   C3B55821  37.185  44.546   6.905
 4191POPC   C4B55822  37.303  44.814   7.260
 4192POPC   NC355823   9.150  27.278   5.637
 4192POPC   PO455824   8.728  27.804   5.519
 4192POPC   GL155825   8.979  27.767   5.891
 4192POPC   GL255826   9.322  27.793   5.823
 4192POPC   C1A55827   9.108  27.501   6.259
 4192POPC   D2A55828   9.139  27.238   6.628
 4192POPC   C3A55829   8.975  27.376   7.006
 4192POPC   C4A55830   9.080  27.197   7.408
 4192POPC   C1B55831   9.320  27.954   6.277
 4192POPC   C2B55832   9.172  27.803   6.729
 4192POPC   C3B55833   9.271  27.726   7.209
 4192POPC   C4B55834   9.196  27.956   7.621
 4193POPC   NC355835   9.154  30.895   5.025
 4193POPC   PO455836   8.851  30.372   5.222
 4193POPC   GL155837   8.750  30.176   5.699
 4193POPC   GL255838   9.084  30.229   5.863
 4193POPC   C1A55839   8.547  30.226   6.174
 4193POPC   D2A55840   8.601  30.466   6.592
 4193POPC   C3A55841   8.630  30.235   7.019
 4193POPC   C4A55842   8.742  30.346   7.468
 4193POPC   C1B55843   9.017  30.427   6.288
 4193POPC   C2B55844   9.053  30.681   6.687
 4193POPC   C3B55845   9.182  30.833   7.092
 4193POPC   C4B55846   9.402  31.135   7.388
 4194POPC   NC355847  40.501  19.883   5.108
 4194POPC   PO455848  40.861  20.023   5.627
 4194POPC   GL155849  40.631  19.917   5.919
 4194POPC   GL255850  40.455  19.621   5.773
 4194POPC   C1A55851  40.861  19.915   6.289
 4194POPC   D2A55852  40.836  19.690   6.658
 4194POPC   C3A55853  40.828  19.896   7.029
 4194POPC   C4A55854  40.519  19.931   7.301
 4194POPC   C1B55855  40.589  19.499   6.207
 4194POPC   C2B55856  40.409  19.434   6.630
 4194POPC   C3B55857  40.519  19.441   7.096
 4194POPC   C4B55858  40.299  19.433   7.509
 4195POPC   NC355859  33.456  41.765   5.667
 4195POPC   PO455860  33.980  41.345   5.434
 4195POPC   GL155861  33.923  41.528   5.845
 4195POPC   GL255862  34.135  41.819   5.881
 4195POPC   C1A55863  33.971  41.589   6.312
 4195POPC   D2A55864  33.753  41.824   6.651
 4195POPC   C3A55865  33.626  41.473   6.916
 4195POPC   C4A55866  33.916  41.241   7.145
 4195POPC   C1B55867  34.089  42.062   6.264
 4195POPC   C2B55868  34.288  41.939   6.646
 4195POPC   C3B55869  34.146  41.671   6.985
 4195POPC   C4B55870  34.165  41.764   7.431
 4196POPC   NC355871  22.789  30.304   5.279
 4196POPC   PO455872  22.778  29.659   5.222
 4196POPC   GL155873  22.877  29.721   5.707
 4196POPC   GL255874  23.069  29.989   5.877
 4196POPC   C1A55875  22.625  29.721   6.118
 4196POPC   D2A55876  22.457  29.848   6.532
 4196POPC   C3A55877  22.750  29.861   6.888
 4196POPC   C4A55878  22.848  29.974   7.315
 4196POPC   C1B55879  23.254  30.293   6.193
 4196POPC   C2B55880  23.142  30.424   6.617
 4196POPC   C3B55881  23.194  30.171   6.966
 4196POPC   C4B55882  23.330  30.095   7.383
 4197POPC   NC355883  25.176  38.227   5.403
 4197POPC   PO455884  25.133  37.592   5.442
 4197POPC   GL155885  25.469  37.709   5.753
 4197POPC   GL255886  25.471  38.069   5.802
 4197POPC   C1A55887  25.518  37.764   6.209
 4197POPC   D2A55888  25.244  37.661   6.537
 4197POPC   C3A55889  25.477  37.561   6.852
 4197POPC   C4A55890  25.409  37.400   7.233
 4197POPC   C1B55891  25.057  37.946   6.037
 4197POPC   C2B55892  24.836  37.938   6.435
 4197POPC   C3B55893  24.911  37.960   6.862
 4197POPC   C4B55894  25.227  37.878   7.158
 4198POPC   NC355895  22.005  25.297   5.349
 4198POPC   PO455896  22.525  24.913   5.585
 4198POPC   GL155897  22.246  25.147   5.874
 4198POPC   GL255898  21.895  25.108   5.823
 4198POPC   C1A55899  22.073  25.191   6.317
 4198POPC   D2A55900  22.139  24.955   6.705
 4198POPC   C3A55901  21.944  25.055   7.101
 4198POPC   C4A55902  22.156  25.344   7.368
 4198POPC   C1B55903  21.803  25.492   6.015
 4198POPC   C2B55904  21.811  25.645   6.462
 4198POPC   C3B55905  21.870  25.504   6.891
 4198POPC   C4B55906  21.700  25.547   7.311
 4199POPC   NC355907  35.655   2.860   5.294
 4199POPC   PO455908  35.127   2.580   5.459
 4199POPC   GL155909  35.231   2.797   5.825
 4199POPC   GL255910  35.488   3.019   5.760
 4199POPC   C1A55911  35.318   2.690   6.247
 4199POPC   D2A55912  35.104   2.807   6.614
 4199POPC   C3A55913  35.237   2.631   6.971
 4199POPC   C4A55914  35.066   2.678   7.358
 4199POPC   C1B55915  35.622   3.118   6.165
 4199POPC   C2B55916  35.635   2.937   6.606
 4199POPC   C3B55917  35.548   3.025   7.053
 4199POPC   C4B55918  35.368   3.117   7.475
 4200POPC   NC355919  33.346  30.965   5.095
 4200POPC   PO455920  33.711  30.499   5.097
 4200POPC   GL155921  33.797  30.754   5.506
 4200POPC   GL255922  33.513  30.967   5.607
 4200POPC   C1A55923  33.830  30.750   6.004
 4200POPC   D2A55924  34.107  30.665   6.398
 4200POPC   C3A55925  34.026  30.904   6.782
 4200POPC   C4A55926  33.896  30.728   7.160
 4200POPC   C1B55927  33.408  31.053   6.072
 4200POPC   C2B55928  33.566  30.883   6.497
 4200POPC   C3B55929  33.452  30.903   6.967
 4200POPC   C4B55930  33.556  30.981   7.430
 4201POPC   NC355931  42.419  31.788   5.544
 4201POPC   PO455932  42.708  32.440   5.433
 4201POPC   GL155933  42.397  32.422   5.840
 4201POPC   GL255934  42.226  32.128   5.836
 4201POPC   C1A55935  42.124  32.329   6.269
 4201POPC   D2A55936  42.053  32.086   6.623
 4201POPC   C3A55937  42.280  32.270   6.942
 4201POPC   C4A55938  42.492  32.355   7.313
 4201POPC   C1B55939  42.575  32.105   6.163
 4201POPC   C2B55940  42.545  31.958   6.571
 4201POPC   C3B55941  42.739  32.033   6.977
 4201POPC   C4B55942  42.702  31.904   7.410
 4202POPC   NC355943  40.944  10.092   5.342
 4202POPC   PO455944  40.399   9.860   5.559
 4202POPC   GL155945  40.617   9.869   5.918
 4202POPC   GL255946  40.922   9.962   5.843
 4202POPC   C1A55947  40.701  10.116   6.299
 4202POPC   D2A55948  40.400  10.206   6.631
 4202POPC   C3A55949  40.467   9.987   7.006
 4202POPC   C4A55950  40.862  10.097   7.131
 4202POPC   C1B55951  40.931   9.658   6.259
 4202POPC   C2B55952  40.834   9.783   6.697
 4202POPC   C3B55953  40.815   9.573   7.115
 4202POPC   C4B55954  41.129   9.329   7.340
 4203POPC   NC355955   7.250  33.601   5.496
 4203POPC   PO455956   7.679  34.177   5.380
 4203POPC   GL155957   7.479  34.065   5.838
 4203POPC   GL255958   7.516  33.712   5.947
 4203POPC   C1A55959   7.135  33.908   6.205
 4203POPC   D2A55960   6.999  33.566   6.527
 4203POPC   C3A55961   7.218  33.620   6.921
 4203POPC   C4A55962   7.407  34.021   7.101
 4203POPC   C1B55963   7.771  33.513   6.280
 4203POPC   C2B55964   7.698  33.489   6.747
 4203POPC   C3B55965   7.657  33.574   7.183
 4203POPC   C4B55966   7.576  33.377   7.590
 4204POPC   NC355967  31.020  18.830   5.449
 4204POPC   PO455968  30.740  19.404   5.192
 4204POPC   GL155969  30.697  19.196   5.590
 4204POPC   GL255970  30.378  19.138   5.555
 4204POPC   C1A55971  30.825  19.023   6.026
 4204POPC   D2A55972  30.851  18.849   6.461
 4204POPC   C3A55973  30.981  19.143   6.813
 4204POPC   C4A55974  30.917  19.000   7.251
 4204POPC   C1B55975  30.368  19.231   6.004
 4204POPC   C2B55976  30.598  19.298   6.408
 4204POPC   C3B55977  30.479  19.089   6.781
 4204POPC   C4B55978  30.438  19.179   7.197
 4205POPC   NC355979   2.493  13.322   5.476
 4205POPC   PO455980   2.943  13.854   5.508
 4205POPC   GL155981   2.714  13.674   5.825
 4205POPC   GL255982   2.873  13.367   5.830
 4205POPC   C1A55983   2.552  13.721   6.246
 4205POPC   D2A55984   2.361  13.807   6.650
 4205POPC   C3A55985   2.581  13.687   7.025
 4205POPC   C4A55986   2.591  13.437   7.401
 4205POPC   C1B55987   2.742  13.243   6.220
 4205POPC   C2B55988   2.627  13.367   6.615
 4205POPC   C3B55989   2.837  13.264   6.988
 4205POPC   C4B55990   3.229  13.416   7.118
 4206POPC   NC355991  34.391   3.719   5.131
 4206POPC   PO455992  34.544   3.261   5.645
 4206POPC   GL155993  34.640   3.683   5.645
 4206POPC   GL255994  34.328   3.877   5.599
 4206POPC   C1A55995  34.817   3.741   6.045
 4206POPC   D2A55996  34.886   3.539   6.451
 4206POPC   C3A55997  34.840   3.611   6.883
 4206POPC   C4A55998  34.555   3.402   7.173
 4206POPC   C1B55999  34.302   3.817   6.040
 4206POPC   C2B56000  34.478   3.841   6.456
 4206POPC   C3B56001  34.339   3.751   6.867
 4206POPC   C4B56002  34.106   3.839   7.245
 4207POPC   NC356003  16.467   8.241   5.381
 4207POPC   PO456004  15.779   8.356   5.303
 4207POPC   GL156005  16.038   8.303   5.673
 4207POPC   GL256006  16.054   7.959   5.686
 4207POPC   C1A56007  16.133   8.306   6.127
 4207POPC   D2A56008  16.044   8.121   6.501
 4207POPC   C3A56009  16.072   8.250   6.904
 4207POPC   C4A56010  15.711   8.131   7.131
 4207POPC   C1B56011  16.066   7.771   6.092
 4207POPC   C2B56012  16.189   7.634   6.493
 4207POPC   C3B56013  16.387   7.843   6.825
 4207POPC   C4B56014  16.155   7.831   7.181
 4208POPC   NC356015  18.149  40.791   5.508
 4208POPC   PO456016  18.811  40.728   5.586
 4208POPC   GL156017  18.524  40.986   5.809
 4208POPC   GL256018  18.457  40.654   5.960
 4208POPC   C1A56019  18.223  41.081   6.144
 4208POPC   D2A56020  18.222  40.848   6.538
 4208POPC   C3A56021  17.930  40.873   6.856
 4208POPC   C4A56022  17.938  40.938   7.291
 4208POPC   C1B56023  18.133  40.477   6.203
 4208POPC   C2B56024  18.012  40.386   6.644
 4208POPC   C3B56025  18.322  40.535   6.997
 4208POPC   C4B56026  18.653  40.490   7.364
 4209POPC   NC356027  19.631  20.295   5.062
 4209POPC   PO456028  20.018  20.504   5.589
 4209POPC   GL156029  19.641  20.640   5.817
 4209POPC   GL256030  19.393  20.326   5.845
 4209POPC   C1A56031  19.723  20.932   6.199
 4209POPC   D2A56032  20.122  20.883   6.464
 4209POPC   C3A56033  20.071  20.566   6.800
 4209POPC   C4A56034  19.942  20.630   7.218
 4209POPC   C1B56035  19.581  20.435   6.270
 4209POPC   C2B56036  19.589  20.671   6.671
 4209POPC   C3B56037  19.452  20.651   7.125
 4209POPC   C4B56038  19.543  20.435   7.532
 4210POPC   NC356039  31.729  32.515   5.402
 4210POPC   PO456040  31.443  31.975   5.471
 4210POPC   GL156041  31.600  32.211   5.805
 4210POPC   GL256042  31.933  32.165   5.720
 4210POPC   C1A56043  31.406  32.232   6.214
 4210POPC   D2A56044  31.288  32.423   6.614
 4210POPC   C3A56045  31.299  32.245   7.026
 4210POPC   C4A56046  31.505  31.928   7.252
 4210POPC   C1B56047  31.989  32.299   6.152
 4210POPC   C2B56048  31.800  32.168   6.539
 4210POPC   C3B56049  31.822  32.277   6.970
 4210POPC   C4B56050  31.939  32.170   7.360
 4211POPC   NC356051   4.573  37.975   5.550
 4211POPC   PO456052   4.012  37.638   5.413
 4211POPC   GL156053   4.268  37.660   5.827
 4211POPC   GL256054   4.650  37.644   5.934
 4211POPC   C1A56055   4.278  37.820   6.261
 4211POPC   D2A56056   3.938  37.829   6.544
 4211POPC   C3A56057   4.013  37.563   6.855
 4211POPC   C4A56058   4.267  37.456   7.183
 4211POPC   C1B56059   4.455  37.322   6.163
 4211POPC   C2B56060   4.414  37.379   6.591
 4211POPC   C3B56061   4.728  37.449   6.885
 4211POPC   C4B56062   4.728  37.344   7.294
 4212POPC   NC356063  19.019  35.784   5.700
 4212POPC   PO456064  18.967  35.154   5.427
 4212POPC   GL156065  19.136  35.142   5.866
 4212POPC   GL256066  19.215  35.455   6.049
 4212POPC   C1A56067  19.095  35.064   6.348
 4212POPC   D2A56068  18.924  35.046   6.779
 4212POPC   C3A56069  19.061  35.349   7.071
 4212POPC   C4A56070  19.467  35.459   7.198
 4212POPC   C1B56071  18.943  35.671   6.388
 4212POPC   C2B56072  18.914  35.801   6.839
 4212POPC   C3B56073  18.756  35.747   7.278
 4212POPC   C4B56074  18.748  35.861   7.750
 4213POPC   NC356075  27.407  42.434   5.295
 4213POPC   PO456076  28.089  42.541   5.283
 4213POPC   GL156077  27.786  42.541   5.651
 4213POPC   GL256078  27.544  42.227   5.732
 4213POPC   C1A56079  27.784  42.503   6.090
 4213POPC   D2A56080  27.837  42.199   6.384
 4213POPC   C3A56081  27.893  42.336   6.804
 4213POPC   C4A56082  27.652  42.409   7.187
 4213POPC   C1B56083  27.285  42.209   6.097
 4213POPC   C2B56084  27.393  42.444   6.436
 4213POPC   C3B56085  27.318  42.582   6.832
 4213POPC   C4B56086  27.147  42.356   7.182
 4214POPC   NC356087  14.748  15.938   5.061
 4214POPC   PO456088  15.263  15.981   5.551
 4214POPC   GL156089  15.437  15.885   5.935
 4214POPC   GL256090  15.611  15.583   5.976
 4214POPC   C1A56091  15.242  15.911   6.325
 4214POPC   D2A56092  14.917  16.093   6.554
 4214POPC   C3A56093  15.069  16.000   6.942
 4214POPC   C4A56094  15.138  16.224   7.285
 4214POPC   C1B56095  15.731  15.798   6.381
 4214POPC   C2B56096  15.495  15.736   6.764
 4214POPC   C3B56097  15.501  15.856   7.194
 4214POPC   C4B56098  15.445  16.003   7.621
 4215POPC   NC356099  22.173  28.738   5.400
 4215POPC   PO456100  22.444  28.094   5.394
 4215POPC   GL156101  22.226  28.302   5.775
 4215POPC   GL256102  21.989  28.586   5.868
 4215POPC   C1A56103  22.350  28.470   6.203
 4215POPC   D2A56104  22.115  28.616   6.567
 4215POPC   C3A56105  22.351  28.476   6.941
 4215POPC   C4A56106  22.477  28.577   7.360
 4215POPC   C1B56107  21.875  28.268   6.177
 4215POPC   C2B56108  21.695  28.150   6.562
 4215POPC   C3B56109  21.840  28.353   6.919
 4215POPC   C4B56110  21.989  28.362   7.314
 4216POPC   NC356111  24.362   7.009   5.155
 4216POPC   PO456112  24.694   7.577   5.202
 4216POPC   GL156113  24.623   7.343   5.634
 4216POPC   GL256114  24.254   7.315   5.606
 4216POPC   C1A56115  24.717   7.226   6.112
 4216POPC   D2A56116  24.474   7.267   6.532
 4216POPC   C3A56117  24.548   7.234   6.995
 4216POPC   C4A56118  24.399   7.507   7.334
 4216POPC   C1B56119  24.191   7.302   6.070
 4216POPC   C2B56120  23.950   7.219   6.471
 4216POPC   C3B56121  24.060   7.301   6.901
 4216POPC   C4B56122  24.087   7.114   7.337
 4217POPC   NC356123  12.638  22.555   5.111
 4217POPC   PO456124  13.036  22.136   5.083
 4217POPC   GL156125  12.947  21.945   5.591
 4217POPC   GL256126  12.714  22.116   5.786
 4217POPC   C1A56127  12.957  21.886   6.140
 4217POPC   D2A56128  12.728  21.936   6.539
 4217POPC   C3A56129  12.896  22.100   6.936
 4217POPC   C4A56130  13.142  21.981   7.306
 4217POPC   C1B56131  12.438  22.138   6.174
 4217POPC   C2B56132  12.261  22.184   6.617
 4217POPC   C3B56133  12.392  22.168   7.072
 4217POPC   C4B56134  12.687  22.163   7.431
 4218POPC   NC356135  28.562  42.466   5.230
 4218POPC   PO456136  28.583  41.828   5.544
 4218POPC   GL156137  28.377  42.243   5.699
 4218POPC   GL256138  28.589  42.498   5.744
 4218POPC   C1A56139  28.272  42.400   6.121
 4218POPC   D2A56140  28.341  42.199   6.497
 4218POPC   C3A56141  28.408  42.325   6.910
 4218POPC   C4A56142  28.138  42.416   7.251
 4218POPC   C1B56143  28.661  42.732   6.152
 4218POPC   C2B56144  28.543  42.706   6.586
 4218POPC   C3B56145  28.783  42.659   6.974
 4218POPC   C4B56146  28.621  42.537   7.375
 4219POPC   NC356147  11.953  42.969   5.437
 4219POPC   PO456148  12.381  43.366   5.193
 4219POPC   GL156149  12.220  43.367   5.658
 4219POPC   GL256150  12.300  43.037   5.821
 4219POPC   C1A56151  11.921  43.321   6.055
 4219POPC   D2A56152  11.780  43.113   6.466
 4219POPC   C3A56153  11.867  43.185   6.928
 4219POPC   C4A56154  12.267  43.195   7.197
 4219POPC   C1B56155  12.067  42.801   6.161
 4219POPC   C2B56156  11.950  42.628   6.593
 4219POPC   C3B56157  12.072  42.690   7.035
 4219POPC   C4B56158  12.041  42.829   7.464
 4220POPC   NC356159  13.000  11.624   5.413
 4220POPC   PO456160  12.798  12.207   5.138
 4220POPC   GL156161  12.956  12.100   5.595
 4220POPC   GL256162  12.638  11.955   5.653
 4220POPC   C1A56163  13.026  11.936   6.087
 4220POPC   D2A56164  13.076  11.752   6.579
 4220POPC   C3A56165  13.203  11.958   6.970
 4220POPC   C4A56166  12.977  12.195   7.293
 4220POPC   C1B56167  12.508  11.983   6.081
 4220POPC   C2B56168  12.456  11.985   6.536
 4220POPC   C3B56169  12.608  12.010   6.975
 4220POPC   C4B56170  12.513  12.066   7.427
 4221POPC   NC356171  24.152  30.260   5.205
 4221POPC   PO456172  24.818  30.022   5.452
 4221POPC   GL156173  24.530  30.209   5.756
 4221POPC   GL256174  24.184  30.162   5.721
 4221POPC   C1A56175  24.459  30.236   6.205
 4221POPC   D2A56176  24.585  30.360   6.631
 4221POPC   C3A56177  24.694  29.974   6.838
 4221POPC   C4A56178  24.760  29.894   7.245
 4221POPC   C1B56179  24.156  29.852   6.093
 4221POPC   C2B56180  24.036  29.954   6.524
 4221POPC   C3B56181  24.157  30.072   6.937
 4221POPC   C4B56182  24.271  29.802   7.259
 4222POPC   NC356183  10.658   6.992   5.007
 4222POPC   PO456184  10.474   6.566   5.495
 4222POPC   GL156185  10.624   6.773   5.849
 4222POPC   GL256186  10.685   7.112   5.739
 4222POPC   C1A56187  10.558   6.747   6.283
 4222POPC   D2A56188  10.510   6.764   6.697
 4222POPC   C3A56189  10.687   6.528   7.004
 4222POPC   C4A56190  10.377   6.713   7.234
 4222POPC   C1B56191  10.851   7.155   6.149
 4222POPC   C2B56192  10.929   7.022   6.579
 4222POPC   C3B56193  10.800   7.036   7.009
 4222POPC   C4B56194  10.844   6.904   7.431
 4223POPC   NC356195  20.783  38.112   5.559
 4223POPC   PO456196  20.592  38.797   5.419
 4223POPC   GL156197  20.610  38.559   5.801
 4223POPC   GL256198  20.940  38.619   5.844
 4223POPC   C1A56199  20.667  38.360   6.232
 4223POPC   D2A56200  20.723  38.063   6.610
 4223POPC   C3A56201  20.486  38.211   6.981
 4223POPC   C4A56202  20.479  38.334   7.410
 4223POPC   C1B56203  20.838  38.847   6.192
 4223POPC   C2B56204  20.802  38.895   6.638
 4223POPC   C3B56205  20.746  38.674   7.045
 4223POPC   C4B56206  20.876  38.628   7.520
 4224POPC   NC356207   6.497  19.770   5.139
 4224POPC   PO456208   6.249  19.241   5.399
 4224POPC   GL156209   6.438  19.317   5.826
 4224POPC   GL256210   6.666  19.027   5.845
 4224POPC   C1A56211   6.621  19.312   6.266
 4224POPC   D2A56212   6.591  19.113   6.690
 4224POPC   C3A56213   6.606  19.194   7.145
 4224POPC   C4A56214   6.369  18.947   7.468
 4224POPC   C1B56215   6.853  18.801   6.221
 4224POPC   C2B56216   7.007  18.630   6.632
 4224POPC   C3B56217   6.935  18.793   7.053
 4224POPC   C4B56218   7.139  19.118   7.287
 4225POPC   NC356219  30.704  23.077   5.503
 4225POPC   PO456220  30.394  22.443   5.478
 4225POPC   GL156221  30.654  22.653   5.764
 4225POPC   GL256222  30.979  22.632   5.774
 4225POPC   C1A56223  30.606  22.867   6.151
 4225POPC   D2A56224  30.421  22.968   6.544
 4225POPC   C3A56225  30.663  22.929   6.927
 4225POPC   C4A56226  30.567  23.217   7.275
 4225POPC   C1B56227  31.128  22.760   6.214
 4225POPC   C2B56228  31.111  23.003   6.598
 4225POPC   C3B56229  31.171  22.822   7.006
 4225POPC   C4B56230  30.924  22.828   7.370
 4226POPC   NC356231  30.574  20.536   5.226
 4226POPC   PO456232  31.197  20.781   5.215
 4226POPC   GL156233  31.019  20.703   5.704
 4226POPC   GL256234  30.759  20.408   5.789
 4226POPC   C1A56235  30.910  20.722   6.186
 4226POPC   D2A56236  30.821  20.905   6.598
 4226POPC   C3A56237  30.485  20.773   6.847
 4226POPC   C4A56238  30.643  20.519   7.152
 4226POPC   C1B56239  30.693  20.239   6.260
 4226POPC   C2B56240  30.748  20.184   6.737
 4226POPC   C3B56241  30.668  20.024   7.177
 4226POPC   C4B56242  30.403  20.145   7.572
 4227POPC   NC356243  29.449  33.001   5.525
 4227POPC   PO456244  29.985  32.750   5.262
 4227POPC   GL156245  29.879  32.817   5.739
 4227POPC   GL256246  29.536  32.700   5.928
 4227POPC   C1A56247  30.005  32.739   6.173
 4227POPC   D2A56248  29.989  32.830   6.631
 4227POPC   C3A56249  30.237  32.907   7.023
 4227POPC   C4A56250  30.070  33.181   7.370
 4227POPC   C1B56251  29.588  33.022   6.264
 4227POPC   C2B56252  29.552  33.076   6.714
 4227POPC   C3B56253  29.714  32.912   7.121
 4227POPC   C4B56254  29.647  32.982   7.589
 4228POPC   NC356255  39.710  36.904   5.064
 4228POPC   PO456256  40.268  37.074   5.343
 4228POPC   GL156257  40.252  37.114   5.788
 4228POPC   GL256258  40.514  37.350   5.811
 4228POPC   C1A56259  39.977  37.020   6.141
 4228POPC   D2A56260  39.844  36.639   6.364
 4228POPC   C3A56261  39.721  36.655   6.807
 4228POPC   C4A56262  39.741  36.719   7.262
 4228POPC   C1B56263  40.377  37.349   6.253
 4228POPC   C2B56264  40.219  37.107   6.617
 4228POPC   C3B56265  40.126  36.992   7.048
 4228POPC   C4B56266  40.216  36.875   7.470
 4229POPC   NC356267  13.604  18.618   5.369
 4229POPC   PO456268  13.962  18.046   5.632
 4229POPC   GL156269  13.720  18.351   5.798
 4229POPC   GL256270  13.992  18.590   5.701
 4229POPC   C1A56271  13.542  18.312   6.212
 4229POPC   D2A56272  13.287  18.338   6.583
 4229POPC   C3A56273  13.367  18.250   7.026
 4229POPC   C4A56274  13.713  18.224   7.344
 4229POPC   C1B56275  13.876  18.712   6.117
 4229POPC   C2B56276  13.956  18.432   6.458
 4229POPC   C3B56277  13.784  18.466   6.863
 4229POPC   C4B56278  13.957  18.658   7.208
 4230POPC   NC356279  19.093  37.405   5.431
 4230POPC   PO456280  19.073  37.922   5.125
 4230POPC   GL156281  19.018  37.801   5.718
 4230POPC   GL256282  18.829  37.480   5.861
 4230POPC   C1A56283  19.069  37.798   6.217
 4230POPC   D2A56284  18.909  37.808   6.688
 4230POPC   C3A56285  19.181  37.633   7.062
 4230POPC   C4A56286  19.290  37.875   7.442
 4230POPC   C1B56287  18.985  37.284   6.214
 4230POPC   C2B56288  19.077  37.330   6.642
 4230POPC   C3B56289  18.846  37.237   6.991
 4230POPC   C4B56290  18.884  37.277   7.421
 4231POPC   NC356291  30.642   1.062   5.422
 4231POPC   PO456292  30.494   1.731   5.510
 4231POPC   GL156293  30.576   1.408   5.855
 4231POPC   GL256294  30.855   1.171   5.863
 4231POPC   C1A56295  30.424   1.150   6.218
 4231POPC   D2A56296  30.305   1.252   6.668
 4231POPC   C3A56297  30.522   1.062   7.023
 4231POPC   C4A56298  30.756   0.737   7.251
 4231POPC   C1B56299  30.898   1.341   6.269
 4231POPC   C2B56300  30.870   1.079   6.631
 4231POPC   C3B56301  31.105   1.054   7.013
 4231POPC   C4B56302  31.119   1.049   7.465
 4232POPC   NC356303   5.536  21.362   5.469
 4232POPC   PO456304   6.060  21.830   5.412
 4232POPC   GL156305   5.970  21.578   5.751
 4232POPC   GL256306   5.666  21.720   5.799
 4232POPC   C1A56307   5.962  21.327   6.145
 4232POPC   D2A56308   6.176  21.148   6.522
 4232POPC   C3A56309   5.924  21.218   6.865
 4232POPC   C4A56310   5.986  21.337   7.251
 4232POPC   C1B56311   5.669  21.749   6.213
 4232POPC   C2B56312   5.555  21.806   6.627
 4232POPC   C3B56313   5.759  21.722   7.005
 4232POPC   C4B56314   5.520  21.506   7.278
 4233POPC   NC356315  11.357  20.303   5.331
 4233POPC   PO456316  10.993  20.852   5.455
 4233POPC   GL156317  11.344  20.693   5.760
 4233POPC   GL256318  11.578  20.428   5.749
 4233POPC   C1A56319  11.424  20.598   6.226
 4233POPC   D2A56320  11.311  20.589   6.678
 4233POPC   C3A56321  11.479  20.658   7.116
 4233POPC   C4A56322  11.261  20.655   7.552
 4233POPC   C1B56323  11.769  20.258   6.043
 4233POPC   C2B56324  11.750  20.249   6.487
 4233POPC   C3B56325  11.572  20.200   6.884
 4233POPC   C4B56326  11.650  20.175   7.311
 4234POPC   NC356327  39.882  26.602   5.351
 4234POPC   PO456328  39.389  27.012   5.295
 4234POPC   GL156329  39.660  26.946   5.701
 4234POPC   GL256330  40.034  26.892   5.764
 4234POPC   C1A56331  39.743  27.023   6.169
 4234POPC   D2A56332  39.657  27.122   6.618
 4234POPC   C3A56333  39.743  26.907   6.993
 4234POPC   C4A56334  39.987  26.966   7.372
 4234POPC   C1B56335  40.240  26.917   6.184
 4234POPC   C2B56336  40.192  27.101   6.578
 4234POPC   C3B56337  40.266  26.947   6.958
 4234POPC   C4B56338  40.465  26.825   7.325
 4235POPC   NC356339  12.984  24.133   5.462
 4235POPC   PO456340  12.565  24.592   5.192
 4235POPC   GL156341  12.541  24.521   5.644
 4235POPC   GL256342  12.511  24.856   5.770
 4235POPC   C1A56343  12.687  24.478   6.101
 4235POPC   D2A56344  12.733  24.230   6.501
 4235POPC   C3A56345  12.930  24.400   6.882
 4235POPC   C4A56346  12.804  24.256   7.288
 4235POPC   C1B56347  12.586  25.007   6.171
 4235POPC   C2B56348  12.862  24.877   6.497
 4235POPC   C3B56349  12.805  24.908   6.918
 4235POPC   C4B56350  12.882  24.741   7.306
 4236POPC   NC356351  18.093  25.163   5.273
 4236POPC   PO456352  18.658  25.563   5.425
 4236POPC   GL156353  18.523  25.330   5.700
 4236POPC   GL256354  18.184  25.380   5.718
 4236POPC   C1A56355  18.506  25.401   6.137
 4236POPC   D2A56356  18.386  25.224   6.533
 4236POPC   C3A56357  18.422  25.436   6.926
 4236POPC   C4A56358  18.397  25.238   7.318
 4236POPC   C1B56359  18.047  25.182   6.102
 4236POPC   C2B56360  17.886  25.230   6.527
 4236POPC   C3B56361  18.007  25.103   6.952
 4236POPC   C4B56362  17.890  25.143   7.384
 4237POPC   NC356363  23.454  24.117   5.522
 4237POPC   PO456364  23.850  24.482   5.043
 4237POPC   GL156365  23.688  24.575   5.552
 4237POPC   GL256366  23.380  24.554   5.793
 4237POPC   C1A56367  23.823  24.679   6.030
 4237POPC   D2A56368  23.882  24.468   6.463
 4237POPC   C3A56369  23.846  24.677   6.881
 4237POPC   C4A56370  23.569  24.562   7.230
 4237POPC   C1B56371  23.349  24.654   6.266
 4237POPC   C2B56372  23.358  24.486   6.722
 4237POPC   C3B56373  23.420  24.117   7.043
 4237POPC   C4B56374  23.565  24.124   7.491
 4238POPC   NC356375   7.690  38.115   5.265
 4238POPC   PO456376   7.226  38.552   5.508
 4238POPC   GL156377   7.507  38.497   5.850
 4238POPC   GL256378   7.673  38.176   5.795
 4238POPC   C1A56379   7.422  38.477   6.288
 4238POPC   D2A56380   7.091  38.261   6.536
 4238POPC   C3A56381   7.167  38.403   6.946
 4238POPC   C4A56382   7.560  38.618   6.959
 4238POPC   C1B56383   7.726  38.060   6.238
 4238POPC   C2B56384   7.579  38.150   6.656
 4238POPC   C3B56385   7.604  38.120   7.091
 4238POPC   C4B56386   7.677  38.073   7.528
 4239POPC   NC356387   3.132   8.346   5.573
 4239POPC   PO456388   2.666   7.835   5.591
 4239POPC   GL156389   2.679   8.137   5.865
 4239POPC   GL256390   2.929   8.365   6.023
 4239POPC   C1A56391   2.746   7.970   6.270
 4239POPC   D2A56392   2.877   8.172   6.608
 4239POPC   C3A56393   2.706   7.969   6.981
 4239POPC   C4A56394   2.588   8.087   7.415
 4239POPC   C1B56395   3.183   8.548   6.329
 4239POPC   C2B56396   3.147   8.568   6.765
 4239POPC   C3B56397   2.899   8.433   7.109
 4239POPC   C4B56398   3.004   8.469   7.554
 4240POPC   NC356399  44.875  34.907   5.504
 4240POPC   PO456400   0.593  34.762   5.409
 4240POPC   GL156401   0.490  34.637   5.786
 4240POPC   GL256402   0.679  34.358   5.836
 4240POPC   C1A56403   0.633  34.761   6.196
 4240POPC   D2A56404   0.660  34.669   6.634
 4240POPC   C3A56405   0.399  34.814   7.008
 4240POPC   C4A56406   0.667  34.590   7.282
 4240POPC   C1B56407   0.244  34.301   6.057
 4240POPC   C2B56408   0.050  34.377   6.467
 4240POPC   C3B56409   0.303  34.355   6.843
 4240POPC   C4B56410   0.218  34.309   7.280
 4241POPC   NC356411   7.669   5.688   5.407
 4241POPC   PO456412   7.233   6.297   5.330
 4241POPC   GL156413   7.456   6.080   5.692
 4241POPC   GL256414   7.324   5.727   5.792
 4241POPC   C1A56415   7.566   6.021   6.164
 4241POPC   D2A56416   7.381   5.865   6.596
 4241POPC   C3A56417   7.329   5.888   7.080
 4241POPC   C4A56418   7.086   5.649   7.439
 4241POPC   C1B56419   7.678   5.554   6.072
 4241POPC   C2B56420   7.887   5.737   6.451
 4241POPC   C3B56421   7.849   5.957   6.842
 4241POPC   C4B56422   7.815   5.704   7.168
 4242POPC   NC356423  32.741   9.716   5.474
 4242POPC   PO456424  33.170   9.267   5.213
 4242POPC   GL156425  33.242   9.627   5.591
 4242POPC   GL256426  33.082   9.883   5.783
 4242POPC   C1A56427  33.398   9.554   6.024
 4242POPC   D2A56428  33.148   9.475   6.373
 4242POPC   C3A56429  33.277   9.534   6.821
 4242POPC   C4A56430  33.197   9.699   7.247
 4242POPC   C1B56431  33.331  10.052   6.089
 4242POPC   C2B56432  33.387   9.931   6.503
 4242POPC   C3B56433  33.255  10.064   6.902
 4242POPC   C4B56434  33.120  10.210   7.289
 4243POPC   NC356435  39.758  10.849   5.583
 4243POPC   PO456436  40.453  10.788   5.507
 4243POPC   GL156437  40.185  10.702   5.875
 4243POPC   GL256438  39.965  10.407   5.901
 4243POPC   C1A56439  40.209  10.566   6.319
 4243POPC   D2A56440  40.309  10.831   6.682
 4243POPC   C3A56441  40.045  10.752   7.046
 4243POPC   C4A56442  40.184  10.668   7.458
 4243POPC   C1B56443  39.680  10.520   6.300
 4243POPC   C2B56444  39.622  10.526   6.795
 4243POPC   C3B56445  39.818  10.309   7.189
 4243POPC   C4B56446  39.840  10.306   7.673
 4244POPC   NC356447   0.799  15.273   5.452
 4244POPC   PO456448   0.192  15.379   5.441
 4244POPC   GL156449   0.375  15.135   5.852
 4244POPC   GL256450   0.746  15.071   5.934
 4244POPC   C1A56451   0.436  14.838   6.266
 4244POPC   D2A56452   0.672  14.915   6.702
 4244POPC   C3A56453   0.474  14.870   7.129
 4244POPC   C4A56454   0.072  14.859   7.395
 4244POPC   C1B56455   0.585  15.316   6.320
 4244POPC   C2B56456   0.470  15.563   6.714
 4244POPC   C3B56457   0.493  15.640   7.157
 4244POPC   C4B56458   0.637  15.289   7.428
 4245POPC   NC356459  33.047  20.114   5.335
 4245POPC   PO456460  33.096  19.484   5.339
 4245POPC   GL156461  33.080  19.698   5.731
 4245POPC   GL256462  33.298  20.019   5.782
 4245POPC   C1A56463  33.188  19.679   6.180
 4245POPC   D2A56464  33.044  19.896   6.558
 4245POPC   C3A56465  33.031  19.673   6.947
 4245POPC   C4A56466  32.697  19.684   7.275
 4245POPC   C1B56467  33.472  20.158   6.202
 4245POPC   C2B56468  33.525  20.029   6.641
 4245POPC   C3B56469  33.306  20.118   7.022
 4245POPC   C4B56470  33.327  20.394   7.366
 4246POPC   NC356471  40.564  44.082   5.029
 4246POPC   PO456472  40.697  43.882   5.637
 4246POPC   GL156473  40.838  43.936   5.995
 4246POPC   GL256474  41.008  43.598   5.951
 4246POPC   C1A56475  41.050  44.308   6.184
 4246POPC   D2A56476  40.896  44.287   6.591
 4246POPC   C3A56477  41.015  44.068   6.951
 4246POPC   C4A56478  40.854  44.131   7.322
 4246POPC   C1B56479  40.759  43.582   6.342
 4246POPC   C2B56480  40.879  43.610   6.766
 4246POPC   C3B56481  40.669  43.452   7.125
 4246POPC   C4B56482  40.709  43.597   7.532
 4247POPC   NC356483   5.031  32.724   5.389
 4247POPC   PO456484   5.275  33.336   5.289
 4247POPC   GL156485   5.200  33.056   5.738
 4247POPC   GL256486   5.308  32.742   5.821
 4247POPC   C1A56487   5.134  33.055   6.243
 4247POPC   D2A56488   5.232  33.023   6.727
 4247POPC   C3A56489   5.060  33.226   7.139
 4247POPC   C4A56490   5.273  33.395   7.529
 4247POPC   C1B56491   4.915  32.612   6.076
 4247POPC   C2B56492   4.813  32.741   6.518
 4247POPC   C3B56493   4.967  32.590   6.884
 4247POPC   C4B56494   5.226  32.757   7.173
 4248POPC   NC356495  21.458  31.385   5.177
 4248POPC   PO456496  21.903  31.230   5.616
 4248POPC   GL156497  21.600  31.478   5.799
 4248POPC   GL256498  21.301  31.410   5.662
 4248POPC   C1A56499  21.604  31.660   6.203
 4248POPC   D2A56500  21.465  31.418   6.562
 4248POPC   C3A56501  21.443  31.592   6.978
 4248POPC   C4A56502  21.469  31.324   7.328
 4248POPC   C1B56503  21.165  31.430   6.111
 4248POPC   C2B56504  20.976  31.522   6.524
 4248POPC   C3B56505  21.000  31.349   6.948
 4248POPC   C4B56506  21.009  31.584   7.309
 4249POPC   NC356507   6.142   8.609   5.166
 4249POPC   PO456508   5.799   9.275   5.263
 4249POPC   GL156509   5.879   9.154   5.712
 4249POPC   GL256510   6.169   9.052   5.700
 4249POPC   C1A56511   5.756   8.976   6.141
 4249POPC   D2A56512   5.564   8.839   6.539
 4249POPC   C3A56513   5.746   9.001   6.918
 4249POPC   C4A56514   5.732   8.775   7.304
 4249POPC   C1B56515   6.264   8.975   6.123
 4249POPC   C2B56516   6.105   8.850   6.542
 4249POPC   C3B56517   6.239   8.804   6.982
 4249POPC   C4B56518   6.132   9.095   7.311
 4250POPC   NC356519  42.236  27.732   5.357
 4250POPC   PO456520  41.927  27.169   5.652
 4250POPC   GL156521  42.156  27.528   5.837
 4250POPC   GL256522  42.431  27.748   5.820
 4250POPC   C1A56523  42.095  27.770   6.191
 4250POPC   D2A56524  41.943  27.592   6.566
 4250POPC   C3A56525  42.062  27.533   6.991
 4250POPC   C4A56526  42.485  27.445   7.178
 4250POPC   C1B56527  42.599  27.714   6.235
 4250POPC   C2B56528  42.459  27.679   6.668
 4250POPC   C3B56529  42.370  27.941   7.016
 4250POPC   C4B56530  42.656  28.115   7.290
 4251POPC   NC356531  38.624   1.897   5.361
 4251POPC   PO456532  38.456   2.469   5.535
 4251POPC   GL156533  38.313   2.160   5.842
 4251POPC   GL256534  38.414   1.827   5.828
 4251POPC   C1A56535  38.255   2.099   6.277
 4251POPC   D2A56536  38.478   1.987   6.601
 4251POPC   C3A56537  38.503   2.238   6.950
 4251POPC   C4A56538  38.483   2.106   7.381
 4251POPC   C1B56539  38.316   1.592   6.209
 4251POPC   C2B56540  38.374   1.480   6.643
 4251POPC   C3B56541  38.335   1.746   7.025
 4251POPC   C4B56542  38.112   1.760   7.402
 4252POPC   NC356543  37.269  24.775   5.540
 4252POPC   PO456544  36.740  24.267   5.527
 4252POPC   GL156545  36.761  24.409   5.924
 4252POPC   GL256546  36.838  24.760   5.875
 4252POPC   C1A56547  37.026  24.475   6.281
 4252POPC   D2A56548  37.214  24.652   6.646
 4252POPC   C3A56549  37.151  24.403   6.998
 4252POPC   C4A56550  36.807  24.186   7.154
 4252POPC   C1B56551  36.587  24.776   6.260
 4252POPC   C2B56552  36.679  24.577   6.677
 4252POPC   C3B56553  36.770  24.722   7.100
 4252POPC   C4B56554  36.786  24.770   7.554
 4253POPC   NC356555  31.539   2.325   5.452
 4253POPC   PO456556  31.329   2.937   5.324
 4253POPC   GL156557  31.387   2.741   5.736
 4253POPC   GL256558  31.668   2.558   5.911
 4253POPC   C1A56559  31.214   2.584   6.112
 4253POPC   D2A56560  31.216   2.775   6.514
 4253POPC   C3A56561  31.194   2.555   6.880
 4253POPC   C4A56562  31.103   2.456   7.285
 4253POPC   C1B56563  31.679   2.851   6.270
 4253POPC   C2B56564  31.600   3.148   6.629
 4253POPC   C3B56565  31.470   2.994   7.020
 4253POPC   C4B56566  31.619   2.549   7.169
 4254POPC   NC356567  19.324  42.194   5.528
 4254POPC   PO456568  18.627  42.310   5.574
 4254POPC   GL156569  18.948  42.371   5.803
 4254POPC   GL256570  19.104  42.659   5.612
 4254POPC   C1A56571  19.157  42.258   6.198
 4254POPC   D2A56572  19.392  42.418   6.542
 4254POPC   C3A56573  19.221  42.221   6.910
 4254POPC   C4A56574  19.040  42.204   7.333
 4254POPC   C1B56575  19.098  42.759   6.074
 4254POPC   C2B56576  19.154  42.893   6.499
 4254POPC   C3B56577  19.217  42.761   6.915
 4254POPC   C4B56578  19.038  42.698   7.313
 4255POPC   NC356579   9.658   1.689   5.418
 4255POPC   PO456580   9.964   2.199   5.126
 4255POPC   GL156581   9.962   2.111   5.590
 4255POPC   GL256582   9.607   2.115   5.670
 4255POPC   C1A56583  10.016   1.990   6.073
 4255POPC   D2A56584   9.784   2.022   6.510
 4255POPC   C3A56585   9.928   1.886   6.921
 4255POPC   C4A56586   9.920   1.646   7.295
 4255POPC   C1B56587   9.512   2.131   6.093
 4255POPC   C2B56588   9.496   2.437   6.394
 4255POPC   C3B56589   9.590   2.418   6.829
 4255POPC   C4B56590   9.537   2.102   7.186
 4256POPC   NC356591  43.995   7.556   5.334
 4256POPC   PO456592  44.186   6.965   5.634
 4256POPC   GL156593  43.920   7.327   5.831
 4256POPC   GL256594  43.991   7.693   5.834
 4256POPC   C1A56595  43.778   7.457   6.258
 4256POPC   D2A56596  43.668   7.500   6.699
 4256POPC   C3A56597  43.942   7.329   7.017
 4256POPC   C4A56598  43.863   7.119   7.397
 4256POPC   C1B56599  44.216   7.708   6.218
 4256POPC   C2B56600  44.042   7.850   6.630
 4256POPC   C3B56601  43.839   7.841   7.034
 4256POPC   C4B56602  43.561   7.576   7.278
 4257POPC   NC356603  12.878  21.427   5.433
 4257POPC   PO456604  13.391  21.725   5.689
 4257POPC   GL156605  13.051  21.438   5.924
 4257POPC   GL256606  12.692  21.285   5.891
 4257POPC   C1A56607  12.909  21.424   6.371
 4257POPC   D2A56608  13.192  21.258   6.684
 4257POPC   C3A56609  13.048  21.356   7.059
 4257POPC   C4A56610  13.006  21.380   7.491
 4257POPC   C1B56611  12.490  21.620   6.138
 4257POPC   C2B56612  12.301  21.652   6.548
 4257POPC   C3B56613  12.622  21.545   6.839
 4257POPC   C4B56614  12.724  21.711   7.217
 4258POPC   NC356615  25.775   9.178   5.302
 4258POPC   PO456616  26.318   9.153   5.568
 4258POPC   GL156617  26.098   8.992   5.917
 4258POPC   GL256618  25.848   8.715   5.827
 4258POPC   C1A56619  26.189   9.052   6.372
 4258POPC   D2A56620  26.438   9.263   6.704
 4258POPC   C3A56621  26.240   9.231   7.103
 4258POPC   C4A56622  25.816   9.237   7.226
 4258POPC   C1B56623  25.960   8.587   6.272
 4258POPC   C2B56624  26.208   8.647   6.689
 4258POPC   C3B56625  26.140   8.716   7.149
 4258POPC   C4B56626  26.460   8.783   7.516
 4259POPC   NC356627  19.880  16.694   5.179
 4259POPC   PO456628  20.349  17.041   5.387
 4259POPC   GL156629  19.997  16.811   5.657
 4259POPC   GL256630  19.659  16.643   5.675
 4259POPC   C1A56631  20.043  16.555   6.040
 4259POPC   D2A56632  19.848  16.779   6.419
 4259POPC   C3A56633  19.930  16.742   6.865
 4259POPC   C4A56634  20.178  16.600   7.237
 4259POPC   C1B56635  19.553  16.482   6.106
 4259POPC   C2B56636  19.358  16.552   6.514
 4259POPC   C3B56637  19.474  16.492   6.934
 4259POPC   C4B56638  19.532  16.606   7.351
 4260POPC   NC356639  28.810  19.109   5.412
 4260POPC   PO456640  28.248  18.726   5.425
 4260POPC   GL156641  28.326  18.854   5.839
 4260POPC   GL256642  28.637  18.897   5.834
 4260POPC   C1A56643  28.371  19.110   6.229
 4260POPC   D2A56644  28.567  19.376   6.496
 4260POPC   C3A56645  28.398  19.226   6.851
 4260POPC   C4A56646  28.395  19.441   7.207
 4260POPC   C1B56647  28.653  18.687   6.199
 4260POPC   C2B56648  28.732  18.885   6.555
 4260POPC   C3B56649  28.644  18.774   6.924
 4260POPC   C4B56650  28.519  18.960   7.316
 4261POPC   NC356651  35.521  23.520   5.451
 4261POPC   PO456652  35.218  24.101   5.154
 4261POPC   GL156653  35.180  23.940   5.590
 4261POPC   GL256654  35.518  24.032   5.760
 4261POPC   C1A56655  35.071  23.713   6.003
 4261POPC   D2A56656  35.255  23.477   6.403
 4261POPC   C3A56657  35.201  23.562   6.882
 4261POPC   C4A56658  35.038  23.645   7.328
 4261POPC   C1B56659  35.477  23.919   6.216
 4261POPC   C2B56660  35.336  24.031   6.637
 4261POPC   C3B56661  35.471  23.992   7.045
 4261POPC   C4B56662  35.491  23.843   7.432
 4262POPC   NC356663  11.224   5.563   5.424
 4262POPC   PO456664  11.216   6.059   5.932
 4262POPC   GL156665  11.176   5.632   6.037
 4262POPC   GL256666  11.548   5.544   5.978
 4262POPC   C1A56667  10.987   5.565   6.455
 4262POPC   D2A56668  10.860   5.947   6.734
 4262POPC   C3A56669  11.117   6.063   7.076
 4262POPC   C4A56670  11.465   5.769   7.159
 4262POPC   C1B56671  11.765   5.838   6.295
 4262POPC   C2B56672  11.745   6.248   6.571
 4262POPC   C3B56673  11.566   6.328   7.005
 4262POPC   C4B56674  11.578   6.191   7.438
 4263POPC   NC356675  37.607  37.954   5.517
 4263POPC   PO456676  37.627  37.229   5.667
 4263POPC   GL156677  37.481  37.622   5.902
 4263POPC   GL256678  37.740  37.891   6.007
 4263POPC   C1A56679  37.248  37.930   6.183
 4263POPC   D2A56680  37.320  38.147   6.598
 4263POPC   C3A56681  37.476  37.817   6.925
 4263POPC   C4A56682  37.844  37.720   7.191
 4263POPC   C1B56683  37.684  37.748   6.433
 4263POPC   C2B56684  37.829  37.449   6.759
 4263POPC   C3B56685  37.843  37.206   7.150
 4263POPC   C4B56686  37.748  37.197   7.592
 4264POPC   NC356687   1.476  15.568   5.295
 4264POPC   PO456688   1.499  14.920   5.290
 4264POPC   GL156689   1.464  15.082   5.716
 4264POPC   GL256690   1.204  15.267   5.735
 4264POPC   C1A56691   1.430  15.156   6.169
 4264POPC   D2A56692   1.091  15.050   6.442
 4264POPC   C3A56693   1.186  15.010   6.872
 4264POPC   C4A56694   1.284  15.191   7.299
 4264POPC   C1B56695   1.043  15.473   6.119
 4264POPC   C2B56696   0.988  15.526   6.574
 4264POPC   C3B56697   0.891  15.392   6.991
 4264POPC   C4B56698   1.002  15.651   7.357
 4265POPC   NC356699  37.773  39.576   5.582
 4265POPC   PO456700  37.803  38.851   5.582
 4265POPC   GL156701  37.526  38.925   5.899
 4265POPC   GL256702  37.488  39.288   5.898
 4265POPC   C1A56703  37.735  39.054   6.297
 4265POPC   D2A56704  37.810  39.290   6.686
 4265POPC   C3A56705  37.914  39.171   7.103
 4265POPC   C4A56706  37.947  39.440   7.477
 4265POPC   C1B56707  37.536  39.528   6.294
 4265POPC   C2B56708  37.330  39.480   6.684
 4265POPC   C3B56709  37.406  39.344   7.093
 4265POPC   C4B56710  37.316  39.726   7.289
 4266POPC   NC356711  31.771  43.425   5.373
 4266POPC   PO456712  31.245  43.003   5.346
 4266POPC   GL156713  31.484  43.116   5.685
 4266POPC   GL256714  31.710  42.824   5.615
 4266POPC   C1A56715  31.401  43.262   6.159
 4266POPC   D2A56716  31.097  43.454   6.515
 4266POPC   C3A56717  31.226  43.415   6.986
 4266POPC   C4A56718  31.646  43.372   7.187
 4266POPC   C1B56719  31.496  42.763   6.035
 4266POPC   C2B56720  31.563  42.842   6.486
 4266POPC   C3B56721  31.530  42.773   6.945
 4266POPC   C4B56722  31.535  42.902   7.330
 4267POPC   NC356723  11.928  23.475   5.346
 4267POPC   PO456724  12.582  23.708   5.354
 4267POPC   GL156725  12.216  23.836   5.632
 4267POPC   GL256726  11.835  23.866   5.700
 4267POPC   C1A56727  12.190  23.909   6.082
 4267POPC   D2A56728  12.363  23.659   6.427
 4267POPC   C3A56729  12.496  23.864   6.805
 4267POPC   C4A56730  12.203  23.837   7.122
 4267POPC   C1B56731  11.674  23.818   6.137
 4267POPC   C2B56732  11.814  23.779   6.564
 4267POPC   C3B56733  11.785  23.576   6.963
 4267POPC   C4B56734  11.978  23.441   7.363
 4268POPC   NC356735  37.786  23.180   5.376
 4268POPC   PO456736  37.489  22.633   5.478
 4268POPC   GL156737  37.647  22.916   5.792
 4268POPC   GL256738  37.486  23.263   5.790
 4268POPC   C1A56739  37.864  22.849   6.183
 4268POPC   D2A56740  37.706  22.675   6.567
 4268POPC   C3A56741  37.877  22.569   6.969
 4268POPC   C4A56742  37.677  22.677   7.345
 4268POPC   C1B56743  37.606  23.293   6.248
 4268POPC   C2B56744  37.673  23.193   6.706
 4268POPC   C3B56745  37.698  23.151   7.172
 4268POPC   C4B56746  37.549  23.097   7.616
 4269POPC   NC356747  38.805  15.944   4.790
 4269POPC   PO456748  38.265  15.973   5.222
 4269POPC   GL156749  38.460  16.029   5.634
 4269POPC   GL256750  38.314  16.335   5.765
 4269POPC   C1A56751  38.525  15.927   6.064
 4269POPC   D2A56752  38.303  16.042   6.429
 4269POPC   C3A56753  38.448  15.852   6.781
 4269POPC   C4A56754  38.833  15.839   7.025
 4269POPC   C1B56755  38.013  16.329   6.106
 4269POPC   C2B56756  37.944  16.382   6.549
 4269POPC   C3B56757  38.239  16.369   6.898
 4269POPC   C4B56758  38.422  16.085   7.231
 4270POPC   NC356759  41.372  22.603   5.351
 4270POPC   PO456760  41.719  23.115   5.463
 4270POPC   GL156761  41.493  22.905   5.780
 4270POPC   GL256762  41.730  22.961   6.002
 4270POPC   C1A56763  41.218  23.004   6.167
 4270POPC   D2A56764  41.212  23.202   6.586
 4270POPC   C3A56765  41.520  23.079   6.883
 4270POPC   C4A56766  41.448  22.859   7.271
 4270POPC   C1B56767  41.791  22.853   6.434
 4270POPC   C2B56768  42.029  23.009   6.779
 4270POPC   C3B56769  41.967  22.961   7.209
 4270POPC   C4B56770  41.857  22.979   7.643
 4271POPC   NC356771   3.823  30.436   5.517
 4271POPC   PO456772   3.669  31.014   5.385
 4271POPC   GL156773   3.562  30.862   5.771
 4271POPC   GL256774   3.870  30.771   5.921
 4271POPC   C1A56775   3.467  30.680   6.209
 4271POPC   D2A56776   3.530  30.856   6.636
 4271POPC   C3A56777   3.625  30.681   7.059
 4271POPC   C4A56778   3.624  30.324   7.374
 4271POPC   C1B56779   3.696  31.138   6.197
 4271POPC   C2B56780   3.690  31.332   6.596
 4271POPC   C3B56781   3.562  31.197   7.026
 4271POPC   C4B56782   3.647  31.038   7.455
 4272POPC   NC356783  28.035  41.242   5.496
 4272POPC   PO456784  28.559  40.739   5.286
 4272POPC   GL156785  28.350  40.853   5.715
 4272POPC   GL256786  28.106  41.045   5.966
 4272POPC   C1A56787  28.534  40.868   6.163
 4272POPC   D2A56788  28.394  40.900   6.607
 4272POPC   C3A56789  28.543  40.594   6.866
 4272POPC   C4A56790  28.587  40.468   7.285
 4272POPC   C1B56791  28.327  41.315   6.306
 4272POPC   C2B56792  28.720  41.303   6.570
 4272POPC   C3B56793  28.673  41.125   7.020
 4272POPC   C4B56794  28.347  40.939   7.195
 4273POPC   NC356795  21.894   7.190   5.068
 4273POPC   PO456796  22.378   7.659   5.345
 4273POPC   GL156797  22.205   7.474   5.722
 4273POPC   GL256798  21.984   7.168   5.617
 4273POPC   C1A56799  22.309   7.568   6.183
 4273POPC   D2A56800  22.063   7.558   6.572
 4273POPC   C3A56801  22.250   7.674   6.970
 4273POPC   C4A56802  22.386   7.338   7.232
 4273POPC   C1B56803  21.901   7.241   6.078
 4273POPC   C2B56804  21.925   7.075   6.503
 4273POPC   C3B56805  21.824   7.231   6.935
 4273POPC   C4B56806  21.819   7.411   7.348
 4274POPC   NC356807  12.253  40.013   5.474
 4274POPC   PO456808  12.835  39.829   5.564
 4274POPC   GL156809  12.700  40.150   5.841
 4274POPC   GL256810  12.588  39.879   6.044
 4274POPC   C1A56811  12.704  40.315   6.283
 4274POPC   D2A56812  12.516  40.497   6.651
 4274POPC   C3A56813  12.743  40.323   6.991
 4274POPC   C4A56814  12.735  40.071   7.363
 4274POPC   C1B56815  12.905  39.803   6.376
 4274POPC   C2B56816  12.975  39.858   6.841
 4274POPC   C3B56817  12.836  39.603   7.203
 4274POPC   C4B56818  12.835  39.598   7.687
 4275POPC   NC356819  19.369  21.847   5.412
 4275POPC   PO456820  18.781  22.093   5.355
 4275POPC   GL156821  19.019  22.113   5.695
 4275POPC   GL256822  19.075  22.442   5.767
 4275POPC   C1A56823  19.311  22.047   6.045
 4275POPC   D2A56824  19.482  21.938   6.452
 4275POPC   C3A56825  19.175  21.874   6.804
 4275POPC   C4A56826  19.080  22.013   7.235
 4275POPC   C1B56827  18.772  22.322   6.095
 4275POPC   C2B56828  18.797  22.491   6.507
 4275POPC   C3B56829  18.833  22.314   6.886
 4275POPC   C4B56830  18.675  22.399   7.248
 4276POPC   NC356831  39.673  27.580   5.369
 4276POPC   PO456832  40.293  27.362   5.400
 4276POPC   GL156833  40.022  27.413   5.766
 4276POPC   GL256834  39.931  27.737   5.809
 4276POPC   C1A56835  40.137  27.456   6.216
 4276POPC   D2A56836  40.017  27.591   6.669
 4276POPC   C3A56837  40.260  27.477   7.058
 4276POPC   C4A56838  40.359  27.279   7.495
 4276POPC   C1B56839  39.782  28.020   6.126
 4276POPC   C2B56840  39.637  28.069   6.537
 4276POPC   C3B56841  39.746  27.972   6.977
 4276POPC   C4B56842  40.007  27.856   7.303
 4277POPC   NC356843  19.574  30.954   5.268
 4277POPC   PO456844  19.728  30.354   5.337
 4277POPC   GL156845  19.719  30.727   5.711
 4277POPC   GL256846  20.029  30.770   5.940
 4277POPC   C1A56847  19.601  30.897   6.170
 4277POPC   D2A56848  19.776  31.014   6.621
 4277POPC   C3A56849  19.751  30.689   6.973
 4277POPC   C4A56850  19.532  30.671   7.386
 4277POPC   C1B56851  19.955  30.572   6.362
 4277POPC   C2B56852  19.800  30.235   6.635
 4277POPC   C3B56853  19.783  30.131   7.072
 4277POPC   C4B56854  19.937  30.379   7.433
 4278POPC   NC356855  15.968  27.058   5.487
 4278POPC   PO456856  15.780  27.690   5.221
 4278POPC   GL156857  15.790  27.535   5.695
 4278POPC   GL256858  15.700  27.169   5.900
 4278POPC   C1A56859  16.083  27.473   6.049
 4278POPC   D2A56860  15.994  27.295   6.448
 4278POPC   C3A56861  16.137  27.515   6.805
 4278POPC   C4A56862  16.172  27.490   7.205
 4278POPC   C1B56863  15.475  27.167   6.321
 4278POPC   C2B56864  15.551  27.415   6.693
 4278POPC   C3B56865  15.698  27.382   7.099
 4278POPC   C4B56866  15.793  27.332   7.530
 4279POPC   NC356867   8.155  10.936   5.409
 4279POPC   PO456868   7.756  11.494   5.292
 4279POPC   GL156869   7.926  11.262   5.714
 4279POPC   GL256870   8.301  11.133   5.856
 4279POPC   C1A56871   7.895  11.134   6.158
 4279POPC   D2A56872   8.243  11.164   6.453
 4279POPC   C3A56873   8.093  11.281   6.846
 4279POPC   C4A56874   8.053  11.251   7.268
 4279POPC   C1B56875   8.553  10.861   6.157
 4279POPC   C2B56876   8.486  10.749   6.624
 4279POPC   C3B56877   8.425  10.944   7.043
 4279POPC   C4B56878   8.555  11.290   7.368
 4280POPC   NC356879  22.633  26.077   5.369
 4280POPC   PO456880  22.001  25.833   5.321
 4280POPC   GL156881  21.985  25.872   5.752
 4280POPC   GL256882  22.242  26.023   5.759
 4280POPC   C1A56883  22.225  25.746   6.166
 4280POPC   D2A56884  22.276  26.007   6.537
 4280POPC   C3A56885  21.959  25.994   6.859
 4280POPC   C4A56886  22.090  25.848   7.255
 4280POPC   C1B56887  21.981  26.208   6.162
 4280POPC   C2B56888  21.973  26.427   6.597
 4280POPC   C3B56889  22.165  26.428   7.036
 4280POPC   C4B56890  22.145  26.291   7.474
 4281POPC   NC356891  41.786  23.568   5.431
 4281POPC   PO456892  41.195  23.918   5.431
 4281POPC   GL156893  41.477  23.779   5.769
 4281POPC   GL256894  41.434  23.413   5.862
 4281POPC   C1A56895  41.615  23.808   6.184
 4281POPC   D2A56896  41.406  23.707   6.574
 4281POPC   C3A56897  41.614  23.878   6.929
 4281POPC   C4A56898  41.695  23.845   7.367
 4281POPC   C1B56899  41.614  23.327   6.301
 4281POPC   C2B56900  41.866  23.492   6.635
 4281POPC   C3B56901  41.844  23.443   7.046
 4281POPC   C4B56902  41.598  23.331   7.376
 4282POPC   NC356903  19.218  32.531   5.478
 4282POPC   PO456904  18.604  32.163   5.447
 4282POPC   GL156905  18.817  32.079   5.845
 4282POPC   GL256906  19.114  32.210   5.857
 4282POPC   C1A56907  18.739  32.191   6.257
 4282POPC   D2A56908  18.728  32.413   6.609
 4282POPC   C3A56909  18.738  32.169   7.011
 4282POPC   C4A56910  18.954  32.195   7.465
 4282POPC   C1B56911  19.110  32.520   6.168
 4282POPC   C2B56912  19.224  32.576   6.556
 4282POPC   C3B56913  19.066  32.597   6.938
 4282POPC   C4B56914  19.305  32.472   7.233
 4283POPC   NC356915   3.568  36.871   5.078
 4283POPC   PO456916   4.013  36.642   5.501
 4283POPC   GL156917   3.753  36.642   5.832
 4283POPC   GL256918   3.639  36.985   5.816
 4283POPC   C1A56919   3.811  36.742   6.254
 4283POPC   D2A56920   3.904  36.654   6.672
 4283POPC   C3A56921   3.537  36.814   6.882
 4283POPC   C4A56922   3.445  36.700   7.282
 4283POPC   C1B56923   3.435  37.152   6.183
 4283POPC   C2B56924   3.287  37.255   6.589
 4283POPC   C3B56925   3.450  37.306   7.002
 4283POPC   C4B56926   3.524  37.172   7.425
 4284POPC   NC356927  36.582  15.283   5.342
 4284POPC   PO456928  37.021  14.862   5.465
 4284POPC   GL156929  37.144  15.164   5.784
 4284POPC   GL256930  36.909  15.492   5.718
 4284POPC   C1A56931  37.151  15.082   6.240
 4284POPC   D2A56932  37.323  15.119   6.672
 4284POPC   C3A56933  36.977  15.116   7.028
 4284POPC   C4A56934  36.889  14.898   7.422
 4284POPC   C1B56935  37.066  15.586   6.136
 4284POPC   C2B56936  36.936  15.451   6.556
 4284POPC   C3B56937  36.945  15.609   6.957
 4284POPC   C4B56938  36.756  15.504   7.295
 4285POPC   NC356939  29.274  28.774   5.196
 4285POPC   PO456940  28.807  29.022   5.397
 4285POPC   GL156941  28.847  29.218   5.834
 4285POPC   GL256942  28.603  29.470   5.915
 4285POPC   C1A56943  29.039  29.165   6.265
 4285POPC   D2A56944  29.294  29.117   6.658
 4285POPC   C3A56945  29.144  29.187   7.080
 4285POPC   C4A56946  29.297  29.289   7.504
 4285POPC   C1B56947  28.857  29.638   6.266
 4285POPC   C2B56948  28.990  29.532   6.697
 4285POPC   C3B56949  28.909  29.632   7.145
 4285POPC   C4B56950  29.043  29.743   7.571
 4286POPC   NC356951  36.193  17.318   5.516
 4286POPC   PO456952  35.951  17.916   5.265
 4286POPC   GL156953  35.876  17.880   5.739
 4286POPC   GL256954  35.841  17.517   5.841
 4286POPC   C1A56955  36.022  17.816   6.199
 4286POPC   D2A56956  36.352  17.870   6.497
 4286POPC   C3A56957  36.265  17.798   6.915
 4286POPC   C4A56958  36.221  17.686   7.345
 4286POPC   C1B56959  35.922  17.319   6.239
 4286POPC   C2B56960  35.963  17.482   6.647
 4286POPC   C3B56961  36.088  17.303   7.059
 4286POPC   C4B56962  35.831  17.357   7.431
 4287POPC   NC356963  20.014  15.781   5.456
 4287POPC   PO456964  19.696  16.291   5.280
 4287POPC   GL156965  19.498  16.113   5.675
 4287POPC   GL256966  19.814  16.144   5.789
 4287POPC   C1A56967  19.422  15.999   6.150
 4287POPC   D2A56968  19.576  16.099   6.590
 4287POPC   C3A56969  19.497  15.980   7.052
 4287POPC   C4A56970  19.621  15.776   7.474
 4287POPC   C1B56971  19.927  16.085   6.194
 4287POPC   C2B56972  20.053  16.309   6.549
 4287POPC   C3B56973  19.944  16.233   6.947
 4287POPC   C4B56974  19.875  16.202   7.359
 4288POPC   NC356975  34.888  33.905   5.371
 4288POPC   PO456976  34.225  33.589   5.261
 4288POPC   GL156977  34.520  33.636   5.582
 4288POPC   GL256978  34.440  33.952   5.666
 4288POPC   C1A56979  34.538  33.632   6.045
 4288POPC   D2A56980  34.434  33.618   6.481
 4288POPC   C3A56981  34.708  33.679   6.820
 4288POPC   C4A56982  34.535  33.656   7.277
 4288POPC   C1B56983  34.471  34.125   6.096
 4288POPC   C2B56984  34.499  34.128   6.557
 4288POPC   C3B56985  34.317  33.991   6.938
 4288POPC   C4B56986  34.254  34.207   7.318
 4289POPC   NC356987  16.412  40.039   5.623
 4289POPC   PO456988  16.873  39.553   5.398
 4289POPC   GL156989  16.990  39.719   5.766
 4289POPC   GL256990  16.916  40.078   5.764
 4289POPC   C1A56991  16.963  39.597   6.181
 4289POPC   D2A56992  17.162  39.756   6.571
 4289POPC   C3A56993  16.943  39.950   6.931
 4289POPC   C4A56994  16.667  39.730   7.246
 4289POPC   C1B56995  16.866  40.090   6.227
 4289POPC   C2B56996  16.627  39.819   6.537
 4289POPC   C3B56997  16.388  39.989   6.896
 4289POPC   C4B56998  16.598  40.231   7.252
 4290POPC   NC356999  40.099  34.027   5.259
 4290POPC   PO457000  39.815  33.539   5.524
 4290POPC   GL157001  39.906  33.759   5.860
 4290POPC   GL257002  40.248  33.867   5.808
 4290POPC   C1A57003  39.910  33.620   6.284
 4290POPC   D2A57004  39.856  33.745   6.710
 4290POPC   C3A57005  39.775  33.493   7.068
 4290POPC   C4A57006  40.082  33.345   7.357
 4290POPC   C1B57007  40.149  34.080   6.238
 4290POPC   C2B57008  40.160  34.133   6.722
 4290POPC   C3B57009  40.194  33.802   7.103
 4290POPC   C4B57010  40.346  33.748   7.564
 4291POPC   NC357011  35.488  29.240   5.195
 4291POPC   PO457012  35.298  29.892   5.273
 4291POPC   GL157013  35.247  30.014   5.691
 4291POPC   GL257014  35.497  30.239   5.773
 4291POPC   C1A57015  35.327  29.911   6.134
 4291POPC   D2A57016  35.146  30.038   6.513
 4291POPC   C3A57017  35.307  29.862   6.884
 4291POPC   C4A57018  35.088  29.634   7.189
 4291POPC   C1B57019  35.742  30.225   6.118
 4291POPC   C2B57020  35.652  30.102   6.522
 4291POPC   C3B57021  35.529  30.322   6.873
 4291POPC   C4B57022  35.605  30.121   7.234
 4292POPC   NC357023   9.908  27.016   5.475
 4292POPC   PO457024   9.327  26.698   5.461
 4292POPC   GL157025   9.575  26.781   5.809
 4292POPC   GL257026   9.924  26.680   5.843
 4292POPC   C1A57027   9.616  26.748   6.233
 4292POPC   D2A57028   9.600  27.074   6.489
 4292POPC   C3A57029   9.622  26.941   6.893
 4292POPC   C4A57030   9.732  26.776   7.264
 4292POPC   C1B57031  10.019  27.025   6.153
 4292POPC   C2B57032  10.042  26.837   6.575
 4292POPC   C3B57033  10.163  26.971   7.004
 4292POPC   C4B57034  10.250  26.694   7.334
 4293POPC   NC357035   3.328  32.250   5.063
 4293POPC   PO457036   3.653  32.705   5.453
 4293POPC   GL157037   3.692  32.423   5.736
 4293POPC   GL257038   3.396  32.195   5.702
 4293POPC   C1A57039   3.737  32.454   6.146
 4293POPC   D2A57040   3.602  32.126   6.336
 4293POPC   C3A57041   3.592  32.162   6.750
 4293POPC   C4A57042   3.625  32.171   7.182
 4293POPC   C1B57043   3.236  32.442   6.064
 4293POPC   C2B57044   3.363  32.576   6.495
 4293POPC   C3B57045   3.240  32.476   6.941
 4293POPC   C4B57046   3.276  32.797   7.242
 4294POPC   NC357047  36.206  22.254   5.465
 4294POPC   PO457048  35.910  21.631   5.411
 4294POPC   GL157049  35.902  21.907   5.822
 4294POPC   GL257050  35.985  22.280   5.906
 4294POPC   C1A57051  35.982  21.938   6.287
 4294POPC   D2A57052  35.769  21.897   6.643
 4294POPC   C3A57053  35.896  22.140   6.993
 4294POPC   C4A57054  36.087  21.960   7.345
 4294POPC   C1B57055  36.398  22.180   6.147
 4294POPC   C2B57056  36.456  22.257   6.609
 4294POPC   C3B57057  36.391  22.249   7.060
 4294POPC   C4B57058  36.363  22.363   7.516
 4295POPC   NC357059   8.297   3.011   5.500
 4295POPC   PO457060   8.367   2.407   5.466
 4295POPC   GL157061   8.229   2.595   5.857
 4295POPC   GL257062   7.913   2.780   5.818
 4295POPC   C1A57063   8.254   2.950   6.166
 4295POPC   D2A57064   8.235   3.060   6.598
 4295POPC   C3A57065   8.181   2.682   6.817
 4295POPC   C4A57066   8.256   2.652   7.237
 4295POPC   C1B57067   7.756   3.096   6.131
 4295POPC   C2B57068   7.712   3.045   6.591
 4295POPC   C3B57069   7.884   3.039   7.044
 4295POPC   C4B57070   7.838   2.888   7.472
 4296POPC   NC357071  11.167   1.943   4.952
 4296POPC   PO457072  11.388   1.657   5.510
 4296POPC   GL157073  11.339   2.006   5.783
 4296POPC   GL257074  10.986   2.000   5.887
 4296POPC   C1A57075  11.383   2.017   6.247
 4296POPC   D2A57076  11.225   1.713   6.560
 4296POPC   C3A57077  11.299   1.753   6.991
 4296POPC   C4A57078  11.511   1.987   7.266
 4296POPC   C1B57079  10.941   2.250   6.262
 4296POPC   C2B57080  11.063   2.185   6.712
 4296POPC   C3B57081  10.902   2.117   7.136
 4296POPC   C4B57082  11.062   1.890   7.477
 4297POPC   NC357083  36.372  43.476   5.477
 4297POPC   PO457084  36.113  44.094   5.575
 4297POPC   GL157085  36.238  43.813   5.894
 4297POPC   GL257086  35.957  43.601   5.837
 4297POPC   C1A57087  36.296  43.984   6.337
 4297POPC   D2A57088  36.467  43.989   6.790
 4297POPC   C3A57089  36.128  44.056   7.082
 4297POPC   C4A57090  35.806  44.282   7.289
 4297POPC   C1B57091  36.022  43.545   6.283
 4297POPC   C2B57092  36.020  43.725   6.685
 4297POPC   C3B57093  35.982  43.573   7.078
 4297POPC   C4B57094  35.867  43.768   7.448
 4298POPC   NC357095   7.183  10.949   5.462
 4298POPC   PO457096   7.165  10.268   5.466
 4298POPC   GL157097   7.305  10.590   5.816
 4298POPC   GL257098   7.083  10.788   6.003
 4298POPC   C1A57099   7.589  10.679   6.173
 4298POPC   D2A57100   7.736  10.350   6.457
 4298POPC   C3A57101   7.796  10.324   6.908
 4298POPC   C4A57102   7.614  10.077   7.234
 4298POPC   C1B57103   7.168  10.466   6.360
 4298POPC   C2B57104   7.312  10.175   6.718
 4298POPC   C3B57105   7.168  10.266   7.130
 4298POPC   C4B57106   7.456  10.608   7.203
 4299POPC   NC357107   0.842  38.524   5.468
 4299POPC   PO457108   1.476  38.725   5.473
 4299POPC   GL157109   1.226  38.586   5.806
 4299POPC   GL257110   1.218  38.236   5.832
 4299POPC   C1A57111   0.948  38.582   6.159
 4299POPC   D2A57112   1.190  38.594   6.530
 4299POPC   C3A57113   0.919  38.618   6.860
 4299POPC   C4A57114   1.033  38.670   7.247
 4299POPC   C1B57115   1.175  38.129   6.272
 4299POPC   C2B57116   1.052  38.136   6.707
 4299POPC   C3B57117   1.086  38.160   7.125
 4299POPC   C4B57118   1.452  38.108   7.367
 4300POPC   NC357119  13.409  44.862   5.542
 4300POPC   PO457120  12.751  44.718   5.365
 4300POPC   GL157121  12.778  44.515   5.755
 4300POPC   GL257122  13.134  44.531   5.837
 4300POPC   C1A57123  12.735  44.662   6.191
 4300POPC   D2A57124  12.924  44.709   6.614
 4300POPC   C3A57125  12.708  44.760   6.984
 4300POPC   C4A57126  12.557  44.466   7.286
 4300POPC   C1B57127  13.225  44.831   6.178
 4300POPC   C2B57128  13.242   0.095   6.572
 4300POPC   C3B57129  13.246  44.931   7.024
 4300POPC   C4B57130  13.074  44.578   7.308
 4301POPC   NC357131  15.425  13.172   5.497
 4301POPC   PO457132  14.964  13.720   5.366
 4301POPC   GL157133  15.119  13.805   5.769
 4301POPC   GL257134  15.461  13.920   5.816
 4301POPC   C1A57135  15.177  13.520   6.123
 4301POPC   D2A57136  15.430  13.429   6.485
 4301POPC   C3A57137  15.249  13.633   6.823
 4301POPC   C4A57138  14.990  13.568   7.172
 4301POPC   C1B57139  15.603  13.828   6.216
 4301POPC   C2B57140  15.573  14.002   6.659
 4301POPC   C3B57141  15.688  13.831   7.078
 4301POPC   C4B57142  15.510  13.473   7.246
 4302POPC   NC357143  17.491  27.079   5.179
 4302POPC   PO457144  17.501  26.516   5.390
 4302POPC   GL157145  17.617  26.885   5.659
 4302POPC   GL257146  17.318  27.099   5.705
 4302POPC   C1A57147  17.692  26.812   6.108
 4302POPC   D2A57148  17.940  26.616   6.424
 4302POPC   C3A57149  17.750  26.708   6.804
 4302POPC   C4A57150  17.612  26.846   7.206
 4302POPC   C1B57151  17.216  26.699   5.965
 4302POPC   C2B57152  17.234  26.687   6.401
 4302POPC   C3B57153  17.245  26.836   6.829
 4302POPC   C4B57154  17.098  26.742   7.241
 4303POPC   NC357155  27.020   4.411   5.251
 4303POPC   PO457156  27.638   4.232   5.569
 4303POPC   GL157157  27.625   4.313   6.007
 4303POPC   GL257158  27.547   4.637   5.899
 4303POPC   C1A57159  27.377   4.346   6.398
 4303POPC   D2A57160  27.503   4.186   6.819
 4303POPC   C3A57161  27.367   4.259   7.214
 4303POPC   C4A57162  27.730   4.305   7.464
 4303POPC   C1B57163  27.786   4.729   6.246
 4303POPC   C2B57164  27.729   4.645   6.639
 4303POPC   C3B57165  27.848   4.541   7.007
 4303POPC   C4B57166  27.834   4.806   7.331
 4304POPC   NC357167  40.441  13.718   5.382
 4304POPC   PO457168  40.528  13.093   5.557
 4304POPC   GL157169  40.759  13.394   5.833
 4304POPC   GL257170  40.721  13.749   5.799
 4304POPC   C1A57171  40.872  13.557   6.246
 4304POPC   D2A57172  41.081  13.392   6.579
 4304POPC   C3A57173  40.999  13.518   6.983
 4304POPC   C4A57174  41.125  13.608   7.404
 4304POPC   C1B57175  40.430  13.838   6.111
 4304POPC   C2B57176  40.523  13.900   6.547
 4304POPC   C3B57177  40.507  13.719   6.956
 4304POPC   C4B57178  40.678  13.838   7.340
 4305POPC   NC357179  12.998  10.690   5.149
 4305POPC   PO457180  12.452  10.475   5.385
 4305POPC   GL157181  12.661  10.605   5.799
 4305POPC   GL257182  13.041  10.581   5.791
 4305POPC   C1A57183  12.783  10.593   6.247
 4305POPC   D2A57184  12.578  10.540   6.640
 4305POPC   C3A57185  12.672  10.681   7.047
 4305POPC   C4A57186  12.666  10.303   7.319
 4305POPC   C1B57187  13.301  10.514   6.166
 4305POPC   C2B57188  13.169  10.440   6.586
 4305POPC   C3B57189  13.068  10.368   7.009
 4305POPC   C4B57190  13.093  10.627   7.355
 4306POPC   NC357191   6.236  22.364   5.502
 4306POPC   PO457192   6.889  22.373   5.549
 4306POPC   GL157193   6.598  22.168   5.834
 4306POPC   GL257194   6.465  21.856   5.731
 4306POPC   C1A57195   6.530  22.222   6.293
 4306POPC   D2A57196   6.858  22.208   6.633
 4306POPC   C3A57197   6.632  22.406   6.962
 4306POPC   C4A57198   6.430  22.221   7.305
 4306POPC   C1B57199   6.720  21.778   6.136
 4306POPC   C2B57200   6.593  21.760   6.576
 4306POPC   C3B57201   6.725  21.854   7.003
 4306POPC   C4B57202   6.988  22.165   7.213
 4307POPC   NC357203  16.557  11.855   5.476
 4307POPC   PO457204  16.398  12.442   5.277
 4307POPC   GL157205  16.591  12.381   5.734
 4307POPC   GL257206  16.741  12.077   5.903
 4307POPC   C1A57207  16.794  12.500   6.151
 4307POPC   D2A57208  16.701  12.266   6.554
 4307POPC   C3A57209  16.844  12.288   6.997
 4307POPC   C4A57210  16.626  12.131   7.376
 4307POPC   C1B57211  17.056  12.076   6.226
 4307POPC   C2B57212  17.159  12.002   6.607
 4307POPC   C3B57213  17.153  11.881   7.002
 4307POPC   C4B57214  17.091  11.948   7.424
 4308POPC   NC357215  40.146  17.092   5.608
 4308POPC   PO457216  39.983  17.635   5.372
 4308POPC   GL157217  39.993  17.568   5.799
 4308POPC   GL257218  40.267  17.805   5.830
 4308POPC   C1A57219  39.827  17.429   6.207
 4308POPC   D2A57220  39.753  17.220   6.611
 4308POPC   C3A57221  39.770  17.509   6.978
 4308POPC   C4A57222  39.757  17.433   7.436
 4308POPC   C1B57223  40.288  17.634   6.232
 4308POPC   C2B57224  40.218  17.430   6.639
 4308POPC   C3B57225  40.299  17.516   7.086
 4308POPC   C4B57226  40.375  17.856   7.382
 4309POPC   NC357227  17.645  28.754   5.465
 4309POPC   PO457228  17.777  28.106   5.354
 4309POPC   GL157229  17.637  28.209   5.810
 4309POPC   GL257230  17.688  28.554   5.942
 4309POPC   C1A57231  17.322  28.125   6.180
 4309POPC   D2A57232  17.109  28.340   6.566
 4309POPC   C3A57233  17.233  28.206   6.991
 4309POPC   C4A57234  17.296  28.354   7.403
 4309POPC   C1B57235  17.975  28.675   6.272
 4309POPC   C2B57236  18.038  28.520   6.702
 4309POPC   C3B57237  17.703  28.488   7.029
 4309POPC   C4B57238  17.675  28.705   7.401
 4310POPC   NC357239  36.717  25.606   5.471
 4310POPC   PO457240  36.964  26.294   5.409
 4310POPC   GL157241  37.010  25.950   5.710
 4310POPC   GL257242  37.345  25.859   5.706
 4310POPC   C1A57243  36.868  25.840   6.159
 4310POPC   D2A57244  36.595  26.041   6.491
 4310POPC   C3A57245  36.709  26.091   6.905
 4310POPC   C4A57246  36.646  26.237   7.326
 4310POPC   C1B57247  37.286  26.102   6.110
 4310POPC   C2B57248  37.135  26.066   6.571
 4310POPC   C3B57249  37.196  26.011   7.042
 4310POPC   C4B57250  37.074  26.033   7.499
 4311POPC   NC357251  29.143  31.062   5.328
 4311POPC   PO457252  28.856  30.485   5.394
 4311POPC   GL157253  28.985  30.792   5.726
 4311POPC   GL257254  29.363  30.844   5.748
 4311POPC   C1A57255  28.843  30.855   6.143
 4311POPC   D2A57256  28.948  30.612   6.521
 4311POPC   C3A57257  28.892  30.781   6.945
 4311POPC   C4A57258  28.880  30.600   7.359
 4311POPC   C1B57259  29.351  30.766   6.209
 4311POPC   C2B57260  29.414  30.809   6.688
 4311POPC   C3B57261  29.371  30.712   7.129
 4311POPC   C4B57262  29.176  31.007   7.397
 4312POPC   NC357263  30.214   6.335   5.391
 4312POPC   PO457264  29.720   6.833   5.348
 4312POPC   GL157265  29.785   6.717   5.789
 4312POPC   GL257266  30.170   6.654   5.796
 4312POPC   C1A57267  29.567   6.535   6.173
 4312POPC   D2A57268  29.683   6.458   6.606
 4312POPC   C3A57269  29.823   6.850   6.748
 4312POPC   C4A57270  29.843   6.944   7.173
 4312POPC   C1B57271  30.089   6.728   6.231
 4312POPC   C2B57272  30.238   6.549   6.609
 4312POPC   C3B57273  30.086   6.498   7.016
 4312POPC   C4B57274  30.192   6.402   7.410
 4313POPC   NC357275  15.088  30.873   5.324
 4313POPC   PO457276  15.701  31.086   5.397
 4313POPC   GL157277  15.487  30.778   5.787
 4313POPC   GL257278  15.151  30.679   5.839
 4313POPC   C1A57279  15.540  30.639   6.236
 4313POPC   D2A57280  15.405  30.453   6.643
 4313POPC   C3A57281  15.343  30.656   7.054
 4313POPC   C4A57282  15.343  30.505   7.496
 4313POPC   C1B57283  15.031  30.596   6.305
 4313POPC   C2B57284  14.911  30.514   6.775
 4313POPC   C3B57285  14.898  30.371   7.215
 4313POPC   C4B57286  14.866  30.580   7.638
 4314POPC   NC357287  20.023   3.712   5.206
 4314POPC   PO457288  19.391   3.681   5.294
 4314POPC   GL157289  19.671   3.757   5.694
 4314POPC   GL257290  20.053   3.767   5.717
 4314POPC   C1A57291  19.577   3.725   6.179
 4314POPC   D2A57292  19.510   3.479   6.581
 4314POPC   C3A57293  19.596   3.673   7.008
 4314POPC   C4A57294  19.718   3.326   7.292
 4314POPC   C1B57295  20.089   3.697   6.182
 4314POPC   C2B57296  19.970   3.709   6.641
 4314POPC   C3B57297  20.110   3.676   7.085
 4314POPC   C4B57298  20.235   3.398   7.446
 4315POPC   NC357299  44.938   5.067   5.453
 4315POPC   PO457300  44.302   4.833   5.544
 4315POPC   GL157301  44.653   4.941   5.865
 4315POPC   GL257302  44.707   5.280   6.007
 4315POPC   C1A57303  44.965   4.839   6.214
 4315POPC   D2A57304   0.068   4.718   6.662
 4315POPC   C3A57305  44.784   4.903   7.007
 4315POPC   C4A57306  44.756   5.018   7.475
 4315POPC   C1B57307  44.664   5.193   6.475
 4315POPC   C2B57308  44.641   5.395   6.903
 4315POPC   C3B57309  44.496   5.426   7.325
 4315POPC   C4B57310  44.475   5.369   7.757
 4316POPC   NC357311  17.847   0.910   5.532
 4316POPC   PO457312  18.421   1.290   5.420
 4316POPC   GL157313  18.460   1.519   5.768
 4316POPC   GL257314  18.166   1.274   5.859
 4316POPC   C1A57315  18.362   1.604   6.188
 4316POPC   D2A57316  18.436   1.431   6.551
 4316POPC   C3A57317  18.423   1.541   6.958
 4316POPC   C4A57318  18.233   1.229   7.188
 4316POPC   C1B57319  18.553   1.128   6.080
 4316POPC   C2B57320  18.707   1.012   6.511
 4316POPC   C3B57321  18.655   1.046   6.982
 4316POPC   C4B57322  18.582   0.793   7.385
 4317POPC   NC357323  38.233  38.673   5.508
 4317POPC   PO457324  38.582  38.083   5.242
 4317POPC   GL157325  38.526  38.290   5.671
 4317POPC   GL257326  38.783  38.553   5.708
 4317POPC   C1A57327  38.456  38.526   6.113
 4317POPC   D2A57328  38.446  38.859   6.473
 4317POPC   C3A57329  38.256  38.788   6.882
 4317POPC   C4A57330  38.343  38.408   7.135
 4317POPC   C1B57331  38.905  38.799   6.085
 4317POPC   C2B57332  38.929  38.627   6.492
 4317POPC   C3B57333  38.752  38.685   6.925
 4317POPC   C4B57334  38.676  38.672   7.418
 4318POPC   NC357335   9.300  42.389   5.290
 4318POPC   PO457336   8.967  41.898   5.554
 4318POPC   GL157337   9.043  42.256   5.789
 4318POPC   GL257338   8.729  42.433   5.731
 4318POPC   C1A57339   9.222  42.308   6.225
 4318POPC   D2A57340   9.390  42.317   6.647
 4318POPC   C3A57341   9.112  42.398   6.998
 4318POPC   C4A57342   8.864  42.088   7.243
 4318POPC   C1B57343   8.787  42.550   6.150
 4318POPC   C2B57344   8.840  42.463   6.566
 4318POPC   C3B57345   8.597  42.441   6.935
 4318POPC   C4B57346   8.761  42.579   7.331
 4319POPC   NC357347  15.304  39.267   4.936
 4319POPC   PO457348  14.928  39.297   5.529
 4319POPC   GL157349  15.018  39.390   5.908
 4319POPC   GL257350  15.324  39.310   5.954
 4319POPC   C1A57351  14.937  39.261   6.309
 4319POPC   D2A57352  15.121  39.315   6.698
 4319POPC   C3A57353  15.086  39.540   7.101
 4319POPC   C4A57354  15.091  39.586   7.557
 4319POPC   C1B57355  15.468  39.033   6.271
 4319POPC   C2B57356  15.436  38.913   6.688
 4319POPC   C3B57357  15.221  38.994   7.085
 4319POPC   C4B57358  15.424  39.255   7.369
 4320POPC   NC357359   8.784  24.184   5.144
 4320POPC   PO457360   9.276  23.673   5.434
 4320POPC   GL157361   9.125  23.806   5.836
 4320POPC   GL257362   9.238  24.102   5.870
 4320POPC   C1A57363   8.903  23.544   6.149
 4320POPC   D2A57364   9.007  23.346   6.533
 4320POPC   C3A57365   8.861  23.462   6.907
 4320POPC   C4A57366   9.007  23.642   7.289
 4320POPC   C1B57367   8.894  24.074   6.177
 4320POPC   C2B57368   8.852  23.862   6.546
 4320POPC   C3B57369   8.914  23.982   6.930
 4320POPC   C4B57370   8.910  24.298   7.185
 4321POPC   NC357371  24.786  26.432   5.566
 4321POPC   PO457372  25.192  26.930   5.506
 4321POPC   GL157373  25.285  26.765   5.856
 4321POPC   GL257374  25.337  26.453   5.706
 4321POPC   C1A57375  25.151  26.764   6.262
 4321POPC   D2A57376  25.000  26.602   6.635
 4321POPC   C3A57377  25.079  26.886   6.923
 4321POPC   C4A57378  25.113  26.946   7.310
 4321POPC   C1B57379  25.491  26.356   6.124
 4321POPC   C2B57380  25.495  26.276   6.576
 4321POPC   C3B57381  25.323  26.423   6.999
 4321POPC   C4B57382  25.339  26.516   7.451
 4322POPC   NC357383   3.422  17.755   5.440
 4322POPC   PO457384   3.901  17.219   5.292
 4322POPC   GL157385   3.891  17.351   5.750
 4322POPC   GL257386   3.649  17.612   5.913
 4322POPC   C1A57387   3.745  17.197   6.177
 4322POPC   D2A57388   3.311  17.225   6.418
 4322POPC   C3A57389   3.407  17.359   6.844
 4322POPC   C4A57390   3.765  17.301   7.145
 4322POPC   C1B57391   3.610  17.637   6.374
 4322POPC   C2B57392   3.836  17.658   6.746
 4322POPC   C3B57393   3.659  17.800   7.099
 4322POPC   C4B57394   3.344  17.593   7.300
 4323POPC   NC357395  17.634  19.462   5.355
 4323POPC   PO457396  17.247  20.023   5.094
 4323POPC   GL157397  17.386  19.916   5.614
 4323POPC   GL257398  17.590  19.629   5.816
 4323POPC   C1A57399  17.412  19.970   6.125
 4323POPC   D2A57400  17.498  19.663   6.473
 4323POPC   C3A57401  17.522  19.880   6.829
 4323POPC   C4A57402  17.520  20.190   7.148
 4323POPC   C1B57403  17.196  19.509   6.056
 4323POPC   C2B57404  17.086  19.369   6.470
 4323POPC   C3B57405  17.170  19.481   6.893
 4323POPC   C4B57406  17.356  19.673   7.255
 4324POPC   NC357407  27.835  20.936   5.471
 4324POPC   PO457408  27.397  20.482   5.352
 4324POPC   GL157409  27.612  20.400   5.703
 4324POPC   GL257410  27.574  20.725   5.854
 4324POPC   C1A57411  27.565  20.297   6.115
 4324POPC   D2A57412  27.631  20.502   6.488
 4324POPC   C3A57413  27.657  20.297   6.857
 4324POPC   C4A57414  27.278  20.360   7.064
 4324POPC   C1B57415  27.880  20.809   6.175
 4324POPC   C2B57416  27.810  20.977   6.611
 4324POPC   C3B57417  27.559  20.802   6.915
 4324POPC   C4B57418  27.589  20.626   7.328
 4325POPC   NC357419   1.591  13.751   5.513
 4325POPC   PO457420   2.117  13.458   5.234
 4325POPC   GL157421   2.152  13.638   5.695
 4325POPC   GL257422   1.981  13.937   5.817
 4325POPC   C1A57423   2.095  13.501   6.160
 4325POPC   D2A57424   1.847  13.548   6.556
 4325POPC   C3A57425   2.047  13.560   6.979
 4325POPC   C4A57426   2.210  13.758   7.375
 4325POPC   C1B57427   2.094  14.029   6.243
 4325POPC   C2B57428   1.923  14.042   6.659
 4325POPC   C3B57429   1.959  14.093   7.048
 4325POPC   C4B57430   1.730  13.842   7.260
 4326POPC   NC357431  12.390  15.700   5.038
 4326POPC   PO457432  12.456  16.193   5.470
 4326POPC   GL157433  12.240  16.121   5.896
 4326POPC   GL257434  12.089  15.788   5.941
 4326POPC   C1A57435  12.102  16.097   6.371
 4326POPC   D2A57436  11.946  15.911   6.787
 4326POPC   C3A57437  12.064  15.951   7.246
 4326POPC   C4A57438  12.380  15.752   7.528
 4326POPC   C1B57439  11.777  15.657   6.275
 4326POPC   C2B57440  11.595  15.561   6.710
 4326POPC   C3B57441  11.630  15.700   7.148
 4326POPC   C4B57442  11.590  16.089   7.420
 4327POPC   NC357443   8.474  22.965   5.401
 4327POPC   PO457444   7.862  23.073   5.409
 4327POPC   GL157445   8.131  22.956   5.803
 4327POPC   GL257446   8.430  22.735   5.858
 4327POPC   C1A57447   8.261  23.166   6.172
 4327POPC   D2A57448   8.090  23.176   6.585
 4327POPC   C3A57449   8.299  23.230   6.991
 4327POPC   C4A57450   8.159  22.980   7.373
 4327POPC   C1B57451   8.311  22.656   6.303
 4327POPC   C2B57452   8.223  22.706   6.750
 4327POPC   C3B57453   8.525  22.784   7.092
 4327POPC   C4B57454   8.586  22.799   7.599
 4328POPC   NC357455  36.799   1.641   5.079
 4328POPC   PO457456  36.630   2.147   5.497
 4328POPC   GL157457  36.763   1.930   5.869
 4328POPC   GL257458  37.120   1.985   5.828
 4328POPC   C1A57459  36.932   1.820   6.308
 4328POPC   D2A57460  37.226   1.895   6.657
 4328POPC   C3A57461  37.106   1.767   7.088
 4328POPC   C4A57462  36.873   1.723   7.480
 4328POPC   C1B57463  36.978   2.298   6.148
 4328POPC   C2B57464  36.899   2.342   6.575
 4328POPC   C3B57465  37.070   2.295   6.983
 4328POPC   C4B57466  36.977   2.443   7.374
 4329POPC   NC357467   3.568  23.604   5.342
 4329POPC   PO457468   3.229  23.177   5.699
 4329POPC   GL157469   3.545  23.466   5.899
 4329POPC   GL257470   3.946  23.518   5.943
 4329POPC   C1A57471   3.571  23.563   6.337
 4329POPC   D2A57472   3.290  23.532   6.708
 4329POPC   C3A57473   3.493  23.510   7.113
 4329POPC   C4A57474   3.531  23.815   7.448
 4329POPC   C1B57475   4.068  23.763   6.285
 4329POPC   C2B57476   3.990  23.660   6.711
 4329POPC   C3B57477   3.959  23.736   7.144
 4329POPC   C4B57478   4.001  23.406   7.415
 4330POPC   NC357479  21.417  12.687   5.435
 4330POPC   PO457480  21.906  13.243   5.537
 4330POPC   GL157481  21.576  13.138   5.784
 4330POPC   GL257482  21.294  12.905   5.880
 4330POPC   C1A57483  21.612  13.082   6.216
 4330POPC   D2A57484  21.281  12.862   6.422
 4330POPC   C3A57485  21.282  13.015   6.818
 4330POPC   C4A57486  21.537  12.871   7.137
 4330POPC   C1B57487  21.165  12.463   6.048
 4330POPC   C2B57488  21.107  12.300   6.471
 4330POPC   C3B57489  21.149  12.520   6.876
 4330POPC   C4B57490  21.138  12.660   7.324
 4331POPC   NC357491  21.119  40.931   5.473
 4331POPC   PO457492  20.431  40.735   5.365
 4331POPC   GL157493  20.469  40.682   5.766
 4331POPC   GL257494  20.829  40.619   5.775
 4331POPC   C1A57495  20.518  40.918   6.138
 4331POPC   D2A57496  20.475  41.064   6.551
 4331POPC   C3A57497  20.392  40.829   6.915
 4331POPC   C4A57498  20.583  40.959   7.287
 4331POPC   C1B57499  20.981  40.730   6.226
 4331POPC   C2B57500  20.860  40.754   6.704
 4331POPC   C3B57501  21.046  40.764   7.108
 4331POPC   C4B57502  21.065  40.874   7.554
 4332POPC   NC357503  33.532  41.311   5.355
 4332POPC   PO457504  33.860  40.724   5.382
 4332POPC   GL157505  33.750  41.012   5.751
 4332POPC   GL257506  33.416  41.037   5.872
 4332POPC   C1A57507  33.799  41.122   6.208
 4332POPC   D2A57508  34.008  41.180   6.639
 4332POPC   C3A57509  34.062  40.809   6.940
 4332POPC   C4A57510  34.021  40.795   7.414
 4332POPC   C1B57511  33.389  40.811   6.253
 4332POPC   C2B57512  33.516  41.011   6.649
 4332POPC   C3B57513  33.532  40.899   7.065
 4332POPC   C4B57514  33.658  40.497   7.213
 4333POPC   NC357515   6.542  11.616   5.371
 4333POPC   PO457516   6.576  12.231   5.290
 4333POPC   GL157517   6.634  12.097   5.711
 4333POPC   GL257518   6.600  11.759   5.866
 4333POPC   C1A57519   6.645  12.193   6.137
 4333POPC   D2A57520   6.530  12.094   6.560
 4333POPC   C3A57521   6.650  12.197   6.988
 4333POPC   C4A57522   6.530  12.056   7.379
 4333POPC   C1B57523   6.801  11.714   6.293
 4333POPC   C2B57524   6.906  11.803   6.758
 4333POPC   C3B57525   7.018  11.881   7.196
 4333POPC   C4B57526   7.379  11.894   7.517
 4334POPC   NC357527  44.251   9.560   5.463
 4334POPC   PO457528  43.553   9.638   5.384
 4334POPC   GL157529  43.712   9.524   5.788
 4334POPC   GL257530  43.981   9.797   5.845
 4334POPC   C1A57531  43.705   9.565   6.248
 4334POPC   D2A57532  43.495   9.460   6.642
 4334POPC   C3A57533  43.682   9.511   7.047
 4334POPC   C4A57534  44.142   9.582   7.156
 4334POPC   C1B57535  44.114   9.901   6.277
 4334POPC   C2B57536  43.879   9.845   6.651
 4334POPC   C3B57537  43.853   9.981   7.034
 4334POPC   C4B57538  44.087  10.036   7.427
 4335POPC   NC357539   6.287  40.892   5.412
 4335POPC   PO457540   6.869  40.764   5.295
 4335POPC   GL157541   6.723  40.914   5.687
 4335POPC   GL257542   6.876  41.201   5.740
 4335POPC   C1A57543   6.503  40.864   6.081
 4335POPC   D2A57544   6.622  40.670   6.472
 4335POPC   C3A57545   6.562  40.831   6.857
 4335POPC   C4A57546   6.603  40.791   7.261
 4335POPC   C1B57547   7.047  41.024   6.139
 4335POPC   C2B57548   7.108  40.817   6.551
 4335POPC   C3B57549   7.128  40.985   6.958
 4335POPC   C4B57550   7.029  41.040   7.399
 4336POPC   NC357551  18.861  22.539   5.306
 4336POPC   PO457552  19.064  23.185   5.255
 4336POPC   GL157553  19.116  23.034   5.670
 4336POPC   GL257554  18.819  22.897   5.695
 4336POPC   C1A57555  19.338  23.127   6.052
 4336POPC   D2A57556  19.435  23.319   6.411
 4336POPC   C3A57557  19.467  23.165   6.813
 4336POPC   C4A57558  19.282  23.151   7.228
 4336POPC   C1B57559  18.960  22.796   6.114
 4336POPC   C2B57560  19.236  22.822   6.480
 4336POPC   C3B57561  19.228  22.703   6.914
 4336POPC   C4B57562  18.866  22.843   7.098
 4337POPC   NC357563   3.769  38.513   5.349
 4337POPC   PO457564   4.513  38.514   5.447
 4337POPC   GL157565   4.411  38.588   5.864
 4337POPC   GL257566   4.273  38.233   5.896
 4337POPC   C1A57567   4.190  38.597   6.272
 4337POPC   D2A57568   4.058  38.319   6.589
 4337POPC   C3A57569   4.233  38.351   7.002
 4337POPC   C4A57570   4.246  38.719   7.224
 4337POPC   C1B57571   4.607  38.229   6.196
 4337POPC   C2B57572   4.556  38.183   6.621
 4337POPC   C3B57573   4.429  37.877   6.903
 4337POPC   C4B57574   4.306  37.943   7.336
 4338POPC   NC357575   2.855  14.924   5.453
 4338POPC   PO457576   2.292  15.208   5.241
 4338POPC   GL157577   2.632  15.295   5.698
 4338POPC   GL257578   2.966  15.222   5.844
 4338POPC   C1A57579   2.597  15.177   6.182
 4338POPC   D2A57580   2.572  15.305   6.639
 4338POPC   C3A57581   2.610  15.062   7.021
 4338POPC   C4A57582   2.955  14.870   7.203
 4338POPC   C1B57583   3.053  15.398   6.248
 4338POPC   C2B57584   3.166  15.374   6.668
 4338POPC   C3B57585   3.015  15.368   7.080
 4338POPC   C4B57586   2.802  15.476   7.437
 4339POPC   NC357587  32.063  32.963   5.318
 4339POPC   PO457588  32.575  33.202   5.364
 4339POPC   GL157589  32.422  32.875   5.692
 4339POPC   GL257590  32.190  33.108   5.824
 4339POPC   C1A57591  32.306  32.732   6.157
 4339POPC   D2A57592  32.147  32.939   6.530
 4339POPC   C3A57593  32.312  32.819   6.923
 4339POPC   C4A57594  32.095  32.632   7.235
 4339POPC   C1B57595  31.854  33.130   6.147
 4339POPC   C2B57596  31.659  33.152   6.581
 4339POPC   C3B57597  31.860  33.066   6.987
 4339POPC   C4B57598  32.185  33.256   7.234
 4340POPC   NC357599  40.570   2.803   5.270
 4340POPC   PO457600  40.702   2.162   5.306
 4340POPC   GL157601  40.799   2.468   5.681
 4340POPC   GL257602  40.632   2.798   5.786
 4340POPC   C1A57603  40.862   2.532   6.156
 4340POPC   D2A57604  40.690   2.897   6.419
 4340POPC   C3A57605  40.656   2.842   6.857
 4340POPC   C4A57606  40.692   2.953   7.284
 4340POPC   C1B57607  40.290   2.831   6.123
 4340POPC   C2B57608  40.202   2.892   6.614
 4340POPC   C3B57609  40.196   2.935   7.093
 4340POPC   C4B57610  40.255   2.967   7.566
 4341POPC   NC357611  18.546  43.420   5.410
 4341POPC   PO457612  18.283  44.045   5.392
 4341POPC   GL157613  18.162  43.998   5.802
 4341POPC   GL257614  18.385  43.725   5.828
 4341POPC   C1A57615  18.011  43.934   6.235
 4341POPC   D2A57616  18.197  43.975   6.646
 4341POPC   C3A57617  18.023  43.898   7.061
 4341POPC   C4A57618  18.069  44.099   7.463
 4341POPC   C1B57619  18.527  43.840   6.246
 4341POPC   C2B57620  18.535  43.583   6.639
 4341POPC   C3B57621  18.713  43.573   7.047
 4341POPC   C4B57622  18.459  43.782   7.374
 4342POPC   NC357623  14.460  27.639   5.176
 4342POPC   PO457624  14.404  27.206   5.699
 4342POPC   GL157625  14.475  27.654   5.828
 4342POPC   GL257626  14.685  27.924   5.686
 4342POPC   C1A57627  14.478  27.720   6.268
 4342POPC   D2A57628  14.219  27.649   6.591
 4342POPC   C3A57629  14.459  27.501   6.948
 4342POPC   C4A57630  14.444  27.349   7.380
 4342POPC   C1B57631  14.668  28.148   6.093
 4342POPC   C2B57632  14.825  28.053   6.534
 4342POPC   C3B57633  14.788  27.914   6.973
 4342POPC   C4B57634  14.572  27.908   7.382
 4343POPC   NC357635  10.707  41.746   5.543
 4343POPC   PO457636  10.120  41.689   5.212
 4343POPC   GL157637  10.258  41.589   5.691
 4343POPC   GL257638  10.409  41.850   5.950
 4343POPC   C1A57639  10.379  41.341   6.112
 4343POPC   D2A57640  10.628  41.272   6.528
 4343POPC   C3A57641  10.466  41.429   6.931
 4343POPC   C4A57642  10.308  41.824   7.074
 4343POPC   C1B57643  10.795  41.633   6.192
 4343POPC   C2B57644  11.041  41.611   6.575
 4343POPC   C3B57645  10.979  41.448   6.954
 4343POPC   C4B57646  10.812  41.535   7.366
 4344POPC   NC357647  42.724   1.192   5.474
 4344POPC   PO457648  42.056   1.387   5.433
 4344POPC   GL157649  42.176   1.274   5.845
 4344POPC   GL257650  42.376   1.021   5.852
 4344POPC   C1A57651  42.298   1.389   6.266
 4344POPC   D2A57652  42.172   1.625   6.614
 4344POPC   C3A57653  42.422   1.587   6.976
 4344POPC   C4A57654  42.472   1.266   7.258
 4344POPC   C1B57655  42.229   0.890   6.226
 4344POPC   C2B57656  42.334   1.025   6.651
 4344POPC   C3B57657  42.398   0.778   7.012
 4344POPC   C4B57658  42.396   0.727   7.463
 4345POPC   NC357659  10.367  21.746   5.482
 4345POPC   PO457660  10.248  21.144   5.304
 4345POPC   GL157661  10.504  21.161   5.724
 4345POPC   GL257662  10.343  21.412   5.867
 4345POPC   C1A57663  10.671  21.212   6.189
 4345POPC   D2A57664  10.476  21.156   6.604
 4345POPC   C3A57665  10.574  21.430   6.951
 4345POPC   C4A57666  10.919  21.378   7.211
 4345POPC   C1B57667  10.252  21.495   6.278
 4345POPC   C2B57668  10.375  21.752   6.616
 4345POPC   C3B57669  10.146  21.758   6.983
 4345POPC   C4B57670  10.225  21.512   7.347
 4346POPC   NC357671  11.577   8.759   5.539
 4346POPC   PO457672  11.207   9.314   5.368
 4346POPC   GL157673  11.422   9.224   5.729
 4346POPC   GL257674  11.729   9.393   5.733
 4346POPC   C1A57675  11.317   8.995   6.121
 4346POPC   D2A57676  11.202   9.208   6.483
 4346POPC   C3A57677  11.072   9.032   6.870
 4346POPC   C4A57678  11.113   8.898   7.274
 4346POPC   C1B57679  11.623   9.416   6.170
 4346POPC   C2B57680  11.715   9.128   6.519
 4346POPC   C3B57681  11.566   9.184   6.921
 4346POPC   C4B57682  11.519   9.475   7.254
 4347POPC   NC357683   2.694   7.428   5.357
 4347POPC   PO457684   2.612   6.839   5.512
 4347POPC   GL157685   2.525   7.196   5.782
 4347POPC   GL257686   2.844   7.394   5.836
 4347POPC   C1A57687   2.547   7.271   6.230
 4347POPC   D2A57688   2.847   7.156   6.557
 4347POPC   C3A57689   2.705   7.264   6.953
 4347POPC   C4A57690   2.535   7.082   7.309
 4347POPC   C1B57691   3.025   7.531   6.220
 4347POPC   C2B57692   3.071   7.673   6.646
 4347POPC   C3B57693   3.099   7.572   7.086
 4347POPC   C4B57694   2.717   7.593   7.357
 4348POPC   NC357695  24.564  36.502   5.130
 4348POPC   PO457696  24.304  37.047   5.561
 4348POPC   GL157697  24.552  37.149   5.867
 4348POPC   GL257698  24.302  36.956   6.074
 4348POPC   C1A57699  24.781  37.018   6.245
 4348POPC   D2A57700  24.569  36.822   6.627
 4348POPC   C3A57701  24.590  36.986   7.069
 4348POPC   C4A57702  24.660  36.832   7.499
 4348POPC   C1B57703  24.228  36.488   6.131
 4348POPC   C2B57704  24.331  36.296   6.514
 4348POPC   C3B57705  24.176  36.334   6.939
 4348POPC   C4B57706  24.100  36.546   7.335
 4349POPC   NC357707   0.184   8.678   5.599
 4349POPC   PO457708   0.656   9.117   5.501
 4349POPC   GL157709   0.399   9.057   5.869
 4349POPC   GL257710   0.038   9.153   5.864
 4349POPC   C1A57711   0.471   8.876   6.242
 4349POPC   D2A57712   0.584   9.075   6.598
 4349POPC   C3A57713   0.601   8.828   6.934
 4349POPC   C4A57714   0.343   8.847   7.290
 4349POPC   C1B57715   0.042   9.208   6.328
 4349POPC   C2B57716   0.166   9.322   6.753
 4349POPC   C3B57717   0.118   9.321   7.212
 4349POPC   C4B57718   0.002   9.238   7.683
 4350POPC   NC357719   5.898  28.086   5.232
 4350POPC   PO457720   6.243  28.715   5.394
 4350POPC   GL157721   5.989  28.513   5.735
 4350POPC   GL257722   6.124  28.176   5.794
 4350POPC   C1A57723   5.656  28.413   6.081
 4350POPC   D2A57724   5.634  28.186   6.514
 4350POPC   C3A57725   5.765  28.349   6.941
 4350POPC   C4A57726   5.822  28.203   7.322
 4350POPC   C1B57727   6.102  28.302   6.279
 4350POPC   C2B57728   6.229  28.407   6.715
 4350POPC   C3B57729   6.266  28.447   7.167
 4350POPC   C4B57730   6.375  28.565   7.584
 4351POPC   NC357731  39.519  14.955   5.145
 4351POPC   PO457732  39.036  15.392   5.429
 4351POPC   GL157733  39.041  15.374   5.848
 4351POPC   GL257734  39.360  15.493   5.877
 4351POPC   C1A57735  38.829  15.508   6.210
 4351POPC   D2A57736  38.916  15.279   6.550
 4351POPC   C3A57737  38.996  15.378   6.920
 4351POPC   C4A57738  38.876  15.212   7.273
 4351POPC   C1B57739  39.336  15.370   6.304
 4351POPC   C2B57740  39.401  15.113   6.674
 4351POPC   C3B57741  39.416  15.187   7.131
 4351POPC   C4B57742  39.696  15.117   7.475
 4352POPC   NC357743  15.937   7.534   5.336
 4352POPC   PO457744  15.731   6.888   5.330
 4352POPC   GL157745  15.734   7.191   5.718
 4352POPC   GL257746  16.058   7.362   5.785
 4352POPC   C1A57747  15.741   7.360   6.176
 4352POPC   D2A57748  15.890   7.212   6.581
 4352POPC   C3A57749  15.872   7.512   6.894
 4352POPC   C4A57750  15.740   7.576   7.307
 4352POPC   C1B57751  16.242   7.234   6.167
 4352POPC   C2B57752  16.407   7.182   6.561
 4352POPC   C3B57753  16.360   7.353   6.978
 4352POPC   C4B57754  16.218   7.119   7.337
 4353POPC   NC357755  25.267  32.642   5.568
 4353POPC   PO457756  25.440  33.287   5.417
 4353POPC   GL157757  25.169  33.112   5.753
 4353POPC   GL257758  24.834  33.027   5.681
 4353POPC   C1A57759  25.247  32.934   6.183
 4353POPC   D2A57760  25.168  32.765   6.593
 4353POPC   C3A57761  25.322  33.003   6.914
 4353POPC   C4A57762  25.523  32.858   7.290
 4353POPC   C1B57763  24.738  33.051   6.122
 4353POPC   C2B57764  24.677  32.810   6.495
 4353POPC   C3B57765  24.701  32.901   6.931
 4353POPC   C4B57766  24.939  33.019   7.263
 4354POPC   NC357767  40.804  23.801   5.221
 4354POPC   PO457768  40.262  23.444   5.370
 4354POPC   GL157769  40.565  23.672   5.646
 4354POPC   GL257770  40.928  23.563   5.709
 4354POPC   C1A57771  40.617  23.728   6.087
 4354POPC   D2A57772  40.784  23.365   6.357
 4354POPC   C3A57773  40.792  23.440   6.811
 4354POPC   C4A57774  40.579  23.788   7.007
 4354POPC   C1B57775  41.111  23.718   6.120
 4354POPC   C2B57776  40.941  23.944   6.470
 4354POPC   C3B57777  41.079  23.930   6.885
 4354POPC   C4B57778  41.246  23.589   7.104
 4355POPC   NC357779  35.527  35.447   5.202
 4355POPC   PO457780  35.058  35.223   5.231
 4355POPC   GL157781  35.344  35.245   5.668
 4355POPC   GL257782  35.600  35.515   5.732
 4355POPC   C1A57783  35.262  35.279   6.149
 4355POPC   D2A57784  35.081  35.137   6.571
 4355POPC   C3A57785  35.190  35.336   6.989
 4355POPC   C4A57786  35.152  35.380   7.475
 4355POPC   C1B57787  35.747  35.414   6.194
 4355POPC   C2B57788  35.673  35.554   6.652
 4355POPC   C3B57789  35.524  35.706   7.097
 4355POPC   C4B57790  35.358  35.879   7.508
 4356POPC   NC357791  11.679  11.985   5.543
 4356POPC   PO457792  11.082  11.789   5.329
 4356POPC   GL157793  11.177  11.770   5.760
 4356POPC   GL257794  11.477  11.612   5.810
 4356POPC   C1A57795  11.030  11.953   6.150
 4356POPC   D2A57796  11.141  12.205   6.505
 4356POPC   C3A57797  10.989  12.105   6.918
 4356POPC   C4A57798  11.285  12.140   7.240
 4356POPC   C1B57799  11.505  11.829   6.248
 4356POPC   C2B57800  11.453  11.839   6.699
 4356POPC   C3B57801  11.582  11.703   7.090
 4356POPC   C4B57802  11.564  11.838   7.521
 4357POPC   NC357803  28.087  23.247   5.178
 4357POPC   PO457804  28.623  22.825   5.324
 4357POPC   GL157805  28.400  22.974   5.694
 4357POPC   GL257806  28.589  23.270   5.776
 4357POPC   C1A57807  28.157  22.916   6.099
 4357POPC   D2A57808  28.076  23.060   6.542
 4357POPC   C3A57809  28.267  22.800   6.858
 4357POPC   C4A57810  28.189  22.458   7.161
 4357POPC   C1B57811  28.408  23.333   6.233
 4357POPC   C2B57812  28.471  23.420   6.659
 4357POPC   C3B57813  28.569  23.201   7.032
 4357POPC   C4B57814  28.403  23.191   7.440
 4358POPC   NC357815  44.904  39.160   5.148
 4358POPC   PO457816  44.252  38.849   5.558
 4358POPC   GL157817  44.552  39.000   5.863
 4358POPC   GL257818  44.867  38.991   5.644
 4358POPC   C1A57819  44.470  39.048   6.310
 4358POPC   D2A57820  44.415  39.002   6.770
 4358POPC   C3A57821  44.627  39.227   7.118
 4358POPC   C4A57822  44.587  39.192   7.587
 4358POPC   C1B57823   0.000  38.893   6.076
 4358POPC   C2B57824  44.921  38.999   6.529
 4358POPC   C3B57825  44.867  38.773   6.901
 4358POPC   C4B57826  44.917  38.882   7.319
 4359POPC   NC357827  13.855  13.881   5.433
 4359POPC   PO457828  13.520  13.336   5.473
 4359POPC   GL157829  13.776  13.530   5.776
 4359POPC   GL257830  13.437  13.695   5.839
 4359POPC   C1A57831  13.814  13.746   6.184
 4359POPC   D2A57832  13.923  13.619   6.578
 4359POPC   C3A57833  13.720  13.774   6.942
 4359POPC   C4A57834  13.981  13.821   7.286
 4359POPC   C1B57835  13.527  13.307   6.143
 4359POPC   C2B57836  13.666  13.172   6.540
 4359POPC   C3B57837  13.565  13.283   6.977
 4359POPC   C4B57838  13.354  13.440   7.353
 4360POPC   NC357839  42.409  25.503   5.409
 4360POPC   PO457840  42.292  24.884   5.474
 4360POPC   GL157841  42.245  25.161   5.759
 4360POPC   GL257842  42.566  25.173   5.787
 4360POPC   C1A57843  42.156  25.204   6.171
 4360POPC   D2A57844  41.956  25.066   6.506
 4360POPC   C3A57845  42.182  25.243   6.842
 4360POPC   C4A57846  42.203  25.126   7.273
 4360POPC   C1B57847  42.572  25.498   6.093
 4360POPC   C2B57848  42.634  25.350   6.500
 4360POPC   C3B57849  42.628  25.508   6.888
 4360POPC   C4B57850  42.670  25.340   7.261
 4361POPC   NC357851  17.275  28.148   5.456
 4361POPC   PO457852  17.355  27.500   5.286
 4361POPC   GL157853  17.452  27.688   5.675
 4361POPC   GL257854  17.703  27.454   5.741
 4361POPC   C1A57855  17.341  27.586   6.119
 4361POPC   D2A57856  17.477  27.446   6.561
 4361POPC   C3A57857  17.299  27.673   6.933
 4361POPC   C4A57858  17.460  27.850   7.327
 4361POPC   C1B57859  17.771  27.310   6.149
 4361POPC   C2B57860  17.931  27.127   6.528
 4361POPC   C3B57861  17.891  27.210   6.950
 4361POPC   C4B57862  17.576  27.367   7.227
 4362POPC   NC357863   3.867  36.211   5.550
 4362POPC   PO457864   3.230  36.035   5.366
 4362POPC   GL157865   3.447  36.037   5.792
 4362POPC   GL257866   3.723  35.795   5.820
 4362POPC   C1A57867   3.695  36.231   6.170
 4362POPC   D2A57868   3.492  36.409   6.522
 4362POPC   C3A57869   3.535  36.314   6.947
 4362POPC   C4A57870   3.234  36.250   7.243
 4362POPC   C1B57871   3.508  35.770   6.232
 4362POPC   C2B57872   3.490  35.885   6.686
 4362POPC   C3B57873   3.656  35.848   7.145
 4362POPC   C4B57874   3.752  35.744   7.615
 4363POPC   NC357875  12.707  25.724   5.527
 4363POPC   PO457876  13.071  26.307   5.365
 4363POPC   GL157877  13.026  26.052   5.770
 4363POPC   GL257878  12.625  26.004   5.915
 4363POPC   C1A57879  12.991  26.073   6.235
 4363POPC   D2A57880  12.620  25.899   6.447
 4363POPC   C3A57881  12.753  25.887   6.852
 4363POPC   C4A57882  13.013  26.178   7.081
 4363POPC   C1B57883  12.389  26.314   6.129
 4363POPC   C2B57884  12.396  26.478   6.561
 4363POPC   C3B57885  12.477  26.313   6.968
 4363POPC   C4B57886  12.625  26.249   7.416
 4364POPC   NC357887   5.902  37.370   5.448
 4364POPC   PO457888   6.482  37.196   5.042
 4364POPC   GL157889   6.243  37.031   5.510
 4364POPC   GL257890   5.845  36.906   5.609
 4364POPC   C1A57891   6.114  37.046   6.004
 4364POPC   D2A57892   5.931  37.110   6.444
 4364POPC   C3A57893   6.066  36.966   6.834
 4364POPC   C4A57894   6.160  36.885   7.254
 4364POPC   C1B57895   5.605  37.097   5.998
 4364POPC   C2B57896   5.398  37.075   6.397
 4364POPC   C3B57897   5.516  37.119   6.807
 4364POPC   C4B57898   5.661  37.019   7.192
 4365POPC   NC357899  26.389   5.166   5.429
 4365POPC   PO457900  25.721   5.323   5.485
 4365POPC   GL157901  26.022   5.104   5.836
 4365POPC   GL257902  26.321   4.833   5.870
 4365POPC   C1A57903  26.108   5.061   6.307
 4365POPC   D2A57904  25.977   5.213   6.695
 4365POPC   C3A57905  26.013   4.929   7.008
 4365POPC   C4A57906  26.156   5.044   7.421
 4365POPC   C1B57907  26.466   4.669   6.281
 4365POPC   C2B57908  26.503   4.827   6.705
 4365POPC   C3B57909  26.453   4.711   7.138
 4365POPC   C4B57910  26.446   4.641   7.594
 4366POPC   NC357911  29.264   9.712   5.378
 4366POPC   PO457912  28.569   9.863   5.440
 4366POPC   GL157913  28.881   9.920   5.690
 4366POPC   GL257914  28.915   9.594   5.845
 4366POPC   C1A57915  28.879  10.045   6.109
 4366POPC   D2A57916  29.052   9.967   6.509
 4366POPC   C3A57917  28.942   9.934   6.926
 4366POPC   C4A57918  29.182   9.882   7.302
 4366POPC   C1B57919  28.745   9.583   6.300
 4366POPC   C2B57920  28.915   9.449   6.733
 4366POPC   C3B57921  28.821   9.517   7.205
 4366POPC   C4B57922  28.767   9.380   7.637
 4367POPC   NC357923   8.056   4.451   5.333
 4367POPC   PO457924   8.652   4.904   5.473
 4367POPC   GL157925   8.440   4.533   5.753
 4367POPC   GL257926   8.235   4.188   5.746
 4367POPC   C1A57927   8.272   4.420   6.203
 4367POPC   D2A57928   8.485   4.349   6.620
 4367POPC   C3A57929   8.352   4.587   6.998
 4367POPC   C4A57930   7.917   4.764   7.075
 4367POPC   C1B57931   8.103   3.950   6.149
 4367POPC   C2B57932   8.014   4.078   6.619
 4367POPC   C3B57933   8.049   4.192   7.090
 4367POPC   C4B57934   8.033   3.879   7.434
 4368POPC   NC357935  27.147  43.313   5.567
 4368POPC   PO457936  26.453  43.279   5.385
 4368POPC   GL157937  26.704  43.049   5.758
 4368POPC   GL257938  27.013  43.093   5.983
 4368POPC   C1A57939  26.576  43.024   6.224
 4368POPC   D2A57940  26.532  43.275   6.595
 4368POPC   C3A57941  26.347  43.075   6.933
 4368POPC   C4A57942  26.469  42.927   7.315
 4368POPC   C1B57943  27.218  43.399   6.259
 4368POPC   C2B57944  27.046  43.374   6.698
 4368POPC   C3B57945  26.819  43.248   7.084
 4368POPC   C4B57946  27.091  43.373   7.434
 4369POPC   NC357947  43.753  24.091   5.562
 4369POPC   PO457948  43.668  23.496   5.676
 4369POPC   GL157949  43.783  23.642   6.088
 4369POPC   GL257950  43.912  23.966   6.016
 4369POPC   C1A57951  43.592  23.833   6.468
 4369POPC   D2A57952  43.443  23.600   6.823
 4369POPC   C3A57953  43.787  23.344   6.998
 4369POPC   C4A57954  43.908  23.317   7.452
 4369POPC   C1B57955  43.720  24.269   6.234
 4369POPC   C2B57956  43.898  24.242   6.647
 4369POPC   C3B57957  43.897  23.852   6.888
 4369POPC   C4B57958  43.689  23.753   7.273
 4370POPC   NC357959  17.372   5.632   5.336
 4370POPC   PO457960  17.458   6.248   5.586
 4370POPC   GL157961  17.499   5.867   5.825
 4370POPC   GL257962  17.197   5.678   5.901
 4370POPC   C1A57963  17.592   5.745   6.267
 4370POPC   D2A57964  17.576   5.539   6.684
 4370POPC   C3A57965  17.669   5.779   7.093
 4370POPC   C4A57966  17.760   5.836   7.561
 4370POPC   C1B57967  16.922   5.666   6.260
 4370POPC   C2B57968  17.051   5.529   6.643
 4370POPC   C3B57969  17.190   5.658   7.007
 4370POPC   C4B57970  17.078   5.467   7.306
 4371POPC   NC357971  40.333  43.324   5.433
 4371POPC   PO457972  39.796  42.770   5.458
 4371POPC   GL157973  39.784  43.079   5.812
 4371POPC   GL257974  40.128  43.164   5.881
 4371POPC   C1A57975  39.747  43.270   6.206
 4371POPC   D2A57976  39.995  43.075   6.488
 4371POPC   C3A57977  39.930  43.119   6.912
 4371POPC   C4A57978  39.877  42.763   7.157
 4371POPC   C1B57979  40.249  43.448   6.217
 4371POPC   C2B57980  40.367  43.412   6.656
 4371POPC   C3B57981  40.177  43.557   7.022
 4371POPC   C4B57982  40.222  43.451   7.449
 4372POPC   NC357983   2.464  36.801   5.086
 4372POPC   PO457984   3.098  36.787   5.124
 4372POPC   GL157985   2.918  36.795   5.605
 4372POPC   GL257986   2.578  36.655   5.622
 4372POPC   C1A57987   2.944  37.050   6.034
 4372POPC   D2A57988   2.771  37.160   6.473
 4372POPC   C3A57989   2.937  37.043   6.892
 4372POPC   C4A57990   3.031  37.169   7.317
 4372POPC   C1B57991   2.707  36.595   6.080
 4372POPC   C2B57992   2.650  36.642   6.534
 4372POPC   C3B57993   2.547  36.661   6.971
 4372POPC   C4B57994   2.473  36.550   7.422
 4373POPC   NC357995  24.784  25.486   5.323
 4373POPC   PO457996  24.428  24.879   5.460
 4373POPC   GL157997  24.665  25.205   5.737
 4373POPC   GL257998  24.865  25.539   5.826
 4373POPC   C1A57999  24.538  25.309   6.157
 4373POPC   D2A58000  24.537  24.986   6.482
 4373POPC   C3A58001  24.358  25.089   6.896
 4373POPC   C4A58002  24.464  25.496   7.114
 4373POPC   C1B58003  24.820  25.748   6.224
 4373POPC   C2B58004  24.721  25.710   6.684
 4373POPC   C3B58005  24.998  25.626   7.044
 4373POPC   C4B58006  25.083  25.493   7.430
 4374POPC   NC358007   9.918  35.145   5.467
 4374POPC   PO458008   9.525  35.498   5.305
 4374POPC   GL158009   9.582  35.453   5.788
 4374POPC   GL258010   9.884  35.300   5.966
 4374POPC   C1A58011   9.548  35.566   6.253
 4374POPC   D2A58012   9.637  35.345   6.664
 4374POPC   C3A58013   9.644  35.514   7.109
 4374POPC   C4A58014   9.713  35.599   7.571
 4374POPC   C1B58015  10.078  35.542   6.333
 4374POPC   C2B58016  10.102  35.550   6.812
 4374POPC   C3B58017  10.109  35.269   7.180
 4374POPC   C4B58018  10.148  35.302   7.641
 4375POPC   NC358019   2.328  15.606   5.469
 4375POPC   PO458020   2.768  16.076   5.406
 4375POPC   GL158021   2.588  15.957   5.779
 4375POPC   GL258022   2.860  15.737   5.835
 4375POPC   C1A58023   2.625  15.992   6.231
 4375POPC   D2A58024   2.812  15.744   6.567
 4375POPC   C3A58025   2.708  15.768   7.011
 4375POPC   C4A58026   2.535  15.892   7.443
 4375POPC   C1B58027   3.119  15.882   6.164
 4375POPC   C2B58028   3.309  15.892   6.568
 4375POPC   C3B58029   3.235  15.831   7.006
 4375POPC   C4B58030   3.015  15.977   7.370
 4376POPC   NC358031  41.886  36.181   5.496
 4376POPC   PO458032  42.418  35.856   5.490
 4376POPC   GL158033  42.294  36.103   5.836
 4376POPC   GL258034  42.186  36.500   5.784
 4376POPC   C1A58035  42.141  35.820   6.169
 4376POPC   D2A58036  42.134  35.552   6.543
 4376POPC   C3A58037  42.196  35.791   6.873
 4376POPC   C4A58038  42.355  36.004   7.206
 4376POPC   C1B58039  41.932  36.325   6.128
 4376POPC   C2B58040  41.993  36.157   6.532
 4376POPC   C3B58041  42.244  36.331   6.835
 4376POPC   C4B58042  42.096  36.457   7.215
 4377POPC   NC358043  42.027  28.388   5.249
 4377POPC   PO458044  41.330  28.436   5.184
 4377POPC   GL158045  41.471  28.420   5.623
 4377POPC   GL258046  41.796  28.497   5.708
 4377POPC   C1A58047  41.406  28.468   6.106
 4377POPC   D2A58048  41.644  28.493   6.517
 4377POPC   C3A58049  41.464  28.429   6.920
 4377POPC   C4A58050  41.505  28.251   7.314
 4377POPC   C1B58051  41.913  28.311   6.112
 4377POPC   C2B58052  41.712  28.014   6.421
 4377POPC   C3B58053  41.745  27.985   6.872
 4377POPC   C4B58054  41.929  27.947   7.276
 4378POPC   NC358055  35.520  42.536   5.165
 4378POPC   PO458056  36.152  42.299   5.434
 4378POPC   GL158057  36.000  42.233   5.788
 4378POPC   GL258058  35.824  42.566   5.805
 4378POPC   C1A58059  36.232  42.011   6.086
 4378POPC   D2A58060  36.483  42.048   6.441
 4378POPC   C3A58061  36.237  42.122   6.796
 4378POPC   C4A58062  36.396  42.187   7.174
 4378POPC   C1B58063  35.949  42.472   6.235
 4378POPC   C2B58064  36.296  42.567   6.505
 4378POPC   C3B58065  36.362  42.646   6.940
 4378POPC   C4B58066  35.996  42.524   7.158
 4379POPC   NC358067  10.227   5.641   5.438
 4379POPC   PO458068  10.866   5.881   5.306
 4379POPC   GL158069  10.624   5.857   5.702
 4379POPC   GL258070  10.336   6.095   5.698
 4379POPC   C1A58071  10.620   5.838   6.156
 4379POPC   D2A58072  10.422   5.773   6.549
 4379POPC   C3A58073  10.637   5.482   6.834
 4379POPC   C4A58074  10.546   5.457   7.259
 4379POPC   C1B58075  10.325   6.271   6.127
 4379POPC   C2B58076  10.517   6.279   6.548
 4379POPC   C3B58077  10.415   6.092   6.977
 4379POPC   C4B58078  10.233   6.257   7.367
 4380POPC   NC358079  18.682   2.432   5.353
 4380POPC   PO458080  18.191   2.849   5.175
 4380POPC   GL158081  18.160   2.871   5.633
 4380POPC   GL258082  18.325   2.569   5.755
 4380POPC   C1A58083  18.156   2.964   6.089
 4380POPC   D2A58084  18.097   3.126   6.522
 4380POPC   C3A58085  18.302   2.880   6.862
 4380POPC   C4A58086  18.143   2.513   7.121
 4380POPC   C1B58087  18.498   2.526   6.172
 4380POPC   C2B58088  18.359   2.408   6.595
 4380POPC   C3B58089  18.607   2.425   6.967
 4380POPC   C4B58090  18.690   2.389   7.391
 4381POPC   NC358091  25.338  23.923   5.465
 4381POPC   PO458092  25.244  23.219   5.402
 4381POPC   GL158093  25.037  23.383   5.815
 4381POPC   GL258094  24.912  23.733   5.848
 4381POPC   C1A58095  25.205  23.514   6.243
 4381POPC   D2A58096  25.370  23.414   6.679
 4381POPC   C3A58097  25.187  23.553   7.085
 4381POPC   C4A58098  25.420  23.493   7.471
 4381POPC   C1B58099  24.904  23.938   6.274
 4381POPC   C2B58100  25.051  23.903   6.717
 4381POPC   C3B58101  24.930  24.028   7.162
 4381POPC   C4B58102  25.028  24.241   7.607
 4382POPC   NC358103  18.715  36.481   5.471
 4382POPC   PO458104  19.378  36.063   5.492
 4382POPC   GL158105  19.344  36.195   5.889
 4382POPC   GL258106  19.065  36.444   5.885
 4382POPC   C1A58107  19.211  36.145   6.303
 4382POPC   D2A58108  19.360  36.030   6.693
 4382POPC   C3A58109  19.252  36.300   7.020
 4382POPC   C4A58110  19.224  35.964   7.277
 4382POPC   C1B58111  18.747  36.352   6.237
 4382POPC   C2B58112  18.561  36.474   6.636
 4382POPC   C3B58113  18.737  36.279   7.007
 4382POPC   C4B58114  18.769  36.244   7.432
 4383POPC   NC358115  26.011  30.164   5.320
 4383POPC   PO458116  25.898  29.518   5.492
 4383POPC   GL158117  25.885  29.929   5.759
 4383POPC   GL258118  26.222  30.125   5.816
 4383POPC   C1A58119  25.823  30.260   6.111
 4383POPC   D2A58120  26.081  30.291   6.507
 4383POPC   C3A58121  25.895  30.406   6.887
 4383POPC   C4A58122  25.770  30.120   7.230
 4383POPC   C1B58123  26.151  29.880   6.193
 4383POPC   C2B58124  26.164  29.738   6.594
 4383POPC   C3B58125  26.173  29.887   7.013
 4383POPC   C4B58126  26.129  29.624   7.398
 4384POPC   NC358127  42.210  35.425   5.475
 4384POPC   PO458128  42.737  35.003   5.437
 4384POPC   GL158129  42.556  35.183   5.781
 4384POPC   GL258130  42.237  35.031   5.782
 4384POPC   C1A58131  42.408  35.355   6.161
 4384POPC   D2A58132  42.663  35.343   6.527
 4384POPC   C3A58133  42.669  35.581   6.935
 4384POPC   C4A58134  42.653  35.403   7.339
 4384POPC   C1B58135  42.040  34.963   6.153
 4384POPC   C2B58136  42.253  35.025   6.536
 4384POPC   C3B58137  42.331  35.206   6.918
 4384POPC   C4B58138  42.119  35.058   7.243
 4385POPC   NC358139  23.022  41.473   5.369
 4385POPC   PO458140  22.755  42.116   5.512
 4385POPC   GL158141  22.819  41.722   5.800
 4385POPC   GL258142  23.156  41.545   5.862
 4385POPC   C1A58143  22.646  41.451   6.167
 4385POPC   D2A58144  22.513  41.347   6.631
 4385POPC   C3A58145  22.827  41.477   6.980
 4385POPC   C4A58146  23.272  41.649   7.064
 4385POPC   C1B58147  23.192  41.368   6.291
 4385POPC   C2B58148  23.219  41.211   6.745
 4385POPC   C3B58149  23.178  41.087   7.191
 4385POPC   C4B58150  23.104  41.034   7.650
 4386POPC   NC358151   0.015  13.460   5.345
 4386POPC   PO458152  44.362  13.695   5.334
 4386POPC   GL158153  44.641  13.688   5.658
 4386POPC   GL258154  44.776  14.012   5.787
 4386POPC   C1A58155  44.740  13.547   6.073
 4386POPC   D2A58156  44.537  13.518   6.485
 4386POPC   C3A58157  44.873  13.441   6.781
 4386POPC   C4A58158   0.023  13.525   7.195
 4386POPC   C1B58159  44.452  13.966   6.130
 4386POPC   C2B58160  44.428  14.033   6.592
 4386POPC   C3B58161  44.694  13.896   6.951
 4386POPC   C4B58162  44.567  13.733   7.349
 4387POPC   NC358163   3.002  37.210   5.349
 4387POPC   PO458164   2.822  37.808   5.259
 4387POPC   GL158165   2.748  37.805   5.750
 4387POPC   GL258166   2.730  37.450   5.745
 4387POPC   C1A58167   2.744  38.031   6.188
 4387POPC   D2A58168   2.837  38.179   6.632
 4387POPC   C3A58169   2.663  37.928   6.938
 4387POPC   C4A58170   2.713  37.755   7.362
 4387POPC   C1B58171   2.562  37.532   6.159
 4387POPC   C2B58172   2.434  37.581   6.611
 4387POPC   C3B58173   2.590  37.412   7.000
 4387POPC   C4B58174   2.531  37.071   7.284
 4388POPC   NC358175  22.510  24.442   5.463
 4388POPC   PO458176  22.026  24.834   5.294
 4388POPC   GL158177  22.104  24.635   5.734
 4388POPC   GL258178  22.112  24.263   5.751
 4388POPC   C1A58179  22.109  24.680   6.212
 4388POPC   D2A58180  22.018  24.450   6.639
 4388POPC   C3A58181  22.132  24.575   7.070
 4388POPC   C4A58182  22.400  24.864   7.253
 4388POPC   C1B58183  22.220  24.185   6.171
 4388POPC   C2B58184  22.499  24.361   6.500
 4388POPC   C3B58185  22.594  24.399   6.935
 4388POPC   C4B58186  22.486  24.206   7.316
 4389POPC   NC358187  22.533  18.979   5.458
 4389POPC   PO458188  23.183  18.725   5.587
 4389POPC   GL158189  23.029  19.007   5.882
 4389POPC   GL258190  22.781  19.274   5.790
 4389POPC   C1A58191  22.665  18.944   6.168
 4389POPC   D2A58192  22.633  18.753   6.603
 4389POPC   C3A58193  23.060  18.748   6.791
 4389POPC   C4A58194  23.232  18.956   7.196
 4389POPC   C1B58195  22.963  19.392   6.190
 4389POPC   C2B58196  22.841  19.222   6.555
 4389POPC   C3B58197  22.796  19.128   6.964
 4389POPC   C4B58198  22.844  19.238   7.381
 4390POPC   NC358199   5.977  34.392   5.414
 4390POPC   PO458200   5.615  34.978   5.421
 4390POPC   GL158201   5.874  34.778   5.746
 4390POPC   GL258202   5.721  34.455   5.872
 4390POPC   C1A58203   6.109  34.660   6.126
 4390POPC   D2A58204   5.936  34.476   6.487
 4390POPC   C3A58205   5.978  34.769   6.840
 4390POPC   C4A58206   5.588  34.953   7.067
 4390POPC   C1B58207   5.445  34.321   6.232
 4390POPC   C2B58208   5.517  34.185   6.662
 4390POPC   C3B58209   5.792  34.334   6.977
 4390POPC   C4B58210   6.147  34.442   7.238
 4391POPC   NC358211  25.340   4.042   5.453
 4391POPC   PO458212  25.082   4.576   5.665
 4391POPC   GL158213  25.240   4.267   5.925
 4391POPC   GL258214  25.521   4.440   6.000
 4391POPC   C1A58215  25.312   4.151   6.362
 4391POPC   D2A58216  25.304   4.366   6.741
 4391POPC   C3A58217  25.378   4.238   7.132
 4391POPC   C4A58218  25.170   4.130   7.524
 4391POPC   C1B58219  25.267   4.664   6.309
 4391POPC   C2B58220  25.089   4.818   6.709
 4391POPC   C3B58221  25.073   4.669   7.154
 4391POPC   C4B58222  25.378   4.608   7.514
 4392POPC   NC358223  21.496  19.338   5.176
 4392POPC   PO458224  21.312  18.760   5.407
 4392POPC   GL158225  21.420  19.116   5.683
 4392POPC   GL258226  21.083  19.159   5.793
 4392POPC   C1A58227  21.431  19.267   6.152
 4392POPC   D2A58228  21.279  19.092   6.575
 4392POPC   C3A58229  21.287  19.295   7.003
 4392POPC   C4A58230  21.369  19.312   7.462
 4392POPC   C1B58231  21.254  18.785   6.076
 4392POPC   C2B58232  21.444  18.590   6.443
 4392POPC   C3B58233  21.345  18.576   6.881
 4392POPC   C4B58234  21.443  18.848   7.232
 4393POPC   NC358235  31.282   3.386   5.381
 4393POPC   PO458236  31.480   3.974   5.586
 4393POPC   GL158237  31.625   3.681   5.880
 4393POPC   GL258238  31.522   3.320   5.848
 4393POPC   C1A58239  31.523   3.642   6.306
 4393POPC   D2A58240  31.297   3.696   6.664
 4393POPC   C3A58241  31.551   3.578   7.005
 4393POPC   C4A58242  31.576   3.822   7.373
 4393POPC   C1B58243  31.283   3.198   6.229
 4393POPC   C2B58244  31.093   3.247   6.687
 4393POPC   C3B58245  31.114   3.373   7.147
 4393POPC   C4B58246  31.462   3.341   7.499
 4394POPC   NC358247  30.612  41.217   5.497
 4394POPC   PO458248  30.268  40.633   5.439
 4394POPC   GL158249  30.467  40.811   5.835
 4394POPC   GL258250  30.810  40.887   5.840
 4394POPC   C1A58251  30.523  41.074   6.238
 4394POPC   D2A58252  30.699  41.138   6.648
 4394POPC   C3A58253  30.602  40.991   7.065
 4394POPC   C4A58254  30.712  40.811   7.486
 4394POPC   C1B58255  30.776  40.649   6.241
 4394POPC   C2B58256  30.950  40.700   6.662
 4394POPC   C3B58257  30.941  40.591   7.084
 4394POPC   C4B58258  31.209  40.671   7.457
 4395POPC   NC358259  22.373  33.866   5.026
 4395POPC   PO458260  21.903  33.541   5.406
 4395POPC   GL158261  22.007  33.763   5.762
 4395POPC   GL258262  22.271  33.612   5.933
 4395POPC   C1A58263  21.984  33.980   6.160
 4395POPC   D2A58264  22.030  33.744   6.556
 4395POPC   C3A58265  22.107  33.962   6.979
 4395POPC   C4A58266  22.092  34.091   7.455
 4395POPC   C1B58267  22.542  33.342   6.170
 4395POPC   C2B58268  22.438  33.241   6.595
 4395POPC   C3B58269  22.270  33.459   6.946
 4395POPC   C4B58270  22.240  33.357   7.354
 4396POPC   NC358271  19.758  22.697   5.215
 4396POPC   PO458272  19.763  22.002   5.186
 4396POPC   GL158273  19.790  22.096   5.627
 4396POPC   GL258274  19.912  22.437   5.634
 4396POPC   C1A58275  19.837  22.126   6.082
 4396POPC   D2A58276  20.012  21.841   6.402
 4396POPC   C3A58277  19.863  22.013   6.778
 4396POPC   C4A58278  19.581  21.926   7.135
 4396POPC   C1B58279  20.129  22.562   6.012
 4396POPC   C2B58280  20.131  22.382   6.450
 4396POPC   C3B58281  20.161  22.415   6.919
 4396POPC   C4B58282  19.955  22.453   7.338
 4397POPC   NC358283   7.512  37.231   5.696
 4397POPC   PO458284   7.394  37.598   5.125
 4397POPC   GL158285   7.475  37.739   5.582
 4397POPC   GL258286   7.774  37.663   5.815
 4397POPC   C1A58287   7.305  37.879   6.005
 4397POPC   D2A58288   7.126  37.757   6.420
 4397POPC   C3A58289   7.200  37.865   6.858
 4397POPC   C4A58290   7.244  37.513   7.148
 4397POPC   C1B58291   7.641  37.558   6.273
 4397POPC   C2B58292   7.594  37.554   6.737
 4397POPC   C3B58293   7.747  37.642   7.174
 4397POPC   C4B58294   7.872  37.627   7.622
 4398POPC   NC358295  37.688  19.416   5.353
 4398POPC   PO458296  37.838  20.073   5.247
 4398POPC   GL158297  37.688  19.885   5.601
 4398POPC   GL258298  37.750  20.166   5.831
 4398POPC   C1A58299  37.624  19.703   6.009
 4398POPC   D2A58300  37.455  19.863   6.400
 4398POPC   C3A58301  37.569  19.618   6.730
 4398POPC   C4A58302  37.743  19.561   7.143
 4398POPC   C1B58303  37.979  20.015   6.220
 4398POPC   C2B58304  37.954  19.940   6.686
 4398POPC   C3B58305  37.944  20.033   7.134
 4398POPC   C4B58306  37.775  19.959   7.526
 4399POPC   NC358307   7.086  24.508   5.383
 4399POPC   PO458308   7.680  24.146   5.493
 4399POPC   GL158309   7.390  24.336   5.739
 4399POPC   GL258310   7.083  24.105   5.680
 4399POPC   C1A58311   7.419  24.567   6.135
 4399POPC   D2A58312   7.630  24.741   6.514
 4399POPC   C3A58313   7.515  24.529   6.905
 4399POPC   C4A58314   7.717  24.347   7.273
 4399POPC   C1B58315   7.191  24.089   6.121
 4399POPC   C2B58316   7.245  24.266   6.524
 4399POPC   C3B58317   7.086  24.242   6.924
 4399POPC   C4B58318   7.200  24.327   7.341
 4400POPC   NC358319   2.034   8.704   5.392
 4400POPC   PO458320   2.231   9.368   5.388
 4400POPC   GL158321   2.066   9.223   5.826
 4400POPC   GL258322   1.944   8.867   5.873
 4400POPC   C1A58323   1.845   9.236   6.199
 4400POPC   D2A58324   2.009   9.178   6.585
 4400POPC   C3A58325   1.689   9.077   6.866
 4400POPC   C4A58326   1.780   9.064   7.273
 4400POPC   C1B58327   2.254   8.885   6.174
 4400POPC   C2B58328   2.393   8.816   6.585
 4400POPC   C3B58329   2.234   8.936   7.001
 4400POPC   C4B58330   2.184   8.839   7.449
 4401POPC   NC358331  39.041  14.954   5.541
 4401POPC   PO458332  39.303  14.483   5.110
 4401POPC   GL158333  39.130  14.371   5.554
 4401POPC   GL258334  39.297  14.626   5.833
 4401POPC   C1A58335  39.104  14.191   6.014
 4401POPC   D2A58336  39.291  14.422   6.407
 4401POPC   C3A58337  39.294  14.345   6.872
 4401POPC   C4A58338  39.380  14.123   7.277
 4401POPC   C1B58339  39.090  14.878   6.203
 4401POPC   C2B58340  38.972  14.796   6.638
 4401POPC   C3B58341  39.101  14.804   7.042
 4401POPC   C4B58342  39.462  14.682   7.299
 4402POPC   NC358343   1.615  11.628   5.497
 4402POPC   PO458344   1.057  11.351   5.465
 4402POPC   GL158345   1.086  11.509   5.831
 4402POPC   GL258346   1.414  11.361   5.902
 4402POPC   C1A58347   1.134  11.600   6.258
 4402POPC   D2A58348   1.423  11.438   6.571
 4402POPC   C3A58349   1.242  11.125   6.814
 4402POPC   C4A58350   1.067  11.130   7.204
 4402POPC   C1B58351   1.307  11.079   6.220
 4402POPC   C2B58352   1.584  10.881   6.498
 4402POPC   C3B58353   1.764  11.118   6.835
 4402POPC   C4B58354   1.579  11.183   7.235
 4403POPC   NC358355  37.258  37.412   5.452
 4403POPC   PO458356  37.150  38.096   5.528
 4403POPC   GL158357  36.846  37.885   5.807
 4403POPC   GL258358  36.774  37.514   5.786
 4403POPC   C1A58359  36.744  37.796   6.231
 4403POPC   D2A58360  37.009  37.738   6.611
 4403POPC   C3A58361  36.995  37.955   7.012
 4403POPC   C4A58362  37.014  37.807   7.450
 4403POPC   C1B58363  37.018  37.376   6.160
 4403POPC   C2B58364  36.871  37.256   6.598
 4403POPC   C3B58365  36.897  37.451   7.033
 4403POPC   C4B58366  36.928  37.303   7.455
 4404POPC   NC358367   5.301   5.645   5.329
 4404POPC   PO458368   4.922   6.279   5.431
 4404POPC   GL158369   5.145   5.982   5.741
 4404POPC   GL258370   4.973   5.637   5.742
 4404POPC   C1A58371   5.122   5.928   6.227
 4404POPC   D2A58372   4.751   5.960   6.561
 4404POPC   C3A58373   4.889   6.109   6.986
 4404POPC   C4A58374   5.238   6.073   7.284
 4404POPC   C1B58375   4.771   5.574   6.161
 4404POPC   C2B58376   4.992   5.512   6.556
 4404POPC   C3B58377   4.829   5.573   6.941
 4404POPC   C4B58378   4.759   5.730   7.321
 4405POPC   NC358379  35.388  21.657   5.314
 4405POPC   PO458380  35.179  22.311   5.354
 4405POPC   GL158381  35.478  22.226   5.691
 4405POPC   GL258382  35.364  21.906   5.765
 4405POPC   C1A58383  35.543  22.192   6.151
 4405POPC   D2A58384  35.287  22.017   6.483
 4405POPC   C3A58385  35.383  22.067   6.925
 4405POPC   C4A58386  35.537  22.185   7.348
 4405POPC   C1B58387  35.059  21.728   6.048
 4405POPC   C2B58388  34.922  21.659   6.469
 4405POPC   C3B58389  34.893  21.912   6.869
 4405POPC   C4B58390  35.080  21.848   7.290
 4406POPC   NC358391  38.974  23.747   5.555
 4406POPC   PO458392  39.571  23.442   5.378
 4406POPC   GL158393  39.428  23.583   5.784
 4406POPC   GL258394  39.309  23.928   5.889
 4406POPC   C1A58395  39.252  23.500   6.189
 4406POPC   D2A58396  39.146  23.643   6.581
 4406POPC   C3A58397  39.127  23.423   6.974
 4406POPC   C4A58398  39.243  23.711   7.304
 4406POPC   C1B58399  38.939  23.929   6.180
 4406POPC   C2B58400  38.777  24.034   6.562
 4406POPC   C3B58401  38.885  23.868   6.957
 4406POPC   C4B58402  38.696  23.704   7.277
 4407POPC   NC358403   4.689   1.762   5.400
 4407POPC   PO458404   5.293   1.942   5.282
 4407POPC   GL158405   5.249   2.019   5.725
 4407POPC   GL258406   4.884   1.988   5.834
 4407POPC   C1A58407   5.328   1.896   6.154
 4407POPC   D2A58408   5.210   1.788   6.583
 4407POPC   C3A58409   5.420   2.040   6.890
 4407POPC   C4A58410   5.267   2.237   7.228
 4407POPC   C1B58411   4.832   2.052   6.305
 4407POPC   C2B58412   4.908   2.156   6.765
 4407POPC   C3B58413   4.985   1.842   7.097
 4407POPC   C4B58414   5.054   1.502   7.401
 4408POPC   NC358415  42.619   2.746   5.329
 4408POPC   PO458416  43.200   2.561   5.225
 4408POPC   GL158417  43.178   2.634   5.676
 4408POPC   GL258418  42.849   2.477   5.737
 4408POPC   C1A58419  43.334   2.552   6.133
 4408POPC   D2A58420  43.280   2.701   6.571
 4408POPC   C3A58421  43.390   2.532   7.004
 4408POPC   C4A58422  43.327   2.741   7.446
 4408POPC   C1B58423  42.866   2.754   6.086
 4408POPC   C2B58424  42.794   2.794   6.526
 4408POPC   C3B58425  42.962   2.842   6.954
 4408POPC   C4B58426  42.849   2.892   7.372
 4409POPC   NC358427  40.401   1.832   5.450
 4409POPC   PO458428  39.766   1.929   5.631
 4409POPC   GL158429  39.852   1.660   5.921
 4409POPC   GL258430  40.155   1.546   5.869
 4409POPC   C1A58431  40.033   1.779   6.346
 4409POPC   D2A58432  40.015   2.147   6.641
 4409POPC   C3A58433  39.857   2.111   7.091
 4409POPC   C4A58434  39.718   2.338   7.504
 4409POPC   C1B58435  40.480   1.707   6.135
 4409POPC   C2B58436  40.502   1.966   6.521
 4409POPC   C3B58437  40.394   2.047   6.968
 4409POPC   C4B58438  40.386   1.741   7.268
 4410POPC   NC358439  39.392  36.318   5.508
 4410POPC   PO458440  38.923  35.921   5.168
 4410POPC   GL158441  39.107  35.904   5.644
 4410POPC   GL258442  39.174  36.200   5.930
 4410POPC   C1A58443  38.952  35.798   6.081
 4410POPC   D2A58444  38.993  36.038   6.475
 4410POPC   C3A58445  39.281  35.963   6.831
 4410POPC   C4A58446  39.262  36.074   7.278
 4410POPC   C1B58447  38.881  36.447   6.161
 4410POPC   C2B58448  38.698  36.445   6.570
 4410POPC   C3B58449  38.880  36.279   6.937
 4410POPC   C4B58450  38.794  36.277   7.348
 4411POPC   NC358451  18.598  33.925   5.274
 4411POPC   PO458452  19.157  33.694   5.228
 4411POPC   GL158453  19.005  33.869   5.629
 4411POPC   GL258454  18.776  33.646   5.794
 4411POPC   C1A58455  19.186  34.021   6.020
 4411POPC   D2A58456  19.313  33.904   6.444
 4411POPC   C3A58457  19.253  33.994   6.868
 4411POPC   C4A58458  19.390  33.641   7.140
 4411POPC   C1B58459  18.944  33.608   6.214
 4411POPC   C2B58460  18.864  33.648   6.652
 4411POPC   C3B58461  18.886  33.677   7.077
 4411POPC   C4B58462  18.705  33.386   7.329
 4412POPC   NC358463  39.086  20.180   5.341
 4412POPC   PO458464  39.444  19.576   5.510
 4412POPC   GL158465  39.374  19.796   5.890
 4412POPC   GL258466  39.128  19.989   5.809
 4412POPC   C1A58467  39.397  20.029   6.271
 4412POPC   D2A58468  39.467  19.890   6.681
 4412POPC   C3A58469  39.138  20.006   6.932
 4412POPC   C4A58470  39.141  20.187   7.349
 4412POPC   C1B58471  38.919  19.803   6.145
 4412POPC   C2B58472  38.918  19.692   6.557
 4412POPC   C3B58473  38.715  19.714   6.938
 4412POPC   C4B58474  38.883  19.739   7.346
 4413POPC   NC358475  15.770  21.233   5.418
 4413POPC   PO458476  16.308  21.588   5.541
 4413POPC   GL158477  16.103  21.355   5.913
 4413POPC   GL258478  15.789  21.181   5.915
 4413POPC   C1A58479  15.939  21.353   6.366
 4413POPC   D2A58480  16.039  21.110   6.744
 4413POPC   C3A58481  16.052  21.394   7.078
 4413POPC   C4A58482  15.796  21.743   7.234
 4413POPC   C1B58483  15.656  20.915   6.244
 4413POPC   C2B58484  15.546  21.041   6.666
 4413POPC   C3B58485  15.491  21.133   7.108
 4413POPC   C4B58486  15.461  20.979   7.561
 4414POPC   NC358487  34.414  32.110   5.271
 4414POPC   PO458488  34.739  32.731   5.284
 4414POPC   GL158489  34.659  32.463   5.715
 4414POPC   GL258490  34.718  32.127   5.767
 4414POPC   C1A58491  34.450  32.317   6.158
 4414POPC   D2A58492  34.245  32.252   6.586
 4414POPC   C3A58493  34.376  32.357   7.018
 4414POPC   C4A58494  34.454  32.585   7.447
 4414POPC   C1B58495  34.949  32.370   6.139
 4414POPC   C2B58496  35.080  32.267   6.564
 4414POPC   C3B58497  34.773  32.091   6.836
 4414POPC   C4B58498  34.727  32.008   7.288
 4415POPC   NC358499  11.968   7.653   5.483
 4415POPC   PO458500  12.156   6.974   5.350
 4415POPC   GL158501  11.927   7.153   5.676
 4415POPC   GL258502  12.232   7.344   5.832
 4415POPC   C1A58503  11.864   7.162   6.127
 4415POPC   D2A58504  12.039   7.482   6.386
 4415POPC   C3A58505  12.015   7.496   6.835
 4415POPC   C4A58506  11.801   7.427   7.232
 4415POPC   C1B58507  12.518   7.494   6.195
 4415POPC   C2B58508  12.696   7.537   6.624
 4415POPC   C3B58509  12.582   7.486   7.038
 4415POPC   C4B58510  12.250   7.694   7.265
 4416POPC   NC358511  12.644  41.604   5.133
 4416POPC   PO458512  12.014  41.640   5.360
 4416POPC   GL158513  11.875  41.602   5.772
 4416POPC   GL258514  11.903  41.243   5.847
 4416POPC   C1A58515  12.077  41.811   6.124
 4416POPC   D2A58516  12.400  41.866   6.434
 4416POPC   C3A58517  12.284  41.846   6.874
 4416POPC   C4A58518  11.897  41.785   7.123
 4416POPC   C1B58519  11.746  41.426   6.222
 4416POPC   C2B58520  11.983  41.552   6.572
 4416POPC   C3B58521  12.120  41.361   6.922
 4416POPC   C4B58522  11.914  41.201   7.240
 4417POPC   NC358523   9.304  37.180   5.034
 4417POPC   PO458524   8.774  36.999   5.442
 4417POPC   GL158525   8.820  36.939   5.863
 4417POPC   GL258526   8.615  36.641   5.786
 4417POPC   C1A58527   8.913  37.029   6.294
 4417POPC   D2A58528   9.114  37.007   6.713
 4417POPC   C3A58529   8.868  36.944   7.109
 4417POPC   C4A58530   8.942  36.947   7.578
 4417POPC   C1B58531   8.751  36.543   6.195
 4417POPC   C2B58532   8.673  36.706   6.635
 4417POPC   C3B58533   8.607  36.478   7.034
 4417POPC   C4B58534   8.663  36.554   7.452
 4418POPC   NC358535  36.628   8.207   5.480
 4418POPC   PO458536  37.175   8.624   5.412
 4418POPC   GL158537  36.906   8.495   5.807
 4418POPC   GL258538  36.770   8.183   5.981
 4418POPC   C1A58539  37.026   8.506   6.262
 4418POPC   D2A58540  36.761   8.380   6.617
 4418POPC   C3A58541  36.957   8.323   7.003
 4418POPC   C4A58542  37.031   8.346   7.409
 4418POPC   C1B58543  36.990   8.000   6.343
 4418POPC   C2B58544  36.897   7.865   6.768
 4418POPC   C3B58545  36.803   7.879   7.217
 4418POPC   C4B58546  36.988   7.896   7.653
 4419POPC   NC358547  15.773  38.381   5.408
 4419POPC   PO458548  16.383  38.775   5.411
 4419POPC   GL158549  16.059  38.654   5.746
 4419POPC   GL258550  16.073  38.304   5.815
 4419POPC   C1A58551  15.912  38.578   6.195
 4419POPC   D2A58552  15.695  38.470   6.570
 4419POPC   C3A58553  15.970  38.596   6.934
 4419POPC   C4A58554  15.916  38.662   7.397
 4419POPC   C1B58555  15.910  38.052   6.146
 4419POPC   C2B58556  15.733  37.944   6.542
 4419POPC   C3B58557  15.762  38.109   6.941
 4419POPC   C4B58558  16.069  38.186   7.255
 4420POPC   NC358559  20.531  37.050   4.859
 4420POPC   PO458560  21.051  36.995   5.345
 4420POPC   GL158561  20.859  36.793   5.720
 4420POPC   GL258562  20.586  37.054   5.810
 4420POPC   C1A58563  20.724  36.711   6.182
 4420POPC   D2A58564  20.855  36.657   6.623
 4420POPC   C3A58565  20.686  36.728   7.059
 4420POPC   C4A58566  20.927  36.553   7.415
 4420POPC   C1B58567  20.337  37.072   6.206
 4420POPC   C2B58568  20.401  36.957   6.628
 4420POPC   C3B58569  20.303  37.144   6.996
 4420POPC   C4B58570  20.366  36.992   7.386
 4421POPC   NC358571  18.452  42.590   5.242
 4421POPC   PO458572  18.138  43.179   5.507
 4421POPC   GL158573  18.343  43.216   5.848
 4421POPC   GL258574  18.186  42.957   6.008
 4421POPC   C1A58575  18.279  43.399   6.228
 4421POPC   D2A58576  18.137  43.189   6.554
 4421POPC   C3A58577  18.139  43.410   6.918
 4421POPC   C4A58578  18.339  43.302   7.252
 4421POPC   C1B58579  18.245  42.700   6.353
 4421POPC   C2B58580  18.181  42.719   6.749
 4421POPC   C3B58581  18.327  42.817   7.090
 4421POPC   C4B58582  18.190  42.770   7.498
 4422POPC   NC358583  42.820   8.319   5.175
 4422POPC   PO458584  43.315   8.670   5.491
 4422POPC   GL158585  43.305   8.572   5.956
 4422POPC   GL258586  43.086   8.324   6.011
 4422POPC   C1A58587  43.364   8.618   6.415
 4422POPC   D2A58588  43.277   8.282   6.730
 4422POPC   C3A58589  43.095   8.282   7.164
 4422POPC   C4A58590  43.090   8.422   7.607
 4422POPC   C1B58591  42.874   8.508   6.407
 4422POPC   C2B58592  42.701   8.379   6.836
 4422POPC   C3B58593  42.567   8.296   7.308
 4422POPC   C4B58594  42.623   8.605   7.694
 4423POPC   NC358595  19.909  19.191   5.378
 4423POPC   PO458596  19.556  18.551   5.424
 4423POPC   GL158597  19.718  18.835   5.707
 4423POPC   GL258598  19.485  19.094   5.691
 4423POPC   C1A58599  19.892  18.788   6.118
 4423POPC   D2A58600  19.976  18.990   6.511
 4423POPC   C3A58601  19.908  18.763   6.899
 4423POPC   C4A58602  19.642  18.713   7.254
 4423POPC   C1B58603  19.673  19.238   6.062
 4423POPC   C2B58604  19.493  19.122   6.466
 4423POPC   C3B58605  19.656  19.243   6.862
 4423POPC   C4B58606  19.897  19.171   7.217
 4424POPC   NC358607  36.830  36.547   5.396
 4424POPC   PO458608  36.736  37.200   5.369
 4424POPC   GL158609  36.926  36.995   5.770
 4424POPC   GL258610  36.716  36.693   5.863
 4424POPC   C1A58611  37.057  36.852   6.217
 4424POPC   D2A58612  37.230  36.871   6.650
 4424POPC   C3A58613  36.957  36.936   7.006
 4424POPC   C4A58614  36.924  36.628   7.301
 4424POPC   C1B58615  36.666  36.524   6.271
 4424POPC   C2B58616  36.748  36.553   6.723
 4424POPC   C3B58617  36.475  36.644   7.102
 4424POPC   C4B58618  36.522  36.541   7.592
 4425POPC   NC358619  23.042  12.536   5.458
 4425POPC   PO458620  22.928  11.854   5.435
 4425POPC   GL158621  23.025  12.178   5.804
 4425POPC   GL258622  22.753  12.490   5.895
 4425POPC   C1A58623  23.084  12.304   6.227
 4425POPC   D2A58624  22.867  12.093   6.528
 4425POPC   C3A58625  23.113  12.111   6.853
 4425POPC   C4A58626  23.169  12.030   7.239
 4425POPC   C1B58627  22.618  12.528   6.318
 4425POPC   C2B58628  22.885  12.583   6.689
 4425POPC   C3B58629  22.889  12.478   7.127
 4425POPC   C4B58630  22.648  12.559   7.485
 4426POPC   NC358631  40.445  33.090   5.216
 4426POPC   PO458632  41.098  32.804   5.381
 4426POPC   GL158633  40.977  32.886   5.761
 4426POPC   GL258634  40.702  33.075   5.660
 4426POPC   C1A58635  40.980  32.733   6.187
 4426POPC   D2A58636  40.750  32.709   6.570
 4426POPC   C3A58637  40.823  32.937   6.918
 4426POPC   C4A58638  41.063  32.817   7.256
 4426POPC   C1B58639  40.760  33.210   6.101
 4426POPC   C2B58640  40.582  33.206   6.513
 4426POPC   C3B58641  40.533  33.394   6.932
 4426POPC   C4B58642  40.783  33.301   7.285
 4427POPC   NC358643  31.036  21.417   5.319
 4427POPC   PO458644  30.451  21.398   5.593
 4427POPC   GL158645  30.832  21.474   5.808
 4427POPC   GL258646  31.070  21.752   5.733
 4427POPC   C1A58647  30.801  21.293   6.212
 4427POPC   D2A58648  30.454  21.234   6.512
 4427POPC   C3A58649  30.597  21.283   6.928
 4427POPC   C4A58650  30.620  21.029   7.274
 4427POPC   C1B58651  30.848  21.841   6.163
 4427POPC   C2B58652  30.788  21.652   6.581
 4427POPC   C3B58653  30.838  21.747   7.002
 4427POPC   C4B58654  30.814  21.513   7.369
 4428POPC   NC358655  16.911  17.163   5.407
 4428POPC   PO458656  16.482  17.684   5.383
 4428POPC   GL158657  16.820  17.727   5.724
 4428POPC   GL258658  16.927  17.428   5.822
 4428POPC   C1A58659  16.757  17.729   6.178
 4428POPC   D2A58660  16.543  17.446   6.449
 4428POPC   C3A58661  16.568  17.493   6.908
 4428POPC   C4A58662  16.606  17.649   7.341
 4428POPC   C1B58663  17.002  17.272   6.195
 4428POPC   C2B58664  17.089  17.164   6.594
 4428POPC   C3B58665  17.032  16.990   6.974
 4428POPC   C4B58666  16.761  17.159   7.246
 4429POPC   NC358667  10.626  42.431   5.197
 4429POPC   PO458668  10.142  42.260   5.610
 4429POPC   GL158669  10.491  42.451   5.789
 4429POPC   GL258670  10.741  42.232   5.698
 4429POPC   C1A58671  10.504  42.528   6.246
 4429POPC   D2A58672  10.256  42.780   6.578
 4429POPC   C3A58673  10.179  42.557   6.995
 4429POPC   C4A58674  10.593  42.439   7.194
 4429POPC   C1B58675  10.851  42.127   6.137
 4429POPC   C2B58676  10.672  41.978   6.565
 4429POPC   C3B58677  10.811  41.950   7.016
 4429POPC   C4B58678  10.632  42.005   7.452
 4430POPC   NC358679  28.015   1.734   5.613
 4430POPC   PO458680  28.472   1.197   5.432
 4430POPC   GL158681  28.489   1.165   5.824
 4430POPC   GL258682  28.195   1.368   5.923
 4430POPC   C1A58683  28.554   1.182   6.233
 4430POPC   D2A58684  28.400   1.379   6.579
 4430POPC   C3A58685  28.557   1.187   6.930
 4430POPC   C4A58686  28.564   0.950   7.307
 4430POPC   C1B58687  28.028   1.732   6.247
 4430POPC   C2B58688  27.978   1.700   6.665
 4430POPC   C3B58689  28.069   1.417   6.960
 4430POPC   C4B58690  28.281   1.388   7.307
 4431POPC   NC358691  43.171   9.886   5.281
 4431POPC   PO458692  42.491   9.975   5.546
 4431POPC   GL158693  42.929  10.020   5.748
 4431POPC   GL258694  43.197   9.741   5.790
 4431POPC   C1A58695  43.200  10.154   6.122
 4431POPC   D2A58696  43.401   9.935   6.491
 4431POPC   C3A58697  43.331   9.968   6.969
 4431POPC   C4A58698  43.144   9.822   7.400
 4431POPC   C1B58699  43.180   9.527   6.202
 4431POPC   C2B58700  42.997   9.587   6.616
 4431POPC   C3B58701  43.138   9.489   7.010
 4431POPC   C4B58702  43.020   9.153   7.184
 4432POPC   NC358703  39.436  33.291   5.397
 4432POPC   PO458704  39.281  33.911   5.123
 4432POPC   GL158705  39.333  33.710   5.628
 4432POPC   GL258706  39.070  33.469   5.811
 4432POPC   C1A58707  39.414  33.800   6.072
 4432POPC   D2A58708  39.482  34.014   6.474
 4432POPC   C3A58709  39.369  33.725   6.834
 4432POPC   C4A58710  39.393  33.775   7.283
 4432POPC   C1B58711  38.873  33.532   6.264
 4432POPC   C2B58712  38.884  33.587   6.748
 4432POPC   C3B58713  38.911  33.835   7.143
 4432POPC   C4B58714  38.978  33.954   7.610
 4433POPC   NC358715   5.910  38.251   5.584
 4433POPC   PO458716   5.402  38.751   5.585
 4433POPC   GL158717   5.688  38.637   5.866
 4433POPC   GL258718   6.029  38.680   5.867
 4433POPC   C1A58719   5.712  38.757   6.291
 4433POPC   D2A58720   5.505  38.539   6.605
 4433POPC   C3A58721   5.719  38.459   6.975
 4433POPC   C4A58722   6.024  38.257   7.241
 4433POPC   C1B58723   6.053  38.367   6.237
 4433POPC   C2B58724   6.128  38.313   6.697
 4433POPC   C3B58725   6.252  38.630   7.010
 4433POPC   C4B58726   6.022  38.750   7.400
 4434POPC   NC358727  20.958  16.103   5.376
 4434POPC   PO458728  20.457  15.654   5.404
 4434POPC   GL158729  20.612  15.918   5.763
 4434POPC   GL258730  20.339  16.188   5.785
 4434POPC   C1A58731  20.860  15.813   6.166
 4434POPC   D2A58732  21.092  15.852   6.576
 4434POPC   C3A58733  20.925  16.023   6.975
 4434POPC   C4A58734  20.815  15.915   7.407
 4434POPC   C1B58735  20.434  16.133   6.224
 4434POPC   C2B58736  20.522  16.033   6.652
 4434POPC   C3B58737  20.416  16.088   7.099
 4434POPC   C4B58738  20.380  16.205   7.525
 4435POPC   NC358739  37.428  41.734   5.430
 4435POPC   PO458740  38.025  42.120   5.394
 4435POPC   GL158741  37.729  41.955   5.756
 4435POPC   GL258742  37.686  41.544   5.839
 4435POPC   C1A58743  37.524  41.884   6.165
 4435POPC   D2A58744  37.641  41.674   6.507
 4435POPC   C3A58745  37.538  41.878   6.870
 4435POPC   C4A58746  37.671  41.752   7.251
 4435POPC   C1B58747  37.752  41.247   6.202
 4435POPC   C2B58748  37.587  41.176   6.624
 4435POPC   C3B58749  37.723  41.262   7.053
 4435POPC   C4B58750  37.540  41.296   7.484
 4436POPC   NC358751   4.814  33.350   5.521
 4436POPC   PO458752   4.452  33.953   5.425
 4436POPC   GL158753   4.432  33.791   5.857
 4436POPC   GL258754   4.380  33.417   5.892
 4436POPC   C1A58755   4.457  33.725   6.314
 4436POPC   D2A58756   4.512  33.420   6.639
 4436POPC   C3A58757   4.623  33.579   7.058
 4436POPC   C4A58758   4.496  33.968   7.274
 4436POPC   C1B58759   4.004  33.581   6.130
 4436POPC   C2B58760   3.961  33.850   6.460
 4436POPC   C3B58761   4.164  33.878   6.861
 4436POPC   C4B58762   4.035  33.755   7.278
 4437POPC   NC358763  37.860  44.827   5.255
 4437POPC   PO458764  37.470  44.443   5.533
 4437POPC   GL158765  37.771  44.585   5.805
 4437POPC   GL258766  38.025  44.799   5.734
 4437POPC   C1A58767  37.674  44.809   6.155
 4437POPC   D2A58768  37.488  44.694   6.527
 4437POPC   C3A58769  37.658  44.782   6.895
 4437POPC   C4A58770  37.680  44.389   7.096
 4437POPC   C1B58771  38.153  44.971   6.115
 4437POPC   C2B58772  37.959   0.045   6.520
 4437POPC   C3B58773  38.124  44.992   6.915
 4437POPC   C4B58774  38.063  44.714   7.212
 4438POPC   NC358775   4.687  12.141   5.099
 4438POPC   PO458776   5.307  11.865   5.307
 4438POPC   GL158777   5.212  11.998   5.736
 4438POPC   GL258778   4.848  12.095   5.728
 4438POPC   C1A58779   5.232  11.809   6.175
 4438POPC   D2A58780   5.522  11.765   6.556
 4438POPC   C3A58781   5.333  11.907   6.947
 4438POPC   C4A58782   5.283  12.300   7.172
 4438POPC   C1B58783   4.756  12.174   6.195
 4438POPC   C2B58784   4.769  12.001   6.649
 4438POPC   C3B58785   4.814  11.905   7.122
 4438POPC   C4B58786   4.622  11.881   7.541
 4439POPC   NC358787  24.074  19.856   5.222
 4439POPC   PO458788  23.412  19.688   5.452
 4439POPC   GL158789  23.556  19.673   5.874
 4439POPC   GL258790  23.909  19.749   5.835
 4439POPC   C1A58791  23.665  19.953   6.227
 4439POPC   D2A58792  23.790  19.838   6.621
 4439POPC   C3A58793  23.518  19.829   6.918
 4439POPC   C4A58794  23.540  19.924   7.315
 4439POPC   C1B58795  23.914  19.507   6.256
 4439POPC   C2B58796  24.106  19.457   6.701
 4439POPC   C3B58797  23.974  19.651   7.138
 4439POPC   C4B58798  23.787  19.560   7.583
 4440POPC   NC358799  21.668  10.366   5.505
 4440POPC   PO458800  21.071  10.600   5.374
 4440POPC   GL158801  21.185  10.687   5.803
 4440POPC   GL258802  21.181  11.040   5.899
 4440POPC   C1A58803  21.388  10.504   6.196
 4440POPC   D2A58804  21.214  10.465   6.611
 4440POPC   C3A58805  21.385  10.409   7.019
 4440POPC   C4A58806  21.191  10.719   7.288
 4440POPC   C1B58807  21.607  10.924   5.959
 4440POPC   C2B58808  21.833  10.756   6.311
 4440POPC   C3B58809  21.692  10.703   6.720
 4440POPC   C4B58810  21.702  10.800   7.153
 4441POPC   NC358811  10.966   3.450   5.510
 4441POPC   PO458812  10.328   3.654   5.274
 4441POPC   GL158813  10.411   3.555   5.706
 4441POPC   GL258814  10.287   3.216   5.742
 4441POPC   C1A58815  10.377   3.647   6.153
 4441POPC   D2A58816  10.550   3.864   6.527
 4441POPC   C3A58817  10.347   3.815   6.937
 4441POPC   C4A58818  10.547   3.665   7.307
 4441POPC   C1B58819  10.635   3.217   6.033
 4441POPC   C2B58820  10.666   3.223   6.456
 4441POPC   C3B58821  10.726   3.052   6.866
 4441POPC   C4B58822  10.506   3.168   7.210
 4442POPC   NC358823  36.264  28.841   5.601
 4442POPC   PO458824  35.700  28.772   5.172
 4442POPC   GL158825  35.766  28.928   5.642
 4442POPC   GL258826  35.961  29.265   5.721
 4442POPC   C1A58827  35.920  28.965   6.127
 4442POPC   D2A58828  35.874  29.232   6.522
 4442POPC   C3A58829  35.886  29.067   6.962
 4442POPC   C4A58830  35.870  29.271   7.390
 4442POPC   C1B58831  36.194  29.414   6.132
 4442POPC   C2B58832  36.364  29.359   6.600
 4442POPC   C3B58833  36.278  29.406   7.083
 4442POPC   C4B58834  36.325  29.500   7.580
 4443POPC   NC358835  27.757   2.605   5.432
 4443POPC   PO458836  27.360   3.168   5.448
 4443POPC   GL158837  27.547   3.051   5.841
 4443POPC   GL258838  27.888   3.041   5.788
 4443POPC   C1A58839  27.624   2.886   6.278
 4443POPC   D2A58840  27.447   2.947   6.697
 4443POPC   C3A58841  27.582   2.768   7.095
 4443POPC   C4A58842  27.359   2.447   7.362
 4443POPC   C1B58843  28.027   3.189   6.213
 4443POPC   C2B58844  27.867   3.231   6.647
 4443POPC   C3B58845  28.035   3.114   7.077
 4443POPC   C4B58846  27.944   2.866   7.479
 4444POPC   NC358847  37.593   1.429   5.588
 4444POPC   PO458848  38.117   1.838   5.383
 4444POPC   GL158849  37.864   1.907   5.763
 4444POPC   GL258850  37.615   2.196   5.730
 4444POPC   C1A58851  37.794   1.862   6.220
 4444POPC   D2A58852  37.976   1.802   6.635
 4444POPC   C3A58853  37.636   1.834   6.991
 4444POPC   C4A58854  37.626   1.702   7.435
 4444POPC   C1B58855  37.858   2.340   6.083
 4444POPC   C2B58856  37.828   2.285   6.551
 4444POPC   C3B58857  38.012   2.181   6.965
 4444POPC   C4B58858  37.804   2.190   7.332
 4445POPC   NC358859  10.732  38.226   5.474
 4445POPC   PO458860  10.443  38.856   5.324
 4445POPC   GL158861  10.580  38.860   5.759
 4445POPC   GL258862  10.472  38.538   5.777
 4445POPC   C1A58863  10.452  38.853   6.213
 4445POPC   D2A58864  10.705  38.828   6.589
 4445POPC   C3A58865  10.586  38.702   7.005
 4445POPC   C4A58866  10.810  38.372   7.236
 4445POPC   C1B58867  10.450  38.290   6.132
 4445POPC   C2B58868  10.456  38.372   6.570
 4445POPC   C3B58869  10.393  38.204   6.967
 4445POPC   C4B58870  10.487  37.994   7.318
 4446POPC   NC358871  23.907  22.530   5.495
 4446POPC   PO458872  23.641  23.143   5.568
 4446POPC   GL158873  23.775  22.874   5.855
 4446POPC   GL258874  23.555  22.654   5.858
 4446POPC   C1A58875  23.875  22.754   6.256
 4446POPC   D2A58876  23.977  22.970   6.596
 4446POPC   C3A58877  23.833  22.857   6.956
 4446POPC   C4A58878  23.771  23.152   7.234
 4446POPC   C1B58879  23.337  22.814   6.171
 4446POPC   C2B58880  23.467  22.772   6.580
 4446POPC   C3B58881  23.335  22.774   6.986
 4446POPC   C4B58882  23.467  22.783   7.427
 4447POPC   NC358883   9.885  39.627   5.437
 4447POPC   PO458884   9.384  40.119   5.279
 4447POPC   GL158885   9.551  40.257   5.691
 4447POPC   GL258886   9.826  40.002   5.833
 4447POPC   C1A58887   9.456  40.237   6.137
 4447POPC   D2A58888   9.665  40.078   6.500
 4447POPC   C3A58889   9.752  40.396   6.815
 4447POPC   C4A58890   9.839  40.240   7.200
 4447POPC   C1B58891   9.831  39.673   6.195
 4447POPC   C2B58892  10.001  39.556   6.618
 4447POPC   C3B58893   9.759  39.638   7.014
 4447POPC   C4B58894   9.814  39.796   7.440
 4448POPC   NC358895  24.940  17.370   5.307
 4448POPC   PO458896  24.343  17.676   5.310
 4448POPC   GL158897  24.379  17.452   5.701
 4448POPC   GL258898  24.720  17.347   5.773
 4448POPC   C1A58899  24.329  17.498   6.159
 4448POPC   D2A58900  24.424  17.633   6.575
 4448POPC   C3A58901  24.414  17.429   6.955
 4448POPC   C4A58902  24.177  17.411   7.321
 4448POPC   C1B58903  24.899  17.339   6.207
 4448POPC   C2B58904  24.850  17.379   6.642
 4448POPC   C3B58905  24.921  17.409   7.072
 4448POPC   C4B58906  24.655  17.229   7.402
 4449POPC   NC358907  20.722  28.556   5.249
 4449POPC   PO458908  20.836  28.156   5.790
 4449POPC   GL158909  20.587  28.511   5.922
 4449POPC   GL258910  20.299  28.606   5.691
 4449POPC   C1A58911  20.615  28.542   6.388
 4449POPC   D2A58912  20.562  28.352   6.794
 4449POPC   C3A58913  20.852  28.365   7.141
 4449POPC   C4A58914  20.736  28.564   7.536
 4449POPC   C1B58915  20.127  28.329   6.070
 4449POPC   C2B58916  20.081  28.250   6.526
 4449POPC   C3B58917  20.185  28.025   6.921
 4449POPC   C4B58918  20.445  28.124   7.291
 4450POPC   NC358919  20.169  30.535   5.517
 4450POPC   PO458920  20.714  30.914   5.449
 4450POPC   GL158921  20.570  30.745   5.844
 4450POPC   GL258922  20.742  30.434   5.744
 4450POPC   C1A58923  20.392  30.868   6.281
 4450POPC   D2A58924  20.240  30.784   6.717
 4450POPC   C3A58925  20.191  30.870   7.162
 4450POPC   C4A58926  20.394  30.651   7.474
 4450POPC   C1B58927  20.889  30.472   6.166
 4450POPC   C2B58928  20.721  30.573   6.565
 4450POPC   C3B58929  20.676  30.683   7.001
 4450POPC   C4B58930  20.912  30.688   7.386
 4451POPC   NC358931  41.582  28.843   5.367
 4451POPC   PO458932  41.765  29.542   5.482
 4451POPC   GL158933  41.650  29.220   5.791
 4451POPC   GL258934  41.447  28.916   5.838
 4451POPC   C1A58935  41.500  29.257   6.218
 4451POPC   D2A58936  41.590  29.475   6.590
 4451POPC   C3A58937  41.449  29.234   6.941
 4451POPC   C4A58938  41.492  29.005   7.315
 4451POPC   C1B58939  41.798  28.819   6.111
 4451POPC   C2B58940  42.001  28.848   6.518
 4451POPC   C3B58941  41.790  28.847   6.884
 4451POPC   C4B58942  41.835  28.637   7.248
 4452POPC   NC358943  15.178  23.768   5.372
 4452POPC   PO458944  15.718  23.886   5.642
 4452POPC   GL158945  15.417  23.871   5.927
 4452POPC   GL258946  15.327  23.547   5.813
 4452POPC   C1A58947  15.123  23.904   6.281
 4452POPC   D2A58948  15.049  24.100   6.678
 4452POPC   C3A58949  14.960  23.836   7.040
 4452POPC   C4A58950  15.366  23.748   7.205
 4452POPC   C1B58951  15.356  23.447   6.245
 4452POPC   C2B58952  15.204  23.567   6.672
 4452POPC   C3B58953  15.111  23.312   7.046
 4452POPC   C4B58954  15.372  23.255   7.406
 4453POPC   NC358955   9.932  18.421   5.356
 4453POPC   PO458956   9.784  17.878   5.401
 4453POPC   GL158957   9.725  18.172   5.754
 4453POPC   GL258958   9.383  18.175   5.849
 4453POPC   C1A58959   9.719  18.390   6.177
 4453POPC   D2A58960   9.727  18.304   6.634
 4453POPC   C3A58961   9.963  18.430   7.014
 4453POPC   C4A58962  10.286  18.305   7.352
 4453POPC   C1B58963   9.336  17.967   6.275
 4453POPC   C2B58964   9.492  17.861   6.703
 4453POPC   C3B58965   9.499  18.132   7.079
 4453POPC   C4B58966   9.270  18.264   7.485
 4454POPC   NC358967  21.571  16.324   5.418
 4454POPC   PO458968  21.455  15.690   5.449
 4454POPC   GL158969  21.228  15.954   5.781
 4454POPC   GL258970  21.466  15.872   5.987
 4454POPC   C1A58971  21.207  16.219   6.206
 4454POPC   D2A58972  21.548  16.093   6.493
 4454POPC   C3A58973  21.446  16.092   6.907
 4454POPC   C4A58974  21.267  16.291   7.239
 4454POPC   C1B58975  21.863  15.750   6.176
 4454POPC   C2B58976  21.991  15.837   6.592
 4454POPC   C3B58977  21.835  15.804   7.026
 4454POPC   C4B58978  21.593  15.933   7.412
 4455POPC   NC358979  25.330  19.664   5.344
 4455POPC   PO458980  25.484  20.330   5.547
 4455POPC   GL158981  25.275  20.021   5.774
 4455POPC   GL258982  25.326  19.671   5.870
 4455POPC   C1A58983  25.090  20.018   6.182
 4455POPC   D2A58984  25.089  19.845   6.585
 4455POPC   C3A58985  25.252  20.077   6.942
 4455POPC   C4A58986  25.142  20.045   7.393
 4455POPC   C1B58987  25.089  19.408   6.176
 4455POPC   C2B58988  24.929  19.374   6.632
 4455POPC   C3B58989  25.220  19.426   6.967
 4455POPC   C4B58990  25.445  19.675   7.256
 4456POPC   NC358991  10.084  38.887   5.614
 4456POPC   PO458992   9.521  39.227   5.428
 4456POPC   GL158993   9.614  39.048   5.796
 4456POPC   GL258994   9.860  39.283   5.871
 4456POPC   C1A58995   9.449  39.177   6.188
 4456POPC   D2A58996   9.518  39.381   6.569
 4456POPC   C3A58997   9.462  39.187   6.965
 4456POPC   C4A58998   9.716  38.899   7.196
 4456POPC   C1B58999   9.943  39.032   6.256
 4456POPC   C2B59000  10.123  38.929   6.664
 4456POPC   C3B59001  10.075  39.208   7.022
 4456POPC   C4B59002   9.986  39.308   7.470
 4457POPC   NC359003  31.523   9.094   5.391
 4457POPC   PO459004  31.554   8.407   5.225
 4457POPC   GL159005  31.607   8.645   5.645
 4457POPC   GL259006  31.347   8.848   5.813
 4457POPC   C1A59007  31.817   8.846   6.047
 4457POPC   D2A59008  31.667   9.085   6.432
 4457POPC   C3A59009  31.797   9.067   6.900
 4457POPC   C4A59010  31.727   9.019   7.341
 4457POPC   C1B59011  31.167   8.885   6.240
 4457POPC   C2B59012  31.191   8.663   6.666
 4457POPC   C3B59013  31.286   8.838   7.098
 4457POPC   C4B59014  31.311   8.798   7.556
 4458POPC   NC359015  34.496  19.487   5.563
 4458POPC   PO459016  34.336  20.094   5.206
 4458POPC   GL159017  34.313  19.982   5.652
 4458POPC   GL259018  34.676  19.934   5.751
 4458POPC   C1A59019  34.289  19.872   6.108
 4458POPC   D2A59020  34.434  19.605   6.466
 4458POPC   C3A59021  34.495  19.778   6.871
 4458POPC   C4A59022  34.493  19.590   7.268
 4458POPC   C1B59023  34.806  19.901   6.195
 4458POPC   C2B59024  34.935  19.725   6.584
 4458POPC   C3B59025  34.954  19.623   7.022
 4458POPC   C4B59026  34.821  19.963   7.264
 4459POPC   NC359027  16.170  22.028   5.492
 4459POPC   PO459028  15.610  22.435   5.493
 4459POPC   GL159029  15.837  22.222   5.842
 4459POPC   GL259030  16.097  22.423   5.828
 4459POPC   C1A59031  15.976  21.903   6.206
 4459POPC   D2A59032  15.995  21.814   6.689
 4459POPC   C3A59033  15.864  22.173   6.964
 4459POPC   C4A59034  15.531  22.414   7.150
 4459POPC   C1B59035  16.282  22.321   6.210
 4459POPC   C2B59036  16.385  22.496   6.602
 4459POPC   C3B59037  16.338  22.328   6.992
 4459POPC   C4B59038  16.147  22.141   7.377
 4460POPC   NC359039  42.347  32.785   5.514
 4460POPC   PO459040  42.763  33.230   5.458
 4460POPC   GL159041  42.697  33.009   5.828
 4460POPC   GL259042  42.329  33.144   5.877
 4460POPC   C1A59043  42.644  33.118   6.260
 4460POPC   D2A59044  42.254  33.276   6.442
 4460POPC   C3A59045  42.324  33.260   6.883
 4460POPC   C4A59046  42.695  33.084   7.086
 4460POPC   C1B59047  42.265  32.803   6.179
 4460POPC   C2B59048  42.136  32.748   6.633
 4460POPC   C3B59049  42.282  32.771   7.076
 4460POPC   C4B59050  42.258  33.093   7.398
 4461POPC   NC359051  38.147   0.571   5.050
 4461POPC   PO459052  38.280   0.177   5.517
 4461POPC   GL159053  38.450   0.373   5.868
 4461POPC   GL259054  38.788   0.467   5.816
 4461POPC   C1A59055  38.275   0.429   6.265
 4461POPC   D2A59056  38.429   0.281   6.619
 4461POPC   C3A59057  38.286   0.462   6.991
 4461POPC   C4A59058  38.268   0.233   7.382
 4461POPC   C1B59059  38.663   0.717   6.197
 4461POPC   C2B59060  38.473   0.794   6.621
 4461POPC   C3B59061  38.669   0.832   7.009
 4461POPC   C4B59062  38.648   0.588   7.362
 4462POPC   NC359063   0.520  31.826   5.312
 4462POPC   PO459064   0.930  31.417   5.279
 4462POPC   GL159065   0.665  31.429   5.732
 4462POPC   GL259066   0.430  31.710   5.797
 4462POPC   C1A59067   0.452  31.378   6.175
 4462POPC   D2A59068   0.320  31.538   6.592
 4462POPC   C3A59069   0.455  31.331   6.988
 4462POPC   C4A59070   0.695  31.529   7.344
 4462POPC   C1B59071   0.223  31.874   6.155
 4462POPC   C2B59072  44.964  31.939   6.491
 4462POPC   C3B59073  44.883  31.690   6.836
 4462POPC   C4B59074   0.160  31.703   7.175
 4463POPC   NC359075  34.722  29.509   5.364
 4463POPC   PO459076  34.080  29.261   5.446
 4463POPC   GL159077  34.449  29.259   5.796
 4463POPC   GL259078  34.827  29.323   5.831
 4463POPC   C1A59079  34.637  29.070   6.221
 4463POPC   D2A59080  34.589  29.200   6.678
 4463POPC   C3A59081  34.542  28.967   7.094
 4463POPC   C4A59082  34.470  28.699   7.476
 4463POPC   C1B59083  34.954  29.560   6.230
 4463POPC   C2B59084  34.904  29.596   6.698
 4463POPC   C3B59085  34.617  29.525   7.084
 4463POPC   C4B59086  34.690  29.292   7.477
 4464POPC   NC359087  33.660  17.457   5.438
 4464POPC   PO459088  34.172  17.060   5.557
 4464POPC   GL159089  33.970  17.284   5.852
 4464POPC   GL259090  33.655  17.117   5.868
 4464POPC   C1A59091  34.004  17.316   6.297
 4464POPC   D2A59092  34.183  17.298   6.712
 4464POPC   C3A59093  33.924  17.518   7.020
 4464POPC   C4A59094  33.990  17.927   7.182
 4464POPC   C1B59095  33.624  16.971   6.321
 4464POPC   C2B59096  33.666  17.146   6.757
 4464POPC   C3B59097  33.707  17.070   7.229
 4464POPC   C4B59098  33.671  17.308   7.659
 4465POPC   NC359099   6.640  28.414   5.396
 4465POPC   PO459100   6.306  27.853   5.326
 4465POPC   GL159101   6.627  28.032   5.719
 4465POPC   GL259102   6.871  28.378   5.825
 4465POPC   C1A59103   6.562  28.176   6.140
 4465POPC   D2A59104   6.475  28.009   6.508
 4465POPC   C3A59105   6.648  28.136   6.890
 4465POPC   C4A59106   6.528  28.002   7.295
 4465POPC   C1B59107   7.058  28.299   6.236
 4465POPC   C2B59108   6.833  28.480   6.527
 4465POPC   C3B59109   6.830  28.643   6.908
 4465POPC   C4B59110   6.810  28.437   7.291
 4466POPC   NC359111  41.834  44.933   5.262
 4466POPC   PO459112  41.536  44.376   5.409
 4466POPC   GL159113  41.633  44.686   5.747
 4466POPC   GL259114  41.530   0.044   5.669
 4466POPC   C1A59115  41.524  44.639   6.206
 4466POPC   D2A59116  41.557  44.694   6.651
 4466POPC   C3A59117  41.284  44.501   6.923
 4466POPC   C4A59118  41.336  44.298   7.322
 4466POPC   C1B59119  41.293   0.081   6.059
 4466POPC   C2B59120  41.418   0.226   6.477
 4466POPC   C3B59121  41.520   0.151   6.907
 4466POPC   C4B59122  41.622  44.824   7.175
 4467POPC   NC359123  19.927  26.508   5.483
 4467POPC   PO459124  19.873  27.145   5.536
 4467POPC   GL159125  19.825  26.852   5.866
 4467POPC   GL259126  19.557  26.624   5.816
 4467POPC   C1A59127  19.973  26.879   6.281
 4467POPC   D2A59128  19.829  27.126   6.633
 4467POPC   C3A59129  19.957  26.930   6.997
 4467POPC   C4A59130  20.209  26.591   7.126
 4467POPC   C1B59131  19.555  26.552   6.233
 4467POPC   C2B59132  19.481  26.635   6.647
 4467POPC   C3B59133  19.653  26.521   7.048
 4467POPC   C4B59134  19.434  26.463   7.445
 4468POPC   NC359135  21.234   9.502   5.250
 4468POPC   PO459136  21.765   9.880   5.404
 4468POPC   GL159137  21.474   9.613   5.689
 4468POPC   GL259138  21.069   9.600   5.706
 4468POPC   C1A59139  21.358   9.655   6.118
 4468POPC   D2A59140  21.313  10.002   6.410
 4468POPC   C3A59141  21.152   9.964   6.824
 4468POPC   C4A59142  21.354   9.819   7.195
 4468POPC   C1B59143  20.878   9.457   6.099
 4468POPC   C2B59144  21.055   9.546   6.516
 4468POPC   C3B59145  21.132   9.436   6.902
 4468POPC   C4B59146  20.955   9.486   7.276
 4469POPC   NC359147  37.020  44.355   5.520
 4469POPC   PO459148  36.696  43.780   5.321
 4469POPC   GL159149  36.716  43.995   5.837
 4469POPC   GL259150  37.037  44.155   5.995
 4469POPC   C1A59151  36.784  43.894   6.336
 4469POPC   D2A59152  36.991  43.871   6.746
 4469POPC   C3A59153  36.810  43.730   7.151
 4469POPC   C4A59154  36.792  43.681   7.619
 4469POPC   C1B59155  36.677  44.383   6.202
 4469POPC   C2B59156  36.640  44.460   6.674
 4469POPC   C3B59157  36.823  44.243   7.078
 4469POPC   C4B59158  37.235  44.321   7.366
 4470POPC   NC359159  34.020  29.716   5.379
 4470POPC   PO459160  33.749  30.247   5.575
 4470POPC   GL159161  34.112  30.017   5.785
 4470POPC   GL259162  34.072  29.624   5.877
 4470POPC   C1A59163  34.166  29.970   6.234
 4470POPC   D2A59164  34.215  30.153   6.616
 4470POPC   C3A59165  33.884  30.360   6.790
 4470POPC   C4A59166  33.806  30.228   7.188
 4470POPC   C1B59167  33.929  29.537   6.331
 4470POPC   C2B59168  33.825  29.807   6.718
 4470POPC   C3B59169  33.684  29.735   7.166
 4470POPC   C4B59170  33.840  29.599   7.577
 4471POPC   NC359171  10.311  22.508   5.553
 4471POPC   PO459172  10.752  21.974   5.540
 4471POPC   GL159173  10.518  22.140   5.857
 4471POPC   GL259174  10.326  21.901   5.971
 4471POPC   C1A59175  10.494  22.240   6.290
 4471POPC   D2A59176  10.635  22.488   6.588
 4471POPC   C3A59177  10.716  22.342   6.965
 4471POPC   C4A59178  10.587  22.496   7.380
 4471POPC   C1B59179  10.696  21.767   6.202
 4471POPC   C2B59180  10.845  21.971   6.583
 4471POPC   C3B59181  10.890  21.855   6.989
 4471POPC   C4B59182  10.573  21.888   7.267
 4472POPC   NC359183  16.972  41.739   5.608
 4472POPC   PO459184  16.723  41.167   5.541
 4472POPC   GL159185  16.625  41.412   5.906
 4472POPC   GL259186  16.496  41.755   5.867
 4472POPC   C1A59187  16.461  41.450   6.342
 4472POPC   D2A59188  16.400  41.837   6.617
 4472POPC   C3A59189  16.467  41.789   7.032
 4472POPC   C4A59190  16.727  41.506   7.154
 4472POPC   C1B59191  16.758  41.870   6.215
 4472POPC   C2B59192  16.918  41.823   6.632
 4472POPC   C3B59193  16.933  41.975   7.062
 4472POPC   C4B59194  16.947  41.838   7.501
 4473POPC   NC359195  42.894   8.714   5.693
 4473POPC   PO459196  43.033   9.354   5.505
 4473POPC   GL159197  43.038   9.177   5.853
 4473POPC   GL259198  43.358   9.063   5.842
 4473POPC   C1A59199  43.031   9.009   6.249
 4473POPC   D2A59200  43.137   9.089   6.640
 4473POPC   C3A59201  43.076   8.742   6.863
 4473POPC   C4A59202  42.828   8.700   7.220
 4473POPC   C1B59203  43.524   9.083   6.229
 4473POPC   C2B59204  43.653   8.984   6.633
 4473POPC   C3B59205  43.485   9.034   7.016
 4473POPC   C4B59206  43.352   8.735   7.307
 4474POPC   NC359207  23.388   8.919   5.572
 4474POPC   PO459208  22.733   9.200   5.453
 4474POPC   GL159209  22.919   8.987   5.815
 4474POPC   GL259210  23.224   9.104   6.002
 4474POPC   C1A59211  22.849   8.872   6.262
 4474POPC   D2A59212  23.053   8.736   6.677
 4474POPC   C3A59213  22.839   8.863   7.060
 4474POPC   C4A59214  22.701   9.211   7.309
 4474POPC   C1B59215  23.404   8.851   6.293
 4474POPC   C2B59216  23.517   8.970   6.707
 4474POPC   C3B59217  23.332   8.972   7.114
 4474POPC   C4B59218  23.156   9.161   7.508
 4475POPC   NC359219  32.288  10.096   5.330
 4475POPC   PO459220  31.781  10.441   5.127
 4475POPC   GL159221  32.047  10.433   5.622
 4475POPC   GL259222  32.455  10.464   5.716
 4475POPC   C1A59223  32.185  10.299   6.110
 4475POPC   D2A59224  32.407  10.423   6.549
 4475POPC   C3A59225  32.249  10.403   7.006
 4475POPC   C4A59226  32.170  10.731   7.333
 4475POPC   C1B59227  32.702  10.334   6.141
 4475POPC   C2B59228  32.881  10.190   6.546
 4475POPC   C3B59229  32.744  10.222   6.963
 4475POPC   C4B59230  32.656  10.465   7.321
 4476POPC   NC359231  22.959  17.496   5.441
 4476POPC   PO459232  22.877  18.146   5.413
 4476POPC   GL159233  22.919  17.845   5.817
 4476POPC   GL259234  23.140  17.530   5.909
 4476POPC   C1A59235  22.711  17.612   6.184
 4476POPC   D2A59236  22.864  17.626   6.624
 4476POPC   C3A59237  22.722  17.359   6.976
 4476POPC   C4A59238  22.741  17.502   7.405
 4476POPC   C1B59239  23.182  17.380   6.329
 4476POPC   C2B59240  23.218  17.270   6.764
 4476POPC   C3B59241  23.163  17.588   7.066
 4476POPC   C4B59242  23.285  17.618   7.448
 4477POPC   NC359243  44.022  31.863   5.378
 4477POPC   PO459244  44.302  31.252   5.395
 4477POPC   GL159245  44.190  31.533   5.736
 4477POPC   GL259246  43.803  31.533   5.734
 4477POPC   C1A59247  44.054  31.651   6.168
 4477POPC   D2A59248  44.019  31.601   6.620
 4477POPC   C3A59249  43.860  31.517   7.014
 4477POPC   C4A59250  43.954  31.591   7.423
 4477POPC   C1B59251  43.612  31.373   6.138
 4477POPC   C2B59252  43.583  31.307   6.593
 4477POPC   C3B59253  43.586  31.090   6.989
 4477POPC   C4B59254  43.885  31.073   7.308
 4478POPC   NC359255  22.217  26.911   5.638
 4478POPC   PO459256  21.644  26.764   5.257
 4478POPC   GL159257  21.354  26.653   5.632
 4478POPC   GL259258  21.466  26.951   5.774
 4478POPC   C1A59259  21.130  26.732   6.077
 4478POPC   D2A59260  21.337  26.750   6.487
 4478POPC   C3A59261  21.153  26.793   6.910
 4478POPC   C4A59262  21.256  26.617   7.295
 4478POPC   C1B59263  21.451  27.164   6.154
 4478POPC   C2B59264  21.490  27.286   6.557
 4478POPC   C3B59265  21.669  27.243   6.945
 4478POPC   C4B59266  21.399  27.136   7.255
 4479POPC   NC359267  37.568  11.642   5.451
 4479POPC   PO459268  37.804  10.965   5.318
 4479POPC   GL159269  37.761  11.223   5.729
 4479POPC   GL259270  38.032  11.168   5.974
 4479POPC   C1A59271  37.624  11.396   6.158
 4479POPC   D2A59272  37.479  11.224   6.568
 4479POPC   C3A59273  37.517  11.378   6.999
 4479POPC   C4A59274  37.380  11.668   7.321
 4479POPC   C1B59275  37.929  11.009   6.395
 4479POPC   C2B59276  37.914  10.755   6.786
 4479POPC   C3B59277  37.849  10.987   7.152
 4479POPC   C4B59278  38.005  11.414   7.191
 4480POPC   NC359279  38.607  42.812   5.217
 4480POPC   PO459280  38.801  42.223   5.609
 4480POPC   GL159281  38.499  42.194   5.934
 4480POPC   GL259282  38.173  42.360   5.841
 4480POPC   C1A59283  38.358  42.059   6.346
 4480POPC   D2A59284  38.435  41.980   6.812
 4480POPC   C3A59285  38.705  42.304   6.977
 4480POPC   C4A59286  38.819  42.633   7.258
 4480POPC   C1B59287  38.238  42.590   6.266
 4480POPC   C2B59288  38.261  42.494   6.731
 4480POPC   C3B59289  38.288  42.523   7.190
 4480POPC   C4B59290  38.037  42.509   7.579
 4481POPC   NC359291  26.113  36.977   5.114
 4481POPC   PO459292  25.733  36.467   5.332
 4481POPC   GL159293  25.952  36.779   5.613
 4481POPC   GL259294  25.792  37.106   5.729
 4481POPC   C1A59295  25.962  36.777   6.078
 4481POPC   D2A59296  25.768  36.835   6.486
 4481POPC   C3A59297  25.937  36.656   6.874
 4481POPC   C4A59298  26.156  36.773   7.235
 4481POPC   C1B59299  25.850  37.269   6.170
 4481POPC   C2B59300  25.883  37.347   6.617
 4481POPC   C3B59301  25.703  37.106   6.935
 4481POPC   C4B59302  25.793  37.090   7.364
 4482POPC   NC359303   5.343  27.375   5.315
 4482POPC   PO459304   5.034  26.875   5.405
 4482POPC   GL159305   4.973  27.298   5.684
 4482POPC   GL259306   5.180  27.647   5.702
 4482POPC   C1A59307   4.941  27.422   6.143
 4482POPC   D2A59308   5.021  27.638   6.561
 4482POPC   C3A59309   4.934  27.491   6.991
 4482POPC   C4A59310   4.874  27.672   7.423
 4482POPC   C1B59311   5.359  27.721   6.111
 4482POPC   C2B59312   5.522  27.678   6.528
 4482POPC   C3B59313   5.393  27.727   6.971
 4482POPC   C4B59314   5.352  27.977   7.351
 4483POPC   NC359315  34.646  43.875   5.482
 4483POPC   PO459316  33.962  43.711   5.375
 4483POPC   GL159317  34.212  43.778   5.757
 4483POPC   GL259318  34.376  44.112   5.873
 4483POPC   C1A59319  34.200  43.781   6.205
 4483POPC   D2A59320  34.306  44.122   6.441
 4483POPC   C3A59321  34.340  44.053   6.867
 4483POPC   C4A59322  34.678  44.001   7.191
 4483POPC   C1B59323  34.681  43.887   6.156
 4483POPC   C2B59324  34.748  43.848   6.598
 4483POPC   C3B59325  35.083  43.841   6.886
 4483POPC   C4B59326  35.028  43.606   7.275
 4484POPC   NC359327  15.065  42.707   5.454
 4484POPC   PO459328  15.096  42.074   5.136
 4484POPC   GL159329  15.261  42.208   5.562
 4484POPC   GL259330  15.498  42.470   5.661
 4484POPC   C1A59331  15.325  42.087   5.989
 4484POPC   D2A59332  15.124  42.261   6.378
 4484POPC   C3A59333  15.255  42.153   6.804
 4484POPC   C4A59334  15.124  42.252   7.217
 4484POPC   C1B59335  15.516  42.524   6.141
 4484POPC   C2B59336  15.520  42.535   6.569
 4484POPC   C3B59337  15.406  42.664   6.958
 4484POPC   C4B59338  15.498  42.897   7.290
 4485POPC   NC359339  28.847   5.736   5.481
 4485POPC   PO459340  29.361   6.033   5.221
 4485POPC   GL159341  29.293   5.991   5.705
 4485POPC   GL259342  28.973   5.950   5.918
 4485POPC   C1A59343  29.408   6.033   6.155
 4485POPC   D2A59344  29.114   5.952   6.443
 4485POPC   C3A59345  29.146   5.977   6.847
 4485POPC   C4A59346  29.400   5.794   7.115
 4485POPC   C1B59347  28.738   5.705   6.221
 4485POPC   C2B59348  28.835   5.567   6.649
 4485POPC   C3B59349  28.773   5.696   7.063
 4485POPC   C4B59350  28.881   5.635   7.517
 4486POPC   NC359351  35.897  36.351   5.417
 4486POPC   PO459352  36.507  36.229   5.445
 4486POPC   GL159353  36.348  35.942   5.782
 4486POPC   GL259354  35.978  35.906   5.806
 4486POPC   C1A59355  36.302  36.115   6.204
 4486POPC   D2A59356  36.551  36.111   6.563
 4486POPC   C3A59357  36.348  36.173   6.937
 4486POPC   C4A59358  36.340  35.911   7.281
 4486POPC   C1B59359  35.829  35.919   6.249
 4486POPC   C2B59360  35.872  36.154   6.631
 4486POPC   C3B59361  35.842  36.101   7.057
 4486POPC   C4B59362  35.865  35.920   7.464
 4487POPC   NC359363  22.345  21.658   5.346
 4487POPC   PO459364  22.104  21.055   5.315
 4487POPC   GL159365  22.267  21.272   5.691
 4487POPC   GL259366  22.359  21.610   5.846
 4487POPC   C1A59367  22.319  21.220   6.138
 4487POPC   D2A59368  22.011  21.257   6.448
 4487POPC   C3A59369  22.097  21.174   6.881
 4487POPC   C4A59370  21.729  21.109   7.144
 4487POPC   C1B59371  22.285  21.744   6.287
 4487POPC   C2B59372  22.216  21.680   6.756
 4487POPC   C3B59373  22.211  21.573   7.231
 4487POPC   C4B59374  22.367  21.801   7.670
 4488POPC   NC359375  36.303  14.450   5.113
 4488POPC   PO459376  35.985  14.849   5.580
 4488POPC   GL159377  36.189  14.499   5.784
 4488POPC   GL259378  36.410  14.209   5.611
 4488POPC   C1A59379  36.042  14.327   6.187
 4488POPC   D2A59380  35.861  14.307   6.602
 4488POPC   C3A59381  35.988  14.484   7.021
 4488POPC   C4A59382  35.883  14.131   7.240
 4488POPC   C1B59383  36.526  14.238   6.064
 4488POPC   C2B59384  36.471  14.387   6.474
 4488POPC   C3B59385  36.341  14.191   6.833
 4488POPC   C4B59386  36.393  14.235   7.272
 4489POPC   NC359387  18.443  32.910   5.249
 4489POPC   PO459388  18.384  33.559   5.489
 4489POPC   GL159389  18.175  33.246   5.798
 4489POPC   GL259390  18.222  32.882   5.788
 4489POPC   C1A59391  18.186  33.185   6.246
 4489POPC   D2A59392  18.469  33.231   6.588
 4489POPC   C3A59393  18.344  33.172   6.994
 4489POPC   C4A59394  18.177  33.509   7.161
 4489POPC   C1B59395  17.997  32.726   6.143
 4489POPC   C2B59396  17.876  32.930   6.560
 4489POPC   C3B59397  18.006  32.792   6.940
 4489POPC   C4B59398  18.102  32.641   7.295
 4490POPC   NC359399  43.116  35.087   5.168
 4490POPC   PO459400  43.500  35.649   5.447
 4490POPC   GL159401  43.202  35.518   5.779
 4490POPC   GL259402  43.179  35.163   5.702
 4490POPC   C1A59403  43.214  35.475   6.217
 4490POPC   D2A59404  43.071  35.639   6.615
 4490POPC   C3A59405  43.256  35.502   7.010
 4490POPC   C4A59406  43.141  35.572   7.452
 4490POPC   C1B59407  42.977  35.042   6.097
 4490POPC   C2B59408  43.107  35.074   6.532
 4490POPC   C3B59409  42.903  35.117   6.930
 4490POPC   C4B59410  43.075  35.095   7.314
 4491POPC   NC359411  14.360  25.075   5.159
 4491POPC   PO459412  14.601  25.721   5.152
 4491POPC   GL159413  14.275  25.431   5.514
 4491POPC   GL259414  14.285  25.052   5.646
 4491POPC   C1A59415  14.165  25.389   6.004
 4491POPC   D2A59416  14.176  25.544   6.445
 4491POPC   C3A59417  14.166  25.340   6.852
 4491POPC   C4A59418  14.200  25.445   7.278
 4491POPC   C1B59419  14.366  24.900   6.048
 4491POPC   C2B59420  14.295  25.035   6.460
 4491POPC   C3B59421  14.428  24.886   6.873
 4491POPC   C4B59422  14.431  24.982   7.304
 4492POPC   NC359423  43.783  37.101   5.348
 4492POPC   PO459424  44.007  36.474   5.214
 4492POPC   GL159425  44.048  36.672   5.647
 4492POPC   GL259426  44.077  36.358   5.850
 4492POPC   C1A59427  43.947  36.958   6.029
 4492POPC   D2A59428  43.640  36.976   6.400
 4492POPC   C3A59429  43.766  36.976   6.846
 4492POPC   C4A59430  43.888  37.216   7.229
 4492POPC   C1B59431  44.102  36.522   6.279
 4492POPC   C2B59432  44.164  36.909   6.504
 4492POPC   C3B59433  44.264  37.053   6.910
 4492POPC   C4B59434  44.141  36.765   7.256
 4493POPC   NC359435  29.493   3.392   5.202
 4493POPC   PO459436  29.980   3.863   5.168
 4493POPC   GL159437  29.858   3.789   5.640
 4493POPC   GL259438  29.799   3.446   5.730
 4493POPC   C1A59439  29.954   3.854   6.108
 4493POPC   D2A59440  30.160   3.926   6.535
 4493POPC   C3A59441  30.116   3.782   6.963
 4493POPC   C4A59442  29.964   3.775   7.394
 4493POPC   C1B59443  29.904   3.366   6.190
 4493POPC   C2B59444  30.036   3.394   6.627
 4493POPC   C3B59445  29.957   3.313   7.095
 4493POPC   C4B59446  30.235   3.362   7.466
 4494POPC   NC359447  13.760   6.293   5.483
 4494POPC   PO459448  13.917   6.948   5.481
 4494POPC   GL159449  13.586   6.768   5.791
 4494POPC   GL259450  13.284   7.044   5.867
 4494POPC   C1A59451  13.630   6.489   6.146
 4494POPC   D2A59452  13.827   6.585   6.539
 4494POPC   C3A59453  13.622   6.476   6.934
 4494POPC   C4A59454  13.803   6.563   7.325
 4494POPC   C1B59455  13.479   6.978   6.251
 4494POPC   C2B59456  13.376   6.867   6.661
 4494POPC   C3B59457  13.473   6.959   7.090
 4494POPC   C4B59458  13.353   6.755   7.450
 4495POPC   NC359459  26.228  17.207   5.339
 4495POPC   PO459460  25.950  17.821   5.545
 4495POPC   GL159461  26.038  17.429   5.791
 4495POPC   GL259462  25.773  17.221   5.624
 4495POPC   C1A59463  26.165  17.417   6.265
 4495POPC   D2A59464  26.384  17.601   6.680
 4495POPC   C3A59465  26.134  17.835   7.002
 4495POPC   C4A59466  25.820  17.814   7.340
 4495POPC   C1B59467  25.765  17.042   6.038
 4495POPC   C2B59468  25.697  17.141   6.470
 4495POPC   C3B59469  25.830  17.013   6.880
 4495POPC   C4B59470  25.958  17.313   7.195
 4496POPC   NC359471   7.496  36.323   5.361
 4496POPC   PO459472   7.077  35.837   5.392
 4496POPC   GL159473   7.273  36.015   5.720
 4496POPC   GL259474   7.564  35.841   5.781
 4496POPC   C1A59475   7.226  36.049   6.159
 4496POPC   D2A59476   7.426  36.040   6.562
 4496POPC   C3A59477   7.212  36.099   6.955
 4496POPC   C4A59478   7.296  35.973   7.375
 4496POPC   C1B59479   7.680  36.243   6.022
 4496POPC   C2B59480   7.784  36.422   6.456
 4496POPC   C3B59481   7.664  36.350   6.914
 4496POPC   C4B59482   7.741  36.284   7.328
 4497POPC   NC359483   2.160  11.416   5.002
 4497POPC   PO459484   2.020  11.613   5.681
 4497POPC   GL159485   1.916  11.210   5.875
 4497POPC   GL259486   2.247  11.065   6.004
 4497POPC   C1A59487   1.831  11.281   6.285
 4497POPC   D2A59488   2.104  11.579   6.438
 4497POPC   C3A59489   2.137  11.483   6.844
 4497POPC   C4A59490   1.948  11.651   7.231
 4497POPC   C1B59491   2.035  10.812   6.247
 4497POPC   C2B59492   2.086  10.769   6.639
 4497POPC   C3B59493   2.272  10.957   6.949
 4497POPC   C4B59494   2.096  11.183   7.244
 4498POPC   NC359495  37.453  20.881   5.378
 4498POPC   PO459496  37.999  21.136   5.247
 4498POPC   GL159497  37.779  21.191   5.674
 4498POPC   GL259498  37.471  21.437   5.689
 4498POPC   C1A59499  37.705  21.301   6.138
 4498POPC   D2A59500  37.839  21.531   6.532
 4498POPC   C3A59501  37.845  21.312   6.939
 4498POPC   C4A59502  37.660  21.421   7.329
 4498POPC   C1B59503  37.359  21.699   6.083
 4498POPC   C2B59504  37.373  21.757   6.521
 4498POPC   C3B59505  37.343  21.530   6.917
 4498POPC   C4B59506  37.233  21.732   7.306
 4499POPC   NC359507   8.303   5.228   5.493
 4499POPC   PO459508   7.846   4.859   5.328
 4499POPC   GL159509   8.019   4.863   5.724
 4499POPC   GL259510   7.870   5.218   5.741
 4499POPC   C1A59511   8.291   4.915   6.111
 4499POPC   D2A59512   8.172   4.779   6.550
 4499POPC   C3A59513   8.302   5.071   6.862
 4499POPC   C4A59514   8.522   5.165   7.201
 4499POPC   C1B59515   7.812   5.075   6.149
 4499POPC   C2B59516   7.976   5.241   6.511
 4499POPC   C3B59517   7.806   5.248   6.913
 4499POPC   C4B59518   8.023   5.242   7.274
 4500POPC   NC359519  41.052   2.204   4.982
 4500POPC   PO459520  41.228   1.734   5.389
 4500POPC   GL159521  41.035   1.750   5.798
 4500POPC   GL259522  40.756   1.962   5.793
 4500POPC   C1A59523  40.959   1.906   6.259
 4500POPC   D2A59524  41.119   1.916   6.694
 4500POPC   C3A59525  40.897   1.983   7.090
 4500POPC   C4A59526  41.082   2.233   7.421
 4500POPC   C1B59527  40.449   2.229   6.046
 4500POPC   C2B59528  40.434   2.452   6.447
 4500POPC   C3B59529  40.750   2.356   6.753
 4500POPC   C4B59530  40.671   2.433   7.186
 4501POPC   NC359531  20.490  20.291   5.574
 4501POPC   PO459532  20.961  20.660   5.252
 4501POPC   GL159533  20.748  20.769   5.677
 4501POPC   GL259534  21.017  20.863   5.829
 4501POPC   C1A59535  20.551  20.809   6.148
 4501POPC   D2A59536  20.563  20.599   6.632
 4501POPC   C3A59537  20.446  20.653   7.130
 4501POPC   C4A59538  20.450  20.720   7.607
 4501POPC   C1B59539  21.037  20.691   6.243
 4501POPC   C2B59540  21.083  20.564   6.650
 4501POPC   C3B59541  20.878  20.428   7.016
 4501POPC   C4B59542  20.915  20.673   7.398
 4502POPC   NC359543  26.743   9.277   5.473
 4502POPC   PO459544  26.735   8.606   5.490
 4502POPC   GL159545  26.719   8.895   5.827
 4502POPC   GL259546  27.006   9.172   5.886
 4502POPC   C1A59547  26.562   8.737   6.216
 4502POPC   D2A59548  26.741   8.808   6.611
 4502POPC   C3A59549  26.615   8.872   7.012
 4502POPC   C4A59550  26.847   9.071   7.339
 4502POPC   C1B59551  27.085   8.866   6.204
 4502POPC   C2B59552  27.251   8.689   6.591
 4502POPC   C3B59553  27.180   8.886   6.991
 4502POPC   C4B59554  27.359   9.108   7.378
 4503POPC   NC359555  36.485  10.479   5.489
 4503POPC   PO459556  37.162  10.476   5.561
 4503POPC   GL159557  36.896  10.660   5.908
 4503POPC   GL259558  36.593  10.859   5.808
 4503POPC   C1A59559  36.856  10.583   6.368
 4503POPC   D2A59560  36.740  10.258   6.669
 4503POPC   C3A59561  36.895  10.266   7.080
 4503POPC   C4A59562  36.823  10.406   7.513
 4503POPC   C1B59563  36.378  10.610   6.162
 4503POPC   C2B59564  36.393  10.636   6.617
 4503POPC   C3B59565  36.772  10.720   6.867
 4503POPC   C4B59566  36.778  10.865   7.235
 4504POPC   NC359567   6.118  32.510   5.600
 4504POPC   PO459568   5.490  32.542   5.383
 4504POPC   GL159569   5.711  32.266   5.781
 4504POPC   GL259570   5.862  32.504   6.034
 4504POPC   C1A59571   5.739  32.073   6.260
 4504POPC   D2A59572   5.886  32.237   6.696
 4504POPC   C3A59573   5.776  32.098   7.148
 4504POPC   C4A59574   5.550  32.036   7.566
 4504POPC   C1B59575   6.217  32.265   6.243
 4504POPC   C2B59576   6.381  32.165   6.660
 4504POPC   C3B59577   6.246  32.331   7.094
 4504POPC   C4B59578   6.070  32.310   7.537
 4505POPC   NC359579  21.903  11.000   5.237
 4505POPC   PO459580  21.362  11.284   5.419
 4505POPC   GL159581  21.354  11.515   5.806
 4505POPC   GL259582  21.652  11.660   5.895
 4505POPC   C1A59583  21.418  11.352   6.235
 4505POPC   D2A59584  21.340  10.957   6.446
 4505POPC   C3A59585  21.337  11.051   6.891
 4505POPC   C4A59586  21.242  11.491   6.937
 4505POPC   C1B59587  21.861  11.747   6.308
 4505POPC   C2B59588  21.775  11.976   6.642
 4505POPC   C3B59589  21.728  11.744   7.037
 4505POPC   C4B59590  21.752  11.316   7.162
 4506POPC   NC359591  19.954  13.530   5.133
 4506POPC   PO459592  19.654  14.004   5.429
 4506POPC   GL159593  19.819  13.742   5.801
 4506POPC   GL259594  20.083  13.497   5.769
 4506POPC   C1A59595  19.910  13.621   6.251
 4506POPC   D2A59596  19.827  13.796   6.674
 4506POPC   C3A59597  19.543  13.550   6.952
 4506POPC   C4A59598  19.629  13.447   7.415
 4506POPC   C1B59599  20.343  13.369   6.125
 4506POPC   C2B59600  20.184  13.216   6.525
 4506POPC   C3B59601  20.040  13.378   6.922
 4506POPC   C4B59602  20.222  13.677   7.195
 4507POPC   NC359603  20.859   8.262   5.597
 4507POPC   PO459604  21.506   8.138   5.442
 4507POPC   GL159605  21.358   8.295   5.786
 4507POPC   GL259606  21.267   8.628   5.721
 4507POPC   C1A59607  21.518   8.219   6.171
 4507POPC   D2A59608  21.318   8.260   6.560
 4507POPC   C3A59609  21.533   8.223   6.922
 4507POPC   C4A59610  21.253   8.104   7.218
 4507POPC   C1B59611  21.284   8.661   6.175
 4507POPC   C2B59612  21.070   8.704   6.572
 4507POPC   C3B59613  21.069   8.525   6.978
 4507POPC   C4B59614  21.409   8.581   7.261
 4508POPC   NC359615   0.106   5.679   5.018
 4508POPC   PO459616  44.623   5.757   5.332
 4508POPC   GL159617  44.852   5.763   5.689
 4508POPC   GL259618  44.515   5.734   5.852
 4508POPC   C1A59619  44.920   5.813   6.114
 4508POPC   D2A59620  44.676   5.707   6.462
 4508POPC   C3A59621  44.769   5.908   6.839
 4508POPC   C4A59622  44.946   5.700   7.212
 4508POPC   C1B59623  44.274   5.542   6.196
 4508POPC   C2B59624  44.223   5.460   6.622
 4508POPC   C3B59625  44.179   5.693   7.010
 4508POPC   C4B59626  44.470   5.925   7.258
 4509POPC   NC359627  24.810  16.430   4.993
 4509POPC   PO459628  24.329  16.132   5.440
 4509POPC   GL159629  24.497  15.965   5.759
 4509POPC   GL259630  24.263  16.075   5.981
 4509POPC   C1A59631  24.762  16.089   6.090
 4509POPC   D2A59632  24.946  15.934   6.466
 4509POPC   C3A59633  24.679  16.038   6.838
 4509POPC   C4A59634  24.657  15.885   7.260
 4509POPC   C1B59635  24.350  16.057   6.410
 4509POPC   C2B59636  24.145  15.834   6.709
 4509POPC   C3B59637  24.183  15.984   7.102
 4509POPC   C4B59638  24.378  16.330   7.289
 4510POPC   NC359639  11.790  12.639   5.147
 4510POPC   PO459640  11.158  12.701   5.327
 4510POPC   GL159641  11.546  12.613   5.601
 4510POPC   GL259642  11.645  12.899   5.777
 4510POPC   C1A59643  11.719  12.454   6.029
 4510POPC   D2A59644  11.796  12.621   6.461
 4510POPC   C3A59645  11.525  12.577   6.859
 4510POPC   C4A59646  11.302  12.688   7.262
 4510POPC   C1B59647  11.615  13.041   6.189
 4510POPC   C2B59648  11.753  13.121   6.623
 4510POPC   C3B59649  11.507  13.126   6.987
 4510POPC   C4B59650  11.180  13.217   7.285
 4511POPC   NC359651  27.390  29.017   5.534
 4511POPC   PO459652  27.310  29.660   5.255
 4511POPC   GL159653  27.281  29.480   5.715
 4511POPC   GL259654  27.617  29.442   5.842
 4511POPC   C1A59655  27.313  29.161   6.123
 4511POPC   D2A59656  27.240  29.171   6.547
 4511POPC   C3A59657  27.310  29.182   6.995
 4511POPC   C4A59658  27.322  29.224   7.459
 4511POPC   C1B59659  27.704  29.401   6.317
 4511POPC   C2B59660  27.731  29.160   6.704
 4511POPC   C3B59661  27.682  28.825   7.014
 4511POPC   C4B59662  27.690  28.853   7.464
 4512POPC   NC359663   3.955  21.284   5.409
 4512POPC   PO459664   4.329  21.807   5.483
 4512POPC   GL159665   4.240  21.523   5.798
 4512POPC   GL259666   4.395  21.195   5.719
 4512POPC   C1A59667   4.377  21.433   6.208
 4512POPC   D2A59668   4.510  21.118   6.483
 4512POPC   C3A59669   4.440  21.289   6.890
 4512POPC   C4A59670   4.367  21.665   7.162
 4512POPC   C1B59671   4.095  21.039   6.024
 4512POPC   C2B59672   4.019  20.965   6.426
 4512POPC   C3B59673   3.918  21.217   6.779
 4512POPC   C4B59674   4.025  21.283   7.201
 4513POPC   NC359675  41.704  13.621   5.346
 4513POPC   PO459676  40.943  13.576   5.373
 4513POPC   GL159677  41.227  13.627   5.783
 4513POPC   GL259678  41.578  13.504   5.845
 4513POPC   C1A59679  41.351  13.749   6.243
 4513POPC   D2A59680  41.528  13.624   6.671
 4513POPC   C3A59681  41.388  13.858   7.034
 4513POPC   C4A59682  41.578  13.988   7.429
 4513POPC   C1B59683  41.289  13.247   6.112
 4513POPC   C2B59684  41.414  13.017   6.457
 4513POPC   C3B59685  41.381  13.100   6.885
 4513POPC   C4B59686  41.543  13.395   7.203
 4514POPC   NC359687  26.733  42.735   5.328
 4514POPC   PO459688  27.036  42.144   5.218
 4514POPC   GL159689  26.791  42.229   5.639
 4514POPC   GL259690  26.896  42.558   5.788
 4514POPC   C1A59691  26.761  42.189   6.142
 4514POPC   D2A59692  26.943  42.293   6.589
 4514POPC   C3A59693  26.693  42.211   6.931
 4514POPC   C4A59694  26.344  42.089   7.164
 4514POPC   C1B59695  26.931  42.662   6.239
 4514POPC   C2B59696  26.902  42.880   6.658
 4514POPC   C3B59697  26.824  42.711   7.043
 4514POPC   C4B59698  26.644  42.447   7.399
 4515POPC   NC359699   8.806  44.092   5.482
 4515POPC   PO459700   9.254  43.600   5.594
 4515POPC   GL159701   8.918  43.777   5.870
 4515POPC   GL259702   9.134  44.067   5.939
 4515POPC   C1A59703   8.698  44.112   6.175
 4515POPC   D2A59704   8.880  44.245   6.607
 4515POPC   C3A59705   8.712  43.970   6.941
 4515POPC   C4A59706   8.555  43.573   7.126
 4515POPC   C1B59707   9.095  43.828   6.368
 4515POPC   C2B59708   9.206  43.828   6.816
 4515POPC   C3B59709   9.139  44.026   7.217
 4515POPC   C4B59710   9.140  44.266   7.616
 4516POPC   NC359711  34.910  13.528   5.363
 4516POPC   PO459712  34.466  13.835   5.142
 4516POPC   GL159713  34.533  13.749   5.620
 4516POPC   GL259714  34.634  13.409   5.778
 4516POPC   C1A59715  34.817  13.822   6.024
 4516POPC   D2A59716  34.939  14.004   6.470
 4516POPC   C3A59717  34.688  13.893   6.866
 4516POPC   C4A59718  34.557  13.550   7.157
 4516POPC   C1B59719  34.853  13.319   6.187
 4516POPC   C2B59720  34.913  13.420   6.648
 4516POPC   C3B59721  34.918  13.171   7.051
 4516POPC   C4B59722  34.604  13.057   7.379
 4517POPC   NC359723  14.688  11.520   5.503
 4517POPC   PO459724  14.216  10.994   5.466
 4517POPC   GL159725  14.344  11.238   5.794
 4517POPC   GL259726  14.052  11.152   5.964
 4517POPC   C1A59727  14.424  11.415   6.200
 4517POPC   D2A59728  14.623  11.655   6.511
 4517POPC   C3A59729  14.621  11.423   6.898
 4517POPC   C4A59730  14.617  11.554   7.342
 4517POPC   C1B59731  13.924  11.457   6.264
 4517POPC   C2B59732  14.102  11.396   6.641
 4517POPC   C3B59733  14.123  11.466   7.047
 4517POPC   C4B59734  14.152  11.151   7.342
 4518POPC   NC359735  41.708  11.711   5.360
 4518POPC   PO459736  41.305  12.246   5.403
 4518POPC   GL159737  41.596  12.262   5.776
 4518POPC   GL259738  41.874  12.107   5.640
 4518POPC   C1A59739  41.603  12.220   6.230
 4518POPC   D2A59740  41.282  12.046   6.501
 4518POPC   C3A59741  41.244  12.128   6.953
 4518POPC   C4A59742  41.094  12.179   7.380
 4518POPC   C1B59743  41.837  11.790   6.001
 4518POPC   C2B59744  41.806  11.776   6.445
 4518POPC   C3B59745  41.752  12.028   6.810
 4518POPC   C4B59746  41.668  11.881   7.234
 4519POPC   NC359747  18.342   1.740   5.322
 4519POPC   PO459748  17.779   2.056   5.383
 4519POPC   GL159749  18.132   2.062   5.706
 4519POPC   GL259750  18.495   2.076   5.692
 4519POPC   C1A59751  18.229   2.091   6.153
 4519POPC   D2A59752  18.141   1.886   6.560
 4519POPC   C3A59753  18.222   2.020   6.972
 4519POPC   C4A59754  18.002   1.722   7.247
 4519POPC   C1B59755  18.724   1.908   6.024
 4519POPC   C2B59756  18.634   1.978   6.458
 4519POPC   C3B59757  18.763   1.936   6.871
 4519POPC   C4B59758  18.636   1.915   7.271
 4520POPC   NC359759   4.754  15.406   5.411
 4520POPC   PO459760   4.061  15.364   5.238
 4520POPC   GL159761   4.275  15.276   5.630
 4520POPC   GL259762   4.491  15.507   5.844
 4520POPC   C1A59763   4.232  15.100   6.052
 4520POPC   D2A59764   3.999  15.123   6.446
 4520POPC   C3A59765   4.214  15.196   6.850
 4520POPC   C4A59766   4.026  15.205   7.242
 4520POPC   C1B59767   4.567  15.644   6.298
 4520POPC   C2B59768   4.588  15.591   6.792
 4520POPC   C3B59769   4.599  15.354   7.202
 4520POPC   C4B59770   4.786  15.317   7.641
 4521POPC   NC359771  17.393   1.797   5.446
 4521POPC   PO459772  17.111   2.384   5.326
 4521POPC   GL159773  17.338   2.240   5.735
 4521POPC   GL259774  17.637   2.083   5.880
 4521POPC   C1A59775  17.189   1.909   6.082
 4521POPC   D2A59776  17.341   1.710   6.489
 4521POPC   C3A59777  17.351   1.889   6.930
 4521POPC   C4A59778  17.481   1.638   7.300
 4521POPC   C1B59779  17.581   2.163   6.342
 4521POPC   C2B59780  17.756   2.190   6.780
 4521POPC   C3B59781  17.725   2.187   7.247
 4521POPC   C4B59782  17.756   2.151   7.710
 4522POPC   NC359783  38.243  10.432   5.428
 4522POPC   PO459784  38.723  10.678   5.045
 4522POPC   GL159785  38.625  10.731   5.587
 4522POPC   GL259786  38.497  10.417   5.857
 4522POPC   C1A59787  38.606  10.847   6.078
 4522POPC   D2A59788  38.394  10.809   6.498
 4522POPC   C3A59789  38.481  10.560   6.869
 4522POPC   C4A59790  38.190  10.603   7.220
 4522POPC   C1B59791  38.225  10.306   6.253
 4522POPC   C2B59792  38.276  10.105   6.676
 4522POPC   C3B59793  38.359  10.140   7.149
 4522POPC   C4B59794  38.537  10.127   7.572
 4523POPC   NC359795  41.943  29.992   5.475
 4523POPC   PO459796  42.609  29.697   5.438
 4523POPC   GL159797  42.381  29.832   5.809
 4523POPC   GL259798  42.213  30.146   5.927
 4523POPC   C1A59799  42.573  29.985   6.233
 4523POPC   D2A59800  42.367  30.200   6.559
 4523POPC   C3A59801  42.454  30.021   6.952
 4523POPC   C4A59802  42.267  29.652   7.074
 4523POPC   C1B59803  42.105  29.778   6.221
 4523POPC   C2B59804  42.026  29.826   6.648
 4523POPC   C3B59805  41.948  30.089   6.994
 4523POPC   C4B59806  41.934  29.866   7.391
 4524POPC   NC359807  12.794   5.108   5.404
 4524POPC   PO459808  13.063   4.473   5.546
 4524POPC   GL159809  12.969   4.794   5.824
 4524POPC   GL259810  12.613   4.796   5.889
 4524POPC   C1A59811  12.913   4.953   6.259
 4524POPC   D2A59812  12.981   5.249   6.581
 4524POPC   C3A59813  12.952   5.049   6.990
 4524POPC   C4A59814  13.105   5.205   7.385
 4524POPC   C1B59815  12.620   5.289   6.006
 4524POPC   C2B59816  12.552   5.546   6.386
 4524POPC   C3B59817  12.650   5.581   6.831
 4524POPC   C4B59818  12.634   5.370   7.241
 4525POPC   NC359819  41.145  24.371   5.360
 4525POPC   PO459820  41.759  24.678   5.247
 4525POPC   GL159821  41.831  24.606   5.726
 4525POPC   GL259822  41.780  24.229   5.688
 4525POPC   C1A59823  41.716  24.659   6.232
 4525POPC   D2A59824  41.606  24.722   6.709
 4525POPC   C3A59825  41.754  24.779   7.174
 4525POPC   C4A59826  41.578  24.685   7.588
 4525POPC   C1B59827  41.923  24.206   6.117
 4525POPC   C2B59828  41.761  24.164   6.527
 4525POPC   C3B59829  41.862  24.310   6.933
 4525POPC   C4B59830  41.480  24.335   7.173
 4526POPC   NC359831  24.178  38.180   5.451
 4526POPC   PO459832  24.826  38.555   5.392
 4526POPC   GL159833  24.611  38.478   5.760
 4526POPC   GL259834  24.309  38.571   5.785
 4526POPC   C1A59835  24.673  38.359   6.183
 4526POPC   D2A59836  24.862  38.425   6.582
 4526POPC   C3A59837  24.619  38.386   6.968
 4526POPC   C4A59838  24.749  38.535   7.376
 4526POPC   C1B59839  24.146  38.375   6.117
 4526POPC   C2B59840  24.248  38.388   6.545
 4526POPC   C3B59841  24.083  38.254   6.922
 4526POPC   C4B59842  24.288  38.159   7.313
 4527POPC   NC359843  23.777  26.988   5.462
 4527POPC   PO459844  23.942  26.394   5.221
 4527POPC   GL159845  23.837  26.492   5.665
 4527POPC   GL259846  23.585  26.352   5.842
 4527POPC   C1A59847  23.883  26.675   6.120
 4527POPC   D2A59848  23.638  26.876   6.457
 4527POPC   C3A59849  23.735  26.834   6.885
 4527POPC   C4A59850  23.931  27.133   7.139
 4527POPC   C1B59851  23.510  26.368   6.306
 4527POPC   C2B59852  23.381  26.500   6.702
 4527POPC   C3B59853  23.459  26.450   7.121
 4527POPC   C4B59854  23.415  26.555   7.531
 4528POPC   NC359855   9.806  20.931   5.336
 4528POPC   PO459856   9.370  21.418   5.484
 4528POPC   GL159857   9.661  21.262   5.801
 4528POPC   GL259858   9.982  21.078   5.777
 4528POPC   C1A59859   9.765  21.291   6.229
 4528POPC   D2A59860   9.844  21.523   6.581
 4528POPC   C3A59861   9.587  21.486   6.924
 4528POPC   C4A59862   9.700  21.731   7.247
 4528POPC   C1B59863  10.178  20.963   6.159
 4528POPC   C2B59864   9.992  20.988   6.581
 4528POPC   C3B59865  10.051  21.236   6.952
 4528POPC   C4B59866   9.817  21.227   7.357
 4529POPC   NC359867   3.068  22.759   5.528
 4529POPC   PO459868   2.477  23.074   5.363
 4529POPC   GL159869   2.539  22.790   5.736
 4529POPC   GL259870   2.761  23.023   5.827
 4529POPC   C1A59871   2.679  22.697   6.195
 4529POPC   D2A59872   2.740  22.884   6.634
 4529POPC   C3A59873   2.782  22.758   7.065
 4529POPC   C4A59874   3.076  22.623   7.389
 4529POPC   C1B59875   2.820  23.198   6.213
 4529POPC   C2B59876   2.810  23.385   6.579
 4529POPC   C3B59877   2.909  23.273   6.948
 4529POPC   C4B59878   2.705  23.366   7.293
 4530POPC   NC359879  43.259  13.463   5.381
 4530POPC   PO459880  42.988  14.095   5.262
 4530POPC   GL159881  43.025  13.846   5.703
 4530POPC   GL259882  42.973  13.479   5.832
 4530POPC   C1A59883  43.175  13.784   6.175
 4530POPC   D2A59884  43.472  13.748   6.539
 4530POPC   C3A59885  43.303  13.777   6.965
 4530POPC   C4A59886  43.288  13.647   7.408
 4530POPC   C1B59887  43.083  13.251   6.256
 4530POPC   C2B59888  43.132  13.339   6.716
 4530POPC   C3B59889  43.243  13.213   7.138
 4530POPC   C4B59890  43.298  13.119   7.595
 4531POPC   NC359891   2.954  24.307   5.436
 4531POPC   PO459892   2.570  24.703   5.423
 4531POPC   GL159893   2.636  24.464   5.842
 4531POPC   GL259894   2.698  24.083   5.850
 4531POPC   C1A59895   2.621  24.577   6.300
 4531POPC   D2A59896   2.639  24.867   6.651
 4531POPC   C3A59897   2.577  24.671   7.071
 4531POPC   C4A59898   2.481  24.769   7.524
 4531POPC   C1B59899   2.619  24.077   6.326
 4531POPC   C2B59900   2.512  24.225   6.775
 4531POPC   C3B59901   2.784  24.189   7.160
 4531POPC   C4B59902   3.114  24.111   7.489
 4532POPC   NC359903  11.206  10.346   5.531
 4532POPC   PO459904  10.906  10.962   5.404
 4532POPC   GL159905  11.028  10.713   5.842
 4532POPC   GL259906  11.415  10.618   5.930
 4532POPC   C1A59907  11.092  10.392   6.228
 4532POPC   D2A59908  11.405  10.543   6.563
 4532POPC   C3A59909  11.275  10.711   6.952
 4532POPC   C4A59910  11.003  10.983   7.167
 4532POPC   C1B59911  11.733  10.340   6.242
 4532POPC   C2B59912  11.795  10.208   6.712
 4532POPC   C3B59913  11.683  10.198   7.145
 4532POPC   C4B59914  11.364  10.451   7.370
 4533POPC   NC359915  19.153   3.305   5.483
 4533POPC   PO459916  19.121   2.611   5.405
 4533POPC   GL159917  18.913   2.725   5.821
 4533POPC   GL259918  18.661   2.992   5.716
 4533POPC   C1A59919  19.127   2.811   6.272
 4533POPC   D2A59920  19.316   2.747   6.722
 4533POPC   C3A59921  19.367   2.896   7.181
 4533POPC   C4A59922  19.425   3.051   7.634
 4533POPC   C1B59923  18.668   3.016   6.178
 4533POPC   C2B59924  18.729   2.801   6.580
 4533POPC   C3B59925  18.866   2.892   6.990
 4533POPC   C4B59926  18.582   2.879   7.289
 4534POPC   NC359927  40.878  25.307   5.472
 4534POPC   PO459928  40.505  24.893   5.724
 4534POPC   GL159929  40.610  25.268   5.903
 4534POPC   GL259930  40.483  25.563   5.749
 4534POPC   C1A59931  40.891  25.269   6.234
 4534POPC   D2A59932  40.914  24.925   6.562
 4534POPC   C3A59933  40.921  25.119   6.965
 4534POPC   C4A59934  41.052  25.497   7.114
 4534POPC   C1B59935  40.567  25.676   6.201
 4534POPC   C2B59936  40.753  25.588   6.628
 4534POPC   C3B59937  40.493  25.407   6.943
 4534POPC   C4B59938  40.264  25.024   7.105
 4535POPC   NC359939  44.319   1.124   5.444
 4535POPC   PO459940  44.571   1.726   5.405
 4535POPC   GL159941  44.448   1.554   5.770
 4535POPC   GL259942  44.696   1.293   5.793
 4535POPC   C1A59943  44.441   1.446   6.206
 4535POPC   D2A59944  44.657   1.417   6.610
 4535POPC   C3A59945  44.501   1.442   7.030
 4535POPC   C4A59946  44.666   1.389   7.464
 4535POPC   C1B59947  44.890   1.163   6.211
 4535POPC   C2B59948   0.073   1.128   6.654
 4535POPC   C3B59949  44.918   1.136   7.097
 4535POPC   C4B59950  44.604   0.884   7.351
 4536POPC   NC359951  34.268  10.890   5.516
 4536POPC   PO459952  33.558  10.737   5.456
 4536POPC   GL159953  33.596  10.505   5.879
 4536POPC   GL259954  33.979  10.579   5.905
 4536POPC   C1A59955  33.752  10.298   6.270
 4536POPC   D2A59956  33.853  10.499   6.646
 4536POPC   C3A59957  33.640  10.459   7.056
 4536POPC   C4A59958  33.901  10.438   7.431
 4536POPC   C1B59959  34.188  10.714   6.251
 4536POPC   C2B59960  34.359  10.621   6.634
 4536POPC   C3B59961  34.192  10.547   7.014
 4536POPC   C4B59962  34.044  10.879   7.258
 4537POPC   NC359963  13.022  38.720   5.339
 4537POPC   PO459964  12.728  38.098   5.455
 4537POPC   GL159965  12.730  38.465   5.703
 4537POPC   GL259966  13.051  38.479   5.795
 4537POPC   C1A59967  12.670  38.616   6.107
 4537POPC   D2A59968  12.725  38.394   6.453
 4537POPC   C3A59969  12.749  38.444   6.873
 4537POPC   C4A59970  13.056  38.190   7.122
 4537POPC   C1B59971  13.161  38.740   6.160
 4537POPC   C2B59972  12.930  38.864   6.533
 4537POPC   C3B59973  13.108  38.789   6.948
 4537POPC   C4B59974  12.967  38.791   7.373
 4538POPC   NC359975   7.159  41.376   5.340
 4538POPC   PO459976   7.840  41.626   5.442
 4538POPC   GL159977   7.556  41.514   5.747
 4538POPC   GL259978   7.384  41.208   5.772
 4538POPC   C1A59979   7.584  41.384   6.193
 4538POPC   D2A59980   7.288  41.307   6.527
 4538POPC   C3A59981   7.601  41.360   6.800
 4538POPC   C4A59982   7.841  41.435   7.127
 4538POPC   C1B59983   7.115  41.539   6.039
 4538POPC   C2B59984   6.955  41.672   6.456
 4538POPC   C3B59985   7.020  41.605   6.887
 4538POPC   C4B59986   7.297  41.431   7.195
 4539POPC   NC359987  35.932   0.976   5.421
 4539POPC   PO459988  36.501   1.362   5.299
 4539POPC   GL159989  36.255   1.258   5.742
 4539POPC   GL259990  35.937   1.085   5.910
 4539POPC   C1A59991  36.359   1.093   6.193
 4539POPC   D2A59992  36.094   1.051   6.597
 4539POPC   C3A59993  36.289   1.172   7.002
 4539POPC   C4A59994  36.457   1.565   7.198
 4539POPC   C1B59995  35.826   1.369   6.247
 4539POPC   C2B59996  35.859   1.572   6.661
 4539POPC   C3B59997  35.899   1.472   7.114
 4539POPC   C4B59998  35.885   1.463   7.584
 4540POPC   NC359999  31.536  20.506   4.954
 4540POPC   PO460000  31.705  20.147   5.577
 4540POPC   GL160001  31.642  20.450   5.916
 4540POPC   GL260002  31.582  20.798   5.813
 4540POPC   C1A60003  31.400  20.570   6.236
 4540POPC   D2A60004  31.303  20.724   6.597
 4540POPC   C3A60005  31.090  20.539   6.881
 4540POPC   C4A60006  31.334  20.390   7.189
 4540POPC   C1B60007  31.260  21.063   6.036
 4540POPC   C2B60008  31.217  21.200   6.489
 4540POPC   C3B60009  31.100  21.140   6.970
 4540POPC   C4B60010  31.056  20.794   7.317
 4541POPC   NC360011  30.447  18.113   5.645
 4541POPC   PO460012  29.891  18.350   5.287
 4541POPC   GL160013  29.853  18.467   5.777
 4541POPC   GL260014  30.090  18.281   5.956
 4541POPC   C1A60015  29.794  18.559   6.257
 4541POPC   D2A60016  29.996  18.369   6.659
 4541POPC   C3A60017  29.892  18.456   7.112
 4541POPC   C4A60018  29.701  18.354   7.512
 4541POPC   C1B60019  30.219  18.036   6.311
 4541POPC   C2B60020  30.427  18.044   6.708
 4541POPC   C3B60021  30.312  18.152   7.113
 4541POPC   C4B60022  30.083  17.976   7.472
 4542POPC   NC360023   5.763  36.418   5.488
 4542POPC   PO460024   5.622  35.800   5.386
 4542POPC   GL160025   5.817  35.981   5.768
 4542POPC   GL260026   5.519  36.176   5.896
 4542POPC   C1A60027   5.940  36.139   6.189
 4542POPC   D2A60028   5.790  36.160   6.617
 4542POPC   C3A60029   6.173  36.196   6.839
 4542POPC   C4A60030   6.393  36.451   7.131
 4542POPC   C1B60031   5.612  36.572   6.145
 4542POPC   C2B60032   5.692  36.683   6.579
 4542POPC   C3B60033   5.818  36.560   6.984
 4542POPC   C4B60034   5.749  36.195   7.156
 4543POPC   NC360035  30.063   0.302   5.125
 4543POPC   PO460036  29.454   0.624   5.460
 4543POPC   GL160037  29.720   0.538   5.782
 4543POPC   GL260038  29.697   0.181   5.667
 4543POPC   C1A60039  30.040   0.654   6.135
 4543POPC   D2A60040  30.246   0.779   6.534
 4543POPC   C3A60041  30.079   0.778   6.952
 4543POPC   C4A60042  29.795   0.604   7.238
 4543POPC   C1B60043  29.911   0.144   6.075
 4543POPC   C2B60044  29.903   0.288   6.493
 4543POPC   C3B60045  30.006   0.234   6.907
 4543POPC   C4B60046  29.866   0.101   7.306
 4544POPC   NC360047  17.597   9.413   5.556
 4544POPC   PO460048  17.598   8.819   5.305
 4544POPC   GL160049  17.559   8.739   5.748
 4544POPC   GL260050  17.878   8.632   5.817
 4544POPC   C1A60051  17.483   8.833   6.206
 4544POPC   D2A60052  17.398   9.181   6.517
 4544POPC   C3A60053  17.433   9.094   6.985
 4544POPC   C4A60054  17.184   8.810   7.270
 4544POPC   C1B60055  18.002   8.754   6.223
 4544POPC   C2B60056  17.843   8.843   6.607
 4544POPC   C3B60057  17.757   8.661   6.980
 4544POPC   C4B60058  17.726   8.780   7.391
 4545POPC   NC360059   4.507   6.169   5.144
 4545POPC   PO460060   3.915   6.031   5.352
 4545POPC   GL160061   4.237   5.897   5.686
 4545POPC   GL260062   4.334   5.522   5.763
 4545POPC   C1A60063   4.285   5.855   6.166
 4545POPC   D2A60064   4.115   5.877   6.589
 4545POPC   C3A60065   4.389   5.867   6.951
 4545POPC   C4A60066   4.462   6.146   7.278
 4545POPC   C1B60067   4.271   5.348   6.192
 4545POPC   C2B60068   4.451   5.486   6.584
 4545POPC   C3B60069   4.362   5.357   7.006
 4545POPC   C4B60070   4.112   5.439   7.380
 4546POPC   NC360071  35.034  30.269   5.262
 4546POPC   PO460072  34.436  29.897   5.279
 4546POPC   GL160073  34.703  30.031   5.624
 4546POPC   GL260074  34.569  29.768   5.849
 4546POPC   C1A60075  34.866  30.106   6.060
 4546POPC   D2A60076  34.650  29.962   6.412
 4546POPC   C3A60077  34.667  30.021   6.849
 4546POPC   C4A60078  34.572  30.082   7.251
 4546POPC   C1B60079  34.439  29.535   6.239
 4546POPC   C2B60080  34.323  29.651   6.671
 4546POPC   C3B60081  34.185  29.819   7.090
 4546POPC   C4B60082  34.348  29.704   7.521
 4547POPC   NC360083  44.835  15.618   5.262
 4547POPC   PO460084  44.626  16.193   5.572
 4547POPC   GL160085  44.737  15.743   5.753
 4547POPC   GL260086   0.073  15.636   5.857
 4547POPC   C1A60087  44.652  15.475   6.142
 4547POPC   D2A60088  44.540  15.193   6.502
 4547POPC   C3A60089  44.455  15.373   6.900
 4547POPC   C4A60090  44.403  15.671   7.250
 4547POPC   C1B60091   0.134  15.593   6.311
 4547POPC   C2B60092  44.908  15.552   6.706
 4547POPC   C3B60093  44.941  15.736   7.138
 4547POPC   C4B60094   0.202  15.964   7.466
 4548POPC   NC360095  24.604  21.523   5.267
 4548POPC   PO460096  24.141  21.082   5.397
 4548POPC   GL160097  24.445  21.249   5.713
 4548POPC   GL260098  24.695  20.993   5.708
 4548POPC   C1A60099  24.545  21.415   6.135
 4548POPC   D2A60100  24.453  21.694   6.483
 4548POPC   C3A60101  24.464  21.572   6.933
 4548POPC   C4A60102  24.759  21.788   7.199
 4548POPC   C1B60103  24.619  20.933   6.178
 4548POPC   C2B60104  24.501  21.170   6.588
 4548POPC   C3B60105  24.300  21.046   6.979
 4548POPC   C4B60106  24.108  21.292   7.290
 4549POPC   NC360107  14.801  36.876   5.465
 4549POPC   PO460108  14.101  36.925   5.436
 4549POPC   GL160109  14.376  37.070   5.733
 4549POPC   GL260110  14.426  36.729   5.835
 4549POPC   C1A60111  14.443  37.089   6.191
 4549POPC   D2A60112  14.683  37.213   6.558
 4549POPC   C3A60113  14.521  37.002   6.940
 4549POPC   C4A60114  14.109  36.816   7.131
 4549POPC   C1B60115  14.276  36.577   6.246
 4549POPC   C2B60116  14.296  36.608   6.705
 4549POPC   C3B60117  14.466  36.481   7.126
 4549POPC   C4B60118  14.658  36.325   7.538
 4550POPC   NC360119  21.899  35.646   5.320
 4550POPC   PO460120  22.147  35.045   5.525
 4550POPC   GL160121  22.072  35.399   5.849
 4550POPC   GL260122  22.398  35.485   6.036
 4550POPC   C1A60123  21.954  35.635   6.233
 4550POPC   D2A60124  22.165  35.680   6.620
 4550POPC   C3A60125  22.067  35.351   6.935
 4550POPC   C4A60126  22.194  35.421   7.361
 4550POPC   C1B60127  22.208  35.203   6.386
 4550POPC   C2B60128  22.300  34.920   6.765
 4550POPC   C3B60129  22.220  34.938   7.226
 4550POPC   C4B60130  22.450  35.043   7.630
 4551POPC   NC360131  42.004   1.864   5.402
 4551POPC   PO460132  42.498   2.304   5.398
 4551POPC   GL160133  42.291   2.167   5.784
 4551POPC   GL260134  42.241   1.791   5.849
 4551POPC   C1A60135  42.167   2.113   6.228
 4551POPC   D2A60136  42.018   2.122   6.653
 4551POPC   C3A60137  42.330   2.111   6.961
 4551POPC   C4A60138  42.628   1.991   7.247
 4551POPC   C1B60139  41.896   1.680   6.164
 4551POPC   C2B60140  41.676   1.770   6.596
 4551POPC   C3B60141  41.913   1.766   7.035
 4551POPC   C4B60142  42.169   1.642   7.430
 4552POPC   NC360143  36.600  14.667   5.530
 4552POPC   PO460144  36.933  14.144   5.395
 4552POPC   GL160145  36.923  14.324   5.771
 4552POPC   GL260146  36.941  14.655   5.931
 4552POPC   C1A60147  37.025  14.194   6.176
 4552POPC   D2A60148  36.990  14.461   6.493
 4552POPC   C3A60149  36.831  14.339   6.880
 4552POPC   C4A60150  36.881  14.394   7.304
 4552POPC   C1B60151  36.700  14.809   6.272
 4552POPC   C2B60152  36.699  14.817   6.720
 4552POPC   C3B60153  36.490  14.685   7.084
 4552POPC   C4B60154  36.488  14.661   7.576
 4553POPC   NC360155  39.334  15.761   5.445
 4553POPC   PO460156  38.960  16.228   5.143
 4553POPC   GL160157  38.971  16.231   5.622
 4553POPC   GL260158  38.948  15.881   5.764
 4553POPC   C1A60159  39.094  16.370   6.058
 4553POPC   D2A60160  39.407  16.287   6.399
 4553POPC   C3A60161  39.257  16.228   6.804
 4553POPC   C4A60162  39.147  16.208   7.203
 4553POPC   C1B60163  39.182  15.874   6.158
 4553POPC   C2B60164  39.145  15.761   6.589
 4553POPC   C3B60165  39.373  15.746   6.963
 4553POPC   C4B60166  39.604  15.619   7.307
 4554POPC   NC360167  10.310  25.898   5.155
 4554POPC   PO460168  10.123  26.507   5.412
 4554POPC   GL160169  10.476  26.318   5.749
 4554POPC   GL260170  10.466  25.928   5.777
 4554POPC   C1A60171  10.574  26.222   6.211
 4554POPC   D2A60172  10.279  26.331   6.555
 4554POPC   C3A60173  10.354  26.105   6.933
 4554POPC   C4A60174  10.817  26.017   6.949
 4554POPC   C1B60175  10.265  25.797   6.188
 4554POPC   C2B60176  10.364  25.584   6.614
 4554POPC   C3B60177  10.525  25.626   7.063
 4554POPC   C4B60178  10.396  25.881   7.417
 4555POPC   NC360179   2.245  16.263   5.332
 4555POPC   PO460180   1.869  15.661   5.513
 4555POPC   GL160181   1.996  15.871   5.890
 4555POPC   GL260182   1.735  16.096   6.027
 4555POPC   C1A60183   2.183  15.760   6.301
 4555POPC   D2A60184   2.342  16.025   6.671
 4555POPC   C3A60185   2.227  15.888   7.055
 4555POPC   C4A60186   2.336  15.458   7.230
 4555POPC   C1B60187   1.793  16.026   6.464
 4555POPC   C2B60188   1.869  15.711   6.746
 4555POPC   C3B60189   1.727  15.882   7.107
 4555POPC   C4B60190   1.341  16.041   7.188
 4556POPC   NC360191  19.477  23.319   5.410
 4556POPC   PO460192  19.330  22.669   5.388
 4556POPC   GL160193  19.601  22.829   5.744
 4556POPC   GL260194  19.898  23.035   5.632
 4556POPC   C1A60195  19.695  22.760   6.231
 4556POPC   D2A60196  19.703  22.583   6.674
 4556POPC   C3A60197  19.721  22.819   7.077
 4556POPC   C4A60198  19.546  22.814   7.527
 4556POPC   C1B60199  19.851  23.209   6.057
 4556POPC   C2B60200  19.913  23.165   6.535
 4556POPC   C3B60201  20.003  23.291   6.985
 4556POPC   C4B60202  19.951  23.126   7.422
 4557POPC   NC360203  16.360  30.585   5.538
 4557POPC   PO460204  17.020  30.573   5.524
 4557POPC   GL160205  16.822  30.716   5.869
 4557POPC   GL260206  17.093  30.840   6.024
 4557POPC   C1A60207  16.671  30.573   6.261
 4557POPC   D2A60208  16.552  30.660   6.680
 4557POPC   C3A60209  16.846  30.580   7.021
 4557POPC   C4A60210  16.618  30.518   7.390
 4557POPC   C1B60211  17.022  30.916   6.423
 4557POPC   C2B60212  17.209  30.886   6.780
 4557POPC   C3B60213  17.008  31.084   7.065
 4557POPC   C4B60214  16.905  30.940   7.454
 4558POPC   NC360215  18.133  23.810   5.187
 4558POPC   PO460216  18.041  23.186   5.266
 4558POPC   GL160217  18.257  23.510   5.587
 4558POPC   GL260218  18.178  23.875   5.707
 4558POPC   C1A60219  18.395  23.520   6.011
 4558POPC   D2A60220  18.435  23.428   6.438
 4558POPC   C3A60221  18.206  23.624   6.771
 4558POPC   C4A60222  18.342  23.643   7.187
 4558POPC   C1B60223  18.459  24.038   6.037
 4558POPC   C2B60224  18.482  23.974   6.497
 4558POPC   C3B60225  18.506  24.079   6.950
 4558POPC   C4B60226  18.742  24.345   7.236
 4559POPC   NC360227  11.600  40.620   5.409
 4559POPC   PO460228  11.857  40.101   5.676
 4559POPC   GL160229  12.086  39.960   5.962
 4559POPC   GL260230  11.934  39.635   5.990
 4559POPC   C1A60231  12.209  40.185   6.316
 4559POPC   D2A60232  12.016  40.117   6.698
 4559POPC   C3A60233  12.143  40.372   7.027
 4559POPC   C4A60234  11.821  40.290   7.336
 4559POPC   C1B60235  12.246  39.658   6.344
 4559POPC   C2B60236  12.480  39.890   6.658
 4559POPC   C3B60237  12.352  39.895   7.080
 4559POPC   C4B60238  12.389  39.700   7.485
 4560POPC   NC360239   3.447   3.184   5.419
 4560POPC   PO460240   3.823   3.709   5.346
 4560POPC   GL160241   3.607   3.633   5.770
 4560POPC   GL260242   3.677   3.273   5.861
 4560POPC   C1A60243   3.483   3.808   6.211
 4560POPC   D2A60244   3.421   3.963   6.679
 4560POPC   C3A60245   3.651   3.757   7.073
 4560POPC   C4A60246   3.599   3.471   7.429
 4560POPC   C1B60247   3.485   3.305   6.242
 4560POPC   C2B60248   3.637   3.493   6.617
 4560POPC   C3B60249   3.737   3.261   6.982
 4560POPC   C4B60250   3.493   2.969   7.246
 4561POPC   NC360251  22.726  13.977   5.411
 4561POPC   PO460252  23.177  13.469   5.545
 4561POPC   GL160253  23.082  13.813   5.838
 4561POPC   GL260254  22.731  13.923   5.921
 4561POPC   C1A60255  23.099  14.004   6.279
 4561POPC   D2A60256  22.871  13.884   6.681
 4561POPC   C3A60257  22.993  13.483   6.912
 4561POPC   C4A60258  23.242  13.395   7.242
 4561POPC   C1B60259  22.843  13.555   6.219
 4561POPC   C2B60260  22.600  13.437   6.587
 4561POPC   C3B60261  22.529  13.628   6.993
 4561POPC   C4B60262  22.678  13.359   7.314
 4562POPC   NC360263   8.976  28.190   5.442
 4562POPC   PO460264   9.198  28.773   5.644
 4562POPC   GL160265   8.770  28.530   5.760
 4562POPC   GL260266   8.634  28.182   5.847
 4562POPC   C1A60267   8.667  28.557   6.193
 4562POPC   D2A60268   8.576  28.473   6.611
 4562POPC   C3A60269   8.721  28.826   6.841
 4562POPC   C4A60270   8.945  28.871   7.196
 4562POPC   C1B60271   8.779  28.058   6.267
 4562POPC   C2B60272   9.049  28.306   6.540
 4562POPC   C3B60273   9.011  28.395   6.956
 4562POPC   C4B60274   8.876  28.033   7.145
 4563POPC   NC360275  12.236  13.394   5.288
 4563POPC   PO460276  11.701  13.327   5.527
 4563POPC   GL160277  12.036  13.269   5.799
 4563POPC   GL260278  12.282  13.546   5.829
 4563POPC   C1A60279  12.038  13.316   6.240
 4563POPC   D2A60280  11.824  13.625   6.521
 4563POPC   C3A60281  11.820  13.550   6.976
 4563POPC   C4A60282  11.714  13.361   7.398
 4563POPC   C1B60283  12.363  13.687   6.298
 4563POPC   C2B60284  12.251  13.411   6.706
 4563POPC   C3B60285  12.277  13.426   7.168
 4563POPC   C4B60286  12.080  13.720   7.452
 4564POPC   NC360287   4.078   8.206   5.434
 4564POPC   PO460288   4.749   8.190   5.297
 4564POPC   GL160289   4.533   8.130   5.687
 4564POPC   GL260290   4.418   8.480   5.745
 4564POPC   C1A60291   4.511   8.010   6.121
 4564POPC   D2A60292   4.692   8.189   6.511
 4564POPC   C3A60293   4.513   8.188   6.937
 4564POPC   C4A60294   4.143   7.956   7.159
 4564POPC   C1B60295   4.357   8.476   6.193
 4564POPC   C2B60296   4.163   8.278   6.566
 4564POPC   C3B60297   4.075   8.461   6.988
 4564POPC   C4B60298   4.323   8.399   7.368
 4565POPC   NC360299  19.973  44.743   5.416
 4565POPC   PO460300  19.455   0.156   5.487
 4565POPC   GL160301  19.579  44.729   5.762
 4565POPC   GL260302  19.823  44.395   5.772
 4565POPC   C1A60303  19.759  44.675   6.203
 4565POPC   D2A60304  19.725  44.505   6.645
 4565POPC   C3A60305  19.718  44.792   7.029
 4565POPC   C4A60306  19.402  44.994   7.321
 4565POPC   C1B60307  19.890  44.175   6.221
 4565POPC   C2B60308  20.121  44.194   6.663
 4565POPC   C3B60309  20.060  44.390   7.102
 4565POPC   C4B60310  20.062  44.272   7.552
 4566POPC   NC360311  22.240  12.560   5.423
 4566POPC   PO460312  22.182  11.856   5.439
 4566POPC   GL160313  22.231  12.156   5.745
 4566POPC   GL260314  22.547  12.161   5.608
 4566POPC   C1A60315  22.049  12.251   6.175
 4566POPC   D2A60316  22.104  12.410   6.625
 4566POPC   C3A60317  22.107  12.108   6.983
 4566POPC   C4A60318  22.081  11.943   7.397
 4566POPC   C1B60319  22.571  12.064   6.101
 4566POPC   C2B60320  22.358  11.980   6.495
 4566POPC   C3B60321  22.546  11.894   6.879
 4566POPC   C4B60322  22.569  12.070   7.274
 4567POPC   NC360323   5.351  39.543   5.304
 4567POPC   PO460324   4.882  40.059   5.196
 4567POPC   GL160325   4.882  40.137   5.649
 4567POPC   GL260326   4.847  39.796   5.737
 4567POPC   C1A60327   5.177  40.157   6.039
 4567POPC   D2A60328   5.325  40.034   6.470
 4567POPC   C3A60329   5.207  40.233   6.852
 4567POPC   C4A60330   5.276  40.176   7.299
 4567POPC   C1B60331   4.742  39.879   6.179
 4567POPC   C2B60332   4.814  39.831   6.635
 4567POPC   C3B60333   4.856  39.908   7.081
 4567POPC   C4B60334   4.796  39.902   7.516
 4568POPC   NC360335   9.017  24.718   5.362
 4568POPC   PO460336   8.646  24.150   5.578
 4568POPC   GL160337   8.856  24.451   5.793
 4568POPC   GL260338   9.144  24.610   5.818
 4568POPC   C1A60339   8.786  24.583   6.198
 4568POPC   D2A60340   8.781  24.381   6.599
 4568POPC   C3A60341   8.695  24.671   6.903
 4568POPC   C4A60342   9.079  24.769   7.100
 4568POPC   C1B60343   9.285  24.513   6.205
 4568POPC   C2B60344   9.264  24.211   6.487
 4568POPC   C3B60345   9.294  24.351   6.860
 4568POPC   C4B60346   9.419  24.319   7.249
 4569POPC   NC360347  22.935  14.858   5.467
 4569POPC   PO460348  23.112  14.203   5.184
 4569POPC   GL160349  22.980  14.357   5.627
 4569POPC   GL260350  23.216  14.296   5.853
 4569POPC   C1A60351  22.784  14.433   6.074
 4569POPC   D2A60352  22.843  14.663   6.480
 4569POPC   C3A60353  22.846  14.392   6.850
 4569POPC   C4A60354  22.651  14.093   7.136
 4569POPC   C1B60355  23.275  14.654   6.149
 4569POPC   C2B60356  23.337  14.675   6.604
 4569POPC   C3B60357  23.376  14.368   6.917
 4569POPC   C4B60358  23.109  14.282   7.279
 4570POPC   NC360359  14.001   7.663   5.344
 4570POPC   PO460360  14.543   7.291   5.271
 4570POPC   GL160361  14.283   7.315   5.704
 4570POPC   GL260362  14.106   7.647   5.840
 4570POPC   C1A60363  14.344   7.123   6.141
 4570POPC   D2A60364  14.196   7.013   6.578
 4570POPC   C3A60365  14.405   7.258   6.914
 4570POPC   C4A60366  14.579   7.295   7.336
 4570POPC   C1B60367  14.472   7.625   6.119
 4570POPC   C2B60368  14.605   7.625   6.547
 4570POPC   C3B60369  14.487   7.755   6.928
 4570POPC   C4B60370  14.428   7.781   7.312
 4571POPC   NC360371  27.687  29.845   5.454
 4571POPC   PO460372  27.938  30.426   5.390
 4571POPC   GL160373  27.586  30.327   5.714
 4571POPC   GL260374  27.320  30.032   5.747
 4571POPC   C1A60375  27.483  30.289   6.179
 4571POPC   D2A60376  27.448  30.359   6.648
 4571POPC   C3A60377  27.662  30.042   6.919
 4571POPC   C4A60378  27.930  30.102   7.284
 4571POPC   C1B60379  27.349  29.754   6.161
 4571POPC   C2B60380  27.408  29.645   6.659
 4571POPC   C3B60381  27.674  29.539   7.037
 4571POPC   C4B60382  28.103  29.619   7.184
 4572POPC   NC360383  36.693  18.910   5.340
 4572POPC   PO460384  37.212  19.320   5.332
 4572POPC   GL160385  37.086  19.086   5.651
 4572POPC   GL260386  36.771  19.231   5.728
 4572POPC   C1A60387  37.070  18.976   6.089
 4572POPC   D2A60388  36.895  19.071   6.502
 4572POPC   C3A60389  37.029  18.973   6.941
 4572POPC   C4A60390  37.302  19.020   7.335
 4572POPC   C1B60391  36.691  19.391   6.102
 4572POPC   C2B60392  36.486  19.407   6.478
 4572POPC   C3B60393  36.514  19.303   6.900
 4572POPC   C4B60394  36.724  19.204   7.270
 4573POPC   NC360395  20.749   1.240   5.336
 4573POPC   PO460396  20.406   0.749   5.415
 4573POPC   GL160397  20.406   1.104   5.752
 4573POPC   GL260398  20.713   1.288   5.834
 4573POPC   C1A60399  20.450   1.094   6.236
 4573POPC   D2A60400  20.729   1.159   6.616
 4573POPC   C3A60401  20.583   1.058   7.045
 4573POPC   C4A60402  20.496   1.018   7.505
 4573POPC   C1B60403  20.701   1.534   6.199
 4573POPC   C2B60404  20.549   1.631   6.595
 4573POPC   C3B60405  20.744   1.564   6.976
 4573POPC   C4B60406  20.746   1.751   7.394
 4574POPC   NC360407  13.825  20.077   5.385
 4574POPC   PO460408  13.168  19.771   5.455
 4574POPC   GL160409  13.446  19.842   5.764
 4574POPC   GL260410  13.249  19.620   5.993
 4574POPC   C1A60411  13.688  19.831   6.155
 4574POPC   D2A60412  13.490  19.706   6.534
 4574POPC   C3A60413  13.766  19.719   6.877
 4574POPC   C4A60414  13.755  19.563   7.277
 4574POPC   C1B60415  13.210  20.051   6.190
 4574POPC   C2B60416  13.361  20.193   6.613
 4574POPC   C3B60417  13.410  20.048   7.036
 4574POPC   C4B60418  13.584  20.259   7.416
 4575POPC   NC360419  36.309  41.163   5.380
 4575POPC   PO460420  36.337  40.447   5.550
 4575POPC   GL160421  36.134  40.800   5.715
 4575POPC   GL260422  35.764  40.848   5.628
 4575POPC   C1A60423  36.217  40.846   6.140
 4575POPC   D2A60424  36.363  40.590   6.503
 4575POPC   C3A60425  36.211  40.705   6.915
 4575POPC   C4A60426  36.369  40.782   7.319
 4575POPC   C1B60427  35.729  40.698   6.062
 4575POPC   C2B60428  35.856  40.765   6.501
 4575POPC   C3B60429  35.705  40.631   6.899
 4575POPC   C4B60430  35.840  40.766   7.312
 4576POPC   NC360431  26.968   3.436   5.465
 4576POPC   PO460432  26.442   3.210   5.699
 4576POPC   GL160433  26.878   3.238   5.942
 4576POPC   GL260434  27.194   3.451   5.907
 4576POPC   C1A60435  26.943   3.398   6.371
 4576POPC   D2A60436  26.679   3.725   6.583
 4576POPC   C3A60437  26.583   3.582   6.989
 4576POPC   C4A60438  26.752   3.341   7.368
 4576POPC   C1B60439  27.129   3.828   6.198
 4576POPC   C2B60440  27.130   3.919   6.636
 4576POPC   C3B60441  27.088   3.722   7.063
 4576POPC   C4B60442  27.109   3.879   7.493
 4577POPC   NC360443   8.219  35.147   5.073
 4577POPC   PO460444   7.885  35.620   5.405
 4577POPC   GL160445   8.175  35.503   5.713
 4577POPC   GL260446   8.166  35.170   5.608
 4577POPC   C1A60447   8.344  35.569   6.136
 4577POPC   D2A60448   8.152  35.525   6.561
 4577POPC   C3A60449   8.242  35.611   7.015
 4577POPC   C4A60450   8.463  35.300   7.291
 4577POPC   C1B60451   8.078  35.119   6.071
 4577POPC   C2B60452   7.903  35.085   6.517
 4577POPC   C3B60453   8.161  35.074   6.923
 4577POPC   C4B60454   8.216  34.839   7.331
 4578POPC   NC360455   7.692  42.832   5.456
 4578POPC   PO460456   7.578  43.416   5.194
 4578POPC   GL160457   7.520  43.316   5.637
 4578POPC   GL260458   7.257  43.057   5.656
 4578POPC   C1A60459   7.632  43.393   6.107
 4578POPC   D2A60460   7.682  43.244   6.572
 4578POPC   C3A60461   7.642  43.425   7.017
 4578POPC   C4A60462   7.509  43.152   7.371
 4578POPC   C1B60463   7.235  42.819   6.064
 4578POPC   C2B60464   7.301  42.755   6.525
 4578POPC   C3B60465   7.303  42.952   6.939
 4578POPC   C4B60466   7.074  42.862   7.326
 4579POPC   NC360467  19.663   9.346   5.494
 4579POPC   PO460468  19.510  10.040   5.406
 4579POPC   GL160469  19.810   9.899   5.752
 4579POPC   GL260470  20.009   9.607   5.804
 4579POPC   C1A60471  19.950   9.892   6.216
 4579POPC   D2A60472  20.197   9.737   6.583
 4579POPC   C3A60473  20.046   9.776   6.974
 4579POPC   C4A60474  19.672   9.933   7.146
 4579POPC   C1B60475  19.900   9.384   6.186
 4579POPC   C2B60476  19.842   9.343   6.634
 4579POPC   C3B60477  19.635   9.464   6.993
 4579POPC   C4B60478  19.710   9.479   7.439
 4580POPC   NC360479  31.939   4.019   5.533
 4580POPC   PO460480  32.504   4.442   5.445
 4580POPC   GL160481  32.218   4.366   5.762
 4580POPC   GL260482  32.375   4.047   5.841
 4580POPC   C1A60483  31.993   4.385   6.169
 4580POPC   D2A60484  32.009   4.627   6.522
 4580POPC   C3A60485  32.011   4.436   6.892
 4580POPC   C4A60486  32.156   4.503   7.266
 4580POPC   C1B60487  32.496   4.358   6.171
 4580POPC   C2B60488  32.393   4.278   6.588
 4580POPC   C3B60489  32.539   4.298   7.008
 4580POPC   C4B60490  32.523   4.208   7.479
 4581POPC   NC360491  39.435   1.619   5.554
 4581POPC   PO460492  38.961   1.729   5.091
 4581POPC   GL160493  39.056   1.974   5.641
 4581POPC   GL260494  39.299   1.855   5.961
 4581POPC   C1A60495  38.830   1.915   6.136
 4581POPC   D2A60496  38.917   1.739   6.597
 4581POPC   C3A60497  38.857   1.894   7.055
 4581POPC   C4A60498  38.901   2.353   7.242
 4581POPC   C1B60499  39.551   1.649   6.310
 4581POPC   C2B60500  39.680   1.697   6.719
 4581POPC   C3B60501  39.358   1.837   6.927
 4581POPC   C4B60502  39.335   2.100   7.243
 4582POPC   NC360503  21.125  17.768   5.558
 4582POPC   PO460504  21.518  17.350   5.300
 4582POPC   GL160505  21.400  17.331   5.719
 4582POPC   GL260506  21.591  17.608   5.794
 4582POPC   C1A60507  21.235  17.476   6.136
 4582POPC   D2A60508  21.385  17.671   6.497
 4582POPC   C3A60509  21.191  17.540   6.864
 4582POPC   C4A60510  21.288  17.705   7.257
 4582POPC   C1B60511  21.819  17.657   6.164
 4582POPC   C2B60512  21.902  17.569   6.585
 4582POPC   C3B60513  21.689  17.677   6.934
 4582POPC   C4B60514  21.795  17.678   7.328
 4583POPC   NC360515   8.508  25.145   5.150
 4583POPC   PO460516   7.961  24.869   5.470
 4583POPC   GL160517   8.102  25.194   5.772
 4583POPC   GL260518   8.446  25.336   5.668
 4583POPC   C1A60519   8.037  25.219   6.248
 4583POPC   D2A60520   8.038  25.050   6.639
 4583POPC   C3A60521   8.343  25.064   6.950
 4583POPC   C4A60522   8.048  25.226   7.234
 4583POPC   C1B60523   8.440  25.512   6.100
 4583POPC   C2B60524   8.496  25.404   6.564
 4583POPC   C3B60525   8.325  25.575   6.982
 4583POPC   C4B60526   8.402  25.498   7.471
 4584POPC   NC360527  13.736  17.051   5.210
 4584POPC   PO460528  13.150  16.833   5.329
 4584POPC   GL160529  13.568  16.760   5.624
 4584POPC   GL260530  13.631  16.411   5.808
 4584POPC   C1A60531  13.858  16.821   6.009
 4584POPC   D2A60532  13.910  16.740   6.465
 4584POPC   C3A60533  13.702  16.993   6.756
 4584POPC   C4A60534  13.789  16.992   7.180
 4584POPC   C1B60535  13.885  16.315   6.195
 4584POPC   C2B60536  13.940  16.240   6.644
 4584POPC   C3B60537  13.805  16.537   6.965
 4584POPC   C4B60538  13.668  16.543   7.430
 4585POPC   NC360539  39.763  41.412   5.489
 4585POPC   PO460540  39.645  41.985   5.129
 4585POPC   GL160541  40.046  41.865   5.507
 4585POPC   GL260542  40.238  41.602   5.659
 4585POPC   C1A60543  40.092  41.928   6.023
 4585POPC   D2A60544  39.863  41.691   6.371
 4585POPC   C3A60545  39.920  41.648   6.839
 4585POPC   C4A60546  39.632  41.498   7.189
 4585POPC   C1B60547  40.177  41.387   6.061
 4585POPC   C2B60548  40.216  41.334   6.515
 4585POPC   C3B60549  40.372  41.372   6.927
 4585POPC   C4B60550  40.149  41.475   7.275
 4586POPC   NC360551  41.709  15.512   5.639
 4586POPC   PO460552  41.376  16.151   5.474
 4586POPC   GL160553  41.392  15.900   5.832
 4586POPC   GL260554  41.710  15.895   5.989
 4586POPC   C1A60555  41.261  15.701   6.203
 4586POPC   D2A60556  41.315  15.993   6.509
 4586POPC   C3A60557  41.597  15.883   6.799
 4586POPC   C4A60558  41.623  15.796   7.207
 4586POPC   C1B60559  41.546  16.288   6.169
 4586POPC   C2B60560  41.589  16.445   6.604
 4586POPC   C3B60561  41.520  16.300   7.075
 4586POPC   C4B60562  41.653  16.194   7.535
 4587POPC   NC360563  21.094  36.455   5.307
 4587POPC   PO460564  21.563  35.923   5.155
 4587POPC   GL160565  21.526  35.857   5.674
 4587POPC   GL260566  21.883  35.885   5.780
 4587POPC   C1A60567  21.238  35.985   6.099
 4587POPC   D2A60568  21.042  36.094   6.536
 4587POPC   C3A60569  21.157  36.363   6.925
 4587POPC   C4A60570  21.041  36.081   7.276
 4587POPC   C1B60571  21.727  36.099   6.148
 4587POPC   C2B60572  21.722  35.987   6.561
 4587POPC   C3B60573  21.444  35.954   6.899
 4587POPC   C4B60574  21.537  36.001   7.332
 4588POPC   NC360575   0.769  11.379   5.106
 4588POPC   PO460576   0.207  11.566   5.450
 4588POPC   GL160577   0.287  11.264   5.743
 4588POPC   GL260578   0.632  11.208   5.721
 4588POPC   C1A60579   0.304  11.307   6.182
 4588POPC   D2A60580   0.102  11.552   6.491
 4588POPC   C3A60581   0.248  11.435   6.872
 4588POPC   C4A60582   0.132  11.389   7.304
 4588POPC   C1B60583   0.805  11.193   6.126
 4588POPC   C2B60584   0.723  11.372   6.522
 4588POPC   C3B60585   0.742  11.412   6.955
 4588POPC   C4B60586   0.523  11.092   7.166
 4589POPC   NC360587  35.421  33.380   5.367
 4589POPC   PO460588  35.640  32.791   5.124
 4589POPC   GL160589  35.576  32.841   5.567
 4589POPC   GL260590  35.646  33.143   5.745
 4589POPC   C1A60591  35.321  32.809   5.960
 4589POPC   D2A60592  35.169  32.764   6.391
 4589POPC   C3A60593  35.420  32.818   6.770
 4589POPC   C4A60594  35.248  32.871   7.190
 4589POPC   C1B60595  35.682  33.196   6.181
 4589POPC   C2B60596  35.364  33.261   6.481
 4589POPC   C3B60597  35.349  33.323   6.920
 4589POPC   C4B60598  35.643  33.342   7.235
 4590POPC   NC360599  25.666  20.471   5.149
 4590POPC   PO460600  25.105  20.820   5.375
 4590POPC   GL160601  25.234  20.792   5.806
 4590POPC   GL260602  25.266  20.481   6.006
 4590POPC   C1A60603  25.126  20.922   6.215
 4590POPC   D2A60604  25.297  20.732   6.569
 4590POPC   C3A60605  25.236  20.844   6.965
 4590POPC   C4A60606  25.242  20.533   7.261
 4590POPC   C1B60607  25.507  20.321   6.393
 4590POPC   C2B60608  25.667  20.386   6.848
 4590POPC   C3B60609  25.619  20.184   7.273
 4590POPC   C4B60610  25.456  20.254   7.720
 4591POPC   NC360611   4.315  17.443   5.391
 4591POPC   PO460612   3.861  17.896   5.563
 4591POPC   GL160613   4.168  17.775   5.873
 4591POPC   GL260614   4.391  17.456   5.891
 4591POPC   C1A60615   4.106  17.618   6.295
 4591POPC   D2A60616   4.111  17.250   6.576
 4591POPC   C3A60617   4.253  17.381   6.985
 4591POPC   C4A60618   4.159  17.773   7.147
 4591POPC   C1B60619   4.585  17.749   6.180
 4591POPC   C2B60620   4.657  17.968   6.581
 4591POPC   C3B60621   4.629  17.782   6.986
 4591POPC   C4B60622   4.594  17.601   7.412
 4592POPC   NC360623   9.160   6.952   5.569
 4592POPC   PO460624   9.090   7.708   5.502
 4592POPC   GL160625   8.990   7.444   5.820
 4592POPC   GL260626   8.721   7.240   5.725
 4592POPC   C1A60627   8.789   7.536   6.217
 4592POPC   D2A60628   8.875   7.389   6.639
 4592POPC   C3A60629   8.879   7.626   7.017
 4592POPC   C4A60630   9.143   7.578   7.426
 4592POPC   C1B60631   8.470   7.137   6.129
 4592POPC   C2B60632   8.375   7.241   6.559
 4592POPC   C3B60633   8.560   7.166   6.984
 4592POPC   C4B60634   8.706   7.337   7.413
 4593POPC   NC360635  32.363   2.277   5.488
 4593POPC   PO460636  32.544   1.681   5.452
 4593POPC   GL160637  32.140   1.846   5.710
 4593POPC   GL260638  32.073   2.190   5.911
 4593POPC   C1A60639  32.246   1.789   6.159
 4593POPC   D2A60640  32.217   1.618   6.567
 4593POPC   C3A60641  32.161   1.900   6.930
 4593POPC   C4A60642  32.191   1.712   7.342
 4593POPC   C1B60643  32.374   2.425   6.179
 4593POPC   C2B60644  32.469   2.611   6.595
 4593POPC   C3B60645  32.427   2.367   6.952
 4593POPC   C4B60646  32.466   2.133   7.318
 4594POPC   NC360647  42.552  44.308   5.567
 4594POPC   PO460648  42.389  44.816   5.128
 4594POPC   GL160649  42.207  44.750   5.578
 4594POPC   GL260650  42.043   0.036   5.717
 4594POPC   C1A60651  42.133  44.628   6.050
 4594POPC   D2A60652  42.461  44.470   6.364
 4594POPC   C3A60653  42.541  44.663   6.792
 4594POPC   C4A60654  42.598  44.597   7.238
 4594POPC   C1B60655  41.820   0.062   6.124
 4594POPC   C2B60656  41.921   0.040   6.575
 4594POPC   C3B60657  42.110  44.887   6.998
 4594POPC   C4B60658  42.187  44.834   7.469
 4595POPC   NC360659   4.749  19.981   5.326
 4595POPC   PO460660   4.080  20.039   5.425
 4595POPC   GL160661   4.340  19.829   5.765
 4595POPC   GL260662   4.102  19.671   5.912
 4595POPC   C1A60663   4.454  19.697   6.241
 4595POPC   D2A60664   4.230  19.505   6.598
 4595POPC   C3A60665   4.364  19.637   6.990
 4595POPC   C4A60666   4.430  19.941   7.287
 4595POPC   C1B60667   3.888  19.666   6.257
 4595POPC   C2B60668   3.800  19.826   6.649
 4595POPC   C3B60669   3.868  19.616   7.031
 4595POPC   C4B60670   3.884  19.510   7.505
 4596POPC   NC360671  36.038  12.457   5.606
 4596POPC   PO460672  35.875  13.116   5.487
 4596POPC   GL160673  36.081  12.918   5.845
 4596POPC   GL260674  36.410  12.725   5.861
 4596POPC   C1A60675  36.064  12.808   6.273
 4596POPC   D2A60676  35.792  12.880   6.620
 4596POPC   C3A60677  36.016  12.732   6.959
 4596POPC   C4A60678  36.353  12.911   7.197
 4596POPC   C1B60679  36.502  12.521   6.284
 4596POPC   C2B60680  36.510  12.607   6.762
 4596POPC   C3B60681  36.404  12.410   7.178
 4596POPC   C4B60682  36.465  12.579   7.624
 4597POPC   NC360683  43.442  42.309   5.421
 4597POPC   PO460684  44.097  42.016   5.526
 4597POPC   GL160685  43.826  42.213   5.751
 4597POPC   GL260686  43.599  41.932   5.790
 4597POPC   C1A60687  43.949  42.369   6.137
 4597POPC   D2A60688  44.022  42.464   6.564
 4597POPC   C3A60689  44.180  42.164   6.855
 4597POPC   C4A60690  44.353  42.281   7.213
 4597POPC   C1B60691  43.529  42.096   6.203
 4597POPC   C2B60692  43.735  42.048   6.603
 4597POPC   C3B60693  43.698  42.234   7.026
 4597POPC   C4B60694  43.831  42.149   7.457
 4598POPC   NC360695   7.851  26.088   5.381
 4598POPC   PO460696   8.223  25.545   5.247
 4598POPC   GL160697   8.049  25.696   5.651
 4598POPC   GL260698   8.153  26.010   5.801
 4598POPC   C1A60699   7.927  25.673   6.087
 4598POPC   D2A60700   8.095  25.700   6.514
 4598POPC   C3A60701   7.929  25.911   6.882
 4598POPC   C4A60702   8.056  25.831   7.315
 4598POPC   C1B60703   8.342  26.022   6.217
 4598POPC   C2B60704   8.546  26.083   6.628
 4598POPC   C3B60705   8.381  26.159   7.055
 4598POPC   C4B60706   7.966  26.315   7.186
 4599POPC   NC360707   1.536  39.154   5.303
 4599POPC   PO460708   0.824  39.039   5.404
 4599POPC   GL160709   1.175  39.097   5.681
 4599POPC   GL260710   1.238  39.444   5.689
 4599POPC   C1A60711   1.238  39.018   6.123
 4599POPC   D2A60712   0.941  39.039   6.477
 4599POPC   C3A60713   1.090  39.100   6.880
 4599POPC   C4A60714   1.237  39.163   7.272
 4599POPC   C1B60715   1.006  39.493   6.090
 4599POPC   C2B60716   1.007  39.757   6.495
 4599POPC   C3B60717   1.146  39.627   6.913
 4599POPC   C4B60718   0.933  39.561   7.283
 4600POPC   NC360719   6.185  11.004   5.500
 4600POPC   PO460720   6.863  11.296   5.499
 4600POPC   GL160721   6.511  11.257   5.805
 4600POPC   GL260722   6.500  10.899   5.888
 4600POPC   C1A60723   6.368  11.440   6.207
 4600POPC   D2A60724   6.437  11.598   6.636
 4600POPC   C3A60725   6.570  11.566   7.072
 4600POPC   C4A60726   6.711  11.596   7.489
 4600POPC   C1B60727   6.297  10.955   6.278
 4600POPC   C2B60728   6.397  11.094   6.650
 4600POPC   C3B60729   6.563  11.056   7.031
 4600POPC   C4B60730   6.519  10.753   7.311
 4601POPC   NC360731   5.624  29.759   5.496
 4601POPC   PO460732   4.912  29.856   5.351
 4601POPC   GL160733   5.230  30.049   5.708
 4601POPC   GL260734   5.347  29.745   5.922
 4601POPC   C1A60735   5.342  30.155   6.211
 4601POPC   D2A60736   5.295  29.962   6.672
 4601POPC   C3A60737   5.340  30.150   7.122
 4601POPC   C4A60738   5.139  30.105   7.550
 4601POPC   C1B60739   5.337  29.460   6.314
 4601POPC   C2B60740   5.204  29.465   6.776
 4601POPC   C3B60741   5.053  29.714   7.159
 4601POPC   C4B60742   5.009  29.603   7.623
 4602POPC   NC360743  30.159  32.322   5.338
 4602POPC   PO460744  29.616  31.832   5.407
 4602POPC   GL160745  29.907  32.020   5.663
 4602POPC   GL260746  29.793  32.319   5.704
 4602POPC   C1A60747  30.075  32.066   6.082
 4602POPC   D2A60748  29.928  32.300   6.416
 4602POPC   C3A60749  30.234  32.380   6.723
 4602POPC   C4A60750  29.929  32.467   7.011
 4602POPC   C1B60751  29.575  32.098   6.045
 4602POPC   C2B60752  29.616  31.860   6.433
 4602POPC   C3B60753  29.728  32.028   6.826
 4602POPC   C4B60754  29.709  32.093   7.269
 4603POPC   NC360755  23.637   7.697   5.134
 4603POPC   PO460756  23.429   7.427   5.706
 4603POPC   GL160757  23.785   7.533   5.851
 4603POPC   GL260758  23.947   7.750   5.614
 4603POPC   C1A60759  23.731   7.680   6.264
 4603POPC   D2A60760  23.727   7.838   6.678
 4603POPC   C3A60761  23.585   7.508   6.914
 4603POPC   C4A60762  23.342   7.320   7.210
 4603POPC   C1B60763  24.174   7.834   6.020
 4603POPC   C2B60764  24.193   7.681   6.454
 4603POPC   C3B60765  24.229   7.807   6.884
 4603POPC   C4B60766  23.948   7.700   7.215
 4604POPC   NC360767  26.069  14.118   5.219
 4604POPC   PO460768  25.589  14.592   5.425
 4604POPC   GL160769  25.990  14.607   5.727
 4604POPC   GL260770  26.136  14.252   5.785
 4604POPC   C1A60771  26.234  14.614   6.183
 4604POPC   D2A60772  26.387  14.451   6.628
 4604POPC   C3A60773  26.193  14.515   7.039
 4604POPC   C4A60774  26.143  14.238   7.414
 4604POPC   C1B60775  25.820  14.328   6.167
 4604POPC   C2B60776  25.845  14.365   6.657
 4604POPC   C3B60777  25.732  14.304   7.124
 4604POPC   C4B60778  25.669  14.203   7.566
 4605POPC   NC360779  19.845  39.833   5.609
 4605POPC   PO460780  20.016  39.268   5.236
 4605POPC   GL160781  20.024  39.226   5.692
 4605POPC   GL260782  19.950  38.892   5.832
 4605POPC   C1A60783  20.136  39.301   6.149
 4605POPC   D2A60784  20.044  39.624   6.455
 4605POPC   C3A60785  19.985  39.549   6.893
 4605POPC   C4A60786  20.164  39.225   7.134
 4605POPC   C1B60787  19.647  39.204   6.054
 4605POPC   C2B60788  19.676  39.245   6.513
 4605POPC   C3B60789  19.654  39.149   6.975
 4605POPC   C4B60790  19.430  38.991   7.376
 4606POPC   NC360791   8.946  26.428   5.503
 4606POPC   PO460792   8.730  27.074   5.672
 4606POPC   GL160793   9.028  26.801   5.877
 4606POPC   GL260794   9.213  27.026   6.098
 4606POPC   C1A60795   9.175  26.511   6.193
 4606POPC   D2A60796   9.277  26.649   6.612
 4606POPC   C3A60797   9.409  26.453   6.987
 4606POPC   C4A60798   9.204  26.736   7.242
 4606POPC   C1B60799   8.787  27.065   6.304
 4606POPC   C2B60800   8.619  27.120   6.707
 4606POPC   C3B60801   8.740  26.931   7.081
 4606POPC   C4B60802   8.637  26.948   7.501
 4607POPC   NC360803  12.392   1.038   5.516
 4607POPC   PO460804  13.095   1.244   5.413
 4607POPC   GL160805  12.826   1.214   5.748
 4607POPC   GL260806  12.897   0.889   5.854
 4607POPC   C1A60807  12.535   1.413   6.051
 4607POPC   D2A60808  12.545   1.491   6.494
 4607POPC   C3A60809  12.553   1.260   6.883
 4607POPC   C4A60810  12.755   1.121   7.239
 4607POPC   C1B60811  12.895   1.129   6.262
 4607POPC   C2B60812  13.003   1.072   6.693
 4607POPC   C3B60813  13.078   0.797   7.025
 4607POPC   C4B60814  13.191   0.864   7.470
 4608POPC   NC360815  44.233  34.680   5.447
 4608POPC   PO460816  44.938  34.396   5.430
 4608POPC   GL160817  44.811  34.535   5.863
 4608POPC   GL260818  44.519  34.767   5.879
 4608POPC   C1A60819  44.940  34.850   6.189
 4608POPC   D2A60820   0.060  34.948   6.627
 4608POPC   C3A60821  44.870  34.655   6.908
 4608POPC   C4A60822  44.714  34.428   7.243
 4608POPC   C1B60823  44.502  34.590   6.315
 4608POPC   C2B60824  44.328  34.700   6.711
 4608POPC   C3B60825  44.402  34.797   7.126
 4608POPC   C4B60826  44.219  34.782   7.526
 4609POPC   NC360827   3.951  40.794   5.206
 4609POPC   PO460828   3.251  40.644   5.443
 4609POPC   GL160829   3.595  40.684   5.748
 4609POPC   GL260830   3.933  40.547   5.796
 4609POPC   C1A60831   3.482  40.723   6.183
 4609POPC   D2A60832   3.215  40.889   6.514
 4609POPC   C3A60833   3.283  40.843   6.954
 4609POPC   C4A60834   3.590  41.066   7.222
 4609POPC   C1B60835   3.965  40.601   6.232
 4609POPC   C2B60836   3.804  40.710   6.646
 4609POPC   C3B60837   3.704  40.591   7.053
 4609POPC   C4B60838   3.457  40.572   7.393
 4610POPC   NC360839  36.962  21.690   5.505
 4610POPC   PO460840  37.005  21.059   5.383
 4610POPC   GL160841  36.828  21.086   5.822
 4610POPC   GL260842  37.002  21.379   5.903
 4610POPC   C1A60843  36.670  21.285   6.264
 4610POPC   D2A60844  36.909  21.525   6.603
 4610POPC   C3A60845  36.840  21.419   7.047
 4610POPC   C4A60846  36.523  21.627   7.288
 4610POPC   C1B60847  37.187  21.231   6.287
 4610POPC   C2B60848  36.998  21.010   6.646
 4610POPC   C3B60849  37.080  20.949   7.090
 4610POPC   C4B60850  37.212  21.216   7.392
 4611POPC   NC360851  13.083  13.263   5.578
 4611POPC   PO460852  12.605  13.728   5.379
 4611POPC   GL160853  12.804  13.623   5.819
 4611POPC   GL260854  12.714  13.280   5.945
 4611POPC   C1A60855  13.088  13.572   6.212
 4611POPC   D2A60856  13.401  13.642   6.547
 4611POPC   C3A60857  13.176  13.688   6.954
 4611POPC   C4A60858  12.812  13.514   7.242
 4611POPC   C1B60859  12.661  13.304   6.408
 4611POPC   C2B60860  12.697  13.645   6.750
 4611POPC   C3B60861  12.478  13.887   7.126
 4611POPC   C4B60862  12.555  13.878   7.601
 4612POPC   NC360863  30.436   4.334   4.954
 4612POPC   PO460864  30.810   4.644   5.474
 4612POPC   GL160865  30.648   4.378   5.810
 4612POPC   GL260866  30.461   4.576   6.039
 4612POPC   C1A60867  30.466   4.101   6.154
 4612POPC   D2A60868  30.420   4.364   6.557
 4612POPC   C3A60869  30.726   4.271   6.889
 4612POPC   C4A60870  30.781   4.343   7.312
 4612POPC   C1B60871  30.847   4.498   6.303
 4612POPC   C2B60872  30.872   4.728   6.719
 4612POPC   C3B60873  30.549   4.734   7.081
 4612POPC   C4B60874  30.540   4.702   7.577
 4613POPC   NC360875  20.101  21.739   5.363
 4613POPC   PO460876  20.760  22.053   5.237
 4613POPC   GL160877  20.751  22.176   5.696
 4613POPC   GL260878  20.393  22.247   5.665
 4613POPC   C1A60879  20.881  22.038   6.155
 4613POPC   D2A60880  20.996  22.109   6.617
 4613POPC   C3A60881  20.878  21.909   7.036
 4613POPC   C4A60882  20.544  21.987   7.371
 4613POPC   C1B60883  20.354  22.076   6.073
 4613POPC   C2B60884  20.491  22.023   6.500
 4613POPC   C3B60885  20.366  21.883   6.884
 4613POPC   C4B60886  20.077  21.961   7.224
 4614POPC   NC360887   9.460  21.823   5.655
 4614POPC   PO460888  10.074  22.094   5.562
 4614POPC   GL160889   9.834  22.085   5.907
 4614POPC   GL260890   9.851  21.724   5.990
 4614POPC   C1A60891   9.522  22.144   6.252
 4614POPC   D2A60892   9.514  21.925   6.651
 4614POPC   C3A60893   9.536  22.159   7.010
 4614POPC   C4A60894   9.796  22.381   7.297
 4614POPC   C1B60895   9.996  21.967   6.366
 4614POPC   C2B60896  10.159  22.246   6.691
 4614POPC   C3B60897  10.237  22.248   7.121
 4614POPC   C4B60898  10.115  21.980   7.480
 4615POPC   NC360899  35.913  11.291   5.372
 4615POPC   PO460900  36.450  11.714   5.198
 4615POPC   GL160901  36.304  11.616   5.643
 4615POPC   GL260902  36.260  11.267   5.731
 4615POPC   C1A60903  36.191  11.612   6.119
 4615POPC   D2A60904  36.317  11.555   6.555
 4615POPC   C3A60905  36.084  11.706   6.919
 4615POPC   C4A60906  35.832  11.610   7.288
 4615POPC   C1B60907  36.249  11.096   6.136
 4615POPC   C2B60908  36.050  11.031   6.525
 4615POPC   C3B60909  36.149  11.199   6.904
 4615POPC   C4B60910  36.319  11.030   7.226
 4616POPC   NC360911   6.671  36.817   5.358
 4616POPC   PO460912   7.060  37.332   5.640
 4616POPC   GL160913   6.628  37.193   5.837
 4616POPC   GL260914   6.337  37.453   5.790
 4616POPC   C1A60915   6.535  36.828   6.173
 4616POPC   D2A60916   6.455  36.612   6.605
 4616POPC   C3A60917   6.570  36.911   6.935
 4616POPC   C4A60918   6.713  37.023   7.332
 4616POPC   C1B60919   6.376  37.407   6.262
 4616POPC   C2B60920   6.342  37.370   6.711
 4616POPC   C3B60921   6.375  37.354   7.176
 4616POPC   C4B60922   6.339  37.154   7.642
 4617POPC   NC360923  13.349  21.868   5.261
 4617POPC   PO460924  13.962  22.187   5.448
 4617POPC   GL160925  13.646  22.182   5.772
 4617POPC   GL260926  13.705  21.944   6.011
 4617POPC   C1A60927  13.285  22.275   6.056
 4617POPC   D2A60928  13.126  22.276   6.497
 4617POPC   C3A60929  13.393  22.195   6.875
 4617POPC   C4A60930  13.723  22.327   7.115
 4617POPC   C1B60931  13.615  22.067   6.414
 4617POPC   C2B60932  13.820  21.888   6.754
 4617POPC   C3B60933  13.874  21.824   7.200
 4617POPC   C4B60934  13.860  21.728   7.666
 4618POPC   NC360935   7.923   9.158   4.979
 4618POPC   PO460936   8.176   8.704   5.476
 4618POPC   GL160937   8.289   8.901   5.872
 4618POPC   GL260938   8.591   9.117   5.924
 4618POPC   C1A60939   8.099   8.850   6.289
 4618POPC   D2A60940   7.971   8.597   6.654
 4618POPC   C3A60941   8.005   8.838   7.069
 4618POPC   C4A60942   8.156   8.740   7.502
 4618POPC   C1B60943   8.526   9.120   6.375
 4618POPC   C2B60944   8.465   9.069   6.835
 4618POPC   C3B60945   8.470   9.086   7.291
 4618POPC   C4B60946   8.520   9.224   7.727
 4619POPC   NC360947   6.596  31.880   5.339
 4619POPC   PO460948   6.967  32.444   5.225
 4619POPC   GL160949   6.661  32.359   5.614
 4619POPC   GL260950   6.544  32.039   5.814
 4619POPC   C1A60951   6.643  32.476   6.058
 4619POPC   D2A60952   6.725  32.535   6.515
 4619POPC   C3A60953   6.746  32.374   6.944
 4619POPC   C4A60954   6.826  32.512   7.367
 4619POPC   C1B60955   6.663  31.904   6.204
 4619POPC   C2B60956   6.854  31.983   6.624
 4619POPC   C3B60957   6.754  31.845   7.041
 4619POPC   C4B60958   6.574  32.057   7.415
 4620POPC   NC360959  29.406  18.289   5.321
 4620POPC   PO460960  28.776  18.073   5.098
 4620POPC   GL160961  28.982  18.199   5.581
 4620POPC   GL260962  28.870  18.439   5.809
 4620POPC   C1A60963  29.345  18.315   5.959
 4620POPC   D2A60964  29.437  18.247   6.430
 4620POPC   C3A60965  29.275  18.156   6.837
 4620POPC   C4A60966  29.345  18.415   7.153
 4620POPC   C1B60967  28.936  18.276   6.259
 4620POPC   C2B60968  28.747  18.297   6.688
 4620POPC   C3B60969  28.848  18.319   7.129
 4620POPC   C4B60970  28.772  18.470   7.570
 4621POPC   NC360971   4.190   3.400   5.338
 4621POPC   PO460972   4.469   3.956   5.270
 4621POPC   GL160973   4.329   3.821   5.684
 4621POPC   GL260974   4.115   3.541   5.814
 4621POPC   C1A60975   4.349   3.824   6.146
 4621POPC   D2A60976   4.436   3.620   6.502
 4621POPC   C3A60977   4.116   3.620   6.790
 4621POPC   C4A60978   4.188   3.727   7.146
 4621POPC   C1B60979   4.050   3.373   6.264
 4621POPC   C2B60980   4.271   3.166   6.655
 4621POPC   C3B60981   4.227   3.201   7.124
 4621POPC   C4B60982   3.940   3.085   7.462
 4622POPC   NC360983  40.959  35.882   5.521
 4622POPC   PO460984  40.831  36.490   5.308
 4622POPC   GL160985  40.856  36.355   5.752
 4622POPC   GL260986  40.606  36.121   5.884
 4622POPC   C1A60987  40.766  36.450   6.210
 4622POPC   D2A60988  40.618  36.135   6.517
 4622POPC   C3A60989  40.780  36.233   6.920
 4622POPC   C4A60990  40.945  36.335   7.335
 4622POPC   C1B60991  40.348  35.845   6.152
 4622POPC   C2B60992  40.132  35.809   6.540
 4622POPC   C3B60993  40.323  35.918   6.941
 4622POPC   C4B60994  40.663  35.847   7.248
 4623POPC   NC360995  31.801  18.944   5.371
 4623POPC   PO460996  31.218  19.279   5.474
 4623POPC   GL160997  31.334  19.266   5.846
 4623POPC   GL260998  31.700  19.317   5.716
 4623POPC   C1A60999  31.257  19.121   6.301
 4623POPC   D2A61000  31.430  18.841   6.641
 4623POPC   C3A61001  31.408  18.996   7.072
 4623POPC   C4A61002  31.328  19.079   7.536
 4623POPC   C1B61003  31.718  19.105   6.091
 4623POPC   C2B61004  31.744  19.222   6.504
 4623POPC   C3B61005  31.790  19.308   6.922
 4623POPC   C4B61006  31.767  19.244   7.355
 4624POPC   NC361007  38.843  34.021   5.057
 4624POPC   PO461008  38.408  34.501   5.360
 4624POPC   GL161009  38.418  34.388   5.773
 4624POPC   GL261010  38.762  34.294   5.749
 4624POPC   C1A61011  38.238  34.508   6.174
 4624POPC   D2A61012  38.218  34.379   6.601
 4624POPC   C3A61013  38.304  34.672   6.948
 4624POPC   C4A61014  38.443  34.542   7.351
 4624POPC   C1B61015  38.745  34.564   6.117
 4624POPC   C2B61016  38.668  34.664   6.535
 4624POPC   C3B61017  38.712  34.405   6.883
 4624POPC   C4B61018  38.910  34.331   7.253
 4625POPC   NC361019  29.049  23.044   5.358
 4625POPC   PO461020  29.491  22.601   5.565
 4625POPC   GL161021  29.221  22.841   5.846
 4625POPC   GL261022  28.885  22.827   5.774
 4625POPC   C1A61023  29.208  22.949   6.295
 4625POPC   D2A61024  29.237  22.793   6.715
 4625POPC   C3A61025  29.084  23.071   7.015
 4625POPC   C4A61026  29.110  22.917   7.418
 4625POPC   C1B61027  28.720  22.953   6.143
 4625POPC   C2B61028  28.735  22.960   6.579
 4625POPC   C3B61029  28.762  22.694   6.913
 4625POPC   C4B61030  28.639  22.754   7.299
 4626POPC   NC361031  37.741  17.222   5.605
 4626POPC   PO461032  37.690  17.845   5.530
 4626POPC   GL161033  37.665  17.636   5.898
 4626POPC   GL261034  37.353  17.453   5.874
 4626POPC   C1A61035  37.870  17.531   6.267
 4626POPC   D2A61036  37.940  17.767   6.640
 4626POPC   C3A61037  37.936  17.482   6.993
 4626POPC   C4A61038  37.867  17.505   7.417
 4626POPC   C1B61039  37.253  17.816   6.181
 4626POPC   C2B61040  37.387  17.890   6.643
 4626POPC   C3B61041  37.506  17.750   7.110
 4626POPC   C4B61042  37.447  17.687   7.609
 4627POPC   NC361043  43.908  43.339   5.405
 4627POPC   PO461044  43.684  42.713   5.385
 4627POPC   GL161045  43.748  42.738   5.812
 4627POPC   GL261046  43.686  43.082   5.795
 4627POPC   C1A61047  43.754  42.808   6.274
 4627POPC   D2A61048  43.977  42.980   6.662
 4627POPC   C3A61049  43.796  43.078   7.108
 4627POPC   C4A61050  43.908  43.032   7.561
 4627POPC   C1B61051  43.899  43.290   6.175
 4627POPC   C2B61052  43.809  43.462   6.607
 4627POPC   C3B61053  44.006  43.537   7.040
 4627POPC   C4B61054  43.779  43.516   7.444
 4628POPC   NC361055  34.878   7.483   5.347
 4628POPC   PO461056  35.293   7.033   5.302
 4628POPC   GL161057  35.208   7.310   5.725
 4628POPC   GL261058  35.186   7.714   5.698
 4628POPC   C1A61059  35.292   7.350   6.221
 4628POPC   D2A61060  35.127   7.329   6.663
 4628POPC   C3A61061  35.382   7.382   7.020
 4628POPC   C4A61062  35.688   7.114   7.228
 4628POPC   C1B61063  34.922   7.647   6.059
 4628POPC   C2B61064  34.931   7.764   6.500
 4628POPC   C3B61065  34.947   7.730   6.970
 4628POPC   C4B61066  35.014   7.461   7.366
 4629POPC   NC361067  29.166  24.818   5.162
 4629POPC   PO461068  29.217  24.195   5.239
 4629POPC   GL161069  29.020  24.184   5.643
 4629POPC   GL261070  29.286  24.227   5.853
 4629POPC   C1A61071  28.875  24.073   6.105
 4629POPC   D2A61072  28.666  24.062   6.519
 4629POPC   C3A61073  28.899  24.146   6.939
 4629POPC   C4A61074  29.055  24.341   7.367
 4629POPC   C1B61075  29.374  24.263   6.288
 4629POPC   C2B61076  29.222  24.434   6.669
 4629POPC   C3B61077  29.410  24.535   7.070
 4629POPC   C4B61078  29.608  24.371   7.454
 4630POPC   NC361079  23.874  21.959   5.190
 4630POPC   PO461080  23.450  22.476   5.393
 4630POPC   GL161081  23.583  22.174   5.715
 4630POPC   GL261082  23.932  22.079   5.727
 4630POPC   C1A61083  23.623  22.164   6.153
 4630POPC   D2A61084  23.724  22.319   6.575
 4630POPC   C3A61085  23.575  22.043   6.925
 4630POPC   C4A61086  23.368  21.863   7.334
 4630POPC   C1B61087  24.116  22.333   6.098
 4630POPC   C2B61088  24.235  22.416   6.547
 4630POPC   C3B61089  24.060  22.401   6.965
 4630POPC   C4B61090  23.732  22.399   7.252
 4631POPC   NC361091  29.322   1.869   5.409
 4631POPC   PO461092  28.672   1.965   5.333
 4631POPC   GL161093  28.979   2.103   5.707
 4631POPC   GL261094  28.840   2.029   5.998
 4631POPC   C1A61095  29.322   1.920   6.058
 4631POPC   D2A61096  29.333   1.739   6.501
 4631POPC   C3A61097  29.191   2.037   6.805
 4631POPC   C4A61098  28.815   2.075   7.106
 4631POPC   C1B61099  28.962   1.571   6.043
 4631POPC   C2B61100  28.901   1.473   6.470
 4631POPC   C3B61101  28.877   1.628   6.843
 4631POPC   C4B61102  28.743   1.582   7.215
 4632POPC   NC361103   0.978  36.346   5.476
 4632POPC   PO461104   1.547  36.121   5.383
 4632POPC   GL161105   1.264  36.015   5.765
 4632POPC   GL261106   0.903  36.083   5.888
 4632POPC   C1A61107   1.339  36.153   6.210
 4632POPC   D2A61108   1.575  36.342   6.563
 4632POPC   C3A61109   1.392  36.290   7.001
 4632POPC   C4A61110   1.436  35.876   7.222
 4632POPC   C1B61111   0.811  36.200   6.297
 4632POPC   C2B61112   1.053  36.126   6.657
 4632POPC   C3B61113   0.960  36.030   7.091
 4632POPC   C4B61114   0.723  36.061   7.477
 4633POPC   NC361115   2.855  39.804   5.634
 4633POPC   PO461116   2.382  40.210   5.682
 4633POPC   GL161117   2.444  39.907   6.017
 4633POPC   GL261118   2.579  39.549   6.008
 4633POPC   C1A61119   2.621  40.031   6.401
 4633POPC   D2A61120   2.917  39.995   6.710
 4633POPC   C3A61121   2.702  40.083   7.027
 4633POPC   C4A61122   2.314  39.923   7.093
 4633POPC   C1B61123   2.800  39.547   6.432
 4633POPC   C2B61124   3.133  39.532   6.772
 4633POPC   C3B61125   3.084  39.759   7.183
 4633POPC   C4B61126   2.989  39.665   7.665
 4634POPC   NC361127   2.619  10.048   5.470
 4634POPC   PO461128   3.110   9.561   5.519
 4634POPC   GL161129   2.889   9.690   5.869
 4634POPC   GL261130   2.940  10.044   5.884
 4634POPC   C1A61131   2.940   9.572   6.308
 4634POPC   D2A61132   2.962   9.447   6.728
 4634POPC   C3A61133   2.905   9.735   7.033
 4634POPC   C4A61134   2.664   9.645   7.427
 4634POPC   C1B61135   2.585   9.936   6.209
 4634POPC   C2B61136   2.533   9.864   6.685
 4634POPC   C3B61137   2.528  10.045   7.143
 4634POPC   C4B61138   2.505  10.135   7.599
 4635POPC   NC361139  42.673  30.314   5.141
 4635POPC   PO461140  43.197  29.981   5.450
 4635POPC   GL161141  43.282  30.032   5.872
 4635POPC   GL261142  43.473  30.339   5.901
 4635POPC   C1A61143  43.274  29.772   6.231
 4635POPC   D2A61144  43.003  29.872   6.569
 4635POPC   C3A61145  43.149  29.798   6.966
 4635POPC   C4A61146  42.850  29.892   7.261
 4635POPC   C1B61147  43.257  30.309   6.331
 4635POPC   C2B61148  43.251  30.307   6.813
 4635POPC   C3B61149  43.213  30.285   7.270
 4635POPC   C4B61150  43.265  30.228   7.736
 4636POPC   NC361151  25.503  28.117   5.377
 4636POPC   PO461152  24.947  28.418   5.127
 4636POPC   GL161153  25.090  28.450   5.580
 4636POPC   GL261154  25.447  28.582   5.630
 4636POPC   C1A61155  25.021  28.453   6.055
 4636POPC   D2A61156  25.243  28.401   6.465
 4636POPC   C3A61157  25.047  28.302   6.863
 4636POPC   C4A61158  25.024  28.608   7.181
 4636POPC   C1B61159  25.492  28.678   6.088
 4636POPC   C2B61160  25.597  28.787   6.533
 4636POPC   C3B61161  25.714  28.623   6.965
 4636POPC   C4B61162  25.835  28.509   7.410
 4637POPC   NC361163  23.754  28.722   5.413
 4637POPC   PO461164  24.066  28.141   5.336
 4637POPC   GL161165  23.948  28.316   5.764
 4637POPC   GL261166  23.613  28.437   5.817
 4637POPC   C1A61167  23.786  28.208   6.221
 4637POPC   D2A61168  23.644  28.378   6.630
 4637POPC   C3A61169  23.710  28.094   6.956
 4637POPC   C4A61170  24.097  28.087   7.164
 4637POPC   C1B61171  23.504  28.647   6.191
 4637POPC   C2B61172  23.721  28.970   6.421
 4637POPC   C3B61173  23.752  28.865   6.822
 4637POPC   C4B61174  23.672  28.564   7.160
 4638POPC   NC361175  44.953  11.156   5.339
 4638POPC   PO461176  44.508  11.656   5.518
 4638POPC   GL161177  44.714  11.364   5.746
 4638POPC   GL261178  44.470  11.112   5.733
 4638POPC   C1A61179  44.741  11.339   6.188
 4638POPC   D2A61180  44.520  11.355   6.591
 4638POPC   C3A61181  44.750  11.402   6.969
 4638POPC   C4A61182  44.665  11.586   7.403
 4638POPC   C1B61183  44.302  11.043   6.164
 4638POPC   C2B61184  44.336  10.866   6.582
 4638POPC   C3B61185  44.519  10.947   6.993
 4638POPC   C4B61186  44.707  11.083   7.406
 4639POPC   NC361187  23.946  17.459   5.378
 4639POPC   PO461188  23.370  17.778   5.517
 4639POPC   GL161189  23.652  17.511   5.823
 4639POPC   GL261190  23.880  17.192   5.789
 4639POPC   C1A61191  23.812  17.485   6.256
 4639POPC   D2A61192  23.920  17.529   6.687
 4639POPC   C3A61193  23.674  17.431   7.059
 4639POPC   C4A61194  23.785  17.713   7.406
 4639POPC   C1B61195  24.022  17.003   6.157
 4639POPC   C2B61196  24.215  17.142   6.538
 4639POPC   C3B61197  24.041  17.082   6.936
 4639POPC   C4B61198  23.870  17.009   7.343
 4640POPC   NC361199  23.956  16.323   5.633
 4640POPC   PO461200  23.466  15.908   5.418
 4640POPC   GL161201  23.633  15.680   5.801
 4640POPC   GL261202  24.019  15.676   5.742
 4640POPC   C1A61203  23.480  15.705   6.236
 4640POPC   D2A61204  23.530  16.053   6.545
 4640POPC   C3A61205  23.372  16.089   6.968
 4640POPC   C4A61206  23.706  16.121   7.222
 4640POPC   C1B61207  24.004  15.642   6.219
 4640POPC   C2B61208  23.758  15.490   6.611
 4640POPC   C3B61209  23.716  15.647   7.045
 4640POPC   C4B61210  23.960  15.709   7.460
 4641POPC   NC361211  44.634   6.904   5.474
 4641POPC   PO461212  44.627   7.537   5.348
 4641POPC   GL161213  44.730   7.470   5.783
 4641POPC   GL261214  44.415   7.387   5.831
 4641POPC   C1A61215  44.694   7.441   6.256
 4641POPC   D2A61216  44.960   7.536   6.604
 4641POPC   C3A61217  44.812   7.477   7.008
 4641POPC   C4A61218  44.944   7.400   7.407
 4641POPC   C1B61219  44.235   7.203   6.220
 4641POPC   C2B61220  44.266   7.369   6.607
 4641POPC   C3B61221  44.421   7.151   6.936
 4641POPC   C4B61222  44.362   7.262   7.334
 4642POPC   NC361223  32.671   1.234   5.461
 4642POPC   PO461224  32.051   0.936   5.323
 4642POPC   GL161225  32.037   1.123   5.715
 4642POPC   GL261226  32.302   1.368   5.807
 4642POPC   C1A61227  31.954   1.183   6.126
 4642POPC   D2A61228  32.281   1.133   6.418
 4642POPC   C3A61229  32.331   1.200   6.869
 4642POPC   C4A61230  32.142   1.074   7.285
 4642POPC   C1B61231  32.647   1.445   6.135
 4642POPC   C2B61232  32.779   1.645   6.535
 4642POPC   C3B61233  32.591   1.639   6.940
 4642POPC   C4B61234  32.589   1.343   7.295
 4643POPC   NC361235  24.874   9.342   5.270
 4643POPC   PO461236  25.387   8.920   5.289
 4643POPC   GL161237  25.357   8.900   5.750
 4643POPC   GL261238  25.594   9.182   5.837
 4643POPC   C1A61239  25.188   9.052   6.171
 4643POPC   D2A61240  25.332   9.162   6.598
 4643POPC   C3A61241  25.120   9.121   6.989
 4643POPC   C4A61242  25.308   9.196   7.412
 4643POPC   C1B61243  25.692   9.022   6.262
 4643POPC   C2B61244  25.829   9.017   6.733
 4643POPC   C3B61245  25.552   8.863   7.052
 4643POPC   C4B61246  25.202   8.632   7.165
 4644POPC   NC361247  34.598  28.007   5.432
 4644POPC   PO461248  34.720  27.346   5.299
 4644POPC   GL161249  34.737  27.481   5.747
 4644POPC   GL261250  34.942  27.778   5.802
 4644POPC   C1A61251  34.822  27.432   6.204
 4644POPC   D2A61252  34.871  27.538   6.637
 4644POPC   C3A61253  34.448  27.443   6.833
 4644POPC   C4A61254  34.316  27.363   7.281
 4644POPC   C1B61255  34.764  27.937   6.218
 4644POPC   C2B61256  34.581  27.954   6.679
 4644POPC   C3B61257  34.682  27.792   7.106
 4644POPC   C4B61258  34.456  27.845   7.516
 4645POPC   NC361259  28.575  39.156   5.394
 4645POPC   PO461260  29.081  38.809   5.560
 4645POPC   GL161261  28.784  39.065   5.857
 4645POPC   GL261262  28.736  39.429   5.812
 4645POPC   C1A61263  28.736  39.215   6.292
 4645POPC   D2A61264  28.933  39.459   6.647
 4645POPC   C3A61265  28.946  39.323   7.089
 4645POPC   C4A61266  28.826  39.032   7.429
 4645POPC   C1B61267  28.767  39.740   6.177
 4645POPC   C2B61268  28.759  39.937   6.619
 4645POPC   C3B61269  28.944  39.859   7.042
 4645POPC   C4B61270  29.081  39.868   7.488
 4646POPC   NC361271  28.151  41.874   5.433
 4646POPC   PO461272  28.514  41.252   5.356
 4646POPC   GL161273  28.504  41.347   5.828
 4646POPC   GL261274  28.241  41.556   5.851
 4646POPC   C1A61275  28.659  41.678   6.182
 4646POPC   D2A61276  28.511  41.752   6.621
 4646POPC   C3A61277  28.276  41.413   6.828
 4646POPC   C4A61278  28.278  41.462   7.256
 4646POPC   C1B61279  28.111  41.788   6.202
 4646POPC   C2B61280  27.967  41.767   6.614
 4646POPC   C3B61281  28.112  41.901   6.989
 4646POPC   C4B61282  27.931  41.961   7.393
 4647POPC   NC361283  30.819  22.393   5.309
 4647POPC   PO461284  30.695  21.690   5.167
 4647POPC   GL161285  30.567  21.927   5.623
 4647POPC   GL261286  30.786  22.164   5.772
 4647POPC   C1A61287  30.369  22.096   6.054
 4647POPC   D2A61288  30.532  22.095   6.533
 4647POPC   C3A61289  30.403  22.075   6.980
 4647POPC   C4A61290  30.606  21.999   7.385
 4647POPC   C1B61291  30.767  22.386   6.187
 4647POPC   C2B61292  30.884  22.517   6.619
 4647POPC   C3B61293  30.802  22.424   7.056
 4647POPC   C4B61294  30.433  22.471   7.302
 4648POPC   NC361295  18.051  37.865   5.440
 4648POPC   PO461296  18.678  37.652   5.411
 4648POPC   GL161297  18.482  37.837   5.749
 4648POPC   GL261298  18.283  37.544   5.786
 4648POPC   C1A61299  18.563  37.755   6.200
 4648POPC   D2A61300  18.569  37.424   6.523
 4648POPC   C3A61301  18.488  37.607   6.927
 4648POPC   C4A61302  18.306  37.956   7.159
 4648POPC   C1B61303  18.096  37.569   6.217
 4648POPC   C2B61304  18.052  37.450   6.661
 4648POPC   C3B61305  18.033  37.508   7.150
 4648POPC   C4B61306  18.040  37.397   7.598
 4649POPC   NC361307  16.206  17.254   5.411
 4649POPC   PO461308  15.726  17.714   5.560
 4649POPC   GL161309  15.995  17.491   5.829
 4649POPC   GL261310  16.391  17.462   5.843
 4649POPC   C1A61311  15.839  17.404   6.232
 4649POPC   D2A61312  15.880  17.585   6.601
 4649POPC   C3A61313  15.769  17.395   6.954
 4649POPC   C4A61314  15.782  17.505   7.396
 4649POPC   C1B61315  16.266  17.161   6.127
 4649POPC   C2B61316  16.095  17.101   6.550
 4649POPC   C3B61317  16.154  17.043   6.979
 4649POPC   C4B61318  16.250  17.301   7.297
 4650POPC   NC361319  17.288  39.357   5.501
 4650POPC   PO461320  17.871  38.971   5.469
 4650POPC   GL161321  17.784  39.259   5.847
 4650POPC   GL261322  17.449  39.450   5.972
 4650POPC   C1A61323  17.806  39.269   6.307
 4650POPC   D2A61324  17.690  39.039   6.701
 4650POPC   C3A61325  17.942  39.171   7.006
 4650POPC   C4A61326  17.864  39.593   7.159
 4650POPC   C1B61327  17.313  39.266   6.363
 4650POPC   C2B61328  17.211  38.857   6.531
 4650POPC   C3B61329  17.282  38.803   6.943
 4650POPC   C4B61330  17.469  39.124   7.204
 4651POPC   NC361331  14.547  39.419   5.250
 4651POPC   PO461332  14.090  38.919   5.423
 4651POPC   GL161333  14.342  39.146   5.736
 4651POPC   GL261334  14.663  39.011   5.839
 4651POPC   C1A61335  14.448  39.357   6.156
 4651POPC   D2A61336  14.446  39.229   6.593
 4651POPC   C3A61337  14.201  39.284   7.025
 4651POPC   C4A61338  14.166  39.422   7.493
 4651POPC   C1B61339  14.624  38.825   6.251
 4651POPC   C2B61340  14.847  38.874   6.653
 4651POPC   C3B61341  14.746  39.167   6.997
 4651POPC   C4B61342  14.571  39.154   7.357
 4652POPC   NC361343  39.732  18.342   5.439
 4652POPC   PO461344  40.446  18.183   5.445
 4652POPC   GL161345  40.199  18.313   5.847
 4652POPC   GL261346  39.820  18.396   5.927
 4652POPC   C1A61347  40.181  18.554   6.231
 4652POPC   D2A61348  39.810  18.640   6.469
 4652POPC   C3A61349  39.946  18.678   6.910
 4652POPC   C4A61350  39.959  18.492   7.297
 4652POPC   C1B61351  39.896  17.984   6.137
 4652POPC   C2B61352  39.992  17.866   6.581
 4652POPC   C3B61353  40.031  17.976   7.020
 4652POPC   C4B61354  39.794  17.963   7.415
 4653POPC   NC361355  12.526  26.704   5.446
 4653POPC   PO461356  11.913  26.690   5.276
 4653POPC   GL161357  12.035  26.775   5.727
 4653POPC   GL261358  11.736  26.699   5.918
 4653POPC   C1A61359  12.317  26.838   6.130
 4653POPC   D2A61360  12.486  26.982   6.575
 4653POPC   C3A61361  12.234  26.830   6.953
 4653POPC   C4A61362  12.248  26.595   7.347
 4653POPC   C1B61363  11.912  26.488   6.271
 4653POPC   C2B61364  11.904  26.468   6.729
 4653POPC   C3B61365  11.807  26.449   7.158
 4653POPC   C4B61366  11.875  26.378   7.636
 4654POPC   NC361367   1.394  10.044   5.072
 4654POPC   PO461368   1.241   9.535   5.389
 4654POPC   GL161369   1.376   9.690   5.750
 4654POPC   GL261370   1.523  10.008   5.668
 4654POPC   C1A61371   1.247   9.571   6.146
 4654POPC   D2A61372   1.052   9.795   6.487
 4654POPC   C3A61373   1.099   9.634   6.915
 4654POPC   C4A61374   0.856   9.876   7.156
 4654POPC   C1B61375   1.365  10.080   6.114
 4654POPC   C2B61376   1.506   9.990   6.554
 4654POPC   C3B61377   1.322  10.100   6.945
 4654POPC   C4B61378   1.578  10.254   7.264
 4655POPC   NC361379  43.435   9.190   5.364
 4655POPC   PO461380  44.053   8.869   5.374
 4655POPC   GL161381  43.887   9.017   5.772
 4655POPC   GL261382  43.778   8.728   5.918
 4655POPC   C1A61383  44.021   9.134   6.221
 4655POPC   D2A61384  44.021   9.350   6.645
 4655POPC   C3A61385  43.993   9.114   7.039
 4655POPC   C4A61386  43.784   8.987   7.423
 4655POPC   C1B61387  43.884   8.640   6.324
 4655POPC   C2B61388  44.087   8.735   6.707
 4655POPC   C3B61389  43.970   8.618   7.135
 4655POPC   C4B61390  44.072   8.606   7.598
 4656POPC   NC361391  22.723  36.189   5.477
 4656POPC   PO461392  23.390  36.077   5.419
 4656POPC   GL161393  23.074  35.831   5.667
 4656POPC   GL261394  23.306  35.831   5.926
 4656POPC   C1A61395  22.792  35.857   6.052
 4656POPC   D2A61396  22.973  35.963   6.457
 4656POPC   C3A61397  22.744  35.949   6.830
 4656POPC   C4A61398  22.868  36.061   7.242
 4656POPC   C1B61399  23.159  36.263   6.064
 4656POPC   C2B61400  23.269  36.452   6.471
 4656POPC   C3B61401  23.102  36.337   6.843
 4656POPC   C4B61402  23.142  36.532   7.205
 4657POPC   NC361403  31.165   8.225   5.050
 4657POPC   PO461404  30.499   8.134   5.259
 4657POPC   GL161405  30.392   8.197   5.742
 4657POPC   GL261406  30.706   8.149   5.877
 4657POPC   C1A61407  30.413   8.114   6.269
 4657POPC   D2A61408  30.592   7.950   6.681
 4657POPC   C3A61409  30.446   8.205   7.046
 4657POPC   C4A61410  30.427   8.325   7.507
 4657POPC   C1B61411  30.922   7.942   6.234
 4657POPC   C2B61412  31.115   7.873   6.635
 4657POPC   C3B61413  31.020   8.200   6.952
 4657POPC   C4B61414  30.841   8.102   7.350
 4658POPC   NC361415  20.483  31.347   5.399
 4658POPC   PO461416  21.044  31.560   5.223
 4658POPC   GL161417  20.846  31.611   5.663
 4658POPC   GL261418  20.812  31.258   5.800
 4658POPC   C1A61419  20.691  31.654   6.103
 4658POPC   D2A61420  20.464  31.488   6.464
 4658POPC   C3A61421  20.610  31.696   6.852
 4658POPC   C4A61422  20.439  31.625   7.228
 4658POPC   C1B61423  20.879  31.009   6.178
 4658POPC   C2B61424  20.753  31.069   6.590
 4658POPC   C3B61425  20.507  31.190   6.894
 4658POPC   C4B61426  20.624  31.127   7.281
 4659POPC   NC361427   3.265  11.529   5.551
 4659POPC   PO461428   3.777  11.087   5.415
 4659POPC   GL161429   3.600  11.215   5.774
 4659POPC   GL261430   3.492  10.906   5.838
 4659POPC   C1A61431   3.713  11.321   6.186
 4659POPC   D2A61432   3.468  11.323   6.560
 4659POPC   C3A61433   3.526  11.560   6.928
 4659POPC   C4A61434   3.772  11.572   7.296
 4659POPC   C1B61435   3.501  10.865   6.267
 4659POPC   C2B61436   3.591  10.847   6.685
 4659POPC   C3B61437   3.621  11.025   7.095
 4659POPC   C4B61438   3.474  10.812   7.466
 4660POPC   NC361439  36.279   2.467   5.465
 4660POPC   PO461440  36.062   3.047   5.168
 4660POPC   GL161441  36.009   2.934   5.673
 4660POPC   GL261442  35.838   2.606   5.758
 4660POPC   C1A61443  36.056   2.825   6.179
 4660POPC   D2A61444  36.059   2.626   6.644
 4660POPC   C3A61445  36.121   2.833   7.096
 4660POPC   C4A61446  35.900   3.076   7.447
 4660POPC   C1B61447  35.742   2.391   6.178
 4660POPC   C2B61448  35.569   2.414   6.618
 4660POPC   C3B61449  35.722   2.491   7.036
 4660POPC   C4B61450  35.582   2.666   7.425
 4661POPC   NC361451   3.307  19.133   5.278
 4661POPC   PO461452   3.817  18.894   5.609
 4661POPC   GL161453   3.737  19.248   5.897
 4661POPC   GL261454   3.375  19.293   5.966
 4661POPC   C1A61455   3.734  19.160   6.362
 4661POPC   D2A61456   3.605  18.744   6.604
 4661POPC   C3A61457   3.640  18.805   7.040
 4661POPC   C4A61458   3.599  19.213   7.157
 4661POPC   C1B61459   3.241  19.089   6.391
 4661POPC   C2B61460   3.195  19.019   6.855
 4661POPC   C3B61461   3.041  19.296   7.191
 4661POPC   C4B61462   2.907  19.185   7.635
 4662POPC   NC361463  39.311  12.621   5.628
 4662POPC   PO461464  39.439  12.018   5.555
 4662POPC   GL161465  39.175  12.122   5.885
 4662POPC   GL261466  39.189  12.441   6.084
 4662POPC   C1A61467  39.336  12.018   6.314
 4662POPC   D2A61468  39.376  12.262   6.689
 4662POPC   C3A61469  39.452  11.916   6.921
 4662POPC   C4A61470  39.102  11.741   7.081
 4662POPC   C1B61471  38.861  12.192   6.303
 4662POPC   C2B61472  38.673  12.150   6.699
 4662POPC   C3B61473  38.793  12.138   7.116
 4662POPC   C4B61474  39.220  12.266   7.213
 4663POPC   NC361475  18.653  14.722   5.611
 4663POPC   PO461476  18.265  14.193   5.354
 4663POPC   GL161477  18.206  14.346   5.806
 4663POPC   GL261478  18.304  14.658   5.970
 4663POPC   C1A61479  18.113  14.177   6.223
 4663POPC   D2A61480  18.193  13.968   6.632
 4663POPC   C3A61481  18.467  14.160   6.910
 4663POPC   C4A61482  18.372  14.388   7.268
 4663POPC   C1B61483  18.446  14.878   6.323
 4663POPC   C2B61484  18.399  14.662   6.725
 4663POPC   C3B61485  18.197  14.817   7.090
 4663POPC   C4B61486  18.381  14.880   7.504
 4664POPC   NC361487   0.683  12.519   5.350
 4664POPC   PO461488   0.340  13.129   5.459
 4664POPC   GL161489   0.336  12.907   5.823
 4664POPC   GL261490   0.675  12.797   5.816
 4664POPC   C1A61491   0.381  12.772   6.264
 4664POPC   D2A61492   0.557  12.758   6.695
 4664POPC   C3A61493   0.331  12.846   7.085
 4664POPC   C4A61494   0.409  12.712   7.517
 4664POPC   C1B61495   0.864  13.002   6.201
 4664POPC   C2B61496   0.840  13.183   6.634
 4664POPC   C3B61497   0.814  13.030   7.072
 4664POPC   C4B61498   0.867  12.937   7.549
 4665POPC   NC361499   0.674  11.698   5.557
 4665POPC   PO461500   0.274  12.298   5.501
 4665POPC   GL161501   0.314  11.930   5.842
 4665POPC   GL261502   0.049  11.695   5.950
 4665POPC   C1A61503   0.510  11.784   6.263
 4665POPC   D2A61504   0.742  11.858   6.693
 4665POPC   C3A61505   0.477  11.852   7.090
 4665POPC   C4A61506   0.234  12.257   7.262
 4665POPC   C1B61507   0.018  12.019   6.269
 4665POPC   C2B61508   0.168  12.018   6.705
 4665POPC   C3B61509  44.985  11.835   7.083
 4665POPC   C4B61510   0.089  11.847   7.550
 4666POPC   NC361511  30.285  18.123   5.091
 4666POPC   PO461512  30.784  18.406   5.511
 4666POPC   GL161513  30.659  18.523   5.898
 4666POPC   GL261514  30.346  18.699   5.812
 4666POPC   C1A61515  30.690  18.288   6.305
 4666POPC   D2A61516  30.940  17.971   6.579
 4666POPC   C3A61517  30.906  18.090   7.023
 4666POPC   C4A61518  30.810  18.502   7.214
 4666POPC   C1B61519  30.372  18.720   6.260
 4666POPC   C2B61520  30.471  18.571   6.685
 4666POPC   C3B61521  30.356  18.664   7.091
 4666POPC   C4B61522  30.201  18.463   7.516
 4667POPC   NC361523  18.712  27.495   5.285
 4667POPC   PO461524  19.276  27.860   5.458
 4667POPC   GL161525  19.143  27.603   5.820
 4667POPC   GL261526  19.446  27.548   5.994
 4667POPC   C1A61527  19.023  27.314   6.181
 4667POPC   D2A61528  18.885  27.418   6.610
 4667POPC   C3A61529  18.873  27.208   7.015
 4667POPC   C4A61530  18.793  27.503   7.384
 4667POPC   C1B61531  19.448  27.587   6.438
 4667POPC   C2B61532  19.318  27.570   6.879
 4667POPC   C3B61533  19.273  27.365   7.298
 4667POPC   C4B61534  19.478  27.281   7.666
 4668POPC   NC361535  39.049  19.330   5.475
 4668POPC   PO461536  39.456  18.954   5.212
 4668POPC   GL161537  39.547  18.807   5.637
 4668POPC   GL261538  39.432  19.114   5.760
 4668POPC   C1A61539  39.410  18.753   6.100
 4668POPC   D2A61540  39.064  18.981   6.377
 4668POPC   C3A61541  39.155  18.979   6.827
 4668POPC   C4A61542  38.990  19.033   7.239
 4668POPC   C1B61543  39.274  19.366   6.122
 4668POPC   C2B61544  39.332  19.413   6.565
 4668POPC   C3B61545  39.167  19.475   6.978
 4668POPC   C4B61546  39.298  19.408   7.398
 4669POPC   NC361547  14.735  41.897   5.495
 4669POPC   PO461548  14.394  41.370   5.242
 4669POPC   GL161549  14.382  41.327   5.720
 4669POPC   GL261550  14.126  41.580   5.765
 4669POPC   C1A61551  14.494  41.565   6.129
 4669POPC   D2A61552  14.268  41.798   6.481
 4669POPC   C3A61553  14.490  41.819   6.891
 4669POPC   C4A61554  14.537  41.647   7.302
 4669POPC   C1B61555  13.989  41.409   6.152
 4669POPC   C2B61556  13.831  41.523   6.552
 4669POPC   C3B61557  14.066  41.520   6.906
 4669POPC   C4B61558  14.094  41.383   7.304
 4670POPC   NC361559  30.063   7.942   5.263
 4670POPC   PO461560  29.585   8.403   5.378
 4670POPC   GL161561  29.848   8.219   5.694
 4670POPC   GL261562  29.715   7.923   5.765
 4670POPC   C1A61563  29.937   8.292   6.146
 4670POPC   D2A61564  29.860   8.101   6.543
 4670POPC   C3A61565  29.850   8.307   6.934
 4670POPC   C4A61566  30.106   8.578   7.181
 4670POPC   C1B61567  30.050   7.807   6.055
 4670POPC   C2B61568  30.177   7.693   6.500
 4670POPC   C3B61569  30.115   7.837   6.960
 4670POPC   C4B61570  30.348   7.840   7.390
 4671POPC   NC361571   1.011  34.600   5.276
 4671POPC   PO461572   1.610  34.586   5.497
 4671POPC   GL161573   1.219  34.505   5.776
 4671POPC   GL261574   0.995  34.779   5.775
 4671POPC   C1A61575   1.028  34.423   6.207
 4671POPC   D2A61576   1.183  34.247   6.571
 4671POPC   C3A61577   1.081  34.375   7.001
 4671POPC   C4A61578   1.394  34.378   7.318
 4671POPC   C1B61579   1.188  34.890   6.188
 4671POPC   C2B61580   1.181  34.771   6.636
 4671POPC   C3B61581   1.309  34.828   7.073
 4671POPC   C4B61582   1.082  34.788   7.485
 4672POPC   NC361583  41.725  15.587   5.094
 4672POPC   PO461584  41.255  15.505   5.564
 4672POPC   GL161585  41.336  15.208   5.868
 4672POPC   GL261586  41.574  14.952   5.738
 4672POPC   C1A61587  41.312  15.185   6.318
 4672POPC   D2A61588  41.323  15.458   6.689
 4672POPC   C3A61589  41.404  15.233   7.083
 4672POPC   C4A61590  41.349  14.835   7.309
 4672POPC   C1B61591  41.786  15.055   6.142
 4672POPC   C2B61592  41.742  15.105   6.607
 4672POPC   C3B61593  41.887  15.088   7.024
 4672POPC   C4B61594  41.970  15.437   7.264
 4673POPC   NC361595  11.087   7.937   5.347
 4673POPC   PO461596  11.565   8.387   5.260
 4673POPC   GL161597  11.318   8.317   5.668
 4673POPC   GL261598  11.424   8.035   5.855
 4673POPC   C1A61599  11.203   8.438   6.126
 4673POPC   D2A61600  11.336   8.311   6.565
 4673POPC   C3A61601  11.297   8.573   6.930
 4673POPC   C4A61602  11.417   8.509   7.389
 4673POPC   C1B61603  11.216   7.920   6.261
 4673POPC   C2B61604  11.046   7.900   6.712
 4673POPC   C3B61605  11.192   8.109   7.110
 4673POPC   C4B61606  11.251   8.074   7.595
 4674POPC   NC361607   7.900   2.084   5.391
 4674POPC   PO461608   8.516   1.707   5.445
 4674POPC   GL161609   8.341   1.975   5.809
 4674POPC   GL261610   8.585   2.211   5.911
 4674POPC   C1A61611   8.067   1.866   6.211
 4674POPC   D2A61612   8.036   1.591   6.629
 4674POPC   C3A61613   8.239   1.738   7.033
 4674POPC   C4A61614   8.191   2.137   7.241
 4674POPC   C1B61615   8.431   2.227   6.284
 4674POPC   C2B61616   8.452   1.946   6.606
 4674POPC   C3B61617   8.671   2.014   6.966
 4674POPC   C4B61618   8.668   1.979   7.377
 4675POPC   NC361619   1.114   2.060   5.032
 4675POPC   PO461620   0.506   1.913   5.406
 4675POPC   GL161621   0.463   2.199   5.787
 4675POPC   GL261622   0.590   2.557   5.712
 4675POPC   C1A61623   0.279   2.143   6.249
 4675POPC   D2A61624   0.120   2.245   6.687
 4675POPC   C3A61625   0.309   2.018   7.050
 4675POPC   C4A61626   0.714   1.789   7.118
 4675POPC   C1B61627   0.455   2.595   6.121
 4675POPC   C2B61628   0.563   2.508   6.546
 4675POPC   C3B61629   0.413   2.531   6.965
 4675POPC   C4B61630   0.537   2.372   7.349
 4676POPC   NC361631   6.027   5.651   5.401
 4676POPC   PO461632   5.595   6.035   5.318
 4676POPC   GL161633   5.638   5.791   5.724
 4676POPC   GL261634   5.492   5.450   5.779
 4676POPC   C1A61635   5.833   5.966   6.116
 4676POPC   D2A61636   5.775   6.233   6.468
 4676POPC   C3A61637   5.937   6.105   6.856
 4676POPC   C4A61638   5.725   5.944   7.211
 4676POPC   C1B61639   5.516   5.575   6.214
 4676POPC   C2B61640   5.449   5.783   6.623
 4676POPC   C3B61641   5.323   5.643   7.033
 4676POPC   C4B61642   5.505   5.520   7.439
 4677POPC   NC361643   2.535  19.141   5.591
 4677POPC   PO461644   2.552  19.858   5.484
 4677POPC   GL161645   2.753  19.843   5.915
 4677POPC   GL261646   3.086  19.723   5.895
 4677POPC   C1A61647   2.928  19.906   6.355
 4677POPC   D2A61648   3.152  19.920   6.764
 4677POPC   C3A61649   2.932  19.999   7.183
 4677POPC   C4A61650   2.765  20.355   7.426
 4677POPC   C1B61651   2.914  19.427   6.177
 4677POPC   C2B61652   2.938  19.453   6.631
 4677POPC   C3B61653   2.688  19.604   6.966
 4677POPC   C4B61654   2.626  19.559   7.413
 4678POPC   NC361655  36.568  30.356   5.508
 4678POPC   PO461656  37.053  30.799   5.383
 4678POPC   GL161657  36.916  30.634   5.771
 4678POPC   GL261658  36.584  30.761   5.856
 4678POPC   C1A61659  36.978  30.657   6.206
 4678POPC   D2A61660  37.138  30.473   6.561
 4678POPC   C3A61661  36.977  30.621   6.909
 4678POPC   C4A61662  37.012  30.553   7.326
 4678POPC   C1B61663  36.566  30.380   6.173
 4678POPC   C2B61664  36.653  30.293   6.628
 4678POPC   C3B61665  36.493  30.506   7.008
 4678POPC   C4B61666  36.592  30.838   7.299
 4679POPC   NC361667  33.287  44.083   5.491
 4679POPC   PO461668  32.768  43.701   5.313
 4679POPC   GL161669  32.794  43.996   5.700
 4679POPC   GL261670  33.092  43.979   5.938
 4679POPC   C1A61671  32.652  44.115   6.148
 4679POPC   D2A61672  32.860  43.997   6.558
 4679POPC   C3A61673  32.750  44.143   6.984
 4679POPC   C4A61674  32.907  43.977   7.360
 4679POPC   C1B61675  33.272  43.784   6.328
 4679POPC   C2B61676  33.386  43.697   6.787
 4679POPC   C3B61677  33.389  43.806   7.245
 4679POPC   C4B61678  33.317  44.081   7.626
 4680POPC   NC361679  42.003   8.943   5.360
 4680POPC   PO461680  42.536   8.534   5.457
 4680POPC   GL161681  42.469   9.013   5.670
 4680POPC   GL261682  42.132   9.077   5.850
 4680POPC   C1A61683  42.553   9.186   6.124
 4680POPC   D2A61684  42.625   8.964   6.543
 4680POPC   C3A61685  42.557   9.128   6.948
 4680POPC   C4A61686  42.553   9.070   7.411
 4680POPC   C1B61687  42.056   9.277   6.282
 4680POPC   C2B61688  42.017   9.332   6.752
 4680POPC   C3B61689  42.141   9.334   7.214
 4680POPC   C4B61690  42.075   9.080   7.599
 4681POPC   NC361691  28.884  41.482   5.552
 4681POPC   PO461692  29.375  41.415   5.138
 4681POPC   GL161693  29.348  41.521   5.688
 4681POPC   GL261694  29.140  41.792   5.821
 4681POPC   C1A61695  29.154  41.465   6.184
 4681POPC   D2A61696  29.238  41.355   6.636
 4681POPC   C3A61697  29.016  41.481   7.008
 4681POPC   C4A61698  29.061  41.281   7.452
 4681POPC   C1B61699  29.190  41.971   6.195
 4681POPC   C2B61700  29.097  41.839   6.580
 4681POPC   C3B61701  29.404  41.786   6.911
 4681POPC   C4B61702  29.277  41.789   7.328
 4682POPC   NC361703  35.145  10.987   5.133
 4682POPC   PO461704  35.480  11.499   5.313
 4682POPC   GL161705  35.489  11.395   5.752
 4682POPC   GL261706  35.800  11.578   5.784
 4682POPC   C1A61707  35.314  11.494   6.190
 4682POPC   D2A61708  35.186  11.298   6.597
 4682POPC   C3A61709  35.234  11.504   6.976
 4682POPC   C4A61710  35.381  11.349   7.362
 4682POPC   C1B61711  35.786  11.297   6.145
 4682POPC   C2B61712  35.711  11.419   6.547
 4682POPC   C3B61713  35.674  11.299   6.926
 4682POPC   C4B61714  35.811  11.091   7.285
 4683POPC   NC361715  21.675   6.671   5.446
 4683POPC   PO461716  21.138   6.245   5.529
 4683POPC   GL161717  21.307   6.402   5.903
 4683POPC   GL261718  21.682   6.472   5.911
 4683POPC   C1A61719  21.320   6.767   6.149
 4683POPC   D2A61720  21.457   6.896   6.540
 4683POPC   C3A61721  21.217   6.733   6.849
 4683POPC   C4A61722  21.313   6.485   7.183
 4683POPC   C1B61723  21.817   6.290   6.276
 4683POPC   C2B61724  21.613   6.374   6.676
 4683POPC   C3B61725  21.756   6.650   7.024
 4683POPC   C4B61726  21.656   6.653   7.501
 4684POPC   NC361727  28.729   0.322   5.178
 4684POPC   PO461728  28.094   0.272   5.433
 4684POPC   GL161729  28.451   0.402   5.695
 4684POPC   GL261730  28.646   0.117   5.645
 4684POPC   C1A61731  28.489   0.665   6.109
 4684POPC   D2A61732  28.589   0.795   6.563
 4684POPC   C3A61733  28.452   0.592   6.953
 4684POPC   C4A61734  28.312   0.513   7.404
 4684POPC   C1B61735  28.708   0.173   6.096
 4684POPC   C2B61736  28.782   0.188   6.567
 4684POPC   C3B61737  28.614   0.091   7.017
 4684POPC   C4B61738  28.539   0.015   7.469
 4685POPC   NC361739  28.273  43.166   5.370
 4685POPC   PO461740  28.831  42.788   5.419
 4685POPC   GL161741  28.617  43.020   5.724
 4685POPC   GL261742  28.258  42.883   5.803
 4685POPC   C1A61743  28.516  43.272   6.080
 4685POPC   D2A61744  28.623  43.196   6.481
 4685POPC   C3A61745  28.564  43.198   6.885
 4685POPC   C4A61746  28.649  43.067   7.247
 4685POPC   C1B61747  28.201  42.910   6.259
 4685POPC   C2B61748  28.119  43.114   6.653
 4685POPC   C3B61749  28.235  42.834   6.985
 4685POPC   C4B61750  28.237  42.882   7.415
 4686POPC   NC361751  41.069  43.663   5.445
 4686POPC   PO461752  40.741  43.065   5.388
 4686POPC   GL161753  40.968  43.121   5.766
 4686POPC   GL261754  40.646  43.223   5.930
 4686POPC   C1A61755  41.043  43.162   6.259
 4686POPC   D2A61756  40.828  43.119   6.680
 4686POPC   C3A61757  41.065  43.093   7.086
 4686POPC   C4A61758  41.018  43.211   7.526
 4686POPC   C1B61759  40.469  42.990   6.301
 4686POPC   C2B61760  40.387  42.865   6.748
 4686POPC   C3B61761  40.355  43.030   7.179
 4686POPC   C4B61762  40.513  43.069   7.628
 4687POPC   NC361763  35.830  38.091   5.553
 4687POPC   PO461764  35.859  37.473   5.367
 4687POPC   GL161765  36.196  37.611   5.685
 4687POPC   GL261766  36.330  37.949   5.755
 4687POPC   C1A61767  36.344  37.510   6.087
 4687POPC   D2A61768  36.245  37.372   6.496
 4687POPC   C3A61769  36.066  37.552   6.870
 4687POPC   C4A61770  36.160  37.456   7.293
 4687POPC   C1B61771  36.193  37.970   6.212
 4687POPC   C2B61772  36.411  37.858   6.605
 4687POPC   C3B61773  36.498  37.785   7.026
 4687POPC   C4B61774  36.193  37.996   7.255
 4688POPC   NC361775  18.991   3.852   5.114
 4688POPC   PO461776  18.774   3.510   5.648
 4688POPC   GL161777  18.926   3.679   5.955
 4688POPC   GL261778  19.166   3.867   5.761
 4688POPC   C1A61779  18.995   3.536   6.357
 4688POPC   D2A61780  19.078   3.207   6.644
 4688POPC   C3A61781  19.201   3.350   7.054
 4688POPC   C4A61782  18.991   3.218   7.417
 4688POPC   C1B61783  19.183   4.043   6.190
 4688POPC   C2B61784  19.262   3.907   6.609
 4688POPC   C3B61785  19.115   3.859   7.009
 4688POPC   C4B61786  18.930   3.715   7.355
 4689POPC   NC361787  26.855  34.250   5.335
 4689POPC   PO461788  26.521  34.780   5.597
 4689POPC   GL161789  26.902  34.692   5.809
 4689POPC   GL261790  27.141  34.398   5.737
 4689POPC   C1A61791  26.874  34.842   6.216
 4689POPC   D2A61792  26.744  34.706   6.585
 4689POPC   C3A61793  26.877  34.673   6.986
 4689POPC   C4A61794  26.652  34.448   7.293
 4689POPC   C1B61795  27.228  34.508   6.163
 4689POPC   C2B61796  27.133  34.349   6.566
 4689POPC   C3B61797  26.888  34.178   6.882
 4689POPC   C4B61798  27.130  34.287   7.221
 4690POPC   NC361799  35.668  28.236   5.236
 4690POPC   PO461800  35.037  28.195   5.493
 4690POPC   GL161801  35.391  28.262   5.831
 4690POPC   GL261802  35.758  28.148   5.842
 4690POPC   C1A61803  35.403  28.188   6.284
 4690POPC   D2A61804  35.103  28.009   6.596
 4690POPC   C3A61805  35.206  28.040   7.028
 4690POPC   C4A61806  35.241  28.391   7.309
 4690POPC   C1B61807  35.874  28.379   6.222
 4690POPC   C2B61808  35.725  28.353   6.666
 4690POPC   C3B61809  35.803  28.551   7.053
 4690POPC   C4B61810  35.732  28.350   7.419
 4691POPC   NC361811  23.875   9.320   5.300
 4691POPC   PO461812  23.965   9.941   5.185
 4691POPC   GL161813  23.864   9.688   5.638
 4691POPC   GL261814  23.533   9.724   5.822
 4691POPC   C1A61815  23.956   9.650   6.115
 4691POPC   D2A61816  23.881   9.757   6.565
 4691POPC   C3A61817  24.054   9.648   7.034
 4691POPC   C4A61818  23.966   9.516   7.491
 4691POPC   C1B61819  23.382   9.550   6.232
 4691POPC   C2B61820  23.473   9.492   6.685
 4691POPC   C3B61821  23.477   9.705   7.073
 4691POPC   C4B61822  23.474   9.596   7.487
 4692POPC   NC361823   9.643  20.317   5.545
 4692POPC   PO461824   9.597  19.623   5.374
 4692POPC   GL161825   9.821  19.851   5.683
 4692POPC   GL261826   9.523  19.963   5.885
 4692POPC   C1A61827   9.961  19.947   6.120
 4692POPC   D2A61828   9.963  19.670   6.459
 4692POPC   C3A61829   9.875  19.749   6.914
 4692POPC   C4A61830   9.580  19.905   7.235
 4692POPC   C1B61831   9.494  20.022   6.352
 4692POPC   C2B61832   9.578  20.144   6.785
 4692POPC   C3B61833   9.537  20.427   7.182
 4692POPC   C4B61834   9.527  20.295   7.651
 4693POPC   NC361835  29.359   7.967   5.368
 4693POPC   PO461836  28.913   8.389   5.072
 4693POPC   GL161837  28.989   8.290   5.556
 4693POPC   GL261838  29.327   8.273   5.782
 4693POPC   C1A61839  28.911   8.119   5.994
 4693POPC   D2A61840  28.965   7.822   6.322
 4693POPC   C3A61841  28.894   7.876   6.787
 4693POPC   C4A61842  29.090   8.075   7.156
 4693POPC   C1B61843  29.394   8.187   6.222
 4693POPC   C2B61844  29.205   8.270   6.628
 4693POPC   C3B61845  29.366   8.460   7.010
 4693POPC   C4B61846  29.476   8.336   7.449
 4694POPC   NC361847   4.021  31.651   5.464
 4694POPC   PO461848   4.589  31.375   5.229
 4694POPC   GL161849   4.437  31.425   5.651
 4694POPC   GL261850   4.458  31.765   5.746
 4694POPC   C1A61851   4.575  31.389   6.085
 4694POPC   D2A61852   4.422  31.493   6.512
 4694POPC   C3A61853   4.494  31.317   6.910
 4694POPC   C4A61854   4.373  31.403   7.300
 4694POPC   C1B61855   4.524  31.882   6.180
 4694POPC   C2B61856   4.459  31.986   6.610
 4694POPC   C3B61857   4.507  31.824   7.033
 4694POPC   C4B61858   4.646  31.779   7.463
 4695POPC   NC361859  27.487   6.113   5.592
 4695POPC   PO461860  27.702   5.531   5.405
 4695POPC   GL161861  27.710   5.705   5.810
 4695POPC   GL261862  27.345   5.595   5.790
 4695POPC   C1A61863  27.761   5.944   6.228
 4695POPC   D2A61864  27.872   5.906   6.681
 4695POPC   C3A61865  27.602   5.910   7.044
 4695POPC   C4A61866  27.705   5.886   7.502
 4695POPC   C1B61867  27.332   5.686   6.225
 4695POPC   C2B61868  27.444   5.588   6.650
 4695POPC   C3B61869  27.181   5.644   7.000
 4695POPC   C4B61870  27.285   5.609   7.454
 4696POPC   NC361871  28.754  20.785   5.568
 4696POPC   PO461872  29.382  20.515   5.649
 4696POPC   GL161873  28.999  20.464   5.887
 4696POPC   GL261874  28.897  20.148   5.882
 4696POPC   C1A61875  28.918  20.593   6.329
 4696POPC   D2A61876  29.163  20.880   6.626
 4696POPC   C3A61877  29.244  20.723   7.034
 4696POPC   C4A61878  29.494  20.356   7.131
 4696POPC   C1B61879  29.213  20.151   6.246
 4696POPC   C2B61880  29.181  20.292   6.710
 4696POPC   C3B61881  28.982  20.278   7.153
 4696POPC   C4B61882  28.824  20.297   7.618
 4697POPC   NC361883   8.100  21.842   5.071
 4697POPC   PO461884   8.367  22.457   5.401
 4697POPC   GL161885   8.134  22.312   5.839
 4697POPC   GL261886   7.954  21.950   5.917
 4697POPC   C1A61887   8.294  22.132   6.242
 4697POPC   D2A61888   8.544  22.257   6.591
 4697POPC   C3A61889   8.373  22.274   6.971
 4697POPC   C4A61890   8.508  22.370   7.348
 4697POPC   C1B61891   7.737  22.235   6.148
 4697POPC   C2B61892   7.901  22.328   6.538
 4697POPC   C3B61893   7.805  22.132   6.911
 4697POPC   C4B61894   7.977  22.217   7.295
 4698POPC   NC361895  25.070  11.194   5.169
 4698POPC   PO461896  25.299  10.557   5.292
 4698POPC   GL161897  25.190  10.462   5.755
 4698POPC   GL261898  25.452  10.564   5.974
 4698POPC   C1A61899  25.090  10.365   6.246
 4698POPC   D2A61900  25.281  10.279   6.682
 4698POPC   C3A61901  25.106  10.516   7.036
 4698POPC   C4A61902  24.713  10.362   7.190
 4698POPC   C1B61903  25.621  10.428   6.322
 4698POPC   C2B61904  25.739  10.531   6.737
 4698POPC   C3B61905  25.617  10.591   7.137
 4698POPC   C4B61906  25.692  10.455   7.576
 4699POPC   NC361907   4.806  30.319   5.371
 4699POPC   PO461908   4.199  30.555   5.293
 4699POPC   GL161909   4.444  30.637   5.643
 4699POPC   GL261910   4.313  30.931   5.722
 4699POPC   C1A61911   4.316  30.541   6.081
 4699POPC   D2A61912   4.118  30.630   6.491
 4699POPC   C3A61913   4.386  30.721   6.885
 4699POPC   C4A61914   4.480  30.474   7.288
 4699POPC   C1B61915   4.203  31.054   6.187
 4699POPC   C2B61916   4.120  31.104   6.652
 4699POPC   C3B61917   4.057  31.065   7.116
 4699POPC   C4B61918   4.155  31.074   7.614
 4700POPC   NC361919   8.930  43.304   5.455
 4700POPC   PO461920   8.812  42.626   5.260
 4700POPC   GL161921   9.107  42.780   5.647
 4700POPC   GL261922   9.325  43.093   5.706
 4700POPC   C1A61923   8.953  43.011   6.053
 4700POPC   D2A61924   8.747  42.993   6.467
 4700POPC   C3A61925   8.881  42.890   6.897
 4700POPC   C4A61926   8.683  43.080   7.253
 4700POPC   C1B61927   9.343  43.328   6.164
 4700POPC   C2B61928   9.167  43.327   6.601
 4700POPC   C3B61929   9.064  43.382   7.052
 4700POPC   C4B61930   9.221  43.264   7.457
 4701POPC   NC361931   6.529  30.708   5.280
 4701POPC   PO461932   7.228  30.820   5.309
 4701POPC   GL161933   6.860  30.689   5.637
 4701POPC   GL261934   6.844  30.510   5.943
 4701POPC   C1A61935   6.578  30.944   5.940
 4701POPC   D2A61936   6.421  31.032   6.382
 4701POPC   C3A61937   6.534  30.862   6.802
 4701POPC   C4A61938   6.547  30.958   7.250
 4701POPC   C1B61939   7.069  30.586   6.324
 4701POPC   C2B61940   6.982  30.598   6.738
 4701POPC   C3B61941   6.967  30.626   7.160
 4701POPC   C4B61942   7.042  30.336   7.475
 4702POPC   NC361943  40.414  21.283   5.187
 4702POPC   PO461944  40.820  21.621   5.631
 4702POPC   GL161945  40.614  21.479   5.902
 4702POPC   GL261946  40.443  21.214   5.708
 4702POPC   C1A61947  40.808  21.484   6.308
 4702POPC   D2A61948  40.850  21.632   6.755
 4702POPC   C3A61949  41.237  21.598   7.050
 4702POPC   C4A61950  41.356  21.350   7.434
 4702POPC   C1B61951  40.438  21.108   6.173
 4702POPC   C2B61952  40.375  21.370   6.546
 4702POPC   C3B61953  40.498  21.319   6.988
 4702POPC   C4B61954  40.490  21.272   7.438
 4703POPC   NC361955  38.573  31.589   5.368
 4703POPC   PO461956  38.035  31.275   5.549
 4703POPC   GL161957  38.438  31.334   5.831
 4703POPC   GL261958  38.616  31.684   5.856
 4703POPC   C1A61959  38.488  31.467   6.289
 4703POPC   D2A61960  38.310  31.698   6.636
 4703POPC   C3A61961  38.484  31.435   6.934
 4703POPC   C4A61962  38.296  31.203   7.251
 4703POPC   C1B61963  38.828  31.845   6.212
 4703POPC   C2B61964  38.843  31.778   6.636
 4703POPC   C3B61965  38.958  31.619   7.016
 4703POPC   C4B61966  38.864  31.708   7.411
 4704POPC   NC361967  23.616  31.618   5.164
 4704POPC   PO461968  23.975  31.145   5.373
 4704POPC   GL161969  23.813  31.419   5.701
 4704POPC   GL261970  23.454  31.321   5.779
 4704POPC   C1A61971  23.908  31.672   6.082
 4704POPC   D2A61972  23.818  31.664   6.541
 4704POPC   C3A61973  24.085  31.388   6.793
 4704POPC   C4A61974  24.014  31.271   7.213
 4704POPC   C1B61975  23.667  31.225   6.176
 4704POPC   C2B61976  23.727  31.080   6.603
 4704POPC   C3B61977  23.555  31.279   6.975
 4704POPC   C4B61978  23.600  31.579   7.314
 4705POPC   NC361979   0.724   5.619   5.172
 4705POPC   PO461980   0.298   6.074   5.202
 4705POPC   GL161981   0.422   5.788   5.556
 4705POPC   GL261982   0.729   5.990   5.607
 4705POPC   C1A61983   0.428   5.788   6.067
 4705POPC   D2A61984   0.198   5.767   6.528
 4705POPC   C3A61985   0.285   5.968   6.934
 4705POPC   C4A61986   0.485   5.796   7.286
 4705POPC   C1B61987   0.758   6.195   6.036
 4705POPC   C2B61988   0.590   6.107   6.472
 4705POPC   C3B61989   0.693   6.269   6.901
 4705POPC   C4B61990   0.492   6.311   7.309
 4706POPC   NC361991  42.142  24.445   5.340
 4706POPC   PO461992  42.766  24.268   5.396
 4706POPC   GL161993  42.458  24.478   5.727
 4706POPC   GL261994  42.287  24.219   5.773
 4706POPC   C1A61995  42.196  24.656   6.079
 4706POPC   D2A61996  42.141  24.492   6.489
 4706POPC   C3A61997  42.122  24.732   6.845
 4706POPC   C4A61998  42.257  24.621   7.231
 4706POPC   C1B61999  42.450  24.185   6.160
 4706POPC   C2B62000  42.687  24.272   6.487
 4706POPC   C3B62001  42.509  24.402   6.847
 4706POPC   C4B62002  42.538  24.197   7.225
 4707POPC   NC362003  44.523   2.658   5.430
 4707POPC   PO462004  44.913   3.118   5.251
 4707POPC   GL162005  44.803   3.041   5.699
 4707POPC   GL262006  44.436   3.069   5.746
 4707POPC   C1A62007  44.695   2.768   6.087
 4707POPC   D2A62008  44.664   2.922   6.516
 4707POPC   C3A62009  44.725   2.628   6.853
 4707POPC   C4A62010  44.917   2.540   7.268
 4707POPC   C1B62011  44.247   3.001   6.155
 4707POPC   C2B62012  44.160   2.857   6.543
 4707POPC   C3B62013  44.337   2.999   6.911
 4707POPC   C4B62014  44.615   2.960   7.267
 4708POPC   NC362015  44.533  24.439   5.354
 4708POPC   PO462016   0.083  24.262   5.383
 4708POPC   GL162017  44.814  24.381   5.787
 4708POPC   GL262018  44.530  24.651   5.848
 4708POPC   C1A62019  44.750  24.381   6.259
 4708POPC   D2A62020  44.913  24.564   6.675
 4708POPC   C3A62021  44.694  24.394   7.061
 4708POPC   C4A62022  44.324  24.136   6.966
 4708POPC   C1B62023  44.531  24.834   6.298
 4708POPC   C2B62024  44.402  24.580   6.680
 4708POPC   C3B62025  44.235  24.629   7.112
 4708POPC   C4B62026  44.416  24.781   7.511
 4709POPC   NC362027  31.213   0.793   5.304
 4709POPC   PO462028  30.664   0.363   5.331
 4709POPC   GL162029  30.790   0.642   5.685
 4709POPC   GL262030  31.109   0.710   5.812
 4709POPC   C1A62031  30.653   0.661   6.128
 4709POPC   D2A62032  30.420   0.343   6.382
 4709POPC   C3A62033  30.496   0.413   6.835
 4709POPC   C4A62034  30.320   0.410   7.244
 4709POPC   C1B62035  31.148   0.430   6.185
 4709POPC   C2B62036  30.904   0.246   6.513
 4709POPC   C3B62037  30.912   0.114   6.940
 4709POPC   C4B62038  30.787   0.242   7.348
 4710POPC   NC362039  26.573  30.528   5.372
 4710POPC   PO462040  26.564  31.174   5.484
 4710POPC   GL162041  26.728  30.822   5.778
 4710POPC   GL262042  26.611  30.471   5.856
 4710POPC   C1A62043  26.815  30.734   6.226
 4710POPC   D2A62044  26.879  30.919   6.620
 4710POPC   C3A62045  26.913  30.745   7.033
 4710POPC   C4A62046  26.625  30.908   7.335
 4710POPC   C1B62047  26.531  30.312   6.271
 4710POPC   C2B62048  26.780  30.408   6.646
 4710POPC   C3B62049  26.741  30.284   7.093
 4710POPC   C4B62050  26.682  30.423   7.500
 4711POPC   NC362051   4.391   0.808   5.409
 4711POPC   PO462052   4.363   1.440   5.322
 4711POPC   GL162053   4.219   1.480   5.732
 4711POPC   GL262054   4.327   1.175   5.869
 4711POPC   C1A62055   4.037   1.486   6.162
 4711POPC   D2A62056   4.239   1.420   6.570
 4711POPC   C3A62057   4.140   1.616   6.975
 4711POPC   C4A62058   4.251   1.450   7.409
 4711POPC   C1B62059   4.563   1.482   6.169
 4711POPC   C2B62060   4.673   1.675   6.621
 4711POPC   C3B62061   4.635   1.481   7.065
 4711POPC   C4B62062   4.671   1.172   7.441
 4712POPC   NC362063  17.974  22.846   4.961
 4712POPC   PO462064  18.395  22.450   5.192
 4712POPC   GL162065  18.330  22.809   5.593
 4712POPC   GL262066  18.078  23.054   5.769
 4712POPC   C1A62067  18.478  22.992   6.063
 4712POPC   D2A62068  18.705  22.993   6.513
 4712POPC   C3A62069  18.524  23.179   6.880
 4712POPC   C4A62070  18.447  23.032   7.301
 4712POPC   C1B62071  18.029  23.198   6.208
 4712POPC   C2B62072  18.047  23.106   6.645
 4712POPC   C3B62073  18.053  23.235   7.069
 4712POPC   C4B62074  18.032  23.352   7.496
 4713POPC   NC362075  30.251  21.701   5.296
 4713POPC   PO462076  29.880  22.257   5.129
 4713POPC   GL162077  29.957  22.172   5.664
 4713POPC   GL262078  29.669  21.974   5.830
 4713POPC   C1A62079  29.793  22.378   6.108
 4713POPC   D2A62080  29.466  22.450   6.413
 4713POPC   C3A62081  29.600  22.336   6.828
 4713POPC   C4A62082  29.949  22.408   7.093
 4713POPC   C1B62083  29.825  21.899   6.243
 4713POPC   C2B62084  30.012  22.075   6.621
 4713POPC   C3B62085  29.895  21.915   7.042
 4713POPC   C4B62086  29.468  21.981   7.180
 4714POPC   NC362087  15.406  20.454   5.394
 4714POPC   PO462088  14.891  21.020   5.461
 4714POPC   GL162089  15.036  20.657   5.724
 4714POPC   GL262090  15.411  20.641   5.869
 4714POPC   C1A62091  15.006  20.497   6.157
 4714POPC   D2A62092  15.229  20.684   6.489
 4714POPC   C3A62093  15.327  20.657   6.937
 4714POPC   C4A62094  15.089  20.666   7.315
 4714POPC   C1B62095  15.476  20.300   6.178
 4714POPC   C2B62096  15.359  20.125   6.595
 4714POPC   C3B62097  15.504  20.194   7.012
 4714POPC   C4B62098  15.575  20.517   7.378
 4715POPC   NC362099  26.047  16.244   5.136
 4715POPC   PO462100  25.757  15.559   5.224
 4715POPC   GL162101  25.934  15.776   5.686
 4715POPC   GL262102  26.124  16.038   5.792
 4715POPC   C1A62103  25.778  16.006   6.125
 4715POPC   D2A62104  25.979  16.178   6.526
 4715POPC   C3A62105  25.868  16.036   6.951
 4715POPC   C4A62106  25.934  16.011   7.413
 4715POPC   C1B62107  26.342  16.187   6.153
 4715POPC   C2B62108  26.550  16.270   6.535
 4715POPC   C3B62109  26.363  16.169   6.921
 4715POPC   C4B62110  26.409  16.312   7.299
 4716POPC   NC362111   8.655   0.437   5.444
 4716POPC   PO462112   8.023   0.730   5.338
 4716POPC   GL162113   8.159   0.604   5.799
 4716POPC   GL262114   8.255   0.942   5.947
 4716POPC   C1A62115   8.301   0.252   6.147
 4716POPC   D2A62116   8.526   0.270   6.582
 4716POPC   C3A62117   8.353   0.159   7.024
 4716POPC   C4A62118   8.068   0.028   7.372
 4716POPC   C1B62119   8.120   0.688   6.313
 4716POPC   C2B62120   8.065   0.475   6.683
 4716POPC   C3B62121   8.023   0.550   7.100
 4716POPC   C4B62122   7.863   0.872   7.334
 4717POPC   NC362123  27.458   1.190   5.203
 4717POPC   PO462124  26.881   1.111   5.299
 4717POPC   GL162125  26.859   1.229   5.755
 4717POPC   GL262126  27.187   1.315   5.877
 4717POPC   C1A62127  26.782   1.434   6.196
 4717POPC   D2A62128  26.933   1.360   6.651
 4717POPC   C3A62129  26.658   1.210   7.038
 4717POPC   C4A62130  26.418   1.169   7.450
 4717POPC   C1B62131  27.046   1.009   6.219
 4717POPC   C2B62132  27.221   0.928   6.643
 4717POPC   C3B62133  27.162   1.121   7.050
 4717POPC   C4B62134  27.303   1.386   7.363
 4718POPC   NC362135   1.671  41.854   5.400
 4718POPC   PO462136   1.344  41.423   5.558
 4718POPC   GL162137   1.126  41.278   5.968
 4718POPC   GL262138   1.395  41.042   5.977
 4718POPC   C1A62139   1.008  41.287   6.449
 4718POPC   D2A62140   0.926  41.520   6.883
 4718POPC   C3A62141   1.298  41.820   7.084
 4718POPC   C4A62142   1.466  42.133   7.416
 4718POPC   C1B62143   1.505  41.316   6.328
 4718POPC   C2B62144   1.414  41.471   6.732
 4718POPC   C3B62145   1.325  41.303   7.141
 4718POPC   C4B62146   1.555  41.143   7.497
 4719POPC   NC362147   8.366  35.830   5.361
 4719POPC   PO462148   8.079  36.417   5.021
 4719POPC   GL162149   8.111  36.310   5.520
 4719POPC   GL262150   8.045  36.002   5.740
 4719POPC   C1A62151   8.156  36.446   5.980
 4719POPC   D2A62152   8.317  36.408   6.411
 4719POPC   C3A62153   8.159  36.406   6.817
 4719POPC   C4A62154   8.196  36.118   7.173
 4719POPC   C1B62155   8.069  35.990   6.229
 4719POPC   C2B62156   7.929  35.969   6.667
 4719POPC   C3B62157   7.710  35.862   7.031
 4719POPC   C4B62158   7.878  35.802   7.423
 4720POPC   NC362159  22.626   6.555   5.316
 4720POPC   PO462160  22.053   6.782   5.188
 4720POPC   GL162161  22.178   6.658   5.653
 4720POPC   GL262162  22.427   6.398   5.790
 4720POPC   C1A62163  22.104   6.719   6.119
 4720POPC   D2A62164  22.097   6.583   6.580
 4720POPC   C3A62165  22.197   6.891   6.904
 4720POPC   C4A62166  22.054   6.953   7.344
 4720POPC   C1B62167  22.319   6.257   6.212
 4720POPC   C2B62168  22.181   6.051   6.593
 4720POPC   C3B62169  21.970   6.159   6.993
 4720POPC   C4B62170  22.095   6.435   7.363
 4721POPC   NC362171   9.279   9.866   5.348
 4721POPC   PO462172   8.677   9.562   5.358
 4721POPC   GL162173   8.876   9.771   5.744
 4721POPC   GL262174   9.225   9.751   5.834
 4721POPC   C1A62175   8.878   9.925   6.184
 4721POPC   D2A62176   9.103   9.861   6.591
 4721POPC   C3A62177   8.982   9.764   7.019
 4721POPC   C4A62178   9.092   9.873   7.483
 4721POPC   C1B62179   9.405   9.702   6.214
 4721POPC   C2B62180   9.379   9.394   6.480
 4721POPC   C3B62181   9.377   9.444   6.902
 4721POPC   C4B62182   9.309   9.425   7.336
 4722POPC   NC362183  26.011  10.849   5.213
 4722POPC   PO462184  25.726  10.352   5.613
 4722POPC   GL162185  26.042  10.415   5.889
 4722POPC   GL262186  26.144  10.744   5.767
 4722POPC   C1A62187  26.127  10.392   6.347
 4722POPC   D2A62188  26.199  10.710   6.652
 4722POPC   C3A62189  26.143  10.604   7.100
 4722POPC   C4A62190  26.301  10.640   7.516
 4722POPC   C1B62191  25.904  10.844   6.178
 4722POPC   C2B62192  25.824  11.116   6.540
 4722POPC   C3B62193  25.867  11.013   6.972
 4722POPC   C4B62194  25.855  10.909   7.436
 4723POPC   NC362195  18.149  34.365   5.252
 4723POPC   PO462196  18.007  34.930   5.568
 4723POPC   GL162197  18.317  34.645   5.745
 4723POPC   GL262198  18.428  34.954   5.885
 4723POPC   C1A62199  18.302  34.465   6.181
 4723POPC   D2A62200  18.035  34.520   6.584
 4723POPC   C3A62201  18.222  34.335   6.953
 4723POPC   C4A62202  18.474  34.339   7.302
 4723POPC   C1B62203  18.716  34.796   6.142
 4723POPC   C2B62204  18.720  34.606   6.526
 4723POPC   C3B62205  18.572  34.702   6.928
 4723POPC   C4B62206  18.661  35.007   7.229
 4724POPC   NC362207  27.433  37.497   5.370
 4724POPC   PO462208  27.883  38.002   5.478
 4724POPC   GL162209  27.750  37.660   5.735
 4724POPC   GL262210  27.404  37.732   5.831
 4724POPC   C1A62211  27.735  37.575   6.187
 4724POPC   D2A62212  27.854  37.776   6.571
 4724POPC   C3A62213  27.615  37.749   6.963
 4724POPC   C4A62214  27.866  37.799   7.359
 4724POPC   C1B62215  27.207  37.719   6.237
 4724POPC   C2B62216  27.165  37.588   6.674
 4724POPC   C3B62217  27.337  37.296   6.955
 4724POPC   C4B62218  27.484  37.434   7.349
 4725POPC   NC362219  12.882  16.464   5.456
 4725POPC   PO462220  12.462  16.976   5.611
 4725POPC   GL162221  12.871  16.941   5.780
 4725POPC   GL262222  12.795  16.624   5.934
 4725POPC   C1A62223  13.153  16.968   6.164
 4725POPC   D2A62224  13.227  16.806   6.618
 4725POPC   C3A62225  13.001  17.032   6.973
 4725POPC   C4A62226  12.566  17.188   7.146
 4725POPC   C1B62227  12.564  16.372   6.251
 4725POPC   C2B62228  12.693  16.273   6.683
 4725POPC   C3B62229  12.918  16.450   7.042
 4725POPC   C4B62230  13.311  16.636   7.101
 4726POPC   NC362231  12.737  19.587   5.350
 4726POPC   PO462232  12.524  20.193   5.446
 4726POPC   GL162233  12.604  20.111   5.866
 4726POPC   GL262234  12.807  19.831   5.828
 4726POPC   C1A62235  12.701  20.062   6.318
 4726POPC   D2A62236  12.994  19.813   6.594
 4726POPC   C3A62237  12.927  19.848   7.005
 4726POPC   C4A62238  12.604  20.015   7.238
 4726POPC   C1B62239  12.752  19.577   6.208
 4726POPC   C2B62240  12.741  19.303   6.569
 4726POPC   C3B62241  12.663  19.405   7.006
 4726POPC   C4B62242  12.902  19.497   7.372
 4727POPC   NC362243  22.427  29.547   5.527
 4727POPC   PO462244  22.001  29.123   5.181
 4727POPC   GL162245  21.979  29.132   5.665
 4727POPC   GL262246  21.645  28.940   5.733
 4727POPC   C1A62247  22.267  29.214   6.067
 4727POPC   D2A62248  22.471  28.967   6.404
 4727POPC   C3A62249  22.417  29.037   6.868
 4727POPC   C4A62250  22.296  29.319   7.230
 4727POPC   C1B62251  21.832  28.973   6.179
 4727POPC   C2B62252  21.952  29.251   6.526
 4727POPC   C3B62253  21.853  29.225   6.969
 4727POPC   C4B62254  22.040  28.866   7.206
 4728POPC   NC362255  33.502   5.413   5.512
 4728POPC   PO462256  33.791   4.779   5.338
 4728POPC   GL162257  33.776   4.974   5.791
 4728POPC   GL262258  33.925   5.308   5.819
 4728POPC   C1A62259  33.643   4.907   6.232
 4728POPC   D2A62260  33.471   4.830   6.661
 4728POPC   C3A62261  33.785   4.790   6.982
 4728POPC   C4A62262  34.126   4.904   7.247
 4728POPC   C1B62263  33.690   5.401   6.173
 4728POPC   C2B62264  33.631   5.387   6.640
 4728POPC   C3B62265  33.870   5.334   7.037
 4728POPC   C4B62266  34.076   5.400   7.432
 4729POPC   NC362267  22.843   9.642   5.286
 4729POPC   PO462268  23.431   9.365   5.452
 4729POPC   GL162269  23.067   9.507   5.741
 4729POPC   GL262270  22.855   9.806   5.772
 4729POPC   C1A62271  22.878   9.435   6.169
 4729POPC   D2A62272  23.061   9.233   6.560
 4729POPC   C3A62273  23.058   9.414   7.000
 4729POPC   C4A62274  22.992   9.658   7.394
 4729POPC   C1B62275  23.031   9.934   6.165
 4729POPC   C2B62276  23.008   9.762   6.584
 4729POPC   C3B62277  23.028   9.962   6.985
 4729POPC   C4B62278  22.787  10.170   7.299
 4730POPC   NC362279  43.662  14.123   5.382
 4730POPC   PO462280  44.243  14.509   5.354
 4730POPC   GL162281  43.994  14.364   5.686
 4730POPC   GL262282  44.118  14.026   5.670
 4730POPC   C1A62283  43.773  14.520   6.066
 4730POPC   D2A62284  43.709  14.661   6.486
 4730POPC   C3A62285  43.788  14.531   6.894
 4730POPC   C4A62286  43.968  14.679   7.242
 4730POPC   C1B62287  43.945  14.033   6.097
 4730POPC   C2B62288  43.941  14.206   6.521
 4730POPC   C3B62289  43.815  14.013   6.929
 4730POPC   C4B62290  43.824  14.159   7.389
 4731POPC   NC362291  34.133   3.151   5.477
 4731POPC   PO462292  33.901   3.793   5.216
 4731POPC   GL162293  33.878   3.587   5.647
 4731POPC   GL262294  33.659   3.290   5.668
 4731POPC   C1A62295  33.969   3.429   6.095
 4731POPC   D2A62296  33.976   3.725   6.451
 4731POPC   C3A62297  33.842   3.631   6.857
 4731POPC   C4A62298  34.022   3.342   7.171
 4731POPC   C1B62299  33.477   3.292   6.062
 4731POPC   C2B62300  33.536   3.337   6.527
 4731POPC   C3B62301  33.495   3.308   7.007
 4731POPC   C4B62302  33.571   3.495   7.429
 4732POPC   NC362303  10.778  28.380   5.505
 4732POPC   PO462304  10.093  28.359   5.474
 4732POPC   GL162305  10.376  28.424   5.821
 4732POPC   GL262306  10.421  28.789   5.851
 4732POPC   C1A62307  10.645  28.347   6.178
 4732POPC   D2A62308  10.508  28.326   6.621
 4732POPC   C3A62309  10.759  28.235   6.987
 4732POPC   C4A62310  10.591  28.231   7.406
 4732POPC   C1B62311  10.238  28.644   6.275
 4732POPC   C2B62312  10.175  28.703   6.741
 4732POPC   C3B62313  10.361  28.561   7.107
 4732POPC   C4B62314  10.416  28.676   7.566
 4733POPC   NC362315  31.866  21.047   5.460
 4733POPC   PO462316  31.566  21.606   5.435
 4733POPC   GL162317  31.497  21.487   5.855
 4733POPC   GL262318  31.749  21.272   5.905
 4733POPC   C1A62319  31.549  21.559   6.305
 4733POPC   D2A62320  31.342  21.619   6.716
 4733POPC   C3A62321  31.547  21.417   7.038
 4733POPC   C4A62322  31.287  21.640   7.292
 4733POPC   C1B62323  31.696  21.040   6.287
 4733POPC   C2B62324  31.675  21.034   6.708
 4733POPC   C3B62325  31.530  20.883   7.073
 4733POPC   C4B62326  31.828  21.086   7.319
 4734POPC   NC362327  19.517   4.356   5.253
 4734POPC   PO462328  20.201   4.271   5.197
 4734POPC   GL162329  19.926   4.278   5.577
 4734POPC   GL262330  19.922   4.595   5.790
 4734POPC   C1A62331  19.853   4.136   6.015
 4734POPC   D2A62332  19.796   4.144   6.463
 4734POPC   C3A62333  19.892   4.437   6.819
 4734POPC   C4A62334  20.001   4.183   7.197
 4734POPC   C1B62335  19.598   4.556   6.157
 4734POPC   C2B62336  19.360   4.387   6.531
 4734POPC   C3B62337  19.440   4.254   6.949
 4734POPC   C4B62338  19.585   4.500   7.281
 4735POPC   NC362339  35.554  17.709   5.143
 4735POPC   PO462340  35.033  17.425   5.457
 4735POPC   GL162341  35.351  17.532   5.717
 4735POPC   GL262342  35.344  17.905   5.736
 4735POPC   C1A62343  35.407  17.385   6.157
 4735POPC   D2A62344  35.171  17.417   6.555
 4735POPC   C3A62345  35.406  17.480   6.960
 4735POPC   C4A62346  35.775  17.723   7.071
 4735POPC   C1B62347  35.322  17.912   6.210
 4735POPC   C2B62348  35.352  17.913   6.687
 4735POPC   C3B62349  35.115  17.890   7.078
 4735POPC   C4B62350  35.075  18.169   7.434
 4736POPC   NC362351   5.024  38.599   5.348
 4736POPC   PO462352   5.594  38.215   5.212
 4736POPC   GL162353   5.353  38.251   5.644
 4736POPC   GL262354   4.969  38.279   5.751
 4736POPC   C1A62355   5.336  38.354   6.128
 4736POPC   D2A62356   5.043  38.305   6.502
 4736POPC   C3A62357   5.174  38.373   6.954
 4736POPC   C4A62358   5.382  38.099   7.224
 4736POPC   C1B62359   4.894  38.640   6.060
 4736POPC   C2B62360   4.845  38.776   6.512
 4736POPC   C3B62361   4.701  38.578   6.902
 4736POPC   C4B62362   4.722  38.229   7.182
 4737POPC   NC362363   4.853  16.201   5.429
 4737POPC   PO462364   5.280  15.807   5.444
 4737POPC   GL162365   5.001  15.707   5.789
 4737POPC   GL262366   4.760  15.956   5.899
 4737POPC   C1A62367   5.080  15.735   6.258
 4737POPC   D2A62368   5.392  15.858   6.590
 4737POPC   C3A62369   5.294  15.922   7.039
 4737POPC   C4A62370   4.897  15.774   7.213
 4737POPC   C1B62371   4.750  16.127   6.315
 4737POPC   C2B62372   4.884  16.017   6.728
 4737POPC   C3B62373   4.816  16.272   7.099
 4737POPC   C4B62374   4.713  16.529   7.488
 4738POPC   NC362375  17.787  16.184   5.490
 4738POPC   PO462376  17.196  16.094   5.157
 4738POPC   GL162377  17.355  15.964   5.659
 4738POPC   GL262378  17.187  15.759   5.932
 4738POPC   C1A62379  17.670  15.821   6.038
 4738POPC   D2A62380  17.526  15.832   6.477
 4738POPC   C3A62381  17.736  15.766   6.883
 4738POPC   C4A62382  17.577  15.720   7.290
 4738POPC   C1B62383  17.280  16.151   6.158
 4738POPC   C2B62384  17.151  16.174   6.577
 4738POPC   C3B62385  17.238  15.942   6.929
 4738POPC   C4B62386  17.467  16.202   7.186
 4739POPC   NC362387  20.481  36.088   5.128
 4739POPC   PO462388  21.097  36.002   5.453
 4739POPC   GL162389  20.825  36.164   5.781
 4739POPC   GL262390  20.694  35.835   5.824
 4739POPC   C1A62391  20.608  36.179   6.209
 4739POPC   D2A62392  20.548  35.980   6.611
 4739POPC   C3A62393  20.667  36.235   6.942
 4739POPC   C4A62394  20.456  36.361   7.329
 4739POPC   C1B62395  20.483  35.650   6.194
 4739POPC   C2B62396  20.290  35.525   6.589
 4739POPC   C3B62397  20.231  35.782   6.966
 4739POPC   C4B62398  20.526  35.885   7.263
 4740POPC   NC362399  15.901  40.043   5.127
 4740POPC   PO462400  16.095  40.395   5.653
 4740POPC   GL162401  15.899  40.046   5.837
 4740POPC   GL262402  16.111  39.769   5.960
 4740POPC   C1A62403  15.741  40.005   6.257
 4740POPC   D2A62404  15.934  39.813   6.600
 4740POPC   C3A62405  15.849  40.037   6.943
 4740POPC   C4A62406  16.060  39.997   7.318
 4740POPC   C1B62407  16.255  40.059   6.278
 4740POPC   C2B62408  16.106  40.350   6.589
 4740POPC   C3B62409  16.219  40.475   7.021
 4740POPC   C4B62410  16.197  40.486   7.491
 4741POPC   NC362411  29.157  37.327   5.382
 4741POPC   PO462412  29.635  37.861   5.434
 4741POPC   GL162413  29.202  37.765   5.715
 4741POPC   GL262414  28.998  37.470   5.855
 4741POPC   C1A62415  29.083  37.817   6.215
 4741POPC   D2A62416  29.158  37.669   6.685
 4741POPC   C3A62417  29.094  37.898   7.083
 4741POPC   C4A62418  29.265  37.816   7.516
 4741POPC   C1B62419  29.098  37.296   6.316
 4741POPC   C2B62420  29.341  37.210   6.739
 4741POPC   C3B62421  29.349  37.450   7.137
 4741POPC   C4B62422  29.257  37.311   7.583
 4742POPC   NC362423  21.308   2.019   5.323
 4742POPC   PO462424  20.694   1.704   5.350
 4742POPC   GL162425  20.471   1.742   5.765
 4742POPC   GL262426  20.589   2.069   5.837
 4742POPC   C1A62427  20.313   1.868   6.205
 4742POPC   D2A62428  20.107   1.874   6.598
 4742POPC   C3A62429  20.284   1.822   7.011
 4742POPC   C4A62430  20.355   1.458   7.264
 4742POPC   C1B62431  20.818   2.023   6.253
 4742POPC   C2B62432  21.024   1.814   6.618
 4742POPC   C3B62433  21.032   1.985   7.057
 4742POPC   C4B62434  20.896   2.399   7.188
 4743POPC   NC362435  34.743  22.145   5.277
 4743POPC   PO462436  34.174  21.880   5.531
 4743POPC   GL162437  34.490  22.193   5.759
 4743POPC   GL262438  34.887  22.124   5.757
 4743POPC   C1A62439  34.668  22.125   6.210
 4743POPC   D2A62440  34.586  22.372   6.592
 4743POPC   C3A62441  34.551  22.263   7.039
 4743POPC   C4A62442  34.457  22.492   7.409
 4743POPC   C1B62443  35.101  22.428   6.030
 4743POPC   C2B62444  35.222  22.535   6.458
 4743POPC   C3B62445  35.012  22.517   6.850
 4743POPC   C4B62446  35.065  22.344   7.229
 4744POPC   NC362447  15.822  25.216   5.434
 4744POPC   PO462448  16.362  25.145   5.630
 4744POPC   GL162449  16.051  25.144   5.907
 4744POPC   GL262450  16.035  25.493   5.897
 4744POPC   C1A62451  15.928  25.042   6.341
 4744POPC   D2A62452  16.144  24.965   6.723
 4744POPC   C3A62453  16.074  25.188   7.107
 4744POPC   C4A62454  15.664  25.053   7.255
 4744POPC   C1B62455  15.936  25.556   6.342
 4744POPC   C2B62456  15.751  25.389   6.728
 4744POPC   C3B62457  15.696  25.542   7.134
 4744POPC   C4B62458  16.002  25.711   7.362
 4745POPC   NC362459  15.073  40.239   4.983
 4745POPC   PO462460  15.280  40.846   5.291
 4745POPC   GL162461  15.118  40.777   5.693
 4745POPC   GL262462  15.125  41.095   5.811
 4745POPC   C1A62463  15.240  40.722   6.136
 4745POPC   D2A62464  15.405  40.967   6.451
 4745POPC   C3A62465  15.292  40.785   6.834
 4745POPC   C4A62466  15.457  40.859   7.244
 4745POPC   C1B62467  14.906  41.198   6.208
 4745POPC   C2B62468  14.897  41.061   6.634
 4745POPC   C3B62469  15.049  41.157   7.056
 4745POPC   C4B62470  14.971  40.893   7.429
 4746POPC   NC362471   1.837  36.913   5.430
 4746POPC   PO462472   2.523  37.150   5.377
 4746POPC   GL162473   2.224  37.089   5.738
 4746POPC   GL262474   1.874  37.303   5.748
 4746POPC   C1A62475   2.175  36.738   6.068
 4746POPC   D2A62476   2.089  36.561   6.508
 4746POPC   C3A62477   2.100  36.876   6.838
 4746POPC   C4A62478   2.063  36.828   7.265
 4746POPC   C1B62479   1.650  37.265   6.166
 4746POPC   C2B62480   1.733  37.198   6.611
 4746POPC   C3B62481   1.783  37.323   7.047
 4746POPC   C4B62482   2.069  37.320   7.375
 4747POPC   NC362483  32.672   4.855   5.511
 4747POPC   PO462484  33.341   4.977   5.552
 4747POPC   GL162485  33.208   5.182   5.897
 4747POPC   GL262486  32.906   5.308   5.698
 4747POPC   C1A62487  33.209   5.192   6.359
 4747POPC   D2A62488  33.133   5.388   6.783
 4747POPC   C3A62489  33.389   5.175   7.099
 4747POPC   C4A62490  33.629   5.157   7.488
 4747POPC   C1B62491  32.737   5.235   6.111
 4747POPC   C2B62492  32.712   5.098   6.535
 4747POPC   C3B62493  32.629   5.276   6.927
 4747POPC   C4B62494  32.892   5.172   7.254
 4748POPC   NC362495   5.112   2.394   5.378
 4748POPC   PO462496   4.699   2.966   5.395
 4748POPC   GL162497   4.825   2.916   5.790
 4748POPC   GL262498   5.127   2.760   5.747
 4748POPC   C1A62499   5.057   3.090   6.143
 4748POPC   D2A62500   5.318   3.080   6.531
 4748POPC   C3A62501   5.098   3.096   6.942
 4748POPC   C4A62502   4.855   3.117   7.349
 4748POPC   C1B62503   5.113   2.400   6.049
 4748POPC   C2B62504   5.306   2.316   6.460
 4748POPC   C3B62505   5.242   2.575   6.830
 4748POPC   C4B62506   5.027   2.673   7.216
 4749POPC   NC362507  26.838  39.049   5.463
 4749POPC   PO462508  26.672  39.616   5.629
 4749POPC   GL162509  26.945  39.349   5.894
 4749POPC   GL262510  27.250  39.127   5.821
 4749POPC   C1A62511  26.892  39.062   6.238
 4749POPC   D2A62512  26.662  38.865   6.577
 4749POPC   C3A62513  26.826  39.039   6.978
 4749POPC   C4A62514  26.847  39.495   7.118
 4749POPC   C1B62515  27.340  39.303   6.267
 4749POPC   C2B62516  27.130  39.394   6.657
 4749POPC   C3B62517  27.288  39.291   7.067
 4749POPC   C4B62518  27.215  38.990   7.386
 4750POPC   NC362519  11.915  36.769   4.911
 4750POPC   PO462520  12.019  37.228   5.336
 4750POPC   GL162521  12.158  37.173   5.759
 4750POPC   GL262522  11.975  37.383   5.959
 4750POPC   C1A62523  12.159  36.947   6.183
 4750POPC   D2A62524  12.087  36.896   6.650
 4750POPC   C3A62525  12.221  37.031   7.086
 4750POPC   C4A62526  12.112  36.736   7.444
 4750POPC   C1B62527  11.926  37.336   6.410
 4750POPC   C2B62528  11.856  37.317   6.844
 4750POPC   C3B62529  11.754  37.190   7.242
 4750POPC   C4B62530  12.077  37.212   7.587
 4751POPC   NC362531   5.428  23.769   5.457
 4751POPC   PO462532   4.903  24.050   5.408
 4751POPC   GL162533   5.014  23.803   5.775
 4751POPC   GL262534   5.157  23.430   5.739
 4751POPC   C1A62535   5.183  23.973   6.176
 4751POPC   D2A62536   5.373  24.158   6.563
 4751POPC   C3A62537   5.168  24.038   6.939
 4751POPC   C4A62538   5.277  23.870   7.327
 4751POPC   C1B62539   5.007  23.473   6.179
 4751POPC   C2B62540   5.016  23.677   6.586
 4751POPC   C3B62541   5.061  23.521   7.010
 4751POPC   C4B62542   4.762  23.331   7.301
 4752POPC   NC362543   1.363  14.494   5.189
 4752POPC   PO462544   0.991  13.979   5.361
 4752POPC   GL162545   1.097  14.288   5.687
 4752POPC   GL262546   1.280  14.601   5.672
 4752POPC   C1A62547   1.146  14.224   6.141
 4752POPC   D2A62548   1.471  14.088   6.434
 4752POPC   C3A62549   1.438  14.067   6.877
 4752POPC   C4A62550   1.392  14.202   7.322
 4752POPC   C1B62551   1.204  14.720   6.073
 4752POPC   C2B62552   1.308  14.576   6.501
 4752POPC   C3B62553   1.167  14.507   6.921
 4752POPC   C4B62554   1.365  14.697   7.268
 4753POPC   NC362555  36.102  13.341   5.144
 4753POPC   PO462556  36.087  14.057   5.222
 4753POPC   GL162557  36.234  13.725   5.544
 4753POPC   GL262558  36.315  13.373   5.662
 4753POPC   C1A62559  36.132  13.748   5.999
 4753POPC   D2A62560  36.222  13.916   6.410
 4753POPC   C3A62561  36.320  13.646   6.722
 4753POPC   C4A62562  36.219  13.775   7.113
 4753POPC   C1B62563  36.349  13.269   6.142
 4753POPC   C2B62564  36.294  13.131   6.611
 4753POPC   C3B62565  36.022  13.257   6.957
 4753POPC   C4B62566  35.782  13.040   7.298
 4754POPC   NC362567  43.402  25.592   5.490
 4754POPC   PO462568  43.189  25.013   5.186
 4754POPC   GL162569  43.054  25.175   5.603
 4754POPC   GL262570  42.926  25.508   5.682
 4754POPC   C1A62571  42.976  25.104   6.064
 4754POPC   D2A62572  43.157  25.224   6.461
 4754POPC   C3A62573  43.022  25.154   6.878
 4754POPC   C4A62574  43.077  25.060   7.313
 4754POPC   C1B62575  43.074  25.601   6.091
 4754POPC   C2B62576  42.982  25.705   6.491
 4754POPC   C3B62577  43.113  25.673   6.889
 4754POPC   C4B62578  43.091  25.640   7.312
 4755POPC   NC362579   4.686  13.106   5.361
 4755POPC   PO462580   4.201  12.728   5.149
 4755POPC   GL162581   4.238  12.750   5.635
 4755POPC   GL262582   3.941  12.609   5.803
 4755POPC   C1A62583   4.386  12.655   6.099
 4755POPC   D2A62584   4.526  12.507   6.540
 4755POPC   C3A62585   4.467  12.753   6.942
 4755POPC   C4A62586   4.368  12.921   7.348
 4755POPC   C1B62587   3.928  12.611   6.272
 4755POPC   C2B62588   4.041  12.563   6.712
 4755POPC   C3B62589   3.953  12.658   7.148
 4755POPC   C4B62590   3.864  13.049   7.364
 4756POPC   NC362591  10.175   8.469   5.446
 4756POPC   PO462592  10.644   8.083   5.400
 4756POPC   GL162593  10.532   8.142   5.838
 4756POPC   GL262594  10.900   8.065   5.877
 4756POPC   C1A62595  10.393   8.501   6.200
 4756POPC   D2A62596  10.354   8.708   6.656
 4756POPC   C3A62597  10.258   8.452   7.068
 4756POPC   C4A62598  10.417   8.199   7.485
 4756POPC   C1B62599  10.779   8.180   6.298
 4756POPC   C2B62600  10.529   8.222   6.651
 4756POPC   C3B62601  10.647   8.093   7.043
 4756POPC   C4B62602  10.826   7.905   7.382
 4757POPC   NC362603  14.616  10.699   5.473
 4757POPC   PO462604  14.057  10.286   5.343
 4757POPC   GL162605  14.344  10.364   5.726
 4757POPC   GL262606  14.242  10.668   5.857
 4757POPC   C1A62607  14.452  10.337   6.186
 4757POPC   D2A62608  14.404  10.536   6.609
 4757POPC   C3A62609  14.519  10.303   7.017
 4757POPC   C4A62610  14.414  10.315   7.473
 4757POPC   C1B62611  14.468  10.885   6.180
 4757POPC   C2B62612  14.751  10.962   6.528
 4757POPC   C3B62613  14.787  10.759   6.902
 4757POPC   C4B62614  14.709  10.700   7.349
 4758POPC   NC362615   6.080  40.025   5.445
 4758POPC   PO462616   5.606  39.630   5.689
 4758POPC   GL162617   5.833  39.997   5.887
 4758POPC   GL262618   6.218  40.025   5.923
 4758POPC   C1A62619   5.749  40.239   6.244
 4758POPC   D2A62620   5.906  40.211   6.662
 4758POPC   C3A62621   5.688  40.038   7.010
 4758POPC   C4A62622   5.838  40.275   7.355
 4758POPC   C1B62623   6.296  40.002   6.353
 4758POPC   C2B62624   6.413  40.224   6.698
 4758POPC   C3B62625   6.202  40.003   7.043
 4758POPC   C4B62626   6.096  39.689   7.327
 4759POPC   NC362627  19.451  41.302   5.534
 4759POPC   PO462628  20.016  41.644   5.336
 4759POPC   GL162629  19.858  41.604   5.770
 4759POPC   GL262630  19.572  41.780   5.742
 4759POPC   C1A62631  19.599  41.497   6.174
 4759POPC   D2A62632  19.502  41.280   6.575
 4759POPC   C3A62633  19.852  41.403   6.831
 4759POPC   C4A62634  19.860  41.546   7.253
 4759POPC   C1B62635  19.605  42.023   6.117
 4759POPC   C2B62636  19.442  41.906   6.522
 4759POPC   C3B62637  19.456  41.720   6.910
 4759POPC   C4B62638  19.472  41.944   7.267
 4760POPC   NC362639  11.555  39.756   5.611
 4760POPC   PO462640  11.189  40.406   5.543
 4760POPC   GL162641  11.184  40.137   5.877
 4760POPC   GL262642  11.010  39.866   5.740
 4760POPC   C1A62643  11.210  40.160   6.330
 4760POPC   D2A62644  11.508  39.945   6.629
 4760POPC   C3A62645  11.469  40.092   7.043
 4760POPC   C4A62646  11.119  40.182   7.312
 4760POPC   C1B62647  11.094  39.688   6.145
 4760POPC   C2B62648  11.040  39.731   6.575
 4760POPC   C3B62649  11.068  39.774   6.999
 4760POPC   C4B62650  11.372  39.676   7.344
 4761POPC   NC362651  17.915  33.402   5.387
 4761POPC   PO462652  18.177  33.944   5.094
 4761POPC   GL162653  18.231  34.022   5.623
 4761POPC   GL262654  18.038  33.768   5.798
 4761POPC   C1A62655  18.422  33.946   6.077
 4761POPC   D2A62656  18.296  34.061   6.521
 4761POPC   C3A62657  18.431  33.865   6.919
 4761POPC   C4A62658  18.507  33.840   7.383
 4761POPC   C1B62659  17.903  34.056   6.131
 4761POPC   C2B62660  17.776  34.059   6.560
 4761POPC   C3B62661  17.894  33.865   6.928
 4761POPC   C4B62662  18.033  33.992   7.317
 4762POPC   NC362663   5.684  33.127   5.081
 4762POPC   PO462664   6.256  32.928   5.463
 4762POPC   GL162665   6.085  33.126   5.791
 4762POPC   GL262666   5.729  33.060   5.729
 4762POPC   C1A62667   6.232  33.328   6.163
 4762POPC   D2A62668   6.026  33.144   6.499
 4762POPC   C3A62669   6.207  33.187   6.877
 4762POPC   C4A62670   6.073  33.222   7.300
 4762POPC   C1B62671   5.635  32.926   6.184
 4762POPC   C2B62672   5.762  32.717   6.574
 4762POPC   C3B62673   5.891  32.787   7.008
 4762POPC   C4B62674   5.613  33.047   7.268
 4763POPC   NC362675  17.612  35.422   5.373
 4763POPC   PO462676  17.147  34.976   5.566
 4763POPC   GL162677  17.353  35.305   5.823
 4763POPC   GL262678  17.742  35.320   5.847
 4763POPC   C1A62679  17.330  35.373   6.264
 4763POPC   D2A62680  17.118  35.225   6.638
 4763POPC   C3A62681  17.349  35.202   6.996
 4763POPC   C4A62682  17.461  35.590   7.125
 4763POPC   C1B62683  17.839  35.242   6.275
 4763POPC   C2B62684  17.684  35.391   6.667
 4763POPC   C3B62685  17.859  35.281   7.054
 4763POPC   C4B62686  17.700  35.116   7.410
 4764POPC   NC362687   2.316   6.870   5.175
 4764POPC   PO462688   1.682   6.655   5.196
 4764POPC   GL162689   2.045   6.678   5.572
 4764POPC   GL262690   2.304   6.413   5.715
 4764POPC   C1A62691   2.076   6.705   6.064
 4764POPC   D2A62692   2.055   6.536   6.529
 4764POPC   C3A62693   1.999   6.785   6.931
 4764POPC   C4A62694   1.958   6.937   7.350
 4764POPC   C1B62695   2.333   6.249   6.173
 4764POPC   C2B62696   2.525   6.297   6.588
 4764POPC   C3B62697   2.256   6.339   6.986
 4764POPC   C4B62698   2.352   6.599   7.361
 4765POPC   NC362699  37.256  26.661   5.553
 4765POPC   PO462700  37.864  26.673   5.291
 4765POPC   GL162701  37.750  26.874   5.720
 4765POPC   GL262702  37.489  27.106   5.798
 4765POPC   C1A62703  37.883  26.912   6.175
 4765POPC   D2A62704  37.789  26.666   6.539
 4765POPC   C3A62705  37.939  26.775   6.921
 4765POPC   C4A62706  37.857  26.866   7.336
 4765POPC   C1B62707  37.354  26.987   6.242
 4765POPC   C2B62708  37.194  27.031   6.677
 4765POPC   C3B62709  37.398  26.878   7.060
 4765POPC   C4B62710  37.373  26.891   7.529
 4766POPC   NC362711  39.683  25.552   5.158
 4766POPC   PO462712  40.069  25.095   5.188
 4766POPC   GL162713  40.087  25.175   5.675
 4766POPC   GL262714  39.951  24.888   5.892
 4766POPC   C1A62715  40.143  25.341   6.136
 4766POPC   D2A62716  40.129  25.208   6.600
 4766POPC   C3A62717  39.988  25.465   6.970
 4766POPC   C4A62718  40.073  25.411   7.441
 4766POPC   C1B62719  39.700  25.050   6.276
 4766POPC   C2B62720  39.617  25.121   6.738
 4766POPC   C3B62721  39.741  25.068   7.176
 4766POPC   C4B62722  39.922  24.926   7.541
 4767POPC   NC362723   1.882  10.475   5.193
 4767POPC   PO462724   2.278  11.011   5.196
 4767POPC   GL162725   2.101  10.760   5.588
 4767POPC   GL262726   2.264  10.424   5.566
 4767POPC   C1A62727   1.853  10.463   5.906
 4767POPC   D2A62728   1.756  10.391   6.382
 4767POPC   C3A62729   1.879  10.362   6.852
 4767POPC   C4A62730   1.837  10.720   7.178
 4767POPC   C1B62731   2.351  10.505   6.000
 4767POPC   C2B62732   2.309  10.341   6.445
 4767POPC   C3B62733   2.414  10.453   6.887
 4767POPC   C4B62734   2.283  10.523   7.316
 4768POPC   NC362735   7.408  32.316   5.053
 4768POPC   PO462736   7.094  31.806   5.406
 4768POPC   GL162737   7.054  32.069   5.805
 4768POPC   GL262738   7.318  32.340   5.842
 4768POPC   C1A62739   7.042  32.235   6.235
 4768POPC   D2A62740   7.223  32.379   6.600
 4768POPC   C3A62741   7.188  32.160   7.002
 4768POPC   C4A62742   7.306  32.322   7.410
 4768POPC   C1B62743   7.518  32.075   6.223
 4768POPC   C2B62744   7.507  31.946   6.673
 4768POPC   C3B62745   7.676  32.069   7.108
 4768POPC   C4B62746   8.020  31.953   7.394
 4769POPC   NC362747  16.746  21.517   5.426
 4769POPC   PO462748  16.752  20.828   5.459
 4769POPC   GL162749  16.583  21.159   5.749
 4769POPC   GL262750  16.924  21.274   5.834
 4769POPC   C1A62751  16.534  21.316   6.190
 4769POPC   D2A62752  16.381  21.473   6.590
 4769POPC   C3A62753  16.544  21.267   6.938
 4769POPC   C4A62754  16.678  21.382   7.326
 4769POPC   C1B62755  16.980  21.572   6.148
 4769POPC   C2B62756  16.891  21.472   6.565
 4769POPC   C3B62757  16.842  21.699   6.929
 4769POPC   C4B62758  17.011  21.774   7.327
 4770POPC   NC362759   5.837  35.379   5.342
 4770POPC   PO462760   5.201  35.262   5.176
 4770POPC   GL162761   5.403  35.353   5.654
 4770POPC   GL262762   5.395  35.672   5.811
 4770POPC   C1A62763   5.756  35.259   6.019
 4770POPC   D2A62764   6.019  35.103   6.423
 4770POPC   C3A62765   5.945  35.266   6.881
 4770POPC   C4A62766   5.958  35.393   7.351
 4770POPC   C1B62767   5.633  35.724   6.189
 4770POPC   C2B62768   5.925  35.656   6.522
 4770POPC   C3B62769   5.910  35.758   6.957
 4770POPC   C4B62770   5.574  35.736   7.263
 4771POPC   NC362771   7.821  23.721   5.369
 4771POPC   PO462772   8.468  23.821   5.163
 4771POPC   GL162773   8.294  23.775   5.615
 4771POPC   GL262774   8.131  23.455   5.691
 4771POPC   C1A62775   8.419  23.702   6.081
 4771POPC   D2A62776   8.489  23.498   6.495
 4771POPC   C3A62777   8.447  23.736   6.868
 4771POPC   C4A62778   8.501  23.666   7.277
 4771POPC   C1B62779   7.915  23.717   6.007
 4771POPC   C2B62780   7.962  23.652   6.430
 4771POPC   C3B62781   7.959  23.609   6.854
 4771POPC   C4B62782   8.037  23.925   7.160
 4772POPC   NC362783   6.647  24.869   5.412
 4772POPC   PO462784   6.705  24.190   5.299
 4772POPC   GL162785   6.654  24.417   5.730
 4772POPC   GL262786   6.496  24.752   5.878
 4772POPC   C1A62787   6.599  24.391   6.211
 4772POPC   D2A62788   6.798  24.542   6.614
 4772POPC   C3A62789   6.670  24.504   7.054
 4772POPC   C4A62790   6.432  24.344   7.363
 4772POPC   C1B62791   6.578  24.907   6.321
 4772POPC   C2B62792   6.458  24.919   6.779
 4772POPC   C3B62793   6.670  25.005   7.131
 4772POPC   C4B62794   7.081  24.804   7.169
 4773POPC   NC362795   7.361  29.342   5.292
 4773POPC   PO462796   7.845  28.847   5.136
 4773POPC   GL162797   7.497  28.855   5.569
 4773POPC   GL262798   7.144  28.784   5.663
 4773POPC   C1A62799   7.373  29.120   5.987
 4773POPC   D2A62800   7.585  29.138   6.413
 4773POPC   C3A62801   7.596  29.310   6.848
 4773POPC   C4A62802   7.563  29.166   7.275
 4773POPC   C1B62803   6.958  28.823   6.118
 4773POPC   C2B62804   6.924  29.024   6.548
 4773POPC   C3B62805   7.154  29.043   6.965
 4773POPC   C4B62806   7.127  28.942   7.426
 4774POPC   NC362807  16.785  42.701   5.410
 4774POPC   PO462808  16.656  42.050   5.450
 4774POPC   GL162809  16.774  42.314   5.765
 4774POPC   GL262810  16.554  42.599   5.842
 4774POPC   C1A62811  16.899  42.388   6.167
 4774POPC   D2A62812  16.674  42.290   6.528
 4774POPC   C3A62813  16.854  42.442   6.873
 4774POPC   C4A62814  16.839  42.421   7.280
 4774POPC   C1B62815  16.454  42.681   6.258
 4774POPC   C2B62816  16.338  42.721   6.679
 4774POPC   C3B62817  16.443  42.760   7.103
 4774POPC   C4B62818  16.567  42.792   7.554
 4775POPC   NC362819  17.832  13.264   5.603
 4775POPC   PO462820  17.824  12.602   5.642
 4775POPC   GL162821  17.755  12.892   5.942
 4775POPC   GL262822  17.416  13.054   5.871
 4775POPC   C1A62823  17.669  12.994   6.331
 4775POPC   D2A62824  17.604  12.759   6.659
 4775POPC   C3A62825  17.564  13.001   6.999
 4775POPC   C4A62826  17.536  12.937   7.408
 4775POPC   C1B62827  17.320  12.653   6.118
 4775POPC   C2B62828  17.180  12.510   6.504
 4775POPC   C3B62829  17.152  12.693   6.901
 4775POPC   C4B62830  17.236  12.538   7.289
 4776POPC   NC362831  15.417   6.727   5.616
 4776POPC   PO462832  14.805   6.510   5.345
 4776POPC   GL162833  14.930   6.391   5.796
 4776POPC   GL262834  15.263   6.281   5.899
 4776POPC   C1A62835  14.987   6.491   6.253
 4776POPC   D2A62836  14.927   6.551   6.678
 4776POPC   C3A62837  15.187   6.787   6.925
 4776POPC   C4A62838  14.996   7.034   7.224
 4776POPC   C1B62839  15.442   6.167   6.301
 4776POPC   C2B62840  15.423   6.329   6.716
 4776POPC   C3B62841  15.368   6.332   7.132
 4776POPC   C4B62842  15.511   6.044   7.411
 4777POPC   NC362843  20.177  13.998   5.503
 4777POPC   PO462844  20.079  14.753   5.401
 4777POPC   GL162845  20.148  14.526   5.792
 4777POPC   GL262846  19.871  14.275   5.824
 4777POPC   C1A62847  19.995  14.614   6.238
 4777POPC   D2A62848  19.588  14.684   6.490
 4777POPC   C3A62849  19.600  14.386   6.847
 4777POPC   C4A62850  19.829  14.423   7.230
 4777POPC   C1B62851  20.109  14.100   6.173
 4777POPC   C2B62852  20.148  14.248   6.591
 4777POPC   C3B62853  20.162  14.125   6.992
 4777POPC   C4B62854  19.779  13.925   7.197
 4778POPC   NC362855  35.981  19.252   5.250
 4778POPC   PO462856  35.603  18.766   5.493
 4778POPC   GL162857  35.993  19.011   5.691
 4778POPC   GL262858  36.348  18.869   5.724
 4778POPC   C1A62859  36.187  19.235   6.047
 4778POPC   D2A62860  36.082  19.097   6.469
 4778POPC   C3A62861  35.979  19.232   6.877
 4778POPC   C4A62862  36.173  19.179   7.273
 4778POPC   C1B62863  36.530  18.873   6.174
 4778POPC   C2B62864  36.484  18.837   6.654
 4778POPC   C3B62865  36.464  18.783   7.108
 4778POPC   C4B62866  36.354  18.578   7.526
 4779POPC   NC362867  19.982  20.966   5.590
 4779POPC   PO462868  19.686  21.533   5.540
 4779POPC   GL162869  19.738  21.652   5.923
 4779POPC   GL262870  20.064  21.710   5.882
 4779POPC   C1A62871  19.638  21.466   6.305
 4779POPC   D2A62872  19.818  21.246   6.652
 4779POPC   C3A62873  19.907  21.513   7.003
 4779POPC   C4A62874  19.758  21.550   7.441
 4779POPC   C1B62875  20.122  21.364   6.172
 4779POPC   C2B62876  20.311  21.387   6.582
 4779POPC   C3B62877  20.279  21.097   6.927
 4779POPC   C4B62878  20.126  21.073   7.364
 4780POPC   NC362879  12.698  39.388   5.534
 4780POPC   PO462880  12.513  38.763   5.317
 4780POPC   GL162881  12.523  38.944   5.729
 4780POPC   GL262882  12.882  38.977   5.813
 4780POPC   C1A62883  12.553  39.139   6.159
 4780POPC   D2A62884  12.520  39.295   6.599
 4780POPC   C3A62885  12.686  39.083   6.986
 4780POPC   C4A62886  12.660  39.188   7.441
 4780POPC   C1B62887  13.042  39.259   6.193
 4780POPC   C2B62888  13.037  39.360   6.669
 4780POPC   C3B62889  13.208  39.263   7.089
 4780POPC   C4B62890  13.472  38.931   7.302
 4781POPC   NC362891  28.519  19.865   5.253
 4781POPC   PO462892  28.481  19.340   5.630
 4781POPC   GL162893  28.484  19.816   5.756
 4781POPC   GL262894  28.156  19.972   5.754
 4781POPC   C1A62895  28.487  20.055   6.139
 4781POPC   D2A62896  28.508  19.884   6.507
 4781POPC   C3A62897  28.469  20.133   6.870
 4781POPC   C4A62898  28.150  20.112   7.201
 4781POPC   C1B62899  28.185  19.633   6.116
 4781POPC   C2B62900  28.072  19.519   6.490
 4781POPC   C3B62901  28.170  19.712   6.855
 4781POPC   C4B62902  27.951  19.657   7.236
 4782POPC   NC362903  24.779  22.316   5.423
 4782POPC   PO462904  24.328  21.907   5.149
 4782POPC   GL162905  24.451  21.976   5.603
 4782POPC   GL262906  24.678  21.722   5.758
 4782POPC   C1A62907  24.594  22.117   6.056
 4782POPC   D2A62908  24.843  22.046   6.436
 4782POPC   C3A62909  24.581  22.086   6.807
 4782POPC   C4A62910  24.529  22.385   7.141
 4782POPC   C1B62911  24.220  21.757   5.986
 4782POPC   C2B62912  24.016  21.914   6.364
 4782POPC   C3B62913  24.080  21.928   6.784
 4782POPC   C4B62914  24.248  21.961   7.195
 4783POPC   NC362915   4.465  24.047   5.315
 4783POPC   PO462916   4.097  23.498   5.442
 4783POPC   GL162917   4.470  23.685   5.709
 4783POPC   GL262918   4.656  23.407   5.811
 4783POPC   C1A62919   4.657  23.852   6.142
 4783POPC   D2A62920   4.493  23.763   6.576
 4783POPC   C3A62921   4.673  23.840   6.977
 4783POPC   C4A62922   4.437  23.805   7.343
 4783POPC   C1B62923   4.424  23.411   6.178
 4783POPC   C2B62924   4.100  23.218   6.386
 4783POPC   C3B62925   4.142  23.150   6.813
 4783POPC   C4B62926   4.358  23.424   7.025
 4784POPC   NC362927  13.592  40.571   5.358
 4784POPC   PO462928  13.547  41.199   5.594
 4784POPC   GL162929  13.474  40.779   5.826
 4784POPC   GL262930  13.795  40.580   5.842
 4784POPC   C1A62931  13.488  40.562   6.254
 4784POPC   D2A62932  13.686  40.685   6.636
 4784POPC   C3A62933  13.863  40.501   6.986
 4784POPC   C4A62934  13.567  40.580   7.296
 4784POPC   C1B62935  13.860  40.910   6.157
 4784POPC   C2B62936  14.008  41.057   6.546
 4784POPC   C3B62937  14.156  40.987   6.957
 4784POPC   C4B62938  13.991  40.876   7.340
 4785POPC   NC362939  12.074  20.054   5.381
 4785POPC   PO462940  12.317  19.340   5.420
 4785POPC   GL162941  12.295  19.704   5.721
 4785POPC   GL262942  11.930  19.810   5.799
 4785POPC   C1A62943  12.279  19.762   6.202
 4785POPC   D2A62944  12.484  19.736   6.642
 4785POPC   C3A62945  12.251  19.767   7.013
 4785POPC   C4A62946  12.122  19.997   7.415
 4785POPC   C1B62947  11.768  19.786   6.203
 4785POPC   C2B62948  11.923  19.750   6.609
 4785POPC   C3B62949  11.758  19.745   7.018
 4785POPC   C4B62950  11.942  19.532   7.371
 4786POPC   NC362951  43.641  36.111   5.354
 4786POPC   PO462952  44.324  35.976   5.353
 4786POPC   GL162953  44.091  35.842   5.753
 4786POPC   GL262954  43.732  35.918   5.840
 4786POPC   C1A62955  44.127  35.982   6.201
 4786POPC   D2A62956  43.954  36.046   6.630
 4786POPC   C3A62957  44.095  36.241   7.021
 4786POPC   C4A62958  44.158  36.089   7.441
 4786POPC   C1B62959  43.669  36.247   6.165
 4786POPC   C2B62960  43.676  36.485   6.566
 4786POPC   C3B62961  43.625  36.449   7.006
 4786POPC   C4B62962  43.734  36.501   7.456
 4787POPC   NC362963  35.841  30.949   5.249
 4787POPC   PO462964  36.172  30.341   5.264
 4787POPC   GL162965  36.120  30.564   5.684
 4787POPC   GL262966  35.802  30.647   5.661
 4787POPC   C1A62967  36.152  30.681   6.149
 4787POPC   D2A62968  36.414  30.750   6.544
 4787POPC   C3A62969  36.320  31.042   6.904
 4787POPC   C4A62970  36.104  30.958   7.277
 4787POPC   C1B62971  35.659  30.715   6.054
 4787POPC   C2B62972  35.746  30.610   6.478
 4787POPC   C3B62973  35.980  30.585   6.866
 4787POPC   C4B62974  35.739  30.629   7.243
 4788POPC   NC362975   0.566   6.452   5.370
 4788POPC   PO462976   0.020   6.644   5.566
 4788POPC   GL162977   0.365   6.524   5.836
 4788POPC   GL262978   0.255   6.194   5.783
 4788POPC   C1A62979   0.491   6.584   6.302
 4788POPC   D2A62980   0.694   6.843   6.630
 4788POPC   C3A62981   0.631   6.783   7.072
 4788POPC   C4A62982   0.630   6.756   7.531
 4788POPC   C1B62983   0.089   6.291   6.170
 4788POPC   C2B62984   0.099   6.267   6.575
 4788POPC   C3B62985   0.222   6.513   6.900
 4788POPC   C4B62986   0.161   6.694   7.302
 4789POPC   NC362987  20.442   4.581   4.942
 4789POPC   PO462988  20.852   4.548   5.449
 4789POPC   GL162989  20.695   4.331   5.828
 4789POPC   GL262990  20.321   4.289   5.904
 4789POPC   C1A62991  20.640   4.513   6.231
 4789POPC   D2A62992  20.717   4.348   6.632
 4789POPC   C3A62993  20.997   4.529   6.880
 4789POPC   C4A62994  21.214   4.237   7.180
 4789POPC   C1B62995  20.127   4.511   6.270
 4789POPC   C2B62996  20.322   4.663   6.644
 4789POPC   C3B62997  20.430   4.558   7.051
 4789POPC   C4B62998  20.410   4.369   7.451
 4790POPC   NC362999   2.921  36.370   5.269
 4790POPC   PO463000   2.502  35.927   5.291
 4790POPC   GL163001   2.812  36.011   5.663
 4790POPC   GL263002   3.003  36.318   5.762
 4790POPC   C1A63003   3.004  35.946   6.087
 4790POPC   D2A63004   3.021  36.250   6.404
 4790POPC   C3A63005   3.005  36.055   6.805
 4790POPC   C4A63006   2.739  36.198   7.148
 4790POPC   C1B63007   3.255  36.596   6.045
 4790POPC   C2B63008   3.150  36.774   6.455
 4790POPC   C3B63009   3.074  36.559   6.853
 4790POPC   C4B63010   2.947  36.674   7.273
 4791POPC   NC363011  34.057   5.163   5.352
 4791POPC   PO463012  34.430   4.632   5.328
 4791POPC   GL163013  34.254   4.858   5.718
 4791POPC   GL263014  34.412   5.171   5.744
 4791POPC   C1A63015  34.155   5.020   6.202
 4791POPC   D2A63016  34.149   5.046   6.714
 4791POPC   C3A63017  34.540   5.142   7.017
 4791POPC   C4A63018  34.913   5.190   7.332
 4791POPC   C1B63019  34.619   5.236   6.158
 4791POPC   C2B63020  34.662   5.425   6.572
 4791POPC   C3B63021  34.921   5.536   6.951
 4791POPC   C4B63022  35.313   5.495   7.228
 4792POPC   NC363023  15.544  10.516   5.149
 4792POPC   PO463024  15.011  10.393   5.546
 4792POPC   GL163025  14.848  10.537   5.928
 4792POPC   GL263026  14.907  10.886   5.917
 4792POPC   C1A63027  14.921  10.478   6.384
 4792POPC   D2A63028  15.137  10.274   6.730
 4792POPC   C3A63029  15.037  10.366   7.096
 4792POPC   C4A63030  15.194  10.709   7.209
 4792POPC   C1B63031  15.209  10.897   6.275
 4792POPC   C2B63032  15.335  10.737   6.661
 4792POPC   C3B63033  15.601  10.908   6.976
 4792POPC   C4B63034  15.456  11.119   7.333
 4793POPC   NC363035  14.471  22.363   5.135
 4793POPC   PO463036  14.018  22.834   5.346
 4793POPC   GL163037  14.157  22.938   5.798
 4793POPC   GL263038  14.515  22.830   5.902
 4793POPC   C1A63039  14.134  22.755   6.229
 4793POPC   D2A63040  13.964  22.910   6.602
 4793POPC   C3A63041  14.037  22.718   6.984
 4793POPC   C4A63042  14.185  23.094   7.174
 4793POPC   C1B63043  14.636  22.814   6.358
 4793POPC   C2B63044  14.480  22.856   6.783
 4793POPC   C3B63045  14.624  22.850   7.223
 4793POPC   C4B63046  14.801  22.648   7.603
 4794POPC   NC363047  38.173  26.310   5.316
 4794POPC   PO463048  38.641  25.831   5.424
 4794POPC   GL163049  38.323  25.871   5.771
 4794POPC   GL263050  38.309  26.221   5.815
 4794POPC   C1A63051  38.352  25.940   6.226
 4794POPC   D2A63052  38.575  26.144   6.552
 4794POPC   C3A63053  38.467  25.926   6.939
 4794POPC   C4A63054  38.764  25.738   7.249
 4794POPC   C1B63055  38.075  26.387   6.201
 4794POPC   C2B63056  38.095  26.262   6.650
 4794POPC   C3B63057  38.021  26.271   7.083
 4794POPC   C4B63058  38.004  26.160   7.535
 4795POPC   NC363059  25.982  25.870   5.321
 4795POPC   PO463060  26.082  25.138   5.225
 4795POPC   GL163061  25.951  25.110   5.726
 4795POPC   GL263062  26.226  25.161   5.999
 4795POPC   C1A63063  25.764  25.065   6.137
 4795POPC   D2A63064  25.937  25.173   6.590
 4795POPC   C3A63065  25.836  25.095   7.020
 4795POPC   C4A63066  26.234  25.126   7.216
 4795POPC   C1B63067  25.995  25.516   6.222
 4795POPC   C2B63068  25.775  25.644   6.648
 4795POPC   C3B63069  26.017  25.590   7.042
 4795POPC   C4B63070  26.234  25.602   7.440
 4796POPC   NC363071  44.903  11.922   5.514
 4796POPC   PO463072  44.550  12.515   5.444
 4796POPC   GL163073  44.426  12.374   5.810
 4796POPC   GL263074  44.476  12.040   5.842
 4796POPC   C1A63075  44.596  12.387   6.213
 4796POPC   D2A63076  44.449  12.284   6.607
 4796POPC   C3A63077  44.758  12.271   6.908
 4796POPC   C4A63078  44.702  12.172   7.316
 4796POPC   C1B63079  44.536  11.821   6.227
 4796POPC   C2B63080  44.690  11.832   6.645
 4796POPC   C3B63081  44.451  11.817   7.012
 4796POPC   C4B63082  44.261  11.387   7.084
 4797POPC   NC363083  25.267  26.183   5.270
 4797POPC   PO463084  25.655  25.567   5.452
 4797POPC   GL163085  25.352  25.793   5.737
 4797POPC   GL263086  25.097  26.032   5.817
 4797POPC   C1A63087  25.332  25.859   6.214
 4797POPC   D2A63088  25.256  25.685   6.600
 4797POPC   C3A63089  25.398  25.924   6.941
 4797POPC   C4A63090  25.262  26.000   7.377
 4797POPC   C1B63091  24.992  26.274   6.168
 4797POPC   C2B63092  25.004  26.112   6.547
 4797POPC   C3B63093  24.922  26.121   6.950
 4797POPC   C4B63094  24.845  26.435   7.222
 4798POPC   NC363095  16.091  28.938   5.357
 4798POPC   PO463096  15.626  29.345   5.493
 4798POPC   GL163097  15.960  29.264   5.814
 4798POPC   GL263098  16.046  28.905   5.882
 4798POPC   C1A63099  16.164  29.293   6.241
 4798POPC   D2A63100  16.454  29.194   6.607
 4798POPC   C3A63101  16.181  29.115   6.981
 4798POPC   C4A63102  16.027  29.412   7.285
 4798POPC   C1B63103  15.855  28.756   6.282
 4798POPC   C2B63104  15.785  28.964   6.684
 4798POPC   C3B63105  15.676  29.053   7.137
 4798POPC   C4B63106  15.780  29.067   7.595
 4799POPC   NC363107   2.110  19.810   5.373
 4799POPC   PO463108   2.100  19.256   5.547
 4799POPC   GL163109   2.326  19.559   5.849
 4799POPC   GL263110   2.248  19.937   5.896
 4799POPC   C1A63111   2.414  19.657   6.328
 4799POPC   D2A63112   2.162  19.935   6.674
 4799POPC   C3A63113   1.903  19.825   7.064
 4799POPC   C4A63114   1.489  19.741   7.296
 4799POPC   C1B63115   2.480  20.151   6.281
 4799POPC   C2B63116   2.636  20.071   6.745
 4799POPC   C3B63117   2.411  20.008   7.163
 4799POPC   C4B63118   2.237  20.312   7.459
 4800POPC   NC363119  38.222  20.825   5.539
 4800POPC   PO463120  38.744  20.478   5.351
 4800POPC   GL163121  38.561  20.479   5.746
 4800POPC   GL263122  38.232  20.308   5.702
 4800POPC   C1A63123  38.632  20.672   6.140
 4800POPC   D2A63124  38.766  20.693   6.563
 4800POPC   C3A63125  38.457  20.739   6.908
 4800POPC   C4A63126  38.591  20.965   7.293
 4800POPC   C1B63127  38.155  20.484   6.126
 4800POPC   C2B63128  38.196  20.391   6.546
 4800POPC   C3B63129  37.963  20.497   6.924
 4800POPC   C4B63130  38.141  20.638   7.316
 4801POPC   NC363131   4.012  24.826   5.680
 4801POPC   PO463132   4.446  24.525   5.269
 4801POPC   GL163133   4.528  24.410   5.693
 4801POPC   GL263134   4.668  24.726   5.785
 4801POPC   C1A63135   4.313  24.216   6.073
 4801POPC   D2A63136   4.351  24.307   6.535
 4801POPC   C3A63137   4.253  24.137   6.956
 4801POPC   C4A63138   4.355  24.304   7.376
 4801POPC   C1B63139   4.440  24.708   6.183
 4801POPC   C2B63140   4.519  24.791   6.630
 4801POPC   C3B63141   4.347  24.705   7.050
 4801POPC   C4B63142   4.239  24.801   7.498
 4802POPC   NC363143  20.907  25.126   4.942
 4802POPC   PO463144  20.593  25.473   5.439
 4802POPC   GL163145  20.627  25.385   5.853
 4802POPC   GL263146  20.637  25.085   5.827
 4802POPC   C1A63147  20.819  25.537   6.228
 4802POPC   D2A63148  20.644  25.698   6.578
 4802POPC   C3A63149  20.597  25.359   6.830
 4802POPC   C4A63150  20.847  25.315   7.152
 4802POPC   C1B63151  20.403  25.121   6.220
 4802POPC   C2B63152  20.316  24.922   6.593
 4802POPC   C3B63153  20.180  25.110   6.948
 4802POPC   C4B63154  20.385  25.206   7.339
 4803POPC   NC363155   8.567  42.057   5.414
 4803POPC   PO463156   8.039  42.514   5.329
 4803POPC   GL163157   7.951  42.498   5.772
 4803POPC   GL263158   8.236  42.292   5.823
 4803POPC   C1A63159   7.937  42.431   6.237
 4803POPC   D2A63160   8.156  42.216   6.602
 4803POPC   C3A63161   8.029  42.353   7.043
 4803POPC   C4A63162   7.968  42.428   7.532
 4803POPC   C1B63163   8.543  42.094   6.113
 4803POPC   C2B63164   8.628  41.985   6.547
 4803POPC   C3B63165   8.442  41.957   6.976
 4803POPC   C4B63166   8.396  42.218   7.370
 4804POPC   NC363167  38.521  36.406   5.255
 4804POPC   PO463168  38.442  37.093   5.227
 4804POPC   GL163169  38.347  36.960   5.741
 4804POPC   GL263170  38.525  36.632   5.807
 4804POPC   C1A63171  38.447  37.088   6.223
 4804POPC   D2A63172  38.220  37.124   6.668
 4804POPC   C3A63173  38.309  37.021   7.148
 4804POPC   C4A63174  38.646  37.168   7.476
 4804POPC   C1B63175  38.229  36.641   6.154
 4804POPC   C2B63176  38.124  36.551   6.577
 4804POPC   C3B63177  38.351  36.532   6.937
 4804POPC   C4B63178  38.709  36.729   7.130
 4805POPC   NC363179  18.843  13.148   5.426
 4805POPC   PO463180  19.331  12.698   5.546
 4805POPC   GL163181  19.133  12.602   5.954
 4805POPC   GL263182  18.778  12.526   5.862
 4805POPC   C1A63183  19.149  12.765   6.391
 4805POPC   D2A63184  18.911  12.713   6.766
 4805POPC   C3A63185  19.109  12.789   7.170
 4805POPC   C4A63186  19.352  12.975   7.509
 4805POPC   C1B63187  18.656  12.781   6.240
 4805POPC   C2B63188  18.769  13.151   6.528
 4805POPC   C3B63189  18.695  13.146   6.987
 4805POPC   C4B63190  18.595  12.736   7.170
 4806POPC   NC363191   6.667  32.799   5.310
 4806POPC   PO463192   6.959  33.400   5.168
 4806POPC   GL163193   6.838  33.254   5.644
 4806POPC   GL263194   6.608  32.952   5.827
 4806POPC   C1A63195   6.851  33.280   6.120
 4806POPC   D2A63196   6.624  33.072   6.479
 4806POPC   C3A63197   6.774  33.198   6.899
 4806POPC   C4A63198   6.557  33.328   7.259
 4806POPC   C1B63199   6.282  32.812   6.180
 4806POPC   C2B63200   6.264  32.690   6.632
 4806POPC   C3B63201   6.479  32.791   7.017
 4806POPC   C4B63202   6.350  32.743   7.421
 4807POPC   NC363203  28.631   4.894   5.594
 4807POPC   PO463204  28.231   5.327   5.226
 4807POPC   GL163205  28.076   5.264   5.670
 4807POPC   GL263206  28.010   4.925   5.819
 4807POPC   C1A63207  28.250   5.262   6.117
 4807POPC   D2A63208  28.268   5.092   6.565
 4807POPC   C3A63209  28.656   5.101   6.796
 4807POPC   C4A63210  28.678   5.212   7.210
 4807POPC   C1B63211  28.281   4.741   6.184
 4807POPC   C2B63212  28.262   4.574   6.627
 4807POPC   C3B63213  28.283   4.818   7.029
 4807POPC   C4B63214  28.187   5.144   7.317
 4808POPC   NC363215  15.342  36.200   5.219
 4808POPC   PO463216  15.980  36.033   5.330
 4808POPC   GL163217  15.977  36.177   5.742
 4808POPC   GL263218  15.644  36.320   5.788
 4808POPC   C1A63219  16.021  36.131   6.179
 4808POPC   D2A63220  15.881  36.290   6.595
 4808POPC   C3A63221  16.014  36.118   6.968
 4808POPC   C4A63222  16.166  36.276   7.348
 4808POPC   C1B63223  15.532  36.126   6.204
 4808POPC   C2B63224  15.575  35.882   6.600
 4808POPC   C3B63225  15.534  35.951   7.031
 4808POPC   C4B63226  15.666  36.206   7.359
 4809POPC   NC363227  35.740   6.995   5.205
 4809POPC   PO463228  35.647   6.343   5.411
 4809POPC   GL163229  35.371   6.625   5.608
 4809POPC   GL263230  35.102   6.436   5.694
 4809POPC   C1A63231  35.223   6.847   6.013
 4809POPC   D2A63232  34.969   6.826   6.411
 4809POPC   C3A63233  35.201   6.842   6.800
 4809POPC   C4A63234  35.092   6.997   7.187
 4809POPC   C1B63235  35.053   6.360   6.147
 4809POPC   C2B63236  35.206   6.359   6.573
 4809POPC   C3B63237  35.059   6.397   7.014
 4809POPC   C4B63238  35.410   6.369   7.296
 4810POPC   NC363239  44.876  40.120   5.427
 4810POPC   PO463240  44.638  39.587   5.176
 4810POPC   GL163241  44.600  39.730   5.656
 4810POPC   GL263242  44.777  39.470   5.817
 4810POPC   C1A63243  44.651  39.993   6.096
 4810POPC   D2A63244  44.849  39.933   6.559
 4810POPC   C3A63245  44.660  40.118   6.978
 4810POPC   C4A63246  44.570  40.327   7.392
 4810POPC   C1B63247  44.667  39.512   6.239
 4810POPC   C2B63248  44.677  39.457   6.668
 4810POPC   C3B63249  44.879  39.662   7.031
 4810POPC   C4B63250  44.595  39.684   7.368
 4811POPC   NC363251  42.480  17.170   5.541
 4811POPC   PO463252  42.233  16.512   5.504
 4811POPC   GL163253  42.564  16.599   5.814
 4811POPC   GL263254  42.407  16.887   5.975
 4811POPC   C1A63255  42.525  16.484   6.256
 4811POPC   D2A63256  42.122  16.666   6.450
 4811POPC   C3A63257  42.021  16.599   6.866
 4811POPC   C4A63258  42.304  16.530   7.226
 4811POPC   C1B63259  42.537  16.985   6.406
 4811POPC   C2B63260  42.453  16.869   6.861
 4811POPC   C3B63261  42.663  16.997   7.261
 4811POPC   C4B63262  42.631  17.198   7.692
 4812POPC   NC363263  26.211  34.589   5.325
 4812POPC   PO463264  25.563  34.768   5.310
 4812POPC   GL163265  25.788  34.582   5.700
 4812POPC   GL263266  26.151  34.522   5.837
 4812POPC   C1A63267  25.783  34.662   6.163
 4812POPC   D2A63268  26.028  34.583   6.550
 4812POPC   C3A63269  25.866  34.691   6.944
 4812POPC   C4A63270  25.826  34.417   7.279
 4812POPC   C1B63271  26.310  34.827   6.190
 4812POPC   C2B63272  26.340  35.012   6.587
 4812POPC   C3B63273  26.378  34.805   6.956
 4812POPC   C4B63274  26.195  34.753   7.338
 4813POPC   NC363275  38.467  41.956   5.416
 4813POPC   PO463276  38.486  41.276   5.668
 4813POPC   GL163277  38.516  41.671   5.840
 4813POPC   GL263278  38.197  41.797   5.834
 4813POPC   C1A63279  38.693  41.681   6.225
 4813POPC   D2A63280  38.818  41.357   6.483
 4813POPC   C3A63281  38.600  41.386   6.861
 4813POPC   C4A63282  38.628  41.502   7.268
 4813POPC   C1B63283  38.152  41.589   6.236
 4813POPC   C2B63284  38.119  41.583   6.686
 4813POPC   C3B63285  38.155  41.645   7.121
 4813POPC   C4B63286  38.125  41.289   7.377
 4814POPC   NC363287  38.909  35.505   5.391
 4814POPC   PO463288  39.536  35.613   5.329
 4814POPC   GL163289  39.330  35.343   5.677
 4814POPC   GL263290  39.551  35.145   5.896
 4814POPC   C1A63291  39.092  35.310   6.085
 4814POPC   D2A63292  39.158  35.552   6.480
 4814POPC   C3A63293  39.013  35.520   6.891
 4814POPC   C4A63294  39.129  35.564   7.321
 4814POPC   C1B63295  39.542  35.177   6.350
 4814POPC   C2B63296  39.281  35.107   6.706
 4814POPC   C3B63297  39.216  35.112   7.125
 4814POPC   C4B63298  39.462  35.189   7.452
 4815POPC   NC363299  20.929  11.080   5.450
 4815POPC   PO463300  20.459  11.622   5.288
 4815POPC   GL163301  20.470  11.363   5.671
 4815POPC   GL263302  20.800  11.409   5.827
 4815POPC   C1A63303  20.377  11.238   6.108
 4815POPC   D2A63304  20.355  11.176   6.557
 4815POPC   C3A63305  20.580  11.495   6.800
 4815POPC   C4A63306  20.780  11.555   7.180
 4815POPC   C1B63307  20.882  11.293   6.270
 4815POPC   C2B63308  20.873  11.084   6.677
 4815POPC   C3B63309  20.792  11.002   7.125
 4815POPC   C4B63310  20.856  11.044   7.590
 4816POPC   NC363311   9.686  32.223   4.931
 4816POPC   PO463312   9.672  31.985   5.453
 4816POPC   GL163313   9.693  32.193   5.915
 4816POPC   GL263314   9.784  32.552   5.912
 4816POPC   C1A63315   9.566  32.370   6.368
 4816POPC   D2A63316   9.554  32.452   6.849
 4816POPC   C3A63317   9.761  32.143   7.156
 4816POPC   C4A63318   9.713  31.701   7.283
 4816POPC   C1B63319  10.064  32.398   6.275
 4816POPC   C2B63320  10.059  32.351   6.748
 4816POPC   C3B63321  10.267  32.160   7.110
 4816POPC   C4B63322  10.230  31.795   7.390
 4817POPC   NC363323   3.152  13.435   5.404
 4817POPC   PO463324   3.723  13.605   5.204
 4817POPC   GL163325   3.604  13.610   5.685
 4817POPC   GL263326   3.283  13.669   5.849
 4817POPC   C1A63327   3.641  13.444   6.154
 4817POPC   D2A63328   3.494  13.401   6.627
 4817POPC   C3A63329   3.728  13.480   7.035
 4817POPC   C4A63330   3.967  13.849   7.165
 4817POPC   C1B63331   3.079  13.617   6.268
 4817POPC   C2B63332   3.017  13.664   6.717
 4817POPC   C3B63333   3.077  13.886   7.127
 4817POPC   C4B63334   3.471  13.792   7.402
 4818POPC   NC363335  30.899   5.100   5.399
 4818POPC   PO463336  30.350   5.279   5.674
 4818POPC   GL163337  30.674   5.026   5.883
 4818POPC   GL263338  31.013   4.920   5.874
 4818POPC   C1A63339  30.707   4.982   6.294
 4818POPC   D2A63340  30.659   5.264   6.588
 4818POPC   C3A63341  30.813   5.165   6.979
 4818POPC   C4A63342  30.625   5.152   7.381
 4818POPC   C1B63343  30.969   5.391   6.103
 4818POPC   C2B63344  30.956   5.665   6.517
 4818POPC   C3B63345  31.123   5.583   6.950
 4818POPC   C4B63346  31.073   5.391   7.353
 4819POPC   NC363347  14.408   3.857   5.482
 4819POPC   PO463348  14.066   3.304   5.649
 4819POPC   GL163349  14.442   3.455   5.891
 4819POPC   GL263350  14.353   3.799   5.967
 4819POPC   C1A63351  14.634   3.584   6.320
 4819POPC   D2A63352  14.494   3.898   6.630
 4819POPC   C3A63353  14.511   3.686   7.015
 4819POPC   C4A63354  14.469   3.232   7.046
 4819POPC   C1B63355  14.112   3.581   6.265
 4819POPC   C2B63356  14.194   3.464   6.654
 4819POPC   C3B63357  14.028   3.489   7.024
 4819POPC   C4B63358  14.212   3.497   7.396
 4820POPC   NC363359  34.927  10.583   5.488
 4820POPC   PO463360  34.285  10.377   5.526
 4820POPC   GL163361  34.536  10.497   5.868
 4820POPC   GL263362  34.807  10.244   5.864
 4820POPC   C1A63363  34.714  10.626   6.271
 4820POPC   D2A63364  34.999  10.741   6.643
 4820POPC   C3A63365  34.680  10.738   7.028
 4820POPC   C4A63366  34.527  10.950   7.414
 4820POPC   C1B63367  34.885  10.152   6.299
 4820POPC   C2B63368  34.759  10.307   6.709
 4820POPC   C3B63369  34.997  10.359   7.101
 4820POPC   C4B63370  34.873  10.220   7.529
 4821POPC   NC363371   5.179  42.382   5.361
 4821POPC   PO463372   5.581  42.791   5.516
 4821POPC   GL163373   5.289  42.545   5.847
 4821POPC   GL263374   5.118  42.192   5.842
 4821POPC   C1A63375   5.161  42.442   6.293
 4821POPC   D2A63376   5.323  42.340   6.703
 4821POPC   C3A63377   5.109  42.137   7.067
 4821POPC   C4A63378   4.943  42.326   7.466
 4821POPC   C1B63379   5.317  41.953   6.194
 4821POPC   C2B63380   5.471  41.859   6.639
 4821POPC   C3B63381   5.483  41.735   7.099
 4821POPC   C4B63382   5.361  42.021   7.492
 4822POPC   NC363383  35.326  41.055   5.396
 4822POPC   PO463384  35.513  40.410   5.331
 4822POPC   GL163385  35.245  40.586   5.655
 4822POPC   GL263386  35.290  40.906   5.861
 4822POPC   C1A63387  35.237  40.479   6.098
 4822POPC   D2A63388  35.369  40.629   6.464
 4822POPC   C3A63389  35.157  40.626   6.841
 4822POPC   C4A63390  35.339  40.607   7.250
 4822POPC   C1B63391  35.431  41.077   6.264
 4822POPC   C2B63392  35.450  41.053   6.743
 4822POPC   C3B63393  35.449  41.125   7.192
 4822POPC   C4B63394  35.332  40.970   7.603
 4823POPC   NC363395  19.411   2.253   5.354
 4823POPC   PO463396  18.767   1.926   5.298
 4823POPC   GL163397  19.062   1.888   5.620
 4823POPC   GL263398  19.017   2.216   5.735
 4823POPC   C1A63399  19.259   1.794   6.043
 4823POPC   D2A63400  19.119   1.879   6.474
 4823POPC   C3A63401  19.272   1.817   6.900
 4823POPC   C4A63402  19.125   1.987   7.287
 4823POPC   C1B63403  18.983   2.315   6.189
 4823POPC   C2B63404  18.990   2.352   6.645
 4823POPC   C3B63405  19.117   2.445   7.089
 4823POPC   C4B63406  19.447   2.429   7.433
 4824POPC   NC363407  33.759  33.494   5.330
 4824POPC   PO463408  33.670  34.154   5.425
 4824POPC   GL163409  33.864  33.788   5.726
 4824POPC   GL263410  33.642  33.463   5.829
 4824POPC   C1A63411  34.020  33.625   6.148
 4824POPC   D2A63412  33.980  33.397   6.558
 4824POPC   C3A63413  33.931  33.663   6.932
 4824POPC   C4A63414  33.979  33.775   7.386
 4824POPC   C1B63415  33.533  33.506   6.297
 4824POPC   C2B63416  33.489  33.483   6.761
 4824POPC   C3B63417  33.550  33.465   7.230
 4824POPC   C4B63418  33.519  33.720   7.621
 4825POPC   NC363419  44.134  14.961   5.312
 4825POPC   PO463420  43.532  15.190   5.177
 4825POPC   GL163421  43.695  14.969   5.629
 4825POPC   GL263422  44.060  14.865   5.813
 4825POPC   C1A63423  43.614  15.006   6.100
 4825POPC   D2A63424  43.729  15.168   6.535
 4825POPC   C3A63425  43.646  15.052   6.966
 4825POPC   C4A63426  43.484  15.411   7.220
 4825POPC   C1B63427  44.109  14.922   6.295
 4825POPC   C2B63428  44.144  14.942   6.797
 4825POPC   C3B63429  44.200  15.114   7.260
 4825POPC   C4B63430  44.098  14.988   7.732
 4826POPC   NC363431  36.686  38.233   5.445
 4826POPC   PO463432  37.079  38.745   5.256
 4826POPC   GL163433  36.995  38.560   5.685
 4826POPC   GL263434  36.666  38.616   5.798
 4826POPC   C1A63435  37.035  38.429   6.107
 4826POPC   D2A63436  36.833  38.659   6.391
 4826POPC   C3A63437  37.016  38.629   6.787
 4826POPC   C4A63438  36.927  38.602   7.214
 4826POPC   C1B63439  36.573  38.276   6.116
 4826POPC   C2B63440  36.788  38.192   6.542
 4826POPC   C3B63441  36.621  38.289   6.947
 4826POPC   C4B63442  36.665  38.167   7.354
 4827POPC   NC363443   5.747  11.764   5.400
 4827POPC   PO463444   5.846  12.418   5.217
 4827POPC   GL163445   5.873  12.189   5.629
 4827POPC   GL263446   6.145  11.947   5.691
 4827POPC   C1A63447   5.713  12.008   6.047
 4827POPC   D2A63448   5.755  12.249   6.453
 4827POPC   C3A63449   5.769  12.199   6.931
 4827POPC   C4A63450   5.751  12.498   7.278
 4827POPC   C1B63451   6.202  11.932   6.179
 4827POPC   C2B63452   6.045  11.887   6.644
 4827POPC   C3B63453   6.137  11.878   7.138
 4827POPC   C4B63454   6.234  11.728   7.626
 4828POPC   NC363455  22.449  18.357   5.424
 4828POPC   PO463456  21.901  17.966   5.536
 4828POPC   GL163457  22.121  18.230   5.822
 4828POPC   GL263458  22.393  17.966   5.795
 4828POPC   C1A63459  21.984  18.423   6.237
 4828POPC   D2A63460  22.173  18.452   6.670
 4828POPC   C3A63461  22.030  18.523   7.124
 4828POPC   C4A63462  22.222  18.561   7.553
 4828POPC   C1B63463  22.254  17.924   6.233
 4828POPC   C2B63464  22.375  17.760   6.629
 4828POPC   C3B63465  22.625  17.869   6.996
 4828POPC   C4B63466  22.470  18.064   7.326
 4829POPC   NC363467  39.923  23.183   5.526
 4829POPC   PO463468  40.226  22.696   5.256
 4829POPC   GL163469  40.264  22.855   5.734
 4829POPC   GL263470  40.391  23.193   5.794
 4829POPC   C1A63471  39.987  23.010   6.127
 4829POPC   D2A63472  39.935  23.243   6.508
 4829POPC   C3A63473  39.886  23.027   6.854
 4829POPC   C4A63474  39.893  23.036   7.287
 4829POPC   C1B63475  40.295  23.384   6.185
 4829POPC   C2B63476  40.331  23.599   6.564
 4829POPC   C3B63477  40.192  23.427   6.939
 4829POPC   C4B63478  40.352  23.422   7.315
 4830POPC   NC363479   8.540  25.851   5.395
 4830POPC   PO463480   9.243  26.037   5.489
 4830POPC   GL163481   9.018  26.045   5.855
 4830POPC   GL263482   8.683  25.974   5.862
 4830POPC   C1A63483   9.025  26.030   6.283
 4830POPC   D2A63484   9.341  26.078   6.583
 4830POPC   C3A63485   9.164  25.989   6.971
 4830POPC   C4A63486   9.090  26.214   7.341
 4830POPC   C1B63487   8.685  26.386   6.108
 4830POPC   C2B63488   8.752  26.583   6.521
 4830POPC   C3B63489   8.858  26.443   6.939
 4830POPC   C4B63490   8.673  26.466   7.363
 4831POPC   NC363491  18.250  28.297   5.291
 4831POPC   PO463492  18.213  28.811   5.598
 4831POPC   GL163493  18.167  28.389   5.822
 4831POPC   GL263494  18.449  28.157   5.761
 4831POPC   C1A63495  18.148  28.182   6.255
 4831POPC   D2A63496  18.302  28.008   6.672
 4831POPC   C3A63497  18.106  28.150   7.050
 4831POPC   C4A63498  18.156  28.520   7.290
 4831POPC   C1B63499  18.596  28.417   6.140
 4831POPC   C2B63500  18.574  28.470   6.614
 4831POPC   C3B63501  18.602  28.339   7.084
 4831POPC   C4B63502  18.664  28.396   7.568
 4832POPC   NC363503  34.627  31.158   5.051
 4832POPC   PO463504  34.341  31.669   5.423
 4832POPC   GL163505  34.615  31.418   5.705
 4832POPC   GL263506  34.577  31.671   5.962
 4832POPC   C1A63507  34.568  31.187   6.129
 4832POPC   D2A63508  34.271  31.291   6.486
 4832POPC   C3A63509  34.437  31.228   6.902
 4832POPC   C4A63510  34.420  30.944   7.256
 4832POPC   C1B63511  34.711  31.900   6.326
 4832POPC   C2B63512  34.417  31.779   6.644
 4832POPC   C3B63513  34.339  31.833   7.038
 4832POPC   C4B63514  34.414  31.515   7.333
 4833POPC   NC363515   6.687   7.733   5.441
 4833POPC   PO463516   6.511   8.327   5.305
 4833POPC   GL163517   6.649   8.175   5.694
 4833POPC   GL263518   6.867   8.314   5.815
 4833POPC   C1A63519   6.515   8.132   6.142
 4833POPC   D2A63520   6.659   8.029   6.537
 4833POPC   C3A63521   6.615   8.276   6.916
 4833POPC   C4A63522   6.235   8.293   7.130
 4833POPC   C1B63523   7.011   8.038   6.137
 4833POPC   C2B63524   7.179   7.942   6.528
 4833POPC   C3B63525   6.965   7.860   6.902
 4833POPC   C4B63526   6.758   7.875   7.273
 4834POPC   NC363527  29.201  32.054   5.445
 4834POPC   PO463528  29.098  32.685   5.470
 4834POPC   GL163529  29.060  32.466   5.819
 4834POPC   GL263530  28.781  32.290   5.725
 4834POPC   C1A63531  29.194  32.379   6.212
 4834POPC   D2A63532  29.207  32.122   6.558
 4834POPC   C3A63533  29.303  32.286   6.938
 4834POPC   C4A63534  28.997  32.421   7.191
 4834POPC   C1B63535  28.844  32.046   6.098
 4834POPC   C2B63536  28.722  31.947   6.513
 4834POPC   C3B63537  28.858  31.972   6.947
 4834POPC   C4B63538  28.716  32.020   7.392
 4835POPC   NC363539  14.075  15.227   5.242
 4835POPC   PO463540  14.706  15.152   5.508
 4835POPC   GL163541  14.543  15.230   5.844
 4835POPC   GL263542  14.254  15.006   5.770
 4835POPC   C1A63543  14.680  15.206   6.241
 4835POPC   D2A63544  14.699  14.903   6.565
 4835POPC   C3A63545  14.705  15.139   6.920
 4835POPC   C4A63546  14.649  15.404   7.268
 4835POPC   C1B63547  14.263  14.911   6.215
 4835POPC   C2B63548  14.082  15.066   6.581
 4835POPC   C3B63549  14.062  14.924   6.959
 4835POPC   C4B63550  14.365  14.958   7.256
 4836POPC   NC363551  38.537  11.870   5.547
 4836POPC   PO463552  38.923  12.410   5.467
 4836POPC   GL163553  38.648  12.320   5.815
 4836POPC   GL263554  38.324  12.429   5.654
 4836POPC   C1A63555  38.385  12.089   6.162
 4836POPC   D2A63556  38.323  11.807   6.506
 4836POPC   C3A63557  38.219  12.007   6.887
 4836POPC   C4A63558  38.197  11.868   7.314
 4836POPC   C1B63559  38.271  12.559   6.069
 4836POPC   C2B63560  38.327  12.495   6.518
 4836POPC   C3B63561  38.350  12.507   6.982
 4836POPC   C4B63562  38.401  12.304   7.402
 4837POPC   NC363563  41.237  21.439   5.566
 4837POPC   PO463564  41.513  22.152   5.288
 4837POPC   GL163565  41.438  22.311   5.750
 4837POPC   GL263566  41.161  22.194   5.925
 4837POPC   C1A63567  41.453  22.553   6.148
 4837POPC   D2A63568  41.342  22.653   6.594
 4837POPC   C3A63569  41.692  22.576   6.917
 4837POPC   C4A63570  41.782  22.491   7.384
 4837POPC   C1B63571  41.355  22.081   6.295
 4837POPC   C2B63572  41.474  22.156   6.713
 4837POPC   C3B63573  41.708  21.889   6.965
 4837POPC   C4B63574  41.771  21.510   7.183
 4838POPC   NC363575  12.011   8.399   5.216
 4838POPC   PO463576  12.427   7.928   5.476
 4838POPC   GL163577  12.190   8.204   5.765
 4838POPC   GL263578  11.846   8.310   5.708
 4838POPC   C1A63579  12.115   8.059   6.186
 4838POPC   D2A63580  12.317   7.880   6.557
 4838POPC   C3A63581  12.070   8.011   6.892
 4838POPC   C4A63582  12.162   8.201   7.262
 4838POPC   C1B63583  11.729   8.412   6.151
 4838POPC   C2B63584  11.779   8.592   6.582
 4838POPC   C3B63585  11.779   8.430   7.016
 4838POPC   C4B63586  11.675   8.065   7.306
 4839POPC   NC363587  12.857  23.305   5.390
 4839POPC   PO463588  13.077  22.652   5.483
 4839POPC   GL163589  12.861  23.016   5.794
 4839POPC   GL263590  12.535  23.274   5.766
 4839POPC   C1A63591  13.009  23.118   6.207
 4839POPC   D2A63592  13.114  22.914   6.601
 4839POPC   C3A63593  12.871  22.971   6.978
 4839POPC   C4A63594  12.725  22.582   7.162
 4839POPC   C1B63595  12.480  23.170   6.180
 4839POPC   C2B63596  12.641  23.257   6.577
 4839POPC   C3B63597  12.374  23.366   6.913
 4839POPC   C4B63598  12.491  23.327   7.317
 4840POPC   NC363599   5.466  26.621   5.454
 4840POPC   PO463600   4.949  26.167   5.472
 4840POPC   GL163601   5.092  26.593   5.828
 4840POPC   GL263602   5.322  26.948   5.832
 4840POPC   C1A63603   5.191  26.763   6.308
 4840POPC   D2A63604   5.047  26.762   6.778
 4840POPC   C3A63605   5.214  26.734   7.216
 4840POPC   C4A63606   5.207  26.515   7.645
 4840POPC   C1B63607   5.407  27.218   6.216
 4840POPC   C2B63608   5.326  27.212   6.670
 4840POPC   C3B63609   5.360  27.223   7.124
 4840POPC   C4B63610   5.023  27.189   7.430
 4841POPC   NC363611  44.638  37.384   5.351
 4841POPC   PO463612  44.642  38.074   5.378
 4841POPC   GL163613  44.760  37.772   5.728
 4841POPC   GL263614  44.446  37.602   5.786
 4841POPC   C1A63615  44.766  37.701   6.205
 4841POPC   D2A63616  44.508  37.849   6.558
 4841POPC   C3A63617  44.670  37.933   6.964
 4841POPC   C4A63618  44.782  37.710   7.336
 4841POPC   C1B63619  44.367  37.349   6.161
 4841POPC   C2B63620  44.542  37.321   6.561
 4841POPC   C3B63621  44.678  37.375   6.970
 4841POPC   C4B63622  44.388  37.347   7.339
 4842POPC   NC363623  43.580  28.892   5.540
 4842POPC   PO463624  43.579  29.470   5.531
 4842POPC   GL163625  43.652  29.250   5.930
 4842POPC   GL263626  43.580  28.898   6.050
 4842POPC   C1A63627  43.643  29.305   6.377
 4842POPC   D2A63628  43.448  29.515   6.661
 4842POPC   C3A63629  43.579  29.478   7.098
 4842POPC   C4A63630  43.564  29.128   7.386
 4842POPC   C1B63631  44.011  28.995   6.236
 4842POPC   C2B63632  44.112  29.255   6.612
 4842POPC   C3B63633  44.069  29.147   7.067
 4842POPC   C4B63634  44.336  28.809   7.269
 4843POPC   NC363635  26.725  24.683   5.410
 4843POPC   PO463636  26.630  23.982   5.400
 4843POPC   GL163637  26.694  24.307   5.774
 4843POPC   GL263638  27.045  24.441   5.745
 4843POPC   C1A63639  26.545  24.508   6.195
 4843POPC   D2A63640  26.295  24.305   6.541
 4843POPC   C3A63641  26.500  24.223   6.956
 4843POPC   C4A63642  26.811  24.489   7.149
 4843POPC   C1B63643  27.045  24.633   6.170
 4843POPC   C2B63644  27.069  24.788   6.636
 4843POPC   C3B63645  27.271  24.698   7.054
 4843POPC   C4B63646  27.216  24.557   7.485
 4844POPC   NC363647  23.536  10.153   5.543
 4844POPC   PO463648  23.764  10.828   5.420
 4844POPC   GL163649  23.627  10.688   5.826
 4844POPC   GL263650  23.673  10.396   5.991
 4844POPC   C1A63651  23.404  10.906   6.170
 4844POPC   D2A63652  23.249  10.825   6.584
 4844POPC   C3A63653  23.472  10.496   6.808
 4844POPC   C4A63654  23.609  10.441   7.242
 4844POPC   C1B63655  23.551  10.039   6.230
 4844POPC   C2B63656  23.450  10.016   6.644
 4844POPC   C3B63657  23.786  10.086   6.938
 4844POPC   C4B63658  23.807   9.987   7.366
 4845POPC   NC363659   5.574   7.271   5.644
 4845POPC   PO463660   5.249   7.794   5.421
 4845POPC   GL163661   5.090   7.469   5.752
 4845POPC   GL263662   4.789   7.241   5.767
 4845POPC   C1A63663   5.119   7.386   6.195
 4845POPC   D2A63664   5.304   7.253   6.588
 4845POPC   C3A63665   5.138   7.480   6.900
 4845POPC   C4A63666   5.222   7.343   7.264
 4845POPC   C1B63667   4.749   7.030   6.185
 4845POPC   C2B63668   4.781   7.217   6.616
 4845POPC   C3B63669   4.729   7.220   7.065
 4845POPC   C4B63670   4.862   7.019   7.427
 4846POPC   NC363671  16.449  40.818   5.421
 4846POPC   PO463672  17.011  40.535   5.525
 4846POPC   GL163673  16.693  40.574   5.804
 4846POPC   GL263674  16.799  40.871   5.945
 4846POPC   C1A63675  16.517  40.484   6.191
 4846POPC   D2A63676  16.616  40.354   6.609
 4846POPC   C3A63677  16.676  40.692   6.874
 4846POPC   C4A63678  16.906  40.626   7.206
 4846POPC   C1B63679  16.927  41.182   6.250
 4846POPC   C2B63680  16.871  41.264   6.677
 4846POPC   C3B63681  16.977  41.091   7.062
 4846POPC   C4B63682  16.589  41.006   7.306
 4847POPC   NC363683  25.960  39.492   5.416
 4847POPC   PO463684  26.381  38.913   5.351
 4847POPC   GL163685  26.094  39.059   5.709
 4847POPC   GL263686  26.262  39.369   5.834
 4847POPC   C1A63687  25.906  39.160   6.160
 4847POPC   D2A63688  26.033  39.335   6.604
 4847POPC   C3A63689  25.921  39.116   7.016
 4847POPC   C4A63690  25.828  39.302   7.444
 4847POPC   C1B63691  26.419  39.254   6.255
 4847POPC   C2B63692  26.535  39.365   6.698
 4847POPC   C3B63693  26.389  39.293   7.148
 4847POPC   C4B63694  26.452  39.504   7.573
 4848POPC   NC363695  28.371  35.264   5.577
 4848POPC   PO463696  28.828  35.043   5.944
 4848POPC   GL163697  28.372  35.047   6.084
 4848POPC   GL263698  28.029  35.186   5.948
 4848POPC   C1A63699  28.228  35.203   6.491
 4848POPC   D2A63700  27.939  35.495   6.740
 4848POPC   C3A63701  28.085  35.477   7.165
 4848POPC   C4A63702  28.445  35.338   7.411
 4848POPC   C1B63703  27.776  35.303   6.292
 4848POPC   C2B63704  27.795  34.991   6.661
 4848POPC   C3B63705  28.160  34.980   6.978
 4848POPC   C4B63706  28.154  34.930   7.451
 4849POPC   NC363707   6.229   3.458   5.460
 4849POPC   PO463708   5.560   3.464   5.500
 4849POPC   GL163709   5.863   3.485   5.846
 4849POPC   GL263710   6.068   3.182   5.874
 4849POPC   C1A63711   6.026   3.604   6.262
 4849POPC   D2A63712   6.193   3.660   6.676
 4849POPC   C3A63713   5.847   3.715   6.916
 4849POPC   C4A63714   5.567   3.821   7.212
 4849POPC   C1B63715   5.790   3.139   6.253
 4849POPC   C2B63716   5.804   3.224   6.706
 4849POPC   C3B63717   6.000   3.256   7.124
 4849POPC   C4B63718   6.258   3.221   7.510
 4850POPC   NC363719  21.402  39.654   5.325
 4850POPC   PO463720  21.103  40.241   5.483
 4850POPC   GL163721  21.335  40.049   5.848
 4850POPC   GL263722  21.608  39.823   5.775
 4850POPC   C1A63723  21.194  40.005   6.268
 4850POPC   D2A63724  21.019  40.309   6.527
 4850POPC   C3A63725  21.114  40.256   6.963
 4850POPC   C4A63726  21.315  39.966   7.257
 4850POPC   C1B63727  21.642  39.742   6.226
 4850POPC   C2B63728  21.533  39.808   6.672
 4850POPC   C3B63729  21.561  39.549   7.043
 4850POPC   C4B63730  21.848  39.441   7.338
 4851POPC   NC363731  44.510  33.059   5.190
 4851POPC   PO463732  44.555  33.608   5.466
 4851POPC   GL163733  44.741  33.279   5.749
 4851POPC   GL263734  44.602  32.951   5.704
 4851POPC   C1A63735  44.770  33.122   6.198
 4851POPC   D2A63736  44.561  33.180   6.630
 4851POPC   C3A63737  44.634  32.933   7.036
 4851POPC   C4A63738  44.598  32.941   7.501
 4851POPC   C1B63739  44.366  32.849   6.062
 4851POPC   C2B63740  44.322  32.737   6.471
 4851POPC   C3B63741  44.182  32.871   6.844
 4851POPC   C4B63742  44.193  32.729   7.251
 4852POPC   NC363743  34.103  30.342   5.293
 4852POPC   PO463744  34.649  30.765   5.321
 4852POPC   GL163745  34.558  30.717   5.753
 4852POPC   GL263746  34.234  30.529   5.756
 4852POPC   C1A63747  34.807  30.716   6.146
 4852POPC   D2A63748  34.887  30.960   6.508
 4852POPC   C3A63749  34.791  30.833   6.916
 4852POPC   C4A63750  34.741  30.553   7.267
 4852POPC   C1B63751  34.442  30.370   6.128
 4852POPC   C2B63752  34.601  30.479   6.558
 4852POPC   C3B63753  34.354  30.516   6.949
 4852POPC   C4B63754  34.236  30.447   7.386
 4853POPC   NC363755  16.035  34.651   5.406
 4853POPC   PO463756  15.908  34.113   5.519
 4853POPC   GL163757  16.258  34.237   5.783
 4853POPC   GL263758  16.278  34.630   5.863
 4853POPC   C1A63759  16.165  34.298   6.222
 4853POPC   D2A63760  16.078  34.693   6.466
 4853POPC   C3A63761  15.886  34.610   6.881
 4853POPC   C4A63762  15.698  34.706   7.277
 4853POPC   C1B63763  16.337  35.026   6.140
 4853POPC   C2B63764  16.252  35.174   6.562
 4853POPC   C3B63765  16.314  34.869   6.901
 4853POPC   C4B63766  16.266  34.998   7.298
 4854POPC   NC363767  16.045  12.123   5.218
 4854POPC   PO463768  15.322  12.186   5.134
 4854POPC   GL163769  15.590  12.143   5.610
 4854POPC   GL263770  15.971  12.090   5.715
 4854POPC   C1A63771  15.663  12.084   6.112
 4854POPC   D2A63772  15.732  11.722   6.424
 4854POPC   C3A63773  15.921  11.796   6.843
 4854POPC   C4A63774  15.659  12.038   7.092
 4854POPC   C1B63775  16.266  12.078   6.057
 4854POPC   C2B63776  16.259  11.986   6.501
 4854POPC   C3B63777  16.364  12.094   6.935
 4854POPC   C4B63778  16.106  12.169   7.312
 4855POPC   NC363779   3.395  33.075   5.525
 4855POPC   PO463780   4.083  33.061   5.686
 4855POPC   GL163781   3.751  33.229   5.868
 4855POPC   GL263782   3.653  32.903   5.947
 4855POPC   C1A63783   3.568  33.310   6.276
 4855POPC   D2A63784   3.543  33.049   6.658
 4855POPC   C3A63785   3.703  33.149   7.099
 4855POPC   C4A63786   3.552  33.096   7.550
 4855POPC   C1B63787   3.258  32.944   6.141
 4855POPC   C2B63788   3.047  33.103   6.467
 4855POPC   C3B63789   3.077  33.161   6.865
 4855POPC   C4B63790   3.240  33.315   7.185
 4856POPC   NC363791  15.356  27.686   5.421
 4856POPC   PO463792  14.848  27.328   5.188
 4856POPC   GL163793  14.951  27.462   5.674
 4856POPC   GL263794  15.293  27.459   5.877
 4856POPC   C1A63795  14.962  27.740   6.081
 4856POPC   D2A63796  15.201  27.708   6.464
 4856POPC   C3A63797  15.010  27.424   6.774
 4856POPC   C4A63798  14.906  27.482   7.205
 4856POPC   C1B63799  15.620  27.621   6.174
 4856POPC   C2B63800  15.890  27.815   6.477
 4856POPC   C3B63801  15.738  27.864   6.889
 4856POPC   C4B63802  15.312  27.752   7.034
 4857POPC   NC363803  19.452  18.123   5.569
 4857POPC   PO463804  18.798  18.361   5.518
 4857POPC   GL163805  19.059  18.354   5.841
 4857POPC   GL263806  19.006  18.014   5.845
 4857POPC   C1A63807  18.914  18.419   6.228
 4857POPC   D2A63808  18.932  18.703   6.533
 4857POPC   C3A63809  18.864  18.463   6.879
 4857POPC   C4A63810  19.001  18.442   7.292
 4857POPC   C1B63811  18.969  17.899   6.262
 4857POPC   C2B63812  19.067  18.078   6.620
 4857POPC   C3B63813  19.011  17.981   7.039
 4857POPC   C4B63814  18.983  17.904   7.466
 4858POPC   NC363815   9.084  12.909   5.270
 4858POPC   PO463816   9.572  12.663   5.266
 4858POPC   GL163817   9.328  12.708   5.713
 4858POPC   GL263818   9.081  12.975   5.785
 4858POPC   C1A63819   9.203  12.706   6.214
 4858POPC   D2A63820   8.972  12.736   6.663
 4858POPC   C3A63821   9.057  12.572   7.120
 4858POPC   C4A63822   9.048  12.366   7.577
 4858POPC   C1B63823   8.965  13.190   6.193
 4858POPC   C2B63824   8.964  13.255   6.669
 4858POPC   C3B63825   8.893  13.074   7.123
 4858POPC   C4B63826   8.794  13.173   7.587
 4859POPC   NC363827   1.892  16.884   5.435
 4859POPC   PO463828   1.793  16.190   5.214
 4859POPC   GL163829   1.925  16.417   5.687
 4859POPC   GL263830   2.262  16.365   5.830
 4859POPC   C1A63831   1.872  16.656   6.128
 4859POPC   D2A63832   1.663  16.835   6.544
 4859POPC   C3A63833   1.863  16.831   6.973
 4859POPC   C4A63834   2.273  16.712   7.123
 4859POPC   C1B63835   2.188  16.282   6.253
 4859POPC   C2B63836   1.998  16.444   6.651
 4859POPC   C3B63837   1.934  16.333   7.092
 4859POPC   C4B63838   2.206  16.263   7.457
 4860POPC   NC363839  23.665  26.050   5.353
 4860POPC   PO463840  23.205  26.007   5.868
 4860POPC   GL163841  23.626  25.836   5.961
 4860POPC   GL263842  23.931  25.972   5.794
 4860POPC   C1A63843  23.731  25.764   6.400
 4860POPC   D2A63844  23.558  26.027   6.728
 4860POPC   C3A63845  23.557  25.887   7.151
 4860POPC   C4A63846  23.518  25.783   7.601
 4860POPC   C1B63847  23.981  26.169   6.189
 4860POPC   C2B63848  23.952  26.372   6.596
 4860POPC   C3B63849  23.920  26.282   7.028
 4860POPC   C4B63850  23.798  26.204   7.483
 4861POPC   NC363851  18.940  39.086   5.617
 4861POPC   PO463852  19.295  39.597   5.486
 4861POPC   GL163853  19.159  39.554   5.902
 4861POPC   GL263854  18.814  39.499   5.992
 4861POPC   C1A63855  19.188  39.343   6.301
 4861POPC   D2A63856  18.940  39.341   6.654
 4861POPC   C3A63857  19.153  39.250   7.022
 4861POPC   C4A63858  18.983  39.254   7.435
 4861POPC   C1B63859  18.652  39.162   6.259
 4861POPC   C2B63860  18.430  39.157   6.656
 4861POPC   C3B63861  18.653  39.114   7.023
 4861POPC   C4B63862  18.653  38.874   7.392
 4862POPC   NC363863  17.044  33.887   5.459
 4862POPC   PO463864  17.434  33.313   5.314
 4862POPC   GL163865  17.437  33.615   5.672
 4862POPC   GL263866  17.657  33.463   5.889
 4862POPC   C1A63867  17.392  33.868   6.088
 4862POPC   D2A63868  17.385  33.738   6.538
 4862POPC   C3A63869  17.373  33.927   6.931
 4862POPC   C4A63870  17.481  33.998   7.338
 4862POPC   C1B63871  17.803  33.546   6.287
 4862POPC   C2B63872  17.924  33.412   6.693
 4862POPC   C3B63873  17.643  33.426   7.034
 4862POPC   C4B63874  17.740  33.585   7.412
 4863POPC   NC363875  26.108  36.090   5.396
 4863POPC   PO463876  25.598  35.655   5.583
 4863POPC   GL163877  25.931  35.896   5.821
 4863POPC   GL263878  25.879  36.295   5.820
 4863POPC   C1A63879  26.199  36.083   6.154
 4863POPC   D2A63880  26.020  36.339   6.479
 4863POPC   C3A63881  26.183  36.196   6.904
 4863POPC   C4A63882  26.078  36.279   7.342
 4863POPC   C1B63883  25.594  36.461   6.155
 4863POPC   C2B63884  25.509  36.409   6.607
 4863POPC   C3B63885  25.671  36.235   6.985
 4863POPC   C4B63886  25.576  36.385   7.404
 4864POPC   NC363887  21.778  39.012   5.356
 4864POPC   PO463888  22.462  38.955   5.444
 4864POPC   GL163889  22.190  39.269   5.743
 4864POPC   GL263890  22.270  39.659   5.676
 4864POPC   C1A63891  21.981  39.339   6.206
 4864POPC   D2A63892  21.845  39.257   6.678
 4864POPC   C3A63893  22.109  39.108   7.058
 4864POPC   C4A63894  22.267  39.110   7.516
 4864POPC   C1B63895  22.405  39.635   6.115
 4864POPC   C2B63896  22.348  39.519   6.557
 4864POPC   C3B63897  22.160  39.605   6.947
 4864POPC   C4B63898  22.331  39.566   7.339
 4865POPC   NC363899  42.951   2.169   5.295
 4865POPC   PO463900  43.075   1.487   5.374
 4865POPC   GL163901  43.113   1.844   5.683
 4865POPC   GL263902  42.762   1.935   5.715
 4865POPC   C1A63903  43.216   2.037   6.119
 4865POPC   D2A63904  43.389   2.152   6.599
 4865POPC   C3A63905  43.201   1.953   7.016
 4865POPC   C4A63906  42.939   1.571   7.182
 4865POPC   C1B63907  42.705   2.131   6.106
 4865POPC   C2B63908  42.935   2.325   6.436
 4865POPC   C3B63909  42.863   2.344   6.885
 4865POPC   C4B63910  42.978   2.400   7.312
 4866POPC   NC363911  44.082  30.868   5.488
 4866POPC   PO463912  43.492  31.150   5.512
 4866POPC   GL163913  43.664  30.870   5.803
 4866POPC   GL263914  43.966  31.073   5.924
 4866POPC   C1A63915  43.710  30.749   6.214
 4866POPC   D2A63916  43.944  30.681   6.557
 4866POPC   C3A63917  43.688  30.597   6.890
 4866POPC   C4A63918  43.893  30.465   7.225
 4866POPC   C1B63919  44.031  31.157   6.362
 4866POPC   C2B63920  44.080  31.101   6.814
 4866POPC   C3B63921  44.281  30.822   7.130
 4866POPC   C4B63922  44.419  30.783   7.575
 4867POPC   NC363923   8.918   4.514   5.463
 4867POPC   PO463924   8.449   4.122   5.244
 4867POPC   GL163925   8.734   4.076   5.680
 4867POPC   GL263926   9.115   4.201   5.816
 4867POPC   C1A63927   8.727   4.228   6.130
 4867POPC   D2A63928   8.934   4.097   6.499
 4867POPC   C3A63929   8.864   4.201   6.937
 4867POPC   C4A63930   8.677   4.338   7.299
 4867POPC   C1B63931   9.199   4.458   6.228
 4867POPC   C2B63932   8.984   4.601   6.640
 4867POPC   C3B63933   9.101   4.608   7.144
 4867POPC   C4B63934   9.045   4.443   7.636
 4868POPC   NC363935  38.146  29.383   5.270
 4868POPC   PO463936  38.739  29.293   5.488
 4868POPC   GL163937  38.556  29.191   5.849
 4868POPC   GL263938  38.401  28.919   5.936
 4868POPC   C1A63939  38.684  29.095   6.291
 4868POPC   D2A63940  38.477  28.832   6.567
 4868POPC   C3A63941  38.629  29.003   6.928
 4868POPC   C4A63942  38.514  29.123   7.343
 4868POPC   C1B63943  38.255  29.362   6.186
 4868POPC   C2B63944  38.052  29.448   6.566
 4868POPC   C3B63945  38.178  29.216   6.889
 4868POPC   C4B63946  38.030  29.013   7.253
 4869POPC   NC363947  13.805  39.331   5.456
 4869POPC   PO463948  13.130  39.198   5.431
 4869POPC   GL163949  13.410  39.050   5.803
 4869POPC   GL263950  13.790  38.981   5.821
 4869POPC   C1A63951  13.554  39.255   6.198
 4869POPC   D2A63952  13.407  39.641   6.434
 4869POPC   C3A63953  13.459  39.667   6.896
 4869POPC   C4A63954  13.723  39.424   7.211
 4869POPC   C1B63955  14.034  39.056   6.173
 4869POPC   C2B63956  13.879  39.140   6.609
 4869POPC   C3B63957  13.873  38.892   6.991
 4869POPC   C4B63958  13.961  38.978   7.438
 4870POPC   NC363959  25.664  41.372   5.539
 4870POPC   PO463960  26.358  41.576   5.406
 4870POPC   GL163961  26.077  41.603   5.778
 4870POPC   GL263962  26.060  41.241   5.865
 4870POPC   C1A63963  26.081  41.742   6.217
 4870POPC   D2A63964  26.235  41.887   6.636
 4870POPC   C3A63965  26.011  41.730   6.994
 4870POPC   C4A63966  26.186  41.676   7.408
 4870POPC   C1B63967  25.741  41.320   6.191
 4870POPC   C2B63968  25.624  41.441   6.612
 4870POPC   C3B63969  25.669  41.184   6.952
 4870POPC   C4B63970  25.975  41.229   7.229
 4871POPC   NC363971  16.511  25.564   5.464
 4871POPC   PO463972  16.896  26.150   5.394
 4871POPC   GL163973  16.794  26.119   5.805
 4871POPC   GL263974  16.863  25.789   5.799
 4871POPC   C1A63975  16.947  26.210   6.249
 4871POPC   D2A63976  16.987  26.341   6.692
 4871POPC   C3A63977  16.992  26.070   7.043
 4871POPC   C4A63978  16.778  26.313   7.324
 4871POPC   C1B63979  16.621  25.800   6.201
 4871POPC   C2B63980  16.671  25.886   6.652
 4871POPC   C3B63981  16.457  26.093   6.993
 4871POPC   C4B63982  16.405  25.991   7.435
 4872POPC   NC363983  43.009  10.961   5.328
 4872POPC   PO463984  43.042  10.347   5.382
 4872POPC   GL163985  43.055  10.620   5.771
 4872POPC   GL263986  43.001  10.987   5.831
 4872POPC   C1A63987  43.256  10.693   6.185
 4872POPC   D2A63988  43.292  10.445   6.551
 4872POPC   C3A63989  43.380  10.510   6.970
 4872POPC   C4A63990  43.105  10.319   7.308
 4872POPC   C1B63991  42.727  10.806   6.147
 4872POPC   C2B63992  42.681  10.503   6.462
 4872POPC   C3B63993  42.800  10.511   6.909
 4872POPC   C4B63994  43.037  10.821   7.173
 4873POPC   NC363995  41.403  41.582   4.969
 4873POPC   PO463996  41.742  41.615   5.522
 4873POPC   GL163997  41.432  41.652   5.821
 4873POPC   GL263998  41.462  41.340   5.934
 4873POPC   C1A63999  41.441  41.730   6.282
 4873POPC   D2A64000  41.298  41.628   6.704
 4873POPC   C3A64001  41.559  41.864   6.980
 4873POPC   C4A64002  41.987  41.919   7.089
 4873POPC   C1B64003  41.841  41.402   6.209
 4873POPC   C2B64004  41.878  41.615   6.640
 4873POPC   C3B64005  41.823  41.433   7.054
 4873POPC   C4B64006  41.406  41.387   7.156
 4874POPC   NC364007  19.184  14.088   5.443
 4874POPC   PO464008  18.797  13.600   5.404
 4874POPC   GL164009  19.144  13.628   5.709
 4874POPC   GL264010  18.946  13.843   5.874
 4874POPC   C1A64011  19.415  13.537   6.113
 4874POPC   D2A64012  19.598  13.271   6.492
 4874POPC   C3A64013  19.249  13.133   6.771
 4874POPC   C4A64014  19.151  13.295   7.176
 4874POPC   C1B64015  19.090  13.945   6.255
 4874POPC   C2B64016  19.147  13.633   6.576
 4874POPC   C3B64017  19.032  13.731   6.972
 4874POPC   C4B64018  19.274  13.813   7.334
 4875POPC   NC364019  39.775  29.557   5.712
 4875POPC   PO464020  40.117  28.976   5.536
 4875POPC   GL164021  40.172  29.245   5.855
 4875POPC   GL264022  40.425  29.517   5.829
 4875POPC   C1A64023  40.011  29.078   6.241
 4875POPC   D2A64024  39.683  28.991   6.536
 4875POPC   C3A64025  39.809  28.846   6.925
 4875POPC   C4A64026  40.177  28.870   7.110
 4875POPC   C1B64027  40.266  29.524   6.270
 4875POPC   C2B64028  40.011  29.410   6.647
 4875POPC   C3B64029  39.665  29.322   6.947
 4875POPC   C4B64030  39.801  29.146   7.379
 4876POPC   NC364031  11.796   5.109   5.313
 4876POPC   PO464032  12.379   4.900   5.446
 4876POPC   GL164033  12.129   4.996   5.829
 4876POPC   GL264034  11.744   5.076   5.826
 4876POPC   C1A64035  12.301   5.006   6.272
 4876POPC   D2A64036  12.487   5.103   6.694
 4876POPC   C3A64037  12.198   5.304   6.988
 4876POPC   C4A64038  11.748   5.317   7.089
 4876POPC   C1B64039  11.796   4.916   6.241
 4876POPC   C2B64040  11.969   4.924   6.658
 4876POPC   C3B64041  11.970   4.846   7.072
 4876POPC   C4B64042  11.823   4.937   7.457
 4877POPC   NC364043  40.469  22.278   5.262
 4877POPC   PO464044  39.890  21.938   5.441
 4877POPC   GL164045  40.058  22.076   5.821
 4877POPC   GL264046  40.149  22.362   5.667
 4877POPC   C1A64047  39.881  22.060   6.258
 4877POPC   D2A64048  40.019  22.186   6.671
 4877POPC   C3A64049  39.863  22.025   7.066
 4877POPC   C4A64050  40.010  22.049   7.481
 4877POPC   C1B64051  39.980  22.521   6.066
 4877POPC   C2B64052  40.114  22.676   6.497
 4877POPC   C3B64053  40.135  22.608   6.949
 4877POPC   C4B64054  39.689  22.513   7.009
 4878POPC   NC364055  24.393  31.935   5.486
 4878POPC   PO464056  24.842  32.477   5.514
 4878POPC   GL164057  24.509  32.370   5.796
 4878POPC   GL264058  24.143  32.411   5.828
 4878POPC   C1A64059  24.527  32.169   6.187
 4878POPC   D2A64060  24.392  32.345   6.566
 4878POPC   C3A64061  24.450  32.117   6.933
 4878POPC   C4A64062  24.615  32.417   7.193
 4878POPC   C1B64063  24.010  32.178   6.228
 4878POPC   C2B64064  23.944  32.151   6.691
 4878POPC   C3B64065  23.990  32.303   7.138
 4878POPC   C4B64066  24.254  32.094   7.426
 4879POPC   NC364067   1.350  23.441   5.364
 4879POPC   PO464068   0.914  23.837   5.421
 4879POPC   GL164069   1.111  23.652   5.803
 4879POPC   GL264070   0.879  23.458   5.985
 4879POPC   C1A64071   1.353  23.779   6.226
 4879POPC   D2A64072   1.399  23.961   6.687
 4879POPC   C3A64073   1.620  23.759   7.069
 4879POPC   C4A64074   1.741  23.578   7.489
 4879POPC   C1B64075   1.005  23.484   6.436
 4879POPC   C2B64076   1.373  23.442   6.724
 4879POPC   C3B64077   1.423  23.302   7.166
 4879POPC   C4B64078   1.402  23.225   7.628
 4880POPC   NC364079  43.662  29.913   5.549
 4880POPC   PO464080  43.855  30.476   5.459
 4880POPC   GL164081  43.970  30.406   5.900
 4880POPC   GL264082  43.984  30.030   5.933
 4880POPC   C1A64083  43.774  30.256   6.323
 4880POPC   D2A64084  43.560  29.991   6.610
 4880POPC   C3A64085  43.618  30.024   7.074
 4880POPC   C4A64086  43.726  30.107   7.534
 4880POPC   C1B64087  43.892  29.742   6.310
 4880POPC   C2B64088  43.931  29.693   6.792
 4880POPC   C3B64089  44.019  29.753   7.255
 4880POPC   C4B64090  44.122  29.804   7.718
 4881POPC   NC364091  32.228   3.066   5.441
 4881POPC   PO464092  31.969   2.497   5.524
 4881POPC   GL164093  32.169   2.747   5.841
 4881POPC   GL264094  31.937   3.015   5.865
 4881POPC   C1A64095  32.331   2.961   6.230
 4881POPC   D2A64096  32.289   3.174   6.639
 4881POPC   C3A64097  32.337   2.901   7.018
 4881POPC   C4A64098  32.128   2.603   7.286
 4881POPC   C1B64099  31.910   3.316   6.218
 4881POPC   C2B64100  31.919   3.543   6.624
 4881POPC   C3B64101  32.034   3.386   7.049
 4881POPC   C4B64102  31.878   3.066   7.372
 4882POPC   NC364103  37.331  27.783   5.370
 4882POPC   PO464104  37.887  27.347   5.321
 4882POPC   GL164105  37.804  27.682   5.673
 4882POPC   GL264106  37.493  27.656   5.851
 4882POPC   C1A64107  37.886  27.832   6.150
 4882POPC   D2A64108  37.849  27.663   6.607
 4882POPC   C3A64109  37.810  27.921   6.991
 4882POPC   C4A64110  37.895  27.940   7.449
 4882POPC   C1B64111  37.640  27.393   6.200
 4882POPC   C2B64112  37.692  27.171   6.618
 4882POPC   C3B64113  37.702  27.288   7.076
 4882POPC   C4B64114  37.559  27.557   7.443
 4883POPC   NC364115  42.358  30.998   5.469
 4883POPC   PO464116  42.336  30.263   5.453
 4883POPC   GL164117  42.485  30.568   5.778
 4883POPC   GL264118  42.690  30.881   5.821
 4883POPC   C1A64119  42.293  30.704   6.186
 4883POPC   D2A64120  42.035  30.580   6.558
 4883POPC   C3A64121  42.273  30.560   6.951
 4883POPC   C4A64122  42.274  30.852   7.308
 4883POPC   C1B64123  42.740  30.975   6.240
 4883POPC   C2B64124  42.572  30.854   6.636
 4883POPC   C3B64125  42.721  30.911   7.073
 4883POPC   C4B64126  42.694  31.070   7.504
 4884POPC   NC364127  44.183  42.634   5.460
 4884POPC   PO464128  44.576  42.207   5.205
 4884POPC   GL164129  44.511  42.285   5.687
 4884POPC   GL264130  44.535  42.622   5.846
 4884POPC   C1A64131  44.424  42.185   6.141
 4884POPC   D2A64132  44.464  41.921   6.514
 4884POPC   C3A64133  44.711  42.179   6.795
 4884POPC   C4A64134  44.844  42.222   7.212
 4884POPC   C1B64135  44.873  42.456   6.128
 4884POPC   C2B64136   0.068  42.458   6.561
 4884POPC   C3B64137   0.271  42.255   6.934
 4884POPC   C4B64138   0.292  42.031   7.362
 4885POPC   NC364139  42.744  22.974   5.382
 4885POPC   PO464140  43.263  22.715   5.382
 4885POPC   GL164141  43.036  22.727   5.774
 4885POPC   GL264142  43.078  23.046   5.765
 4885POPC   C1A64143  42.806  22.764   6.209
 4885POPC   D2A64144  42.625  22.898   6.643
 4885POPC   C3A64145  42.908  22.911   7.035
 4885POPC   C4A64146  43.125  22.918   7.478
 4885POPC   C1B64147  43.088  23.179   6.165
 4885POPC   C2B64148  42.944  23.312   6.587
 4885POPC   C3B64149  42.966  23.419   7.007
 4885POPC   C4B64150  43.326  23.391   7.298
 4886POPC   NC364151  27.661  38.757   5.457
 4886POPC   PO464152  27.592  39.459   5.271
 4886POPC   GL164153  27.711  39.498   5.688
 4886POPC   GL264154  27.438  39.593   5.875
 4886POPC   C1A64155  27.812  39.215   6.004
 4886POPC   D2A64156  27.718  38.934   6.343
 4886POPC   C3A64157  27.623  39.126   6.738
 4886POPC   C4A64158  27.720  39.033   7.175
 4886POPC   C1B64159  27.711  39.665   6.223
 4886POPC   C2B64160  27.593  39.654   6.664
 4886POPC   C3B64161  27.746  39.592   7.071
 4886POPC   C4B64162  28.123  39.780   7.232
 4887POPC   NC364163  36.761  35.850   5.479
 4887POPC   PO464164  37.216  36.330   5.481
 4887POPC   GL164165  36.966  36.196   5.825
 4887POPC   GL264166  37.078  35.833   5.886
 4887POPC   C1A64167  37.073  36.210   6.270
 4887POPC   D2A64168  37.027  35.957   6.640
 4887POPC   C3A64169  36.904  36.190   7.036
 4887POPC   C4A64170  36.840  36.137   7.509
 4887POPC   C1B64171  36.734  35.835   6.161
 4887POPC   C2B64172  36.642  35.606   6.514
 4887POPC   C3B64173  36.617  35.727   6.904
 4887POPC   C4B64174  36.893  35.728   7.198
 4888POPC   NC364175  16.104  11.178   5.291
 4888POPC   PO464176  15.819  11.753   5.369
 4888POPC   GL164177  15.888  11.464   5.668
 4888POPC   GL264178  15.702  11.656   5.874
 4888POPC   C1A64179  15.898  11.146   6.025
 4888POPC   D2A64180  16.076  10.981   6.411
 4888POPC   C3A64181  16.042  11.099   6.845
 4888POPC   C4A64182  15.892  11.387   7.184
 4888POPC   C1B64183  16.120  11.601   6.104
 4888POPC   C2B64184  16.201  11.474   6.520
 4888POPC   C3B64185  16.351  11.476   6.926
 4888POPC   C4B64186  16.299  11.710   7.255
 4889POPC   NC364187   3.673   7.621   5.285
 4889POPC   PO464188   2.980   7.727   5.159
 4889POPC   GL164189   3.280   7.528   5.586
 4889POPC   GL264190   3.662   7.323   5.691
 4889POPC   C1A64191   3.498   7.617   6.039
 4889POPC   D2A64192   3.492   7.417   6.455
 4889POPC   C3A64193   3.565   7.640   6.847
 4889POPC   C4A64194   3.627   7.446   7.253
 4889POPC   C1B64195   3.641   7.073   6.079
 4889POPC   C2B64196   3.826   7.007   6.474
 4889POPC   C3B64197   3.693   7.115   6.870
 4889POPC   C4B64198   3.861   6.975   7.248
 4890POPC   NC364199  14.187   9.803   5.276
 4890POPC   PO464200  14.778   9.600   5.435
 4890POPC   GL164201  14.638   9.891   5.807
 4890POPC   GL264202  14.241   9.889   5.834
 4890POPC   C1A64203  14.546   9.838   6.279
 4890POPC   D2A64204  14.272  10.031   6.593
 4890POPC   C3A64205  14.116   9.885   6.993
 4890POPC   C4A64206  14.417   9.832   7.304
 4890POPC   C1B64207  14.019   9.743   6.211
 4890POPC   C2B64208  14.166   9.506   6.561
 4890POPC   C3B64209  14.427   9.486   6.916
 4890POPC   C4B64210  14.185   9.309   7.246
 4891POPC   NC364211  15.146   9.896   5.545
 4891POPC   PO464212  14.895   9.381   5.923
 4891POPC   GL164213  15.102   9.790   6.058
 4891POPC   GL264214  15.226  10.161   5.965
 4891POPC   C1A64215  15.069   9.845   6.498
 4891POPC   D2A64216  14.806   9.890   6.904
 4891POPC   C3A64217  14.852   9.589   7.265
 4891POPC   C4A64218  14.901   9.646   7.721
 4891POPC   C1B64219  15.465  10.201   6.337
 4891POPC   C2B64220  15.566   9.974   6.735
 4891POPC   C3B64221  15.314   9.943   7.141
 4891POPC   C4B64222  15.310  10.243   7.529
 4892POPC   NC364223   5.685   1.786   5.488
 4892POPC   PO464224   6.142   1.414   5.254
 4892POPC   GL164225   5.924   1.381   5.653
 4892POPC   GL264226   6.134   1.275   5.852
 4892POPC   C1A64227   5.759   1.578   6.085
 4892POPC   D2A64228   5.544   1.425   6.453
 4892POPC   C3A64229   5.630   1.526   6.905
 4892POPC   C4A64230   5.519   1.279   7.317
 4892POPC   C1B64231   5.954   1.136   6.266
 4892POPC   C2B64232   5.838   1.091   6.722
 4892POPC   C3B64233   5.960   1.071   7.161
 4892POPC   C4B64234   6.225   1.005   7.543
 4893POPC   NC364235  27.514  12.386   5.425
 4893POPC   PO464236  27.987  12.184   5.725
 4893POPC   GL164237  27.520  12.162   5.901
 4893POPC   GL264238  27.181  12.358   5.895
 4893POPC   C1A64239  27.516  11.973   6.299
 4893POPC   D2A64240  27.409  11.847   6.701
 4893POPC   C3A64241  27.575  11.985   7.079
 4893POPC   C4A64242  27.894  12.251   7.300
 4893POPC   C1B64243  27.079  12.248   6.344
 4893POPC   C2B64244  27.407  12.358   6.652
 4893POPC   C3B64245  27.504  12.495   7.067
 4893POPC   C4B64246  27.560  12.647   7.484
 4894POPC   NC364247   3.150  35.556   5.310
 4894POPC   PO464248   3.766  35.206   5.211
 4894POPC   GL164249   3.728  35.286   5.657
 4894POPC   GL264250   3.396  35.399   5.717
 4894POPC   C1A64251   3.660  35.248   6.124
 4894POPC   D2A64252   3.673  35.411   6.541
 4894POPC   C3A64253   3.773  35.226   6.909
 4894POPC   C4A64254   3.697  35.355   7.302
 4894POPC   C1B64255   3.142  35.456   6.067
 4894POPC   C2B64256   3.146  35.486   6.500
 4894POPC   C3B64257   3.311  35.472   6.919
 4894POPC   C4B64258   3.166  35.761   7.180
 4895POPC   NC364259  41.095  14.000   5.459
 4895POPC   PO464260  41.700  14.201   5.389
 4895POPC   GL164261  41.490  14.409   5.718
 4895POPC   GL264262  41.311  14.150   5.897
 4895POPC   C1A64263  41.486  14.625   6.112
 4895POPC   D2A64264  41.753  14.617   6.456
 4895POPC   C3A64265  41.537  14.674   6.853
 4895POPC   C4A64266  41.374  14.359   7.133
 4895POPC   C1B64267  41.682  14.155   6.179
 4895POPC   C2B64268  41.621  14.147   6.629
 4895POPC   C3B64269  41.827  14.132   7.003
 4895POPC   C4B64270  42.036  14.234   7.383
 4896POPC   NC364271  40.445  30.142   5.462
 4896POPC   PO464272  40.800  29.593   5.388
 4896POPC   GL164273  40.844  29.817   5.823
 4896POPC   GL264274  40.785  30.190   5.851
 4896POPC   C1A64275  40.622  29.894   6.248
 4896POPC   D2A64276  40.617  29.603   6.632
 4896POPC   C3A64277  40.602  29.698   7.070
 4896POPC   C4A64278  41.001  29.809   7.270
 4896POPC   C1B64279  40.913  30.372   6.251
 4896POPC   C2B64280  40.946  30.375   6.703
 4896POPC   C3B64281  40.751  30.186   7.043
 4896POPC   C4B64282  40.598  30.065   7.487
 4897POPC   NC364283  13.652  21.052   5.362
 4897POPC   PO464284  13.475  20.412   5.423
 4897POPC   GL164285  13.757  20.572   5.744
 4897POPC   GL264286  13.497  20.769   5.844
 4897POPC   C1A64287  13.914  20.514   6.193
 4897POPC   D2A64288  13.878  20.209   6.566
 4897POPC   C3A64289  13.722  20.431   6.924
 4897POPC   C4A64290  13.795  20.768   7.169
 4897POPC   C1B64291  13.387  20.575   6.226
 4897POPC   C2B64292  13.375  20.730   6.648
 4897POPC   C3B64293  13.198  20.550   7.000
 4897POPC   C4B64294  13.267  20.629   7.424
 4898POPC   NC364295  29.166  20.155   5.454
 4898POPC   PO464296  28.880  19.543   5.242
 4898POPC   GL164297  28.958  19.691   5.651
 4898POPC   GL264298  29.265  19.786   5.791
 4898POPC   C1A64299  28.878  19.701   6.133
 4898POPC   D2A64300  29.037  19.787   6.576
 4898POPC   C3A64301  28.748  19.704   6.916
 4898POPC   C4A64302  28.650  19.908   7.306
 4898POPC   C1B64303  29.398  19.658   6.221
 4898POPC   C2B64304  29.619  19.456   6.560
 4898POPC   C3B64305  29.491  19.327   6.969
 4898POPC   C4B64306  29.200  19.619   7.161
 4899POPC   NC364307  28.937   1.100   5.393
 4899POPC   PO464308  29.538   1.466   5.359
 4899POPC   GL164309  29.298   1.371   5.714
 4899POPC   GL264310  29.240   0.996   5.790
 4899POPC   C1A64311  29.451   1.404   6.133
 4899POPC   D2A64312  29.448   1.205   6.555
 4899POPC   C3A64313  29.306   1.384   6.968
 4899POPC   C4A64314  29.131   1.360   7.428
 4899POPC   C1B64315  29.067   1.073   6.226
 4899POPC   C2B64316  29.004   1.034   6.724
 4899POPC   C3B64317  29.044   0.930   7.180
 4899POPC   C4B64318  28.922   0.909   7.666
 4900POPC   NC364319  16.819  36.994   5.342
 4900POPC   PO464320  16.418  36.518   5.546
 4900POPC   GL164321  16.540  36.913   5.769
 4900POPC   GL264322  16.706  37.267   5.747
 4900POPC   C1A64323  16.454  36.950   6.176
 4900POPC   D2A64324  16.485  36.647   6.467
 4900POPC   C3A64325  16.550  36.826   6.841
 4900POPC   C4A64326  16.920  36.687   7.029
 4900POPC   C1B64327  16.932  37.095   6.098
 4900POPC   C2B64328  16.798  37.151   6.528
 4900POPC   C3B64329  16.910  37.183   6.971
 4900POPC   C4B64330  17.053  37.172   7.404
 4901POPC   NC364331   9.510   7.700   5.320
 4901POPC   PO464332   9.481   7.052   5.252
 4901POPC   GL164333   9.583   7.269   5.653
 4901POPC   GL264334   9.823   7.583   5.719
 4901POPC   C1A64335   9.782   7.188   6.073
 4901POPC   D2A64336   9.716   7.431   6.459
 4901POPC   C3A64337   9.784   7.245   6.866
 4901POPC   C4A64338   9.974   7.441   7.216
 4901POPC   C1B64339   9.460   7.611   6.028
 4901POPC   C2B64340   9.248   7.718   6.415
 4901POPC   C3B64341   9.352   7.571   6.837
 4901POPC   C4B64342   9.562   7.734   7.188
 4902POPC   NC364343  23.315  29.967   5.325
 4902POPC   PO464344  24.041  29.826   5.335
 4902POPC   GL164345  23.818  29.778   5.729
 4902POPC   GL264346  23.478  29.721   5.747
 4902POPC   C1A64347  23.653  29.925   6.160
 4902POPC   D2A64348  23.528  30.056   6.573
 4902POPC   C3A64349  23.667  29.824   6.933
 4902POPC   C4A64350  23.800  29.950   7.348
 4902POPC   C1B64351  23.253  29.614   6.180
 4902POPC   C2B64352  23.187  29.686   6.653
 4902POPC   C3B64353  23.208  29.680   7.119
 4902POPC   C4B64354  23.267  29.603   7.581
 4903POPC   NC364355  36.178  28.780   4.982
 4903POPC   PO464356  36.011  28.423   5.506
 4903POPC   GL164357  36.315  28.340   5.833
 4903POPC   GL264358  36.503  27.984   5.848
 4903POPC   C1A64359  36.362  28.572   6.215
 4903POPC   D2A64360  36.097  28.751   6.561
 4903POPC   C3A64361  36.304  28.689   6.942
 4903POPC   C4A64362  36.250  28.544   7.354
 4903POPC   C1B64363  36.290  28.042   6.246
 4903POPC   C2B64364  36.214  28.259   6.615
 4903POPC   C3B64365  36.149  28.176   7.035
 4903POPC   C4B64366  36.396  28.059   7.411
 4904POPC   NC364367  28.270  32.540   5.311
 4904POPC   PO464368  28.057  31.894   5.376
 4904POPC   GL164369  28.287  32.154   5.705
 4904POPC   GL264370  28.321  32.531   5.832
 4904POPC   C1A64371  28.351  32.091   6.147
 4904POPC   D2A64372  28.310  32.274   6.549
 4904POPC   C3A64373  28.350  31.944   6.877
 4904POPC   C4A64374  28.185  32.038   7.287
 4904POPC   C1B64375  28.654  32.531   6.190
 4904POPC   C2B64376  28.790  32.455   6.642
 4904POPC   C3B64377  28.521  32.394   7.024
 4904POPC   C4B64378  28.569  32.521   7.456
 4905POPC   NC364379  18.158  26.670   5.394
 4905POPC   PO464380  17.947  27.170   5.045
 4905POPC   GL164381  18.085  27.150   5.577
 4905POPC   GL264382  18.458  27.061   5.662
 4905POPC   C1A64383  18.172  27.005   6.070
 4905POPC   D2A64384  18.423  26.864   6.440
 4905POPC   C3A64385  18.382  26.994   6.865
 4905POPC   C4A64386  18.127  26.754   7.133
 4905POPC   C1B64387  18.610  26.712   5.976
 4905POPC   C2B64388  18.609  26.407   6.339
 4905POPC   C3B64389  18.489  26.468   6.797
 4905POPC   C4B64390  18.613  26.613   7.218
 4906POPC   NC364391  18.065  35.876   5.433
 4906POPC   PO464392  18.651  36.057   5.664
 4906POPC   GL164393  18.286  36.254   5.820
 4906POPC   GL264394  17.911  36.297   5.745
 4906POPC   C1A64395  18.263  36.172   6.248
 4906POPC   D2A64396  18.444  35.968   6.602
 4906POPC   C3A64397  18.249  36.169   6.944
 4906POPC   C4A64398  18.315  36.018   7.334
 4906POPC   C1B64399  17.780  36.063   6.140
 4906POPC   C2B64400  17.898  35.973   6.582
 4906POPC   C3B64401  17.938  35.776   6.997
 4906POPC   C4B64402  17.869  35.624   7.430
 4907POPC   NC364403  11.764  19.403   5.491
 4907POPC   PO464404  11.120  19.084   5.427
 4907POPC   GL164405  11.366  19.121   5.842
 4907POPC   GL264406  11.497  19.464   5.908
 4907POPC   C1A64407  11.449  18.922   6.299
 4907POPC   D2A64408  11.264  18.960   6.741
 4907POPC   C3A64409  11.448  18.795   7.138
 4907POPC   C4A64410  11.436  18.812   7.656
 4907POPC   C1B64411  11.266  19.416   6.286
 4907POPC   C2B64412  11.039  19.436   6.685
 4907POPC   C3B64413  11.086  19.272   7.107
 4907POPC   C4B64414  11.191  19.259   7.553
 4908POPC   NC364415  40.692  36.928   5.254
 4908POPC   PO464416  41.209  37.379   5.424
 4908POPC   GL164417  40.985  37.123   5.767
 4908POPC   GL264418  40.691  36.848   5.770
 4908POPC   C1A64419  40.946  36.971   6.211
 4908POPC   D2A64420  40.754  37.131   6.610
 4908POPC   C3A64421  40.964  37.044   7.024
 4908POPC   C4A64422  40.779  37.064   7.449
 4908POPC   C1B64423  40.453  36.841   6.200
 4908POPC   C2B64424  40.510  36.657   6.646
 4908POPC   C3B64425  40.580  36.728   7.115
 4908POPC   C4B64426  40.620  36.616   7.602
 4909POPC   NC364427  30.031   5.589   5.490
 4909POPC   PO464428  29.848   6.238   5.652
 4909POPC   GL164429  29.772   5.851   5.843
 4909POPC   GL264430  30.076   5.830   5.973
 4909POPC   C1A64431  29.721   5.608   6.234
 4909POPC   D2A64432  29.576   5.770   6.614
 4909POPC   C3A64433  29.804   5.562   6.921
 4909POPC   C4A64434  30.165   5.664   7.105
 4909POPC   C1B64435  29.904   6.082   6.323
 4909POPC   C2B64436  30.009   6.052   6.759
 4909POPC   C3B64437  29.866   6.061   7.178
 4909POPC   C4B64438  29.747   6.217   7.598
 4910POPC   NC364439   8.207   6.943   5.268
 4910POPC   PO464440   8.072   6.393   5.541
 4910POPC   GL164441   7.980   6.691   5.872
 4910POPC   GL264442   8.319   6.731   5.879
 4910POPC   C1A64443   8.008   6.732   6.340
 4910POPC   D2A64444   8.117   6.483   6.714
 4910POPC   C3A64445   8.020   6.588   7.161
 4910POPC   C4A64446   7.879   6.659   7.588
 4910POPC   C1B64447   8.478   6.519   6.264
 4910POPC   C2B64448   8.627   6.412   6.675
 4910POPC   C3B64449   8.517   6.621   7.040
 4910POPC   C4B64450   8.723   6.844   7.343
 4911POPC   NC364451  11.175  36.284   5.395
 4911POPC   PO464452  10.937  35.662   5.447
 4911POPC   GL164453  11.092  35.890   5.795
 4911POPC   GL264454  11.387  36.092   5.836
 4911POPC   C1A64455  10.972  36.110   6.151
 4911POPC   D2A64456  11.015  35.954   6.558
 4911POPC   C3A64457  10.954  36.054   6.976
 4911POPC   C4A64458  11.256  36.293   7.229
 4911POPC   C1B64459  11.453  36.063   6.299
 4911POPC   C2B64460  11.422  36.227   6.740
 4911POPC   C3B64461  11.710  36.105   7.085
 4911POPC   C4B64462  11.880  35.751   7.325
 4912POPC   NC364463  34.698  26.155   5.365
 4912POPC   PO464464  35.401  25.996   5.328
 4912POPC   GL164465  35.582  25.968   5.714
 4912POPC   GL264466  35.670  25.626   5.659
 4912POPC   C1A64467  35.598  26.115   6.169
 4912POPC   D2A64468  35.668  26.341   6.584
 4912POPC   C3A64469  35.335  26.300   6.916
 4912POPC   C4A64470  34.975  26.293   7.227
 4912POPC   C1B64471  35.367  25.612   5.993
 4912POPC   C2B64472  35.333  25.558   6.441
 4912POPC   C3B64473  35.226  25.794   6.812
 4912POPC   C4B64474  35.262  25.853   7.247
 4913POPC   NC364475  15.416  43.545   5.036
 4913POPC   PO464476  15.331  43.097   5.519
 4913POPC   GL164477  15.354  42.910   5.878
 4913POPC   GL264478  15.078  42.618   5.944
 4913POPC   C1A64479  15.542  43.033   6.254
 4913POPC   D2A64480  15.269  42.994   6.593
 4913POPC   C3A64481  15.384  43.211   6.930
 4913POPC   C4A64482  15.175  43.400   7.247
 4913POPC   C1B64483  14.872  42.759   6.314
 4913POPC   C2B64484  14.748  43.085   6.606
 4913POPC   C3B64485  14.884  43.059   7.011
 4913POPC   C4B64486  15.007  42.745   7.312
 4914POPC   NC364487  39.062   0.701   5.431
 4914POPC   PO464488  39.273   0.062   5.483
 4914POPC   GL164489  39.263   0.109   5.892
 4914POPC   GL264490  39.314   0.481   5.873
 4914POPC   C1A64491  39.532   0.201   6.243
 4914POPC   D2A64492  39.705   0.357   6.599
 4914POPC   C3A64493  39.654   0.071   6.937
 4914POPC   C4A64494  39.311   0.038   7.229
 4914POPC   C1B64495  39.058   0.405   6.256
 4914POPC   C2B64496  38.913   0.543   6.645
 4914POPC   C3B64497  39.053   0.458   7.068
 4914POPC   C4B64498  39.158   0.445   7.505
 4915POPC   NC364499  19.121   4.814   5.355
 4915POPC   PO464500  18.738   5.325   5.388
 4915POPC   GL164501  18.947   5.146   5.748
 4915POPC   GL264502  18.787   4.839   5.734
 4915POPC   C1A64503  19.243   5.039   6.104
 4915POPC   D2A64504  19.310   4.875   6.518
 4915POPC   C3A64505  19.220   5.075   6.916
 4915POPC   C4A64506  19.316   5.350   7.251
 4915POPC   C1B64507  18.723   4.889   6.145
 4915POPC   C2B64508  18.833   5.048   6.518
 4915POPC   C3B64509  18.747   4.851   6.889
 4915POPC   C4B64510  18.832   5.073   7.261
 4916POPC   NC364511  43.848   4.842   5.505
 4916POPC   PO464512  43.754   5.497   5.478
 4916POPC   GL164513  43.916   5.281   5.836
 4916POPC   GL264514  44.253   5.294   5.753
 4916POPC   C1A64515  43.828   5.296   6.313
 4916POPC   D2A64516  43.707   5.297   6.777
 4916POPC   C3A64517  43.634   4.959   7.100
 4916POPC   C4A64518  43.697   4.981   7.557
 4916POPC   C1B64519  44.257   5.032   6.177
 4916POPC   C2B64520  44.216   4.939   6.642
 4916POPC   C3B64521  44.142   5.161   7.033
 4916POPC   C4B64522  43.972   5.405   7.377
 4917POPC   NC364523  35.915  32.488   5.340
 4917POPC   PO464524  36.237  31.924   5.590
 4917POPC   GL164525  36.118  32.284   5.767
 4917POPC   GL264526  36.397  32.499   5.660
 4917POPC   C1A64527  35.961  32.224   6.178
 4917POPC   D2A64528  36.068  31.919   6.519
 4917POPC   C3A64529  35.964  32.077   6.926
 4917POPC   C4A64530  36.035  31.988   7.368
 4917POPC   C1B64531  36.345  32.579   6.122
 4917POPC   C2B64532  36.279  32.398   6.550
 4917POPC   C3B64533  36.400  32.344   6.982
 4917POPC   C4B64534  36.259  32.432   7.390
 4918POPC   NC364535  37.052   2.419   5.509
 4918POPC   PO464536  36.498   2.869   5.514
 4918POPC   GL164537  36.658   2.584   5.818
 4918POPC   GL264538  36.983   2.741   5.899
 4918POPC   C1A64539  36.571   2.608   6.265
 4918POPC   D2A64540  36.524   2.848   6.666
 4918POPC   C3A64541  36.613   2.616   7.044
 4918POPC   C4A64542  36.520   2.585   7.483
 4918POPC   C1B64543  37.147   2.753   6.335
 4918POPC   C2B64544  37.024   2.796   6.768
 4918POPC   C3B64545  36.889   3.082   7.061
 4918POPC   C4B64546  36.904   2.944   7.444
 4919POPC   NC364547  39.924  11.827   5.622
 4919POPC   PO464548  39.810  12.230   5.049
 4919POPC   GL164549  39.823  12.358   5.564
 4919POPC   GL264550  40.156  12.368   5.794
 4919POPC   C1A64551  39.703  12.296   6.063
 4919POPC   D2A64552  39.837  12.125   6.503
 4919POPC   C3A64553  39.838  12.234   6.987
 4919POPC   C4A64554  39.660  12.032   7.379
 4919POPC   C1B64555  40.273  12.169   6.226
 4919POPC   C2B64556  40.328  12.204   6.710
 4919POPC   C3B64557  40.305  12.023   7.147
 4919POPC   C4B64558  40.279  11.924   7.608
 4920POPC   NC364559  30.868  15.735   5.418
 4920POPC   PO464560  30.484  16.129   5.434
 4920POPC   GL164561  30.631  15.994   5.879
 4920POPC   GL264562  30.992  15.925   5.906
 4920POPC   C1A64563  30.754  16.114   6.350
 4920POPC   D2A64564  30.788  16.232   6.813
 4920POPC   C3A64565  30.569  15.988   7.140
 4920POPC   C4A64566  30.364  15.940   7.562
 4920POPC   C1B64567  31.057  15.705   6.322
 4920POPC   C2B64568  30.895  15.732   6.763
 4920POPC   C3B64569  31.077  15.896   7.158
 4920POPC   C4B64570  31.222  15.732   7.588
 4921POPC   NC364571  19.071  10.152   5.522
 4921POPC   PO464572  18.744   9.588   5.223
 4921POPC   GL164573  18.901   9.697   5.692
 4921POPC   GL264574  19.286   9.699   5.725
 4921POPC   C1A64575  18.997   9.909   6.128
 4921POPC   D2A64576  18.976   9.828   6.588
 4921POPC   C3A64577  18.902  10.194   6.831
 4921POPC   C4A64578  18.711  10.218   7.228
 4921POPC   C1B64579  19.469   9.677   6.146
 4921POPC   C2B64580  19.350   9.458   6.532
 4921POPC   C3B64581  19.129   9.411   6.919
 4921POPC   C4B64582  19.140   9.818   7.102
 4922POPC   NC364583  11.333  16.517   4.969
 4922POPC   PO464584  11.651  16.847   5.275
 4922POPC   GL164585  11.675  16.797   5.775
 4922POPC   GL264586  12.002  16.852   5.940
 4922POPC   C1A64587  11.635  16.656   6.267
 4922POPC   D2A64588  11.677  16.709   6.754
 4922POPC   C3A64589  11.604  16.600   7.218
 4922POPC   C4A64590  11.545  16.526   7.688
 4922POPC   C1B64591  11.706  17.151   6.159
 4922POPC   C2B64592  11.422  17.095   6.530
 4922POPC   C3B64593  11.342  17.048   6.992
 4922POPC   C4B64594  11.053  17.257   7.304
 4923POPC   NC364595   2.928  18.247   5.277
 4923POPC   PO464596   2.979  18.910   5.557
 4923POPC   GL164597   3.013  18.469   5.831
 4923POPC   GL264598   3.035  18.109   5.749
 4923POPC   C1A64599   2.857  18.174   6.232
 4923POPC   D2A64600   2.709  17.991   6.675
 4923POPC   C3A64601   2.778  18.242   7.085
 4923POPC   C4A64602   2.489  18.429   7.463
 4923POPC   C1B64603   3.250  17.884   6.084
 4923POPC   C2B64604   3.184  17.855   6.527
 4923POPC   C3B64605   3.204  17.962   6.941
 4923POPC   C4B64606   3.231  18.074   7.364
 4924POPC   NC364607  31.064   7.038   5.425
 4924POPC   PO464608  30.654   6.486   5.430
 4924POPC   GL164609  30.743   6.579   5.811
 4924POPC   GL264610  30.650   6.888   5.798
 4924POPC   C1A64611  30.609   6.604   6.223
 4924POPC   D2A64612  30.794   6.499   6.585
 4924POPC   C3A64613  30.607   6.552   6.985
 4924POPC   C4A64614  30.756   6.583   7.408
 4924POPC   C1B64615  30.519   7.099   6.165
 4924POPC   C2B64616  30.572   6.979   6.606
 4924POPC   C3B64617  30.301   6.968   6.952
 4924POPC   C4B64618  30.324   6.908   7.406
 4925POPC   NC364619   1.566  12.988   5.309
 4925POPC   PO464620   0.904  12.916   5.292
 4925POPC   GL164621   1.166  12.919   5.712
 4925POPC   GL264622   1.387  12.631   5.753
 4925POPC   C1A64623   1.355  13.143   6.093
 4925POPC   D2A64624   1.577  13.095   6.487
 4925POPC   C3A64625   1.297  12.952   6.810
 4925POPC   C4A64626   1.281  13.045   7.250
 4925POPC   C1B64627   1.370  12.654   6.222
 4925POPC   C2B64628   1.488  12.464   6.614
 4925POPC   C3B64629   1.501  12.553   7.072
 4925POPC   C4B64630   1.068  12.595   7.155
 4926POPC   NC364631  20.733  22.508   5.263
 4926POPC   PO464632  20.184  22.909   5.217
 4926POPC   GL164633  20.451  23.001   5.607
 4926POPC   GL264634  20.645  22.705   5.744
 4926POPC   C1A64635  20.482  23.116   6.073
 4926POPC   D2A64636  20.301  22.863   6.402
 4926POPC   C3A64637  20.364  22.906   6.858
 4926POPC   C4A64638  20.530  22.966   7.285
 4926POPC   C1B64639  20.622  22.493   6.160
 4926POPC   C2B64640  20.628  22.505   6.603
 4926POPC   C3B64641  20.667  22.371   7.008
 4926POPC   C4B64642  20.926  22.494   7.328
 4927POPC   NC364643  24.963   3.153   5.193
 4927POPC   PO464644  25.172   3.620   5.385
 4927POPC   GL164645  25.324   3.726   5.855
 4927POPC   GL264646  25.630   3.943   5.866
 4927POPC   C1A64647  25.284   3.648   6.328
 4927POPC   D2A64648  25.377   3.807   6.760
 4927POPC   C3A64649  25.159   3.750   7.148
 4927POPC   C4A64650  25.100   3.439   7.490
 4927POPC   C1B64651  25.801   4.086   6.260
 4927POPC   C2B64652  25.757   4.127   6.703
 4927POPC   C3B64653  25.734   3.887   7.120
 4927POPC   C4B64654  25.527   3.744   7.525
 4928POPC   NC364655   0.720  35.367   5.393
 4928POPC   PO464656   0.070  35.337   5.541
 4928POPC   GL164657   0.259  35.097   5.840
 4928POPC   GL264658   0.623  35.129   5.820
 4928POPC   C1A64659   0.345  35.178   6.259
 4928POPC   D2A64660   0.281  35.435   6.595
 4928POPC   C3A64661   0.429  35.329   6.974
 4928POPC   C4A64662   0.203  35.204   7.338
 4928POPC   C1B64663   0.840  35.264   6.170
 4928POPC   C2B64664   0.769  35.190   6.586
 4928POPC   C3B64665   0.862  35.013   6.966
 4928POPC   C4B64666   0.712  35.107   7.336
 4929POPC   NC364667  33.556  20.738   5.620
 4929POPC   PO464668  32.952  20.559   5.270
 4929POPC   GL164669  33.096  20.520   5.703
 4929POPC   GL264670  33.103  20.875   5.831
 4929POPC   C1A64671  33.105  20.511   6.184
 4929POPC   D2A64672  33.235  20.446   6.628
 4929POPC   C3A64673  32.930  20.521   6.979
 4929POPC   C4A64674  32.837  20.944   7.136
 4929POPC   C1B64675  33.393  20.961   6.213
 4929POPC   C2B64676  33.535  20.871   6.625
 4929POPC   C3B64677  33.336  20.822   7.012
 4929POPC   C4B64678  33.259  20.985   7.432
 4930POPC   NC364679   9.155  38.120   5.341
 4930POPC   PO464680   8.750  38.696   5.308
 4930POPC   GL164681   8.825  38.397   5.670
 4930POPC   GL264682   8.612  38.089   5.696
 4930POPC   C1A64683   9.017  38.288   6.107
 4930POPC   D2A64684   9.124  38.504   6.548
 4930POPC   C3A64685   8.952  38.432   7.004
 4930POPC   C4A64686   9.146  38.313   7.435
 4930POPC   C1B64687   8.507  38.350   6.068
 4930POPC   C2B64688   8.660  38.279   6.482
 4930POPC   C3B64689   8.481  38.242   6.852
 4930POPC   C4B64690   8.495  38.302   7.285
 4931POPC   NC364691   0.037   9.554   5.316
 4931POPC   PO464692  44.462   9.847   5.174
 4931POPC   GL164693  44.703   9.803   5.655
 4931POPC   GL264694  44.824  10.117   5.822
 4931POPC   C1A64695  44.916   9.653   6.066
 4931POPC   D2A64696  44.729   9.595   6.494
 4931POPC   C3A64697  44.857   9.690   6.932
 4931POPC   C4A64698  44.616   9.400   7.236
 4931POPC   C1B64699  44.705  10.095   6.210
 4931POPC   C2B64700  44.553  10.079   6.558
 4931POPC   C3B64701  44.344   9.961   6.876
 4931POPC   C4B64702  44.533   9.926   7.230
 4932POPC   NC364703  16.460   0.636   5.144
 4932POPC   PO464704  16.989   0.244   5.174
 4932POPC   GL164705  16.771   0.571   5.552
 4932POPC   GL264706  17.048   0.724   5.750
 4932POPC   C1A64707  16.613   0.653   6.037
 4932POPC   D2A64708  16.297   0.591   6.436
 4932POPC   C3A64709  16.459   0.379   6.861
 4932POPC   C4A64710  16.784   0.253   7.187
 4932POPC   C1B64711  17.078   0.878   6.189
 4932POPC   C2B64712  17.078   0.806   6.618
 4932POPC   C3B64713  16.849   0.732   6.979
 4932POPC   C4B64714  16.992   0.699   7.362
 4933POPC   NC364715   7.053   1.119   5.251
 4933POPC   PO464716   7.580   1.371   5.548
 4933POPC   GL164717   7.372   1.144   5.794
 4933POPC   GL264718   7.426   0.815   5.661
 4933POPC   C1A64719   7.390   1.245   6.221
 4933POPC   D2A64720   7.255   1.162   6.634
 4933POPC   C3A64721   7.558   1.359   6.867
 4933POPC   C4A64722   7.541   1.569   7.238
 4933POPC   C1B64723   7.709   0.836   6.042
 4933POPC   C2B64724   7.743   0.981   6.492
 4933POPC   C3B64725   7.601   0.823   6.896
 4933POPC   C4B64726   7.394   1.035   7.252
 4934POPC   NC364727  19.207   5.806   5.443
 4934POPC   PO464728  18.564   6.071   5.567
 4934POPC   GL164729  18.568   5.836   5.890
 4934POPC   GL264730  18.837   5.653   5.771
 4934POPC   C1A64731  18.869   5.977   6.179
 4934POPC   D2A64732  19.177   5.954   6.486
 4934POPC   C3A64733  19.114   6.174   6.859
 4934POPC   C4A64734  19.116   6.053   7.287
 4934POPC   C1B64735  19.146   5.543   6.105
 4934POPC   C2B64736  19.237   5.439   6.544
 4934POPC   C3B64737  19.076   5.649   6.923
 4934POPC   C4B64738  18.858   5.608   7.342
 4935POPC   NC364739  30.235  33.120   5.167
 4935POPC   PO464740  30.846  32.751   5.174
 4935POPC   GL164741  30.734  32.701   5.659
 4935POPC   GL264742  30.396  32.803   5.820
 4935POPC   C1A64743  30.793  32.764   6.142
 4935POPC   D2A64744  30.511  32.837   6.523
 4935POPC   C3A64745  30.721  33.069   6.827
 4935POPC   C4A64746  30.728  33.002   7.232
 4935POPC   C1B64747  30.306  33.146   6.174
 4935POPC   C2B64748  30.291  33.280   6.640
 4935POPC   C3B64749  30.413  33.417   7.086
 4935POPC   C4B64750  30.530  33.348   7.553
 4936POPC   NC364751  25.088  27.695   5.614
 4936POPC   PO464752  25.666  27.676   5.298
 4936POPC   GL164753  25.479  27.385   5.799
 4936POPC   GL264754  25.133  27.274   5.892
 4936POPC   C1A64755  25.422  27.234   6.290
 4936POPC   D2A64756  25.131  27.313   6.645
 4936POPC   C3A64757  25.340  27.529   6.992
 4936POPC   C4A64758  25.635  27.867   7.107
 4936POPC   C1B64759  25.097  27.620   6.228
 4936POPC   C2B64760  24.925  27.977   6.426
 4936POPC   C3B64761  24.890  27.796   6.824
 4936POPC   C4B64762  25.046  27.891   7.212
 4937POPC   NC364763  34.873  38.446   5.344
 4937POPC   PO464764  35.029  38.969   5.457
 4937POPC   GL164765  34.833  38.741   5.828
 4937POPC   GL264766  34.466  38.754   5.771
 4937POPC   C1A64767  34.824  38.698   6.318
 4937POPC   D2A64768  34.854  38.416   6.714
 4937POPC   C3A64769  34.862  38.543   7.160
 4937POPC   C4A64770  34.935  38.456   7.604
 4937POPC   C1B64771  34.341  38.567   6.187
 4937POPC   C2B64772  34.358  38.533   6.668
 4937POPC   C3B64773  34.436  38.271   7.066
 4937POPC   C4B64774  34.643  38.054   7.448
 4938POPC   NC364775  33.011  41.693   5.007
 4938POPC   PO464776  33.177  41.404   5.646
 4938POPC   GL164777  33.091  41.579   5.999
 4938POPC   GL264778  32.889  41.817   5.887
 4938POPC   C1A64779  33.231  41.688   6.402
 4938POPC   D2A64780  33.157  41.378   6.724
 4938POPC   C3A64781  33.091  41.519   7.146
 4938POPC   C4A64782  33.015  41.315   7.548
 4938POPC   C1B64783  32.706  41.797   6.283
 4938POPC   C2B64784  32.824  41.771   6.710
 4938POPC   C3B64785  32.640  41.803   7.082
 4938POPC   C4B64786  32.769  41.743   7.494
 4939POPC   NC364787   4.155  22.225   5.391
 4939POPC   PO464788   4.813  22.226   5.405
 4939POPC   GL164789   4.532  22.069   5.850
 4939POPC   GL264790   4.150  22.053   5.879
 4939POPC   C1A64791   4.435  22.013   6.319
 4939POPC   D2A64792   4.254  22.221   6.678
 4939POPC   C3A64793   4.274  22.224   7.126
 4939POPC   C4A64794   4.561  22.429   7.409
 4939POPC   C1B64795   3.988  21.777   6.185
 4939POPC   C2B64796   4.156  21.678   6.613
 4939POPC   C3B64797   3.950  21.882   6.953
 4939POPC   C4B64798   3.891  21.817   7.379
 4940POPC   NC364799  37.324  18.149   5.494
 4940POPC   PO464800  37.897  18.600   5.445
 4940POPC   GL164801  37.722  18.293   5.795
 4940POPC   GL264802  37.370  18.329   5.983
 4940POPC   C1A64803  37.730  18.053   6.210
 4940POPC   D2A64804  37.714  18.321   6.565
 4940POPC   C3A64805  37.601  18.230   6.983
 4940POPC   C4A64806  37.586  18.145   7.412
 4940POPC   C1B64807  37.324  18.625   6.363
 4940POPC   C2B64808  37.400  18.661   6.802
 4940POPC   C3B64809  37.205  18.523   7.192
 4940POPC   C4B64810  37.290  18.546   7.649
 4941POPC   NC364811   9.599  20.294   5.034
 4941POPC   PO464812  10.032  20.593   5.549
 4941POPC   GL164813   9.853  20.595   5.916
 4941POPC   GL264814   9.575  20.754   5.809
 4941POPC   C1A64815   9.784  20.433   6.318
 4941POPC   D2A64816   9.645  20.621   6.685
 4941POPC   C3A64817   9.983  20.499   6.917
 4941POPC   C4A64818  10.029  20.807   7.212
 4941POPC   C1B64819   9.519  20.859   6.237
 4941POPC   C2B64820   9.381  21.068   6.623
 4941POPC   C3B64821   9.422  21.019   7.072
 4941POPC   C4B64822   9.475  20.856   7.484
 4942POPC   NC364823  16.178  39.177   5.542
 4942POPC   PO464824  15.624  38.816   5.507
 4942POPC   GL164825  15.762  39.062   5.848
 4942POPC   GL264826  15.790  39.417   5.745
 4942POPC   C1A64827  16.017  39.075   6.226
 4942POPC   D2A64828  16.067  39.300   6.620
 4942POPC   C3A64829  15.903  39.110   7.022
 4942POPC   C4A64830  16.180  39.092   7.390
 4942POPC   C1B64831  15.744  39.498   6.180
 4942POPC   C2B64832  15.582  39.441   6.575
 4942POPC   C3B64833  15.629  39.561   6.997
 4942POPC   C4B64834  15.862  39.493   7.390
 4943POPC   NC364835  39.334  16.556   5.377
 4943POPC   PO464836  38.774  16.781   5.519
 4943POPC   GL164837  38.962  16.980   5.876
 4943POPC   GL264838  39.238  16.796   5.820
 4943POPC   C1A64839  38.884  16.886   6.271
 4943POPC   D2A64840  39.011  16.594   6.548
 4943POPC   C3A64841  39.077  16.688   6.999
 4943POPC   C4A64842  38.962  16.904   7.370
 4943POPC   C1B64843  39.409  16.778   6.227
 4943POPC   C2B64844  39.446  16.821   6.661
 4943POPC   C3B64845  39.591  16.614   7.024
 4943POPC   C4B64846  39.396  16.589   7.439
 4944POPC   NC364847  38.013  37.163   5.414
 4944POPC   PO464848  38.136  36.443   5.495
 4944POPC   GL164849  37.861  36.749   5.816
 4944POPC   GL264850  37.455  36.787   5.861
 4944POPC   C1A64851  37.736  36.714   6.274
 4944POPC   D2A64852  37.744  36.950   6.673
 4944POPC   C3A64853  37.771  36.696   7.037
 4944POPC   C4A64854  37.381  36.474   7.138
 4944POPC   C1B64855  37.473  37.138   6.251
 4944POPC   C2B64856  37.364  37.370   6.579
 4944POPC   C3B64857  37.369  37.281   6.991
 4944POPC   C4B64858  37.407  37.495   7.378
 4945POPC   NC364859  18.484   7.135   5.496
 4945POPC   PO464860  18.694   7.730   5.566
 4945POPC   GL164861  18.536   7.477   5.904
 4945POPC   GL264862  18.200   7.291   5.898
 4945POPC   C1A64863  18.354   7.579   6.295
 4945POPC   D2A64864  18.249   7.379   6.669
 4945POPC   C3A64865  18.243   7.299   7.087
 4945POPC   C4A64866  18.459   7.419   7.431
 4945POPC   C1B64867  18.255   7.047   6.282
 4945POPC   C2B64868  18.020   6.935   6.684
 4945POPC   C3B64869  18.071   6.798   7.129
 4945POPC   C4B64870  18.138   7.020   7.548
 4946POPC   NC364871  15.303  22.785   5.509
 4946POPC   PO464872  14.659  22.727   5.398
 4946POPC   GL164873  14.901  23.079   5.698
 4946POPC   GL264874  15.233  23.062   5.910
 4946POPC   C1A64875  14.846  23.242   6.162
 4946POPC   D2A64876  15.085  23.092   6.533
 4946POPC   C3A64877  14.994  22.797   6.850
 4946POPC   C4A64878  15.136  22.822   7.273
 4946POPC   C1B64879  15.369  22.803   6.219
 4946POPC   C2B64880  15.453  22.667   6.638
 4946POPC   C3B64881  15.547  22.905   7.016
 4946POPC   C4B64882  15.614  22.816   7.463
 4947POPC   NC364883  24.240  26.103   5.410
 4947POPC   PO464884  24.846  25.991   5.403
 4947POPC   GL164885  24.575  25.981   5.789
 4947POPC   GL264886  24.378  25.677   5.712
 4947POPC   C1A64887  24.498  26.140   6.226
 4947POPC   D2A64888  24.517  26.257   6.662
 4947POPC   C3A64889  24.408  26.063   7.017
 4947POPC   C4A64890  24.290  26.342   7.360
 4947POPC   C1B64891  24.183  25.676   6.120
 4947POPC   C2B64892  24.230  25.831   6.534
 4947POPC   C3B64893  23.991  25.796   6.879
 4947POPC   C4B64894  24.062  25.808   7.304
 4948POPC   NC364895  39.705  40.691   5.420
 4948POPC   PO464896  40.173  41.177   5.397
 4948POPC   GL164897  40.106  40.893   5.723
 4948POPC   GL264898  39.803  41.001   5.868
 4948POPC   C1A64899  40.194  40.876   6.173
 4948POPC   D2A64900  39.872  40.951   6.468
 4948POPC   C3A64901  40.039  40.955   6.890
 4948POPC   C4A64902  40.312  40.624   7.063
 4948POPC   C1B64903  39.841  40.556   6.039
 4948POPC   C2B64904  39.698  40.355   6.381
 4948POPC   C3B64905  39.654  40.586   6.752
 4948POPC   C4B64906  39.797  40.600   7.174
 4949POPC   NC364907  16.192  43.362   5.408
 4949POPC   PO464908  15.761  43.952   5.455
 4949POPC   GL164909  15.843  43.904   5.846
 4949POPC   GL264910  16.004  43.592   5.846
 4949POPC   C1A64911  16.193  44.056   6.083
 4949POPC   D2A64912  16.198  44.173   6.507
 4949POPC   C3A64913  16.149  43.819   6.760
 4949POPC   C4A64914  16.039  43.940   7.141
 4949POPC   C1B64915  15.812  43.625   6.283
 4949POPC   C2B64916  15.780  43.460   6.718
 4949POPC   C3B64917  15.635  43.625   7.133
 4949POPC   C4B64918  15.529  43.502   7.568
 4950POPC   NC364919  32.997  16.881   5.221
 4950POPC   PO464920  33.094  16.312   5.381
 4950POPC   GL164921  33.134  16.699   5.700
 4950POPC   GL264922  32.833  16.715   5.915
 4950POPC   C1A64923  33.185  17.049   6.059
 4950POPC   D2A64924  33.183  17.166   6.535
 4950POPC   C3A64925  33.236  17.010   7.011
 4950POPC   C4A64926  33.240  17.152   7.462
 4950POPC   C1B64927  33.132  16.575   6.243
 4950POPC   C2B64928  33.314  16.645   6.650
 4950POPC   C3B64929  33.319  16.495   7.108
 4950POPC   C4B64930  33.223  16.283   7.522
 4951POPC   NC364931  38.691  33.364   5.476
 4951POPC   PO464932  38.346  32.765   5.498
 4951POPC   GL164933  38.301  33.016   5.857
 4951POPC   GL264934  38.680  33.036   5.889
 4951POPC   C1A64935  38.112  32.862   6.264
 4951POPC   D2A64936  38.233  32.622   6.618
 4951POPC   C3A64937  38.453  32.855   6.932
 4951POPC   C4A64938  38.293  33.065   7.295
 4951POPC   C1B64939  38.540  33.115   6.332
 4951POPC   C2B64940  38.442  33.340   6.741
 4951POPC   C3B64941  38.628  33.412   7.189
 4951POPC   C4B64942  38.705  33.103   7.586
 4952POPC   NC364943   6.129   7.123   5.339
 4952POPC   PO464944   6.796   7.310   5.287
 4952POPC   GL164945   6.759   7.334   5.748
 4952POPC   GL264946   6.390   7.322   5.763
 4952POPC   C1A64947   6.964   7.513   6.134
 4952POPC   D2A64948   7.107   7.449   6.575
 4952POPC   C3A64949   6.711   7.401   6.787
 4952POPC   C4A64950   6.564   7.421   7.199
 4952POPC   C1B64951   6.357   7.606   6.111
 4952POPC   C2B64952   6.197   7.651   6.539
 4952POPC   C3B64953   6.379   7.809   6.913
 4952POPC   C4B64954   6.231   7.811   7.326
 4953POPC   NC364955   5.620  30.550   5.592
 4953POPC   PO464956   6.127  30.948   5.355
 4953POPC   GL164957   6.108  30.732   5.756
 4953POPC   GL264958   6.364  30.494   5.730
 4953POPC   C1A64959   5.970  30.861   6.201
 4953POPC   D2A64960   6.034  30.778   6.666
 4953POPC   C3A64961   5.696  30.589   6.929
 4953POPC   C4A64962   5.606  30.515   7.374
 4953POPC   C1B64963   6.390  30.534   6.201
 4953POPC   C2B64964   6.479  30.367   6.638
 4953POPC   C3B64965   6.262  30.476   7.035
 4953POPC   C4B64966   6.031  30.836   7.222
 4954POPC   NC364967   7.618  30.912   5.555
 4954POPC   PO464968   7.260  30.373   5.687
 4954POPC   GL164969   7.311  30.732   5.896
 4954POPC   GL264970   7.156  31.063   5.777
 4954POPC   C1A64971   7.574  30.661   6.224
 4954POPC   D2A64972   7.509  30.376   6.580
 4954POPC   C3A64973   7.457  30.592   6.960
 4954POPC   C4A64974   7.799  30.690   7.188
 4954POPC   C1B64975   7.344  31.139   6.191
 4954POPC   C2B64976   7.420  30.956   6.603
 4954POPC   C3B64977   7.490  31.112   7.010
 4954POPC   C4B64978   7.278  30.992   7.362
 4955POPC   NC364979   9.440  23.225   5.377
 4955POPC   PO464980  10.018  22.872   5.534
 4955POPC   GL164981   9.702  23.059   5.783
 4955POPC   GL264982   9.372  22.858   5.750
 4955POPC   C1A64983   9.777  23.179   6.203
 4955POPC   D2A64984   9.967  22.961   6.549
 4955POPC   C3A64985   9.794  23.026   6.955
 4955POPC   C4A64986   9.757  23.288   7.330
 4955POPC   C1B64987   9.596  22.700   6.154
 4955POPC   C2B64988   9.554  22.543   6.593
 4955POPC   C3B64989   9.409  22.668   6.999
 4955POPC   C4B64990   9.566  22.816   7.389
 4956POPC   NC364991  36.379  23.951   5.491
 4956POPC   PO464992  35.965  23.401   5.429
 4956POPC   GL164993  36.250  23.552   5.777
 4956POPC   GL264994  36.033  23.847   5.844
 4956POPC   C1A64995  36.429  23.688   6.237
 4956POPC   D2A64996  36.534  23.695   6.755
 4956POPC   C3A64997  36.197  23.605   7.111
 4956POPC   C4A64998  35.713  23.522   7.079
 4956POPC   C1B64999  35.978  23.944   6.252
 4956POPC   C2B65000  35.800  23.788   6.617
 4956POPC   C3B65001  35.965  23.995   6.929
 4956POPC   C4B65002  35.958  24.052   7.349
 4957POPC   NC365003  40.405  10.336   5.568
 4957POPC   PO465004  41.053  10.518   5.218
 4957POPC   GL165005  40.884  10.498   5.668
 4957POPC   GL265006  40.946  10.825   5.755
 4957POPC   C1A65007  40.685  10.609   6.133
 4957POPC   D2A65008  40.781  10.584   6.616
 4957POPC   C3A65009  40.511  10.504   7.035
 4957POPC   C4A65010  40.496  10.284   7.457
 4957POPC   C1B65011  41.189  10.573   6.078
 4957POPC   C2B65012  41.328  10.589   6.485
 4957POPC   C3B65013  41.266  10.795   6.848
 4957POPC   C4B65014  41.007  10.584   7.086
 4958POPC   NC365015  28.382  29.127   5.478
 4958POPC   PO465016  27.764  29.246   5.392
 4958POPC   GL165017  28.010  29.076   5.809
 4958POPC   GL265018  28.097  29.337   6.008
 4958POPC   C1A65019  28.448  29.007   6.119
 4958POPC   D2A65020  28.582  29.264   6.497
 4958POPC   C3A65021  28.599  29.190   6.967
 4958POPC   C4A65022  28.510  28.850   7.277
 4958POPC   C1B65023  27.985  28.962   6.310
 4958POPC   C2B65024  28.168  28.897   6.737
 4958POPC   C3B65025  28.082  29.113   7.129
 4958POPC   C4B65026  28.218  29.234   7.540
 4959POPC   NC365027  21.726  36.243   5.436
 4959POPC   PO465028  22.333  35.873   5.480
 4959POPC   GL165029  22.271  36.328   5.679
 4959POPC   GL265030  21.987  36.410   5.853
 4959POPC   C1A65031  22.412  36.551   6.117
 4959POPC   D2A65032  22.740  36.465   6.466
 4959POPC   C3A65033  22.571  36.423   6.926
 4959POPC   C4A65034  22.372  36.072   7.223
 4959POPC   C1B65035  22.237  36.073   6.119
 4959POPC   C2B65036  22.316  36.181   6.538
 4959POPC   C3B65037  22.044  36.231   6.873
 4959POPC   C4B65038  21.928  35.839   7.044
 4960POPC   NC365039  28.161  37.690   5.303
 4960POPC   PO465040  28.764  37.549   5.338
 4960POPC   GL165041  28.540  37.686   5.694
 4960POPC   GL265042  28.478  37.386   5.867
 4960POPC   C1A65043  28.560  37.843   6.134
 4960POPC   D2A65044  28.686  37.644   6.518
 4960POPC   C3A65045  28.619  37.762   6.963
 4960POPC   C4A65046  28.783  37.595   7.364
 4960POPC   C1B65047  28.235  37.464   6.270
 4960POPC   C2B65048  28.251  37.482   6.724
 4960POPC   C3B65049  28.467  37.273   7.051
 4960POPC   C4B65050  28.226  36.996   7.270
 4961POPC   NC365051  21.557  16.900   5.315
 4961POPC   PO465052  21.156  16.466   5.594
 4961POPC   GL165053  21.470  16.551   5.875
 4961POPC   GL265054  21.587  16.862   5.820
 4961POPC   C1A65055  21.525  16.639   6.320
 4961POPC   D2A65056  21.360  16.564   6.715
 4961POPC   C3A65057  21.541  16.723   7.095
 4961POPC   C4A65058  21.223  16.783   7.419
 4961POPC   C1B65059  21.202  16.964   6.058
 4961POPC   C2B65060  21.139  17.105   6.494
 4961POPC   C3B65061  21.145  17.038   6.959
 4961POPC   C4B65062  21.451  17.213   7.250
 4962POPC   NC365063  25.928  24.312   5.576
 4962POPC   PO465064  26.366  24.819   5.654
 4962POPC   GL165065  26.117  24.651   5.950
 4962POPC   GL265066  25.768  24.616   5.933
 4962POPC   C1A65067  26.105  24.757   6.361
 4962POPC   D2A65068  25.824  24.678   6.712
 4962POPC   C3A65069  26.134  24.605   7.022
 4962POPC   C4A65070  26.311  24.445   7.412
 4962POPC   C1B65071  25.808  24.360   6.315
 4962POPC   C2B65072  25.859  24.155   6.754
 4962POPC   C3B65073  25.877  24.208   7.233
 4962POPC   C4B65074  25.864  24.265   7.711
 4963POPC   NC365075   6.520  21.426   5.305
 4963POPC   PO465076   6.885  20.881   5.535
 4963POPC   GL165077   6.607  21.157   5.743
 4963POPC   GL265078   6.766  21.447   5.751
 4963POPC   C1A65079   6.475  21.319   6.156
 4963POPC   D2A65080   6.687  21.255   6.571
 4963POPC   C3A65081   6.441  21.374   6.934
 4963POPC   C4A65082   6.428  21.127   7.312
 4963POPC   C1B65083   6.977  21.334   6.145
 4963POPC   C2B65084   7.091  21.615   6.496
 4963POPC   C3B65085   7.110  21.447   6.922
 4963POPC   C4B65086   7.113  21.666   7.315
 4964POPC   NC365087  13.051  25.918   5.117
 4964POPC   PO465088  13.767  25.956   5.261
 4964POPC   GL165089  13.757  25.964   5.722
 4964POPC   GL265090  13.795  25.667   5.835
 4964POPC   C1A65091  13.664  26.194   6.106
 4964POPC   D2A65092  13.459  26.085   6.507
 4964POPC   C3A65093  13.644  26.219   6.873
 4964POPC   C4A65094  13.511  26.125   7.255
 4964POPC   C1B65095  13.716  25.708   6.260
 4964POPC   C2B65096  13.696  25.614   6.654
 4964POPC   C3B65097  13.824  25.760   7.047
 4964POPC   C4B65098  13.778  25.657   7.464
 4965POPC   NC365099  11.739  37.542   5.520
 4965POPC   PO465100  11.128  37.927   5.459
 4965POPC   GL165101  11.390  37.796   5.769
 4965POPC   GL265102  11.183  37.519   5.831
 4965POPC   C1A65103  11.584  37.655   6.174
 4965POPC   D2A65104  11.458  37.459   6.573
 4965POPC   C3A65105  11.541  37.689   6.982
 4965POPC   C4A65106  11.367  37.709   7.379
 4965POPC   C1B65107  11.055  37.594   6.262
 4965POPC   C2B65108  10.998  37.603   6.706
 4965POPC   C3B65109  11.144  37.360   7.060
 4965POPC   C4B65110  11.090  37.261   7.508
 4966POPC   NC365111   7.584  38.834   5.446
 4966POPC   PO465112   7.724  39.512   5.343
 4966POPC   GL165113   7.515  39.373   5.780
 4966POPC   GL265114   7.172  39.201   5.777
 4966POPC   C1A65115   7.431  39.249   6.224
 4966POPC   D2A65116   7.624  39.001   6.565
 4966POPC   C3A65117   7.633  39.300   6.900
 4966POPC   C4A65118   7.823  39.358   7.282
 4966POPC   C1B65119   7.121  38.857   6.081
 4966POPC   C2B65120   7.031  38.777   6.515
 4966POPC   C3B65121   7.212  38.980   6.878
 4966POPC   C4B65122   7.478  38.984   7.299
 4967POPC   NC365123  25.746  33.657   5.338
 4967POPC   PO465124  26.340  34.125   5.417
 4967POPC   GL165125  25.944  34.065   5.663
 4967POPC   GL265126  25.908  33.731   5.817
 4967POPC   C1A65127  25.863  34.158   6.130
 4967POPC   D2A65128  25.645  34.183   6.573
 4967POPC   C3A65129  25.848  33.985   6.960
 4967POPC   C4A65130  25.945  33.942   7.431
 4967POPC   C1B65131  25.801  33.461   6.149
 4967POPC   C2B65132  25.499  33.310   6.445
 4967POPC   C3B65133  25.535  33.463   6.847
 4967POPC   C4B65134  25.777  33.509   7.232
 4968POPC   NC365135  24.452  38.853   5.366
 4968POPC   PO465136  24.649  39.539   5.404
 4968POPC   GL165137  24.553  39.374   5.809
 4968POPC   GL265138  24.581  39.004   5.849
 4968POPC   C1A65139  24.692  39.325   6.248
 4968POPC   D2A65140  24.720  39.660   6.570
 4968POPC   C3A65141  24.628  39.497   6.980
 4968POPC   C4A65142  24.610  39.424   7.421
 4968POPC   C1B65143  24.414  38.803   6.240
 4968POPC   C2B65144  24.568  38.818   6.687
 4968POPC   C3B65145  24.543  38.999   7.118
 4968POPC   C4B65146  24.475  38.948   7.594
 4969POPC   NC365147  10.169   4.003   5.574
 4969POPC   PO465148  10.095   4.531   5.183
 4969POPC   GL165149   9.950   4.463   5.685
 4969POPC   GL265150   9.621   4.593   5.876
 4969POPC   C1A65151   9.866   4.181   6.092
 4969POPC   D2A65152  10.057   4.002   6.472
 4969POPC   C3A65153   9.894   4.218   6.844
 4969POPC   C4A65154   9.915   4.144   7.291
 4969POPC   C1B65155   9.705   4.574   6.358
 4969POPC   C2B65156   9.474   4.511   6.725
 4969POPC   C3B65157   9.386   4.191   7.023
 4969POPC   C4B65158   9.443   4.231   7.452
 4970POPC   NC365159  29.690   8.858   5.408
 4970POPC   PO465160  30.357   9.016   5.455
 4970POPC   GL165161  30.349   8.721   5.799
 4970POPC   GL265162  29.988   8.692   5.823
 4970POPC   C1A65163  30.345   8.625   6.245
 4970POPC   D2A65164  30.161   8.634   6.674
 4970POPC   C3A65165  30.198   9.027   6.950
 4970POPC   C4A65166  30.085   9.450   7.143
 4970POPC   C1B65167  29.592   8.658   6.086
 4970POPC   C2B65168  29.605   8.605   6.556
 4970POPC   C3B65169  29.699   8.832   6.970
 4970POPC   C4B65170  29.462   8.850   7.379
 4971POPC   NC365171   6.448   1.168   5.027
 4971POPC   PO465172   6.827   1.535   5.394
 4971POPC   GL165173   6.944   1.437   5.793
 4971POPC   GL265174   6.595   1.505   5.877
 4971POPC   C1A65175   6.899   1.371   6.244
 4971POPC   D2A65176   6.598   1.482   6.535
 4971POPC   C3A65177   6.760   1.294   6.836
 4971POPC   C4A65178   7.065   1.362   7.091
 4971POPC   C1B65179   6.463   1.139   6.189
 4971POPC   C2B65180   6.339   1.044   6.638
 4971POPC   C3B65181   6.458   0.994   7.088
 4971POPC   C4B65182   6.582   1.375   7.316
 4972POPC   NC365183   1.884  15.161   5.441
 4972POPC   PO465184   2.435  14.830   5.632
 4972POPC   GL165185   2.180  15.189   5.864
 4972POPC   GL265186   1.865  15.325   5.904
 4972POPC   C1A65187   2.116  15.252   6.318
 4972POPC   D2A65188   2.219  14.909   6.536
 4972POPC   C3A65189   2.136  15.124   6.867
 4972POPC   C4A65190   2.117  14.985   7.248
 4972POPC   C1B65191   1.843  14.882   6.112
 4972POPC   C2B65192   1.686  14.932   6.561
 4972POPC   C3B65193   1.668  15.026   6.999
 4972POPC   C4B65194   1.818  15.393   7.208
 4973POPC   NC365195   5.966  24.156   5.274
 4973POPC   PO465196   6.225  24.702   5.428
 4973POPC   GL165197   6.134  24.377   5.729
 4973POPC   GL265198   5.785  24.318   5.735
 4973POPC   C1A65199   6.064  24.382   6.170
 4973POPC   D2A65200   6.228  24.570   6.515
 4973POPC   C3A65201   6.166  24.470   6.925
 4973POPC   C4A65202   5.986  24.595   7.282
 4973POPC   C1B65203   5.715  24.701   5.963
 4973POPC   C2B65204   5.727  24.699   6.443
 4973POPC   C3B65205   5.630  24.568   6.867
 4973POPC   C4B65206   5.553  24.855   7.212
 4974POPC   NC365207  18.669   9.253   5.545
 4974POPC   PO465208  19.326   9.061   5.326
 4974POPC   GL165209  19.115   8.965   5.714
 4974POPC   GL265210  19.292   9.209   5.941
 4974POPC   C1A65211  19.057   8.726   6.123
 4974POPC   D2A65212  18.892   8.803   6.565
 4974POPC   C3A65213  19.059   8.816   6.996
 4974POPC   C4A65214  18.885   9.113   7.291
 4974POPC   C1B65215  19.513   9.025   6.326
 4974POPC   C2B65216  19.486   9.013   6.808
 4974POPC   C3B65217  19.388   9.126   7.284
 4974POPC   C4B65218  19.357   9.219   7.771
 4975POPC   NC365219  14.992   4.202   5.330
 4975POPC   PO465220  15.483   4.580   5.197
 4975POPC   GL165221  15.414   4.476   5.658
 4975POPC   GL265222  15.080   4.491   5.833
 4975POPC   C1A65223  15.529   4.453   6.118
 4975POPC   D2A65224  15.420   4.249   6.508
 4975POPC   C3A65225  15.428   4.456   6.861
 4975POPC   C4A65226  15.127   4.623   7.114
 4975POPC   C1B65227  15.146   4.091   6.094
 4975POPC   C2B65228  15.023   3.929   6.545
 4975POPC   C3B65229  15.000   4.104   6.991
 4975POPC   C4B65230  14.698   4.033   7.332
 4976POPC   NC365231  41.946  22.010   5.354
 4976POPC   PO465232  41.479  21.795   5.697
 4976POPC   GL165233  41.793  22.029   5.985
 4976POPC   GL265234  42.150  22.080   5.863
 4976POPC   C1A65235  41.861  22.325   6.352
 4976POPC   D2A65236  42.181  22.544   6.607
 4976POPC   C3A65237  42.177  22.431   7.065
 4976POPC   C4A65238  42.213  22.210   7.490
 4976POPC   C1B65239  42.311  22.084   6.300
 4976POPC   C2B65240  42.136  22.039   6.724
 4976POPC   C3B65241  42.188  21.838   7.143
 4976POPC   C4B65242  42.509  21.749   7.468
 4977POPC   NC365243  43.425  34.311   5.007
 4977POPC   PO465244  43.971  34.307   5.311
 4977POPC   GL165245  43.876  34.536   5.748
 4977POPC   GL265246  43.844  34.279   5.933
 4977POPC   C1A65247  43.996  34.720   6.158
 4977POPC   D2A65248  43.919  34.398   6.473
 4977POPC   C3A65249  43.868  34.495   6.903
 4977POPC   C4A65250  44.156  34.359   7.217
 4977POPC   C1B65251  43.674  34.000   6.221
 4977POPC   C2B65252  43.418  34.187   6.530
 4977POPC   C3B65253  43.418  34.228   6.973
 4977POPC   C4B65254  43.664  34.295   7.348
 4978POPC   NC365255   0.491  39.454   5.360
 4978POPC   PO465256   0.217  38.799   5.300
 4978POPC   GL165257   0.386  38.938   5.694
 4978POPC   GL265258   0.265  39.293   5.789
 4978POPC   C1A65259   0.575  39.043   6.114
 4978POPC   D2A65260   0.620  39.428   6.406
 4978POPC   C3A65261   0.664  39.402   6.869
 4978POPC   C4A65262   0.682  39.066   7.218
 4978POPC   C1B65263   0.151  39.352   6.226
 4978POPC   C2B65264   0.183  39.431   6.675
 4978POPC   C3B65265   0.193  39.247   7.090
 4978POPC   C4B65266   0.043  39.416   7.493
 4979POPC   NC365267   3.368  38.618   4.933
 4979POPC   PO465268   3.424  38.212   5.477
 4979POPC   GL165269   3.499  38.129   5.874
 4979POPC   GL265270   3.156  38.094   5.918
 4979POPC   C1A65271   3.688  38.419   6.194
 4979POPC   D2A65272   3.704  38.724   6.536
 4979POPC   C3A65273   3.804  38.630   6.933
 4979POPC   C4A65274   3.706  38.730   7.327
 4979POPC   C1B65275   3.253  38.172   6.330
 4979POPC   C2B65276   3.558  38.227   6.660
 4979POPC   C3B65277   3.421  38.306   7.075
 4979POPC   C4B65278   3.056  38.132   7.269
 4980POPC   NC365279  27.508  43.411   5.104
 4980POPC   PO465280  27.193  42.869   5.420
 4980POPC   GL165281  27.479  42.963   5.756
 4980POPC   GL265282  27.355  42.710   5.971
 4980POPC   C1A65283  27.735  43.015   6.134
 4980POPC   D2A65284  27.784  42.752   6.541
 4980POPC   C3A65285  27.731  42.905   6.975
 4980POPC   C4A65286  27.952  43.248   7.198
 4980POPC   C1B65287  27.330  42.940   6.401
 4980POPC   C2B65288  27.582  43.280   6.611
 4980POPC   C3B65289  27.468  43.371   7.034
 4980POPC   C4B65290  27.248  42.996   7.130
 4981POPC   NC365291  10.179   0.323   5.568
 4981POPC   PO465292  10.879   0.404   5.569
 4981POPC   GL165293  10.543   0.571   5.809
 4981POPC   GL265294  10.362   0.881   5.725
 4981POPC   C1A65295  10.342   0.482   6.220
 4981POPC   D2A65296  10.521   0.211   6.543
 4981POPC   C3A65297  10.820   0.376   6.866
 4981POPC   C4A65298  10.636   0.481   7.270
 4981POPC   C1B65299  10.670   0.938   6.114
 4981POPC   C2B65300  10.682   0.745   6.519
 4981POPC   C3B65301  10.375   0.639   6.826
 4981POPC   C4B65302  10.328   0.887   7.190
 4982POPC   NC365303  24.533  13.733   5.605
 4982POPC   PO465304  24.950  13.159   5.457
 4982POPC   GL165305  24.785  13.325   5.876
 4982POPC   GL265306  24.442  13.247   5.941
 4982POPC   C1A65307  24.750  13.456   6.346
 4982POPC   D2A65308  24.603  13.780   6.686
 4982POPC   C3A65309  24.627  13.785   7.166
 4982POPC   C4A65310  24.907  13.842   7.524
 4982POPC   C1B65311  24.290  13.605   6.195
 4982POPC   C2B65312  24.152  13.533   6.568
 4982POPC   C3B65313  24.222  13.558   6.950
 4982POPC   C4B65314  24.187  13.485   7.356
 4983POPC   NC365315  44.234  38.307   5.437
 4983POPC   PO465316  44.587  38.832   5.172
 4983POPC   GL165317  44.625  38.545   5.652
 4983POPC   GL265318  44.942  38.485   5.762
 4983POPC   C1A65319  44.595  38.545   6.128
 4983POPC   D2A65320  44.715  38.339   6.526
 4983POPC   C3A65321  44.464  38.436   6.878
 4983POPC   C4A65322  44.455  38.722   7.219
 4983POPC   C1B65323   0.005  38.172   6.105
 4983POPC   C2B65324   0.157  38.052   6.523
 4983POPC   C3B65325   0.077  38.280   6.908
 4983POPC   C4B65326  44.812  38.361   7.265
 4984POPC   NC365327  19.098   7.625   5.380
 4984POPC   PO465328  18.923   6.988   5.391
 4984POPC   GL165329  19.136   7.233   5.731
 4984POPC   GL265330  19.059   7.576   5.898
 4984POPC   C1A65331  19.302   7.205   6.158
 4984POPC   D2A65332  19.168   7.443   6.532
 4984POPC   C3A65333  19.264   7.251   6.920
 4984POPC   C4A65334  19.408   7.256   7.313
 4984POPC   C1B65335  18.825   7.807   6.222
 4984POPC   C2B65336  18.690   7.722   6.641
 4984POPC   C3B65337  18.748   7.483   6.984
 4984POPC   C4B65338  19.106   7.715   7.068
 4985POPC   NC365339   4.053  10.768   5.609
 4985POPC   PO465340   4.514  10.433   5.248
 4985POPC   GL165341   4.381  10.311   5.696
 4985POPC   GL265342   4.512  10.597   5.782
 4985POPC   C1A65343   4.192  10.454   6.137
 4985POPC   D2A65344   4.008  10.596   6.535
 4985POPC   C3A65345   4.264  10.684   6.889
 4985POPC   C4A65346   4.343  10.420   7.269
 4985POPC   C1B65347   4.587  10.798   6.191
 4985POPC   C2B65348   4.720  10.655   6.579
 4985POPC   C3B65349   4.799  10.649   7.004
 4985POPC   C4B65350   4.529  10.884   7.274
 4986POPC   NC365351  43.211  27.517   5.314
 4986POPC   PO465352  42.623  27.428   5.469
 4986POPC   GL165353  42.931  27.700   5.753
 4986POPC   GL265354  42.834  28.068   5.866
 4986POPC   C1A65355  43.112  27.738   6.201
 4986POPC   D2A65356  43.228  27.814   6.666
 4986POPC   C3A65357  43.151  27.530   7.046
 4986POPC   C4A65358  43.030  27.227   7.369
 4986POPC   C1B65359  42.845  28.166   6.347
 4986POPC   C2B65360  42.815  28.079   6.797
 4986POPC   C3B65361  43.126  28.030   7.173
 4986POPC   C4B65362  43.030  28.148   7.641
 4987POPC   NC365363  14.740  16.685   5.316
 4987POPC   PO465364  14.143  16.927   5.394
 4987POPC   GL165365  14.320  16.742   5.792
 4987POPC   GL265366  14.210  16.380   5.801
 4987POPC   C1A65367  14.357  16.897   6.246
 4987POPC   D2A65368  14.241  17.077   6.681
 4987POPC   C3A65369  14.427  16.925   7.072
 4987POPC   C4A65370  14.552  16.998   7.528
 4987POPC   C1B65371  14.444  16.368   6.189
 4987POPC   C2B65372  14.382  16.514   6.604
 4987POPC   C3B65373  14.381  16.380   7.013
 4987POPC   C4B65374  14.164  16.576   7.336
 4988POPC   NC365375  41.022  15.864   5.349
 4988POPC   PO465376  40.363  15.733   5.383
 4988POPC   GL165377  40.515  15.658   5.813
 4988POPC   GL265378  40.887  15.747   5.830
 4988POPC   C1A65379  40.610  15.796   6.250
 4988POPC   D2A65380  40.880  15.712   6.571
 4988POPC   C3A65381  40.624  15.837   6.895
 4988POPC   C4A65382  40.643  16.207   7.198
 4988POPC   C1B65383  40.987  16.130   6.108
 4988POPC   C2B65384  40.851  16.222   6.546
 4988POPC   C3B65385  41.071  16.059   6.936
 4988POPC   C4B65386  41.177  16.011   7.341
 4989POPC   NC365387  17.582   2.482   5.321
 4989POPC   PO465388  17.332   3.113   5.423
 4989POPC   GL165389  17.594   2.911   5.782
 4989POPC   GL265390  17.770   2.574   5.798
 4989POPC   C1A65391  17.604   2.888   6.249
 4989POPC   D2A65392  17.358   2.594   6.520
 4989POPC   C3A65393  17.383   2.625   6.965
 4989POPC   C4A65394  17.343   2.946   7.299
 4989POPC   C1B65395  17.953   2.510   6.219
 4989POPC   C2B65396  17.881   2.667   6.639
 4989POPC   C3B65397  17.807   2.910   7.017
 4989POPC   C4B65398  17.779   2.698   7.419
 4990POPC   NC365399  20.133  17.447   5.358
 4990POPC   PO465400  19.558  17.035   5.348
 4990POPC   GL165401  19.726  17.242   5.767
 4990POPC   GL265402  19.940  17.547   5.846
 4990POPC   C1A65403  19.787  17.288   6.249
 4990POPC   D2A65404  19.820  17.520   6.650
 4990POPC   C3A65405  19.795  17.263   7.014
 4990POPC   C4A65406  19.869  16.993   7.365
 4990POPC   C1B65407  19.965  17.805   6.244
 4990POPC   C2B65408  20.303  17.744   6.572
 4990POPC   C3B65409  20.238  17.566   6.969
 4990POPC   C4B65410  19.878  17.775   7.124
 4991POPC   NC365411  12.313  38.347   5.436
 4991POPC   PO465412  11.750  38.675   5.226
 4991POPC   GL165413  11.935  38.669   5.643
 4991POPC   GL265414  11.874  38.357   5.807
 4991POPC   C1A65415  12.180  38.730   6.044
 4991POPC   D2A65416  12.371  38.794   6.478
 4991POPC   C3A65417  12.233  38.471   6.713
 4991POPC   C4A65418  12.216  38.401   7.116
 4991POPC   C1B65419  11.787  38.141   6.194
 4991POPC   C2B65420  11.723  38.321   6.631
 4991POPC   C3B65421  11.719  38.444   7.069
 4991POPC   C4B65422  11.724  38.090   7.358
 4992POPC   NC365423  23.392  16.547   5.150
 4992POPC   PO465424  23.962  16.759   5.429
 4992POPC   GL165425  23.646  16.726   5.790
 4992POPC   GL265426  23.363  16.992   5.719
 4992POPC   C1A65427  23.670  16.620   6.276
 4992POPC   D2A65428  24.017  16.668   6.613
 4992POPC   C3A65429  23.952  16.565   7.066
 4992POPC   C4A65430  23.598  16.590   7.363
 4992POPC   C1B65431  23.513  17.086   6.124
 4992POPC   C2B65432  23.671  17.081   6.551
 4992POPC   C3B65433  23.555  16.897   6.933
 4992POPC   C4B65434  23.333  17.068   7.264
 4993POPC   NC365435  28.351  43.865   5.346
 4993POPC   PO465436  28.725  43.311   5.229
 4993POPC   GL165437  28.580  43.537   5.657
 4993POPC   GL265438  28.185  43.551   5.736
 4993POPC   C1A65439  28.487  43.808   6.064
 4993POPC   D2A65440  28.614  43.943   6.493
 4993POPC   C3A65441  28.431  43.666   6.762
 4993POPC   C4A65442  28.330  43.581   7.174
 4993POPC   C1B65443  28.014  43.950   5.971
 4993POPC   C2B65444  28.170  44.143   6.377
 4993POPC   C3B65445  28.158  44.084   6.839
 4993POPC   C4B65446  28.177  44.254   7.259
 4994POPC   NC365447  38.492  35.914   5.344
 4994POPC   PO465448  38.922  36.384   5.497
 4994POPC   GL165449  38.658  36.132   5.795
 4994POPC   GL265450  38.316  35.970   5.792
 4994POPC   C1A65451  38.449  36.193   6.204
 4994POPC   D2A65452  38.201  36.028   6.499
 4994POPC   C3A65453  38.440  36.026   6.843
 4994POPC   C4A65454  38.292  36.091   7.235
 4994POPC   C1B65455  38.455  35.692   6.121
 4994POPC   C2B65456  38.636  35.663   6.506
 4994POPC   C3B65457  38.528  35.512   6.898
 4994POPC   C4B65458  38.676  35.765   7.246
 4995POPC   NC365459  26.262  42.021   5.514
 4995POPC   PO465460  25.602  41.841   5.454
 4995POPC   GL165461  25.816  42.123   5.760
 4995POPC   GL265462  26.176  42.184   5.965
 4995POPC   C1A65463  25.731  42.273   6.143
 4995POPC   D2A65464  26.055  42.336   6.469
 4995POPC   C3A65465  25.937  42.265   6.892
 4995POPC   C4A65466  25.820  42.130   7.287
 4995POPC   C1B65467  26.401  42.550   6.110
 4995POPC   C2B65468  26.516  42.585   6.541
 4995POPC   C3B65469  26.339  42.573   6.939
 4995POPC   C4B65470  26.133  42.543   7.318
 4996POPC   NC365471   3.905  18.352   5.458
 4996POPC   PO465472   4.502  18.240   5.360
 4996POPC   GL165473   4.262  18.295   5.805
 4996POPC   GL265474   4.207  18.666   5.920
 4996POPC   C1A65475   4.271  18.128   6.239
 4996POPC   D2A65476   4.128  18.079   6.674
 4996POPC   C3A65477   4.385  18.223   7.022
 4996POPC   C4A65478   4.599  18.100   7.412
 4996POPC   C1B65479   4.009  18.545   6.341
 4996POPC   C2B65480   4.070  18.589   6.799
 4996POPC   C3B65481   4.099  18.697   7.228
 4996POPC   C4B65482   4.036  18.543   7.665
 4997POPC   NC365483   4.814  21.787   5.509
 4997POPC   PO465484   5.092  21.160   5.483
 4997POPC   GL165485   5.263  21.324   5.894
 4997POPC   GL265486   5.156  21.650   5.893
 4997POPC   C1A65487   5.238  21.436   6.360
 4997POPC   D2A65488   4.969  21.229   6.696
 4997POPC   C3A65489   5.170  21.106   7.079
 4997POPC   C4A65490   5.026  21.136   7.515
 4997POPC   C1B65491   4.826  21.717   6.211
 4997POPC   C2B65492   4.703  21.686   6.680
 4997POPC   C3B65493   4.867  21.528   7.129
 4997POPC   C4B65494   5.126  21.648   7.515
 4998POPC   NC365495  20.379   4.592   5.520
 4998POPC   PO465496  20.400   5.250   5.231
 4998POPC   GL165497  20.522   5.083   5.645
 4998POPC   GL265498  20.202   5.047   5.793
 4998POPC   C1A65499  20.802   4.991   6.040
 4998POPC   D2A65500  20.807   4.895   6.520
 4998POPC   C3A65501  20.692   5.074   6.923
 4998POPC   C4A65502  20.920   5.339   7.239
 4998POPC   C1B65503  20.333   5.011   6.239
 4998POPC   C2B65504  20.174   5.135   6.648
 4998POPC   C3B65505  20.191   5.046   7.091
 4998POPC   C4B65506  20.496   4.931   7.449
 4999POPC   NC365507   1.776   1.890   5.490
 4999POPC   PO465508   2.329   2.300   5.503
 4999POPC   GL165509   2.082   2.043   5.881
 4999POPC   GL265510   1.738   2.192   5.913
 4999POPC   C1A65511   2.031   1.845   6.327
 4999POPC   D2A65512   2.205   1.957   6.760
 4999POPC   C3A65513   2.030   2.274   7.034
 4999POPC   C4A65514   2.195   2.460   7.437
 4999POPC   C1B65515   1.554   2.054   6.311
 4999POPC   C2B65516   1.697   1.951   6.716
 4999POPC   C3B65517   1.802   1.798   7.100
 4999POPC   C4B65518   1.492   1.726   7.431
 5000POPC   NC365519  27.394  33.823   5.264
 5000POPC   PO465520  27.970  33.913   5.567
 5000POPC   GL165521  27.663  33.689   5.752
 5000POPC   GL265522  27.397  33.919   5.750
 5000POPC   C1A65523  27.509  33.584   6.172
 5000POPC   D2A65524  27.364  33.507   6.596
 5000POPC   C3A65525  27.687  33.545   6.917
 5000POPC   C4A65526  27.897  33.618   7.321
 5000POPC   C1B65527  27.288  34.028   6.129
 5000POPC   C2B65528  27.519  34.004   6.514
 5000POPC   C3B65529  27.346  33.922   6.909
 5000POPC   C4B65530  27.464  33.878   7.318
 5001POPC   NC365531   5.712  15.691   5.447
 5001POPC   PO465532   6.234  15.621   5.561
 5001POPC   GL165533   5.924  15.827   5.903
 5001POPC   GL265534   5.536  15.910   5.885
 5001POPC   C1A65535   5.848  15.930   6.368
 5001POPC   D2A65536   5.867  15.803   6.835
 5001POPC   C3A65537   5.928  16.057   7.212
 5001POPC   C4A65538   5.652  16.134   7.542
 5001POPC   C1B65539   5.553  15.550   6.139
 5001POPC   C2B65540   5.651  15.417   6.558
 5001POPC   C3B65541   5.527  15.460   6.992
 5001POPC   C4B65542   5.749  15.606   7.342
 5002POPC   NC365543  40.411  36.314   5.430
 5002POPC   PO465544  39.772  36.211   5.242
 5002POPC   GL165545  39.981  36.204   5.692
 5002POPC   GL265546  40.173  36.555   5.810
 5002POPC   C1A65547  39.868  36.029   6.113
 5002POPC   D2A65548  39.640  36.148   6.488
 5002POPC   C3A65549  39.798  35.994   6.889
 5002POPC   C4A65550  39.756  36.193   7.247
 5002POPC   C1B65551  40.258  36.355   6.202
 5002POPC   C2B65552  40.125  36.307   6.622
 5002POPC   C3B65553  40.144  36.451   7.021
 5002POPC   C4B65554  40.416  36.288   7.281
 5003POPC   NC365555  39.441  43.100   5.451
 5003POPC   PO465556  38.839  43.018   5.608
 5003POPC   GL165557  39.186  43.053   5.890
 5003POPC   GL265558  39.335  43.383   5.915
 5003POPC   C1A65559  39.458  42.870   6.204
 5003POPC   D2A65560  39.555  42.859   6.669
 5003POPC   C3A65561  39.206  42.848   6.982
 5003POPC   C4A65562  39.222  42.973   7.447
 5003POPC   C1B65563  39.113  43.328   6.329
 5003POPC   C2B65564  39.086  43.306   6.785
 5003POPC   C3B65565  39.455  43.285   7.068
 5003POPC   C4B65566  39.653  43.379   7.479
 5004POPC   NC365567  35.154  18.815   5.593
 5004POPC   PO465568  34.939  19.479   5.715
 5004POPC   GL165569  35.200  19.197   5.938
 5004POPC   GL265570  35.501  19.213   5.729
 5004POPC   C1A65571  35.218  18.854   6.268
 5004POPC   D2A65572  35.068  18.781   6.711
 5004POPC   C3A65573  35.135  19.103   7.038
 5004POPC   C4A65574  35.191  19.055   7.494
 5004POPC   C1B65575  35.675  19.175   6.147
 5004POPC   C2B65576  35.537  19.116   6.574
 5004POPC   C3B65577  35.554  18.828   6.902
 5004POPC   C4B65578  35.644  19.071   7.245
 5005POPC   NC365579  28.204  33.481   4.977
 5005POPC   PO465580  28.337  32.990   5.447
 5005POPC   GL165581  28.271  33.067   5.861
 5005POPC   GL265582  28.514  33.352   5.852
 5005POPC   C1A65583  28.153  32.883   6.293
 5005POPC   D2A65584  28.376  32.788   6.692
 5005POPC   C3A65585  28.189  32.786   7.124
 5005POPC   C4A65586  28.053  32.506   7.453
 5005POPC   C1B65587  28.258  33.437   6.222
 5005POPC   C2B65588  28.414  33.507   6.609
 5005POPC   C3B65589  28.562  33.325   6.964
 5005POPC   C4B65590  28.285  33.273   7.274
 5006POPC   NC365591  16.213   4.938   5.523
 5006POPC   PO465592  16.672   5.220   5.051
 5006POPC   GL165593  16.596   5.267   5.543
 5006POPC   GL265594  16.324   5.488   5.659
 5006POPC   C1A65595  16.669   5.021   5.976
 5006POPC   D2A65596  16.886   5.128   6.359
 5006POPC   C3A65597  16.863   5.073   6.829
 5006POPC   C4A65598  16.784   5.046   7.277
 5006POPC   C1B65599  16.466   5.465   6.109
 5006POPC   C2B65600  16.527   5.410   6.577
 5006POPC   C3B65601  16.614   5.505   7.014
 5006POPC   C4B65602  16.298   5.375   7.300
 5007POPC   NC365603  33.597   1.373   5.325
 5007POPC   PO465604  33.796   0.707   5.399
 5007POPC   GL165605  33.982   1.076   5.641
 5007POPC   GL265606  34.030   0.838   5.900
 5007POPC   C1A65607  33.984   1.290   6.082
 5007POPC   D2A65608  34.171   1.137   6.459
 5007POPC   C3A65609  33.913   1.078   6.822
 5007POPC   C4A65610  33.834   1.314   7.188
 5007POPC   C1B65611  33.706   0.864   6.211
 5007POPC   C2B65612  33.469   0.941   6.568
 5007POPC   C3B65613  33.398   0.896   7.011
 5007POPC   C4B65614  33.536   0.912   7.455
 5008POPC   NC365615   1.269  40.081   5.399
 5008POPC   PO465616   0.623  39.943   5.342
 5008POPC   GL165617   0.896  39.862   5.717
 5008POPC   GL265618   0.880  40.196   5.738
 5008POPC   C1A65619   1.269  39.926   6.046
 5008POPC   D2A65620   1.524  39.866   6.456
 5008POPC   C3A65621   1.324  40.097   6.833
 5008POPC   C4A65622   1.106  40.053   7.239
 5008POPC   C1B65623   0.933  40.304   6.166
 5008POPC   C2B65624   0.825  40.307   6.596
 5008POPC   C3B65625   0.977  40.504   6.978
 5008POPC   C4B65626   1.109  40.567   7.395
 5009POPC   NC365627  12.523  12.503   5.400
 5009POPC   PO465628  12.095  12.972   5.106
 5009POPC   GL165629  12.099  12.794   5.564
 5009POPC   GL265630  12.407  12.911   5.727
 5009POPC   C1A65631  12.067  12.828   6.069
 5009POPC   D2A65632  12.233  12.920   6.518
 5009POPC   C3A65633  12.014  12.775   6.897
 5009POPC   C4A65634  11.801  12.855   7.295
 5009POPC   C1B65635  12.584  12.834   6.158
 5009POPC   C2B65636  12.763  12.833   6.580
 5009POPC   C3B65637  12.575  13.054   6.927
 5009POPC   C4B65638  12.294  12.939   7.286
 5010POPC   NC365639  28.481  18.319   5.372
 5010POPC   PO465640  27.969  17.950   5.557
 5010POPC   GL165641  28.157  18.246   5.825
 5010POPC   GL265642  28.496  18.085   5.831
 5010POPC   C1A65643  28.058  18.532   6.176
 5010POPC   D2A65644  28.288  18.626   6.552
 5010POPC   C3A65645  28.135  18.721   6.954
 5010POPC   C4A65646  28.375  18.489   7.242
 5010POPC   C1B65647  28.439  18.185   6.281
 5010POPC   C2B65648  28.313  18.020   6.704
 5010POPC   C3B65649  28.417  18.002   7.138
 5010POPC   C4B65650  28.696  17.967   7.475
 5011POPC   NC365651  17.585   8.366   5.307
 5011POPC   PO465652  16.933   8.334   5.405
 5011POPC   GL165653  17.335   8.276   5.766
 5011POPC   GL265654  17.707   8.119   5.729
 5011POPC   C1A65655  17.654   8.341   6.169
 5011POPC   D2A65656  17.915   8.333   6.552
 5011POPC   C3A65657  17.742   8.154   6.917
 5011POPC   C4A65658  17.427   8.334   7.230
 5011POPC   C1B65659  17.475   7.851   6.050
 5011POPC   C2B65660  17.517   7.855   6.498
 5011POPC   C3B65661  17.404   7.757   6.943
 5011POPC   C4B65662  17.635   7.856   7.315
 5012POPC   NC365663  14.164   1.211   5.213
 5012POPC   PO465664  14.776   1.074   5.348
 5012POPC   GL165665  14.606   1.300   5.664
 5012POPC   GL265666  14.299   1.152   5.759
 5012POPC   C1A65667  14.605   1.466   6.088
 5012POPC   D2A65668  14.353   1.276   6.435
 5012POPC   C3A65669  14.487   1.141   6.837
 5012POPC   C4A65670  14.328   1.406   7.152
 5012POPC   C1B65671  14.220   0.871   6.149
 5012POPC   C2B65672  14.168   0.771   6.639
 5012POPC   C3B65673  14.056   0.971   7.082
 5012POPC   C4B65674  14.069   1.092   7.532
 5013POPC   NC365675  15.602  15.677   5.457
 5013POPC   PO465676  16.267  15.834   5.418
 5013POPC   GL165677  16.348  15.824   5.879
 5013POPC   GL265678  15.986  15.954   5.947
 5013POPC   C1A65679  16.331  15.924   6.319
 5013POPC   D2A65680  16.066  16.176   6.538
 5013POPC   C3A65681  15.930  15.984   6.908
 5013POPC   C4A65682  16.199  15.848   7.246
 5013POPC   C1B65683  15.687  16.269   6.190
 5013POPC   C2B65684  15.550  16.238   6.641
 5013POPC   C3B65685  15.593  16.348   7.084
 5013POPC   C4B65686  15.857  16.177   7.409
 5014POPC   NC365687  32.511  43.345   5.475
 5014POPC   PO465688  32.210  42.886   5.155
 5014POPC   GL165689  32.214  42.972   5.677
 5014POPC   GL265690  31.937  43.125   5.946
 5014POPC   C1A65691  32.441  43.116   6.113
 5014POPC   D2A65692  32.340  43.053   6.563
 5014POPC   C3A65693  32.456  43.246   6.982
 5014POPC   C4A65694  32.147  43.484   7.271
 5014POPC   C1B65695  32.012  42.795   6.174
 5014POPC   C2B65696  32.146  42.556   6.493
 5014POPC   C3B65697  32.045  42.721   6.850
 5014POPC   C4B65698  32.071  42.939   7.216
 5015POPC   NC365699  44.924   7.866   5.502
 5015POPC   PO465700  44.918   8.490   5.262
 5015POPC   GL165701  44.547   8.292   5.661
 5015POPC   GL265702  44.469   7.933   5.776
 5015POPC   C1A65703  44.536   8.442   6.154
 5015POPC   D2A65704  44.843   8.334   6.521
 5015POPC   C3A65705  44.742   8.218   6.952
 5015POPC   C4A65706  44.942   7.931   7.222
 5015POPC   C1B65707  44.657   7.950   6.207
 5015POPC   C2B65708  44.547   7.828   6.637
 5015POPC   C3B65709  44.343   7.681   7.020
 5015POPC   C4B65710  44.500   7.780   7.414
 5016POPC   NC365711   2.438  22.006   5.338
 5016POPC   PO465712   3.080  22.279   5.422
 5016POPC   GL165713   2.851  22.371   5.796
 5016POPC   GL265714   2.671  22.102   5.795
 5016POPC   C1A65715   3.006  22.308   6.229
 5016POPC   D2A65716   3.121  22.514   6.631
 5016POPC   C3A65717   3.039  22.277   7.002
 5016POPC   C4A65718   2.871  21.883   7.206
 5016POPC   C1B65719   2.514  22.215   6.227
 5016POPC   C2B65720   2.623  22.357   6.663
 5016POPC   C3B65721   2.530  22.287   7.111
 5016POPC   C4B65722   2.587  22.530   7.517
 5017POPC   NC365723  33.865  43.319   5.618
 5017POPC   PO465724  33.487  42.832   5.337
 5017POPC   GL165725  33.600  42.901   5.828
 5017POPC   GL265726  33.886  43.056   6.059
 5017POPC   C1A65727  33.487  42.906   6.299
 5017POPC   D2A65728  33.689  42.796   6.659
 5017POPC   C3A65729  33.528  42.970   6.971
 5017POPC   C4A65730  33.765  43.049   7.322
 5017POPC   C1B65731  34.134  43.292   6.338
 5017POPC   C2B65732  34.291  43.575   6.659
 5017POPC   C3B65733  34.496  43.535   7.012
 5017POPC   C4B65734  34.215  43.301   7.332
 5018POPC   NC365735   7.574  37.168   5.112
 5018POPC   PO465736   7.154  36.647   5.322
 5018POPC   GL165737   7.392  36.653   5.747
 5018POPC   GL265738   7.747  36.647   5.684
 5018POPC   C1A65739   7.349  36.583   6.215
 5018POPC   D2A65740   7.346  36.647   6.668
 5018POPC   C3A65741   7.376  37.058   6.876
 5018POPC   C4A65742   7.203  36.989   7.240
 5018POPC   C1B65743   7.821  36.803   6.107
 5018POPC   C2B65744   7.710  37.025   6.477
 5018POPC   C3B65745   7.823  36.827   6.868
 5018POPC   C4B65746   7.689  36.793   7.251
 5019POPC   NC365747  14.704  14.744   5.728
 5019POPC   PO465748  14.164  14.311   5.488
 5019POPC   GL165749  14.253  14.470   5.858
 5019POPC   GL265750  13.955  14.610   5.952
 5019POPC   C1A65751  14.447  14.440   6.261
 5019POPC   D2A65752  14.287  14.597   6.630
 5019POPC   C3A65753  14.499  14.556   6.975
 5019POPC   C4A65754  14.377  14.166   7.106
 5019POPC   C1B65755  13.980  14.245   6.264
 5019POPC   C2B65756  14.059  14.109   6.673
 5019POPC   C3B65757  13.872  14.264   7.026
 5019POPC   C4B65758  14.038  14.545   7.282
 5020POPC   NC365759   9.521  10.683   5.336
 5020POPC   PO465760  10.225  10.481   5.311
 5020POPC   GL165761   9.896  10.467   5.632
 5020POPC   GL265762   9.975  10.790   5.767
 5020POPC   C1A65763   9.827  10.390   6.112
 5020POPC   D2A65764   9.819  10.590   6.561
 5020POPC   C3A65765   9.651  10.349   6.928
 5020POPC   C4A65766   9.807  10.288   7.357
 5020POPC   C1B65767  10.153  10.772   6.194
 5020POPC   C2B65768  10.215  11.027   6.576
 5020POPC   C3B65769  10.169  10.903   6.994
 5020POPC   C4B65770   9.782  10.766   7.157
 5021POPC   NC365771  22.047  26.914   5.041
 5021POPC   PO465772  22.561  26.651   5.456
 5021POPC   GL165773  22.306  26.496   5.862
 5021POPC   GL265774  21.927  26.461   5.723
 5021POPC   C1A65775  22.241  26.700   6.258
 5021POPC   D2A65776  22.403  26.755   6.657
 5021POPC   C3A65777  22.140  26.927   6.944
 5021POPC   C4A65778  22.185  27.063   7.327
 5021POPC   C1B65779  21.751  26.693   6.102
 5021POPC   C2B65780  21.827  26.909   6.497
 5021POPC   C3B65781  21.674  26.742   6.890
 5021POPC   C4B65782  21.770  26.788   7.298
 5022POPC   NC365783  32.742  32.443   5.448
 5022POPC   PO465784  33.512  32.213   5.551
 5022POPC   GL165785  33.246  32.215   5.903
 5022POPC   GL265786  33.095  32.514   5.835
 5022POPC   C1A65787  33.229  32.265   6.379
 5022POPC   D2A65788  33.312  32.231   6.852
 5022POPC   C3A65789  33.040  32.097   7.212
 5022POPC   C4A65790  33.245  31.996   7.617
 5022POPC   C1B65791  32.835  32.581   6.180
 5022POPC   C2B65792  32.758  32.472   6.624
 5022POPC   C3B65793  32.932  32.542   7.007
 5022POPC   C4B65794  32.656  32.673   7.289
 5023POPC   NC365795   9.150  37.269   5.573
 5023POPC   PO465796   8.800  37.771   5.337
 5023POPC   GL165797   9.040  37.761   5.700
 5023POPC   GL265798   8.791  37.544   5.837
 5023POPC   C1A65799   9.155  37.736   6.146
 5023POPC   D2A65800   8.949  37.507   6.491
 5023POPC   C3A65801   9.024  37.454   6.951
 5023POPC   C4A65802   9.251  37.274   7.314
 5023POPC   C1B65803   8.669  37.852   6.194
 5023POPC   C2B65804   8.533  37.753   6.663
 5023POPC   C3B65805   8.699  37.843   7.098
 5023POPC   C4B65806   8.670  37.911   7.556
 5024POPC   NC365807  31.184  44.961   5.156
 5024POPC   PO465808  31.737  44.543   5.094
 5024POPC   GL165809  31.505  44.624   5.467
 5024POPC   GL265810  31.392  44.912   5.637
 5024POPC   C1A65811  31.481  44.484   5.891
 5024POPC   D2A65812  31.516  44.471   6.323
 5024POPC   C3A65813  31.367  44.402   6.741
 5024POPC   C4A65814  31.671  44.408   7.080
 5024POPC   C1B65815  31.413  44.962   6.106
 5024POPC   C2B65816  31.273  44.899   6.534
 5024POPC   C3B65817  31.378  44.861   6.957
 5024POPC   C4B65818  31.235   0.020   7.335
 5025POPC   NC365819  15.896  24.209   5.374
 5025POPC   PO465820  16.268  24.703   5.169
 5025POPC   GL165821  16.109  24.663   5.629
 5025POPC   GL265822  16.161  24.311   5.807
 5025POPC   C1A65823  16.233  24.691   6.113
 5025POPC   D2A65824  16.162  24.373   6.433
 5025POPC   C3A65825  15.878  24.485   6.764
 5025POPC   C4A65826  16.016  24.664   7.145
 5025POPC   C1B65827  15.775  24.385   6.073
 5025POPC   C2B65828  15.529  24.213   6.437
 5025POPC   C3B65829  15.540  24.086   6.865
 5025POPC   C4B65830  15.833  24.170   7.185
 5026POPC   NC365831  44.090  12.451   5.396
 5026POPC   PO465832  43.774  11.804   5.410
 5026POPC   GL165833  43.750  11.842   5.836
 5026POPC   GL265834  43.954  12.150   5.803
 5026POPC   C1A65835  43.978  11.849   6.225
 5026POPC   D2A65836  44.161  11.801   6.599
 5026POPC   C3A65837  43.938  11.956   6.945
 5026POPC   C4A65838  44.025  11.773   7.312
 5026POPC   C1B65839  44.059  12.401   6.164
 5026POPC   C2B65840  43.951  12.304   6.562
 5026POPC   C3B65841  43.999  12.483   6.973
 5026POPC   C4B65842  43.846  12.293   7.338
 5027POPC   NC365843  15.631  41.102   5.074
 5027POPC   PO465844  15.841  41.634   5.474
 5027POPC   GL165845  15.976  41.694   5.846
 5027POPC   GL265846  16.109  41.379   5.868
 5027POPC   C1A65847  16.076  41.779   6.238
 5027POPC   D2A65848  15.914  41.637   6.606
 5027POPC   C3A65849  15.980  41.659   7.002
 5027POPC   C4A65850  16.039  42.001   7.230
 5027POPC   C1B65851  15.950  41.236   6.287
 5027POPC   C2B65852  15.805  41.144   6.728
 5027POPC   C3B65853  15.620  41.315   7.112
 5027POPC   C4B65854  15.799  41.253   7.530
 5028POPC   NC365855  42.065  37.150   5.327
 5028POPC   PO465856  42.667  37.023   5.606
 5028POPC   GL165857  42.373  37.025   5.935
 5028POPC   GL265858  42.016  37.125   5.883
 5028POPC   C1A65859  42.450  37.035   6.366
 5028POPC   D2A65860  42.226  37.053   6.748
 5028POPC   C3A65861  42.411  36.856   7.115
 5028POPC   C4A65862  42.609  36.449   7.206
 5028POPC   C1B65863  41.974  36.852   6.281
 5028POPC   C2B65864  41.855  36.671   6.714
 5028POPC   C3B65865  41.875  36.903   7.124
 5028POPC   C4B65866  42.029  37.309   7.138
 5029POPC   NC365867  41.982   3.312   5.485
 5029POPC   PO465868  42.297   3.803   5.273
 5029POPC   GL165869  42.360   3.636   5.726
 5029POPC   GL265870  42.472   3.324   5.879
 5029POPC   C1A65871  42.531   3.736   6.164
 5029POPC   D2A65872  42.403   3.647   6.606
 5029POPC   C3A65873  42.660   3.679   7.003
 5029POPC   C4A65874  42.556   3.826   7.421
 5029POPC   C1B65875  42.653   3.213   6.278
 5029POPC   C2B65876  42.650   3.221   6.735
 5029POPC   C3B65877  42.487   3.163   7.139
 5029POPC   C4B65878  42.137   2.913   7.307
 5030POPC   NC365879  21.566  40.271   5.447
 5030POPC   PO465880  21.598  40.934   5.438
 5030POPC   GL165881  21.487  40.877   5.843
 5030POPC   GL265882  21.338  40.571   5.819
 5030POPC   C1A65883  21.475  40.991   6.254
 5030POPC   D2A65884  21.349  40.806   6.605
 5030POPC   C3A65885  21.384  41.083   6.893
 5030POPC   C4A65886  21.510  40.954   7.275
 5030POPC   C1B65887  21.432  40.457   6.239
 5030POPC   C2B65888  21.552  40.339   6.687
 5030POPC   C3B65889  21.560  40.430   7.178
 5030POPC   C4B65890  21.556  40.239   7.628
 5031POPC   NC365891   9.059   2.935   5.304
 5031POPC   PO465892   9.208   2.315   5.367
 5031POPC   GL165893   8.914   2.539   5.693
 5031POPC   GL265894   8.989   2.857   5.788
 5031POPC   C1A65895   8.687   2.667   6.130
 5031POPC   D2A65896   8.825   2.837   6.549
 5031POPC   C3A65897   8.705   2.628   6.953
 5031POPC   C4A65898   8.744   2.818   7.369
 5031POPC   C1B65899   9.208   2.834   6.177
 5031POPC   C2B65900   9.379   2.885   6.588
 5031POPC   C3B65901   9.209   2.760   6.959
 5031POPC   C4B65902   9.443   2.614   7.292
 5032POPC   NC365903  38.499  40.287   5.401
 5032POPC   PO465904  38.091  39.730   5.279
 5032POPC   GL165905  38.271  39.879   5.732
 5032POPC   GL265906  38.635  39.951   5.801
 5032POPC   C1A65907  38.354  40.001   6.227
 5032POPC   D2A65908  38.535  39.861   6.642
 5032POPC   C3A65909  38.331  40.033   7.008
 5032POPC   C4A65910  38.275  39.925   7.465
 5032POPC   C1B65911  38.856  39.908   6.234
 5032POPC   C2B65912  39.030  40.028   6.665
 5032POPC   C3B65913  38.863  40.131   7.085
 5032POPC   C4B65914  38.722  40.180   7.524
 5033POPC   NC365915  36.151  20.001   5.313
 5033POPC   PO465916  36.431  19.330   5.331
 5033POPC   GL165917  36.413  19.649   5.639
 5033POPC   GL265918  36.113  19.655   5.695
 5033POPC   C1A65919  36.439  19.832   6.069
 5033POPC   D2A65920  36.252  19.867   6.458
 5033POPC   C3A65921  36.473  19.825   6.809
 5033POPC   C4A65922  36.320  19.703   7.207
 5033POPC   C1B65923  35.931  19.661   6.094
 5033POPC   C2B65924  35.830  19.564   6.498
 5033POPC   C3B65925  35.916  19.762   6.888
 5033POPC   C4B65926  35.845  19.572   7.293
 5034POPC   NC365927  23.197  25.576   5.728
 5034POPC   PO465928  23.442  25.013   5.563
 5034POPC   GL165929  23.201  25.085   5.952
 5034POPC   GL265930  22.845  25.223   5.896
 5034POPC   C1A65931  23.118  25.380   6.319
 5034POPC   D2A65932  22.874  25.518   6.670
 5034POPC   C3A65933  23.055  25.307   6.994
 5034POPC   C4A65934  23.405  24.968   6.963
 5034POPC   C1B65935  22.576  25.360   6.238
 5034POPC   C2B65936  22.348  25.503   6.623
 5034POPC   C3B65937  22.503  25.515   7.044
 5034POPC   C4B65938  22.697  25.254   7.386
 5035POPC   NC365939  33.255  22.577   5.335
 5035POPC   PO465940  32.730  22.853   5.545
 5035POPC   GL165941  33.091  22.819   5.783
 5035POPC   GL265942  33.360  22.585   5.840
 5035POPC   C1A65943  33.018  22.764   6.197
 5035POPC   D2A65944  33.084  22.935   6.583
 5035POPC   C3A65945  32.856  22.769   6.915
 5035POPC   C4A65946  32.878  23.060   7.239
 5035POPC   C1B65947  33.537  22.796   6.242
 5035POPC   C2B65948  33.692  22.897   6.680
 5035POPC   C3B65949  33.394  22.993   7.010
 5035POPC   C4B65950  33.243  22.646   7.214
 5036POPC   NC365951  41.264  27.816   5.578
 5036POPC   PO465952  41.813  27.979   5.266
 5036POPC   GL165953  41.811  27.892   5.744
 5036POPC   GL265954  41.561  28.026   5.918
 5036POPC   C1A65955  41.635  27.572   6.111
 5036POPC   D2A65956  41.524  27.281   6.478
 5036POPC   C3A65957  41.539  27.514   6.848
 5036POPC   C4A65958  41.558  27.620   7.245
 5036POPC   C1B65959  41.250  27.942   6.218
 5036POPC   C2B65960  41.220  28.091   6.607
 5036POPC   C3B65961  41.233  27.937   6.993
 5036POPC   C4B65962  41.024  28.022   7.339
 5037POPC   NC365963   9.323   0.839   5.526
 5037POPC   PO465964   9.075   0.176   5.347
 5037POPC   GL165965   9.153   0.387   5.750
 5037POPC   GL265966   8.830   0.382   5.920
 5037POPC   C1A65967   9.195   0.617   6.183
 5037POPC   D2A65968   9.382   0.534   6.614
 5037POPC   C3A65969   9.108   0.477   7.003
 5037POPC   C4A65970   9.249   0.473   7.454
 5037POPC   C1B65971   8.628   0.651   6.204
 5037POPC   C2B65972   8.541   0.802   6.611
 5037POPC   C3B65973   8.530   0.646   7.010
 5037POPC   C4B65974   8.803   0.699   7.367
 5038POPC   NC365975   2.018  35.952   5.368
 5038POPC   PO465976   2.134  36.589   5.299
 5038POPC   GL165977   2.154  36.350   5.706
 5038POPC   GL265978   2.312  36.013   5.781
 5038POPC   C1A65979   1.953  36.248   6.112
 5038POPC   D2A65980   2.065  36.023   6.496
 5038POPC   C3A65981   1.820  36.033   6.889
 5038POPC   C4A65982   1.858  36.384   7.167
 5038POPC   C1B65983   2.509  36.123   6.165
 5038POPC   C2B65984   2.548  36.145   6.605
 5038POPC   C3B65985   2.286  36.230   6.923
 5038POPC   C4B65986   2.215  36.056   7.310
 5039POPC   NC365987   2.991  20.036   5.501
 5039POPC   PO465988   3.491  19.520   5.438
 5039POPC   GL165989   3.588  19.749   5.855
 5039POPC   GL265990   3.777  20.070   5.838
 5039POPC   C1A65991   3.388  19.660   6.320
 5039POPC   D2A65992   3.449  19.454   6.736
 5039POPC   C3A65993   3.383  19.697   7.153
 5039POPC   C4A65994   3.425  20.152   7.212
 5039POPC   C1B65995   3.610  20.136   6.257
 5039POPC   C2B65996   3.537  20.287   6.686
 5039POPC   C3B65997   3.872  20.225   6.972
 5039POPC   C4B65998   3.922  20.016   7.327
 5040POPC   NC365999  18.211  19.316   5.303
 5040POPC   PO466000  17.992  18.797   5.659
 5040POPC   GL166001  18.294  19.058   5.775
 5040POPC   GL266002  18.060  19.374   5.789
 5040POPC   C1A66003  18.551  18.833   6.103
 5040POPC   D2A66004  18.512  18.997   6.477
 5040POPC   C3A66005  18.285  18.906   6.814
 5040POPC   C4A66006  18.542  19.110   7.103
 5040POPC   C1B66007  18.155  19.281   6.206
 5040POPC   C2B66008  17.978  19.279   6.592
 5040POPC   C3B66009  18.130  19.356   6.986
 5040POPC   C4B66010  18.222  19.386   7.436
 5041POPC   NC366011  22.486  11.635   5.135
 5041POPC   PO466012  22.885  11.146   5.498
 5041POPC   GL166013  23.130  11.241   5.875
 5041POPC   GL266014  23.173  11.560   5.770
 5041POPC   C1A66015  23.056  11.297   6.322
 5041POPC   D2A66016  22.762  11.545   6.583
 5041POPC   C3A66017  22.641  11.256   6.913
 5041POPC   C4A66018  23.001  10.984   7.010
 5041POPC   C1B66019  23.048  11.781   6.135
 5041POPC   C2B66020  23.253  11.751   6.512
 5041POPC   C3B66021  23.172  11.588   6.889
 5041POPC   C4B66022  22.854  11.640   7.179
 5042POPC   NC366023  24.609  41.211   5.263
 5042POPC   PO466024  24.207  40.733   5.304
 5042POPC   GL166025  24.451  40.701   5.699
 5042POPC   GL266026  24.654  40.439   5.774
 5042POPC   C1A66027  24.687  40.839   6.085
 5042POPC   D2A66028  24.897  40.782   6.474
 5042POPC   C3A66029  24.598  40.759   6.812
 5042POPC   C4A66030  24.463  40.823   7.260
 5042POPC   C1B66031  24.457  40.399   6.192
 5042POPC   C2B66032  24.385  40.195   6.584
 5042POPC   C3B66033  24.340  40.371   7.011
 5042POPC   C4B66034  24.004  40.671   7.192
 5043POPC   NC366035  37.883  22.380   5.457
 5043POPC   PO466036  37.280  22.013   5.501
 5043POPC   GL166037  37.628  22.053   5.793
 5043POPC   GL266038  37.685  22.400   5.925
 5043POPC   C1A66039  37.788  21.967   6.219
 5043POPC   D2A66040  37.734  22.129   6.639
 5043POPC   C3A66041  37.787  21.821   6.963
 5043POPC   C4A66042  38.043  21.750   7.329
 5043POPC   C1B66043  37.346  22.276   6.205
 5043POPC   C2B66044  37.291  22.387   6.632
 5043POPC   C3B66045  37.290  22.079   6.930
 5043POPC   C4B66046  37.581  22.180   7.239
 5044POPC   NC366047  44.828  32.496   5.581
 5044POPC   PO466048  44.483  31.955   5.391
 5044POPC   GL166049  44.539  32.108   5.797
 5044POPC   GL266050  44.841  32.194   6.005
 5044POPC   C1A66051  44.378  32.287   6.188
 5044POPC   D2A66052  44.629  32.324   6.549
 5044POPC   C3A66053  44.437  32.412   6.925
 5044POPC   C4A66054  44.522  32.285   7.332
 5044POPC   C1B66055  44.805  32.618   6.187
 5044POPC   C2B66056  44.870  32.764   6.585
 5044POPC   C3B66057  44.937  32.496   6.927
 5044POPC   C4B66058  44.914  32.597   7.308
 5045POPC   NC366059  12.619   8.409   5.551
 5045POPC   PO466060  13.149   8.001   5.544
 5045POPC   GL166061  12.896   8.108   5.870
 5045POPC   GL266062  13.115   8.390   5.877
 5045POPC   C1A66063  12.634   8.188   6.245
 5045POPC   D2A66064  12.787   8.190   6.680
 5045POPC   C3A66065  12.621   8.027   7.049
 5045POPC   C4A66066  12.611   8.273   7.440
 5045POPC   C1B66067  13.126   8.348   6.314
 5045POPC   C2B66068  13.316   8.332   6.693
 5045POPC   C3B66069  13.162   8.257   7.102
 5045POPC   C4B66070  13.092   8.157   7.538
 5046POPC   NC366071   8.359  21.981   5.541
 5046POPC   PO466072   7.945  21.395   5.344
 5046POPC   GL166073   8.292  21.326   5.715
 5046POPC   GL266074   8.367  21.644   5.925
 5046POPC   C1A66075   8.408  21.223   6.187
 5046POPC   D2A66076   8.106  21.172   6.537
 5046POPC   C3A66077   8.034  21.407   6.904
 5046POPC   C4A66078   8.164  21.331   7.276
 5046POPC   C1B66079   8.099  21.652   6.317
 5046POPC   C2B66080   8.198  21.860   6.710
 5046POPC   C3B66081   8.253  21.813   7.161
 5046POPC   C4B66082   7.934  21.761   7.500
 5047POPC   NC366083   3.198  39.205   5.286
 5047POPC   PO466084   2.665  39.402   5.493
 5047POPC   GL166085   2.902  39.196   5.768
 5047POPC   GL266086   2.581  39.015   5.825
 5047POPC   C1A66087   3.097  39.224   6.180
 5047POPC   D2A66088   2.998  39.045   6.604
 5047POPC   C3A66089   2.873  39.158   7.034
 5047POPC   C4A66090   3.155  39.296   7.340
 5047POPC   C1B66091   2.601  39.084   6.248
 5047POPC   C2B66092   2.509  39.189   6.666
 5047POPC   C3B66093   2.352  39.011   7.045
 5047POPC   C4B66094   2.552  38.776   7.366
 5048POPC   NC366095   6.849   4.150   5.329
 5048POPC   PO466096   7.584   4.268   5.302
 5048POPC   GL166097   7.733   4.366   5.741
 5048POPC   GL266098   7.402   4.296   5.848
 5048POPC   C1A66099   7.746   4.305   6.229
 5048POPC   D2A66100   7.466   4.308   6.609
 5048POPC   C3A66101   7.551   4.370   7.067
 5048POPC   C4A66102   7.786   4.451   7.465
 5048POPC   C1B66103   7.304   4.000   6.199
 5048POPC   C2B66104   7.053   3.983   6.568
 5048POPC   C3B66105   7.164   3.989   7.006
 5048POPC   C4B66106   6.992   3.955   7.432
 5049POPC   NC366107  41.962  40.364   5.491
 5049POPC   PO466108  42.540  39.951   5.290
 5049POPC   GL166109  42.328  40.013   5.709
 5049POPC   GL266110  42.386  40.351   5.803
 5049POPC   C1A66111  42.211  39.968   6.163
 5049POPC   D2A66112  42.454  39.981   6.560
 5049POPC   C3A66113  42.240  40.002   6.973
 5049POPC   C4A66114  41.907  40.217   7.213
 5049POPC   C1B66115  42.668  40.212   6.123
 5049POPC   C2B66116  42.778  40.361   6.499
 5049POPC   C3B66117  42.537  40.433   6.852
 5049POPC   C4B66118  42.623  40.234   7.230
 5050POPC   NC366119  34.881   4.580   5.270
 5050POPC   PO466120  34.773   3.970   5.194
 5050POPC   GL166121  34.735   4.205   5.633
 5050POPC   GL266122  34.401   4.367   5.741
 5050POPC   C1A66123  34.643   4.192   6.109
 5050POPC   D2A66124  34.565   4.351   6.493
 5050POPC   C3A66125  34.693   4.133   6.829
 5050POPC   C4A66126  34.567   4.084   7.235
 5050POPC   C1B66127  34.556   4.691   6.076
 5050POPC   C2B66128  34.567   4.858   6.510
 5050POPC   C3B66129  34.468   4.651   6.913
 5050POPC   C4B66130  34.583   4.652   7.338
 5051POPC   NC366131  13.924  13.094   5.427
 5051POPC   PO466132  13.718  12.447   5.200
 5051POPC   GL166133  13.783  12.665   5.667
 5051POPC   GL266134  13.515  12.917   5.762
 5051POPC   C1A66135  13.950  12.963   6.067
 5051POPC   D2A66136  14.061  12.825   6.516
 5051POPC   C3A66137  13.885  12.865   6.922
 5051POPC   C4A66138  13.948  12.823   7.382
 5051POPC   C1B66139  13.527  12.720   6.178
 5051POPC   C2B66140  13.232  12.636   6.472
 5051POPC   C3B66141  13.375  12.838   6.787
 5051POPC   C4B66142  13.467  12.795   7.190
 5052POPC   NC366143  22.784  32.027   5.439
 5052POPC   PO466144  23.274  32.612   5.411
 5052POPC   GL166145  23.209  32.451   5.833
 5052POPC   GL266146  23.093  32.110   5.864
 5052POPC   C1A66147  23.092  32.393   6.288
 5052POPC   D2A66148  22.866  32.196   6.643
 5052POPC   C3A66149  23.087  32.185   7.000
 5052POPC   C4A66150  23.083  32.574   7.124
 5052POPC   C1B66151  22.806  31.956   6.173
 5052POPC   C2B66152  22.857  31.700   6.550
 5052POPC   C3B66153  22.740  31.743   6.982
 5052POPC   C4B66154  22.623  32.103   7.173
 5053POPC   NC366155  17.014  15.675   5.110
 5053POPC   PO466156  16.704  16.062   5.603
 5053POPC   GL166157  16.828  16.122   5.924
 5053POPC   GL266158  16.877  16.464   5.973
 5053POPC   C1A66159  16.838  15.923   6.265
 5053POPC   D2A66160  17.053  15.664   6.486
 5053POPC   C3A66161  16.781  15.738   6.769
 5053POPC   C4A66162  16.742  16.010   7.115
 5053POPC   C1B66163  16.591  16.379   6.274
 5053POPC   C2B66164  16.601  16.221   6.664
 5053POPC   C3B66165  16.331  16.280   6.988
 5053POPC   C4B66166  16.397  16.281   7.405
 5054POPC   NC366167  33.100  44.752   5.166
 5054POPC   PO466168  32.552  44.483   5.454
 5054POPC   GL166169  32.819  44.493   5.817
 5054POPC   GL266170  33.154  44.529   5.729
 5054POPC   C1A66171  32.835  44.589   6.255
 5054POPC   D2A66172  33.013  44.490   6.662
 5054POPC   C3A66173  33.144  44.800   6.968
 5054POPC   C4A66174  32.879  44.987   7.295
 5054POPC   C1B66175  33.374  44.357   6.142
 5054POPC   C2B66176  33.420  44.196   6.601
 5054POPC   C3B66177  33.251  44.219   7.014
 5054POPC   C4B66178  33.040  44.468   7.346
 5055POPC   NC366179  34.959  31.042   5.530
 5055POPC   PO466180  35.417  30.513   5.338
 5055POPC   GL166181  35.278  30.704   5.718
 5055POPC   GL266182  35.015  30.480   5.740
 5055POPC   C1A66183  35.246  30.986   6.118
 5055POPC   D2A66184  35.369  31.154   6.520
 5055POPC   C3A66185  35.398  30.879   6.905
 5055POPC   C4A66186  35.245  30.600   7.242
 5055POPC   C1B66187  35.244  30.434   6.150
 5055POPC   C2B66188  35.220  30.572   6.533
 5055POPC   C3B66189  35.014  30.381   6.861
 5055POPC   C4B66190  35.072  30.136   7.236
 5056POPC   NC366191  27.364  25.451   5.357
 5056POPC   PO466192  27.769  25.092   5.630
 5056POPC   GL166193  27.409  25.089   5.919
 5056POPC   GL266194  27.287  25.413   5.881
 5056POPC   C1A66195  27.453  24.904   6.320
 5056POPC   D2A66196  27.650  24.946   6.733
 5056POPC   C3A66197  27.503  25.143   7.112
 5056POPC   C4A66198  27.602  25.009   7.531
 5056POPC   C1B66199  27.397  25.395   6.346
 5056POPC   C2B66200  27.192  25.337   6.742
 5056POPC   C3B66201  27.104  25.485   7.176
 5056POPC   C4B66202  27.468  25.523   7.471
 5057POPC   NC366203  37.383  10.917   5.529
 5057POPC   PO466204  38.041  10.710   5.727
 5057POPC   GL166205  37.707  10.770   5.993
 5057POPC   GL266206  37.428  10.604   5.948
 5057POPC   C1A66207  37.651  10.543   6.387
 5057POPC   D2A66208  37.770  10.156   6.552
 5057POPC   C3A66209  37.875  10.253   6.959
 5057POPC   C4A66210  37.693  10.495   7.287
 5057POPC   C1B66211  37.259  10.894   6.227
 5057POPC   C2B66212  37.256  10.762   6.638
 5057POPC   C3B66213  37.364  10.442   6.897
 5057POPC   C4B66214  37.208  10.627   7.247
 5058POPC   NC366215  40.935  42.654   5.342
 5058POPC   PO466216  40.556  42.123   5.516
 5058POPC   GL166217  40.709  42.379   5.775
 5058POPC   GL266218  40.564  42.723   5.732
 5058POPC   C1A66219  40.840  42.238   6.176
 5058POPC   D2A66220  40.983  41.922   6.419
 5058POPC   C3A66221  40.835  41.963   6.820
 5058POPC   C4A66222  40.761  42.203   7.204
 5058POPC   C1B66223  40.849  42.739   6.076
 5058POPC   C2B66224  40.822  42.643   6.493
 5058POPC   C3B66225  40.846  42.626   6.918
 5058POPC   C4B66226  40.725  42.722   7.318
 5059POPC   NC366227  39.960  20.717   5.298
 5059POPC   PO466228  39.426  20.873   5.638
 5059POPC   GL166229  39.812  20.758   5.840
 5059POPC   GL266230  40.035  20.472   5.749
 5059POPC   C1A66231  40.073  20.741   6.200
 5059POPC   D2A66232  40.203  20.475   6.512
 5059POPC   C3A66233  40.087  20.581   6.916
 5059POPC   C4A66234  40.349  20.810   7.212
 5059POPC   C1B66235  39.852  20.265   6.123
 5059POPC   C2B66236  39.728  20.324   6.568
 5059POPC   C3B66237  39.835  20.133   6.956
 5059POPC   C4B66238  39.791  20.238   7.404
 5060POPC   NC366239  40.083  37.492   5.481
 5060POPC   PO466240  39.533  37.876   5.470
 5060POPC   GL166241  39.829  37.792   5.829
 5060POPC   GL266242  40.228  37.771   5.901
 5060POPC   C1A66243  39.887  37.604   6.253
 5060POPC   D2A66244  39.956  37.737   6.668
 5060POPC   C3A66245  39.958  37.495   7.035
 5060POPC   C4A66246  40.219  37.765   7.237
 5060POPC   C1B66247  40.360  37.850   6.365
 5060POPC   C2B66248  40.451  37.572   6.724
 5060POPC   C3B66249  40.526  37.331   7.078
 5060POPC   C4B66250  40.372  37.366   7.497
 5061POPC   NC366251  15.242  12.495   5.480
 5061POPC   PO466252  14.840  11.954   5.339
 5061POPC   GL166253  15.093  12.017   5.747
 5061POPC   GL266254  15.220  12.309   5.946
 5061POPC   C1A66255  15.229  11.839   6.187
 5061POPC   D2A66256  15.262  11.937   6.643
 5061POPC   C3A66257  14.840  12.013   6.816
 5061POPC   C4A66258  14.677  12.068   7.272
 5061POPC   C1B66259  15.432  12.523   6.279
 5061POPC   C2B66260  15.497  12.464   6.715
 5061POPC   C3B66261  15.334  12.465   7.108
 5061POPC   C4B66262  15.161  12.112   7.193
 5062POPC   NC366263   5.051  31.251   5.224
 5062POPC   PO466264   5.192  30.595   5.399
 5062POPC   GL166265   5.001  30.775   5.708
 5062POPC   GL266266   4.801  31.056   5.644
 5062POPC   C1A66267   5.165  30.808   6.135
 5062POPC   D2A66268   4.939  30.609   6.480
 5062POPC   C3A66269   5.168  30.553   6.856
 5062POPC   C4A66270   5.296  30.844   7.150
 5062POPC   C1B66271   4.678  30.901   6.071
 5062POPC   C2B66272   4.631  31.020   6.497
 5062POPC   C3B66273   4.867  30.987   6.890
 5062POPC   C4B66274   4.631  30.961   7.277
 5063POPC   NC366275  20.178   9.759   5.336
 5063POPC   PO466276  20.804   9.643   5.258
 5063POPC   GL166277  20.536   9.613   5.675
 5063POPC   GL266278  20.399   9.970   5.752
 5063POPC   C1A66279  20.419   9.664   6.136
 5063POPC   D2A66280  20.684   9.880   6.459
 5063POPC   C3A66281  20.672   9.691   6.860
 5063POPC   C4A66282  20.458   9.666   7.239
 5063POPC   C1B66283  20.394  10.193   6.173
 5063POPC   C2B66284  20.344  10.226   6.650
 5063POPC   C3B66285  20.461  10.140   7.079
 5063POPC   C4B66286  20.866   9.992   7.257
 5064POPC   NC366287  15.965  36.626   5.497
 5064POPC   PO466288  16.284  37.226   5.422
 5064POPC   GL166289  16.044  37.033   5.800
 5064POPC   GL266290  16.115  36.650   5.967
 5064POPC   C1A66291  15.948  37.054   6.234
 5064POPC   D2A66292  16.028  36.818   6.611
 5064POPC   C3A66293  15.846  37.102   6.892
 5064POPC   C4A66294  15.973  37.235   7.283
 5064POPC   C1B66295  15.740  36.596   6.213
 5064POPC   C2B66296  15.548  36.671   6.627
 5064POPC   C3B66297  15.757  36.609   7.038
 5064POPC   C4B66298  16.161  36.755   7.174
 5065POPC   NC366299  36.584   0.112   5.379
 5065POPC   PO466300  35.989   0.508   5.391
 5065POPC   GL166301  36.046   0.495   5.811
 5065POPC   GL266302  35.726   0.610   5.861
 5065POPC   C1A66303  36.094   0.643   6.232
 5065POPC   D2A66304  36.420   0.639   6.537
 5065POPC   C3A66305  36.284   0.588   6.958
 5065POPC   C4A66306  36.104   0.784   7.304
 5065POPC   C1B66307  35.707   0.283   6.191
 5065POPC   C2B66308  35.850   0.125   6.597
 5065POPC   C3B66309  35.776   0.223   7.034
 5065POPC   C4B66310  36.030   0.291   7.370
 5066POPC   NC366311  44.168   5.675   5.364
 5066POPC   PO466312  43.733   6.212   5.355
 5066POPC   GL166313  43.797   6.029   5.752
 5066POPC   GL266314  44.016   5.788   5.824
 5066POPC   C1A66315  43.649   5.850   6.149
 5066POPC   D2A66316  43.845   5.772   6.531
 5066POPC   C3A66317  43.670   5.775   6.931
 5066POPC   C4A66318  43.757   5.877   7.336
 5066POPC   C1B66319  44.153   6.037   6.184
 5066POPC   C2B66320  44.280   6.006   6.628
 5066POPC   C3B66321  44.198   6.250   6.983
 5066POPC   C4B66322  44.084   6.253   7.417
 5067POPC   NC366323  19.947   5.319   5.399
 5067POPC   PO466324  19.564   4.764   5.448
 5067POPC   GL166325  19.673   5.043   5.769
 5067POPC   GL266326  19.738   5.397   5.847
 5067POPC   C1A66327  19.831   5.006   6.163
 5067POPC   D2A66328  19.694   5.217   6.484
 5067POPC   C3A66329  19.722   4.936   6.845
 5067POPC   C4A66330  19.691   5.007   7.272
 5067POPC   C1B66331  20.062   5.476   6.146
 5067POPC   C2B66332  20.050   5.617   6.551
 5067POPC   C3B66333  19.848   5.440   6.913
 5067POPC   C4B66334  19.815   5.491   7.318
 5068POPC   NC366335  21.660  33.160   5.317
 5068POPC   PO466336  21.311  32.606   5.524
 5068POPC   GL166337  21.356  33.044   5.759
 5068POPC   GL266338  21.033  33.263   5.829
 5068POPC   C1A66339  21.437  33.131   6.215
 5068POPC   D2A66340  21.609  32.837   6.556
 5068POPC   C3A66341  21.430  32.895   6.961
 5068POPC   C4A66342  21.413  33.338   7.125
 5068POPC   C1B66343  20.915  32.971   6.129
 5068POPC   C2B66344  21.096  32.841   6.499
 5068POPC   C3B66345  20.992  32.596   6.822
 5068POPC   C4B66346  21.011  32.738   7.232
 5069POPC   NC366347  13.212   9.206   5.437
 5069POPC   PO466348  12.637   8.839   5.354
 5069POPC   GL166349  12.927   8.838   5.708
 5069POPC   GL266350  12.975   9.129   5.910
 5069POPC   C1A66351  12.800   8.691   6.128
 5069POPC   D2A66352  12.691   8.663   6.533
 5069POPC   C3A66353  12.921   8.683   6.926
 5069POPC   C4A66354  12.933   8.642   7.380
 5069POPC   C1B66355  12.661   9.168   6.234
 5069POPC   C2B66356  12.744   9.160   6.648
 5069POPC   C3B66357  12.967   9.339   6.954
 5069POPC   C4B66358  12.780   9.096   7.234
 5070POPC   NC366359  13.320  37.171   5.379
 5070POPC   PO466360  13.574  36.606   5.243
 5070POPC   GL166361  13.702  36.772   5.709
 5070POPC   GL266362  13.494  37.006   5.867
 5070POPC   C1A66363  13.962  36.958   6.092
 5070POPC   D2A66364  14.096  37.072   6.562
 5070POPC   C3A66365  13.788  37.139   6.905
 5070POPC   C4A66366  13.705  37.039   7.348
 5070POPC   C1B66367  13.559  36.678   6.219
 5070POPC   C2B66368  13.741  36.604   6.661
 5070POPC   C3B66369  13.451  36.756   7.003
 5070POPC   C4B66370  13.265  37.202   7.122
 5071POPC   NC366371  27.009  35.720   5.381
 5071POPC   PO466372  26.995  35.049   5.449
 5071POPC   GL166373  26.840  35.229   5.856
 5071POPC   GL266374  26.778  35.590   5.840
 5071POPC   C1A66375  26.626  35.280   6.257
 5071POPC   D2A66376  26.655  35.441   6.686
 5071POPC   C3A66377  26.765  35.174   7.021
 5071POPC   C4A66378  26.649  34.952   7.377
 5071POPC   C1B66379  26.919  35.698   6.280
 5071POPC   C2B66380  27.054  35.747   6.719
 5071POPC   C3B66381  26.948  35.626   7.181
 5071POPC   C4B66382  26.891  35.333   7.577
 5072POPC   NC366383  10.579  24.197   5.554
 5072POPC   PO466384  10.751  23.546   5.449
 5072POPC   GL166385  10.604  23.743   5.826
 5072POPC   GL266386  10.833  23.987   5.916
 5072POPC   C1A66387  10.386  23.816   6.235
 5072POPC   D2A66388  10.156  23.924   6.623
 5072POPC   C3A66389  10.414  23.756   6.972
 5072POPC   C4A66390  10.583  23.604   7.359
 5072POPC   C1B66391  10.785  24.135   6.328
 5072POPC   C2B66392  10.791  23.797   6.618
 5072POPC   C3B66393  10.940  23.867   7.024
 5072POPC   C4B66394  10.967  23.926   7.455
 5073POPC   NC366395  37.848  13.233   5.378
 5073POPC   PO466396  37.370  12.747   5.351
 5073POPC   GL166397  37.601  12.850   5.742
 5073POPC   GL266398  37.831  12.593   5.858
 5073POPC   C1A66399  37.709  13.174   6.060
 5073POPC   D2A66400  37.910  13.243   6.491
 5073POPC   C3A66401  37.899  12.909   6.785
 5073POPC   C4A66402  37.610  13.004   7.145
 5073POPC   C1B66403  37.847  12.745   6.271
 5073POPC   C2B66404  37.487  12.733   6.491
 5073POPC   C3B66405  37.504  12.577   6.858
 5073POPC   C4B66406  37.324  12.569   7.211
 5074POPC   NC366407  14.475   9.411   5.745
 5074POPC   PO466408  14.306   8.921   5.258
 5074POPC   GL166409  14.470   8.889   5.680
 5074POPC   GL266410  14.474   8.560   5.804
 5074POPC   C1A66411  14.342   8.933   6.124
 5074POPC   D2A66412  14.520   9.120   6.472
 5074POPC   C3A66413  14.438   8.982   6.867
 5074POPC   C4A66414  14.658   9.097   7.215
 5074POPC   C1B66415  14.221   8.462   6.224
 5074POPC   C2B66416  14.336   8.481   6.660
 5074POPC   C3B66417  14.129   8.625   7.010
 5074POPC   C4B66418  14.269   8.799   7.379
 5075POPC   NC366419  16.256  33.827   5.408
 5075POPC   PO466420  16.824  33.475   5.557
 5075POPC   GL166421  16.828  33.755   5.905
 5075POPC   GL266422  16.488  33.763   5.867
 5075POPC   C1A66423  16.907  33.793   6.366
 5075POPC   D2A66424  16.924  33.670   6.813
 5075POPC   C3A66425  16.906  33.974   7.174
 5075POPC   C4A66426  17.064  34.087   7.624
 5075POPC   C1B66427  16.389  33.759   6.294
 5075POPC   C2B66428  16.461  33.873   6.724
 5075POPC   C3B66429  16.430  33.769   7.176
 5075POPC   C4B66430  16.257  33.805   7.604
 5076POPC   NC366431  42.145  43.419   5.358
 5076POPC   PO466432  42.034  42.758   5.463
 5076POPC   GL166433  42.318  42.947   5.790
 5076POPC   GL266434  42.350  43.281   5.800
 5076POPC   C1A66435  42.362  43.089   6.261
 5076POPC   D2A66436  42.193  43.349   6.622
 5076POPC   C3A66437  42.436  43.286   6.998
 5076POPC   C4A66438  42.444  43.261   7.460
 5076POPC   C1B66439  42.018  43.454   6.134
 5076POPC   C2B66440  41.835  43.731   6.480
 5076POPC   C3B66441  41.997  43.771   6.913
 5076POPC   C4B66442  42.018  43.456   7.224
 5077POPC   NC366443  23.755  40.691   5.259
 5077POPC   PO466444  23.322  41.148   5.534
 5077POPC   GL166445  23.668  40.866   5.764
 5077POPC   GL266446  23.937  40.606   5.732
 5077POPC   C1A66447  23.647  40.661   6.170
 5077POPC   D2A66448  23.400  40.778   6.522
 5077POPC   C3A66449  23.626  40.664   6.857
 5077POPC   C4A66450  23.502  40.629   7.256
 5077POPC   C1B66451  24.128  40.835   6.095
 5077POPC   C2B66452  24.129  40.817   6.561
 5077POPC   C3B66453  24.174  41.071   6.939
 5077POPC   C4B66454  24.132  41.252   7.351
 5078POPC   NC366455  43.404   4.210   5.120
 5078POPC   PO466456  43.040   3.986   5.638
 5078POPC   GL166457  43.268   3.991   6.065
 5078POPC   GL266458  43.353   4.332   6.081
 5078POPC   C1A66459  43.468   4.097   6.514
 5078POPC   D2A66460  43.582   4.435   6.855
 5078POPC   C3A66461  43.203   4.506   7.120
 5078POPC   C4A66462  42.862   4.179   7.196
 5078POPC   C1B66463  43.008   4.303   6.441
 5078POPC   C2B66464  42.791   4.521   6.820
 5078POPC   C3B66465  42.749   4.692   7.277
 5078POPC   C4B66466  42.802   5.067   7.542
 5079POPC   NC366467  22.323  20.663   5.251
 5079POPC   PO466468  21.703  20.416   5.451
 5079POPC   GL166469  21.905  20.649   5.744
 5079POPC   GL266470  22.182  20.410   5.721
 5079POPC   C1A66471  22.071  20.767   6.173
 5079POPC   D2A66472  22.491  20.818   6.417
 5079POPC   C3A66473  22.505  20.764   6.859
 5079POPC   C4A66474  22.248  20.798   7.213
 5079POPC   C1B66475  22.417  20.397   6.104
 5079POPC   C2B66476  22.325  20.345   6.576
 5079POPC   C3B66477  22.272  20.296   7.059
 5079POPC   C4B66478  22.133  20.308   7.523
 5080POPC   NC366479  28.178  40.928   5.110
 5080POPC   PO466480  27.598  40.952   5.463
 5080POPC   GL166481  27.474  40.594   5.779
 5080POPC   GL266482  27.249  40.842   5.906
 5080POPC   C1A66483  27.319  40.456   6.228
 5080POPC   D2A66484  27.156  40.617   6.630
 5080POPC   C3A66485  27.413  40.821   6.936
 5080POPC   C4A66486  27.561  40.588   7.253
 5080POPC   C1B66487  27.620  40.894   6.143
 5080POPC   C2B66488  27.748  40.754   6.513
 5080POPC   C3B66489  27.935  41.000   6.819
 5080POPC   C4B66490  27.863  41.029   7.223
 5081POPC   NC366491   4.826   4.118   5.031
 5081POPC   PO466492   4.376   4.541   5.385
 5081POPC   GL166493   4.298   4.426   5.842
 5081POPC   GL266494   4.530   4.245   5.928
 5081POPC   C1A66495   4.221   4.318   6.315
 5081POPC   D2A66496   4.381   4.093   6.693
 5081POPC   C3A66497   4.333   4.327   7.065
 5081POPC   C4A66498   3.948   4.590   7.083
 5081POPC   C1B66499   4.719   4.129   6.317
 5081POPC   C2B66500   4.852   3.877   6.656
 5081POPC   C3B66501   4.674   3.902   7.073
 5081POPC   C4B66502   4.432   4.017   7.484
 5082POPC   NC366503  17.814  36.898   5.353
 5082POPC   PO466504  17.187  37.228   5.505
 5082POPC   GL166505  17.338  36.871   5.756
 5082POPC   GL266506  17.693  36.909   5.830
 5082POPC   C1A66507  17.385  36.845   6.232
 5082POPC   D2A66508  17.291  37.105   6.615
 5082POPC   C3A66509  17.359  36.941   7.045
 5082POPC   C4A66510  17.449  36.833   7.479
 5082POPC   C1B66511  17.852  37.108   6.181
 5082POPC   C2B66512  17.776  36.958   6.575
 5082POPC   C3B66513  17.826  37.092   6.955
 5082POPC   C4B66514  17.944  36.948   7.340
 5083POPC   NC366515   7.629  28.463   5.260
 5083POPC   PO466516   7.041  28.113   5.398
 5083POPC   GL166517   7.210  28.023   5.854
 5083POPC   GL266518   7.410  28.324   5.733
 5083POPC   C1A66519   7.583  28.097   6.148
 5083POPC   D2A66520   7.641  28.331   6.515
 5083POPC   C3A66521   7.305  28.336   6.825
 5083POPC   C4A66522   7.408  28.170   7.216
 5083POPC   C1B66523   7.428  28.610   6.069
 5083POPC   C2B66524   7.320  28.716   6.475
 5083POPC   C3B66525   7.602  28.782   6.813
 5083POPC   C4B66526   7.460  28.668   7.197
 5084POPC   NC366527  37.552  33.667   5.568
 5084POPC   PO466528  38.260  33.559   5.386
 5084POPC   GL166529  38.023  33.710   5.770
 5084POPC   GL266530  37.848  33.419   5.907
 5084POPC   C1A66531  37.845  33.867   6.174
 5084POPC   D2A66532  37.602  33.894   6.576
 5084POPC   C3A66533  37.800  34.003   6.955
 5084POPC   C4A66534  38.003  34.041   7.395
 5084POPC   C1B66535  37.423  33.450   6.165
 5084POPC   C2B66536  37.318  33.427   6.597
 5084POPC   C3B66537  37.566  33.533   6.938
 5084POPC   C4B66538  37.613  33.718   7.338
 5085POPC   NC366539  20.877  21.112   5.297
 5085POPC   PO466540  20.259  21.302   5.457
 5085POPC   GL166541  20.517  21.551   5.713
 5085POPC   GL266542  20.771  21.312   5.766
 5085POPC   C1A66543  20.565  21.616   6.171
 5085POPC   D2A66544  20.800  21.619   6.563
 5085POPC   C3A66545  20.674  21.448   6.947
 5085POPC   C4A66546  20.351  21.513   7.247
 5085POPC   C1B66547  20.922  21.225   6.185
 5085POPC   C2B66548  20.751  21.076   6.560
 5085POPC   C3B66549  20.834  20.948   6.957
 5085POPC   C4B66550  20.636  21.093   7.315
 5086POPC   NC366551   1.575  12.106   5.166
 5086POPC   PO466552   1.004  11.922   5.321
 5086POPC   GL166553   1.266  12.098   5.701
 5086POPC   GL266554   1.447  11.867   5.894
 5086POPC   C1A66555   1.219  12.169   6.196
 5086POPC   D2A66556   1.299  11.953   6.582
 5086POPC   C3A66557   1.243  12.119   6.955
 5086POPC   C4A66558   0.874  12.128   7.173
 5086POPC   C1B66559   1.667  11.784   6.260
 5086POPC   C2B66560   1.752  11.801   6.729
 5086POPC   C3B66561   1.476  11.656   7.047
 5086POPC   C4B66562   1.523  11.729   7.503
 5087POPC   NC366563  13.826  10.728   5.396
 5087POPC   PO466564  13.232  10.338   5.366
 5087POPC   GL166565  13.537  10.464   5.725
 5087POPC   GL266566  13.843  10.294   5.813
 5087POPC   C1A66567  13.780  10.731   6.052
 5087POPC   D2A66568  13.925  10.893   6.426
 5087POPC   C3A66569  13.593  10.723   6.677
 5087POPC   C4A66570  13.528  10.577   7.074
 5087POPC   C1B66571  13.944  10.292   6.267
 5087POPC   C2B66572  13.840  10.274   6.720
 5087POPC   C3B66573  14.021  10.378   7.127
 5087POPC   C4B66574  13.948  10.197   7.553
 5088POPC   NC366575  32.519   9.133   5.469
 5088POPC   PO466576  31.930   8.896   5.314
 5088POPC   GL166577  32.210   8.840   5.737
 5088POPC   GL266578  32.338   9.173   5.930
 5088POPC   C1A66579  32.324   8.766   6.198
 5088POPC   D2A66580  32.183   8.969   6.573
 5088POPC   C3A66581  32.239   8.791   6.988
 5088POPC   C4A66582  32.199   8.858   7.428
 5088POPC   C1B66583  32.520   9.311   6.349
 5088POPC   C2B66584  32.288   9.459   6.730
 5088POPC   C3B66585  32.224   9.304   7.144
 5088POPC   C4B66586  32.526   9.240   7.442
 5089POPC   NC366587  14.944  32.875   4.864
 5089POPC   PO466588  15.263  32.918   5.365
 5089POPC   GL166589  15.219  32.869   5.813
 5089POPC   GL266590  14.887  33.000   5.791
 5089POPC   C1A66591  15.432  32.961   6.252
 5089POPC   D2A66592  15.555  33.158   6.681
 5089POPC   C3A66593  15.392  33.019   7.119
 5089POPC   C4A66594  15.252  32.787   7.504
 5089POPC   C1B66595  14.935  33.087   6.258
 5089POPC   C2B66596  15.031  33.084   6.732
 5089POPC   C3B66597  14.880  32.953   7.160
 5089POPC   C4B66598  14.872  33.116   7.583
 5090POPC   NC366599  11.317  38.834   5.308
 5090POPC   PO466600  11.191  39.478   5.434
 5090POPC   GL166601  11.142  39.333   5.788
 5090POPC   GL266602  11.075  39.025   5.775
 5090POPC   C1A66603  11.340  39.240   6.152
 5090POPC   D2A66604  11.520  39.464   6.446
 5090POPC   C3A66605  11.419  39.424   6.868
 5090POPC   C4A66606  11.758  39.354   7.159
 5090POPC   C1B66607  11.050  38.822   6.182
 5090POPC   C2B66608  11.366  38.883   6.532
 5090POPC   C3B66609  11.519  38.932   6.945
 5090POPC   C4B66610  11.335  39.133   7.329
 5091POPC   NC366611   7.031   6.792   5.318
 5091POPC   PO466612   6.517   6.370   5.121
 5091POPC   GL166613   6.657   6.513   5.554
 5091POPC   GL266614   6.584   6.883   5.543
 5091POPC   C1A66615   6.660   6.395   6.014
 5091POPC   D2A66616   6.656   6.581   6.447
 5091POPC   C3A66617   6.593   6.332   6.821
 5091POPC   C4A66618   6.526   6.430   7.241
 5091POPC   C1B66619   6.652   6.904   6.004
 5091POPC   C2B66620   6.872   7.044   6.392
 5091POPC   C3B66621   6.965   6.943   6.832
 5091POPC   C4B66622   6.661   6.921   7.160
 5092POPC   NC366623  42.226  29.442   5.487
 5092POPC   PO466624  42.123  28.824   5.394
 5092POPC   GL166625  42.156  29.029   5.795
 5092POPC   GL266626  42.516  29.026   5.731
 5092POPC   C1A66627  42.057  29.258   6.208
 5092POPC   D2A66628  42.070  29.328   6.691
 5092POPC   C3A66629  41.940  29.268   7.135
 5092POPC   C4A66630  42.161  29.423   7.518
 5092POPC   C1B66631  42.726  28.996   6.132
 5092POPC   C2B66632  42.475  29.095   6.488
 5092POPC   C3B66633  42.434  29.044   6.928
 5092POPC   C4B66634  42.788  28.975   7.180
 5093POPC   NC366635  36.332  21.621   5.203
 5093POPC   PO466636  36.335  21.006   5.324
 5093POPC   GL166637  36.404  21.347   5.650
 5093POPC   GL266638  36.295  21.120   5.902
 5093POPC   C1A66639  36.321  21.626   6.037
 5093POPC   D2A66640  36.480  21.768   6.463
 5093POPC   C3A66641  36.244  21.791   6.862
 5093POPC   C4A66642  35.855  21.585   7.046
 5093POPC   C1B66643  35.929  21.249   6.164
 5093POPC   C2B66644  36.029  21.464   6.518
 5093POPC   C3B66645  36.409  21.329   6.738
 5093POPC   C4B66646  36.361  21.172   7.128
 5094POPC   NC366647  43.314  11.816   5.444
 5094POPC   PO466648  42.930  12.334   5.504
 5094POPC   GL166649  43.115  12.289   5.881
 5094POPC   GL266650  43.440  12.239   5.767
 5094POPC   C1A66651  43.099  12.133   6.306
 5094POPC   D2A66652  43.062  12.314   6.705
 5094POPC   C3A66653  43.107  11.989   7.002
 5094POPC   C4A66654  43.002  11.822   7.403
 5094POPC   C1B66655  43.585  12.173   6.188
 5094POPC   C2B66656  43.518  12.044   6.627
 5094POPC   C3B66657  43.492  12.322   6.988
 5094POPC   C4B66658  43.310  12.261   7.416
 5095POPC   NC366659  15.078  35.225   4.927
 5095POPC   PO466660  15.303  35.739   5.328
 5095POPC   GL166661  15.445  35.812   5.757
 5095POPC   GL266662  15.122  35.665   5.865
 5095POPC   C1A66663  15.532  35.605   6.172
 5095POPC   D2A66664  15.278  35.438   6.535
 5095POPC   C3A66665  15.435  35.445   6.982
 5095POPC   C4A66666  15.297  35.294   7.396
 5095POPC   C1B66667  14.852  35.473   6.211
 5095POPC   C2B66668  14.729  35.511   6.664
 5095POPC   C3B66669  14.797  35.380   7.116
 5095POPC   C4B66670  14.845  35.434   7.588
 5096POPC   NC366671  25.507  18.392   5.004
 5096POPC   PO466672  25.089  17.841   5.333
 5096POPC   GL166673  25.087  18.183   5.637
 5096POPC   GL266674  25.402  18.370   5.560
 5096POPC   C1A66675  24.875  18.284   6.020
 5096POPC   D2A66676  25.121  18.216   6.411
 5096POPC   C3A66677  25.325  17.998   6.767
 5096POPC   C4A66678  25.149  18.049   7.165
 5096POPC   C1B66679  25.327  18.502   5.996
 5096POPC   C2B66680  25.409  18.634   6.427
 5096POPC   C3B66681  25.257  18.505   6.836
 5096POPC   C4B66682  25.417  18.483   7.242
 5097POPC   NC366683  14.104   2.905   5.440
 5097POPC   PO466684  14.547   2.471   5.376
 5097POPC   GL166685  14.387   2.625   5.746
 5097POPC   GL266686  14.089   2.467   5.736
 5097POPC   C1A66687  14.389   2.865   6.138
 5097POPC   D2A66688  14.530   3.064   6.532
 5097POPC   C3A66689  14.516   2.774   6.882
 5097POPC   C4A66690  14.444   2.749   7.318
 5097POPC   C1B66691  14.189   2.385   6.157
 5097POPC   C2B66692  14.168   2.570   6.555
 5097POPC   C3B66693  14.190   2.393   6.986
 5097POPC   C4B66694  14.137   2.349   7.449
 5098POPC   NC366695   6.890  27.044   5.624
 5098POPC   PO466696   6.878  26.429   5.520
 5098POPC   GL166697   6.857  26.624   5.905
 5098POPC   GL266698   6.506  26.741   5.918
 5098POPC   C1A66699   6.785  26.823   6.311
 5098POPC   D2A66700   6.519  26.623   6.584
 5098POPC   C3A66701   6.632  26.671   6.985
 5098POPC   C4A66702   6.704  27.015   7.288
 5098POPC   C1B66703   6.173  26.525   6.185
 5098POPC   C2B66704   6.080  26.353   6.610
 5098POPC   C3B66705   6.066  26.539   7.031
 5098POPC   C4B66706   6.302  26.666   7.377
 5099POPC   NC366707  37.373  30.010   5.029
 5099POPC   PO466708  37.748  29.620   5.354
 5099POPC   GL166709  37.547  29.769   5.773
 5099POPC   GL266710  37.406  30.109   5.869
 5099POPC   C1A66711  37.409  29.765   6.234
 5099POPC   D2A66712  37.553  29.695   6.650
 5099POPC   C3A66713  37.933  29.869   6.832
 5099POPC   C4A66714  38.008  30.074   7.212
 5099POPC   C1B66715  37.525  30.272   6.308
 5099POPC   C2B66716  37.542  30.225   6.792
 5099POPC   C3B66717  37.386  30.222   7.232
 5099POPC   C4B66718  37.338  30.409   7.702
 5100POPC   NC366719  25.487  15.857   5.456
 5100POPC   PO466720  24.866  16.002   5.131
 5100POPC   GL166721  25.018  16.014   5.637
 5100POPC   GL266722  24.938  15.711   5.858
 5100POPC   C1A66723  25.255  16.179   6.074
 5100POPC   D2A66724  25.456  16.060   6.510
 5100POPC   C3A66725  25.192  16.107   6.900
 5100POPC   C4A66726  25.438  16.083   7.282
 5100POPC   C1B66727  25.307  15.695   6.143
 5100POPC   C2B66728  25.379  15.559   6.541
 5100POPC   C3B66729  25.490  15.704   6.906
 5100POPC   C4B66730  25.333  15.549   7.257
 5101POPC   NC366731  17.827   6.509   5.491
 5101POPC   PO466732  17.259   6.894   5.409
 5101POPC   GL166733  17.572   6.839   5.794
 5101POPC   GL266734  17.647   6.510   5.976
 5101POPC   C1A66735  17.727   6.952   6.208
 5101POPC   D2A66736  17.508   6.964   6.592
 5101POPC   C3A66737  17.619   6.647   6.876
 5101POPC   C4A66738  17.536   6.684   7.281
 5101POPC   C1B66739  17.416   6.234   6.273
 5101POPC   C2B66740  17.341   6.041   6.685
 5101POPC   C3B66741  17.259   6.249   7.080
 5101POPC   C4B66742  17.431   6.218   7.491
 5102POPC   NC366743  10.648  24.571   5.106
 5102POPC   PO466744  10.137  24.342   5.499
 5102POPC   GL166745  10.343  24.694   5.733
 5102POPC   GL266746  10.122  24.984   5.863
 5102POPC   C1A66747  10.540  24.640   6.143
 5102POPC   D2A66748  10.741  24.666   6.569
 5102POPC   C3A66749  10.553  24.659   7.006
 5102POPC   C4A66750  10.470  24.625   7.463
 5102POPC   C1B66751  10.035  24.670   6.198
 5102POPC   C2B66752  10.255  24.452   6.547
 5102POPC   C3B66753  10.552  24.213   6.788
 5102POPC   C4B66754  10.574  24.179   7.230
 5103POPC   NC366755  11.579  24.408   5.432
 5103POPC   PO466756  10.961  24.239   5.274
 5103POPC   GL166757  11.076  24.453   5.694
 5103POPC   GL266758  11.399  24.676   5.817
 5103POPC   C1A66759  11.036  24.559   6.130
 5103POPC   D2A66760  11.255  24.618   6.473
 5103POPC   C3A66761  11.061  24.320   6.767
 5103POPC   C4A66762  11.072  24.361   7.202
 5103POPC   C1B66763  11.665  24.377   6.074
 5103POPC   C2B66764  11.642  24.264   6.495
 5103POPC   C3B66765  11.520  24.483   6.883
 5103POPC   C4B66766  11.569  24.319   7.278
 5104POPC   NC366767  34.689  23.130   5.441
 5104POPC   PO466768  34.443  22.556   5.295
 5104POPC   GL166769  34.743  22.620   5.664
 5104POPC   GL266770  34.973  22.875   5.805
 5104POPC   C1A66771  34.619  22.634   6.119
 5104POPC   D2A66772  34.525  22.926   6.458
 5104POPC   C3A66773  34.580  22.818   6.905
 5104POPC   C4A66774  34.412  22.983   7.310
 5104POPC   C1B66775  35.022  22.971   6.274
 5104POPC   C2B66776  34.883  23.225   6.650
 5104POPC   C3B66777  34.815  23.242   7.094
 5104POPC   C4B66778  34.787  23.267   7.550
 5105POPC   NC366779  27.824  23.873   5.352
 5105POPC   PO466780  27.289  23.472   5.188
 5105POPC   GL166781  27.422  23.639   5.680
 5105POPC   GL266782  27.742  23.740   5.818
 5105POPC   C1A66783  27.432  23.664   6.186
 5105POPC   D2A66784  27.328  23.622   6.624
 5105POPC   C3A66785  27.505  23.661   7.009
 5105POPC   C4A66786  27.625  23.376   7.301
 5105POPC   C1B66787  27.830  23.999   6.206
 5105POPC   C2B66788  27.703  23.998   6.648
 5105POPC   C3B66789  27.928  23.948   7.054
 5105POPC   C4B66790  27.822  23.986   7.498
 5106POPC   NC366791   7.612  10.389   5.454
 5106POPC   PO466792   8.256  10.468   5.326
 5106POPC   GL166793   8.313  10.569   5.765
 5106POPC   GL266794   7.979  10.719   5.843
 5106POPC   C1A66795   8.380  10.281   6.142
 5106POPC   D2A66796   8.226  10.263   6.574
 5106POPC   C3A66797   8.467  10.235   6.923
 5106POPC   C4A66798   8.430  10.477   7.281
 5106POPC   C1B66799   8.093  10.684   6.287
 5106POPC   C2B66800   7.971  10.778   6.727
 5106POPC   C3B66801   7.954  10.741   7.194
 5106POPC   C4B66802   7.779  10.853   7.629
 5107POPC   NC366803  29.467   6.414   5.455
 5107POPC   PO466804  28.973   6.933   5.420
 5107POPC   GL166805  29.220   6.813   5.773
 5107POPC   GL266806  29.062   6.474   5.769
 5107POPC   C1A66807  29.159   6.853   6.253
 5107POPC   D2A66808  29.092   6.922   6.700
 5107POPC   C3A66809  29.393   6.714   6.992
 5107POPC   C4A66810  29.432   6.305   7.158
 5107POPC   C1B66811  28.987   6.379   6.191
 5107POPC   C2B66812  29.156   6.437   6.597
 5107POPC   C3B66813  28.955   6.437   6.998
 5107POPC   C4B66814  28.947   6.107   7.310
 5108POPC   NC366815  42.946  32.821   5.303
 5108POPC   PO466816  43.352  33.140   5.079
 5108POPC   GL166817  43.233  33.028   5.650
 5108POPC   GL266818  43.205  32.672   5.723
 5108POPC   C1A66819  43.141  33.026   6.156
 5108POPC   D2A66820  42.958  33.065   6.642
 5108POPC   C3A66821  43.203  33.281   6.974
 5108POPC   C4A66822  43.451  33.376   7.359
 5108POPC   C1B66823  43.339  32.499   6.119
 5108POPC   C2B66824  43.193  32.645   6.516
 5108POPC   C3B66825  43.235  32.739   6.943
 5108POPC   C4B66826  43.534  32.484   7.192
 5109POPC   NC366827  16.614   2.231   5.287
 5109POPC   PO466828  16.953   1.595   5.395
 5109POPC   GL166829  16.725   1.895   5.688
 5109POPC   GL266830  16.838   2.233   5.751
 5109POPC   C1A66831  16.667   1.999   6.151
 5109POPC   D2A66832  16.586   2.334   6.430
 5109POPC   C3A66833  16.601   2.190   6.859
 5109POPC   C4A66834  16.459   1.903   7.188
 5109POPC   C1B66835  17.047   2.392   6.146
 5109POPC   C2B66836  17.059   2.156   6.542
 5109POPC   C3B66837  16.873   1.773   6.739
 5109POPC   C4B66838  16.921   1.689   7.185
 5110POPC   NC366839   2.112  33.432   5.488
 5110POPC   PO466840   1.952  32.799   5.336
 5110POPC   GL166841   2.028  32.928   5.729
 5110POPC   GL266842   1.698  32.805   5.821
 5110POPC   C1A66843   2.169  33.048   6.169
 5110POPC   D2A66844   2.069  33.187   6.640
 5110POPC   C3A66845   2.171  32.924   7.004
 5110POPC   C4A66846   2.319  33.050   7.405
 5110POPC   C1B66847   1.694  32.911   6.275
 5110POPC   C2B66848   1.757  32.782   6.711
 5110POPC   C3B66849   1.688  33.059   7.071
 5110POPC   C4B66850   1.676  33.080   7.512
 5111POPC   NC366851  34.801   0.654   5.130
 5111POPC   PO466852  34.251   0.221   5.277
 5111POPC   GL166853  34.456   0.225   5.720
 5111POPC   GL266854  34.837   0.238   5.710
 5111POPC   C1A66855  34.579   0.481   6.122
 5111POPC   D2A66856  34.484   0.724   6.535
 5111POPC   C3A66857  34.642   0.657   6.998
 5111POPC   C4A66858  34.447   0.634   7.455
 5111POPC   C1B66859  34.731  44.982   6.086
 5111POPC   C2B66860  34.457   0.072   6.432
 5111POPC   C3B66861  34.492   0.102   6.890
 5111POPC   C4B66862  34.655   0.221   7.300
 5112POPC   NC366863  24.162  33.578   5.465
 5112POPC   PO466864  23.418  33.694   5.337
 5112POPC   GL166865  23.628  33.823   5.731
 5112POPC   GL266866  23.969  33.965   5.762
 5112POPC   C1A66867  23.597  33.917   6.174
 5112POPC   D2A66868  23.699  33.743   6.575
 5112POPC   C3A66869  23.538  33.903   6.976
 5112POPC   C4A66870  23.379  33.655   7.351
 5112POPC   C1B66871  24.092  33.734   6.159
 5112POPC   C2B66872  24.205  33.752   6.607
 5112POPC   C3B66873  24.010  33.672   7.017
 5112POPC   C4B66874  24.104  33.555   7.460
 5113POPC   NC366875  23.584  13.586   5.325
 5113POPC   PO466876  24.175  13.399   5.548
 5113POPC   GL166877  23.927  13.667   5.838
 5113POPC   GL266878  23.579  13.598   5.843
 5113POPC   C1A66879  23.783  13.756   6.297
 5113POPC   D2A66880  23.795  13.888   6.754
 5113POPC   C3A66881  23.704  13.581   7.090
 5113POPC   C4A66882  23.727  13.320   7.462
 5113POPC   C1B66883  23.378  13.426   6.212
 5113POPC   C2B66884  23.341  13.655   6.594
 5113POPC   C3B66885  23.301  13.876   6.986
 5113POPC   C4B66886  23.559  14.029   7.307
 5114POPC   NC366887   7.026  26.168   5.161
 5114POPC   PO466888   7.520  25.767   5.492
 5114POPC   GL166889   7.633  26.014   5.867
 5114POPC   GL266890   7.707  26.352   5.818
 5114POPC   C1A66891   7.854  26.157   6.267
 5114POPC   D2A66892   7.853  26.386   6.668
 5114POPC   C3A66893   7.513  26.246   6.939
 5114POPC   C4A66894   7.576  26.015   7.322
 5114POPC   C1B66895   7.378  26.362   6.190
 5114POPC   C2B66896   7.034  26.425   6.517
 5114POPC   C3B66897   6.958  26.231   6.925
 5114POPC   C4B66898   7.146  25.846   7.097
 5115POPC   NC366899   9.678  43.645   5.402
 5115POPC   PO466900  10.153  44.057   5.346
 5115POPC   GL166901  10.121  43.755   5.770
 5115POPC   GL266902   9.772  43.705   5.868
 5115POPC   C1A66903  10.043  43.775   6.271
 5115POPC   D2A66904   9.821  44.106   6.525
 5115POPC   C3A66905   9.726  43.970   6.938
 5115POPC   C4A66906   9.968  43.768   7.252
 5115POPC   C1B66907   9.549  43.858   6.165
 5115POPC   C2B66908   9.593  43.640   6.524
 5115POPC   C3B66909   9.580  43.467   6.908
 5115POPC   C4B66910   9.469  43.655   7.260
 5116POPC   NC366911  33.321  21.674   5.421
 5116POPC   PO466912  32.884  22.231   5.246
 5116POPC   GL166913  32.937  22.317   5.686
 5116POPC   GL266914  32.694  22.461   5.871
 5116POPC   C1A66915  33.102  22.259   6.125
 5116POPC   D2A66916  33.259  22.447   6.528
 5116POPC   C3A66917  33.066  22.279   6.883
 5116POPC   C4A66918  32.874  22.310   7.286
 5116POPC   C1B66919  32.606  22.151   6.162
 5116POPC   C2B66920  32.736  22.039   6.553
 5116POPC   C3B66921  32.553  22.188   6.914
 5116POPC   C4B66922  32.413  22.001   7.283
 5117POPC   NC366923  39.096  27.033   5.660
 5117POPC   PO466924  39.243  27.687   5.495
 5117POPC   GL166925  39.409  27.753   5.881
 5117POPC   GL266926  39.511  27.405   5.881
 5117POPC   C1A66927  39.194  27.753   6.304
 5117POPC   D2A66928  38.876  27.723   6.640
 5117POPC   C3A66929  39.043  27.606   7.063
 5117POPC   C4A66930  39.071  27.352   7.441
 5117POPC   C1B66931  39.645  27.533   6.289
 5117POPC   C2B66932  39.507  27.604   6.704
 5117POPC   C3B66933  39.698  27.457   7.066
 5117POPC   C4B66934  39.488  27.685   7.362
 5118POPC   NC366935  14.951  21.483   5.466
 5118POPC   PO466936  15.609  21.679   5.361
 5118POPC   GL166937  15.404  21.489   5.747
 5118POPC   GL266938  15.323  21.131   5.710
 5118POPC   C1A66939  15.436  21.408   6.224
 5118POPC   D2A66940  15.534  21.555   6.670
 5118POPC   C3A66941  15.228  21.551   7.033
 5118POPC   C4A66942  15.403  21.503   7.477
 5118POPC   C1B66943  15.109  21.025   6.101
 5118POPC   C2B66944  15.064  21.181   6.528
 5118POPC   C3B66945  14.987  21.037   6.935
 5118POPC   C4B66946  15.036  21.167   7.344
 5119POPC   NC366947   1.747   7.096   5.369
 5119POPC   PO466948   1.232   7.548   5.185
 5119POPC   GL166949   1.212   7.414   5.642
 5119POPC   GL266950   1.312   7.051   5.677
 5119POPC   C1A66951   1.269   7.535   6.094
 5119POPC   D2A66952   1.405   7.773   6.467
 5119POPC   C3A66953   1.306   7.571   6.854
 5119POPC   C4A66954   1.263   7.724   7.260
 5119POPC   C1B66955   1.492   7.035   6.104
 5119POPC   C2B66956   1.540   7.267   6.481
 5119POPC   C3B66957   1.751   7.247   6.866
 5119POPC   C4B66958   1.683   7.384   7.281
 5120POPC   NC366959  27.090  23.866   5.385
 5120POPC   PO466960  26.779  23.399   5.726
 5120POPC   GL166961  26.721  23.800   5.868
 5120POPC   GL266962  27.052  23.917   5.926
 5120POPC   C1A66963  26.680  24.035   6.238
 5120POPC   D2A66964  26.943  24.018   6.601
 5120POPC   C3A66965  26.863  23.643   6.849
 5120POPC   C4A66966  26.649  23.751   7.225
 5120POPC   C1B66967  26.936  23.595   6.302
 5120POPC   C2B66968  27.057  23.191   6.535
 5120POPC   C3B66969  27.096  23.124   6.983
 5120POPC   C4B66970  27.069  23.435   7.264
 5121POPC   NC366971  20.371  27.404   5.467
 5121POPC   PO466972  20.575  28.103   5.270
 5121POPC   GL166973  20.444  27.837   5.722
 5121POPC   GL266974  20.692  27.539   5.851
 5121POPC   C1A66975  20.342  27.745   6.190
 5121POPC   D2A66976  20.643  27.568   6.544
 5121POPC   C3A66977  20.602  27.696   7.004
 5121POPC   C4A66978  20.219  27.657   7.281
 5121POPC   C1B66979  20.864  27.214   6.170
 5121POPC   C2B66980  20.963  27.150   6.602
 5121POPC   C3B66981  20.884  27.228   7.055
 5121POPC   C4B66982  20.960  27.120   7.490
 5122POPC   NC366983   0.512  14.206   5.447
 5122POPC   PO466984   0.591  14.866   5.446
 5122POPC   GL166985   0.420  14.623   5.784
 5122POPC   GL266986   0.729  14.550   5.936
 5122POPC   C1A66987   0.291  14.341   6.132
 5122POPC   D2A66988   0.459  14.148   6.506
 5122POPC   C3A66989   0.516  14.404   6.843
 5122POPC   C4A66990   0.274  14.390   7.219
 5122POPC   C1B66991   0.811  14.511   6.389
 5122POPC   C2B66992   0.971  14.136   6.613
 5122POPC   C3B66993   0.905  14.059   7.020
 5122POPC   C4B66994   0.800  14.392   7.269
 5123POPC   NC366995  44.869  38.468   5.240
 5123POPC   PO466996   0.565  38.353   5.112
 5123POPC   GL166997   0.383  38.373   5.566
 5123POPC   GL266998   0.381  38.071   5.775
 5123POPC   C1A66999   0.395  38.536   6.030
 5123POPC   D2A67000   0.177  38.570   6.457
 5123POPC   C3A67001   0.378  38.716   6.881
 5123POPC   C4A67002   0.307  38.566   7.331
 5123POPC   C1B67003   0.631  38.093   6.169
 5123POPC   C2B67004   0.608  38.318   6.561
 5123POPC   C3B67005   0.585  38.259   7.015
 5123POPC   C4B67006   0.687  38.253   7.454
 5124POPC   NC367007   7.660  21.650   5.598
 5124POPC   PO467008   7.029  21.605   5.303
 5124POPC   GL167009   7.252  21.380   5.691
 5124POPC   GL267010   7.246  21.668   5.898
 5124POPC   C1A67011   7.481  21.229   6.084
 5124POPC   D2A67012   7.336  21.174   6.505
 5124POPC   C3A67013   7.640  21.096   6.796
 5124POPC   C4A67014   7.695  21.045   7.218
 5124POPC   C1B67015   7.557  21.715   6.256
 5124POPC   C2B67016   7.619  21.613   6.703
 5124POPC   C3B67017   7.592  21.539   7.188
 5124POPC   C4B67018   7.469  21.663   7.683
 5125POPC   NC367019  23.732  32.565   5.515
 5125POPC   PO467020  24.086  33.089   5.430
 5125POPC   GL167021  23.816  33.057   5.771
 5125POPC   GL267022  23.570  33.294   5.660
 5125POPC   C1A67023  23.820  33.019   6.235
 5125POPC   D2A67024  23.921  33.277   6.609
 5125POPC   C3A67025  23.784  32.977   6.881
 5125POPC   C4A67026  23.836  32.788   7.243
 5125POPC   C1B67027  23.564  33.427   6.070
 5125POPC   C2B67028  23.434  33.326   6.471
 5125POPC   C3B67029  23.515  33.404   6.908
 5125POPC   C4B67030  23.736  33.292   7.271
 5126POPC   NC367031  19.951  29.970   5.456
 5126POPC   PO467032  20.631  29.944   5.217
 5126POPC   GL167033  20.643  29.903   5.692
 5126POPC   GL267034  20.361  30.081   5.798
 5126POPC   C1A67035  20.714  29.908   6.157
 5126POPC   D2A67036  20.820  30.078   6.572
 5126POPC   C3A67037  20.817  29.871   6.988
 5126POPC   C4A67038  21.039  30.013   7.362
 5126POPC   C1B67039  20.405  30.338   6.183
 5126POPC   C2B67040  20.310  30.263   6.603
 5126POPC   C3B67041  20.255  30.368   7.026
 5126POPC   C4B67042  20.575  30.221   7.287
 5127POPC   NC367043  39.166   1.318   5.048
 5127POPC   PO467044  38.844   1.543   5.599
 5127POPC   GL167045  39.106   1.216   5.743
 5127POPC   GL267046  39.397   1.314   5.942
 5127POPC   C1A67047  39.124   0.914   6.090
 5127POPC   D2A67048  39.383   0.792   6.454
 5127POPC   C3A67049  39.209   0.903   6.860
 5127POPC   C4A67050  39.310   0.883   7.276
 5127POPC   C1B67051  39.112   1.432   6.234
 5127POPC   C2B67052  39.263   1.377   6.650
 5127POPC   C3B67053  39.361   1.344   7.064
 5127POPC   C4B67054  39.181   1.614   7.364
 5128POPC   NC367055  15.554   1.800   5.264
 5128POPC   PO467056  16.137   2.160   5.368
 5128POPC   GL167057  16.166   1.999   5.741
 5128POPC   GL267058  15.791   1.958   5.702
 5128POPC   C1A67059  16.174   2.141   6.159
 5128POPC   D2A67060  15.912   2.255   6.495
 5128POPC   C3A67061  16.061   2.162   6.912
 5128POPC   C4A67062  15.966   1.820   7.162
 5128POPC   C1B67063  15.806   1.789   6.108
 5128POPC   C2B67064  15.968   1.693   6.522
 5128POPC   C3B67065  15.746   1.521   6.843
 5128POPC   C4B67066  15.444   1.724   7.084
 5129POPC   NC367067  35.941  41.842   5.408
 5129POPC   PO467068  36.576  41.553   5.450
 5129POPC   GL167069  36.253  41.483   5.779
 5129POPC   GL267070  35.920  41.635   5.857
 5129POPC   C1A67071  36.256  41.503   6.216
 5129POPC   D2A67072  36.034  41.739   6.494
 5129POPC   C3A67073  36.117  41.603   6.892
 5129POPC   C4A67074  36.183  41.746   7.284
 5129POPC   C1B67075  35.876  41.219   6.057
 5129POPC   C2B67076  35.833  41.276   6.502
 5129POPC   C3B67077  35.915  41.132   6.932
 5129POPC   C4B67078  36.143  41.248   7.292
 5130POPC   NC367079  34.310  26.985   5.426
 5130POPC   PO467080  33.748  27.196   5.429
 5130POPC   GL167081  33.728  26.979   5.833
 5130POPC   GL267082  34.016  26.748   5.843
 5130POPC   C1A67083  33.877  27.076   6.292
 5130POPC   D2A67084  33.985  27.196   6.736
 5130POPC   C3A67085  33.676  27.208   7.056
 5130POPC   C4A67086  33.666  27.283   7.477
 5130POPC   C1B67087  33.859  26.577   6.269
 5130POPC   C2B67088  33.736  26.726   6.711
 5130POPC   C3B67089  33.783  26.732   7.175
 5130POPC   C4B67090  33.890  26.433   7.515
 5131POPC   NC367091  17.096   9.856   5.448
 5131POPC   PO467092  16.405   9.929   5.411
 5131POPC   GL167093  16.583   9.584   5.686
 5131POPC   GL267094  16.779   9.813   5.870
 5131POPC   C1A67095  16.699   9.345   6.121
 5131POPC   D2A67096  16.919   9.413   6.553
 5131POPC   C3A67097  16.699   9.661   6.864
 5131POPC   C4A67098  16.721   9.663   7.319
 5131POPC   C1B67099  16.746   9.842   6.316
 5131POPC   C2B67100  17.051   9.963   6.625
 5131POPC   C3B67101  16.948  10.061   7.052
 5131POPC   C4B67102  16.669  10.147   7.441
 5132POPC   NC367103  39.693  38.284   5.320
 5132POPC   PO467104  40.155  38.678   5.567
 5132POPC   GL167105  40.047  38.278   5.732
 5132POPC   GL267106  39.698  38.357   5.830
 5132POPC   C1A67107  40.006  38.132   6.152
 5132POPC   D2A67108  39.936  38.239   6.538
 5132POPC   C3A67109  40.216  38.159   6.875
 5132POPC   C4A67110  40.113  38.473   7.171
 5132POPC   C1B67111  39.908  38.630   6.153
 5132POPC   C2B67112  39.852  38.879   6.485
 5132POPC   C3B67113  39.755  38.713   6.898
 5132POPC   C4B67114  39.646  38.743   7.351
 5133POPC   NC367115  40.479  29.230   5.382
 5133POPC   PO467116  41.142  29.015   5.430
 5133POPC   GL167117  40.879  29.185   5.747
 5133POPC   GL267118  41.141  29.379   5.865
 5133POPC   C1A67119  40.592  29.102   6.119
 5133POPC   D2A67120  40.432  29.112   6.559
 5133POPC   C3A67121  40.646  28.948   6.929
 5133POPC   C4A67122  40.697  28.960   7.412
 5133POPC   C1B67123  40.955  29.442   6.256
 5133POPC   C2B67124  40.970  29.231   6.651
 5133POPC   C3B67125  40.961  29.300   7.111
 5133POPC   C4B67126  41.190  29.391   7.478
 5134POPC   NC367127   1.912   1.474   4.889
 5134POPC   PO467128   1.981   1.467   5.518
 5134POPC   GL167129   1.955   1.507   5.943
 5134POPC   GL267130   1.681   1.689   5.975
 5134POPC   C1A67131   2.074   1.319   6.341
 5134POPC   D2A67132   2.009   1.486   6.753
 5134POPC   C3A67133   2.244   1.416   7.132
 5134POPC   C4A67134   2.458   1.438   7.566
 5134POPC   C1B67135   1.615   1.541   6.399
 5134POPC   C2B67136   1.505   1.466   6.827
 5134POPC   C3B67137   1.703   1.306   7.214
 5134POPC   C4B67138   1.619   1.275   7.683
 5135POPC   NC367139   4.043  33.457   5.477
 5135POPC   PO467140   4.582  32.961   5.403
 5135POPC   GL167141   4.509  32.831   5.847
 5135POPC   GL267142   4.166  32.703   6.027
 5135POPC   C1A67143   4.505  33.034   6.243
 5135POPC   D2A67144   4.337  32.929   6.657
 5135POPC   C3A67145   4.637  33.015   6.939
 5135POPC   C4A67146   4.710  32.776   7.265
 5135POPC   C1B67147   3.991  33.051   6.312
 5135POPC   C2B67148   3.973  33.373   6.642
 5135POPC   C3B67149   4.179  33.325   7.029
 5135POPC   C4B67150   4.205  32.924   7.208
 5136POPC   NC367151  39.472  30.165   5.446
 5136POPC   PO467152  40.115  29.825   5.531
 5136POPC   GL167153  40.114  30.090   5.852
 5136POPC   GL267154  39.808  30.250   5.815
 5136POPC   C1A67155  40.111  30.017   6.271
 5136POPC   D2A67156  40.213  29.917   6.674
 5136POPC   C3A67157  39.830  29.838   6.873
 5136POPC   C4A67158  39.840  29.667   7.264
 5136POPC   C1B67159  39.854  30.461   6.211
 5136POPC   C2B67160  39.936  30.366   6.617
 5136POPC   C3B67161  39.768  30.327   7.008
 5136POPC   C4B67162  39.460  30.279   7.295
 5137POPC   NC367163   3.954  19.590   5.458
 5137POPC   PO467164   4.624  19.527   5.416
 5137POPC   GL167165   4.561  19.349   5.787
 5137POPC   GL267166   4.237  19.211   5.696
 5137POPC   C1A67167   4.622  18.991   6.066
 5137POPC   D2A67168   4.743  18.945   6.501
 5137POPC   C3A67169   4.519  19.147   6.854
 5137POPC   C4A67170   4.628  19.063   7.263
 5137POPC   C1B67171   4.193  19.237   6.138
 5137POPC   C2B67172   4.219  18.986   6.473
 5137POPC   C3B67173   3.991  19.100   6.821
 5137POPC   C4B67174   4.130  19.204   7.201
 5138POPC   NC367175  42.039   2.531   5.490
 5138POPC   PO467176  42.406   3.134   5.424
 5138POPC   GL167177  42.414   2.823   5.775
 5138POPC   GL267178  42.101   2.876   5.919
 5138POPC   C1A67179  42.423   2.550   6.131
 5138POPC   D2A67180  42.446   2.406   6.547
 5138POPC   C3A67181  42.460   2.683   6.903
 5138POPC   C4A67182  42.481   2.508   7.273
 5138POPC   C1B67183  41.932   2.579   6.242
 5138POPC   C2B67184  41.994   2.615   6.698
 5138POPC   C3B67185  41.982   2.443   7.129
 5138POPC   C4B67186  41.924   2.548   7.607
 5139POPC   NC367187  11.857  22.756   5.248
 5139POPC   PO467188  12.518  22.942   5.366
 5139POPC   GL167189  12.184  22.848   5.683
 5139POPC   GL267190  12.017  23.163   5.740
 5139POPC   C1A67191  12.085  22.838   6.163
 5139POPC   D2A67192  12.302  22.866   6.601
 5139POPC   C3A67193  12.243  22.681   7.037
 5139POPC   C4A67194  12.175  22.957   7.416
 5139POPC   C1B67195  12.002  23.402   6.123
 5139POPC   C2B67196  11.993  23.293   6.555
 5139POPC   C3B67197  11.945  23.090   6.955
 5139POPC   C4B67198  11.759  22.749   7.170
 5140POPC   NC367199  41.843  39.484   5.479
 5140POPC   PO467200  41.258  39.148   5.310
 5140POPC   GL167201  41.405  39.286   5.761
 5140POPC   GL267202  41.753  39.297   5.940
 5140POPC   C1A67203  41.347  39.115   6.210
 5140POPC   D2A67204  41.251  39.224   6.678
 5140POPC   C3A67205  41.316  39.006   7.104
 5140POPC   C4A67206  41.457  39.010   7.597
 5140POPC   C1B67207  41.833  39.201   6.397
 5140POPC   C2B67208  41.752  39.051   6.807
 5140POPC   C3B67209  41.727  39.296   7.190
 5140POPC   C4B67210  42.001  39.599   7.345
 5141POPC   NC367211  20.391   2.055   5.338
 5141POPC   PO467212  19.766   1.913   5.328
 5141POPC   GL167213  19.973   1.853   5.713
 5141POPC   GL267214  20.067   2.161   5.878
 5141POPC   C1A67215  19.804   1.783   6.113
 5141POPC   D2A67216  19.606   1.775   6.499
 5141POPC   C3A67217  19.762   1.657   6.882
 5141POPC   C4A67218  19.853   1.504   7.225
 5141POPC   C1B67219  19.867   2.234   6.334
 5141POPC   C2B67220  19.740   2.178   6.810
 5141POPC   C3B67221  20.006   2.231   7.201
 5141POPC   C4B67222  20.075   2.307   7.669
 5142POPC   NC367223   1.485  22.552   5.435
 5142POPC   PO467224   2.097  22.329   5.268
 5142POPC   GL167225   2.205  22.323   5.711
 5142POPC   GL267226   1.928  22.525   5.751
 5142POPC   C1A67227   2.013  22.185   6.171
 5142POPC   D2A67228   2.082  22.284   6.658
 5142POPC   C3A67229   2.047  22.008   7.047
 5142POPC   C4A67230   1.900  21.727   7.411
 5142POPC   C1B67231   2.184  22.648   6.094
 5142POPC   C2B67232   2.293  22.711   6.502
 5142POPC   C3B67233   2.280  22.700   6.935
 5142POPC   C4B67234   1.944  22.518   7.148
 5143POPC   NC367235  35.857  44.481   5.649
 5143POPC   PO467236  36.493  44.656   5.531
 5143POPC   GL167237  36.234  44.741   5.871
 5143POPC   GL267238  35.902  44.973   5.818
 5143POPC   C1A67239  36.235  44.628   6.318
 5143POPC   D2A67240  36.130  44.364   6.674
 5143POPC   C3A67241  36.312  44.541   7.067
 5143POPC   C4A67242  36.032  44.771   7.326
 5143POPC   C1B67243  36.176   0.122   6.176
 5143POPC   C2B67244  36.430   0.104   6.547
 5143POPC   C3B67245  36.314   0.075   6.982
 5143POPC   C4B67246  36.477   0.007   7.396
 5144POPC   NC367247   0.935   5.057   5.376
 5144POPC   PO467248   0.372   5.326   5.134
 5144POPC   GL167249   0.464   5.260   5.598
 5144POPC   GL267250   0.185   5.384   5.813
 5144POPC   C1A67251   0.526   5.037   6.037
 5144POPC   D2A67252   0.567   4.838   6.486
 5144POPC   C3A67253   0.825   4.839   6.891
 5144POPC   C4A67254   0.610   4.965   7.276
 5144POPC   C1B67255   0.140   5.330   6.277
 5144POPC   C2B67256   0.118   5.246   6.749
 5144POPC   C3B67257   0.195   5.256   7.227
 5144POPC   C4B67258   0.522   5.389   7.595
 5145POPC   NC367259  44.510  41.821   5.426
 5145POPC   PO467260  44.741  41.233   5.358
 5145POPC   GL167261  44.701  41.475   5.797
 5145POPC   GL267262  44.720  41.847   5.900
 5145POPC   C1A67263  44.752  41.517   6.279
 5145POPC   D2A67264  44.994  41.339   6.618
 5145POPC   C3A67265  44.681  41.443   6.918
 5145POPC   C4A67266  44.532  41.817   7.072
 5145POPC   C1B67267  44.923  41.991   6.324
 5145POPC   C2B67268   0.055  41.820   6.743
 5145POPC   C3B67269   0.149  41.575   7.134
 5145POPC   C4B67270   0.244  41.537   7.610
 5146POPC   NC367271   6.813  38.592   5.324
 5146POPC   PO467272   6.110  38.609   5.358
 5146POPC   GL167273   6.437  38.436   5.671
 5146POPC   GL267274   6.713  38.647   5.820
 5146POPC   C1A67275   6.577  38.237   6.084
 5146POPC   D2A67276   6.603  38.394   6.526
 5146POPC   C3A67277   6.705  38.152   6.883
 5146POPC   C4A67278   6.716  38.317   7.261
 5146POPC   C1B67279   6.434  38.719   6.177
 5146POPC   C2B67280   6.483  38.909   6.596
 5146POPC   C3B67281   6.743  38.735   6.940
 5146POPC   C4B67282   7.007  38.774   7.291
 5147POPC   NC367283   1.492  16.144   5.573
 5147POPC   PO467284   1.034  15.740   5.245
 5147POPC   GL167285   1.164  15.792   5.726
 5147POPC   GL267286   1.489  15.674   5.836
 5147POPC   C1A67287   1.267  15.928   6.207
 5147POPC   D2A67288   1.331  15.919   6.658
 5147POPC   C3A67289   0.932  15.911   6.918
 5147POPC   C4A67290   0.740  16.082   7.311
 5147POPC   C1B67291   1.654  15.594   6.262
 5147POPC   C2B67292   1.482  15.396   6.631
 5147POPC   C3B67293   1.369  15.563   7.009
 5147POPC   C4B67294   1.488  15.645   7.506
 5148POPC   NC367295  19.217  17.173   5.649
 5148POPC   PO467296  18.838  16.660   5.465
 5148POPC   GL167297  18.849  16.584   5.888
 5148POPC   GL267298  19.174  16.720   5.898
 5148POPC   C1A67299  18.885  16.717   6.342
 5148POPC   D2A67300  18.866  16.480   6.749
 5148POPC   C3A67301  19.034  16.609   7.185
 5148POPC   C4A67302  19.083  16.598   7.673
 5148POPC   C1B67303  19.368  16.983   6.249
 5148POPC   C2B67304  19.401  17.103   6.700
 5148POPC   C3B67305  19.312  17.111   7.168
 5148POPC   C4B67306  18.971  17.052   7.464
 5149POPC   NC367307  31.408  20.464   5.478
 5149POPC   PO467308  31.502  19.831   5.142
 5149POPC   GL167309  31.436  19.762   5.708
 5149POPC   GL267310  31.773  19.785   5.922
 5149POPC   C1A67311  31.420  20.058   6.145
 5149POPC   D2A67312  31.252  20.154   6.561
 5149POPC   C3A67313  31.447  19.962   6.942
 5149POPC   C4A67314  31.179  19.925   7.325
 5149POPC   C1B67315  31.498  19.569   6.223
 5149POPC   C2B67316  31.347  19.485   6.670
 5149POPC   C3B67317  31.373  19.495   7.140
 5149POPC   C4B67318  31.668  19.751   7.407
 5150POPC   NC367319  11.095  23.780   5.239
 5150POPC   PO467320  11.528  23.459   5.583
 5150POPC   GL167321  11.198  23.668   5.739
 5150POPC   GL267322  11.314  24.003   5.673
 5150POPC   C1A67323  11.112  23.594   6.163
 5150POPC   D2A67324  11.429  23.413   6.465
 5150POPC   C3A67325  11.263  23.494   6.876
 5150POPC   C4A67326  11.046  23.409   7.276
 5150POPC   C1B67327  11.258  24.100   6.123
 5150POPC   C2B67328  11.278  23.916   6.525
 5150POPC   C3B67329  11.447  23.976   6.913
 5150POPC   C4B67330  11.424  23.764   7.294
 5151POPC   NC367331  32.518  30.131   5.651
 5151POPC   PO467332  32.088  30.322   5.270
 5151POPC   GL167333  32.030  30.203   5.762
 5151POPC   GL267334  32.144  29.853   5.885
 5151POPC   C1A67335  32.138  30.212   6.246
 5151POPC   D2A67336  32.219  30.357   6.704
 5151POPC   C3A67337  32.201  30.108   7.103
 5151POPC   C4A67338  32.363  29.756   7.380
 5151POPC   C1B67339  32.050  29.710   6.331
 5151POPC   C2B67340  32.110  29.700   6.796
 5151POPC   C3B67341  31.883  29.698   7.201
 5151POPC   C4B67342  31.939  29.556   7.650
 5152POPC   NC367343  36.382   1.742   5.563
 5152POPC   PO467344  35.887   2.184   5.444
 5152POPC   GL167345  36.009   2.033   5.814
 5152POPC   GL267346  36.300   2.215   5.927
 5152POPC   C1A67347  35.905   1.895   6.222
 5152POPC   D2A67348  35.988   2.115   6.594
 5152POPC   C3A67349  36.166   1.904   6.937
 5152POPC   C4A67350  36.080   1.874   7.374
 5152POPC   C1B67351  36.492   2.091   6.342
 5152POPC   C2B67352  36.680   1.931   6.775
 5152POPC   C3B67353  36.582   2.101   7.194
 5152POPC   C4B67354  36.172   2.340   7.227
 5153POPC   NC367355  20.227  44.102   4.943
 5153POPC   PO467356  20.651  43.766   5.372
 5153POPC   GL167357  20.438  43.888   5.778
 5153POPC   GL267358  20.749  43.814   5.930
 5153POPC   C1A67359  20.382  44.041   6.206
 5153POPC   D2A67360  20.504  43.841   6.587
 5153POPC   C3A67361  20.485  44.030   7.014
 5153POPC   C4A67362  20.475  43.829   7.432
 5153POPC   C1B67363  20.888  44.038   6.303
 5153POPC   C2B67364  20.970  43.970   6.747
 5153POPC   C3B67365  20.954  43.885   7.182
 5153POPC   C4B67366  20.914  44.025   7.612
 5154POPC   NC367367  25.214  31.411   5.258
 5154POPC   PO467368  25.569  31.799   5.627
 5154POPC   GL167369  25.384  31.539   5.872
 5154POPC   GL267370  25.056  31.382   5.751
 5154POPC   C1A67371  25.446  31.601   6.332
 5154POPC   D2A67372  25.254  31.860   6.672
 5154POPC   C3A67373  25.283  31.708   7.100
 5154POPC   C4A67374  25.432  31.527   7.509
 5154POPC   C1B67375  24.959  31.587   6.143
 5154POPC   C2B67376  25.048  31.409   6.571
 5154POPC   C3B67377  25.063  31.230   6.953
 5154POPC   C4B67378  25.268  31.083   7.299
 5155POPC   NC367379  18.191  31.881   5.432
 5155POPC   PO467380  18.432  31.245   5.345
 5155POPC   GL167381  18.485  31.328   5.757
 5155POPC   GL267382  18.581  31.669   5.679
 5155POPC   C1A67383  18.403  31.198   6.196
 5155POPC   D2A67384  18.513  31.217   6.651
 5155POPC   C3A67385  18.152  31.292   6.960
 5155POPC   C4A67386  17.934  31.723   7.026
 5155POPC   C1B67387  18.466  31.787   6.095
 5155POPC   C2B67388  18.668  31.722   6.501
 5155POPC   C3B67389  18.504  31.681   6.925
 5155POPC   C4B67390  18.664  31.686   7.337
 5156POPC   NC367391  42.945  23.962   5.691
 5156POPC   PO467392  42.907  23.403   5.371
 5156POPC   GL167393  43.183  23.537   5.805
 5156POPC   GL267394  43.392  23.876   5.888
 5156POPC   C1A67395  43.159  23.660   6.274
 5156POPC   D2A67396  43.076  23.909   6.648
 5156POPC   C3A67397  42.692  23.853   6.876
 5156POPC   C4A67398  42.618  23.710   7.304
 5156POPC   C1B67399  43.234  24.168   6.236
 5156POPC   C2B67400  43.391  24.342   6.621
 5156POPC   C3B67401  43.452  24.118   6.987
 5156POPC   C4B67402  43.144  23.856   7.167
 5157POPC   NC367403  25.949  32.034   5.527
 5157POPC   PO467404  26.368  32.563   5.487
 5157POPC   GL167405  26.105  32.421   5.840
 5157POPC   GL267406  26.159  32.092   6.002
 5157POPC   C1A67407  26.007  32.502   6.264
 5157POPC   D2A67408  25.939  32.295   6.634
 5157POPC   C3A67409  25.852  32.536   6.987
 5157POPC   C4A67410  25.875  32.461   7.385
 5157POPC   C1B67411  25.919  31.812   6.303
 5157POPC   C2B67412  25.768  31.823   6.731
 5157POPC   C3B67413  25.942  32.004   7.104
 5157POPC   C4B67414  25.774  31.938   7.508
 5158POPC   NC367415   7.940  43.595   5.428
 5158POPC   PO467416   8.589  43.597   5.337
 5158POPC   GL167417   8.393  43.747   5.742
 5158POPC   GL267418   8.132  44.012   5.749
 5158POPC   C1A67419   8.100  43.610   6.080
 5158POPC   D2A67420   7.922  43.694   6.478
 5158POPC   C3A67421   8.195  43.882   6.777
 5158POPC   C4A67422   8.058  43.742   7.160
 5158POPC   C1B67423   8.153  44.105   6.216
 5158POPC   C2B67424   7.943  44.300   6.585
 5158POPC   C3B67425   8.003  44.279   7.056
 5158POPC   C4B67426   8.348  44.137   7.249
 5159POPC   NC367427   8.002   1.188   5.463
 5159POPC   PO467428   7.708   1.721   5.158
 5159POPC   GL167429   7.950   1.658   5.690
 5159POPC   GL267430   8.284   1.457   5.816
 5159POPC   C1A67431   7.914   1.374   6.136
 5159POPC   D2A67432   8.235   1.165   6.422
 5159POPC   C3A67433   8.115   1.017   6.848
 5159POPC   C4A67434   7.987   1.320   7.162
 5159POPC   C1B67435   8.469   1.573   6.223
 5159POPC   C2B67436   8.719   1.486   6.612
 5159POPC   C3B67437   8.719   1.479   7.054
 5159POPC   C4B67438   8.481   1.126   7.208
 5160POPC   NC367439  30.344   4.792   5.596
 5160POPC   PO467440  29.779   5.150   5.433
 5160POPC   GL167441  29.703   4.986   5.838
 5160POPC   GL267442  29.926   4.727   5.894
 5160POPC   C1A67443  29.647   5.091   6.253
 5160POPC   D2A67444  29.917   5.226   6.562
 5160POPC   C3A67445  29.837   5.000   6.911
 5160POPC   C4A67446  29.624   5.159   7.232
 5160POPC   C1B67447  30.163   4.932   6.224
 5160POPC   C2B67448  30.317   4.894   6.639
 5160POPC   C3B67449  30.297   5.181   6.986
 5160POPC   C4B67450  30.119   4.956   7.350
 5161POPC   NC367451  40.104  42.352   5.452
 5161POPC   PO467452  39.578  41.946   5.628
 5161POPC   GL167453  39.775  42.357   5.851
 5161POPC   GL267454  40.072  42.626   5.883
 5161POPC   C1A67455  39.810  42.511   6.294
 5161POPC   D2A67456  39.985  42.534   6.693
 5161POPC   C3A67457  39.955  42.166   6.968
 5161POPC   C4A67458  39.832  42.294   7.346
 5161POPC   C1B67459  40.367  42.464   6.225
 5161POPC   C2B67460  40.461  42.327   6.679
 5161POPC   C3B67461  40.336  42.477   7.093
 5161POPC   C4B67462  40.260  42.605   7.513
 5162POPC   NC367463  17.848  16.943   5.405
 5162POPC   PO467464  17.467  16.513   5.643
 5162POPC   GL167465  17.651  16.823   5.876
 5162POPC   GL267466  17.516  17.127   5.741
 5162POPC   C1A67467  17.926  16.839   6.239
 5162POPC   D2A67468  18.024  16.679   6.636
 5162POPC   C3A67469  17.687  16.607   6.967
 5162POPC   C4A67470  17.754  16.594   7.429
 5162POPC   C1B67471  17.519  17.187   6.206
 5162POPC   C2B67472  17.563  16.970   6.610
 5162POPC   C3B67473  17.526  17.075   7.053
 5162POPC   C4B67474  17.267  17.166   7.408
 5163POPC   NC367475  37.274   0.111   5.214
 5163POPC   PO467476  36.789   0.530   5.264
 5163POPC   GL167477  36.601   0.554   5.666
 5163POPC   GL267478  36.913   0.361   5.757
 5163POPC   C1A67479  36.562   0.418   6.100
 5163POPC   D2A67480  36.874   0.405   6.406
 5163POPC   C3A67481  36.805   0.379   6.806
 5163POPC   C4A67482  36.725   0.401   7.198
 5163POPC   C1B67483  37.143   0.143   6.084
 5163POPC   C2B67484  37.393   0.163   6.428
 5163POPC   C3B67485  37.261   0.103   6.840
 5163POPC   C4B67486  37.279   0.322   7.207
 5164POPC   NC367487  37.515   3.114   5.493
 5164POPC   PO467488  37.491   3.648   5.495
 5164POPC   GL167489  37.639   3.458   5.887
 5164POPC   GL267490  37.897   3.214   5.853
 5164POPC   C1A67491  37.717   3.631   6.298
 5164POPC   D2A67492  37.949   3.577   6.690
 5164POPC   C3A67493  37.671   3.496   7.033
 5164POPC   C4A67494  37.243   3.462   7.220
 5164POPC   C1B67495  37.979   3.188   6.309
 5164POPC   C2B67496  37.828   3.086   6.723
 5164POPC   C3B67497  38.014   3.131   7.125
 5164POPC   C4B67498  38.111   3.462   7.437
 5165POPC   NC367499  38.044   2.309   5.439
 5165POPC   PO467500  37.473   2.648   5.486
 5165POPC   GL167501  37.657   2.751   5.865
 5165POPC   GL267502  37.434   2.988   5.976
 5165POPC   C1A67503  37.710   2.750   6.331
 5165POPC   D2A67504  37.512   2.681   6.715
 5165POPC   C3A67505  37.834   2.650   6.989
 5165POPC   C4A67506  38.250   2.636   7.156
 5165POPC   C1B67507  37.460   3.190   6.359
 5165POPC   C2B67508  37.330   3.198   6.767
 5165POPC   C3B67509  37.470   3.014   7.136
 5165POPC   C4B67510  37.650   3.227   7.470
 5166POPC   NC367511  19.317  10.147   5.006
 5166POPC   PO467512  18.947  10.565   5.321
 5166POPC   GL167513  19.166  10.628   5.727
 5166POPC   GL267514  19.504  10.475   5.705
 5166POPC   C1A67515  19.100  10.452   6.153
 5166POPC   D2A67516  19.128  10.663   6.538
 5166POPC   C3A67517  19.077  10.646   6.979
 5166POPC   C4A67518  19.036  10.906   7.336
 5166POPC   C1B67519  19.534  10.191   6.064
 5166POPC   C2B67520  19.368  10.152   6.476
 5166POPC   C3B67521  19.391  10.254   6.905
 5166POPC   C4B67522  19.224  10.267   7.304
 5167POPC   NC367523   4.012   1.724   5.283
 5167POPC   PO467524   4.501   2.203   5.396
 5167POPC   GL167525   4.349   1.978   5.740
 5167POPC   GL267526   4.149   2.249   5.833
 5167POPC   C1A67527   4.320   1.917   6.208
 5167POPC   D2A67528   4.357   2.128   6.611
 5167POPC   C3A67529   4.494   1.994   7.006
 5167POPC   C4A67530   4.747   2.269   7.287
 5167POPC   C1B67531   4.023   2.333   6.271
 5167POPC   C2B67532   3.879   2.310   6.714
 5167POPC   C3B67533   4.081   2.266   7.107
 5167POPC   C4B67534   4.057   1.923   7.416
 5168POPC   NC367535  28.638  22.367   5.374
 5168POPC   PO467536  28.234  21.932   5.547
 5168POPC   GL167537  28.585  22.101   5.811
 5168POPC   GL267538  28.539  22.472   5.894
 5168POPC   C1A67539  28.632  22.067   6.266
 5168POPC   D2A67540  28.329  21.875   6.554
 5168POPC   C3A67541  28.210  21.946   7.002
 5168POPC   C4A67542  28.275  21.910   7.454
 5168POPC   C1B67543  28.474  22.560   6.361
 5168POPC   C2B67544  28.465  22.323   6.735
 5168POPC   C3B67545  28.638  22.200   7.131
 5168POPC   C4B67546  28.535  22.324   7.564
 5169POPC   NC367547  19.314  29.317   5.362
 5169POPC   PO467548  18.810  29.445   5.106
 5169POPC   GL167549  18.924  29.244   5.644
 5169POPC   GL267550  19.204  28.949   5.684
 5169POPC   C1A67551  18.889  29.051   6.067
 5169POPC   D2A67552  18.761  29.230   6.474
 5169POPC   C3A67553  18.825  29.114   6.888
 5169POPC   C4A67554  18.811  29.314   7.283
 5169POPC   C1B67555  19.403  28.954   6.101
 5169POPC   C2B67556  19.233  28.978   6.515
 5169POPC   C3B67557  19.334  29.130   6.926
 5169POPC   C4B67558  19.195  28.979   7.276
 5170POPC   NC367559  14.793  37.892   5.416
 5170POPC   PO467560  15.388  37.580   5.288
 5170POPC   GL167561  15.171  37.517   5.652
 5170POPC   GL267562  15.113  37.823   5.799
 5170POPC   C1A67563  15.065  37.385   6.079
 5170POPC   D2A67564  15.145  37.478   6.506
 5170POPC   C3A67565  15.009  37.361   6.938
 5170POPC   C4A67566  15.142  37.608   7.300
 5170POPC   C1B67567  14.970  37.894   6.195
 5170POPC   C2B67568  14.690  37.889   6.549
 5170POPC   C3B67569  14.792  37.836   6.972
 5170POPC   C4B67570  14.828  38.000   7.383
 5171POPC   NC367571  41.019  11.089   5.330
 5171POPC   PO467572  40.518  11.575   5.123
 5171POPC   GL167573  40.730  11.356   5.615
 5171POPC   GL267574  41.074  11.338   5.781
 5171POPC   C1A67575  40.606  11.217   6.068
 5171POPC   D2A67576  40.476  11.463   6.455
 5171POPC   C3A67577  40.558  11.383   6.899
 5171POPC   C4A67578  40.418  11.530   7.293
 5171POPC   C1B67579  41.089  11.080   6.170
 5171POPC   C2B67580  40.875  11.104   6.583
 5171POPC   C3B67581  41.042  11.245   7.003
 5171POPC   C4B67582  41.163  10.996   7.336
 5172POPC   NC367583   9.352   8.386   5.183
 5172POPC   PO467584   9.870   7.971   5.338
 5172POPC   GL167585   9.988   8.084   5.759
 5172POPC   GL267586   9.684   8.068   5.969
 5172POPC   C1A67587  10.152   8.048   6.185
 5172POPC   D2A67588   9.988   8.324   6.528
 5172POPC   C3A67589   9.737   8.087   6.826
 5172POPC   C4A67590  10.013   8.010   7.164
 5172POPC   C1B67591   9.472   8.242   6.371
 5172POPC   C2B67592   9.534   8.563   6.711
 5172POPC   C3B67593   9.707   8.505   7.117
 5172POPC   C4B67594   9.531   8.187   7.412
 5173POPC   NC367595   3.379  10.697   5.374
 5173POPC   PO467596   3.887  10.340   5.520
 5173POPC   GL167597   3.713  10.453   5.893
 5173POPC   GL267598   3.354  10.389   5.796
 5173POPC   C1A67599   3.732  10.236   6.290
 5173POPC   D2A67600   3.508  10.295   6.690
 5173POPC   C3A67601   3.784  10.486   7.006
 5173POPC   C4A67602   3.952  10.723   7.346
 5173POPC   C1B67603   3.275  10.420   6.217
 5173POPC   C2B67604   3.117  10.634   6.583
 5173POPC   C3B67605   3.256  10.655   7.010
 5173POPC   C4B67606   3.382  10.337   7.283
 5174POPC   NC367607  26.905  36.651   5.443
 5174POPC   PO467608  26.581  35.951   5.458
 5174POPC   GL167609  26.832  36.131   5.780
 5174POPC   GL267610  27.142  35.973   5.901
 5174POPC   C1A67611  26.730  36.170   6.210
 5174POPC   D2A67612  26.515  35.930   6.546
 5174POPC   C3A67613  26.691  36.038   6.943
 5174POPC   C4A67614  26.589  36.180   7.346
 5174POPC   C1B67615  27.223  36.132   6.365
 5174POPC   C2B67616  27.224  36.220   6.849
 5174POPC   C3B67617  27.112  36.112   7.291
 5174POPC   C4B67618  27.245  36.200   7.729
 5175POPC   NC367619  18.510  34.982   5.387
 5175POPC   PO467620  18.040  35.466   5.221
 5175POPC   GL167621  18.234  35.414   5.651
 5175POPC   GL267622  18.599  35.426   5.671
 5175POPC   C1A67623  18.246  35.582   6.107
 5175POPC   D2A67624  18.170  35.521   6.580
 5175POPC   C3A67625  18.181  35.066   6.729
 5175POPC   C4A67626  18.118  34.842   7.128
 5175POPC   C1B67627  18.709  35.324   6.074
 5175POPC   C2B67628  18.591  35.243   6.463
 5175POPC   C3B67629  18.571  35.406   6.887
 5175POPC   C4B67630  18.314  35.475   7.226
 5176POPC   NC367631  13.914   4.364   5.311
 5176POPC   PO467632  14.544   4.228   5.236
 5176POPC   GL167633  14.624   4.238   5.730
 5176POPC   GL267634  14.291   4.299   5.883
 5176POPC   C1A67635  14.656   4.156   6.205
 5176POPC   D2A67636  14.802   4.383   6.593
 5176POPC   C3A67637  14.524   4.315   6.938
 5176POPC   C4A67638  14.328   4.463   7.301
 5176POPC   C1B67639  14.072   4.096   6.259
 5176POPC   C2B67640  13.878   3.901   6.620
 5176POPC   C3B67641  14.088   4.003   6.999
 5176POPC   C4B67642  14.194   3.988   7.419
 5177POPC   NC367643  14.864   1.565   5.288
 5177POPC   PO467644  15.215   2.148   4.981
 5177POPC   GL167645  15.344   2.199   5.507
 5177POPC   GL267646  15.026   2.187   5.710
 5177POPC   C1A67647  15.424   2.126   6.029
 5177POPC   D2A67648  15.484   1.921   6.488
 5177POPC   C3A67649  15.535   2.189   6.867
 5177POPC   C4A67650  15.397   2.338   7.276
 5177POPC   C1B67651  14.930   1.948   6.142
 5177POPC   C2B67652  14.977   1.875   6.621
 5177POPC   C3B67653  15.014   1.983   7.078
 5177POPC   C4B67654  14.790   1.786   7.414
 5178POPC   NC367655  25.443  16.855   5.408
 5178POPC   PO467656  25.765  16.249   5.490
 5178POPC   GL167657  25.505  16.491   5.766
 5178POPC   GL267658  25.131  16.555   5.731
 5178POPC   C1A67659  25.448  16.648   6.172
 5178POPC   D2A67660  25.228  16.501   6.532
 5178POPC   C3A67661  25.550  16.469   6.874
 5178POPC   C4A67662  25.659  16.673   7.261
 5178POPC   C1B67663  24.986  16.815   6.105
 5178POPC   C2B67664  25.189  17.009   6.477
 5178POPC   C3B67665  25.169  16.858   6.895
 5178POPC   C4B67666  25.034  16.910   7.301
 5179POPC   NC367667  27.407  41.309   5.228
 5179POPC   PO467668  27.801  41.635   5.593
 5179POPC   GL167669  27.698  41.341   5.882
 5179POPC   GL267670  27.336  41.363   5.862
 5179POPC   C1A67671  27.817  41.328   6.337
 5179POPC   D2A67672  27.581  41.435   6.712
 5179POPC   C3A67673  27.793  41.514   7.092
 5179POPC   C4A67674  27.717  41.520   7.530
 5179POPC   C1B67675  27.499  41.715   6.177
 5179POPC   C2B67676  27.422  41.940   6.551
 5179POPC   C3B67677  27.587  41.958   6.947
 5179POPC   C4B67678  27.422  41.944   7.349
 5180POPC   NC367679  20.062   8.639   5.565
 5180POPC   PO467680  20.171   9.292   5.448
 5180POPC   GL167681  19.969   9.078   5.789
 5180POPC   GL267682  19.646   8.890   5.738
 5180POPC   C1A67683  20.003   8.870   6.174
 5180POPC   D2A67684  20.334   8.738   6.426
 5180POPC   C3A67685  20.118   8.818   6.809
 5180POPC   C4A67686  19.904   9.045   7.149
 5180POPC   C1B67687  19.547   8.580   6.080
 5180POPC   C2B67688  19.403   8.499   6.515
 5180POPC   C3B67689  19.630   8.541   6.922
 5180POPC   C4B67690  19.581   8.669   7.341
 5181POPC   NC367691   5.154  14.528   5.149
 5181POPC   PO467692   4.978  14.987   5.361
 5181POPC   GL167693   5.176  14.741   5.696
 5181POPC   GL267694   5.502  14.579   5.731
 5181POPC   C1A67695   5.102  14.557   6.132
 5181POPC   D2A67696   4.901  14.468   6.557
 5181POPC   C3A67697   5.114  14.566   6.950
 5181POPC   C4A67698   5.001  14.470   7.362
 5181POPC   C1B67699   5.570  14.353   6.165
 5181POPC   C2B67700   5.380  14.258   6.616
 5181POPC   C3B67701   5.271  14.090   7.077
 5181POPC   C4B67702   5.435  13.757   7.371
 5182POPC   NC367703   3.780   9.160   5.452
 5182POPC   PO467704   3.217   8.743   5.342
 5182POPC   GL167705   3.248   8.789   5.788
 5182POPC   GL267706   3.617   8.765   5.799
 5182POPC   C1A67707   3.200   9.113   6.103
 5182POPC   D2A67708   3.388   9.284   6.490
 5182POPC   C3A67709   3.281   9.053   6.870
 5182POPC   C4A67710   3.199   8.819   7.214
 5182POPC   C1B67711   3.727   9.107   6.109
 5182POPC   C2B67712   3.902   9.232   6.516
 5182POPC   C3B67713   3.760   9.177   6.927
 5182POPC   C4B67714   3.819   8.844   7.231
 5183POPC   NC367715   2.460  32.634   5.379
 5183POPC   PO467716   2.574  33.355   5.381
 5183POPC   GL167717   2.501  33.117   5.737
 5183POPC   GL267718   2.767  32.893   5.740
 5183POPC   C1A67719   2.644  33.207   6.165
 5183POPC   D2A67720   2.545  32.995   6.575
 5183POPC   C3A67721   2.586  33.207   6.974
 5183POPC   C4A67722   2.744  33.424   7.312
 5183POPC   C1B67723   2.800  32.738   6.167
 5183POPC   C2B67724   2.855  32.586   6.585
 5183POPC   C3B67725   2.813  32.755   6.988
 5183POPC   C4B67726   2.816  32.943   7.398
 5184POPC   NC367727   1.111  33.604   5.404
 5184POPC   PO467728   0.896  34.158   5.030
 5184POPC   GL167729   1.014  34.094   5.526
 5184POPC   GL267730   1.389  33.998   5.644
 5184POPC   C1A67731   1.030  33.965   6.000
 5184POPC   D2A67732   1.037  33.711   6.409
 5184POPC   C3A67733   0.945  33.900   6.846
 5184POPC   C4A67734   1.150  33.918   7.293
 5184POPC   C1B67735   1.515  33.941   6.118
 5184POPC   C2B67736   1.661  34.088   6.515
 5184POPC   C3B67737   1.502  34.006   6.927
 5184POPC   C4B67738   1.669  33.961   7.332
 5185POPC   NC367739   6.175  38.252   5.063
 5185POPC   PO467740   5.822  37.814   5.468
 5185POPC   GL167741   5.859  37.724   5.834
 5185POPC   GL267742   5.627  37.942   5.930
 5185POPC   C1A67743   5.876  37.523   6.186
 5185POPC   D2A67744   5.691  37.547   6.588
 5185POPC   C3A67745   5.904  37.445   6.974
 5185POPC   C4A67746   5.945  37.361   7.424
 5185POPC   C1B67747   5.671  38.007   6.327
 5185POPC   C2B67748   5.447  38.010   6.677
 5185POPC   C3B67749   5.765  37.946   6.929
 5185POPC   C4B67750   5.795  37.826   7.329
 5186POPC   NC367751  31.889  19.766   5.414
 5186POPC   PO467752  32.588  19.971   5.387
 5186POPC   GL167753  32.417  19.815   5.811
 5186POPC   GL267754  32.202  19.551   5.772
 5186POPC   C1A67755  32.425  19.815   6.295
 5186POPC   D2A67756  32.551  19.829   6.774
 5186POPC   C3A67757  32.401  20.123   7.105
 5186POPC   C4A67758  32.377  20.248   7.611
 5186POPC   C1B67759  32.072  19.453   6.186
 5186POPC   C2B67760  32.174  19.498   6.635
 5186POPC   C3B67761  32.030  19.773   7.003
 5186POPC   C4B67762  32.221  19.804   7.435
 5187POPC   NC367763  19.535  14.745   5.414
 5187POPC   PO467764  19.732  15.407   5.378
 5187POPC   GL167765  19.859  15.381   5.767
 5187POPC   GL267766  19.654  15.651   5.836
 5187POPC   C1A67767  19.880  15.103   6.111
 5187POPC   D2A67768  19.879  15.139   6.560
 5187POPC   C3A67769  19.900  14.822   6.884
 5187POPC   C4A67770  19.749  14.919   7.295
 5187POPC   C1B67771  19.774  15.601   6.267
 5187POPC   C2B67772  19.689  15.612   6.697
 5187POPC   C3B67773  19.876  15.561   7.092
 5187POPC   C4B67774  19.933  15.354   7.486
 5188POPC   NC367775  39.193  29.219   5.489
 5188POPC   PO467776  39.434  29.532   6.010
 5188POPC   GL167777  39.326  29.075   5.975
 5188POPC   GL267778  38.979  28.931   5.896
 5188POPC   C1A67779  39.196  28.982   6.375
 5188POPC   D2A67780  39.011  29.306   6.633
 5188POPC   C3A67781  39.087  29.217   7.026
 5188POPC   C4A67782  39.392  28.921   7.195
 5188POPC   C1B67783  38.878  28.624   6.235
 5188POPC   C2B67784  38.952  28.668   6.699
 5188POPC   C3B67785  38.933  28.681   7.162
 5188POPC   C4B67786  39.001  29.020   7.488
 5189POPC   NC367787  43.837  32.559   5.461
 5189POPC   PO467788  44.461  32.621   5.336
 5189POPC   GL167789  44.245  32.504   5.737
 5189POPC   GL267790  44.024  32.177   5.786
 5189POPC   C1A67791  43.937  32.562   6.116
 5189POPC   D2A67792  43.707  32.578   6.514
 5189POPC   C3A67793  43.929  32.411   6.871
 5189POPC   C4A67794  44.014  32.265   7.292
 5189POPC   C1B67795  43.702  32.052   6.135
 5189POPC   C2B67796  43.551  31.868   6.573
 5189POPC   C3B67797  43.655  31.978   7.027
 5189POPC   C4B67798  43.640  31.994   7.491
 5190POPC   NC367799  26.968   6.946   5.421
 5190POPC   PO467800  27.048   6.270   5.565
 5190POPC   GL167801  26.796   6.529   5.816
 5190POPC   GL267802  26.678   6.874   5.851
 5190POPC   C1A67803  26.609   6.440   6.189
 5190POPC   D2A67804  26.735   6.391   6.616
 5190POPC   C3A67805  26.659   6.569   7.032
 5190POPC   C4A67806  27.037   6.563   7.308
 5190POPC   C1B67807  26.885   6.872   6.279
 5190POPC   C2B67808  26.858   6.967   6.743
 5190POPC   C3B67809  26.918   7.040   7.205
 5190POPC   C4B67810  27.104   6.978   7.649
 5191POPC   NC367811  21.634   0.291   5.346
 5191POPC   PO467812  21.075   0.233   5.237
 5191POPC   GL167813  21.263   0.209   5.702
 5191POPC   GL267814  21.632   0.184   5.858
 5191POPC   C1A67815  21.240   0.323   6.160
 5191POPC   D2A67816  21.311   0.602   6.534
 5191POPC   C3A67817  21.285   0.421   6.964
 5191POPC   C4A67818  21.011   0.274   7.316
 5191POPC   C1B67819  21.734   0.484   6.235
 5191POPC   C2B67820  21.770   0.454   6.721
 5191POPC   C3B67821  21.769   0.245   7.127
 5191POPC   C4B67822  21.483   0.047   7.429
 5192POPC   NC367823  37.657  40.558   5.432
 5192POPC   PO467824  37.527  41.253   5.385
 5192POPC   GL167825  37.658  40.986   5.765
 5192POPC   GL267826  37.944  40.721   5.828
 5192POPC   C1A67827  37.541  40.747   6.149
 5192POPC   D2A67828  37.540  40.487   6.527
 5192POPC   C3A67829  37.592  40.732   6.872
 5192POPC   C4A67830  37.337  40.935   7.170
 5192POPC   C1B67831  37.942  40.410   6.196
 5192POPC   C2B67832  38.019  40.256   6.608
 5192POPC   C3B67833  37.925  40.371   7.032
 5192POPC   C4B67834  37.936  40.803   7.242
 5193POPC   NC367835  39.387  12.359   5.213
 5193POPC   PO467836  39.096  12.993   5.444
 5193POPC   GL167837  39.373  13.060   5.835
 5193POPC   GL267838  39.099  12.934   5.969
 5193POPC   C1A67839  39.512  12.870   6.245
 5193POPC   D2A67840  39.380  13.017   6.649
 5193POPC   C3A67841  39.380  12.734   7.004
 5193POPC   C4A67842  39.150  12.757   7.416
 5193POPC   C1B67843  38.906  13.146   6.263
 5193POPC   C2B67844  38.952  13.333   6.596
 5193POPC   C3B67845  38.969  13.092   6.974
 5193POPC   C4B67846  38.846  13.200   7.364
 5194POPC   NC367847  21.125  31.976   5.385
 5194POPC   PO467848  20.438  31.887   5.512
 5194POPC   GL167849  20.711  32.239   5.740
 5194POPC   GL267850  20.496  32.513   5.913
 5194POPC   C1A67851  20.890  32.400   6.186
 5194POPC   D2A67852  20.818  32.151   6.571
 5194POPC   C3A67853  20.582  32.237   6.947
 5194POPC   C4A67854  20.584  32.493   7.339
 5194POPC   C1B67855  20.457  32.111   6.162
 5194POPC   C2B67856  20.310  31.978   6.554
 5194POPC   C3B67857  20.116  31.915   6.953
 5194POPC   C4B67858  20.242  32.122   7.334
 5195POPC   NC367859  34.058   6.907   5.486
 5195POPC   PO467860  33.677   7.441   5.346
 5195POPC   GL167861  33.836   7.442   5.766
 5195POPC   GL267862  33.495   7.416   5.847
 5195POPC   C1A67863  33.921   7.373   6.213
 5195POPC   D2A67864  34.197   7.391   6.566
 5195POPC   C3A67865  34.051   7.305   6.967
 5195POPC   C4A67866  33.656   7.400   7.155
 5195POPC   C1B67867  33.532   7.720   6.164
 5195POPC   C2B67868  33.473   7.580   6.587
 5195POPC   C3B67869  33.363   7.784   6.955
 5195POPC   C4B67870  33.508   7.912   7.321
 5196POPC   NC367871  43.024  31.168   5.524
 5196POPC   PO467872  42.716  31.702   5.208
 5196POPC   GL167873  42.897  31.739   5.724
 5196POPC   GL267874  43.180  31.534   5.871
 5196POPC   C1A67875  42.771  31.645   6.200
 5196POPC   D2A67876  42.988  31.709   6.644
 5196POPC   C3A67877  42.809  31.514   7.075
 5196POPC   C4A67878  42.945  31.500   7.547
 5196POPC   C1B67879  43.128  31.304   6.300
 5196POPC   C2B67880  43.098  31.226   6.753
 5196POPC   C3B67881  43.327  31.532   7.012
 5196POPC   C4B67882  43.445  31.536   7.442
 5197POPC   NC367883  40.218  31.725   5.025
 5197POPC   PO467884  39.727  31.360   5.288
 5197POPC   GL167885  39.851  31.300   5.751
 5197POPC   GL267886  39.494  31.221   5.832
 5197POPC   C1A67887  40.182  31.420   6.125
 5197POPC   D2A67888  40.313  31.677   6.516
 5197POPC   C3A67889  40.205  31.527   6.958
 5197POPC   C4A67890  39.935  31.720   7.255
 5197POPC   C1B67891  39.661  31.362   6.229
 5197POPC   C2B67892  39.918  31.307   6.580
 5197POPC   C3B67893  39.727  31.261   6.968
 5197POPC   C4B67894  39.817  31.205   7.374
 5198POPC   NC367895  20.850  29.540   5.372
 5198POPC   PO467896  20.476  28.962   5.319
 5198POPC   GL167897  20.664  29.014   5.701
 5198POPC   GL267898  20.649  29.364   5.796
 5198POPC   C1A67899  20.633  28.981   6.145
 5198POPC   D2A67900  20.679  29.052   6.572
 5198POPC   C3A67901  20.561  28.851   6.980
 5198POPC   C4A67902  20.649  29.034   7.379
 5198POPC   C1B67903  20.923  29.431   6.143
 5198POPC   C2B67904  20.913  29.538   6.581
 5198POPC   C3B67905  20.639  29.394   6.931
 5198POPC   C4B67906  20.456  29.523   7.279
 5199POPC   NC367907  39.952  23.855   5.377
 5199POPC   PO467908  40.497  24.194   5.435
 5199POPC   GL167909  40.221  24.010   5.798
 5199POPC   GL267910  40.074  23.645   5.817
 5199POPC   C1A67911  40.142  23.947   6.235
 5199POPC   D2A67912  39.922  24.126   6.603
 5199POPC   C3A67913  40.064  23.909   6.933
 5199POPC   C4A67914  40.216  23.931   7.346
 5199POPC   C1B67915  39.779  23.578   6.158
 5199POPC   C2B67916  39.667  23.678   6.598
 5199POPC   C3B67917  39.678  23.503   7.026
 5199POPC   C4B67918  39.859  23.522   7.461
 5200POPC   NC367919  37.704  12.419   5.409
 5200POPC   PO467920  38.071  11.812   5.504
 5200POPC   GL167921  37.981  12.059   5.852
 5200POPC   GL267922  37.643  12.089   5.837
 5200POPC   C1A67923  37.875  11.857   6.257
 5200POPC   D2A67924  37.840  11.605   6.651
 5200POPC   C3A67925  37.773  11.840   7.044
 5200POPC   C4A67926  37.861  12.307   7.139
 5200POPC   C1B67927  37.599  12.294   6.227
 5200POPC   C2B67928  37.642  12.137   6.642
 5200POPC   C3B67929  37.365  12.106   7.017
 5200POPC   C4B67930  37.483  12.151   7.459
 5201POPC   NC367931   8.391  36.684   5.287
 5201POPC   PO467932   7.892  37.107   5.451
 5201POPC   GL167933   8.188  36.907   5.731
 5201POPC   GL267934   8.377  37.159   5.786
 5201POPC   C1A67935   8.376  36.872   6.180
 5201POPC   D2A67936   8.189  36.899   6.540
 5201POPC   C3A67937   8.320  36.885   6.969
 5201POPC   C4A67938   8.166  36.622   7.296
 5201POPC   C1B67939   8.047  37.263   6.098
 5201POPC   C2B67940   8.095  37.434   6.492
 5201POPC   C3B67941   8.028  37.309   6.874
 5201POPC   C4B67942   8.050  37.223   7.273
 5202POPC   NC367943  19.310  11.099   5.311
 5202POPC   PO467944  18.695  11.152   5.294
 5202POPC   GL167945  18.781  11.304   5.721
 5202POPC   GL267946  19.128  11.280   5.765
 5202POPC   C1A67947  18.655  11.214   6.155
 5202POPC   D2A67948  18.829  11.070   6.547
 5202POPC   C3A67949  18.776  11.328   6.898
 5202POPC   C4A67950  18.677  11.254   7.296
 5202POPC   C1B67951  19.150  11.035   6.124
 5202POPC   C2B67952  19.400  11.108   6.471
 5202POPC   C3B67953  19.288  11.108   6.887
 5202POPC   C4B67954  19.247  11.361   7.234
 5203POPC   NC367955  35.934  21.168   5.515
 5203POPC   PO467956  35.348  21.172   5.338
 5203POPC   GL167957  35.253  21.361   5.717
 5203POPC   GL267958  35.590  21.447   5.781
 5203POPC   C1A67959  35.225  21.234   6.145
 5203POPC   D2A67960  35.502  21.028   6.428
 5203POPC   C3A67961  35.282  21.087   6.823
 5203POPC   C4A67962  35.258  20.974   7.231
 5203POPC   C1B67963  35.574  21.651   6.168
 5203POPC   C2B67964  35.443  21.520   6.548
 5203POPC   C3B67965  35.288  21.570   6.932
 5203POPC   C4B67966  35.436  21.474   7.336
 5204POPC   NC367967  39.207  41.924   5.340
 5204POPC   PO467968  38.650  41.588   5.179
 5204POPC   GL167969  38.940  41.532   5.585
 5204POPC   GL267970  39.027  41.830   5.822
 5204POPC   C1A67971  39.099  41.379   6.033
 5204POPC   D2A67972  39.290  41.609   6.418
 5204POPC   C3A67973  39.158  41.465   6.853
 5204POPC   C4A67974  39.126  41.389   7.290
 5204POPC   C1B67975  38.995  42.078   6.233
 5204POPC   C2B67976  38.941  41.914   6.662
 5204POPC   C3B67977  38.969  41.871   7.113
 5204POPC   C4B67978  39.021  42.080   7.518
 5205POPC   NC367979  22.319   6.035   5.459
 5205POPC   PO467980  22.419   5.397   5.329
 5205POPC   GL167981  22.264   5.622   5.769
 5205POPC   GL267982  22.087   5.944   5.895
 5205POPC   C1A67983  22.366   5.697   6.220
 5205POPC   D2A67984  22.170   5.492   6.559
 5205POPC   C3A67985  22.260   5.676   6.946
 5205POPC   C4A67986  22.397   5.977   7.222
 5205POPC   C1B67987  21.851   5.757   6.242
 5205POPC   C2B67988  21.740   5.772   6.682
 5205POPC   C3B67989  21.781   5.699   7.142
 5205POPC   C4B67990  21.706   5.611   7.568
 5206POPC   NC367991  38.436  27.738   5.399
 5206POPC   PO467992  38.631  27.098   5.468
 5206POPC   GL167993  38.391  27.391   5.790
 5206POPC   GL267994  38.044  27.280   5.863
 5206POPC   C1A67995  38.500  27.685   6.187
 5206POPC   D2A67996  38.340  27.821   6.621
 5206POPC   C3A67997  38.554  27.805   7.033
 5206POPC   C4A67998  38.582  27.460   7.295
 5206POPC   C1B67999  38.134  27.355   6.292
 5206POPC   C2B68000  38.197  27.263   6.697
 5206POPC   C3B68001  38.140  27.523   7.043
 5206POPC   C4B68002  38.080  27.448   7.474
 5207POPC   NC368003  18.884  20.421   5.182
 5207POPC   PO468004  19.477  20.695   5.321
 5207POPC   GL168005  19.162  20.774   5.688
 5207POPC   GL268006  18.817  20.639   5.667
 5207POPC   C1A68007  19.100  20.628   6.133
 5207POPC   D2A68008  19.122  20.239   6.389
 5207POPC   C3A68009  19.199  20.360   6.796
 5207POPC   C4A68010  19.256  20.179   7.184
 5207POPC   C1B68011  18.692  20.348   5.997
 5207POPC   C2B68012  18.661  20.435   6.438
 5207POPC   C3B68013  18.708  20.410   6.881
 5207POPC   C4B68014  18.948  20.585   7.227
 5208POPC   NC368015  13.226  12.406   5.144
 5208POPC   PO468016  12.849  12.834   5.509
 5208POPC   GL168017  12.806  12.529   5.830
 5208POPC   GL268018  13.072  12.673   5.974
 5208POPC   C1A68019  12.784  12.375   6.274
 5208POPC   D2A68020  12.921  12.263   6.668
 5208POPC   C3A68021  12.989  12.577   6.970
 5208POPC   C4A68022  12.740  12.727   7.297
 5208POPC   C1B68023  13.087  13.054   6.232
 5208POPC   C2B68024  13.097  13.245   6.664
 5208POPC   C3B68025  13.063  13.097   7.097
 5208POPC   C4B68026  12.992  13.120   7.549
 5209POPC   NC368027  35.295  10.044   5.734
 5209POPC   PO468028  35.340  10.574   5.285
 5209POPC   GL168029  35.368  10.562   5.782
 5209POPC   GL268030  35.081  10.726   5.945
 5209POPC   C1A68031  35.375  10.443   6.258
 5209POPC   D2A68032  35.274  10.226   6.642
 5209POPC   C3A68033  35.480  10.467   6.912
 5209POPC   C4A68034  35.600  10.614   7.284
 5209POPC   C1B68035  35.375  10.965   6.202
 5209POPC   C2B68036  35.535  10.908   6.610
 5209POPC   C3B68037  35.318  10.957   7.002
 5209POPC   C4B68038  35.100  10.801   7.324
 5210POPC   NC368039  40.216  15.296   5.517
 5210POPC   PO468040  39.602  15.417   5.238
 5210POPC   GL168041  39.656  15.129   5.683
 5210POPC   GL268042  40.004  15.104   5.916
 5210POPC   C1A68043  39.596  14.967   6.145
 5210POPC   D2A68044  39.918  15.101   6.459
 5210POPC   C3A68045  39.874  15.105   6.917
 5210POPC   C4A68046  40.126  14.967   7.269
 5210POPC   C1B68047  40.281  15.392   6.195
 5210POPC   C2B68048  40.268  15.573   6.604
 5210POPC   C3B68049  40.299  15.399   7.027
 5210POPC   C4B68050  40.056  15.452   7.451
 5211POPC   NC368051   1.364   7.998   5.161
 5211POPC   PO468052   0.901   8.485   5.298
 5211POPC   GL168053   1.132   8.201   5.637
 5211POPC   GL268054   1.003   8.377   5.935
 5211POPC   C1A68055   1.425   8.107   6.045
 5211POPC   D2A68056   1.244   8.272   6.461
 5211POPC   C3A68057   1.333   8.099   6.886
 5211POPC   C4A68058   1.188   8.243   7.295
 5211POPC   C1B68059   0.951   7.962   6.135
 5211POPC   C2B68060   0.911   7.879   6.571
 5211POPC   C3B68061   0.809   8.116   6.925
 5211POPC   C4B68062   0.775   7.969   7.335
 5212POPC   NC368063  27.345  11.445   5.238
 5212POPC   PO468064  26.705  11.186   5.360
 5212POPC   GL168065  26.782  11.325   5.735
 5212POPC   GL268066  27.088  11.389   5.771
 5212POPC   C1A68067  26.697  11.437   6.155
 5212POPC   D2A68068  26.810  11.273   6.534
 5212POPC   C3A68069  26.666  11.442   6.894
 5212POPC   C4A68070  26.668  11.466   7.315
 5212POPC   C1B68071  27.045  11.046   6.124
 5212POPC   C2B68072  27.161  10.898   6.568
 5212POPC   C3B68073  27.099  11.151   6.957
 5212POPC   C4B68074  27.110  11.631   7.072
 5213POPC   NC368075  34.187  23.994   5.471
 5213POPC   PO468076  33.583  23.692   5.317
 5213POPC   GL168077  33.825  23.679   5.695
 5213POPC   GL268078  33.590  23.899   5.806
 5213POPC   C1A68079  34.074  23.730   6.107
 5213POPC   D2A68080  34.248  23.904   6.520
 5213POPC   C3A68081  34.078  23.678   6.860
 5213POPC   C4A68082  33.934  23.744   7.251
 5213POPC   C1B68083  33.550  23.662   6.146
 5213POPC   C2B68084  33.713  23.792   6.517
 5213POPC   C3B68085  33.618  23.948   6.915
 5213POPC   C4B68086  33.266  23.969   7.172
 5214POPC   NC368087  42.908   0.636   5.665
 5214POPC   PO468088  43.314   0.173   5.509
 5214POPC   GL168089  43.284   0.360   5.886
 5214POPC   GL268090  42.972   0.202   5.943
 5214POPC   C1A68091  43.175   0.606   6.272
 5214POPC   D2A68092  43.161   0.433   6.670
 5214POPC   C3A68093  43.327   0.602   7.054
 5214POPC   C4A68094  43.344   0.379   7.422
 5214POPC   C1B68095  42.702   0.385   6.256
 5214POPC   C2B68096  42.705   0.640   6.620
 5214POPC   C3B68097  42.824   0.524   7.053
 5214POPC   C4B68098  42.839   0.470   7.510
 5215POPC   NC368099  18.086   9.983   5.513
 5215POPC   PO468100  17.522   9.778   5.273
 5215POPC   GL168101  17.578   9.926   5.702
 5215POPC   GL268102  17.855   9.743   5.904
 5215POPC   C1A68103  17.419   9.958   6.141
 5215POPC   D2A68104  17.548   9.730   6.510
 5215POPC   C3A68105  17.438   9.824   6.938
 5215POPC   C4A68106  17.158   9.546   7.093
 5215POPC   C1B68107  18.059   9.727   6.333
 5215POPC   C2B68108  17.975   9.809   6.785
 5215POPC   C3B68109  17.855   9.665   7.179
 5215POPC   C4B68110  17.661   9.966   7.460
 5216POPC   NC368111  10.755  44.102   5.361
 5216POPC   PO468112  10.551  43.449   5.561
 5216POPC   GL168113  10.643  43.844   5.822
 5216POPC   GL268114  10.474  44.153   5.769
 5216POPC   C1A68115  10.732  44.036   6.257
 5216POPC   D2A68116  10.856  43.966   6.705
 5216POPC   C3A68117  10.938  43.553   6.832
 5216POPC   C4A68118  10.838  43.306   7.173
 5216POPC   C1B68119  10.252  44.192   6.102
 5216POPC   C2B68120  10.304  44.240   6.539
 5216POPC   C3B68121  10.244  44.079   6.932
 5216POPC   C4B68122  10.531  43.775   7.132
 5217POPC   NC368123  15.154  37.182   5.219
 5217POPC   PO468124  15.643  36.951   5.472
 5217POPC   GL168125  15.521  36.868   5.847
 5217POPC   GL268126  15.200  37.012   5.763
 5217POPC   C1A68127  15.422  37.042   6.252
 5217POPC   D2A68128  15.139  36.970   6.582
 5217POPC   C3A68129  15.295  36.926   7.000
 5217POPC   C4A68130  15.476  37.232   7.252
 5217POPC   C1B68131  14.898  36.907   6.094
 5217POPC   C2B68132  14.724  36.717   6.448
 5217POPC   C3B68133  14.866  36.627   6.846
 5217POPC   C4B68134  14.917  36.676   7.271
 5218POPC   NC368135  10.376   4.138   5.076
 5218POPC   PO468136  10.510   4.304   5.690
 5218POPC   GL168137  10.375   4.158   6.037
 5218POPC   GL268138  10.707   3.993   6.041
 5218POPC   C1A68139  10.257   4.467   6.344
 5218POPC   D2A68140  10.513   4.581   6.697
 5218POPC   C3A68141  10.349   4.352   7.034
 5218POPC   C4A68142  10.182   4.573   7.385
 5218POPC   C1B68143  10.764   4.339   6.318
 5218POPC   C2B68144  10.896   4.217   6.684
 5218POPC   C3B68145  10.850   3.990   7.062
 5218POPC   C4B68146  10.606   4.159   7.426
 5219POPC   NC368147   7.863   7.530   5.336
 5219POPC   PO468148   8.508   7.275   5.191
 5219POPC   GL168149   8.303   7.467   5.568
 5219POPC   GL268150   8.114   7.202   5.753
 5219POPC   C1A68151   8.301   7.607   6.014
 5219POPC   D2A68152   8.157   7.695   6.443
 5219POPC   C3A68153   8.400   7.682   6.822
 5219POPC   C4A68154   8.280   7.516   7.212
 5219POPC   C1B68155   7.961   7.235   6.221
 5219POPC   C2B68156   7.897   7.090   6.686
 5219POPC   C3B68157   7.930   7.112   7.155
 5219POPC   C4B68158   8.244   7.007   7.471
 5220POPC   NC368159  29.429  19.465   5.361
 5220POPC   PO468160  29.258  18.753   5.402
 5220POPC   GL168161  29.134  18.891   5.786
 5220POPC   GL268162  29.165  19.243   5.771
 5220POPC   C1A68163  29.170  18.732   6.201
 5220POPC   D2A68164  29.139  18.600   6.614
 5220POPC   C3A68165  29.151  18.865   6.914
 5220POPC   C4A68166  28.999  18.798   7.269
 5220POPC   C1B68167  28.942  19.192   6.182
 5220POPC   C2B68168  29.059  19.280   6.636
 5220POPC   C3B68169  28.867  19.246   7.070
 5220POPC   C4B68170  28.788  19.426   7.496
 5221POPC   NC368171  16.884   3.063   5.349
 5221POPC   PO468172  16.434   2.652   5.155
 5221POPC   GL168173  16.666   2.670   5.576
 5221POPC   GL268174  17.048   2.720   5.693
 5221POPC   C1A68175  16.647   2.680   6.032
 5221POPC   D2A68176  16.648   2.857   6.455
 5221POPC   C3A68177  16.859   2.640   6.774
 5221POPC   C4A68178  16.884   2.763   7.193
 5221POPC   C1B68179  17.118   2.937   6.070
 5221POPC   C2B68180  17.154   3.072   6.491
 5221POPC   C3B68181  16.928   3.161   6.840
 5221POPC   C4B68182  16.949   3.299   7.255
 5222POPC   NC368183  41.270   0.511   5.432
 5222POPC   PO468184  41.928   0.390   5.305
 5222POPC   GL168185  41.789   0.494   5.756
 5222POPC   GL268186  41.560   0.786   5.800
 5222POPC   C1A68187  41.772   0.600   6.227
 5222POPC   D2A68188  41.873   0.805   6.617
 5222POPC   C3A68189  41.591   0.658   6.892
 5222POPC   C4A68190  41.629   0.485   7.278
 5222POPC   C1B68191  41.255   0.589   6.116
 5222POPC   C2B68192  41.030   0.566   6.548
 5222POPC   C3B68193  41.100   0.589   7.004
 5222POPC   C4B68194  41.227   0.781   7.369
 5223POPC   NC368195   0.047   1.807   5.386
 5223POPC   PO468196  44.902   2.449   5.300
 5223POPC   GL168197  44.671   2.179   5.627
 5223POPC   GL268198  44.413   2.343   5.851
 5223POPC   C1A68199  44.678   1.961   6.050
 5223POPC   D2A68200  44.679   2.165   6.463
 5223POPC   C3A68201  44.755   1.883   6.807
 5223POPC   C4A68202  44.827   1.821   7.227
 5223POPC   C1B68203  44.272   2.404   6.282
 5223POPC   C2B68204  44.281   2.371   6.752
 5223POPC   C3B68205  44.532   2.229   7.107
 5223POPC   C4B68206  44.538   2.234   7.537
 5224POPC   NC368207   8.085  29.565   5.447
 5224POPC   PO468208   7.958  30.251   5.421
 5224POPC   GL168209   8.101  30.006   5.823
 5224POPC   GL268210   8.366  29.765   5.840
 5224POPC   C1A68211   8.128  29.864   6.275
 5224POPC   D2A68212   8.240  30.119   6.632
 5224POPC   C3A68213   7.926  30.234   6.913
 5224POPC   C4A68214   7.969  29.929   7.199
 5224POPC   C1B68215   8.484  29.434   6.182
 5224POPC   C2B68216   8.497  29.499   6.641
 5224POPC   C3B68217   8.430  29.711   7.067
 5224POPC   C4B68218   8.380  29.510   7.503
 5225POPC   NC368219  41.572  31.601   5.602
 5225POPC   PO468220  41.951  31.136   5.276
 5225POPC   GL168221  41.799  31.171   5.774
 5225POPC   GL268222  41.435  31.242   5.923
 5225POPC   C1A68223  41.794  31.404   6.230
 5225POPC   D2A68224  41.591  31.597   6.620
 5225POPC   C3A68225  41.787  31.663   7.044
 5225POPC   C4A68226  41.587  31.902   7.411
 5225POPC   C1B68227  41.237  31.357   6.303
 5225POPC   C2B68228  41.042  31.351   6.715
 5225POPC   C3B68229  41.222  31.559   7.089
 5225POPC   C4B68230  41.509  31.409   7.408
 5226POPC   NC368231  32.780   3.776   5.355
 5226POPC   PO468232  32.112   3.551   5.423
 5226POPC   GL168233  32.125   3.585   5.834
 5226POPC   GL268234  32.350   3.316   5.874
 5226POPC   C1A68235  31.996   3.865   6.205
 5226POPC   D2A68236  31.804   4.073   6.580
 5226POPC   C3A68237  31.956   3.927   6.978
 5226POPC   C4A68238  32.368   3.820   7.138
 5226POPC   C1B68239  32.372   3.529   6.262
 5226POPC   C2B68240  32.374   3.755   6.611
 5226POPC   C3B68241  32.641   3.515   6.837
 5226POPC   C4B68242  32.567   3.311   7.196
 5227POPC   NC368243  42.608  10.439   5.560
 5227POPC   PO468244  41.938  10.399   5.403
 5227POPC   GL168245  42.104  10.503   5.805
 5227POPC   GL268246  42.203  10.851   5.852
 5227POPC   C1A68247  42.226  10.289   6.197
 5227POPC   D2A68248  42.418  10.064   6.545
 5227POPC   C3A68249  42.351  10.215   6.969
 5227POPC   C4A68250  41.939  10.307   7.143
 5227POPC   C1B68251  42.214  10.807   6.281
 5227POPC   C2B68252  42.191  10.576   6.638
 5227POPC   C3B68253  42.266  10.704   7.056
 5227POPC   C4B68254  42.579  10.738   7.344
 5228POPC   NC368255  38.827  32.509   5.479
 5228POPC   PO468256  39.505  32.200   5.312
 5228POPC   GL168257  39.221  32.158   5.668
 5228POPC   GL268258  39.515  31.984   5.805
 5228POPC   C1A68259  39.198  32.228   6.133
 5228POPC   D2A68260  39.207  32.416   6.544
 5228POPC   C3A68261  39.183  32.099   6.853
 5228POPC   C4A68262  39.193  32.089   7.279
 5228POPC   C1B68263  39.703  32.116   6.203
 5228POPC   C2B68264  39.649  32.017   6.639
 5228POPC   C3B68265  39.653  32.131   7.076
 5228POPC   C4B68266  39.653  32.054   7.538
 5229POPC   NC368267  33.081   8.834   5.384
 5229POPC   PO468268  32.829   9.344   5.731
 5229POPC   GL168269  32.949   8.976   5.853
 5229POPC   GL268270  33.290   9.125   5.750
 5229POPC   C1A68271  32.837   8.737   6.225
 5229POPC   D2A68272  32.645   8.749   6.641
 5229POPC   C3A68273  32.648   9.129   6.867
 5229POPC   C4A68274  32.962   9.266   7.138
 5229POPC   C1B68275  33.326   8.966   6.190
 5229POPC   C2B68276  33.096   9.027   6.588
 5229POPC   C3B68277  33.054   8.800   6.943
 5229POPC   C4B68278  33.288   8.787   7.267
 5230POPC   NC368279  33.013  42.590   5.318
 5230POPC   PO468280  33.083  41.921   5.415
 5230POPC   GL168281  32.818  42.264   5.661
 5230POPC   GL268282  32.925  42.618   5.811
 5230POPC   C1A68283  32.744  42.253   6.104
 5230POPC   D2A68284  32.982  42.193   6.478
 5230POPC   C3A68285  32.850  42.253   6.906
 5230POPC   C4A68286  33.062  42.061   7.228
 5230POPC   C1B68287  33.123  42.587   6.199
 5230POPC   C2B68288  33.086  42.710   6.647
 5230POPC   C3B68289  33.190  42.591   7.065
 5230POPC   C4B68290  33.312  42.804   7.404
 5231POPC   NC368291  22.428  38.475   5.531
 5231POPC   PO468292  21.794  38.545   5.254
 5231POPC   GL168293  22.017  38.718   5.692
 5231POPC   GL268294  22.123  38.483   5.938
 5231POPC   C1A68295  22.243  38.916   6.121
 5231POPC   D2A68296  22.332  38.976   6.592
 5231POPC   C3A68297  22.229  38.624   6.896
 5231POPC   C4A68298  22.105  38.667   7.348
 5231POPC   C1B68299  22.213  38.234   6.304
 5231POPC   C2B68300  22.298  38.112   6.697
 5231POPC   C3B68301  22.579  38.238   6.994
 5231POPC   C4B68302  22.263  38.195   7.290
 5232POPC   NC368303  26.905  13.234   5.446
 5232POPC   PO468304  27.123  12.607   5.452
 5232POPC   GL168305  26.762  12.699   5.779
 5232POPC   GL268306  26.429  12.513   5.709
 5232POPC   C1A68307  26.633  13.018   6.138
 5232POPC   D2A68308  26.535  13.215   6.570
 5232POPC   C3A68309  26.702  13.076   6.983
 5232POPC   C4A68310  26.980  13.075   7.374
 5232POPC   C1B68311  26.434  12.533   6.174
 5232POPC   C2B68312  26.610  12.711   6.575
 5232POPC   C3B68313  26.523  12.583   7.010
 5232POPC   C4B68314  26.753  12.364   7.271
 5233POPC   NC368315  20.914  43.358   5.392
 5233POPC   PO468316  21.505  43.084   5.397
 5233POPC   GL168317  21.271  42.965   5.736
 5233POPC   GL268318  21.532  42.781   5.905
 5233POPC   C1A68319  21.174  43.061   6.192
 5233POPC   D2A68320  21.388  43.157   6.593
 5233POPC   C3A68321  21.151  43.241   6.974
 5233POPC   C4A68322  21.318  43.512   7.323
 5233POPC   C1B68323  21.495  42.689   6.350
 5233POPC   C2B68324  21.568  42.633   6.778
 5233POPC   C3B68325  21.493  42.867   7.145
 5233POPC   C4B68326  21.430  42.664   7.537
 5234POPC   NC368327  22.560  37.822   5.648
 5234POPC   PO468328  23.018  37.526   5.219
 5234POPC   GL168329  23.090  37.720   5.651
 5234POPC   GL268330  22.887  37.502   5.833
 5234POPC   C1A68331  23.020  37.925   6.100
 5234POPC   D2A68332  22.735  37.875   6.493
 5234POPC   C3A68333  22.960  37.827   6.902
 5234POPC   C4A68334  23.084  37.725   7.339
 5234POPC   C1B68335  23.009  37.407   6.234
 5234POPC   C2B68336  22.805  37.357   6.630
 5234POPC   C3B68337  22.959  37.318   7.044
 5234POPC   C4B68338  22.983  37.250   7.502
 5235POPC   NC368339  24.095  42.951   5.285
 5235POPC   PO468340  24.619  43.161   5.325
 5235POPC   GL168341  24.677  43.157   5.813
 5235POPC   GL268342  24.832  42.851   5.824
 5235POPC   C1A68343  24.594  43.248   6.281
 5235POPC   D2A68344  24.390  43.055   6.668
 5235POPC   C3A68345  24.529  43.134   7.111
 5235POPC   C4A68346  24.519  43.302   7.560
 5235POPC   C1B68347  24.650  42.743   6.237
 5235POPC   C2B68348  24.686  42.634   6.669
 5235POPC   C3B68349  24.425  42.629   7.023
 5235POPC   C4B68350  24.389  42.294   7.343
 5236POPC   NC368351  38.829  13.786   5.523
 5236POPC   PO468352  38.237  13.503   5.384
 5236POPC   GL168353  38.391  13.702   5.773
 5236POPC   GL268354  38.181  14.004   5.882
 5236POPC   C1A68355  38.537  13.489   6.183
 5236POPC   D2A68356  38.417  13.396   6.604
 5236POPC   C3A68357  38.652  13.513   6.967
 5236POPC   C4A68358  38.399  13.478   7.302
 5236POPC   C1B68359  38.566  13.998   6.158
 5236POPC   C2B68360  38.635  13.862   6.583
 5236POPC   C3B68361  38.457  13.988   6.987
 5236POPC   C4B68362  38.385  14.200   7.371
 5237POPC   NC368363  35.433   8.799   5.284
 5237POPC   PO468364  35.285   8.086   5.285
 5237POPC   GL168365  35.350   8.241   5.740
 5237POPC   GL268366  35.040   8.168   5.940
 5237POPC   C1A68367  35.462   8.476   6.134
 5237POPC   D2A68368  35.630   8.432   6.562
 5237POPC   C3A68369  35.407   8.424   6.971
 5237POPC   C4A68370  35.562   8.691   7.304
 5237POPC   C1B68371  35.331   7.965   6.208
 5237POPC   C2B68372  35.397   7.978   6.644
 5237POPC   C3B68373  35.412   7.905   7.060
 5237POPC   C4B68374  35.129   7.936   7.432
 5238POPC   NC368375   6.871  22.810   5.406
 5238POPC   PO468376   6.154  22.816   5.512
 5238POPC   GL168377   6.499  22.810   5.747
 5238POPC   GL268378   6.372  22.596   5.960
 5238POPC   C1A68379   6.824  22.806   6.094
 5238POPC   D2A68380   6.692  22.689   6.511
 5238POPC   C3A68381   6.706  22.931   6.897
 5238POPC   C4A68382   6.955  22.761   7.222
 5238POPC   C1B68383   6.360  22.983   6.219
 5238POPC   C2B68384   6.136  23.047   6.581
 5238POPC   C3B68385   6.180  23.037   7.026
 5238POPC   C4B68386   6.162  23.387   7.284
 5239POPC   NC368387  20.482  13.023   5.328
 5239POPC   PO468388  21.183  13.106   5.402
 5239POPC   GL168389  20.830  12.860   5.691
 5239POPC   GL268390  20.475  12.949   5.837
 5239POPC   C1A68391  20.832  12.818   6.161
 5239POPC   D2A68392  20.735  12.645   6.553
 5239POPC   C3A68393  20.467  12.868   6.826
 5239POPC   C4A68394  20.655  12.757   7.225
 5239POPC   C1B68395  20.350  12.646   6.195
 5239POPC   C2B68396  20.342  12.304   6.520
 5239POPC   C3B68397  20.409  12.385   6.972
 5239POPC   C4B68398  20.159  12.682   7.232
 5240POPC   NC368399  38.811  29.883   5.409
 5240POPC   PO468400  39.421  29.682   5.426
 5240POPC   GL168401  39.190  29.913   5.811
 5240POPC   GL268402  38.924  30.030   5.923
 5240POPC   C1A68403  39.091  29.969   6.369
 5240POPC   D2A68404  38.958  29.823   6.785
 5240POPC   C3A68405  39.342  29.770   7.061
 5240POPC   C4A68406  39.388  29.430   7.364
 5240POPC   C1B68407  39.374  30.278   6.087
 5240POPC   C2B68408  39.425  30.411   6.502
 5240POPC   C3B68409  39.236  30.257   6.844
 5240POPC   C4B68410  38.962  30.151   7.197
 5241POPC   NC368411  10.703   4.998   5.252
 5241POPC   PO468412  11.362   5.087   5.450
 5241POPC   GL168413  11.215   5.169   5.829
 5241POPC   GL268414  10.988   4.959   5.941
 5241POPC   C1A68415  11.329   5.172   6.265
 5241POPC   D2A68416  11.401   5.254   6.687
 5241POPC   C3A68417  11.101   5.260   7.026
 5241POPC   C4A68418  11.343   5.289   7.411
 5241POPC   C1B68419  11.168   4.688   6.280
 5241POPC   C2B68420  11.483   4.739   6.614
 5241POPC   C3B68421  11.464   4.871   7.048
 5241POPC   C4B68422  11.117   4.820   7.323
 5242POPC   NC368423  39.503  42.361   5.385
 5242POPC   PO468424  38.919  42.485   5.133
 5242POPC   GL168425  39.122  42.602   5.618
 5242POPC   GL268426  39.262  42.301   5.831
 5242POPC   C1A68427  39.028  42.614   6.134
 5242POPC   D2A68428  39.286  42.465   6.484
 5242POPC   C3A68429  39.210  42.318   6.893
 5242POPC   C4A68430  39.313  42.463   7.289
 5242POPC   C1B68431  39.500  42.101   6.209
 5242POPC   C2B68432  39.639  42.099   6.582
 5242POPC   C3B68433  39.460  41.873   6.860
 5242POPC   C4B68434  39.452  41.979   7.245
 5243POPC   NC368435  18.861  39.775   5.440
 5243POPC   PO468436  19.456  40.091   5.331
 5243POPC   GL168437  19.340  40.045   5.779
 5243POPC   GL268438  18.993  40.054   5.854
 5243POPC   C1A68439  19.327  40.172   6.236
 5243POPC   D2A68440  19.319  40.241   6.681
 5243POPC   C3A68441  18.975  40.349   6.893
 5243POPC   C4A68442  18.921  40.097   7.225
 5243POPC   C1B68443  18.940  39.865   6.305
 5243POPC   C2B68444  18.968  39.850   6.759
 5243POPC   C3B68445  18.805  39.617   7.116
 5243POPC   C4B68446  18.639  39.609   7.564
 5244POPC   NC368447  30.893   6.094   5.515
 5244POPC   PO468448  30.347   5.894   5.315
 5244POPC   GL168449  30.511   5.822   5.728
 5244POPC   GL268450  30.439   6.169   5.828
 5244POPC   C1A68451  30.517   5.655   6.189
 5244POPC   D2A68452  30.293   5.627   6.597
 5244POPC   C3A68453  30.623   5.636   6.933
 5244POPC   C4A68454  30.634   5.670   7.370
 5244POPC   C1B68455  30.402   6.147   6.284
 5244POPC   C2B68456  30.525   6.088   6.709
 5244POPC   C3B68457  30.455   6.086   7.141
 5244POPC   C4B68458  30.596   6.134   7.593
 5245POPC   NC368459   5.443  37.698   5.228
 5245POPC   PO468460   4.840  37.612   5.470
 5245POPC   GL168461   5.158  37.758   5.732
 5245POPC   GL268462   5.419  37.506   5.712
 5245POPC   C1A68463   5.042  37.927   6.133
 5245POPC   D2A68464   4.775  37.760   6.449
 5245POPC   C3A68465   4.956  37.909   6.843
 5245POPC   C4A68466   4.996  37.761   7.253
 5245POPC   C1B68467   5.375  37.552   6.173
 5245POPC   C2B68468   5.190  37.504   6.609
 5245POPC   C3B68469   5.399  37.587   7.014
 5245POPC   C4B68470   5.455  37.472   7.446
 5246POPC   NC368471  23.152  33.985   5.613
 5246POPC   PO468472  22.454  33.909   5.494
 5246POPC   GL168473  22.777  33.670   5.797
 5246POPC   GL268474  23.071  33.481   5.660
 5246POPC   C1A68475  23.078  33.788   6.205
 5246POPC   D2A68476  23.167  33.759   6.638
 5246POPC   C3A68477  22.759  33.844   6.860
 5246POPC   C4A68478  22.550  33.966   7.253
 5246POPC   C1B68479  23.060  33.311   6.083
 5246POPC   C2B68480  22.946  33.254   6.529
 5246POPC   C3B68481  23.017  33.397   6.962
 5246POPC   C4B68482  22.716  33.478   7.234
 5247POPC   NC368483   9.036  29.150   5.417
 5247POPC   PO468484   8.541  28.770   5.340
 5247POPC   GL168485   8.779  29.016   5.823
 5247POPC   GL268486   9.108  29.202   5.915
 5247POPC   C1A68487   8.840  29.041   6.311
 5247POPC   D2A68488   8.973  29.309   6.669
 5247POPC   C3A68489   8.749  29.316   7.073
 5247POPC   C4A68490   8.807  29.250   7.525
 5247POPC   C1B68491   9.255  29.467   6.252
 5247POPC   C2B68492   9.494  29.399   6.641
 5247POPC   C3B68493   9.326  29.258   7.049
 5247POPC   C4B68494   9.284  29.353   7.471
 5248POPC   NC368495  35.703  30.136   5.338
 5248POPC   PO468496  36.250  29.593   5.322
 5248POPC   GL168497  35.959  29.774   5.634
 5248POPC   GL268498  36.124  30.054   5.672
 5248POPC   C1A68499  35.796  29.717   6.078
 5248POPC   D2A68500  36.017  29.740   6.494
 5248POPC   C3A68501  35.818  29.716   6.899
 5248POPC   C4A68502  35.992  29.774   7.298
 5248POPC   C1B68503  36.202  30.038   6.092
 5248POPC   C2B68504  36.156  30.245   6.482
 5248POPC   C3B68505  36.223  30.069   6.889
 5248POPC   C4B68506  36.112  30.272   7.264
 5249POPC   NC368507   6.760  25.309   5.175
 5249POPC   PO468508   6.989  24.838   5.704
 5249POPC   GL168509   6.814  25.185   5.840
 5249POPC   GL268510   6.546  25.341   5.648
 5249POPC   C1A68511   6.915  25.312   6.265
 5249POPC   D2A68512   6.940  25.081   6.667
 5249POPC   C3A68513   7.016  25.355   6.997
 5249POPC   C4A68514   6.886  25.511   7.391
 5249POPC   C1B68515   6.418  25.334   6.088
 5249POPC   C2B68516   6.483  25.386   6.547
 5249POPC   C3B68517   6.279  25.367   6.942
 5249POPC   C4B68518   6.111  25.669   7.193
 5250POPC   NC368519  28.460  40.306   5.433
 5250POPC   PO468520  28.541  39.630   5.375
 5250POPC   GL168521  28.360  39.886   5.793
 5250POPC   GL268522  28.262  40.268   5.899
 5250POPC   C1A68523  28.179  39.921   6.254
 5250POPC   D2A68524  28.066  39.908   6.709
 5250POPC   C3A68525  28.401  40.105   6.976
 5250POPC   C4A68526  28.582  39.956   7.393
 5250POPC   C1B68527  28.181  40.464   6.341
 5250POPC   C2B68528  28.040  40.447   6.794
 5250POPC   C3B68529  28.074  40.483   7.241
 5250POPC   C4B68530  28.198  40.231   7.604
 5251POPC   NC368531  16.610  38.332   5.465
 5251POPC   PO468532  17.076  38.905   5.453
 5251POPC   GL168533  16.878  38.690   5.810
 5251POPC   GL268534  16.536  38.707   5.904
 5251POPC   C1A68535  16.866  38.561   6.267
 5251POPC   D2A68536  16.879  38.322   6.650
 5251POPC   C3A68537  16.868  38.518   7.064
 5251POPC   C4A68538  16.787  38.477   7.536
 5251POPC   C1B68539  16.401  38.339   6.185
 5251POPC   C2B68540  16.190  38.237   6.574
 5251POPC   C3B68541  16.417  38.340   6.938
 5251POPC   C4B68542  16.409  38.662   7.253
 5252POPC   NC368543  42.527  42.708   5.381
 5252POPC   PO468544  42.409  42.056   5.249
 5252POPC   GL168545  42.594  42.245   5.642
 5252POPC   GL268546  42.290  42.394   5.721
 5252POPC   C1A68547  42.541  42.163   6.112
 5252POPC   D2A68548  42.290  42.020   6.480
 5252POPC   C3A68549  42.323  42.248   6.862
 5252POPC   C4A68550  42.429  42.113   7.283
 5252POPC   C1B68551  42.240  42.580   6.118
 5252POPC   C2B68552  42.381  42.635   6.521
 5252POPC   C3B68553  42.145  42.785   6.866
 5252POPC   C4B68554  42.363  42.810   7.245
 5253POPC   NC368555   3.994  41.062   5.699
 5253POPC   PO468556   4.455  40.822   5.237
 5253POPC   GL168557   4.432  40.722   5.669
 5253POPC   GL268558   4.418  40.374   5.643
 5253POPC   C1A68559   4.431  40.811   6.135
 5253POPC   D2A68560   4.232  40.956   6.501
 5253POPC   C3A68561   4.419  40.885   6.885
 5253POPC   C4A68562   4.071  40.935   7.120
 5253POPC   C1B68563   4.373  40.304   6.109
 5253POPC   C2B68564   4.331  40.447   6.543
 5253POPC   C3B68565   4.176  40.441   6.958
 5253POPC   C4B68566   4.347  40.585   7.351
 5254POPC   NC368567  18.366   5.669   5.439
 5254POPC   PO468568  18.175   6.343   5.237
 5254POPC   GL168569  18.042   6.055   5.597
 5254POPC   GL268570  18.170   6.269   5.848
 5254POPC   C1A68571  18.037   5.779   5.997
 5254POPC   D2A68572  18.253   5.650   6.392
 5254POPC   C3A68573  18.109   5.543   6.833
 5254POPC   C4A68574  18.163   5.817   7.212
 5254POPC   C1B68575  18.369   6.141   6.245
 5254POPC   C2B68576  18.633   6.100   6.611
 5254POPC   C3B68577  18.641   5.921   6.992
 5254POPC   C4B68578  18.605   6.100   7.377
 5255POPC   NC368579  38.107  33.111   5.307
 5255POPC   PO468580  37.463  33.267   5.365
 5255POPC   GL168581  37.675  32.988   5.645
 5255POPC   GL268582  37.506  32.667   5.684
 5255POPC   C1A68583  37.659  32.995   6.101
 5255POPC   D2A68584  37.790  33.248   6.466
 5255POPC   C3A68585  37.986  33.090   6.830
 5255POPC   C4A68586  37.833  33.226   7.227
 5255POPC   C1B68587  37.229  32.731   6.099
 5255POPC   C2B68588  37.298  32.934   6.490
 5255POPC   C3B68589  37.473  33.016   6.899
 5255POPC   C4B68590  37.553  32.779   7.285
 5256POPC   NC368591  11.366  42.573   5.386
 5256POPC   PO468592  11.073  41.978   5.380
 5256POPC   GL168593  11.261  42.226   5.785
 5256POPC   GL268594  11.558  42.487   5.830
 5256POPC   C1A68595  11.378  42.264   6.247
 5256POPC   D2A68596  11.143  42.180   6.588
 5256POPC   C3A68597  11.251  42.366   6.963
 5256POPC   C4A68598  11.071  42.292   7.336
 5256POPC   C1B68599  11.548  42.739   6.198
 5256POPC   C2B68600  11.428  42.734   6.626
 5256POPC   C3B68601  11.571  42.755   7.047
 5256POPC   C4B68602  11.367  42.726   7.450
 5257POPC   NC368603  10.749  39.224   5.414
 5257POPC   PO468604  10.074  39.225   5.305
 5257POPC   GL168605  10.341  39.315   5.722
 5257POPC   GL268606  10.647  39.511   5.820
 5257POPC   C1A68607  10.295  39.423   6.185
 5257POPC   D2A68608  10.484  39.294   6.583
 5257POPC   C3A68609  10.510  39.485   6.995
 5257POPC   C4A68610  10.476  39.152   7.338
 5257POPC   C1B68611  10.792  39.261   6.163
 5257POPC   C2B68612  11.009  39.231   6.564
 5257POPC   C3B68613  10.929  39.157   7.008
 5257POPC   C4B68614  10.881  39.474   7.351
 5258POPC   NC368615  20.856  24.285   5.287
 5258POPC   PO468616  20.625  24.866   5.188
 5258POPC   GL168617  20.643  24.624   5.635
 5258POPC   GL268618  20.584  24.273   5.732
 5258POPC   C1A68619  20.637  24.659   6.127
 5258POPC   D2A68620  20.802  24.726   6.580
 5258POPC   C3A68621  20.592  24.795   7.014
 5258POPC   C4A68622  20.816  24.604   7.366
 5258POPC   C1B68623  20.442  24.186   6.147
 5258POPC   C2B68624  20.415  24.385   6.545
 5258POPC   C3B68625  20.548  24.285   6.950
 5258POPC   C4B68626  20.358  24.374   7.324
 5259POPC   NC368627   9.338  44.782   5.574
 5259POPC   PO468628  10.034  44.903   5.428
 5259POPC   GL168629   9.884  44.678   5.807
 5259POPC   GL268630   9.570  44.735   6.027
 5259POPC   C1A68631  10.043  44.628   6.229
 5259POPC   D2A68632  10.247  44.758   6.589
 5259POPC   C3A68633   9.948  44.535   6.801
 5259POPC   C4A68634   9.829  44.417   7.172
 5259POPC   C1B68635   9.415  44.386   6.297
 5259POPC   C2B68636   9.386  44.310   6.750
 5259POPC   C3B68637   9.317  44.490   7.161
 5259POPC   C4B68638   9.527  44.604   7.540
 5260POPC   NC368639  31.940   0.517   5.498
 5260POPC   PO468640  31.247   0.351   5.426
 5260POPC   GL168641  31.517   0.399   5.790
 5260POPC   GL268642  31.795   0.177   5.835
 5260POPC   C1A68643  31.553   0.737   6.099
 5260POPC   D2A68644  31.317   0.857   6.488
 5260POPC   C3A68645  31.149   0.582   6.824
 5260POPC   C4A68646  31.256   0.552   7.261
 5260POPC   C1B68647  31.810   0.299   6.230
 5260POPC   C2B68648  31.543   0.388   6.543
 5260POPC   C3B68649  31.652   0.493   6.946
 5260POPC   C4B68650  31.737   0.148   7.173
 5261POPC   NC368651  14.415  23.122   5.376
 5261POPC   PO468652  14.701  23.744   5.430
 5261POPC   GL168653  14.393  23.688   5.765
 5261POPC   GL268654  14.472  23.359   5.820
 5261POPC   C1A68655  14.366  23.745   6.228
 5261POPC   D2A68656  14.667  23.769   6.583
 5261POPC   C3A68657  14.441  23.839   6.956
 5261POPC   C4A68658  14.064  23.914   7.191
 5261POPC   C1B68659  14.315  23.226   6.183
 5261POPC   C2B68660  14.434  23.310   6.567
 5261POPC   C3B68661  14.608  23.328   6.959
 5261POPC   C4B68662  14.601  23.534   7.325
 5262POPC   NC368663   2.516  31.843   5.482
 5262POPC   PO468664   2.869  32.404   5.285
 5262POPC   GL168665   2.816  32.369   5.732
 5262POPC   GL268666   2.903  32.047   5.754
 5262POPC   C1A68667   2.765  32.251   6.189
 5262POPC   D2A68668   2.621  32.107   6.585
 5262POPC   C3A68669   2.713  32.258   6.986
 5262POPC   C4A68670   2.437  32.544   7.231
 5262POPC   C1B68671   3.163  31.945   6.127
 5262POPC   C2B68672   3.122  32.137   6.539
 5262POPC   C3B68673   3.119  31.946   6.936
 5262POPC   C4B68674   3.152  32.033   7.367
 5263POPC   NC368675  13.533  23.585   5.284
 5263POPC   PO468676  13.893  24.121   5.495
 5263POPC   GL168677  13.526  23.949   5.762
 5263POPC   GL268678  13.460  23.583   5.788
 5263POPC   C1A68679  13.530  23.847   6.223
 5263POPC   D2A68680  13.798  23.979   6.563
 5263POPC   C3A68681  13.626  23.799   6.921
 5263POPC   C4A68682  13.573  23.867   7.342
 5263POPC   C1B68683  13.907  23.597   5.989
 5263POPC   C2B68684  13.943  23.468   6.434
 5263POPC   C3B68685  14.055  23.493   6.872
 5263POPC   C4B68686  13.850  23.454   7.274
 5264POPC   NC368687  22.162  23.291   5.323
 5264POPC   PO468688  22.302  23.955   5.403
 5264POPC   GL168689  22.200  23.713   5.773
 5264POPC   GL268690  21.847  23.685   5.802
 5264POPC   C1A68691  22.210  23.518   6.206
 5264POPC   D2A68692  22.369  23.461   6.644
 5264POPC   C3A68693  22.078  23.404   6.997
 5264POPC   C4A68694  21.904  23.684   7.279
 5264POPC   C1B68695  21.827  23.858   6.207
 5264POPC   C2B68696  22.094  23.913   6.573
 5264POPC   C3B68697  22.112  24.055   6.974
 5264POPC   C4B68698  21.951  24.182   7.331
 5265POPC   NC368699   6.864   5.247   5.514
 5265POPC   PO468700   6.654   4.632   5.359
 5265POPC   GL168701   6.578   4.767   5.777
 5265POPC   GL268702   6.224   4.749   5.785
 5265POPC   C1A68703   6.810   4.883   6.198
 5265POPC   D2A68704   7.023   5.100   6.577
 5265POPC   C3A68705   6.733   5.282   6.891
 5265POPC   C4A68706   6.617   4.968   7.212
 5265POPC   C1B68707   6.309   5.045   6.137
 5265POPC   C2B68708   6.349   5.303   6.535
 5265POPC   C3B68709   6.200   5.165   6.955
 5265POPC   C4B68710   6.159   4.747   7.167
 5266POPC   NC368711  25.241  12.587   5.501
 5266POPC   PO468712  25.751  12.999   5.344
 5266POPC   GL168713  25.562  12.922   5.759
 5266POPC   GL268714  25.230  13.009   5.859
 5266POPC   C1A68715  25.592  12.892   6.228
 5266POPC   D2A68716  25.714  12.750   6.671
 5266POPC   C3A68717  25.350  12.597   6.880
 5266POPC   C4A68718  25.191  13.014   6.959
 5266POPC   C1B68719  25.144  12.619   6.130
 5266POPC   C2B68720  24.941  12.599   6.507
 5266POPC   C3B68721  24.737  12.739   6.851
 5266POPC   C4B68722  24.930  12.658   7.208
 5267POPC   NC368723  39.934  39.684   5.170
 5267POPC   PO468724  39.821  40.242   5.448
 5267POPC   GL168725  40.082  40.130   5.769
 5267POPC   GL268726  40.010  39.790   5.727
 5267POPC   C1A68727  40.273  40.281   6.159
 5267POPC   D2A68728  40.179  40.507   6.546
 5267POPC   C3A68729  40.005  40.214   6.839
 5267POPC   C4A68730  40.099  40.192   7.265
 5267POPC   C1B68731  39.888  39.898   6.178
 5267POPC   C2B68732  40.012  39.727   6.586
 5267POPC   C3B68733  39.844  39.707   6.985
 5267POPC   C4B68734  39.845  39.765   7.388
 5268POPC   NC368735   8.299  29.068   5.079
 5268POPC   PO468736   7.883  29.158   5.572
 5268POPC   GL168737   8.061  29.330   5.914
 5268POPC   GL268738   8.358  29.245   5.731
 5268POPC   C1A68739   8.040  29.353   6.396
 5268POPC   D2A68740   8.016  29.626   6.762
 5268POPC   C3A68741   7.997  29.413   7.181
 5268POPC   C4A68742   7.991  29.172   7.591
 5268POPC   C1B68743   8.349  28.946   6.086
 5268POPC   C2B68744   8.360  28.954   6.504
 5268POPC   C3B68745   8.265  29.081   6.907
 5268POPC   C4B68746   8.411  29.005   7.326
 5269POPC   NC368747   3.090   6.852   5.445
 5269POPC   PO468748   2.657   6.546   5.002
 5269POPC   GL168749   2.854   6.438   5.612
 5269POPC   GL268750   2.904   6.860   5.899
 5269POPC   C1A68751   2.777   6.459   6.123
 5269POPC   D2A68752   2.503   6.776   6.382
 5269POPC   C3A68753   2.521   6.757   6.856
 5269POPC   C4A68754   2.755   6.393   7.037
 5269POPC   C1B68755   3.139   6.804   6.264
 5269POPC   C2B68756   2.956   6.645   6.614
 5269POPC   C3B68757   3.011   6.846   6.997
 5269POPC   C4B68758   3.368   6.886   7.221
 5270POPC   NC368759  38.215  18.866   5.688
 5270POPC   PO468760  37.891  19.083   5.117
 5270POPC   GL168761  37.738  19.037   5.666
 5270POPC   GL268762  37.484  18.779   5.772
 5270POPC   C1A68763  37.605  19.184   6.102
 5270POPC   D2A68764  37.408  19.137   6.540
 5270POPC   C3A68765  37.661  19.088   6.941
 5270POPC   C4A68766  37.871  19.110   7.373
 5270POPC   C1B68767  37.755  18.699   6.126
 5270POPC   C2B68768  37.962  18.779   6.535
 5270POPC   C3B68769  37.963  18.618   6.961
 5270POPC   C4B68770  37.674  18.648   7.298
 5271POPC   NC368771  38.670  12.807   5.394
 5271POPC   PO468772  38.018  12.808   5.423
 5271POPC   GL168773  38.179  13.012   5.821
 5271POPC   GL268774  38.569  12.958   5.865
 5271POPC   C1A68775  38.314  13.013   6.285
 5271POPC   D2A68776  38.603  12.922   6.633
 5271POPC   C3A68777  38.423  13.050   7.001
 5271POPC   C4A68778  38.105  12.904   7.262
 5271POPC   C1B68779  38.739  12.672   6.194
 5271POPC   C2B68780  39.020  12.634   6.560
 5271POPC   C3B68781  38.868  12.608   6.990
 5271POPC   C4B68782  38.618  12.748   7.353
 5272POPC   NC368783  26.269  22.503   5.412
 5272POPC   PO468784  26.277  21.834   5.158
 5272POPC   GL168785  25.971  22.122   5.549
 5272POPC   GL268786  25.685  22.150   5.760
 5272POPC   C1A68787  26.075  22.182   6.076
 5272POPC   D2A68788  26.242  22.298   6.506
 5272POPC   C3A68789  26.141  22.015   6.867
 5272POPC   C4A68790  26.307  22.048   7.301
 5272POPC   C1B68791  25.587  22.304   6.138
 5272POPC   C2B68792  25.756  22.066   6.490
 5272POPC   C3B68793  25.627  22.151   6.904
 5272POPC   C4B68794  25.789  22.114   7.297
 5273POPC   NC368795   4.878  29.398   5.301
 5273POPC   PO468796   5.348  29.061   5.350
 5273POPC   GL168797   5.433  29.036   5.793
 5273POPC   GL268798   5.180  29.277   5.815
 5273POPC   C1A68799   5.478  28.916   6.241
 5273POPC   D2A68800   5.551  29.108   6.649
 5273POPC   C3A68801   5.377  28.963   7.030
 5273POPC   C4A68802   5.306  29.306   7.284
 5273POPC   C1B68803   4.999  29.080   6.175
 5273POPC   C2B68804   5.048  28.995   6.621
 5273POPC   C3B68805   4.889  29.133   7.036
 5273POPC   C4B68806   4.824  29.114   7.483
 5274POPC   NC368807  27.806  21.780   5.558
 5274POPC   PO468808  27.265  21.895   5.302
 5274POPC   GL168809  27.375  22.049   5.729
 5274POPC   GL268810  27.371  21.751   5.915
 5274POPC   C1A68811  27.686  22.176   6.106
 5274POPC   D2A68812  27.950  22.240   6.515
 5274POPC   C3A68813  27.771  22.223   6.951
 5274POPC   C4A68814  27.777  21.954   7.317
 5274POPC   C1B68815  27.211  22.063   6.218
 5274POPC   C2B68816  27.406  22.227   6.574
 5274POPC   C3B68817  27.247  22.252   6.987
 5274POPC   C4B68818  27.264  22.026   7.345
 5275POPC   NC368819   7.015   2.599   5.516
 5275POPC   PO468820   6.400   3.013   5.455
 5275POPC   GL168821   6.499   2.894   5.918
 5275POPC   GL268822   6.867   2.799   5.987
 5275POPC   C1A68823   6.335   3.018   6.372
 5275POPC   D2A68824   6.429   3.223   6.806
 5275POPC   C3A68825   6.495   2.943   7.144
 5275POPC   C4A68826   6.434   2.456   7.169
 5275POPC   C1B68827   6.711   2.590   6.337
 5275POPC   C2B68828   6.650   2.673   6.755
 5275POPC   C3B68829   6.932   2.648   7.144
 5275POPC   C4B68830   6.900   2.564   7.581
 5276POPC   NC368831  43.689   0.464   5.497
 5276POPC   PO468832  43.912  44.889   5.523
 5276POPC   GL168833  43.756   0.135   5.906
 5276POPC   GL268834  43.793  44.982   6.261
 5276POPC   C1A68835  43.662   0.474   6.231
 5276POPC   D2A68836  43.662   0.375   6.683
 5276POPC   C3A68837  43.828   0.454   7.110
 5276POPC   C4A68838  43.872   0.302   7.562
 5276POPC   C1B68839  44.107   0.274   6.372
 5276POPC   C2B68840  44.224   0.441   6.795
 5276POPC   C3B68841  44.287   0.270   7.233
 5276POPC   C4B68842  44.589   0.245   7.558
 5277POPC   NC368843  28.578  20.859   5.055
 5277POPC   PO468844  28.702  20.284   5.384
 5277POPC   GL168845  28.454  20.427   5.782
 5277POPC   GL268846  28.107  20.577   5.748
 5277POPC   C1A68847  28.400  20.755   6.145
 5277POPC   D2A68848  28.313  20.874   6.588
 5277POPC   C3A68849  28.588  20.648   6.877
 5277POPC   C4A68850  28.508  20.446   7.262
 5277POPC   C1B68851  28.071  20.341   6.140
 5277POPC   C2B68852  28.124  20.393   6.595
 5277POPC   C3B68853  28.066  20.606   7.003
 5277POPC   C4B68854  28.062  20.551   7.470
 5278POPC   NC368855  32.451  20.483   5.356
 5278POPC   PO468856  31.800  20.637   5.287
 5278POPC   GL168857  32.041  20.581   5.651
 5278POPC   GL268858  32.155  20.256   5.767
 5278POPC   C1A68859  32.052  20.733   6.082
 5278POPC   D2A68860  32.165  20.956   6.487
 5278POPC   C3A68861  32.429  20.776   6.845
 5278POPC   C4A68862  32.485  20.584   7.255
 5278POPC   C1B68863  31.972  20.230   6.215
 5278POPC   C2B68864  31.830  20.557   6.549
 5278POPC   C3B68865  31.951  20.595   7.011
 5278POPC   C4B68866  31.915  20.219   7.305
 5279POPC   NC368867  33.894  23.345   5.293
 5279POPC   PO468868  33.694  22.725   5.388
 5279POPC   GL168869  33.683  22.962   5.740
 5279POPC   GL268870  33.873  22.670   5.873
 5279POPC   C1A68871  33.815  23.228   6.063
 5279POPC   D2A68872  33.957  23.351   6.459
 5279POPC   C3A68873  34.153  23.151   6.808
 5279POPC   C4A68874  33.940  23.193   7.191
 5279POPC   C1B68875  34.056  22.801   6.256
 5279POPC   C2B68876  34.150  22.644   6.640
 5279POPC   C3B68877  34.104  22.681   7.044
 5279POPC   C4B68878  33.752  22.694   7.229
 5280POPC   NC368879  29.916   2.592   5.632
 5280POPC   PO468880  29.478   3.001   5.456
 5280POPC   GL168881  29.665   2.974   5.878
 5280POPC   GL268882  30.069   3.011   5.890
 5280POPC   C1A68883  29.767   2.886   6.310
 5280POPC   D2A68884  29.753   2.988   6.740
 5280POPC   C3A68885  29.879   2.626   6.965
 5280POPC   C4A68886  29.736   2.343   7.255
 5280POPC   C1B68887  30.278   3.023   6.329
 5280POPC   C2B68888  30.265   2.955   6.799
 5280POPC   C3B68889  30.220   2.901   7.248
 5280POPC   C4B68890  30.146   2.952   7.750
 5281POPC   NC368891  44.214  44.539   5.565
 5281POPC   PO468892  43.620  44.322   5.655
 5281POPC   GL168893  43.666  44.606   5.953
 5281POPC   GL268894  43.360  44.823   5.983
 5281POPC   C1A68895  43.671  44.457   6.357
 5281POPC   D2A68896  43.517  44.417   6.740
 5281POPC   C3A68897  43.851  44.566   6.999
 5281POPC   C4A68898  43.937  44.871   7.311
 5281POPC   C1B68899  43.312   0.082   6.315
 5281POPC   C2B68900  43.417  44.921   6.706
 5281POPC   C3B68901  43.526   0.063   7.101
 5281POPC   C4B68902  43.510  44.946   7.607
 5282POPC   NC368903  24.794  34.348   5.449
 5282POPC   PO468904  25.364  33.962   5.277
 5282POPC   GL168905  25.420  33.867   5.728
 5282POPC   GL268906  25.412  33.551   5.828
 5282POPC   C1A68907  25.464  33.847   6.208
 5282POPC   D2A68908  25.201  33.748   6.537
 5282POPC   C3A68909  25.319  33.912   6.916
 5282POPC   C4A68910  25.469  34.059   7.286
 5282POPC   C1B68911  25.094  33.444   6.129
 5282POPC   C2B68912  24.973  33.270   6.538
 5282POPC   C3B68913  25.005  33.439   6.947
 5282POPC   C4B68914  25.287  33.402   7.285
 5283POPC   NC368915   5.934  42.501   5.534
 5283POPC   PO468916   5.429  42.017   5.481
 5283POPC   GL168917   5.662  42.201   5.860
 5283POPC   GL268918   6.049  42.176   5.940
 5283POPC   C1A68919   5.671  42.319   6.293
 5283POPC   D2A68920   5.851  42.207   6.679
 5283POPC   C3A68921   5.631  42.200   7.091
 5283POPC   C4A68922   5.724  42.407   7.511
 5283POPC   C1B68923   6.271  42.284   6.342
 5283POPC   C2B68924   6.380  42.677   6.587
 5283POPC   C3B68925   6.355  42.835   7.031
 5283POPC   C4B68926   6.169  42.773   7.469
 5284POPC   NC368927   8.122  28.756   5.519
 5284POPC   PO468928   7.834  28.118   5.492
 5284POPC   GL168929   8.105  28.270   5.793
 5284POPC   GL268930   7.885  28.518   5.898
 5284POPC   C1A68931   8.230  28.251   6.236
 5284POPC   D2A68932   8.331  27.973   6.590
 5284POPC   C3A68933   8.385  28.172   6.995
 5284POPC   C4A68934   8.576  28.504   7.229
 5284POPC   C1B68935   7.920  28.721   6.301
 5284POPC   C2B68936   8.080  28.525   6.676
 5284POPC   C3B68937   7.904  28.397   7.044
 5284POPC   C4B68938   7.944  28.803   7.246
 5285POPC   NC368939   4.755  41.155   5.381
 5285POPC   PO468940   4.324  41.359   5.755
 5285POPC   GL168941   4.478  41.676   6.048
 5285POPC   GL268942   4.842  41.714   5.969
 5285POPC   C1A68943   4.410  41.877   6.470
 5285POPC   D2A68944   4.188  41.753   6.832
 5285POPC   C3A68945   4.326  41.385   7.013
 5285POPC   C4A68946   4.748  41.375   7.173
 5285POPC   C1B68947   4.801  42.081   6.223
 5285POPC   C2B68948   4.799  42.207   6.662
 5285POPC   C3B68949   4.556  42.097   7.048
 5285POPC   C4B68950   4.119  42.070   7.218
 5286POPC   NC368951  40.264  21.668   5.548
 5286POPC   PO468952  39.981  21.178   5.315
 5286POPC   GL168953  39.952  21.255   5.786
 5286POPC   GL268954  39.886  21.606   5.903
 5286POPC   C1A68955  39.946  21.250   6.251
 5286POPC   D2A68956  39.876  21.611   6.517
 5286POPC   C3A68957  39.794  21.503   6.937
 5286POPC   C4A68958  40.025  21.204   7.185
 5286POPC   C1B68959  40.280  21.748   6.176
 5286POPC   C2B68960  40.447  21.904   6.543
 5286POPC   C3B68961  40.249  21.749   6.853
 5286POPC   C4B68962  40.225  21.668   7.242
 5287POPC   NC368963  42.876  37.363   5.363
 5287POPC   PO468964  43.283  37.869   5.152
 5287POPC   GL168965  43.113  37.807   5.614
 5287POPC   GL268966  43.121  37.485   5.812
 5287POPC   C1A68967  42.973  37.891   6.077
 5287POPC   D2A68968  43.070  37.622   6.437
 5287POPC   C3A68969  43.060  37.722   6.887
 5287POPC   C4A68970  43.229  37.872   7.300
 5287POPC   C1B68971  43.439  37.397   6.151
 5287POPC   C2B68972  43.486  37.407   6.635
 5287POPC   C3B68973  43.381  37.357   7.081
 5287POPC   C4B68974  43.539  37.498   7.462
 5288POPC   NC368975  10.655  18.936   5.459
 5288POPC   PO468976  10.488  19.513   5.325
 5288POPC   GL168977  10.352  19.290   5.683
 5288POPC   GL268978  10.319  19.561   5.905
 5288POPC   C1A68979  10.346  19.061   6.096
 5288POPC   D2A68980  10.315  19.042   6.570
 5288POPC   C3A68981  10.683  19.021   6.872
 5288POPC   C4A68982  10.508  18.783   7.236
 5288POPC   C1B68983  10.453  19.499   6.351
 5288POPC   C2B68984  10.302  19.505   6.778
 5288POPC   C3B68985  10.329  19.283   7.118
 5288POPC   C4B68986  10.683  19.233   7.411
 5289POPC   NC368987  20.918   7.308   5.303
 5289POPC   PO468988  21.532   7.144   5.339
 5289POPC   GL168989  21.504   7.405   5.734
 5289POPC   GL268990  21.287   7.725   5.824
 5289POPC   C1A68991  21.397   7.310   6.161
 5289POPC   D2A68992  21.534   7.423   6.554
 5289POPC   C3A68993  21.277   7.251   6.872
 5289POPC   C4A68994  21.439   7.030   7.212
 5289POPC   C1B68995  21.262   7.791   6.301
 5289POPC   C2B68996  21.264   7.789   6.791
 5289POPC   C3B68997  21.343   7.612   7.216
 5289POPC   C4B68998  21.166   7.382   7.518
 5290POPC   NC368999   8.442  37.489   5.437
 5290POPC   PO469000   8.101  38.085   5.491
 5290POPC   GL169001   8.156  38.003   5.916
 5290POPC   GL269002   8.293  37.672   5.919
 5290POPC   C1A69003   8.213  38.014   6.362
 5290POPC   D2A69004   7.999  37.881   6.728
 5290POPC   C3A69005   8.130  37.972   7.120
 5290POPC   C4A69006   8.291  37.663   7.354
 5290POPC   C1B69007   8.525  37.369   6.228
 5290POPC   C2B69008   8.568  37.215   6.650
 5290POPC   C3B69009   8.533  37.344   7.057
 5290POPC   C4B69010   8.770  37.426   7.444
 5291POPC   NC369011   7.639   6.573   5.497
 5291POPC   PO469012   7.204   7.057   5.643
 5291POPC   GL169013   7.451   6.838   5.885
 5291POPC   GL269014   7.209   6.541   5.777
 5291POPC   C1A69015   7.576   6.518   6.165
 5291POPC   D2A69016   7.644   6.330   6.559
 5291POPC   C3A69017   7.635   6.656   6.820
 5291POPC   C4A69018   7.518   6.795   7.179
 5291POPC   C1B69019   7.080   6.643   6.166
 5291POPC   C2B69020   7.190   6.567   6.549
 5291POPC   C3B69021   7.197   6.345   6.900
 5291POPC   C4B69022   7.023   6.553   7.213
 5292POPC   NC369023  35.913   3.492   5.259
 5292POPC   PO469024  36.558   3.657   5.137
 5292POPC   GL169025  36.292   3.464   5.596
 5292POPC   GL269026  35.889   3.443   5.745
 5292POPC   C1A69027  36.267   3.528   6.095
 5292POPC   D2A69028  36.108   3.835   6.460
 5292POPC   C3A69029  36.148   3.763   6.914
 5292POPC   C4A69030  36.432   3.420   7.111
 5292POPC   C1B69031  35.780   3.636   6.129
 5292POPC   C2B69032  35.894   3.380   6.504
 5292POPC   C3B69033  35.961   3.288   6.944
 5292POPC   C4B69034  35.884   3.556   7.314
 5293POPC   NC369035  11.396  21.071   5.410
 5293POPC   PO469036  11.505  21.710   5.414
 5293POPC   GL169037  11.341  21.454   5.772
 5293POPC   GL269038  11.012  21.281   5.737
 5293POPC   C1A69039  11.145  21.497   6.189
 5293POPC   D2A69040  10.946  21.454   6.592
 5293POPC   C3A69041  11.274  21.525   6.887
 5293POPC   C4A69042  11.419  21.625   7.286
 5293POPC   C1B69043  11.120  20.998   6.091
 5293POPC   C2B69044  11.280  21.064   6.494
 5293POPC   C3B69045  11.194  21.033   6.918
 5293POPC   C4B69046  11.350  21.121   7.326
 5294POPC   NC369047  28.871  23.873   5.219
 5294POPC   PO469048  28.250  23.747   5.222
 5294POPC   GL169049  28.235  23.660   5.685
 5294POPC   GL269050  28.092  23.369   5.831
 5294POPC   C1A69051  28.362  23.822   6.112
 5294POPC   D2A69052  28.199  23.849   6.540
 5294POPC   C3A69053  28.426  23.876   6.925
 5294POPC   C4A69054  28.518  23.672   7.278
 5294POPC   C1B69055  27.931  23.498   6.231
 5294POPC   C2B69056  27.861  23.512   6.663
 5294POPC   C3B69057  28.091  23.442   7.028
 5294POPC   C4B69058  28.069  23.561   7.446
 5295POPC   NC369059  28.362   1.617   5.224
 5295POPC   PO469060  28.047   2.189   5.500
 5295POPC   GL169061  28.380   2.044   5.781
 5295POPC   GL269062  28.535   1.693   5.731
 5295POPC   C1A69063  28.399   2.212   6.196
 5295POPC   D2A69064  28.163   2.255   6.573
 5295POPC   C3A69065  28.447   2.339   6.876
 5295POPC   C4A69066  28.374   2.267   7.299
 5295POPC   C1B69067  28.510   1.698   6.183
 5295POPC   C2B69068  28.508   1.875   6.593
 5295POPC   C3B69069  28.350   1.840   7.007
 5295POPC   C4B69070  27.967   1.806   7.272
 5296POPC   NC369071   3.729   5.620   5.440
 5296POPC   PO469072   3.422   6.253   5.514
 5296POPC   GL169073   3.482   5.885   5.802
 5296POPC   GL269074   3.817   5.722   5.918
 5296POPC   C1A69075   3.295   5.656   6.145
 5296POPC   D2A69076   3.280   5.486   6.568
 5296POPC   C3A69077   3.551   5.672   6.899
 5296POPC   C4A69078   3.486   6.001   7.228
 5296POPC   C1B69079   3.697   5.992   6.267
 5296POPC   C2B69080   3.671   6.121   6.687
 5296POPC   C3B69081   3.932   6.110   7.027
 5296POPC   C4B69082   4.008   5.919   7.395
 5297POPC   NC369083  40.988  13.108   5.470
 5297POPC   PO469084  40.724  12.533   5.319
 5297POPC   GL169085  40.678  12.560   5.766
 5297POPC   GL269086  40.814  12.870   5.890
 5297POPC   C1A69087  40.512  12.615   6.188
 5297POPC   D2A69088  40.361  12.895   6.466
 5297POPC   C3A69089  40.468  12.733   6.817
 5297POPC   C4A69090  40.442  12.721   7.237
 5297POPC   C1B69091  40.841  13.036   6.263
 5297POPC   C2B69092  40.932  12.905   6.634
 5297POPC   C3B69093  40.857  13.001   7.015
 5297POPC   C4B69094  41.125  13.103   7.325
 5298POPC   NC369095  35.211  32.501   5.077
 5298POPC   PO469096  35.672  32.102   5.432
 5298POPC   GL169097  35.567  32.355   5.762
 5298POPC   GL269098  35.244  32.201   5.774
 5298POPC   C1A69099  35.479  32.386   6.205
 5298POPC   D2A69100  35.579  32.107   6.531
 5298POPC   C3A69101  35.512  32.323   6.887
 5298POPC   C4A69102  35.574  32.175   7.278
 5298POPC   C1B69103  35.217  31.943   6.174
 5298POPC   C2B69104  35.185  31.761   6.591
 5298POPC   C3B69105  35.210  31.923   7.023
 5298POPC   C4B69106  35.078  32.369   7.156
 5299POPC   NC369107  41.269  29.578   5.416
 5299POPC   PO469108  41.562  30.225   5.348
 5299POPC   GL169109  41.469  29.955   5.717
 5299POPC   GL269110  41.733  30.001   5.928
 5299POPC   C1A69111  41.322  29.806   6.144
 5299POPC   D2A69112  41.059  29.906   6.500
 5299POPC   C3A69113  41.177  29.661   6.827
 5299POPC   C4A69114  41.560  29.697   7.097
 5299POPC   C1B69115  41.801  30.173   6.328
 5299POPC   C2B69116  41.546  29.995   6.645
 5299POPC   C3B69117  41.301  30.127   6.961
 5299POPC   C4B69118  41.536  30.209   7.264
 5300POPC   NC369119  36.992  16.577   5.454
 5300POPC   PO469120  36.540  17.056   5.377
 5300POPC   GL169121  36.814  16.916   5.774
 5300POPC   GL269122  36.579  16.867   5.965
 5300POPC   C1A69123  37.051  16.766   6.168
 5300POPC   D2A69124  37.056  16.480   6.525
 5300POPC   C3A69125  37.115  16.629   6.930
 5300POPC   C4A69126  37.158  16.669   7.345
 5300POPC   C1B69127  36.645  16.978   6.387
 5300POPC   C2B69128  36.984  17.037   6.657
 5300POPC   C3B69129  36.936  17.074   7.099
 5300POPC   C4B69130  36.515  16.993   7.120
 5301POPC   NC369131  35.103   9.305   5.585
 5301POPC   PO469132  35.748   9.122   5.392
 5301POPC   GL169133  35.417   8.936   5.770
 5301POPC   GL269134  35.442   9.153   6.005
 5301POPC   C1A69135  35.107   8.827   6.165
 5301POPC   D2A69136  35.143   8.690   6.613
 5301POPC   C3A69137  35.149   8.951   7.027
 5301POPC   C4A69138  35.174   9.370   7.271
 5301POPC   C1B69139  35.564   8.955   6.378
 5301POPC   C2B69140  35.603   8.880   6.807
 5301POPC   C3B69141  35.793   9.124   7.105
 5301POPC   C4B69142  35.620   9.186   7.476
 5302POPC   NC369143  38.278  14.651   5.514
 5302POPC   PO469144  38.634  14.123   5.287
 5302POPC   GL169145  38.594  14.296   5.727
 5302POPC   GL269146  38.774  14.583   5.870
 5302POPC   C1A69147  38.328  14.445   6.119
 5302POPC   D2A69148  38.301  14.264   6.542
 5302POPC   C3A69149  38.280  14.463   6.948
 5302POPC   C4A69150  38.106  14.638   7.358
 5302POPC   C1B69151  38.785  14.454   6.310
 5302POPC   C2B69152  38.772  14.339   6.735
 5302POPC   C3B69153  38.811  14.404   7.169
 5302POPC   C4B69154  38.831  14.296   7.596
 5303POPC   NC369155  24.015  10.398   5.278
 5303POPC   PO469156  24.591  10.634   4.894
 5303POPC   GL169157  24.574  10.438   5.401
 5303POPC   GL269158  24.308  10.575   5.669
 5303POPC   C1A69159  24.687  10.273   5.871
 5303POPC   D2A69160  24.518  10.195   6.331
 5303POPC   C3A69161  24.485  10.489   6.728
 5303POPC   C4A69162  24.550  10.884   7.021
 5303POPC   C1B69163  24.161  10.568   6.137
 5303POPC   C2B69164  23.954  10.381   6.516
 5303POPC   C3B69165  24.010  10.554   6.940
 5303POPC   C4B69166  24.213  10.296   7.215
 5304POPC   NC369167  14.568   5.105   5.406
 5304POPC   PO469168  13.901   4.984   5.359
 5304POPC   GL169169  14.158   4.901   5.764
 5304POPC   GL269170  14.494   4.749   5.776
 5304POPC   C1A69171  14.256   5.083   6.195
 5304POPC   D2A69172  14.212   4.980   6.655
 5304POPC   C3A69173  14.329   5.250   7.028
 5304POPC   C4A69174  14.150   5.086   7.431
 5304POPC   C1B69175  14.576   4.670   6.214
 5304POPC   C2B69176  14.713   4.898   6.594
 5304POPC   C3B69177  14.632   4.818   7.023
 5304POPC   C4B69178  14.659   5.061   7.384
 5305POPC   NC369179  10.696  15.092   5.236
 5305POPC   PO469180  10.180  15.010   5.395
 5305POPC   GL169181  10.529  15.046   5.752
 5305POPC   GL269182  10.846  15.265   5.717
 5305POPC   C1A69183  10.483  15.056   6.249
 5305POPC   D2A69184  10.399  14.886   6.707
 5305POPC   C3A69185  10.288  15.086   7.118
 5305POPC   C4A69186  10.279  14.875   7.531
 5305POPC   C1B69187  10.967  15.198   6.163
 5305POPC   C2B69188  10.869  15.071   6.615
 5305POPC   C3B69189  10.802  15.090   7.088
 5305POPC   C4B69190  10.799  14.834   7.496
 5306POPC   NC369191  34.036   4.391   5.389
 5306POPC   PO469192  33.457   4.107   5.630
 5306POPC   GL169193  33.724   4.397   5.848
 5306POPC   GL269194  33.948   4.123   5.838
 5306POPC   C1A69195  33.651   4.403   6.312
 5306POPC   D2A69196  33.707   4.128   6.676
 5306POPC   C3A69197  33.665   4.288   7.087
 5306POPC   C4A69198  33.697   4.080   7.455
 5306POPC   C1B69199  34.147   4.345   6.178
 5306POPC   C2B69200  34.084   4.524   6.580
 5306POPC   C3B69201  34.159   4.250   6.922
 5306POPC   C4B69202  34.135   4.364   7.343
 5307POPC   NC369203  36.873   9.619   5.419
 5307POPC   PO469204  36.274  10.059   5.382
 5307POPC   GL169205  36.706  10.053   5.682
 5307POPC   GL269206  36.770   9.723   5.898
 5307POPC   C1A69207  36.885  10.132   6.140
 5307POPC   D2A69208  36.724   9.810   6.453
 5307POPC   C3A69209  36.853   9.775   6.906
 5307POPC   C4A69210  36.917   9.836   7.358
 5307POPC   C1B69211  37.136   9.666   6.181
 5307POPC   C2B69212  37.241   9.546   6.616
 5307POPC   C3B69213  37.366   9.387   7.021
 5307POPC   C4B69214  37.407   9.151   7.413
 5308POPC   NC369215   1.136   2.807   5.179
 5308POPC   PO469216   1.334   2.223   5.441
 5308POPC   GL169217   1.100   2.529   5.751
 5308POPC   GL269218   1.092   2.905   5.797
 5308POPC   C1A69219   0.966   2.537   6.216
 5308POPC   D2A69220   1.007   2.719   6.683
 5308POPC   C3A69221   1.201   2.622   7.130
 5308POPC   C4A69222   1.054   2.579   7.575
 5308POPC   C1B69223   1.209   2.976   6.265
 5308POPC   C2B69224   1.243   3.180   6.678
 5308POPC   C3B69225   1.411   3.250   7.097
 5308POPC   C4B69226   1.746   3.190   7.392
 5309POPC   NC369227  42.615  34.554   5.334
 5309POPC   PO469228  41.986  34.400   5.119
 5309POPC   GL169229  42.139  34.597   5.537
 5309POPC   GL269230  41.884  34.644   5.756
 5309POPC   C1A69231  42.374  34.591   6.016
 5309POPC   D2A69232  42.341  34.337   6.462
 5309POPC   C3A69233  42.509  34.401   6.919
 5309POPC   C4A69234  42.539  34.237   7.386
 5309POPC   C1B69235  41.908  34.414   6.149
 5309POPC   C2B69236  41.913  34.645   6.537
 5309POPC   C3B69237  42.081  34.673   6.922
 5309POPC   C4B69238  42.058  34.400   7.280
 5310POPC   NC369239  44.215  13.371   5.024
 5310POPC   PO469240  43.709  13.664   5.349
 5310POPC   GL169241  43.843  13.590   5.748
 5310POPC   GL269242  43.736  13.227   5.736
 5310POPC   C1A69243  44.100  13.544   6.140
 5310POPC   D2A69244  43.995  13.706   6.526
 5310POPC   C3A69245  44.230  13.648   6.891
 5310POPC   C4A69246  44.025  13.674   7.262
 5310POPC   C1B69247  43.563  13.405   6.121
 5310POPC   C2B69248  43.598  13.256   6.528
 5310POPC   C3B69249  43.703  13.453   6.914
 5310POPC   C4B69250  43.692  13.313   7.346
 5311POPC   NC369251  21.541   8.579   5.290
 5311POPC   PO469252  21.151   9.092   5.442
 5311POPC   GL169253  21.165   9.114   5.848
 5311POPC   GL269254  21.518   9.111   5.834
 5311POPC   C1A69255  21.251   9.151   6.280
 5311POPC   D2A69256  21.519   9.049   6.601
 5311POPC   C3A69257  21.330   8.981   6.977
 5311POPC   C4A69258  21.056   8.980   7.320
 5311POPC   C1B69259  21.734   9.327   6.182
 5311POPC   C2B69260  21.604   9.569   6.575
 5311POPC   C3B69261  21.631   9.416   7.010
 5311POPC   C4B69262  21.427   9.351   7.416
 5312POPC   NC369263   5.512  23.032   5.672
 5312POPC   PO469264   4.920  23.035   5.368
 5312POPC   GL169265   4.907  22.953   5.804
 5312POPC   GL269266   5.095  22.659   5.801
 5312POPC   C1A69267   5.009  22.970   6.263
 5312POPC   D2A69268   5.173  23.173   6.643
 5312POPC   C3A69269   5.122  22.992   7.075
 5312POPC   C4A69270   5.348  22.864   7.483
 5312POPC   C1B69271   5.272  22.552   6.197
 5312POPC   C2B69272   5.268  22.654   6.637
 5312POPC   C3B69273   5.373  22.539   7.057
 5312POPC   C4B69274   5.042  22.404   7.232
 5313POPC   NC369275  39.475  21.348   5.624
 5313POPC   PO469276  38.988  21.558   5.238
 5313POPC   GL169277  38.971  21.411   5.769
 5313POPC   GL269278  39.067  21.082   5.934
 5313POPC   C1A69279  39.008  21.467   6.273
 5313POPC   D2A69280  39.344  21.484   6.633
 5313POPC   C3A69281  39.302  21.440   7.106
 5313POPC   C4A69282  39.248  21.502   7.573
 5313POPC   C1B69283  39.438  21.093   6.251
 5313POPC   C2B69284  39.683  20.874   6.588
 5313POPC   C3B69285  39.559  20.985   7.022
 5313POPC   C4B69286  39.604  21.149   7.455
 5314POPC   NC369287  11.269  26.070   5.332
 5314POPC   PO469288  10.660  25.666   5.362
 5314POPC   GL169289  10.982  25.811   5.685
 5314POPC   GL269290  11.366  25.751   5.747
 5314POPC   C1A69291  11.072  26.069   6.044
 5314POPC   D2A69292  11.078  25.999   6.490
 5314POPC   C3A69293  11.284  26.217   6.846
 5314POPC   C4A69294  11.158  26.192   7.285
 5314POPC   C1B69295  11.397  25.670   6.201
 5314POPC   C2B69296  11.395  25.623   6.663
 5314POPC   C3B69297  11.272  25.727   7.075
 5314POPC   C4B69298  11.224  25.725   7.545
 5315POPC   NC369299  36.022  39.643   5.247
 5315POPC   PO469300  36.585  39.446   5.434
 5315POPC   GL169301  36.424  39.395   5.826
 5315POPC   GL269302  36.102  39.266   5.791
 5315POPC   C1A69303  36.273  39.317   6.257
 5315POPC   D2A69304  35.911  39.364   6.485
 5315POPC   C3A69305  36.044  39.501   6.872
 5315POPC   C4A69306  36.383  39.320   7.095
 5315POPC   C1B69307  35.900  38.978   6.131
 5315POPC   C2B69308  36.017  38.871   6.572
 5315POPC   C3B69309  35.991  38.999   7.007
 5315POPC   C4B69310  35.867  39.318   7.319
 5316POPC   NC369311  28.205  11.164   5.016
 5316POPC   PO469312  28.240  10.579   5.326
 5316POPC   GL169313  28.201  10.456   5.754
 5316POPC   GL269314  28.472  10.204   5.833
 5316POPC   C1A69315  28.029  10.640   6.161
 5316POPC   D2A69316  28.029  10.392   6.553
 5316POPC   C3A69317  28.126  10.514   6.955
 5316POPC   C4A69318  28.076  10.179   7.249
 5316POPC   C1B69319  28.504  10.494   6.178
 5316POPC   C2B69320  28.512  10.611   6.626
 5316POPC   C3B69321  28.603  10.555   7.095
 5316POPC   C4B69322  28.912  10.314   7.302
 5317POPC   NC369323   2.227  24.993   5.411
 5317POPC   PO469324   1.791  25.328   5.368
 5317POPC   GL169325   2.012  25.386   5.801
 5317POPC   GL269326   2.267  25.155   5.921
 5317POPC   C1A69327   1.979  25.381   6.293
 5317POPC   D2A69328   1.908  25.114   6.707
 5317POPC   C3A69329   1.859  25.315   7.138
 5317POPC   C4A69330   1.737  25.707   7.399
 5317POPC   C1B69331   2.229  24.915   6.327
 5317POPC   C2B69332   2.172  24.660   6.732
 5317POPC   C3B69333   2.086  24.787   7.173
 5317POPC   C4B69334   1.749  24.903   7.460
 5318POPC   NC369335   3.888  20.476   5.440
 5318POPC   PO469336   3.188  20.479   5.525
 5318POPC   GL169337   3.544  20.706   5.765
 5318POPC   GL269338   3.447  20.975   5.999
 5318POPC   C1A69339   3.859  20.581   6.099
 5318POPC   D2A69340   3.995  20.473   6.524
 5318POPC   C3A69341   3.799  20.719   6.841
 5318POPC   C4A69342   3.766  20.644   7.245
 5318POPC   C1B69343   3.498  20.896   6.460
 5318POPC   C2B69344   3.296  20.776   6.883
 5318POPC   C3B69345   3.264  20.612   7.359
 5318POPC   C4B69346   3.204  20.257   7.674
 5319POPC   NC369347  12.274   5.823   5.325
 5319POPC   PO469348  11.675   5.542   5.210
 5319POPC   GL169349  11.935   5.534   5.622
 5319POPC   GL269350  12.020   5.879   5.798
 5319POPC   C1A69351  12.093   5.449   6.063
 5319POPC   D2A69352  12.057   5.426   6.510
 5319POPC   C3A69353  12.191   5.814   6.739
 5319POPC   C4A69354  12.049   6.094   7.091
 5319POPC   C1B69355  12.237   6.021   6.222
 5319POPC   C2B69356  12.253   6.333   6.609
 5319POPC   C3B69357  12.446   6.466   7.017
 5319POPC   C4B69358  12.495   6.233   7.416
 5320POPC   NC369359  15.914  23.498   5.481
 5320POPC   PO469360  16.333  24.034   5.417
 5320POPC   GL169361  16.167  23.777   5.837
 5320POPC   GL269362  15.839  23.519   5.972
 5320POPC   C1A69363  15.958  23.920   6.238
 5320POPC   D2A69364  15.694  23.721   6.539
 5320POPC   C3A69365  15.958  23.759   6.905
 5320POPC   C4A69366  16.292  23.878   7.174
 5320POPC   C1B69367  15.786  23.153   6.234
 5320POPC   C2B69368  15.607  23.171   6.596
 5320POPC   C3B69369  15.609  23.397   6.950
 5320POPC   C4B69370  15.842  23.468   7.322
 5321POPC   NC369371  40.088   0.888   5.352
 5321POPC   PO469372  39.404   1.043   5.340
 5321POPC   GL169373  39.808   1.176   5.686
 5321POPC   GL269374  40.162   1.024   5.830
 5321POPC   C1A69375  39.864   1.226   6.179
 5321POPC   D2A69376  39.720   1.188   6.603
 5321POPC   C3A69377  39.903   1.329   6.996
 5321POPC   C4A69378  39.703   1.653   7.269
 5321POPC   C1B69379  40.393   1.162   6.228
 5321POPC   C2B69380  40.334   1.172   6.692
 5321POPC   C3B69381  40.255   0.893   7.068
 5321POPC   C4B69382  40.319   0.895   7.542
 5322POPC   NC369383   2.922   9.105   5.466
 5322POPC   PO469384   2.699   8.489   5.482
 5322POPC   GL169385   2.716   8.757   5.778
 5322POPC   GL269386   2.459   8.953   5.680
 5322POPC   C1A69387   2.760   8.815   6.190
 5322POPC   D2A69388   2.928   8.989   6.517
 5322POPC   C3A69389   2.768   8.909   6.911
 5322POPC   C4A69390   2.677   8.869   7.328
 5322POPC   C1B69391   2.581   9.264   6.028
 5322POPC   C2B69392   2.518   9.313   6.499
 5322POPC   C3B69393   2.511   9.379   6.958
 5322POPC   C4B69394   2.263   9.329   7.335
 5323POPC   NC369395  17.289  18.851   5.361
 5323POPC   PO469396  17.833  19.072   5.207
 5323POPC   GL169397  17.606  19.111   5.698
 5323POPC   GL269398  17.494  18.803   5.844
 5323POPC   C1A69399  17.625  19.238   6.175
 5323POPC   D2A69400  17.489  19.131   6.636
 5323POPC   C3A69401  17.646  19.266   7.024
 5323POPC   C4A69402  17.931  18.982   7.286
 5323POPC   C1B69403  17.348  18.802   6.268
 5323POPC   C2B69404  17.056  18.851   6.633
 5323POPC   C3B69405  17.112  18.891   7.052
 5323POPC   C4B69406  17.242  19.190   7.313
 5324POPC   NC369407  26.990  15.686   5.391
 5324POPC   PO469408  26.350  15.977   5.355
 5324POPC   GL169409  26.618  15.932   5.711
 5324POPC   GL269410  26.480  15.619   5.741
 5324POPC   C1A69411  26.800  15.942   6.158
 5324POPC   D2A69412  27.085  15.912   6.542
 5324POPC   C3A69413  26.865  16.050   6.920
 5324POPC   C4A69414  26.744  15.887   7.325
 5324POPC   C1B69415  26.257  15.674   6.126
 5324POPC   C2B69416  26.344  15.817   6.527
 5324POPC   C3B69417  26.479  15.686   6.906
 5324POPC   C4B69418  26.296  15.693   7.277
 5325POPC   NC369419  23.732  41.278   5.302
 5325POPC   PO469420  23.336  41.782   5.215
 5325POPC   GL169421  23.595  41.683   5.628
 5325POPC   GL269422  23.720  41.370   5.791
 5325POPC   C1A69423  23.598  41.700   6.135
 5325POPC   D2A69424  23.527  41.608   6.600
 5325POPC   C3A69425  23.806  41.600   6.986
 5325POPC   C4A69426  24.055  41.917   7.211
 5325POPC   C1B69427  23.681  41.178   6.215
 5325POPC   C2B69428  23.730  41.138   6.669
 5325POPC   C3B69429  23.679  41.116   7.113
 5325POPC   C4B69430  23.532  41.403   7.439
 5326POPC   NC369431   6.842   6.044   5.205
 5326POPC   PO469432   6.457   5.457   5.405
 5326POPC   GL169433   6.753   5.731   5.688
 5326POPC   GL269434   6.925   6.071   5.694
 5326POPC   C1A69435   6.634   5.886   6.119
 5326POPC   D2A69436   6.326   6.025   6.450
 5326POPC   C3A69437   6.339   5.762   6.831
 5326POPC   C4A69438   6.314   5.962   7.210
 5326POPC   C1B69439   7.095   6.136   6.077
 5326POPC   C2B69440   6.935   6.135   6.468
 5326POPC   C3B69441   6.871   5.866   6.800
 5326POPC   C4B69442   6.823   6.019   7.188
 5327POPC   NC369443  17.030  34.608   5.310
 5327POPC   PO469444  16.613  34.149   5.352
 5327POPC   GL169445  16.777  34.289   5.731
 5327POPC   GL269446  16.757  34.667   5.720
 5327POPC   C1A69447  16.667  34.196   6.163
 5327POPC   D2A69448  16.523  34.438   6.546
 5327POPC   C3A69449  16.566  34.325   6.965
 5327POPC   C4A69450  16.677  34.643   7.207
 5327POPC   C1B69451  16.734  34.693   6.133
 5327POPC   C2B69452  17.015  34.573   6.467
 5327POPC   C3B69453  17.086  34.771   6.874
 5327POPC   C4B69454  17.068  34.925   7.305
 5328POPC   NC369455  16.197  13.829   5.296
 5328POPC   PO469456  15.859  13.276   5.397
 5328POPC   GL169457  15.777  13.522   5.736
 5328POPC   GL269458  15.965  13.834   5.743
 5328POPC   C1A69459  16.009  13.472   6.114
 5328POPC   D2A69460  16.117  13.274   6.487
 5328POPC   C3A69461  15.840  13.390   6.824
 5328POPC   C4A69462  16.020  13.370   7.244
 5328POPC   C1B69463  16.111  13.991   6.139
 5328POPC   C2B69464  16.016  13.784   6.522
 5328POPC   C3B69465  16.158  13.790   6.909
 5328POPC   C4B69466  16.125  14.069   7.266
 5329POPC   NC369467  20.665  19.361   5.364
 5329POPC   PO469468  20.179  19.967   5.409
 5329POPC   GL169469  20.366  19.833   5.790
 5329POPC   GL269470  20.351  19.513   5.732
 5329POPC   C1A69471  20.435  19.831   6.269
 5329POPC   D2A69472  20.421  19.766   6.724
 5329POPC   C3A69473  20.396  20.121   7.029
 5329POPC   C4A69474  20.608  20.241   7.426
 5329POPC   C1B69475  20.733  19.496   6.022
 5329POPC   C2B69476  20.923  19.475   6.451
 5329POPC   C3B69477  20.762  19.379   6.861
 5329POPC   C4B69478  20.508  19.577   7.192
 5330POPC   NC369479  27.029  14.021   5.396
 5330POPC   PO469480  26.375  13.731   5.380
 5330POPC   GL169481  26.514  13.861   5.791
 5330POPC   GL269482  26.788  13.661   5.719
 5330POPC   C1A69483  26.834  13.946   6.133
 5330POPC   D2A69484  27.046  13.845   6.513
 5330POPC   C3A69485  26.938  13.861   6.921
 5330POPC   C4A69486  26.690  13.590   7.133
 5330POPC   C1B69487  26.945  13.449   6.108
 5330POPC   C2B69488  27.033  13.327   6.538
 5330POPC   C3B69489  27.115  13.390   6.971
 5330POPC   C4B69490  27.128  13.578   7.395
 5331POPC   NC369491   9.324  40.589   5.348
 5331POPC   PO469492   9.815  40.982   5.017
 5331POPC   GL169493   9.778  40.745   5.499
 5331POPC   GL269494  10.063  40.733   5.749
 5331POPC   C1A69495   9.596  40.747   5.975
 5331POPC   D2A69496   9.590  40.999   6.396
 5331POPC   C3A69497   9.534  40.885   6.855
 5331POPC   C4A69498   9.534  40.633   7.254
 5331POPC   C1B69499  10.078  40.909   6.192
 5331POPC   C2B69500  10.161  41.069   6.614
 5331POPC   C3B69501  10.046  40.938   7.022
 5331POPC   C4B69502   9.713  41.116   7.296
 5332POPC   NC369503  13.186  42.310   4.955
 5332POPC   PO469504  12.889  41.932   5.426
 5332POPC   GL169505  12.914  42.103   5.843
 5332POPC   GL269506  12.900  42.429   5.750
 5332POPC   C1A69507  12.855  42.060   6.314
 5332POPC   D2A69508  12.840  41.850   6.722
 5332POPC   C3A69509  12.719  42.044   7.105
 5332POPC   C4A69510  12.771  42.295   7.467
 5332POPC   C1B69511  12.948  42.548   6.196
 5332POPC   C2B69512  12.844  42.459   6.641
 5332POPC   C3B69513  12.965  42.531   7.063
 5332POPC   C4B69514  13.178  42.687   7.448
 5333POPC   NC369515  36.134   8.853   5.427
 5333POPC   PO469516  36.490   9.354   5.453
 5333POPC   GL169517  36.098   9.265   5.780
 5333POPC   GL269518  35.911   8.932   5.867
 5333POPC   C1A69519  36.018   9.226   6.242
 5333POPC   D2A69520  36.032   9.037   6.624
 5333POPC   C3A69521  36.395   8.982   6.817
 5333POPC   C4A69522  36.406   9.045   7.244
 5333POPC   C1B69523  35.977   8.681   6.248
 5333POPC   C2B69524  36.140   8.512   6.649
 5333POPC   C3B69525  36.050   8.685   7.064
 5333POPC   C4B69526  36.012   8.843   7.507
 5334POPC   NC369527   9.676   2.495   5.325
 5334POPC   PO469528   9.488   3.125   5.394
 5334POPC   GL169529   9.589   2.896   5.758
 5334POPC   GL269530   9.432   2.573   5.795
 5334POPC   C1A69531   9.717   2.872   6.192
 5334POPC   D2A69532   9.917   2.976   6.572
 5334POPC   C3A69533   9.753   2.893   6.985
 5334POPC   C4A69534   9.997   2.915   7.373
 5334POPC   C1B69535   9.868   2.466   5.961
 5334POPC   C2B69536  10.020   2.470   6.392
 5334POPC   C3B69537  10.095   2.355   6.809
 5334POPC   C4B69538   9.938   2.429   7.223
 5335POPC   NC369539  23.854  23.526   5.429
 5335POPC   PO469540  23.910  24.132   5.640
 5335POPC   GL169541  23.654  23.883   5.938
 5335POPC   GL269542  23.590  23.540   5.886
 5335POPC   C1A69543  23.591  23.719   6.369
 5335POPC   D2A69544  23.870  23.508   6.642
 5335POPC   C3A69545  24.053  23.870   6.844
 5335POPC   C4A69546  23.934  24.208   7.125
 5335POPC   C1B69547  23.627  23.229   6.232
 5335POPC   C2B69548  23.375  23.272   6.612
 5335POPC   C3B69549  23.432  23.605   6.900
 5335POPC   C4B69550  23.715  23.684   7.242
 5336POPC   NC369551   6.246   9.417   5.303
 5336POPC   PO469552   6.803   9.722   5.203
 5336POPC   GL169553   6.804   9.631   5.665
 5336POPC   GL269554   6.507   9.452   5.718
 5336POPC   C1A69555   6.635   9.681   6.133
 5336POPC   D2A69556   6.272   9.805   6.415
 5336POPC   C3A69557   6.390   9.943   6.844
 5336POPC   C4A69558   6.670   9.793   7.192
 5336POPC   C1B69559   6.163   9.468   6.018
 5336POPC   C2B69560   6.008   9.346   6.419
 5336POPC   C3B69561   6.152   9.320   6.847
 5336POPC   C4B69562   6.211   9.599   7.199
 5337POPC   NC369563  21.949  27.879   5.388
 5337POPC   PO469564  22.372  27.250   5.357
 5337POPC   GL169565  22.224  27.431   5.765
 5337POPC   GL269566  22.271  27.789   5.822
 5337POPC   C1A69567  22.045  27.313   6.172
 5337POPC   D2A69568  22.228  27.237   6.558
 5337POPC   C3A69569  22.130  27.450   6.965
 5337POPC   C4A69570  22.196  27.550   7.422
 5337POPC   C1B69571  22.166  27.857   6.217
 5337POPC   C2B69572  22.198  28.091   6.584
 5337POPC   C3B69573  22.201  27.966   7.006
 5337POPC   C4B69574  22.358  28.038   7.402
 5338POPC   NC369575   8.702   9.104   5.423
 5338POPC   PO469576   9.176   8.705   5.485
 5338POPC   GL169577   9.097   8.960   5.862
 5338POPC   GL269578   9.058   9.287   5.730
 5338POPC   C1A69579   8.997   8.912   6.323
 5338POPC   D2A69580   9.219   8.978   6.720
 5338POPC   C3A69581   9.119   8.773   7.079
 5338POPC   C4A69582   8.724   8.653   7.127
 5338POPC   C1B69583   8.961   9.414   6.162
 5338POPC   C2B69584   8.883   9.389   6.622
 5338POPC   C3B69585   8.907   9.245   7.043
 5338POPC   C4B69586   8.793   9.472   7.393
 5339POPC   NC369587  32.190  23.901   5.380
 5339POPC   PO469588  32.011  23.257   5.361
 5339POPC   GL169589  32.173  23.533   5.738
 5339POPC   GL269590  31.977  23.798   5.859
 5339POPC   C1A69591  32.489  23.497   6.148
 5339POPC   D2A69592  32.699  23.416   6.604
 5339POPC   C3A69593  32.468  23.546   7.005
 5339POPC   C4A69594  32.233  23.768   7.358
 5339POPC   C1B69595  31.972  23.450   6.188
 5339POPC   C2B69596  32.160  23.399   6.603
 5339POPC   C3B69597  31.960  23.456   7.031
 5339POPC   C4B69598  31.710  23.521   7.422
 5340POPC   NC369599  11.074  23.173   5.519
 5340POPC   PO469600  11.628  23.185   5.131
 5340POPC   GL169601  11.564  22.957   5.613
 5340POPC   GL269602  11.262  22.824   5.810
 5340POPC   C1A69603  11.607  23.040   6.098
 5340POPC   D2A69604  11.398  22.832   6.460
 5340POPC   C3A69605  11.437  23.020   6.854
 5340POPC   C4A69606  11.532  23.227   7.250
 5340POPC   C1B69607  11.067  23.078   6.148
 5340POPC   C2B69608  10.980  23.149   6.566
 5340POPC   C3B69609  10.925  22.835   6.866
 5340POPC   C4B69610  11.112  22.897   7.240
 5341POPC   NC369611   0.421   8.325   5.221
 5341POPC   PO469612   0.035   8.283   5.756
 5341POPC   GL169613   0.476   8.369   5.883
 5341POPC   GL269614   0.619   8.101   5.708
 5341POPC   C1A69615   0.652   8.370   6.322
 5341POPC   D2A69616   0.351   8.241   6.635
 5341POPC   C3A69617   0.303   8.350   7.065
 5341POPC   C4A69618   0.333   8.172   7.473
 5341POPC   C1B69619   0.449   7.924   6.135
 5341POPC   C2B69620   0.425   7.728   6.545
 5341POPC   C3B69621   0.382   7.835   6.965
 5341POPC   C4B69622   0.364   7.678   7.355
 5342POPC   NC369623  16.693  26.547   5.465
 5342POPC   PO469624  16.444  27.139   5.482
 5342POPC   GL169625  16.439  26.851   5.805
 5342POPC   GL269626  16.812  26.937   5.810
 5342POPC   C1A69627  16.609  26.769   6.223
 5342POPC   D2A69628  16.780  26.837   6.614
 5342POPC   C3A69629  16.604  26.641   6.965
 5342POPC   C4A69630  16.608  26.797   7.380
 5342POPC   C1B69631  17.023  27.137   6.231
 5342POPC   C2B69632  17.006  27.297   6.703
 5342POPC   C3B69633  17.044  27.273   7.183
 5342POPC   C4B69634  16.982  27.085   7.628
 5343POPC   NC369635  28.120   5.735   5.416
 5343POPC   PO469636  28.676   6.157   5.553
 5343POPC   GL169637  28.422   5.880   5.813
 5343POPC   GL269638  28.115   6.081   5.860
 5343POPC   C1A69639  28.232   5.759   6.229
 5343POPC   D2A69640  28.370   5.795   6.641
 5343POPC   C3A69641  28.297   5.488   6.936
 5343POPC   C4A69642  28.378   5.597   7.366
 5343POPC   C1B69643  28.479   6.220   6.190
 5343POPC   C2B69644  28.696   6.180   6.609
 5343POPC   C3B69645  28.511   6.147   7.027
 5343POPC   C4B69646  28.108   5.982   7.165
 5344POPC   NC369647  39.208  34.165   5.501
 5344POPC   PO469648  39.151  34.849   5.444
 5344POPC   GL169649  39.140  34.809   5.861
 5344POPC   GL269650  39.215  34.448   5.954
 5344POPC   C1A69651  39.125  34.849   6.287
 5344POPC   D2A69652  39.178  34.527   6.534
 5344POPC   C3A69653  39.149  34.659   6.929
 5344POPC   C4A69654  39.497  34.667   7.199
 5344POPC   C1B69655  38.995  34.120   6.226
 5344POPC   C2B69656  39.021  34.070   6.682
 5344POPC   C3B69657  39.338  34.200   7.000
 5344POPC   C4B69658  39.372  34.253   7.463
 5345POPC   NC369659  28.152   9.890   5.237
 5345POPC   PO469660  28.120   9.238   5.405
 5345POPC   GL169661  28.069   9.506   5.779
 5345POPC   GL269662  28.092   9.867   5.748
 5345POPC   C1A69663  28.216   9.607   6.203
 5345POPC   D2A69664  28.171   9.733   6.604
 5345POPC   C3A69665  28.452   9.619   6.870
 5345POPC   C4A69666  28.248   9.628   7.243
 5345POPC   C1B69667  28.128  10.094   6.158
 5345POPC   C2B69668  28.499  10.073   6.444
 5345POPC   C3B69669  28.466  10.137   6.844
 5345POPC   C4B69670  28.546  10.008   7.225
 5346POPC   NC369671   3.675  16.799   5.291
 5346POPC   PO469672   3.027  16.972   5.480
 5346POPC   GL169673   3.263  16.712   5.812
 5346POPC   GL269674   3.585  16.549   5.743
 5346POPC   C1A69675   3.492  16.767   6.222
 5346POPC   D2A69676   3.681  16.909   6.628
 5346POPC   C3A69677   3.475  16.878   7.043
 5346POPC   C4A69678   3.616  16.926   7.470
 5346POPC   C1B69679   3.880  16.418   6.109
 5346POPC   C2B69680   4.009  16.444   6.558
 5346POPC   C3B69681   3.825  16.526   6.958
 5346POPC   C4B69682   3.860  16.477   7.387
 5347POPC   NC369683  26.334  16.423   5.551
 5347POPC   PO469684  25.913  16.869   5.241
 5347POPC   GL169685  25.942  16.731   5.656
 5347POPC   GL269686  26.215  16.895   5.794
 5347POPC   C1A69687  25.940  16.521   6.076
 5347POPC   D2A69688  25.842  16.658   6.492
 5347POPC   C3A69689  26.167  16.617   6.789
 5347POPC   C4A69690  26.187  16.785   7.208
 5347POPC   C1B69691  26.222  16.912   6.259
 5347POPC   C2B69692  26.290  17.099   6.664
 5347POPC   C3B69693  26.441  17.208   7.076
 5347POPC   C4B69694  26.439  17.143   7.547
 5348POPC   NC369695   4.888  36.874   5.324
 5348POPC   PO469696   5.511  37.221   5.272
 5348POPC   GL169697   5.276  37.012   5.629
 5348POPC   GL269698   4.981  37.202   5.733
 5348POPC   C1A69699   5.138  36.802   6.048
 5348POPC   D2A69700   5.180  36.547   6.459
 5348POPC   C3A69701   5.286  36.658   6.911
 5348POPC   C4A69702   5.039  36.643   7.290
 5348POPC   C1B69703   4.956  37.275   6.174
 5348POPC   C2B69704   4.810  37.025   6.509
 5348POPC   C3B69705   4.856  36.954   6.932
 5348POPC   C4B69706   5.166  37.139   7.188
 5349POPC   NC369707  32.137  15.208   4.983
 5349POPC   PO469708  31.873  15.138   5.387
 5349POPC   GL169709  31.933  15.145   5.879
 5349POPC   GL269710  32.276  15.193   6.018
 5349POPC   C1A69711  31.872  15.106   6.363
 5349POPC   D2A69712  32.096  14.994   6.768
 5349POPC   C3A69713  32.145  15.265   7.135
 5349POPC   C4A69714  31.864  15.210   7.501
 5349POPC   C1B69715  32.316  15.339   6.454
 5349POPC   C2B69716  32.558  15.247   6.827
 5349POPC   C3B69717  32.619  14.953   7.177
 5349POPC   C4B69718  32.769  14.809   7.617
 5350POPC   NC369719  10.673  29.962   5.540
 5350POPC   PO469720  10.253  30.383   5.548
 5350POPC   GL169721  10.310  30.079   5.865
 5350POPC   GL269722  10.113  29.838   5.894
 5350POPC   C1A69723  10.536  29.997   6.258
 5350POPC   D2A69724  10.559  30.189   6.682
 5350POPC   C3A69725  10.395  29.993   7.069
 5350POPC   C4A69726  10.591  29.919   7.489
 5350POPC   C1B69727  10.237  29.588   6.185
 5350POPC   C2B69728  10.455  29.559   6.563
 5350POPC   C3B69729  10.539  29.508   6.967
 5350POPC   C4B69730  10.285  29.544   7.308
 5351POPC   NC369731  22.258  41.900   5.438
 5351POPC   PO469732  22.543  41.262   5.455
 5351POPC   GL169733  22.228  41.428   5.804
 5351POPC   GL269734  22.073  41.746   5.864
 5351POPC   C1A69735  21.909  41.371   6.158
 5351POPC   D2A69736  21.916  41.158   6.542
 5351POPC   C3A69737  21.833  41.329   6.958
 5351POPC   C4A69738  22.154  41.542   7.181
 5351POPC   C1B69739  22.240  41.955   6.195
 5351POPC   C2B69740  22.221  41.994   6.645
 5351POPC   C3B69741  22.418  41.955   7.077
 5351POPC   C4B69742  22.550  41.770   7.493
 5352POPC   NC369743  18.463  14.792   5.154
 5352POPC   PO469744  19.102  14.550   5.469
 5352POPC   GL169745  18.987  14.379   5.835
 5352POPC   GL269746  18.689  14.232   5.707
 5352POPC   C1A69747  19.027  14.621   6.221
 5352POPC   D2A69748  18.887  14.833   6.600
 5352POPC   C3A69749  19.214  14.789   6.874
 5352POPC   C4A69750  19.341  14.610   7.238
 5352POPC   C1B69751  18.613  14.313   6.171
 5352POPC   C2B69752  18.829  14.305   6.572
 5352POPC   C3B69753  18.970  14.328   6.997
 5352POPC   C4B69754  18.815  14.055   7.287
 5353POPC   NC369755   9.469  25.580   5.593
 5353POPC   PO469756   8.990  25.282   5.164
 5353POPC   GL169757   9.089  25.213   5.614
 5353POPC   GL269758   8.937  25.561   5.642
 5353POPC   C1A69759   9.160  25.044   6.073
 5353POPC   D2A69760   9.046  24.900   6.524
 5353POPC   C3A69761   9.152  25.214   6.874
 5353POPC   C4A69762   9.253  25.547   7.211
 5353POPC   C1B69763   8.970  25.541   6.096
 5353POPC   C2B69764   9.009  25.601   6.559
 5353POPC   C3B69765   8.819  25.589   6.955
 5353POPC   C4B69766   8.799  25.790   7.341
 5354POPC   NC369767  28.473   2.396   5.416
 5354POPC   PO469768  28.081   2.906   5.292
 5354POPC   GL169769  28.325   2.826   5.660
 5354POPC   GL269770  28.189   2.560   5.813
 5354POPC   C1A69771  28.504   2.906   6.083
 5354POPC   D2A69772  28.550   2.677   6.484
 5354POPC   C3A69773  28.503   2.883   6.887
 5354POPC   C4A69774  28.428   2.820   7.324
 5354POPC   C1B69775  28.080   2.648   6.219
 5354POPC   C2B69776  28.056   2.768   6.639
 5354POPC   C3B69777  28.058   2.602   7.038
 5354POPC   C4B69778  27.873   2.332   7.317
 5355POPC   NC369779  40.510  35.129   5.572
 5355POPC   PO469780  40.492  35.854   5.487
 5355POPC   GL169781  40.612  35.575   5.801
 5355POPC   GL269782  40.942  35.450   5.810
 5355POPC   C1A69783  40.583  35.388   6.209
 5355POPC   D2A69784  40.585  35.594   6.612
 5355POPC   C3A69785  40.778  35.414   6.975
 5355POPC   C4A69786  40.446  35.395   7.248
 5355POPC   C1B69787  40.882  35.806   6.183
 5355POPC   C2B69788  41.097  35.914   6.601
 5355POPC   C3B69789  41.135  35.841   7.059
 5355POPC   C4B69790  41.155  35.479   7.349
 5356POPC   NC369791  16.844  18.022   5.318
 5356POPC   PO469792  17.033  18.617   5.656
 5356POPC   GL169793  16.742  18.565   5.947
 5356POPC   GL269794  16.726  18.227   5.784
 5356POPC   C1A69795  16.670  18.598   6.419
 5356POPC   D2A69796  16.494  18.478   6.855
 5356POPC   C3A69797  16.825  18.482   7.171
 5356POPC   C4A69798  17.142  18.494   7.512
 5356POPC   C1B69799  16.534  18.176   6.184
 5356POPC   C2B69800  16.746  18.088   6.560
 5356POPC   C3B69801  16.716  17.998   6.977
 5356POPC   C4B69802  16.422  18.120   7.288
 5357POPC   NC369803  19.613  36.588   5.670
 5357POPC   PO469804  19.729  37.170   5.341
 5357POPC   GL169805  19.798  37.064   5.779
 5357POPC   GL269806  20.087  36.812   5.806
 5357POPC   C1A69807  19.802  36.903   6.213
 5357POPC   D2A69808  19.931  36.740   6.595
 5357POPC   C3A69809  19.725  36.850   6.990
 5357POPC   C4A69810  19.851  37.141   7.283
 5357POPC   C1B69811  20.217  36.557   6.192
 5357POPC   C2B69812  20.341  36.449   6.615
 5357POPC   C3B69813  20.188  36.638   7.019
 5357POPC   C4B69814  20.033  36.589   7.456
 5358POPC   NC369815  18.916  24.208   5.274
 5358POPC   PO469816  19.204  24.742   5.268
 5358POPC   GL169817  18.893  24.599   5.624
 5358POPC   GL269818  19.044  24.253   5.782
 5358POPC   C1A69819  18.767  24.521   6.093
 5358POPC   D2A69820  19.100  24.513   6.428
 5358POPC   C3A69821  18.999  24.582   6.865
 5358POPC   C4A69822  19.201  24.628   7.289
 5358POPC   C1B69823  18.935  24.060   6.221
 5358POPC   C2B69824  18.950  24.096   6.689
 5358POPC   C3B69825  19.204  24.131   7.060
 5358POPC   C4B69826  19.158  24.139   7.503
 5359POPC   NC369827  22.999  21.958   5.195
 5359POPC   PO469828  22.676  21.319   5.315
 5359POPC   GL169829  22.757  21.273   5.757
 5359POPC   GL269830  22.890  21.538   5.856
 5359POPC   C1A69831  22.848  21.018   6.109
 5359POPC   D2A69832  23.028  20.952   6.518
 5359POPC   C3A69833  22.920  21.067   6.944
 5359POPC   C4A69834  23.135  21.438   7.154
 5359POPC   C1B69835  22.746  21.516   6.242
 5359POPC   C2B69836  22.915  21.468   6.632
 5359POPC   C3B69837  22.648  21.498   6.973
 5359POPC   C4B69838  22.716  21.629   7.370
 5360POPC   NC369839  24.022  37.390   5.679
 5360POPC   PO469840  23.585  37.027   5.327
 5360POPC   GL169841  23.571  36.982   5.764
 5360POPC   GL269842  23.345  37.257   5.820
 5360POPC   C1A69843  23.751  36.737   6.147
 5360POPC   D2A69844  23.808  36.422   6.516
 5360POPC   C3A69845  23.695  36.557   6.963
 5360POPC   C4A69846  23.815  36.946   7.209
 5360POPC   C1B69847  23.540  37.214   6.239
 5360POPC   C2B69848  23.626  36.955   6.619
 5360POPC   C3B69849  23.349  36.951   6.981
 5360POPC   C4B69850  23.361  36.950   7.420
 5361POPC   NC369851  34.494  37.022   5.439
 5361POPC   PO469852  34.296  36.407   5.533
 5361POPC   GL169853  34.466  36.626   5.885
 5361POPC   GL269854  34.721  36.876   5.875
 5361POPC   C1A69855  34.542  36.712   6.339
 5361POPC   D2A69856  34.737  36.866   6.723
 5361POPC   C3A69857  34.500  36.913   7.083
 5361POPC   C4A69858  34.271  36.839   7.440
 5361POPC   C1B69859  34.914  37.077   6.263
 5361POPC   C2B69860  35.117  37.192   6.696
 5361POPC   C3B69861  34.892  37.266   7.121
 5361POPC   C4B69862  34.780  37.027   7.501
 5362POPC   NC369863  13.871  28.395   5.463
 5362POPC   PO469864  13.343  27.948   5.364
 5362POPC   GL169865  13.533  28.155   5.753
 5362POPC   GL269866  13.514  28.530   5.793
 5362POPC   C1A69867  13.425  28.250   6.195
 5362POPC   D2A69868  13.598  28.387   6.590
 5362POPC   C3A69869  13.461  28.306   6.978
 5362POPC   C4A69870  13.755  28.025   7.093
 5362POPC   C1B69871  13.854  28.525   6.137
 5362POPC   C2B69872  14.023  28.656   6.558
 5362POPC   C3B69873  13.976  28.476   6.997
 5362POPC   C4B69874  13.692  28.554   7.380
 5363POPC   NC369875  35.836  15.254   5.740
 5363POPC   PO469876  35.323  14.997   5.338
 5363POPC   GL169877  35.325  15.266   5.721
 5363POPC   GL269878  35.443  14.949   5.850
 5363POPC   C1A69879  35.293  15.302   6.202
 5363POPC   D2A69880  35.525  15.285   6.605
 5363POPC   C3A69881  35.415  15.517   6.985
 5363POPC   C4A69882  35.102  15.418   7.290
 5363POPC   C1B69883  35.248  14.763   6.194
 5363POPC   C2B69884  35.205  14.891   6.608
 5363POPC   C3B69885  35.323  15.021   7.016
 5363POPC   C4B69886  35.163  14.885   7.380
 5364POPC   NC369887  16.956  44.031   5.467
 5364POPC   PO469888  16.639  43.477   5.480
 5364POPC   GL169889  16.686  43.811   5.835
 5364POPC   GL269890  17.070  43.879   5.939
 5364POPC   C1A69891  16.714  43.931   6.286
 5364POPC   D2A69892  17.084  43.867   6.568
 5364POPC   C3A69893  16.949  43.754   6.971
 5364POPC   C4A69894  16.511  43.731   7.156
 5364POPC   C1B69895  17.133  44.266   6.250
 5364POPC   C2B69896  17.062  44.362   6.725
 5364POPC   C3B69897  17.178  44.182   7.152
 5364POPC   C4B69898  17.195  44.249   7.604
 5365POPC   NC369899   5.179   3.181   5.376
 5365POPC   PO469900   5.056   3.816   5.276
 5365POPC   GL169901   5.043   3.592   5.681
 5365POPC   GL269902   4.697   3.425   5.700
 5365POPC   C1A69903   5.315   3.537   6.098
 5365POPC   D2A69904   5.455   3.750   6.486
 5365POPC   C3A69905   5.348   3.535   6.839
 5365POPC   C4A69906   5.096   3.558   7.192
 5365POPC   C1B69907   4.812   3.592   6.139
 5365POPC   C2B69908   4.886   3.382   6.551
 5365POPC   C3B69909   4.657   3.411   6.951
 5365POPC   C4B69910   4.602   3.543   7.416
 5366POPC   NC369911  31.197   4.338   5.601
 5366POPC   PO469912  31.869   4.521   5.403
 5366POPC   GL169913  31.672   4.415   5.797
 5366POPC   GL269914  31.543   4.728   5.886
 5366POPC   C1A69915  31.492   4.148   6.189
 5366POPC   D2A69916  31.205   4.194   6.574
 5366POPC   C3A69917  31.442   4.090   6.957
 5366POPC   C4A69918  31.672   4.325   7.260
 5366POPC   C1B69919  31.536   4.620   6.321
 5366POPC   C2B69920  31.529   4.558   6.766
 5366POPC   C3B69921  31.206   4.520   7.078
 5366POPC   C4B69922  30.999   4.811   7.322
 5367POPC   NC369923   6.291  12.584   5.360
 5367POPC   PO469924   6.419  13.120   5.640
 5367POPC   GL169925   6.501  12.702   5.882
 5367POPC   GL269926   6.263  12.429   5.863
 5367POPC   C1A69927   6.685  12.661   6.312
 5367POPC   D2A69928   6.667  12.911   6.672
 5367POPC   C3A69929   6.709  12.725   7.059
 5367POPC   C4A69930   6.975  12.906   7.397
 5367POPC   C1B69931   6.223  12.432   6.315
 5367POPC   C2B69932   6.324  12.524   6.742
 5367POPC   C3B69933   6.255  12.482   7.179
 5367POPC   C4B69934   6.136  12.695   7.586
 5368POPC   NC369935  13.242  39.901   5.371
 5368POPC   PO469936  13.928  39.800   5.406
 5368POPC   GL169937  13.711  40.110   5.652
 5368POPC   GL269938  13.388  40.261   5.721
 5368POPC   C1A69939  13.694  40.117   6.104
 5368POPC   D2A69940  13.895  40.254   6.465
 5368POPC   C3A69941  13.844  40.005   6.815
 5368POPC   C4A69942  13.674  40.033   7.208
 5368POPC   C1B69943  13.167  40.170   6.086
 5368POPC   C2B69944  13.309  40.134   6.500
 5368POPC   C3B69945  13.388  40.303   6.873
 5368POPC   C4B69946  13.202  40.189   7.241
 5369POPC   NC369947   5.210  20.973   5.083
 5369POPC   PO469948   5.006  20.416   5.418
 5369POPC   GL169949   5.078  20.420   5.820
 5369POPC   GL269950   5.294  20.735   5.802
 5369POPC   C1A69951   4.933  20.556   6.217
 5369POPC   D2A69952   5.146  20.718   6.563
 5369POPC   C3A69953   4.967  20.560   6.901
 5369POPC   C4A69954   4.724  20.872   7.046
 5369POPC   C1B69955   5.447  20.484   6.167
 5369POPC   C2B69956   5.550  20.409   6.598
 5369POPC   C3B69957   5.502  20.636   6.979
 5369POPC   C4B69958   5.337  20.253   7.119
 5370POPC   NC369959  20.884  18.647   5.545
 5370POPC   PO469960  20.348  19.019   5.341
 5370POPC   GL169961  20.217  19.025   5.750
 5370POPC   GL269962  20.580  19.044   5.828
 5370POPC   C1A69963  20.194  19.228   6.119
 5370POPC   D2A69964  20.422  19.328   6.449
 5370POPC   C3A69965  20.228  19.295   6.843
 5370POPC   C4A69966  20.425  19.065   7.159
 5370POPC   C1B69967  20.821  19.013   6.234
 5370POPC   C2B69968  20.918  18.729   6.593
 5370POPC   C3B69969  20.941  18.897   7.031
 5370POPC   C4B69970  20.873  19.260   7.348
 5371POPC   NC369971  27.841  10.816   5.452
 5371POPC   PO469972  27.246  10.542   5.426
 5371POPC   GL169973  27.533  10.457   5.748
 5371POPC   GL269974  27.433  10.132   5.760
 5371POPC   C1A69975  27.634  10.337   6.184
 5371POPC   D2A69976  27.533  10.543   6.567
 5371POPC   C3A69977  27.648  10.375   6.978
 5371POPC   C4A69978  27.809  10.621   7.336
 5371POPC   C1B69979  27.242  10.018   6.157
 5371POPC   C2B69980  27.432  10.052   6.569
 5371POPC   C3B69981  27.294  10.010   6.980
 5371POPC   C4B69982  27.444  10.104   7.395
 5372POPC   NC369983  13.012  20.294   5.489
 5372POPC   PO469984  12.776  20.976   5.422
 5372POPC   GL169985  12.676  20.684   5.725
 5372POPC   GL269986  12.987  20.848   5.885
 5372POPC   C1A69987  12.682  20.548   6.151
 5372POPC   D2A69988  12.955  20.455   6.497
 5372POPC   C3A69989  12.749  20.298   6.833
 5372POPC   C4A69990  12.548  20.517   7.182
 5372POPC   C1B69991  12.999  20.931   6.332
 5372POPC   C2B69992  12.845  20.891   6.792
 5372POPC   C3B69993  12.895  20.918   7.268
 5372POPC   C4B69994  13.059  20.945   7.754
 5373POPC   NC369995   9.843  29.585   5.565
 5373POPC   PO469996   9.476  29.119   5.271
 5373POPC   GL169997   9.587  29.156   5.702
 5373POPC   GL269998   9.954  29.061   5.685
 5373POPC   C1A69999   9.583  29.091   6.152
 5373POPC   D2A70000   9.755  28.812   6.461
 5373POPC   C3A70001   9.725  28.936   6.887
 5373POPC   C4A70002   9.983  28.849   7.259
 5373POPC   C1B70003  10.088  29.107   6.108
 5373POPC   C2B70004   9.984  29.289   6.512
 5373POPC   C3B70005  10.127  29.221   6.919
 5373POPC   C4B70006   9.810  29.343   7.223
 5374POPC   NC370007  22.515  42.507   5.577
 5374POPC   PO470008  21.929  42.197   5.577
 5374POPC   GL170009  21.862  42.374   5.921
 5374POPC   GL270010  22.217  42.426   5.979
 5374POPC   C1A70011  21.882  42.334   6.351
 5374POPC   D2A70012  22.068  42.525   6.650
 5374POPC   C3A70013  22.032  42.311   6.988
 5374POPC   C4A70014  21.747  42.410   7.232
 5374POPC   C1B70015  22.465  42.386   6.373
 5374POPC   C2B70016  22.536  42.394   6.837
 5374POPC   C3B70017  22.714  42.334   7.266
 5374POPC   C4B70018  22.686  42.320   7.730
 5375POPC   NC370019  21.966  14.075   5.410
 5375POPC   PO470020  22.525  14.548   5.460
 5375POPC   GL170021  22.336  14.247   5.728
 5375POPC   GL270022  21.994  14.419   5.816
 5375POPC   C1A70023  22.311  14.231   6.184
 5375POPC   D2A70024  22.384  14.460   6.588
 5375POPC   C3A70025  22.224  14.301   6.967
 5375POPC   C4A70026  21.905  14.144   7.206
 5375POPC   C1B70027  21.859  14.723   6.170
 5375POPC   C2B70028  21.955  14.810   6.630
 5375POPC   C3B70029  22.171  14.815   7.062
 5375POPC   C4B70030  22.212  14.725   7.534
 5376POPC   NC370031  40.446  17.730   5.353
 5376POPC   PO470032  40.911  17.302   5.539
 5376POPC   GL170033  40.711  17.401   5.906
 5376POPC   GL270034  40.771  17.758   5.909
 5376POPC   C1A70035  40.543  17.204   6.278
 5376POPC   D2A70036  40.698  17.240   6.691
 5376POPC   C3A70037  40.983  17.514   6.806
 5376POPC   C4A70038  40.884  17.425   7.204
 5376POPC   C1B70039  40.775  17.675   6.357
 5376POPC   C2B70040  40.549  17.805   6.735
 5376POPC   C3B70041  40.799  17.912   7.098
 5376POPC   C4B70042  41.271  17.758   7.175
 5377POPC   NC370043  32.458  22.506   5.423
 5377POPC   PO470044  32.196  21.905   5.193
 5377POPC   GL170045  32.171  22.156   5.634
 5377POPC   GL270046  32.484  22.005   5.694
 5377POPC   C1A70047  32.132  22.387   6.098
 5377POPC   D2A70048  31.976  22.468   6.544
 5377POPC   C3A70049  32.042  22.229   6.911
 5377POPC   C4A70050  32.066  22.380   7.301
 5377POPC   C1B70051  32.164  21.889   6.049
 5377POPC   C2B70052  32.217  21.965   6.481
 5377POPC   C3B70053  32.303  21.743   6.858
 5377POPC   C4B70054  32.071  21.593   7.215
 5378POPC   NC370055   3.395  18.825   5.775
 5378POPC   PO470056   3.398  18.284   5.369
 5378POPC   GL170057   3.511  18.248   5.803
 5378POPC   GL270058   3.742  18.457   5.922
 5378POPC   C1A70059   3.348  18.366   6.253
 5378POPC   D2A70060   3.097  18.372   6.650
 5378POPC   C3A70061   3.238  18.498   7.060
 5378POPC   C4A70062   3.546  18.477   7.445
 5378POPC   C1B70063   3.772  18.086   6.203
 5378POPC   C2B70064   3.612  18.109   6.615
 5378POPC   C3B70065   3.693  18.292   6.975
 5378POPC   C4B70066   3.959  18.209   7.300
 5379POPC   NC370067  20.275  25.022   5.454
 5379POPC   PO470068  19.622  25.301   5.270
 5379POPC   GL170069  19.816  25.485   5.667
 5379POPC   GL270070  20.172  25.587   5.706
 5379POPC   C1A70071  19.922  25.354   6.107
 5379POPC   D2A70072  19.850  25.052   6.429
 5379POPC   C3A70073  19.684  25.048   6.848
 5379POPC   C4A70074  19.777  25.248   7.231
 5379POPC   C1B70075  20.309  25.671   6.157
 5379POPC   C2B70076  20.169  25.469   6.561
 5379POPC   C3B70077  20.037  25.623   6.979
 5379POPC   C4B70078  20.070  25.599   7.443
 5380POPC   NC370079  34.972  15.323   5.340
 5380POPC   PO470080  34.409  15.305   5.600
 5380POPC   GL170081  34.759  15.353   5.907
 5380POPC   GL270082  34.915  15.027   5.888
 5380POPC   C1A70083  34.698  15.562   6.369
 5380POPC   D2A70084  34.444  15.502   6.781
 5380POPC   C3A70085  34.522  15.558   7.233
 5380POPC   C4A70086  34.722  15.384   7.628
 5380POPC   C1B70087  34.838  15.085   6.341
 5380POPC   C2B70088  34.917  15.276   6.784
 5380POPC   C3B70089  34.732  15.090   7.172
 5380POPC   C4B70090  34.689  14.846   7.562
 5381POPC   NC370091  10.716  27.411   5.578
 5381POPC   PO470092  10.996  27.973   5.562
 5381POPC   GL170093  10.676  27.937   5.859
 5381POPC   GL270094  10.336  27.906   5.716
 5381POPC   C1A70095  10.688  27.734   6.270
 5381POPC   D2A70096  10.598  27.371   6.533
 5381POPC   C3A70097  10.492  27.508   6.931
 5381POPC   C4A70098  10.665  27.762   7.229
 5381POPC   C1B70099  10.255  28.025   6.161
 5381POPC   C2B70100  10.298  27.858   6.602
 5381POPC   C3B70101  10.254  28.036   7.016
 5381POPC   C4B70102  10.218  27.882   7.433
 5382POPC   NC370103  41.547   5.982   5.431
 5382POPC   PO470104  41.370   5.442   5.454
 5382POPC   GL170105  41.687   5.645   5.809
 5382POPC   GL270106  41.753   6.013   5.898
 5382POPC   C1A70107  41.742   5.691   6.297
 5382POPC   D2A70108  41.895   5.848   6.725
 5382POPC   C3A70109  41.782   5.568   7.072
 5382POPC   C4A70110  41.902   5.438   7.472
 5382POPC   C1B70111  41.822   6.201   6.328
 5382POPC   C2B70112  41.612   6.273   6.746
 5382POPC   C3B70113  41.526   6.011   7.103
 5382POPC   C4B70114  41.630   6.068   7.532
 5383POPC   NC370115  29.246  42.602   5.393
 5383POPC   PO470116  29.519  42.032   5.610
 5383POPC   GL170117  29.074  42.279   5.752
 5383POPC   GL270118  29.063  42.642   5.861
 5383POPC   C1A70119  28.777  42.233   6.130
 5383POPC   D2A70120  28.913  42.360   6.557
 5383POPC   C3A70121  29.090  42.197   6.943
 5383POPC   C4A70122  28.951  42.157   7.352
 5383POPC   C1B70123  29.264  42.492   6.204
 5383POPC   C2B70124  29.457  42.582   6.588
 5383POPC   C3B70125  29.320  42.648   6.981
 5383POPC   C4B70126  29.369  42.432   7.357
 5384POPC   NC370127  11.277   4.260   5.413
 5384POPC   PO470128  10.690   4.524   5.191
 5384POPC   GL170129  10.959   4.524   5.687
 5384POPC   GL270130  11.357   4.632   5.781
 5384POPC   C1A70131  11.175   4.229   6.053
 5384POPC   D2A70132  11.376   4.242   6.492
 5384POPC   C3A70133  11.299   4.373   6.936
 5384POPC   C4A70134  11.337   4.079   7.256
 5384POPC   C1B70135  11.665   4.434   6.121
 5384POPC   C2B70136  11.879   4.379   6.579
 5384POPC   C3B70137  11.784   4.323   7.051
 5384POPC   C4B70138  11.544   4.514   7.413
 5385POPC   NC370139   1.788  34.970   5.678
 5385POPC   PO470140   2.013  35.485   5.324
 5385POPC   GL170141   2.234  35.504   5.684
 5385POPC   GL270142   2.351  35.162   5.608
 5385POPC   C1A70143   2.096  35.651   6.116
 5385POPC   D2A70144   1.845  35.569   6.527
 5385POPC   C3A70145   2.112  35.625   6.905
 5385POPC   C4A70146   1.891  35.625   7.301
 5385POPC   C1B70147   2.328  35.152   6.047
 5385POPC   C2B70148   2.272  35.300   6.463
 5385POPC   C3B70149   2.046  35.135   6.808
 5385POPC   C4B70150   1.818  34.912   7.094
 5386POPC   NC370151  17.175  41.007   5.582
 5386POPC   PO470152  17.746  40.558   5.584
 5386POPC   GL170153  17.415  40.667   5.889
 5386POPC   GL270154  17.164  40.459   6.009
 5386POPC   C1A70155  17.391  40.936   6.255
 5386POPC   D2A70156  17.386  41.290   6.546
 5386POPC   C3A70157  17.514  41.155   6.967
 5386POPC   C4A70158  17.420  40.819   7.206
 5386POPC   C1B70159  16.973  40.657   6.369
 5386POPC   C2B70160  17.185  40.747   6.733
 5386POPC   C3B70161  17.279  40.388   6.987
 5386POPC   C4B70162  17.258  40.370   7.433
 5387POPC   NC370163  37.757  16.522   5.525
 5387POPC   PO470164  37.322  17.007   5.574
 5387POPC   GL170165  37.543  16.815   5.879
 5387POPC   GL270166  37.332  16.524   5.836
 5387POPC   C1A70167  37.739  16.812   6.270
 5387POPC   D2A70168  37.527  16.670   6.629
 5387POPC   C3A70169  37.594  16.848   7.033
 5387POPC   C4A70170  37.470  17.242   7.204
 5387POPC   C1B70171  37.503  16.366   6.195
 5387POPC   C2B70172  37.489  16.153   6.570
 5387POPC   C3B70173  37.511  16.304   6.999
 5387POPC   C4B70174  37.429  16.236   7.441
 5388POPC   NC370175  42.703   9.624   5.326
 5388POPC   PO470176  42.046   9.405   5.424
 5388POPC   GL170177  42.332   9.538   5.752
 5388POPC   GL270178  42.694   9.574   5.839
 5388POPC   C1A70179  42.303   9.709   6.157
 5388POPC   D2A70180  42.475   9.532   6.543
 5388POPC   C3A70181  42.300   9.720   6.906
 5388POPC   C4A70182  42.204   9.839   7.331
 5388POPC   C1B70183  42.785   9.865   6.217
 5388POPC   C2B70184  42.923  10.083   6.618
 5388POPC   C3B70185  42.799   9.949   7.029
 5388POPC   C4B70186  42.657   9.554   7.204
 5389POPC   NC370187   2.525  39.004   5.295
 5389POPC   PO470188   1.899  38.887   5.111
 5389POPC   GL170189   1.942  38.970   5.593
 5389POPC   GL270190   1.753  39.289   5.741
 5389POPC   C1A70191   2.090  39.050   6.052
 5389POPC   D2A70192   1.857  39.218   6.426
 5389POPC   C3A70193   2.058  39.381   6.787
 5389POPC   C4A70194   2.091  39.476   7.206
 5389POPC   C1B70195   1.526  39.458   6.105
 5389POPC   C2B70196   1.356  39.367   6.502
 5389POPC   C3B70197   1.565  39.308   6.890
 5389POPC   C4B70198   1.588  39.537   7.252
 5390POPC   NC370199  37.650  42.410   5.346
 5390POPC   PO470200  38.198  42.780   5.482
 5390POPC   GL170201  37.804  42.762   5.777
 5390POPC   GL270202  37.646  42.443   5.861
 5390POPC   C1A70203  37.699  42.751   6.263
 5390POPC   D2A70204  37.728  42.561   6.682
 5390POPC   C3A70205  37.415  42.362   6.988
 5390POPC   C4A70206  37.589  42.216   7.433
 5390POPC   C1B70207  37.859  42.252   6.231
 5390POPC   C2B70208  37.942  42.078   6.636
 5390POPC   C3B70209  37.910  42.227   7.044
 5390POPC   C4B70210  37.744  42.660   7.205
 5391POPC   NC370211  36.608  25.303   5.007
 5391POPC   PO470212  37.170  25.577   5.304
 5391POPC   GL170213  37.178  25.343   5.700
 5391POPC   GL270214  36.876  25.254   5.789
 5391POPC   C1A70215  37.192  25.199   6.179
 5391POPC   D2A70216  36.917  25.052   6.555
 5391POPC   C3A70217  37.001  25.199   6.994
 5391POPC   C4A70218  36.923  25.616   7.221
 5391POPC   C1B70219  36.695  25.349   6.168
 5391POPC   C2B70220  36.724  25.529   6.568
 5391POPC   C3B70221  36.528  25.404   6.939
 5391POPC   C4B70222  36.436  25.757   7.168
 5392POPC   NC370223   5.938  18.942   5.192
 5392POPC   PO470224   5.790  19.594   5.381
 5392POPC   GL170225   5.898  19.348   5.784
 5392POPC   GL270226   5.601  19.164   5.850
 5392POPC   C1A70227   6.059  19.313   6.223
 5392POPC   D2A70228   6.046  18.984   6.577
 5392POPC   C3A70229   6.133  19.051   7.010
 5392POPC   C4A70230   6.144  19.417   7.260
 5392POPC   C1B70231   5.616  19.011   6.287
 5392POPC   C2B70232   5.525  18.910   6.738
 5392POPC   C3B70233   5.723  18.752   7.128
 5392POPC   C4B70234   5.990  18.575   7.461
 5393POPC   NC370235  10.980  19.607   5.349
 5393POPC   PO470236  11.627  19.899   5.384
 5393POPC   GL170237  11.343  19.959   5.763
 5393POPC   GL270238  11.083  20.240   5.818
 5393POPC   C1A70239  11.334  20.053   6.223
 5393POPC   D2A70240  11.406  19.815   6.591
 5393POPC   C3A70241  11.233  19.808   7.019
 5393POPC   C4A70242  11.447  19.700   7.418
 5393POPC   C1B70243  10.887  20.292   6.255
 5393POPC   C2B70244  11.044  20.173   6.676
 5393POPC   C3B70245  11.118  20.317   7.113
 5393POPC   C4B70246  11.192  20.130   7.539
 5394POPC   NC370247  28.146  44.802   5.520
 5394POPC   PO470248  28.568  44.232   5.545
 5394POPC   GL170249  28.480  44.322   5.944
 5394POPC   GL270250  28.519  44.684   5.899
 5394POPC   C1A70251  28.678  44.440   6.337
 5394POPC   D2A70252  28.727  44.686   6.698
 5394POPC   C3A70253  28.608  44.425   7.026
 5394POPC   C4A70254  28.621  44.002   7.140
 5394POPC   C1B70255  28.199  44.639   6.238
 5394POPC   C2B70256  28.210  44.572   6.701
 5394POPC   C3B70257  28.217  44.754   7.132
 5394POPC   C4B70258  28.030   0.084   7.416
 5395POPC   NC370259  24.458   7.966   5.271
 5395POPC   PO470260  24.785   8.534   5.477
 5395POPC   GL170261  24.717   8.181   5.757
 5395POPC   GL270262  24.813   7.843   5.634
 5395POPC   C1A70263  24.533   8.211   6.165
 5395POPC   D2A70264  24.615   8.401   6.559
 5395POPC   C3A70265  24.582   8.248   6.981
 5395POPC   C4A70266  24.786   8.436   7.370
 5395POPC   C1B70267  24.695   7.737   6.079
 5395POPC   C2B70268  24.651   7.851   6.529
 5395POPC   C3B70269  24.738   7.712   6.962
 5395POPC   C4B70270  24.687   7.905   7.348
 5396POPC   NC370271  38.806  41.016   5.466
 5396POPC   PO470272  39.445  41.068   5.475
 5396POPC   GL170273  39.344  40.769   5.805
 5396POPC   GL270274  39.011  40.617   5.818
 5396POPC   C1A70275  39.421  40.786   6.244
 5396POPC   D2A70276  39.243  41.062   6.539
 5396POPC   C3A70277  39.213  40.958   6.969
 5396POPC   C4A70278  39.510  41.013   7.260
 5396POPC   C1B70279  38.885  40.829   6.240
 5396POPC   C2B70280  38.759  40.879   6.706
 5396POPC   C3B70281  38.828  40.642   7.118
 5396POPC   C4B70282  38.723  40.686   7.575
 5397POPC   NC370283  25.434  36.826   5.460
 5397POPC   PO470284  24.761  36.921   5.243
 5397POPC   GL170285  25.045  37.107   5.689
 5397POPC   GL270286  25.328  36.925   5.947
 5397POPC   C1A70287  25.157  37.372   6.090
 5397POPC   D2A70288  25.398  37.190   6.448
 5397POPC   C3A70289  25.160  37.132   6.838
 5397POPC   C4A70290  25.061  37.032   7.271
 5397POPC   C1B70291  25.152  36.663   6.287
 5397POPC   C2B70292  24.922  36.460   6.584
 5397POPC   C3B70293  24.961  36.624   6.958
 5397POPC   C4B70294  25.406  36.706   7.054
 5398POPC   NC370295   7.296  20.144   5.392
 5398POPC   PO470296   7.750  19.733   5.581
 5398POPC   GL170297   7.480  20.016   5.873
 5398POPC   GL270298   7.104  20.066   5.855
 5398POPC   C1A70299   7.460  20.038   6.333
 5398POPC   D2A70300   7.676  20.212   6.690
 5398POPC   C3A70301   7.357  20.196   7.030
 5398POPC   C4A70302   7.322  20.129   7.465
 5398POPC   C1B70303   6.956  19.875   6.257
 5398POPC   C2B70304   7.074  19.529   6.554
 5398POPC   C3B70305   6.959  19.537   6.995
 5398POPC   C4B70306   6.943  19.939   7.180
 5399POPC   NC370307  26.980  17.820   5.254
 5399POPC   PO470308  26.692  18.398   5.357
 5399POPC   GL170309  26.807  18.178   5.706
 5399POPC   GL270310  26.895  18.527   5.827
 5399POPC   C1A70311  26.685  18.164   6.152
 5399POPC   D2A70312  26.654  18.444   6.507
 5399POPC   C3A70313  26.965  18.352   6.819
 5399POPC   C4A70314  26.995  18.374   7.250
 5399POPC   C1B70315  27.062  18.573   6.229
 5399POPC   C2B70316  27.005  18.823   6.616
 5399POPC   C3B70317  27.132  18.849   7.068
 5399POPC   C4B70318  27.051  18.788   7.545
 5400POPC   NC370319  17.393  25.332   5.343
 5400POPC   PO470320  17.825  24.771   5.420
 5400POPC   GL170321  17.738  25.132   5.683
 5400POPC   GL270322  17.437  25.024   5.756
 5400POPC   C1A70323  17.607  25.422   6.064
 5400POPC   D2A70324  17.397  25.364   6.486
 5400POPC   C3A70325  17.543  25.378   6.906
 5400POPC   C4A70326  17.233  25.595   7.138
 5400POPC   C1B70327  17.590  24.945   6.226
 5400POPC   C2B70328  17.556  24.865   6.715
 5400POPC   C3B70329  17.447  24.918   7.189
 5400POPC   C4B70330  17.513  24.971   7.669
 5401POPC   NC370331  37.074  22.433   5.441
 5401POPC   PO470332  36.584  21.962   5.384
 5401POPC   GL170333  36.750  22.114   5.744
 5401POPC   GL270334  36.595  22.439   5.749
 5401POPC   C1A70335  36.864  21.915   6.135
 5401POPC   D2A70336  36.933  22.057   6.535
 5401POPC   C3A70337  36.769  21.916   6.922
 5401POPC   C4A70338  36.783  22.071   7.354
 5401POPC   C1B70339  36.868  22.491   6.099
 5401POPC   C2B70340  36.851  22.597   6.518
 5401POPC   C3B70341  36.859  22.428   6.927
 5401POPC   C4B70342  37.162  22.460   7.235
 5402POPC   NC370343  24.733  35.118   5.352
 5402POPC   PO470344  24.101  35.374   5.449
 5402POPC   GL170345  24.302  35.184   5.762
 5402POPC   GL270346  24.584  35.387   5.778
 5402POPC   C1A70347  24.369  35.116   6.211
 5402POPC   D2A70348  24.602  35.183   6.604
 5402POPC   C3A70349  24.543  35.029   7.017
 5402POPC   C4A70350  24.486  35.017   7.455
 5402POPC   C1B70351  24.803  35.384   6.169
 5402POPC   C2B70352  24.957  35.538   6.546
 5402POPC   C3B70353  24.710  35.623   6.895
 5402POPC   C4B70354  24.690  35.488   7.289
 5403POPC   NC370355  26.398  25.254   5.526
 5403POPC   PO470356  27.060  25.023   5.396
 5403POPC   GL170357  26.891  25.025   5.810
 5403POPC   GL270358  26.767  25.367   5.854
 5403POPC   C1A70359  26.958  25.143   6.265
 5403POPC   D2A70360  26.706  25.197   6.653
 5403POPC   C3A70361  26.876  25.043   7.049
 5403POPC   C4A70362  27.099  25.054   7.453
 5403POPC   C1B70363  26.528  25.469   6.238
 5403POPC   C2B70364  26.343  25.575   6.638
 5403POPC   C3B70365  26.563  25.532   7.040
 5403POPC   C4B70366  26.658  25.334   7.430
 5404POPC   NC370367  14.519   8.510   5.225
 5404POPC   PO470368  14.023   8.133   5.417
 5404POPC   GL170369  14.068   8.200   5.820
 5404POPC   GL270370  14.390   8.076   5.911
 5404POPC   C1A70371  13.972   8.002   6.205
 5404POPC   D2A70372  14.224   7.991   6.552
 5404POPC   C3A70373  14.102   8.107   6.959
 5404POPC   C4A70374  14.376   8.273   7.272
 5404POPC   C1B70375  14.645   8.189   6.296
 5404POPC   C2B70376  14.738   8.162   6.749
 5404POPC   C3B70377  14.845   8.032   7.176
 5404POPC   C4B70378  14.740   8.135   7.620
 5405POPC   NC370379  15.543   3.375   5.441
 5405POPC   PO470380  14.933   3.775   5.483
 5405POPC   GL170381  15.187   3.606   5.772
 5405POPC   GL270382  15.474   3.774   5.751
 5405POPC   C1A70383  15.160   3.577   6.191
 5405POPC   D2A70384  15.060   3.410   6.572
 5405POPC   C3A70385  15.027   3.587   6.970
 5405POPC   C4A70386  15.135   3.739   7.365
 5405POPC   C1B70387  15.649   3.451   6.090
 5405POPC   C2B70388  15.531   3.214   6.464
 5405POPC   C3B70389  15.488   3.328   6.894
 5405POPC   C4B70390  15.601   3.556   7.261
 5406POPC   NC370391  36.713  42.071   5.495
 5406POPC   PO470392  37.312  42.133   5.211
 5406POPC   GL170393  37.173  42.414   5.615
 5406POPC   GL270394  36.814  42.577   5.691
 5406POPC   C1A70395  37.180  42.483   6.104
 5406POPC   D2A70396  37.334  42.250   6.492
 5406POPC   C3A70397  37.042  42.046   6.816
 5406POPC   C4A70398  37.160  41.972   7.258
 5406POPC   C1B70399  36.648  42.472   6.125
 5406POPC   C2B70400  36.800  42.474   6.577
 5406POPC   C3B70401  36.853  42.498   7.037
 5406POPC   C4B70402  36.760  42.744   7.451
 5407POPC   NC370403  40.345  34.823   5.076
 5407POPC   PO470404  40.921  35.118   5.352
 5407POPC   GL170405  40.855  34.812   5.749
 5407POPC   GL270406  40.530  34.590   5.795
 5407POPC   C1A70407  40.665  34.878   6.194
 5407POPC   D2A70408  40.667  35.072   6.605
 5407POPC   C3A70409  40.502  34.919   7.008
 5407POPC   C4A70410  40.729  34.618   7.240
 5407POPC   C1B70411  40.564  34.385   6.262
 5407POPC   C2B70412  40.563  34.447   6.747
 5407POPC   C3B70413  40.421  34.242   7.154
 5407POPC   C4B70414  40.632  34.214   7.567
 5408POPC   NC370415   3.999  12.350   5.358
 5408POPC   PO470416   3.436  11.894   5.338
 5408POPC   GL170417   3.677  11.744   5.747
 5408POPC   GL270418   3.945  11.944   5.697
 5408POPC   C1A70419   3.500  11.774   6.204
 5408POPC   D2A70420   3.265  12.106   6.428
 5408POPC   C3A70421   3.242  12.075   6.882
 5408POPC   C4A70422   3.445  11.945   7.254
 5408POPC   C1B70423   3.756  12.184   6.048
 5408POPC   C2B70424   3.756  12.175   6.530
 5408POPC   C3B70425   3.867  12.144   6.992
 5408POPC   C4B70426   3.841  12.236   7.490
 5409POPC   NC370427  34.082  18.051   5.032
 5409POPC   PO470428  33.489  17.957   5.460
 5409POPC   GL170429  33.754  18.218   5.740
 5409POPC   GL270430  34.070  18.297   5.570
 5409POPC   C1A70431  33.739  18.262   6.199
 5409POPC   D2A70432  33.840  18.122   6.641
 5409POPC   C3A70433  33.558  17.941   6.917
 5409POPC   C4A70434  33.580  18.231   7.261
 5409POPC   C1B70435  34.179  18.452   5.998
 5409POPC   C2B70436  34.131  18.494   6.456
 5409POPC   C3B70437  34.290  18.300   6.842
 5409POPC   C4B70438  34.249  18.355   7.293
 5410POPC   NC370439   1.701  32.411   5.365
 5410POPC   PO470440   2.255  32.219   5.486
 5410POPC   GL170441   2.079  32.438   5.832
 5410POPC   GL270442   2.382  32.568   5.928
 5410POPC   C1A70443   2.071  32.570   6.322
 5410POPC   D2A70444   2.313  32.529   6.716
 5410POPC   C3A70445   1.982  32.425   7.042
 5410POPC   C4A70446   1.572  32.466   7.243
 5410POPC   C1B70447   2.280  32.136   6.194
 5410POPC   C2B70448   2.126  32.055   6.656
 5410POPC   C3B70449   2.286  32.008   7.104
 5410POPC   C4B70450   2.284  31.744   7.509
 5411POPC   NC370451  36.357  35.066   5.563
 5411POPC   PO470452  35.710  35.033   5.351
 5411POPC   GL170453  35.885  35.078   5.774
 5411POPC   GL270454  36.091  35.401   5.823
 5411POPC   C1A70455  36.044  34.986   6.203
 5411POPC   D2A70456  36.082  35.231   6.588
 5411POPC   C3A70457  36.268  35.107   6.983
 5411POPC   C4A70458  36.433  35.393   7.279
 5411POPC   C1B70459  36.233  35.605   6.208
 5411POPC   C2B70460  36.171  35.750   6.650
 5411POPC   C3B70461  36.017  35.575   7.046
 5411POPC   C4B70462  35.732  35.213   7.046
 5412POPC   NC370463  12.937  14.062   5.338
 5412POPC   PO470464  12.785  14.723   5.300
 5412POPC   GL170465  13.008  14.489   5.689
 5412POPC   GL270466  13.046  14.099   5.816
 5412POPC   C1A70467  13.043  14.462   6.171
 5412POPC   D2A70468  12.710  14.421   6.498
 5412POPC   C3A70469  12.724  14.625   6.914
 5412POPC   C4A70470  13.063  14.565   7.162
 5412POPC   C1B70471  12.823  13.997   6.175
 5412POPC   C2B70472  13.027  14.004   6.549
 5412POPC   C3B70473  12.868  14.132   6.904
 5412POPC   C4B70474  12.944  14.026   7.273
 5413POPC   NC370475  44.275  33.983   5.424
 5413POPC   PO470476  43.603  33.831   5.257
 5413POPC   GL170477  43.837  33.681   5.648
 5413POPC   GL270478  44.057  33.839   5.845
 5413POPC   C1A70479  43.787  33.490   6.078
 5413POPC   D2A70480  43.611  33.562   6.485
 5413POPC   C3A70481  43.805  33.874   6.730
 5413POPC   C4A70482  43.735  33.809   7.153
 5413POPC   C1B70483  44.145  33.822   6.285
 5413POPC   C2B70484  44.299  33.631   6.648
 5413POPC   C3B70485  44.240  33.743   7.058
 5413POPC   C4B70486  44.506  33.976   7.253
 5414POPC   NC370487  34.876   2.979   5.484
 5414POPC   PO470488  35.491   3.296   5.326
 5414POPC   GL170489  35.357   3.511   5.687
 5414POPC   GL270490  35.052   3.347   5.781
 5414POPC   C1A70491  35.292   3.626   6.129
 5414POPC   D2A70492  35.409   3.743   6.512
 5414POPC   C3A70493  35.606   3.626   6.835
 5414POPC   C4A70494  35.404   3.543   7.174
 5414POPC   C1B70495  35.118   3.160   6.214
 5414POPC   C2B70496  35.250   3.278   6.681
 5414POPC   C3B70497  35.050   3.164   7.092
 5414POPC   C4B70498  34.872   3.103   7.569
 5415POPC   NC370499  14.969  25.592   5.410
 5415POPC   PO470500  15.370  25.107   5.343
 5415POPC   GL170501  15.116  25.195   5.739
 5415POPC   GL270502  14.754  25.212   5.724
 5415POPC   C1A70503  15.132  25.333   6.212
 5415POPC   D2A70504  15.218  25.564   6.625
 5415POPC   C3A70505  15.224  25.357   7.038
 5415POPC   C4A70506  15.347  25.358   7.492
 5415POPC   C1B70507  14.629  25.330   6.186
 5415POPC   C2B70508  14.672  25.532   6.596
 5415POPC   C3B70509  14.658  25.363   7.016
 5415POPC   C4B70510  14.868  25.253   7.398
 5416POPC   NC370511  27.752  18.366   5.494
 5416POPC   PO470512  27.432  17.725   5.374
 5416POPC   GL170513  27.489  18.027   5.778
 5416POPC   GL270514  27.729  17.886   5.996
 5416POPC   C1A70515  27.534  18.314   6.198
 5416POPC   D2A70516  27.423  18.531   6.618
 5416POPC   C3A70517  27.466  18.375   7.061
 5416POPC   C4A70518  27.432  18.412   7.529
 5416POPC   C1B70519  27.955  18.019   6.315
 5416POPC   C2B70520  27.882  18.302   6.650
 5416POPC   C3B70521  27.960  18.219   7.070
 5416POPC   C4B70522  27.759  18.051   7.439
 5417POPC   NC370523  29.636   4.148   5.306
 5417POPC   PO470524  30.327   4.313   5.413
 5417POPC   GL170525  30.096   4.239   5.791
 5417POPC   GL270526  29.705   4.264   5.799
 5417POPC   C1A70527  30.009   4.351   6.226
 5417POPC   D2A70528  29.858   4.635   6.521
 5417POPC   C3A70529  30.050   4.516   6.894
 5417POPC   C4A70530  30.183   4.440   7.295
 5417POPC   C1B70531  29.518   4.143   6.196
 5417POPC   C2B70532  29.680   4.113   6.619
 5417POPC   C3B70533  29.693   4.085   7.059
 5417POPC   C4B70534  29.346   4.099   7.375
 5418POPC   NC370535  15.253   1.008   5.350
 5418POPC   PO470536  15.211   1.710   5.551
 5418POPC   GL170537  15.117   1.286   5.766
 5418POPC   GL270538  14.965   0.910   5.785
 5418POPC   C1A70539  15.324   1.081   6.116
 5418POPC   D2A70540  15.507   1.230   6.502
 5418POPC   C3A70541  15.303   1.246   6.887
 5418POPC   C4A70542  15.297   1.018   7.243
 5418POPC   C1B70543  14.786   1.003   6.202
 5418POPC   C2B70544  14.885   1.335   6.540
 5418POPC   C3B70545  14.856   1.474   6.985
 5418POPC   C4B70546  14.765   1.173   7.307
 5419POPC   NC370547  23.150  28.980   5.340
 5419POPC   PO470548  22.496  29.096   5.385
 5419POPC   GL170549  22.761  29.049   5.762
 5419POPC   GL270550  23.049  28.794   5.802
 5419POPC   C1A70551  22.851  29.255   6.154
 5419POPC   D2A70552  22.739  29.423   6.548
 5419POPC   C3A70553  22.898  29.310   6.932
 5419POPC   C4A70554  22.817  28.958   7.231
 5419POPC   C1B70555  22.930  28.751   6.234
 5419POPC   C2B70556  22.900  28.884   6.671
 5419POPC   C3B70557  23.254  28.810   6.968
 5419POPC   C4B70558  23.266  28.724   7.439
 5420POPC   NC370559  39.566  32.623   5.111
 5420POPC   PO470560  38.995  32.986   5.373
 5420POPC   GL170561  39.256  32.872   5.721
 5420POPC   GL270562  39.055  32.670   5.931
 5420POPC   C1A70563  39.536  32.926   6.112
 5420POPC   D2A70564  39.635  33.058   6.556
 5420POPC   C3A70565  39.356  32.855   6.822
 5420POPC   C4A70566  39.290  32.573   7.134
 5420POPC   C1B70567  39.042  32.990   6.265
 5420POPC   C2B70568  38.896  33.087   6.689
 5420POPC   C3B70569  38.928  33.010   7.086
 5420POPC   C4B70570  39.271  33.297   7.105
 5421POPC   NC370571  15.994   2.603   5.304
 5421POPC   PO470572  15.974   3.196   5.558
 5421POPC   GL170573  15.949   2.823   5.806
 5421POPC   GL270574  16.203   2.532   5.787
 5421POPC   C1A70575  15.701   2.803   6.183
 5421POPC   D2A70576  15.589   2.644   6.586
 5421POPC   C3A70577  15.788   2.702   7.006
 5421POPC   C4A70578  15.643   3.021   7.317
 5421POPC   C1B70579  16.188   2.655   6.258
 5421POPC   C2B70580  16.261   2.608   6.715
 5421POPC   C3B70581  16.369   2.543   7.130
 5421POPC   C4B70582  16.231   2.298   7.478
 5422POPC   NC370583  26.193  15.487   5.345
 5422POPC   PO470584  26.846  15.256   5.323
 5422POPC   GL170585  26.649  15.132   5.686
 5422POPC   GL270586  26.941  14.931   5.696
 5422POPC   C1A70587  26.637  15.325   6.118
 5422POPC   D2A70588  26.755  15.527   6.480
 5422POPC   C3A70589  26.705  15.257   6.823
 5422POPC   C4A70590  26.661  15.297   7.224
 5422POPC   C1B70591  27.118  15.156   6.030
 5422POPC   C2B70592  27.046  15.112   6.478
 5422POPC   C3B70593  27.173  15.168   6.956
 5422POPC   C4B70594  27.057  14.970   7.382
 5423POPC   NC370595  43.155  41.189   5.449
 5423POPC   PO470596  43.380  41.835   5.337
 5423POPC   GL170597  43.169  41.639   5.718
 5423POPC   GL270598  43.361  41.395   5.923
 5423POPC   C1A70599  42.827  41.731   6.029
 5423POPC   D2A70600  42.764  41.768   6.476
 5423POPC   C3A70601  43.053  41.524   6.788
 5423POPC   C4A70602  42.942  41.341   7.183
 5423POPC   C1B70603  43.254  41.671   6.296
 5423POPC   C2B70604  43.237  41.973   6.654
 5423POPC   C3B70605  43.339  41.881   7.113
 5423POPC   C4B70606  43.471  41.778   7.592
 5424POPC   NC370607  36.825  19.573   5.348
 5424POPC   PO470608  36.635  20.131   5.427
 5424POPC   GL170609  36.860  19.843   5.774
 5424POPC   GL270610  37.179  19.647   5.732
 5424POPC   C1A70611  36.962  19.937   6.195
 5424POPC   D2A70612  36.819  20.151   6.561
 5424POPC   C3A70613  37.024  19.972   6.910
 5424POPC   C4A70614  36.824  19.674   7.160
 5424POPC   C1B70615  37.184  19.475   6.168
 5424POPC   C2B70616  37.055  19.536   6.616
 5424POPC   C3B70617  37.237  19.441   7.046
 5424POPC   C4B70618  37.332  19.821   7.313
 5425POPC   NC370619  30.996  31.988   5.529
 5425POPC   PO470620  30.374  31.926   5.485
 5425POPC   GL170621  30.419  32.279   5.782
 5425POPC   GL270622  30.759  32.247   5.929
 5425POPC   C1A70623  30.406  32.440   6.226
 5425POPC   D2A70624  30.769  32.411   6.533
 5425POPC   C3A70625  30.671  32.571   6.947
 5425POPC   C4A70626  30.375  32.429   7.251
 5425POPC   C1B70627  30.578  31.977   6.287
 5425POPC   C2B70628  30.610  31.989   6.764
 5425POPC   C3B70629  30.800  32.132   7.157
 5425POPC   C4B70630  31.090  32.154   7.506
 5426POPC   NC370631   7.838  33.776   5.569
 5426POPC   PO470632   8.483  33.929   5.393
 5426POPC   GL170633   8.247  33.998   5.757
 5426POPC   GL270634   8.270  33.675   5.852
 5426POPC   C1A70635   8.006  33.978   6.170
 5426POPC   D2A70636   8.066  33.810   6.588
 5426POPC   C3A70637   7.939  33.971   6.991
 5426POPC   C4A70638   8.110  34.072   7.388
 5426POPC   C1B70639   8.308  33.473   6.254
 5426POPC   C2B70640   8.178  33.323   6.660
 5426POPC   C3B70641   8.162  33.511   7.061
 5426POPC   C4B70642   8.081  33.552   7.513
 5427POPC   NC370643  12.826   0.161   5.313
 5427POPC   PO470644  12.396   0.644   5.242
 5427POPC   GL170645  12.599   0.480   5.687
 5427POPC   GL270646  12.716   0.097   5.805
 5427POPC   C1A70647  12.578   0.616   6.149
 5427POPC   D2A70648  12.552   0.875   6.538
 5427POPC   C3A70649  12.581   0.705   6.939
 5427POPC   C4A70650  12.739   0.587   7.337
 5427POPC   C1B70651  12.950   0.271   6.166
 5427POPC   C2B70652  12.920   0.503   6.570
 5427POPC   C3B70653  12.886   0.287   6.947
 5427POPC   C4B70654  12.874   0.094   7.341
 5428W        W70655  26.324  43.829   2.165
 5429W        W70656  13.285   4.934   0.550
 5430W        W70657  27.506  10.396   0.702
 5431W        W70658  16.530   8.140   3.726
 5432W        W70659  42.365  44.771   0.409
 5433W        W70660  38.181  27.636   2.289
 5434W        W70661  35.593  34.717   4.416
 5435W        W70662  10.270   3.031  12.473
 5436W        W70663  37.943  33.281  13.045
 5437W        W70664  19.203   1.340   0.018
 5438W        W70665  32.402   3.078   4.602
 5439W        W70666  18.159  18.119  14.096
 5440W        W70667  34.912  37.821   2.066
 5441W        W70668  33.587  25.155   0.913
 5442W        W70669  15.287  23.012   1.705
 5443W        W70670  38.976  33.046  13.433
 5444W        W70671  10.212  19.239  14.460
 5445W        W70672  30.176  18.812  14.440
 5446W        W70673  18.561  44.175   2.290
 5447W        W70674  34.624  12.387  14.763
 5448W        W70675  35.050   9.643   4.104
 5449W        W70676  38.797  38.917  13.520
 5450W        W70677   6.500  28.015   0.866
 5451W        W70678  36.162  32.228   0.799
 5452W        W70679  37.635  28.798  12.633
 5453W        W70680  22.681  10.813  11.760
 5454W        W70681  38.399  15.711  11.870
 5455W        W70682   9.624   2.254  14.911
 5456W        W70683  26.875   1.034  13.554
 5457W        W70684  40.554  37.418  12.375
 5458W        W70685  23.150  21.114   0.498
 5459W        W70686  18.115  15.227  11.478
 5460W        W70687  21.977   0.622  11.546
 5461W        W70688   8.851  19.773  11.571
 5462W        W70689  38.329  29.594   0.625
 5463W        W70690  37.297  13.325  13.302
 5464W        W70691  29.695  29.744   4.239
 5465W        W70692  14.265  17.763  14.999
 5466W        W70693  16.962   1.708  11.621
 5467W        W70694  12.173  29.466  10.963
 5468W        W70695   1.172  36.164   5.000
 5469W        W70696  16.703  36.820  12.845
 5470W        W70697  20.003  26.725   2.318
 5471W        W70698  34.552   4.431   4.328
 5472W        W70699   8.243  20.893  11.231
 5473W        W70700  25.292  32.734   0.226
 5474W        W70701  27.774  17.275  12.546
 5475W        W70702  17.793  17.240  14.888
 5476W        W70703  38.692  39.819   1.254
 5477W        W70704  13.058  40.365   2.768
 5478W        W70705   5.548  14.047  11.136
 5479W        W70706   8.905  40.371   5.133
 5480W        W70707  20.451  21.516  11.802
 5481W        W70708  28.061   3.824  10.613
 5482W        W70709  21.700  21.977   3.278
 5483W        W70710  12.243  35.175   4.099
 5484W        W70711   6.822  40.892  11.085
 5485W        W70712  13.813  44.840   1.663
 5486W        W70713  39.875  17.203  11.658
 5487W        W70714  28.080  22.143   2.568
 5488W        W70715   0.178  32.243  14.454
 5489W        W70716  10.302  32.635  13.747
 5490W        W70717   8.473   5.170   4.111
 5491W        W70718  37.673  24.214   0.890
 5492W        W70719  22.756  25.387   0.326
 5493W        W70720  18.861  37.336   4.988
 5494W        W70721  21.520  41.325  10.409
 5495W        W70722   9.131  29.066  11.526
 5496W        W70723   0.389  16.356  12.890
 5497W        W70724   0.320  10.223   0.249
 5498W        W70725   0.720  44.686  14.165
 5499W        W70726  34.205  43.114  13.567
 5500W        W70727  39.042  35.783   3.527
 5501W        W70728  29.027   2.007  13.954
 5502W        W70729  15.598   4.620   0.921
 5503W        W70730  19.011  20.155   1.546
 5504W        W70731  37.427   2.269   0.284
 5505W        W70732  30.444  18.510   3.109
 5506W        W70733  13.866  16.602  11.178
 5507W        W70734  27.482  13.557   0.835
 5508W        W70735   7.335  34.622  12.441
 5509W        W70736   1.663  17.580  12.583
 5510W        W70737  30.490  29.080  11.509
 5511W        W70738   5.514  23.720   2.750
 5512W        W70739  33.446  11.733   3.999
 5513W        W70740  22.729  34.940   2.377
 5514W        W70741  15.761  32.644  10.661
 5515W        W70742  14.339  31.834   4.129
 5516W        W70743   5.012  21.697  10.613
 5517W        W70744  13.811  33.307  13.488
 5518W        W70745  19.937   6.292  13.712
 5519W        W70746   1.417  30.954  12.858
 5520W        W70747   9.295  35.374   0.561
 5521W        W70748   5.843  35.050   4.422
 5522W        W70749  22.148  19.275   4.274
 5523W        W70750   0.997   0.845   3.246
 5524W        W70751  33.640  26.401  11.584
 5525W        W70752  31.689  41.159  11.844
 5526W        W70753  30.420  31.833   2.269
 5527W        W70754   2.794  25.084  13.773
 5528W        W70755  25.672  44.261   0.416
 5529W        W70756  29.387  34.526   1.805
 5530W        W70757   4.847   0.231  12.502
 5531W        W70758  44.328  21.870  11.802
 5532W        W70759  14.192  36.305  13.940
 5533W        W70760  29.202   1.912   3.083
 5534W        W70761  35.556   2.859   3.218
 5535W        W70762  11.628  10.147  12.567
 5536W        W70763  17.787   4.566   3.801
 5537W        W70764  40.105   5.659  12.023
 5538W        W70765   3.835  24.267  13.474
 5539W        W70766   7.923  20.403   4.268
 5540W        W70767  39.027  43.257   5.182
 5541W        W70768  23.153   6.075  12.548
 5542W        W70769  33.486  34.675   4.794
 5543W        W70770  30.597   5.147  13.921
 5544W        W70771   0.704   5.865  12.106
 5545W        W70772  27.443  30.871   0.367
 5546W        W70773  35.457   2.389  14.184
 5547W        W70774   0.983  38.787  10.735
 5548W        W70775  12.139   0.720   1.348
 5549W        W70776  26.005  43.945  13.667
 5550W        W70777  21.939   1.901   4.495
 5551W        W70778  29.771  21.137  12.812
 5552W        W70779   5.924   2.741   2.766
 5553W        W70780   0.108   1.256   0.334
 5554W        W70781  24.821  39.013  12.028
 5555W        W70782  40.298  42.019  12.976
 5556W        W70783  29.590  11.872  14.329
 5557W        W70784   6.227  11.079  11.280
 5558W        W70785  40.909   1.225   3.536
 5559W        W70786  35.391  16.544   4.595
 5560W        W70787  40.294  38.886   1.800
 5561W        W70788  34.954  24.506  11.583
 5562W        W70789  20.192  32.909   1.754
 5563W        W70790  13.069   7.145   0.842
 5564W        W70791  35.948  31.520   1.892
 5565W        W70792  25.800  27.172  10.748
 5566W        W70793  12.908  42.694   2.773
 5567W        W70794  15.671  27.959  11.564
 5568W        W70795  20.142   2.249  13.739
 5569W        W70796  12.732  24.491  11.585
 5570W        W70797  44.961  12.219   2.859
 5571W        W70798   7.450   9.860  13.129
 5572W        W70799   7.664   9.909   1.871
 5573W        W70800  16.799  13.866  14.274
 5574W        W70801   0.566   2.307   0.871
 5575W        W70802   3.413  42.671  12.094
 5576W        W70803  32.657  15.110   3.493
 5577W        W70804  20.498  30.079   2.331
 5578W        W70805  18.387  19.742   0.946
 5579W        W70806  16.900  44.951   0.842
 5580W        W70807  25.647  24.605   2.602
 5581W        W70808  14.347  13.263  12.912
 5582W        W70809   8.288  10.649   4.859
 5583W        W70810  17.567  25.717   4.719
 5584W        W70811  30.410  38.878  11.570
 5585W        W70812  32.223  31.639   4.552
 5586W        W70813  20.157   1.708   5.013
 5587W        W70814  30.527  43.922   0.848
 5588W        W70815  13.458  38.991  13.141
 5589W        W70816  20.101   9.607  14.580
 5590W        W70817  20.452  17.796  13.318
 5591W        W70818  32.960  27.037  13.579
 5592W        W70819  32.113   2.964   1.636
 5593W        W70820  25.250  26.896  13.954
 5594W        W70821   5.535   8.823   0.796
 5595W        W70822  38.470  43.920  12.474
 5596W        W70823  26.126  11.654  14.874
 5597W        W70824  21.285  13.340   3.575
 5598W        W70825   7.345  27.871   2.772
 5599W        W70826  13.571  20.146   2.150
 5600W        W70827  38.997  32.104   0.440
 5601W        W70828  38.129   3.337  14.962
 5602W        W70829  44.420  41.395  14.893
 5603W        W70830  19.206  23.969  13.582
 5604W        W70831   1.227  43.532  13.537
 5605W        W70832  21.734   0.675   2.644
 5606W        W70833  38.676  30.441  13.878
 5607W        W70834  12.902  35.922   1.160
 5608W        W70835  24.034  33.972   3.184
 5609W        W70836   4.803  37.965   4.690
 5610W        W70837   3.325  11.940  12.532
 5611W        W70838  11.137  19.186   4.023
 5612W        W70839  23.042   3.380  12.888
 5613W        W70840  28.413  31.166   0.509
 5614W        W70841  25.762   8.735   1.873
 5615W        W70842  43.316  12.763  12.230
 5616W        W70843  20.961  15.793   1.603
 5617W        W70844  23.982  40.104  11.092
 5618W        W70845  24.354  25.648  14.796
 5619W        W70846  21.715  24.665  13.387
 5620W        W70847  35.916  33.430  10.518
 5621W        W70848  13.721   4.587  14.775
 5622W        W70849  29.183  20.791  13.436
 5623W        W70850   6.368  17.539   3.212
 5624W        W70851   6.775  37.053  12.998
 5625W        W70852  37.734  10.345   4.588
 5626W        W70853  14.746  17.798  14.250
 5627W        W70854  41.865   1.679   2.561
 5628W        W70855  40.992  36.618  14.121
 5629W        W70856  10.716  39.752   4.334
 5630W        W70857  22.287  40.404  10.851
 5631W        W70858  31.015  17.013   3.725
 5632W        W70859   6.235   7.967   2.307
 5633W        W70860   9.596  10.618   4.184
 5634W        W70861  16.424   1.831  12.782
 5635W        W70862  29.999  17.313  13.558
 5636W        W70863  43.058  10.067  10.136
 5637W        W70864  14.245  13.880   0.297
 5638W        W70865  17.012  36.392  12.766
 5639W        W70866   2.488   9.178  13.584
 5640W        W70867  17.526   7.369  10.727
 5641W        W70868  27.692  44.275   1.862
 5642W        W70869  29.597  16.968  11.151
 5643W        W70870   8.796   0.247   4.806
 5644W        W70871  17.314   7.194   2.220
 5645W        W70872  29.065  40.693  11.497
 5646W        W70873  24.193   9.903   4.240
 5647W        W70874  17.332  11.734   3.578
 5648W        W70875  41.333  38.207  11.527
 5649W        W70876  21.846   2.576  14.335
 5650W        W70877  10.708   0.430  14.757
 5651W        W70878  10.237  24.756   2.297
 5652W        W70879  34.154  10.601   0.922
 5653W        W70880  10.690  28.387   1.207
 5654W        W70881  38.679  34.167  13.638
 5655W        W70882  27.407   7.599  11.942
 5656W        W70883  13.182   3.723   2.234
 5657W        W70884   4.686  17.799   1.872
 5658W        W70885  25.352  29.007  10.767
 5659W        W70886  23.649  29.558   4.594
 5660W        W70887  35.582  33.820   1.360
 5661W        W70888  37.943  15.079  14.421
 5662W        W70889  21.081  16.605  12.708
 5663W        W70890   8.535  39.590  11.568
 5664W        W70891  34.109  14.156  11.590
 5665W        W70892  27.773  32.003  12.902
 5666W        W70893  24.496  37.339   2.363
 5667W        W70894  10.240   4.015  14.542
 5668W        W70895  28.242  10.641   1.890
 5669W        W70896  19.263  16.240   3.893
 5670W        W70897  28.079   3.759   2.730
 5671W        W70898  31.498   6.173  14.113
 5672W        W70899  18.018  20.783   1.477
 5673W        W70900   1.077  35.381   2.289
 5674W        W70901   4.754   2.878  10.343
 5675W        W70902  14.221  41.847  12.319
 5676W        W70903  28.143   2.321   4.544
 5677W        W70904   6.948   6.873   1.989
 5678W        W70905  32.081  39.108   4.497
 5679W        W70906  25.109  15.546  11.818
 5680W        W70907  24.761  12.937  13.096
 5681W        W70908  40.862  10.762   4.133
 5682W        W70909   0.302  17.410  11.882
 5683W        W70910  44.903  31.084  11.150
 5684W        W70911  12.762  22.740  13.721
 5685W        W70912  33.090  31.094   3.666
 5686W        W70913  38.620  22.152  12.049
 5687W        W70914  24.369  42.335   2.226
 5688W        W70915  18.348  10.438  10.812
 5689W        W70916  43.696  29.987   2.382
 5690W        W70917  38.447  17.898  11.143
 5691W        W70918  13.219   0.848  13.544
 5692W        W70919  12.795  44.498   2.467
 5693W        W70920  42.065  41.225   3.829
 5694W        W70921  25.208  35.552   1.307
 5695W        W70922  23.166  17.254  13.121
 5696W        W70923  11.530  38.886  12.873
 5697W        W70924  44.946  23.450  10.279
 5698W        W70925   6.910  10.186   3.880
 5699W        W70926  43.386  37.138  13.671
 5700W        W70927  14.223  17.628  14.500
 5701W        W70928  43.758  12.621   2.256
 5702W        W70929  43.522  41.665   2.663
 5703W        W70930  14.846  38.045  13.371
 5704W        W70931  43.202  37.358  11.986
 5705W        W70932  35.395  34.456  13.569
 5706W        W70933  33.626  32.954  14.857
 5707W        W70934  23.279  15.818   1.543
 5708W        W70935  21.053  22.124   0.055
 5709W        W70936  28.951   2.686   3.568
 5710W        W70937  35.033   2.104   1.735
 5711W        W70938  35.906  34.301  13.579
 5712W        W70939  21.553  39.952   0.470
 5713W        W70940   1.457  12.290   0.279
 5714W        W70941  16.505  10.257   3.799
 5715W        W70942  19.716  42.585  13.919
 5716W        W70943   2.846   7.994   2.932
 5717W        W70944  35.411  37.122   1.902
 5718W        W70945  10.967  37.429  12.804
 5719W        W70946  37.441   2.992  11.478
 5720W        W70947   3.780  32.604   3.456
 5721W        W70948   3.341  36.091   3.768
 5722W        W70949  38.787  44.972  11.166
 5723W        W70950  41.816  24.890   1.901
 5724W        W70951  33.425   5.131  12.195
 5725W        W70952   9.617  14.280  11.635
 5726W        W70953   4.500   5.533   1.462
 5727W        W70954  13.561   2.008  14.875
 5728W        W70955  32.194  31.896   3.276
 5729W        W70956  12.112  33.437  11.244
 5730W        W70957  26.520  34.457  11.564
 5731W        W70958  33.583  35.334  13.258
 5732W        W70959   0.102   1.928   0.890
 5733W        W70960  15.755  10.264   0.376
 5734W        W70961  42.290  35.136  11.138
 5735W        W70962  24.786   4.044  10.538
 5736W        W70963   0.121  22.117   0.062
 5737W        W70964  40.742  41.949   2.779
 5738W        W70965  41.061   4.861   0.472
 5739W        W70966  23.942   2.800   0.912
 5740W        W70967  44.021  42.885  14.445
 5741W        W70968   7.772  24.418  12.513
 5742W        W70969  41.253  43.384  14.946
 5743W        W70970  31.899  34.350   2.453
 5744W        W70971  22.178  40.885  14.470
 5745W        W70972  41.758   3.871  14.913
 5746W        W70973  16.796  18.111   0.986
 5747W        W70974  24.685   2.640   4.493
 5748W        W70975  28.086  31.967   0.369
 5749W        W70976  22.856  28.593  14.291
 5750W        W70977  21.752  17.673   3.761
 5751W        W70978   6.613  26.642   1.832
 5752W        W70979  28.472   4.682  11.631
 5753W        W70980  24.445  18.908  13.703
 5754W        W70981  35.581   7.031  12.058
 5755W        W70982   5.702  10.161   1.889
 5756W        W70983   8.333  23.701  13.521
 5757W        W70984  28.173  39.523   4.015
 5758W        W70985  22.901   2.720   4.607
 5759W        W70986   8.666  24.222   4.560
 5760W        W70987  30.339  11.111   2.188
 5761W        W70988   0.389   5.399  14.870
 5762W        W70989   7.921  20.769   0.246
 5763W        W70990   7.455  20.742  14.734
 5764W        W70991  15.179  21.844  13.379
 5765W        W70992  38.305  41.014   4.654
 5766W        W70993  36.220  27.491  11.751
 5767W        W70994  31.495   9.749  11.775
 5768W        W70995   3.939  24.775   3.869
 5769W        W70996   4.166  20.020   3.723
 5770W        W70997  21.059  40.974  10.541
 5771W        W70998   5.983   3.844   4.132
 5772W        W70999   5.192   8.799  12.364
 5773W        W71000  12.439   7.274   2.348
 5774W        W71001  38.876   1.155   3.729
 5775W        W71002  38.358  33.859   4.384
 5776W        W71003  13.966  42.830   2.826
 5777W        W71004  10.086  42.844   1.385
 5778W        W71005   5.392  35.467   3.292
 5779W        W71006   4.103  13.353  12.640
 5780W        W71007  41.004   6.188  13.055
 5781W        W71008  18.646   2.550  14.849
 5782W        W71009  20.516   4.541   2.760
 5783W        W71010   8.176  32.893  12.547
 5784W        W71011  15.469  38.302  12.478
 5785W        W71012  30.670  20.833  12.415
 5786W        W71013  41.563  40.380  12.564
 5787W        W71014  31.629  36.911   0.217
 5788W        W71015  24.109  35.097  11.232
 5789W        W71016  40.049  34.081   4.487
 5790W        W71017  34.395  39.981   2.843
 5791W        W71018  39.855  12.071  14.444
 5792W        W71019  15.812  32.227   4.144
 5793W        W71020  36.781  18.588   0.534
 5794W        W71021   6.401  31.375   0.942
 5795W        W71022  42.569  34.786   0.813
 5796W        W71023   2.910  41.787   9.546
 5797W        W71024  20.706  22.481  13.898
 5798W        W71025   3.183  28.634   0.929
 5799W        W71026  29.917  33.159  10.882
 5800W        W71027  15.186   8.472   1.277
 5801W        W71028  44.444  16.801   3.366
 5802W        W71029  33.894  13.103   3.893
 5803W        W71030  24.714   8.112  11.200
 5804W        W71031   7.817   5.253  14.974
 5805W        W71032  20.024   7.243   3.159
 5806W        W71033  33.100  14.759  12.071
 5807W        W71034  30.943  31.478  14.535
 5808W        W71035  39.417   3.694  14.796
 5809W        W71036   9.307   3.441  12.591
 5810W        W71037  37.500   5.543  13.192
 5811W        W71038  24.764   3.748   2.208
 5812W        W71039  36.537  23.454   3.868
 5813W        W71040  29.614  35.083  14.158
 5814W        W71041  28.126   1.728  12.574
 5815W        W71042   7.224  27.522  10.887
 5816W        W71043  26.716  36.313   4.677
 5817W        W71044  21.579  39.096  10.269
 5818W        W71045  29.514  35.924  11.165
 5819W        W71046  24.705  22.393  12.501
 5820W        W71047  44.750  21.317   3.357
 5821W        W71048  11.915  43.946  14.845
 5822W        W71049  31.585  21.494  13.631
 5823W        W71050  20.556  19.304  11.599
 5824W        W71051   1.495   4.587   3.357
 5825W        W71052  13.152  33.927   2.704
 5826W        W71053  27.924  43.781   3.106
 5827W        W71054  16.807  18.035   3.302
 5828W        W71055  12.321  41.615   1.720
 5829W        W71056  38.316  20.073  13.379
 5830W        W71057  39.486  40.972  14.137
 5831W        W71058  31.524  21.150   2.210
 5832W        W71059   3.721  16.839  10.601
 5833W        W71060  10.636  10.643  13.787
 5834W        W71061  38.338  36.328   1.752
 5835W        W71062   9.786   9.693   2.136
 5836W        W71063  20.901  34.438  11.220
 5837W        W71064  39.057  12.571  10.776
 5838W        W71065  44.437  18.421   2.400
 5839W        W71066  12.370  42.572   3.640
 5840W        W71067  40.285   5.393   1.399
 5841W        W71068   9.233  16.874   2.645
 5842W        W71069  12.238   5.127  12.150
 5843W        W71070   4.315   3.810  13.493
 5844W        W71071   2.316  16.185  12.480
 5845W        W71072  33.487  16.221  12.997
 5846W        W71073   1.799  20.221   2.660
 5847W        W71074  30.543  33.437   3.990
 5848W        W71075  14.635  17.360   3.106
 5849W        W71076  25.878  21.065   3.586
 5850W        W71077   5.374  23.292   3.757
 5851W        W71078  38.743  32.368  13.937
 5852W        W71079   4.146  21.066  13.772
 5853W        W71080  38.023  18.145   0.222
 5854W        W71081  12.418  34.193   2.182
 5855W        W71082   3.092  31.876  13.232
 5856W        W71083   1.007   6.173   4.136
 5857W        W71084  41.019   1.679   3.771
 5858W        W71085   5.717  40.277   1.817
 5859W        W71086  31.800  38.994  11.286
 5860W        W71087  20.435  32.686   3.120
 5861W        W71088  25.264  30.027   3.210
 5862W        W71089   7.221   0.879   1.269
 5863W        W71090  17.576   6.663   0.068
 5864W        W71091   6.178  12.067  10.590
 5865W        W71092   8.614  29.216   2.285
 5866W        W71093  37.932  32.655   2.805
 5867W        W71094  14.430  25.199   0.907
 5868W        W71095  22.277  25.642   0.055
 5869W        W71096   8.302  20.356  13.248
 5870W        W71097  23.771  43.025   1.785
 5871W        W71098  15.733   0.865   1.443
 5872W        W71099  24.849   7.602   1.887
 5873W        W71100  15.840  42.128   2.612
 5874W        W71101  42.944  20.165  14.258
 5875W        W71102  19.463  28.418  12.882
 5876W        W71103  31.528  17.245  13.438
 5877W        W71104  40.091  21.675   4.079
 5878W        W71105  26.960  40.803   4.918
 5879W        W71106  18.619  34.702  10.753
 5880W        W71107   8.008  39.565  11.441
 5881W        W71108   1.856  35.198  12.848
 5882W        W71109  27.160  23.172   1.930
 5883W        W71110  29.993  33.558  12.498
 5884W        W71111  17.087   5.716  10.805
 5885W        W71112   6.325  35.160  10.795
 5886W        W71113  36.296  12.065  12.955
 5887W        W71114  31.003  26.248  11.327
 5888W        W71115  17.216  11.722   1.675
 5889W        W71116  19.828  16.357  14.717
 5890W        W71117   6.303   9.462  14.872
 5891W        W71118  25.173  25.558   2.377
 5892W        W71119  14.164   7.689  12.334
 5893W        W71120  44.582  24.234  11.464
 5894W        W71121  41.392  36.519  12.874
 5895W        W71122  27.931  29.897   3.058
 5896W        W71123  41.757  38.736   0.020
 5897W        W71124  22.422  27.947  13.859
 5898W        W71125  15.844  42.102  13.003
 5899W        W71126  40.472  41.302  10.695
 5900W        W71127  23.247   9.226  11.653
 5901W        W71128  39.010  24.028   4.474
 5902W        W71129   7.107  34.566   2.820
 5903W        W71130  10.136   5.976  11.681
 5904W        W71131  37.308  40.268   4.105
 5905W        W71132   7.686  26.485   3.337
 5906W        W71133   1.029   6.837   0.495
 5907W        W71134   3.757   9.399   2.760
 5908W        W71135   6.134  15.743   2.734
 5909W        W71136  44.445   7.660   1.721
 5910W        W71137  13.819  26.109   2.819
 5911W        W71138  22.070  27.216   3.685
 5912W        W71139  36.171  44.694   1.975
 5913W        W71140  36.776  12.238  12.989
 5914W        W71141  44.727   2.497  14.702
 5915W        W71142   9.908   4.126  12.648
 5916W        W71143  26.278   8.997  11.994
 5917W        W71144   8.784  18.513  14.486
 5918W        W71145   4.806  29.726  11.223
 5919W        W71146   2.903  30.929   4.580
 5920W        W71147  18.674  28.983   0.281
 5921W        W71148  12.595  29.565  10.717
 5922W        W71149   0.053  23.747   2.441
 5923W        W71150  27.769  17.097   0.254
 5924W        W71151  35.163  21.406   3.092
 5925W        W71152   0.097  36.817  13.418
 5926W        W71153   1.396   9.053  13.872
 5927W        W71154  19.780  38.615  13.785
 5928W        W71155   9.044  40.963  11.974
 5929W        W71156  24.661  11.164   4.176
 5930W        W71157  19.760   1.835   2.706
 5931W        W71158  11.341  41.446   2.572
 5932W        W71159   7.903  24.989   4.047
 5933W        W71160  28.872  36.580  11.230
 5934W        W71161  15.263  15.580  11.200
 5935W        W71162  43.128  13.146  11.080
 5936W        W71163  35.682  37.095  11.872
 5937W        W71164  17.637  44.668   3.516
 5938W        W71165   8.137  10.752   1.918
 5939W        W71166  43.278  26.519   4.255
 5940W        W71167  40.817   0.680  12.933
 5941W        W71168  44.956  16.013  13.968
 5942W        W71169   6.064  24.512  10.699
 5943W        W71170  22.215  19.638  11.634
 5944W        W71171  27.311  43.716   0.777
 5945W        W71172  37.541   4.794  10.749
 5946W        W71173  25.195  40.863   2.131
 5947W        W71174  43.419  36.812   0.543
 5948W        W71175  39.980   2.308   3.538
 5949W        W71176  21.784  37.850  14.016
 5950W        W71177  15.984  15.067   0.096
 5951W        W71178  35.686  16.594  12.856
 5952W        W71179  25.565  24.585  11.271
 5953W        W71180   5.037  14.584   3.209
 5954W        W71181  37.066   5.533   9.824
 5955W        W71182   8.691  20.827   2.972
 5956W        W71183   6.325  35.501   3.198
 5957W        W71184   7.465  44.375  11.824
 5958W        W71185  12.512   6.944  10.803
 5959W        W71186  12.218   5.646   3.411
 5960W        W71187  33.082  43.561   4.448
 5961W        W71188  39.473   9.456  12.969
 5962W        W71189  43.400  33.790   1.237
 5963W        W71190   0.421  23.611   9.772
 5964W        W71191  22.002  19.048  12.335
 5965W        W71192  15.599  36.011   0.939
 5966W        W71193  44.162  37.839  13.358
 5967W        W71194  21.336  24.788  14.448
 5968W        W71195   6.455  29.999   2.293
 5969W        W71196  11.412  19.797   0.351
 5970W        W71197  15.398   1.238   4.521
 5971W        W71198  11.791  10.136  12.084
 5972W        W71199  32.241  16.092  10.858
 5973W        W71200  18.653  32.824  12.954
 5974W        W71201   3.124  16.068   3.120
 5975W        W71202  34.081  44.499   4.078
 5976W        W71203   4.950  30.648   4.654
 5977W        W71204  35.250  40.292   3.534
 5978W        W71205  18.609   6.811  12.773
 5979W        W71206  42.915  29.583  11.961
 5980W        W71207  42.486  28.869   0.262
 5981W        W71208   7.909  30.198  14.531
 5982W        W71209  18.526  44.312   3.598
 5983W        W71210  27.141   1.268  14.891
 5984W        W71211  21.549  30.807   1.797
 5985W        W71212  14.593  22.309   1.399
 5986W        W71213  44.062  18.800   4.072
 5987W        W71214   6.752   6.062   1.238
 5988W        W71215  31.709  42.166  11.705
 5989W        W71216  41.419  18.858   4.892
 5990W        W71217  16.248  11.128   0.744
 5991W        W71218  24.511  31.404   1.700
 5992W        W71219  30.674  34.612   1.980
 5993W        W71220   0.270  42.822  12.732
 5994W        W71221  23.532  17.096   4.438
 5995W        W71222  31.884  38.981  13.564
 5996W        W71223  27.434  15.202  11.713
 5997W        W71224  31.060  42.544  13.451
 5998W        W71225  44.732   5.735  11.858
 5999W        W71226  16.119  28.270  11.636
 6000W        W71227  21.223  12.842  12.850
 6001W        W71228  37.297  12.713   3.710
 6002W        W71229  13.229  27.508  13.911
 6003W        W71230  44.798   8.426   4.033
 6004W        W71231  37.545  16.531  11.942
 6005W        W71232   2.937  28.297   3.545
 6006W        W71233   5.147   9.061   2.155
 6007W        W71234  41.535  19.017   3.824
 6008W        W71235  30.789  16.890  10.345
 6009W        W71236   3.765   4.380   0.964
 6010W        W71237  26.162  14.433  11.495
 6011W        W71238  37.905   7.687  13.028
 6012W        W71239  43.869  38.546   4.547
 6013W        W71240   8.264   7.954   2.582
 6014W        W71241  29.191  17.634  11.236
 6015W        W71242  33.386  21.252  11.755
 6016W        W71243  20.336  33.173   1.357
 6017W        W71244  33.011  14.807   4.089
 6018W        W71245  37.066   9.424   4.150
 6019W        W71246  25.171  10.657  14.167
 6020W        W71247  34.311  40.963   0.430
 6021W        W71248  39.426  12.204   0.437
 6022W        W71249  42.470  42.622  13.076
 6023W        W71250  40.579   2.240   3.256
 6024W        W71251  37.818  32.544  13.510
 6025W        W71252   7.257   3.304  11.012
 6026W        W71253   7.834  37.110   4.191
 6027W        W71254   2.148  26.374   2.217
 6028W        W71255  44.226  29.689   0.447
 6029W        W71256  12.463  21.973  14.358
 6030W        W71257   5.737  42.274  12.812
 6031W        W71258  42.265   3.783   2.201
 6032W        W71259   6.718  40.368  10.897
 6033W        W71260  21.594  32.936   1.377
 6034W        W71261   8.311  20.668   3.364
 6035W        W71262  17.092  24.142   0.185
 6036W        W71263  37.111  19.569  12.871
 6037W        W71264  17.523   4.743  10.797
 6038W        W71265   7.794  29.241   4.089
 6039W        W71266  17.990  32.263  12.494
 6040W        W71267  39.049  32.590   5.029
 6041W        W71268   2.005  41.521  12.581
 6042W        W71269   1.538  36.964   0.190
 6043W        W71270  26.580  15.382  10.961
 6044W        W71271  41.854  37.103   3.982
 6045W        W71272   5.960   6.211   3.720
 6046W        W71273  17.055  22.035   2.991
 6047W        W71274  10.574  34.369   2.856
 6048W        W71275  33.912  20.800   1.829
 6049W        W71276  44.087  14.100   5.080
 6050W        W71277  29.631  33.640   5.087
 6051W        W71278  27.879  34.240   4.577
 6052W        W71279   3.047  11.595  12.078
 6053W        W71280  19.577  15.580  11.072
 6054W        W71281  40.862  15.223   2.437
 6055W        W71282  15.917  38.530   3.703
 6056W        W71283  18.853  41.828  14.929
 6057W        W71284   2.433  26.282  13.618
 6058W        W71285  14.627  13.749   4.987
 6059W        W71286   7.308   3.308  12.705
 6060W        W71287  31.161  40.018   1.895
 6061W        W71288  13.622  10.205  12.362
 6062W        W71289  34.661  36.145  11.050
 6063W        W71290  11.300  14.765  10.920
 6064W        W71291   1.062  33.287  13.147
 6065W        W71292  43.815  12.036  12.852
 6066W        W71293  42.335  28.895   1.685
 6067W        W71294   5.144  13.404  13.082
 6068W        W71295  35.113  12.778  13.215
 6069W        W71296  36.144  39.393  12.398
 6070W        W71297   1.774  20.310  14.354
 6071W        W71298  40.332  32.000  11.530
 6072W        W71299   5.768  12.731  14.883
 6073W        W71300  16.123   2.493   1.520
 6074W        W71301   5.454  10.229   0.260
 6075W        W71302  33.870  45.000   0.111
 6076W        W71303   1.370  18.776   0.854
 6077W        W71304   3.201  22.628   1.307
 6078W        W71305   9.126  42.777  12.614
 6079W        W71306  28.383  38.591  10.061
 6080W        W71307  24.905  22.586  12.964
 6081W        W71308  38.346  36.881  11.501
 6082W        W71309  21.295  20.056  12.449
 6083W        W71310   7.585  42.304  13.695
 6084W        W71311  34.979  34.645  11.515
 6085W        W71312   2.280  36.909  11.968
 6086W        W71313  29.434  16.070  14.664
 6087W        W71314  44.066  32.575   1.310
 6088W        W71315  31.587  18.023   0.012
 6089W        W71316   3.859  16.106   0.350
 6090W        W71317  35.799   1.328  11.235
 6091W        W71318  19.225  42.942   2.402
 6092W        W71319  40.261  43.409   0.883
 6093W        W71320   7.180  23.730  10.416
 6094W        W71321  11.922  17.053   1.801
 6095W        W71322  33.302  18.487   0.144
 6096W        W71323   1.188   9.054   1.715
 6097W        W71324   8.999  27.888   3.983
 6098W        W71325  33.167  19.476   0.042
 6099W        W71326  33.684   8.297  14.496
 6100W        W71327   2.456   1.877   4.283
 6101W        W71328  24.607  36.058   0.832
 6102W        W71329  27.206  16.116   1.818
 6103W        W71330  33.910  16.171   4.508
 6104W        W71331  13.168  33.395   2.747
 6105W        W71332  29.776  18.327   4.047
 6106W        W71333  14.204  30.468  10.521
 6107W        W71334   2.163  28.077  13.104
 6108W        W71335   6.920  20.456   0.310
 6109W        W71336   8.589  22.071  11.632
 6110W        W71337   1.901  41.486  13.355
 6111W        W71338  37.941  41.404   4.891
 6112W        W71339  41.937  37.979  14.522
 6113W        W71340  44.473  14.799  13.002
 6114W        W71341  33.798  30.242  10.583
 6115W        W71342  25.248  16.261   4.798
 6116W        W71343  10.954  27.248  11.124
 6117W        W71344  14.088   2.997  12.009
 6118W        W71345  11.155  19.397  10.584
 6119W        W71346  16.657   0.998  11.162
 6120W        W71347   4.208  28.154  12.825
 6121W        W71348  19.627  21.448   1.457
 6122W        W71349  34.128   0.457  12.118
 6123W        W71350  18.031  31.947  13.818
 6124W        W71351  17.266  22.577   0.876
 6125W        W71352  35.033  34.525  13.961
 6126W        W71353  18.719  42.390   4.526
 6127W        W71354  38.537   8.318   3.795
 6128W        W71355  16.414  17.233   4.192
 6129W        W71356   7.397  13.340  11.442
 6130W        W71357  26.268   4.510   4.063
 6131W        W71358  33.899   2.961   2.165
 6132W        W71359  16.560  44.451  12.931
 6133W        W71360  26.600   5.673   4.072
 6134W        W71361  21.018  20.884   1.161
 6135W        W71362   4.465   7.988   3.545
 6136W        W71363   9.228  42.907   5.138
 6137W        W71364  39.964  29.478   4.503
 6138W        W71365  11.640  30.543   0.267
 6139W        W71366  13.278  12.221  13.882
 6140W        W71367  12.279  29.910   2.630
 6141W        W71368  28.212  27.119   0.876
 6142W        W71369  39.015  40.828   0.422
 6143W        W71370  16.597  40.293   0.293
 6144W        W71371  12.542   8.460   3.799
 6145W        W71372  23.645  25.427   3.621
 6146W        W71373  21.976  34.546   2.246
 6147W        W71374  23.272   3.740  12.539
 6148W        W71375  30.446  29.479  12.039
 6149W        W71376  39.843  29.011   3.248
 6150W        W71377  39.520  40.931   0.590
 6151W        W71378  38.856  37.772  12.167
 6152W        W71379  19.878  35.394   0.962
 6153W        W71380  30.329   5.148   0.981
 6154W        W71381   1.928  31.914  13.040
 6155W        W71382  38.093  41.577  10.415
 6156W        W71383   5.246  14.190   1.004
 6157W        W71384   8.817  38.451  13.623
 6158W        W71385  14.332   0.019   3.568
 6159W        W71386  41.517  22.533  11.486
 6160W        W71387  42.273  16.535   4.055
 6161W        W71388  42.428  33.381  13.001
 6162W        W71389  28.696  16.154   2.748
 6163W        W71390  20.764  14.803  10.693
 6164W        W71391  16.530   3.879   2.235
 6165W        W71392   4.142  34.853   2.201
 6166W        W71393   5.641   7.890  12.164
 6167W        W71394  34.011   7.430  13.362
 6168W        W71395  16.847  14.927   3.822
 6169W        W71396  36.828  24.313   3.229
 6170W        W71397   6.447  15.666   2.238
 6171W        W71398  19.599  21.244  14.447
 6172W        W71399  27.026   1.908  10.451
 6173W        W71400   5.569   6.985  14.335
 6174W        W71401  10.835  17.247   2.679
 6175W        W71402  40.880  21.081  13.417
 6176W        W71403  31.544   3.792  10.990
 6177W        W71404  15.045  28.941   0.815
 6178W        W71405  39.035  32.571   3.723
 6179W        W71406  11.980   7.225  13.038
 6180W        W71407  20.194   8.082  13.540
 6181W        W71408   3.745   7.846   2.617
 6182W        W71409  41.825  35.887   4.187
 6183W        W71410  27.205   1.983   3.728
 6184W        W71411  21.064  38.586  13.740
 6185W        W71412  31.163  19.869  13.062
 6186W        W71413   8.362  32.987  11.788
 6187W        W71414  24.172   3.273   3.296
 6188W        W71415  43.486  12.736   0.930
 6189W        W71416  10.193   6.197  12.168
 6190W        W71417  43.868  17.823   2.679
 6191W        W71418   3.820  20.774   3.562
 6192W        W71419  32.864  22.469  12.546
 6193W        W71420  38.119  22.217  13.036
 6194W        W71421  18.814   3.140  11.942
 6195W        W71422  18.167  20.279  13.777
 6196W        W71423  26.535  11.585  11.539
 6197W        W71424  16.229   1.235   4.747
 6198W        W71425  28.389  24.285  14.205
 6199W        W71426  32.601  43.012  11.759
 6200W        W71427   5.207   9.526  11.083
 6201W        W71428  11.415  20.906  11.199
 6202W        W71429  43.992  15.745  12.694
 6203W        W71430   1.503   6.934   4.092
 6204W        W71431  25.928   4.184  10.723
 6205W        W71432  40.967   3.269  11.523
 6206W        W71433  27.264  18.687   1.832
 6207W        W71434   0.979  41.627  14.873
 6208W        W71435   0.914   3.999  11.910
 6209W        W71436  31.480  11.899   0.986
 6210W        W71437  42.421  11.106  12.994
 6211W        W71438  10.755  29.152  11.065
 6212W        W71439  39.062  16.454   0.042
 6213W        W71440   0.271  16.066  11.489
 6214W        W71441  10.420   6.328   2.254
 6215W        W71442  14.537   9.428   4.157
 6216W        W71443  19.046   8.733  14.015
 6217W        W71444  10.151  30.288  13.351
 6218W        W71445  26.248   5.804   1.456
 6219W        W71446  39.632  35.280   3.229
 6220W        W71447  24.172  22.824   3.432
 6221W        W71448  29.389  35.909   4.131
 6222W        W71449  18.545   2.704   1.408
 6223W        W71450  41.448  19.534   4.720
 6224W        W71451  18.125  31.654  10.744
 6225W        W71452   1.681  27.632   1.775
 6226W        W71453   0.192   3.311   1.817
 6227W        W71454   1.967  18.808  14.267
 6228W        W71455  42.908  37.301  12.564
 6229W        W71456  26.452   9.727   1.108
 6230W        W71457  13.616  43.087   0.485
 6231W        W71458  24.057  13.038  14.497
 6232W        W71459  16.235  36.738  12.659
 6233W        W71460  24.423  29.365   3.368
 6234W        W71461  40.829  40.811  14.415
 6235W        W71462  13.583  28.603   1.360
 6236W        W71463   2.385  26.563   1.806
 6237W        W71464  44.553  15.225  10.245
 6238W        W71465   9.176  11.400   0.805
 6239W        W71466  29.917  29.242   1.753
 6240W        W71467  42.361   0.221  12.538
 6241W        W71468  18.547   9.355   2.230
 6242W        W71469  28.522  31.424  13.320
 6243W        W71470  16.838  22.568  11.491
 6244W        W71471  24.255   7.508   3.220
 6245W        W71472  19.070  12.281   0.002
 6246W        W71473  27.751  32.156   0.722
 6247W        W71474  16.193   9.555   4.574
 6248W        W71475   7.782  19.285   4.236
 6249W        W71476  36.841   4.271  14.343
 6250W        W71477  13.445   1.028  12.050
 6251W        W71478   5.626  16.555  13.436
 6252W        W71479  25.242   6.739   1.170
 6253W        W71480  36.999  44.553   3.591
 6254W        W71481  31.098  20.681   4.725
 6255W        W71482   6.315  29.405   2.842
 6256W        W71483  43.385   1.643   3.607
 6257W        W71484  28.721  18.551  13.916
 6258W        W71485  22.593   1.219   0.834
 6259W        W71486  10.619  30.943   4.099
 6260W        W71487  14.349  21.018  14.308
 6261W        W71488  40.324  16.726  12.655
 6262W        W71489  28.012  30.468   3.874
 6263W        W71490  44.226  15.215  13.320
 6264W        W71491  34.923  24.735   4.442
 6265W        W71492  26.271  36.475  12.047
 6266W        W71493   2.203   8.879   0.978
 6267W        W71494  35.826  10.342  12.959
 6268W        W71495   1.484  13.760  14.763
 6269W        W71496  13.562  12.920  14.545
 6270W        W71497   0.767  15.402  14.391
 6271W        W71498  16.654   4.788  12.815
 6272W        W71499  38.458  29.884   2.999
 6273W        W71500  42.870   6.142   0.301
 6274W        W71501   2.990  37.697  11.598
 6275W        W71502   1.898   6.897  14.026
 6276W        W71503  43.374  40.336  14.761
 6277W        W71504   2.871  12.606   1.216
 6278W        W71505  27.247  43.127  12.080
 6279W        W71506  17.394  31.179  11.613
 6280W        W71507  40.990   4.911   0.980
 6281W        W71508  28.975  20.728  13.906
 6282W        W71509  35.650  19.420   1.120
 6283W        W71510  18.373  16.724   2.477
 6284W        W71511  14.812  26.697  10.672
 6285W        W71512  24.147  26.121  14.805
 6286W        W71513  18.324  13.858  11.156
 6287W        W71514  16.241  40.853  10.736
 6288W        W71515  18.771   7.500  12.417
 6289W        W71516  23.910  39.598  10.227
 6290W        W71517  43.779   3.464  12.074
 6291W        W71518  15.768   6.551   2.740
 6292W        W71519  10.152  44.373   4.582
 6293W        W71520  31.569  39.278   4.556
 6294W        W71521  23.270   7.015  14.312
 6295W        W71522  13.935  27.447   3.097
 6296W        W71523  26.651  42.095  10.720
 6297W        W71524  11.363   1.783   1.942
 6298W        W71525  41.940  24.591   4.763
 6299W        W71526   1.079  31.818   4.277
 6300W        W71527   1.376  13.871  12.088
 6301W        W71528  43.292  29.996  12.252
 6302W        W71529   2.066  27.620  13.422
 6303W        W71530   7.560  31.124   1.440
 6304W        W71531  42.722   6.354   1.165
 6305W        W71532  42.329  13.777   3.777
 6306W        W71533  44.661   9.117  11.126
 6307W        W71534  19.158   8.653  11.564
 6308W        W71535  12.566   8.806   0.933
 6309W        W71536   7.564   2.293   4.028
 6310W        W71537   7.620  18.689  14.016
 6311W        W71538   8.255  10.173   4.628
 6312W        W71539  41.055  38.128   0.987
 6313W        W71540  16.901  18.546   0.291
 6314W        W71541  20.310   5.588  12.080
 6315W        W71542  41.744  25.200   3.188
 6316W        W71543  41.881   6.382  13.065
 6317W        W71544  37.849   7.031  11.674
 6318W        W71545  24.894  28.669   1.679
 6319W        W71546  21.900  37.370  13.857
 6320W        W71547  20.956  20.181   4.916
 6321W        W71548   1.928  40.959   5.034
 6322W        W71549   9.584  20.577  12.038
 6323W        W71550  36.352  31.584  11.031
 6324W        W71551  30.136  29.488   4.327
 6325W        W71552   1.496  10.701  10.515
 6326W        W71553  16.917  10.712   3.139
 6327W        W71554  36.619  30.129  14.971
 6328W        W71555  37.578  41.908  12.232
 6329W        W71556  39.158   1.351   4.128
 6330W        W71557  24.791  11.839  14.353
 6331W        W71558  43.860   5.423  13.990
 6332W        W71559   2.222   7.216   0.291
 6333W        W71560  24.170  11.399   4.219
 6334W        W71561  26.894  11.163   0.256
 6335W        W71562  31.463  34.789   1.476
 6336W        W71563  13.903   9.327  12.467
 6337W        W71564   0.655  16.870   2.852
 6338W        W71565  18.972  15.709   2.866
 6339W        W71566  10.320  16.255   4.390
 6340W        W71567   9.781  28.914   2.732
 6341W        W71568  10.858  11.171  11.169
 6342W        W71569  39.607  23.665   0.643
 6343W        W71570  34.576  11.844  14.819
 6344W        W71571  44.719  33.532   4.034
 6345W        W71572  25.197  34.180  12.339
 6346W        W71573  34.623  37.502   1.752
 6347W        W71574  24.783  41.625   2.658
 6348W        W71575  30.050  19.337   3.270
 6349W        W71576  37.911  25.230  14.206
 6350W        W71577  25.379  23.972  13.066
 6351W        W71578  15.343  15.373   4.179
 6352W        W71579  38.686   8.773   3.599
 6353W        W71580  33.501  21.860  11.974
 6354W        W71581  29.493  27.399   0.550
 6355W        W71582  35.065  21.221  14.687
 6356W        W71583  28.078  18.018  13.550
 6357W        W71584  24.204   0.577  14.229
 6358W        W71585   7.613  17.778   1.262
 6359W        W71586  41.794  11.935   3.288
 6360W        W71587   9.714  24.261   3.595
 6361W        W71588  12.996   2.873  14.352
 6362W        W71589  29.613  40.421  13.476
 6363W        W71590   7.800  32.141   1.429
 6364W        W71591  36.248  30.525  11.618
 6365W        W71592  42.980  40.449  12.820
 6366W        W71593  15.251  25.042   3.360
 6367W        W71594  40.511   0.091   4.140
 6368W        W71595  26.561  35.931   0.421
 6369W        W71596  16.278  22.206  12.122
 6370W        W71597   2.066  19.255   2.609
 6371W        W71598  26.790  28.056  13.369
 6372W        W71599  30.501   3.652   0.899
 6373W        W71600  14.293  42.756  11.832
 6374W        W71601   3.399  22.794   4.715
 6375W        W71602  33.786  10.975   0.759
 6376W        W71603  21.594  18.635   3.790
 6377W        W71604  20.484  16.560  11.112
 6378W        W71605   8.338  28.478   4.332
 6379W        W71606  28.446   4.089  13.919
 6380W        W71607  11.112  35.457   1.422
 6381W        W71608   1.716   0.908   0.226
 6382W        W71609  28.745  29.103   1.927
 6383W        W71610  26.006   9.949  12.124
 6384W        W71611  37.508  41.855   0.816
 6385W        W71612  20.005  36.510  11.242
 6386W        W71613  38.682  38.848   4.816
 6387W        W71614  12.292  34.431   0.798
 6388W        W71615  30.807   1.249  12.038
 6389W        W71616   9.746  20.750  11.552
 6390W        W71617   0.656   9.679  12.347
 6391W        W71618  36.019  37.309   1.364
 6392W        W71619  12.444  27.638   3.224
 6393W        W71620  23.661   1.598   0.255
 6394W        W71621  41.793  36.472  12.528
 6395W        W71622  43.307  28.968   1.696
 6396W        W71623  21.973  11.606   1.674
 6397W        W71624  10.725  35.341  11.689
 6398W        W71625  44.988  18.980  12.948
 6399W        W71626  31.235   4.639  12.130
 6400W        W71627  15.164  25.059  13.276
 6401W        W71628  11.413   9.370   0.064
 6402W        W71629   7.352   5.939  13.977
 6403W        W71630   7.332  32.195  14.686
 6404W        W71631   9.369  29.679   4.369
 6405W        W71632  21.460  37.351   1.896
 6406W        W71633  11.193   0.296   0.016
 6407W        W71634  10.727  30.649   0.369
 6408W        W71635  29.915  33.608   0.761
 6409W        W71636  28.985   7.907   1.816
 6410W        W71637  24.951  41.050   0.417
 6411W        W71638  22.142  15.678   3.869
 6412W        W71639  38.596  18.195   0.226
 6413W        W71640  42.845  33.618  10.659
 6414W        W71641  12.645   4.386   2.221
 6415W        W71642   1.889  20.181  10.508
 6416W        W71643   1.071  16.364  10.842
 6417W        W71644  39.944  16.633   3.738
 6418W        W71645  41.368  15.619  14.253
 6419W        W71646   9.646   8.549   3.181
 6420W        W71647  21.115  34.524   1.508
 6421W        W71648  24.468  39.819  13.359
 6422W        W71649  16.957   8.371  10.760
 6423W        W71650  22.484  10.464   4.675
 6424W        W71651   4.441  26.710  12.431
 6425W        W71652   4.325  21.107  14.763
 6426W        W71653  11.872  17.202   2.683
 6427W        W71654  36.612  15.163  11.215
 6428W        W71655  41.402   0.470  14.831
 6429W        W71656  28.624   9.181  12.854
 6430W        W71657  19.221  33.576   1.068
 6431W        W71658   2.942  16.215   1.673
 6432W        W71659  15.012  28.257   4.714
 6433W        W71660   2.684  39.085   3.200
 6434W        W71661  44.537  21.962  14.752
 6435W        W71662  30.795   3.251  12.000
 6436W        W71663  31.589  21.740  13.195
 6437W        W71664  28.817   6.338  11.676
 6438W        W71665  40.825  24.719  14.528
 6439W        W71666   8.376   2.591   3.771
 6440W        W71667  10.755  16.524   4.476
 6441W        W71668  35.939  34.454  14.486
 6442W        W71669  37.099   8.271   1.046
 6443W        W71670  17.745  16.470  10.608
 6444W        W71671   6.858  39.805   2.396
 6445W        W71672  32.176  32.533  12.593
 6446W        W71673   5.862  32.728   4.279
 6447W        W71674  35.825   5.349   0.221
 6448W        W71675  25.186   2.686   3.818
 6449W        W71676  36.066   6.441   4.177
 6450W        W71677  31.052  34.040  13.270
 6451W        W71678  11.691  17.144  11.576
 6452W        W71679  26.223   2.251  10.779
 6453W        W71680  18.269  29.697   1.925
 6454W        W71681  26.507  11.432   1.744
 6455W        W71682  19.211   8.848   0.189
 6456W        W71683  33.473  27.739   3.659
 6457W        W71684  37.597  36.987  13.864
 6458W        W71685  37.881  24.025  11.543
 6459W        W71686  42.976  34.052   4.169
 6460W        W71687  16.283   1.298  11.942
 6461W        W71688  19.024  17.512   3.397
 6462W        W71689  30.508  41.568   4.246
 6463W        W71690  20.431  28.016   4.249
 6464W        W71691  30.511   9.153   3.208
 6465W        W71692  30.151  12.238  13.517
 6466W        W71693  34.262  44.991   3.886
 6467W        W71694  37.663  15.051   2.218
 6468W        W71695  15.292  23.218  13.478
 6469W        W71696  27.960  33.988   4.135
 6470W        W71697  24.895  30.042  12.546
 6471W        W71698  26.675  24.670  11.937
 6472W        W71699  23.280  31.656  10.754
 6473W        W71700  23.233  15.472  12.847
 6474W        W71701   7.583  23.176   4.582
 6475W        W71702  43.748  40.133  10.815
 6476W        W71703   2.732  29.392   3.669
 6477W        W71704   0.053  35.389   2.134
 6478W        W71705   5.882   0.773  14.683
 6479W        W71706   4.378  37.515  13.888
 6480W        W71707  25.245  33.229   0.370
 6481W        W71708  11.370  31.439  13.163
 6482W        W71709  36.548  12.464  11.624
 6483W        W71710   7.038  21.751  10.569
 6484W        W71711  24.471  16.030   1.457
 6485W        W71712  11.741  22.250   5.026
 6486W        W71713  23.317  18.623  11.530
 6487W        W71714  22.575  18.694   1.752
 6488W        W71715  25.793  37.494   0.350
 6489W        W71716  39.753   2.917  13.356
 6490W        W71717  39.043   4.705   4.639
 6491W        W71718   4.520  30.883  13.875
 6492W        W71719   3.291  33.317  11.336
 6493W        W71720  24.152  15.725  14.863
 6494W        W71721   2.918  40.535  11.965
 6495W        W71722  33.807   3.147  13.850
 6496W        W71723   0.862  39.699   3.660
 6497W        W71724  33.238  29.936  14.992
 6498W        W71725  40.772  41.539  11.612
 6499W        W71726  11.303  10.240  13.787
 6500W        W71727  44.808  34.498   0.831
 6501W        W71728   2.013  23.449   0.859
 6502W        W71729  26.475  16.709   2.819
 6503W        W71730  18.085  20.061   2.365
 6504W        W71731   5.377  44.052  12.667
 6505W        W71732  18.830   1.921  11.783
 6506W        W71733  43.321  13.883  10.797
 6507W        W71734  36.473  22.107   3.105
 6508W        W71735   1.648  38.534   3.438
 6509W        W71736   6.817  42.286   3.859
 6510W        W71737   1.853  30.683  12.643
 6511W        W71738   6.211  42.590   1.366
 6512W        W71739  16.654  17.307  10.764
 6513W        W71740  32.668   6.161   4.134
 6514W        W71741  27.424  29.343  10.609
 6515W        W71742   3.274  26.921   3.075
 6516W        W71743  43.079   3.075   5.200
 6517W        W71744  41.818  36.776  12.112
 6518W        W71745  19.811  22.020   2.679
 6519W        W71746  25.479  13.861   3.005
 6520W        W71747  24.697   6.429  13.632
 6521W        W71748  30.483   5.764   4.851
 6522W        W71749  31.826   1.703   2.699
 6523W        W71750  13.753  13.992   0.201
 6524W        W71751  20.008  42.839  13.082
 6525W        W71752  40.805  42.299   1.292
 6526W        W71753  31.676  44.002  10.587
 6527W        W71754  33.853  21.226   4.561
 6528W        W71755  44.793  30.321  10.705
 6529W        W71756  22.155  36.840   3.249
 6530W        W71757  20.319   1.888  10.198
 6531W        W71758  41.015  36.026   2.436
 6532W        W71759   6.200  37.745   4.684
 6533W        W71760   6.762  30.362   3.764
 6534W        W71761  37.998  42.903   0.272
 6535W        W71762  32.097  30.225  12.577
 6536W        W71763  13.558  25.513  13.789
 6537W        W71764  16.210  37.292   3.770
 6538W        W71765  41.342  35.444   0.744
 6539W        W71766  30.569  12.462   9.785
 6540W        W71767  16.100  24.731  12.395
 6541W        W71768  15.661  20.281  13.436
 6542W        W71769  18.063  17.129   2.375
 6543W        W71770  14.087  19.059  13.403
 6544W        W71771  11.343  31.926   0.453
 6545W        W71772  17.213  27.045   3.877
 6546W        W71773   4.846  10.132   2.043
 6547W        W71774  38.958  27.189   2.421
 6548W        W71775  39.887  32.483  12.907
 6549W        W71776  42.317  10.298   0.031
 6550W        W71777   7.053  18.444  12.160
 6551W        W71778  32.468  36.411  13.579
 6552W        W71779  25.418  41.581   1.826
 6553W        W71780  19.364  23.541   4.622
 6554W        W71781   9.941  30.027   1.861
 6555W        W71782  21.534  14.774  13.489
 6556W        W71783  13.114  34.654   1.334
 6557W        W71784  13.319  16.192  11.726
 6558W        W71785  23.937  15.314   2.348
 6559W        W71786  18.652  13.491   0.189
 6560W        W71787  32.555   3.266   2.433
 6561W        W71788  17.723   8.764  10.665
 6562W        W71789   0.358   9.716  11.581
 6563W        W71790  21.641  17.696   2.870
 6564W        W71791  22.918  35.419  11.391
 6565W        W71792  30.834  14.204  12.617
 6566W        W71793   2.538  24.261  13.251
 6567W        W71794  33.188   8.222  14.411
 6568W        W71795   7.114   4.729  13.384
 6569W        W71796  28.390  20.118  11.661
 6570W        W71797  25.000  32.080  11.999
 6571W        W71798  41.249  42.825  12.532
 6572W        W71799  28.144   9.904  14.407
 6573W        W71800  29.671  10.325   3.999
 6574W        W71801  17.012   1.416  11.199
 6575W        W71802  10.643   4.531   0.417
 6576W        W71803  29.191  13.351  13.884
 6577W        W71804  36.344   2.926  10.712
 6578W        W71805  14.760  10.578  12.067
 6579W        W71806  40.370  37.094  13.105
 6580W        W71807   6.334  39.584  12.769
 6581W        W71808  37.042  30.174   0.268
 6582W        W71809  42.063  30.931   2.667
 6583W        W71810   2.256  20.998  11.828
 6584W        W71811  14.677  39.494  11.046
 6585W        W71812  44.725  14.251   9.925
 6586W        W71813  22.715  11.898  14.684
 6587W        W71814  12.431  40.644   4.423
 6588W        W71815   8.229  40.549  12.042
 6589W        W71816  19.181   2.474  14.742
 6590W        W71817  18.256  36.911  11.192
 6591W        W71818  13.755   7.485  13.507
 6592W        W71819  31.431  13.562  13.456
 6593W        W71820  39.843  19.965  13.859
 6594W        W71821   5.991  22.032  11.500
 6595W        W71822  15.796  14.242  14.145
 6596W        W71823  38.963  26.809  12.909
 6597W        W71824  24.272   2.452   1.173
 6598W        W71825  13.041  14.188  14.678
 6599W        W71826  14.367  11.672  12.602
 6600W        W71827  14.821  10.856   1.729
 6601W        W71828   8.649   3.235   2.686
 6602W        W71829  27.524  29.404  11.492
 6603W        W71830  24.176  34.330  12.488
 6604W        W71831   3.441  41.764   0.345
 6605W        W71832  38.425  20.149   1.847
 6606W        W71833  32.492   0.264  10.730
 6607W        W71834  11.088  23.120  11.619
 6608W        W71835   4.022   7.269  12.571
 6609W        W71836   5.003  25.935  11.083
 6610W        W71837  31.011   9.905   3.301
 6611W        W71838  35.329  20.591  11.999
 6612W        W71839  20.117  34.018   0.750
 6613W        W71840   0.482  23.602  12.982
 6614W        W71841  40.000  28.973  14.037
 6615W        W71842   0.019   5.896  11.466
 6616W        W71843  23.499  36.781  12.455
 6617W        W71844  10.608  18.766   4.969
 6618W        W71845   3.386  33.680   1.126
 6619W        W71846   9.824  24.925  14.898
 6620W        W71847  35.886  20.153  13.631
 6621W        W71848  40.331   0.264   1.784
 6622W        W71849  12.343  41.785  14.121
 6623W        W71850  31.030   4.150   3.691
 6624W        W71851  33.630   4.120  11.222
 6625W        W71852  41.202  10.562  14.385
 6626W        W71853  15.313  21.797   1.178
 6627W        W71854   7.448  13.616  12.538
 6628W        W71855   7.014  16.677   0.582
 6629W        W71856   4.077  23.163  12.649
 6630W        W71857  31.458  12.857   1.870
 6631W        W71858  22.556  25.950  11.678
 6632W        W71859  23.656  41.469   1.620
 6633W        W71860  44.411  20.779   2.683
 6634W        W71861  41.544  23.639  11.916
 6635W        W71862   2.938  12.253  12.703
 6636W        W71863  28.889  31.751  13.522
 6637W        W71864  36.222  27.977  10.620
 6638W        W71865  27.050  29.595   1.897
 6639W        W71866  24.878  41.242  13.368
 6640W        W71867   2.172  37.074  13.250
 6641W        W71868  43.543   8.703  13.070
 6642W        W71869  39.686  32.362  12.241
 6643W        W71870   5.720  10.785  13.198
 6644W        W71871  20.678  19.422   3.122
 6645W        W71872  22.572  21.162   4.487
 6646W        W71873   6.868  44.884   4.541
 6647W        W71874  20.973  19.222   4.939
 6648W        W71875  18.473  36.179   1.186
 6649W        W71876  43.908  22.556  14.417
 6650W        W71877  32.258  20.036  10.718
 6651W        W71878   5.212  24.127   0.365
 6652W        W71879  16.718  37.311   2.149
 6653W        W71880  17.520   3.233  12.442
 6654W        W71881  39.789  39.053   1.043
 6655W        W71882  30.402  38.864  14.603
 6656W        W71883  24.286  21.992   1.372
 6657W        W71884  31.595   0.523  14.349
 6658W        W71885  10.195   6.933  14.773
 6659W        W71886  40.042  30.947   0.318
 6660W        W71887  19.970  21.763   2.248
 6661W        W71888  42.608  14.458   4.214
 6662W        W71889  31.390   9.086   4.490
 6663W        W71890   0.365  32.415   4.167
 6664W        W71891   5.672   0.482  13.507
 6665W        W71892  39.038  23.254  11.328
 6666W        W71893   4.780  31.731  12.873
 6667W        W71894  30.036  26.004  13.900
 6668W        W71895  16.368  17.810   0.992
 6669W        W71896  17.630  34.498   0.020
 6670W        W71897  20.468  37.391  13.494
 6671W        W71898  27.259  14.388   3.724
 6672W        W71899  29.207   8.119  14.987
 6673W        W71900   3.516  26.405  12.594
 6674W        W71901  43.846  34.083   0.725
 6675W        W71902  27.501  25.211  11.164
 6676W        W71903   1.462  43.305   0.952
 6677W        W71904   2.710  18.741  12.568
 6678W        W71905  16.192  39.908   1.335
 6679W        W71906  17.656  41.027  14.936
 6680W        W71907  10.555  11.688  14.752
 6681W        W71908  25.996  44.952  14.750
 6682W        W71909  28.037  11.980  14.509
 6683W        W71910   8.814   6.616   3.702
 6684W        W71911   9.716  43.015   2.271
 6685W        W71912  15.162   7.275  13.364
 6686W        W71913  15.847   7.751   3.307
 6687W        W71914  32.108  40.024   3.078
 6688W        W71915  25.715   7.381  13.491
 6689W        W71916  31.454   6.595   1.354
 6690W        W71917  25.137  21.967   0.564
 6691W        W71918  42.970  36.380  14.715
 6692W        W71919  27.455  44.359   3.682
 6693W        W71920  44.267  44.933   3.185
 6694W        W71921  16.099  13.153  10.646
 6695W        W71922  41.311  23.609  12.385
 6696W        W71923  35.440  10.765  14.540
 6697W        W71924  22.171  42.942  11.630
 6698W        W71925  25.186   7.256   1.311
 6699W        W71926   9.195  40.197  11.061
 6700W        W71927  20.276  17.854   1.121
 6701W        W71928  30.560  28.400   5.039
 6702W        W71929  20.640  11.665  12.449
 6703W        W71930  27.539  27.233   0.391
 6704W        W71931  26.481  11.805   3.844
 6705W        W71932   3.572   2.957  10.711
 6706W        W71933   0.128  18.261  14.195
 6707W        W71934   2.218  31.226   4.376
 6708W        W71935   3.697  34.658  13.571
 6709W        W71936  22.962  19.507  10.681
 6710W        W71937   2.790  31.211   2.370
 6711W        W71938  22.705   6.823   1.223
 6712W        W71939   8.630   1.651  11.491
 6713W        W71940  43.657  11.032  11.914
 6714W        W71941  28.486  33.564  12.394
 6715W        W71942  23.851  30.601   1.718
 6716W        W71943  10.891  26.463   0.346
 6717W        W71944  34.673  19.604   3.031
 6718W        W71945   5.254  35.424  11.550
 6719W        W71946  44.327   9.486  12.367
 6720W        W71947  31.083   3.167  14.509
 6721W        W71948   7.869  18.801   3.537
 6722W        W71949  29.169  33.499   0.454
 6723W        W71950   4.880  13.273  13.968
 6724W        W71951   1.753  20.008   0.859
 6725W        W71952  17.619  13.258  12.685
 6726W        W71953  39.297  40.158  13.829
 6727W        W71954  27.883  35.226  14.473
 6728W        W71955   4.724  29.179   0.909
 6729W        W71956  36.654  32.520   1.919
 6730W        W71957  37.860  33.532   2.790
 6731W        W71958   5.756  21.591  14.288
 6732W        W71959  23.169  12.544   0.675
 6733W        W71960  30.336  35.014   5.102
 6734W        W71961  38.708  25.720   1.263
 6735W        W71962  20.548  25.414  14.930
 6736W        W71963  27.777  28.973  14.512
 6737W        W71964  38.555  12.431  10.763
 6738W        W71965  40.439  21.189   2.710
 6739W        W71966  35.058  10.853   1.733
 6740W        W71967   4.827  10.341   2.508
 6741W        W71968  40.588  34.320  12.519
 6742W        W71969  29.908   3.696   3.565
 6743W        W71970  29.801  42.981  12.405
 6744W        W71971  41.662  26.642   0.485
 6745W        W71972  33.554   8.903   0.937
 6746W        W71973  41.958  18.724   3.655
 6747W        W71974  28.586  32.405   1.838
 6748W        W71975  30.151  41.365  14.316
 6749W        W71976  29.032  31.424  13.170
 6750W        W71977  33.602  39.514  13.399
 6751W        W71978   5.039  23.524   2.816
 6752W        W71979   4.877  29.746   1.856
 6753W        W71980  44.705   6.347   2.401
 6754W        W71981   6.818  27.142   3.688
 6755W        W71982  40.509   7.251  14.342
 6756W        W71983  15.198  15.647   0.974
 6757W        W71984  39.347  22.557   4.335
 6758W        W71985  29.031  41.099   2.304
 6759W        W71986  18.723  41.890   3.151
 6760W        W71987  14.377   3.485   1.962
 6761W        W71988   7.202  30.643  14.395
 6762W        W71989  40.832  37.800   0.048
 6763W        W71990  36.436  31.682   1.678
 6764W        W71991  26.613   7.385  10.645
 6765W        W71992  21.121   6.672  14.300
 6766W        W71993  40.756  26.483   4.133
 6767W        W71994  24.605  16.993   2.252
 6768W        W71995  18.629  10.130   3.316
 6769W        W71996  35.964  38.681   2.794
 6770W        W71997  14.735  20.254   2.407
 6771W        W71998  36.884   5.923   5.315
 6772W        W71999  15.348  36.911  11.161
 6773W        W72000  39.390  38.580   0.416
 6774W        W72001  19.119  31.049  12.160
 6775W        W72002  36.088   6.814  13.828
 6776W        W72003  42.597  43.241  13.493
 6777W        W72004  10.398  16.949  10.723
 6778W        W72005   6.724  33.109  10.651
 6779W        W72006  17.735  27.344  11.074
 6780W        W72007  21.251  13.400  11.668
 6781W        W72008  31.957  35.117  14.386
 6782W        W72009  39.446  44.817   2.341
 6783W        W72010   5.164  14.719   9.910
 6784W        W72011  37.477  25.817  14.976
 6785W        W72012  28.158   0.364   1.334
 6786W        W72013   7.240  30.093  12.546
 6787W        W72014  26.513  27.091   1.647
 6788W        W72015  31.575  31.993  14.447
 6789W        W72016  31.893  28.231   2.788
 6790W        W72017  22.465   4.226   2.811
 6791W        W72018  13.453  13.124   0.381
 6792W        W72019   0.467  43.752  12.506
 6793W        W72020   6.598  37.167   1.904
 6794W        W72021  37.217  44.798  11.110
 6795W        W72022  25.444  27.915   0.729
 6796W        W72023   8.958  41.555  14.990
 6797W        W72024  15.860  44.485   1.467
 6798W        W72025  40.675   4.668  11.152
 6799W        W72026  14.692   4.155   1.432
 6800W        W72027  41.904   9.635  13.430
 6801W        W72028  13.063   9.783  12.648
 6802W        W72029   1.428  25.691   2.830
 6803W        W72030  42.922   2.732  13.542
 6804W        W72031  26.076  31.514  14.120
 6805W        W72032   4.157  27.810  11.127
 6806W        W72033  27.911  12.349   3.246
 6807W        W72034  12.805  35.972  11.589
 6808W        W72035   9.671  32.530  11.892
 6809W        W72036  21.491   8.771   2.578
 6810W        W72037  24.337  25.676   4.578
 6811W        W72038   0.688  13.674   4.053
 6812W        W72039  35.522  39.989   3.849
 6813W        W72040   9.290   6.694   0.744
 6814W        W72041   9.867  43.297   1.875
 6815W        W72042  32.574   1.318   4.644
 6816W        W72043   3.369  34.814  12.764
 6817W        W72044  21.159  38.447  14.218
 6818W        W72045   3.630  21.545   0.362
 6819W        W72046  23.657  22.676  10.620
 6820W        W72047  41.156  29.220  11.253
 6821W        W72048  28.789  27.982   5.106
 6822W        W72049  10.393   6.353   3.594
 6823W        W72050  12.180  43.676  14.449
 6824W        W72051  31.035  27.559   1.723
 6825W        W72052  33.563  25.938  14.946
 6826W        W72053   8.349  31.990   2.171
 6827W        W72054  11.223  23.193   3.163
 6828W        W72055  20.071  20.229   0.275
 6829W        W72056  37.390  33.881   0.931
 6830W        W72057  28.809   0.670  11.740
 6831W        W72058  11.149  44.965  14.507
 6832W        W72059  38.371  42.800   1.976
 6833W        W72060  10.623  14.881   0.911
 6834W        W72061  43.979  18.187   9.894
 6835W        W72062  40.450  21.114   4.498
 6836W        W72063  14.277  25.450  14.893
 6837W        W72064  35.206  16.650   1.336
 6838W        W72065  20.054  36.770   2.644
 6839W        W72066  12.379  30.649   0.063
 6840W        W72067  25.097  43.356   4.048
 6841W        W72068  30.194  29.141   3.939
 6842W        W72069  41.537  14.781   2.153
 6843W        W72070  38.891  16.222   3.707
 6844W        W72071  34.492  19.503   0.069
 6845W        W72072  29.087   2.931   4.094
 6846W        W72073   9.499  42.987   2.734
 6847W        W72074  10.784   9.156  14.270
 6848W        W72075   8.330  19.631   4.336
 6849W        W72076   6.802  10.595   1.230
 6850W        W72077  33.252   1.695   3.708
 6851W        W72078  24.184   6.897  11.150
 6852W        W72079  14.117  43.938   4.424
 6853W        W72080  42.909  27.553  12.514
 6854W        W72081  14.129  19.271  11.347
 6855W        W72082  32.586  39.916   0.222
 6856W        W72083  39.781  35.374  13.876
 6857W        W72084   5.868  20.129   2.742
 6858W        W72085  18.022  26.721   4.775
 6859W        W72086  10.656   1.638   3.272
 6860W        W72087  17.236  32.549   0.982
 6861W        W72088  24.201  39.057   1.815
 6862W        W72089   1.568   8.906  11.356
 6863W        W72090  44.462  10.846   3.658
 6864W        W72091   0.547  42.909  14.739
 6865W        W72092  17.279  11.909  10.234
 6866W        W72093  31.053  33.204   0.682
 6867W        W72094  16.138   6.217   4.517
 6868W        W72095  39.798  39.114   0.008
 6869W        W72096  23.292   9.398  12.838
 6870W        W72097   3.237   3.935   2.696
 6871W        W72098  25.359  34.005   4.262
 6872W        W72099  21.230  36.107  12.565
 6873W        W72100  25.665  44.408  12.676
 6874W        W72101  40.278   9.091  13.936
 6875W        W72102   6.739  30.993   1.694
 6876W        W72103  12.316   1.487   3.598
 6877W        W72104  40.572  37.829  12.034
 6878W        W72105   1.329  33.712   4.911
 6879W        W72106   8.376  14.234   2.173
 6880W        W72107  15.476  26.982  13.513
 6881W        W72108  24.363  41.583  14.756
 6882W        W72109  12.379  14.141  10.655
 6883W        W72110   7.312  36.934   3.748
 6884W        W72111  30.168  22.571   2.639
 6885W        W72112  36.807  43.903   2.165
 6886W        W72113  23.683  27.725   3.882
 6887W        W72114  12.129  10.240  12.544
 6888W        W72115   1.607  10.597  14.783
 6889W        W72116  30.951  36.353  12.067
 6890W        W72117   0.965  18.531  11.274
 6891W        W72118   1.400  26.500   2.846
 6892W        W72119  34.186  39.323  10.993
 6893W        W72120  42.402   7.167   1.206
 6894W        W72121   0.435  31.090   4.355
 6895W        W72122  17.271  31.176   4.247
 6896W        W72123  39.277   1.929  14.323
 6897W        W72124  15.068  14.248   4.568
 6898W        W72125  35.460   3.376  13.936
 6899W        W72126  22.151  28.987   1.174
 6900W        W72127  41.305  39.823   3.175
 6901W        W72128  44.854  16.136  11.859
 6902W        W72129  21.087  18.177  14.392
 6903W        W72130  13.628  12.198   4.776
 6904W        W72131  26.729  27.086   4.022
 6905W        W72132  21.730  25.640   4.050
 6906W        W72133  12.487  36.020   1.781
 6907W        W72134  27.420  13.621  14.426
 6908W        W72135  20.773  35.788   2.723
 6909W        W72136  20.948  26.720   3.243
 6910W        W72137   7.852   4.713  13.807
 6911W        W72138  26.482   3.335   0.374
 6912W        W72139  43.466  18.018   5.350
 6913W        W72140  12.819  34.970   5.235
 6914W        W72141  30.671  40.569   4.574
 6915W        W72142  44.313  18.072  10.723
 6916W        W72143  22.986  33.487   2.943
 6917W        W72144  33.406  27.706  12.054
 6918W        W72145  22.765  26.980   4.381
 6919W        W72146  24.582  14.790   3.124
 6920W        W72147  44.550   6.974  14.353
 6921W        W72148  28.645  41.773  11.113
 6922W        W72149  12.200  16.857   1.106
 6923W        W72150  24.947  15.089  11.646
 6924W        W72151   4.196   1.963   1.333
 6925W        W72152  14.148   3.686  13.416
 6926W        W72153  31.870   4.444   1.341
 6927W        W72154  20.495  21.394  14.041
 6928W        W72155  19.146  11.734   2.150
 6929W        W72156  19.324  25.942   2.319
 6930W        W72157  16.529  41.007  14.018
 6931W        W72158   7.365  12.038  13.708
 6932W        W72159  22.176   8.469  14.976
 6933W        W72160  24.761  14.255   2.392
 6934W        W72161  16.032  21.599  14.841
 6935W        W72162  31.011  12.838   1.092
 6936W        W72163  27.762   8.243  12.602
 6937W        W72164  22.505  44.861  11.097
 6938W        W72165  38.875  23.848   3.444
 6939W        W72166  35.302  34.968  13.499
 6940W        W72167  32.475  42.378   0.745
 6941W        W72168   9.700  39.489   2.832
 6942W        W72169  23.640  14.854  11.103
 6943W        W72170  11.792   3.054   4.261
 6944W        W72171  27.952  10.143  14.853
 6945W        W72172  20.187  43.414  11.160
 6946W        W72173  43.818  19.697  12.162
 6947W        W72174  29.561   8.637  13.804
 6948W        W72175  38.999  34.445  10.758
 6949W        W72176  17.604   3.789  12.416
 6950W        W72177  37.505   2.742   3.212
 6951W        W72178  23.888  37.815  12.769
 6952W        W72179  19.308  33.918   2.049
 6953W        W72180  23.773  32.870  13.920
 6954W        W72181  31.473  42.374   1.300
 6955W        W72182  34.178  16.028   0.569
 6956W        W72183  12.281   1.521  10.807
 6957W        W72184   9.636  39.000  13.345
 6958W        W72185  28.666  21.993  14.422
 6959W        W72186  20.016  36.405   1.793
 6960W        W72187  44.912   8.696  11.322
 6961W        W72188  44.174   2.949   0.962
 6962W        W72189   2.461   0.891  14.530
 6963W        W72190  23.155  19.250   0.383
 6964W        W72191  33.496  35.123   1.920
 6965W        W72192  12.175  33.871  14.253
 6966W        W72193   8.247  13.008  11.953
 6967W        W72194  15.696  26.002   4.607
 6968W        W72195  14.555   2.119  14.984
 6969W        W72196   4.762   9.486   0.428
 6970W        W72197  34.571  11.683  13.842
 6971W        W72198   9.310  37.339   0.216
 6972W        W72199  30.356  41.568   2.344
 6973W        W72200  37.003  15.607   4.143
 6974W        W72201  15.270   8.468   0.372
 6975W        W72202   4.852  10.192  11.520
 6976W        W72203   2.486  22.678   3.402
 6977W        W72204  39.236   4.667  14.314
 6978W        W72205  28.450  32.528  14.446
 6979W        W72206  28.603  43.427   4.205
 6980W        W72207  31.102  28.395  13.309
 6981W        W72208  19.743  35.955   1.773
 6982W        W72209  11.621   3.564  10.476
 6983W        W72210  33.033  18.675  13.851
 6984W        W72211  20.096  39.215  11.563
 6985W        W72212  13.659   0.995   3.730
 6986W        W72213  30.478  19.695  13.830
 6987W        W72214  17.112   0.433   2.559
 6988W        W72215  30.525  43.052  13.403
 6989W        W72216  26.042  23.135   1.659
 6990W        W72217  32.538  26.205  14.857
 6991W        W72218  28.192  17.287  10.610
 6992W        W72219  40.076  19.306   0.180
 6993W        W72220  32.084  11.243  12.511
 6994W        W72221   2.199   3.230   0.908
 6995W        W72222  28.485  40.125  10.316
 6996W        W72223   4.860  20.301   3.782
 6997W        W72224   7.439   2.346  14.396
 6998W        W72225   5.640  19.692   2.943
 6999W        W72226  36.846   6.424   2.795
 7000W        W72227   6.312  15.393   1.243
 7001W        W72228  28.537  36.618  14.696
 7002W        W72229   3.113  29.337   0.145
 7003W        W72230  32.681   6.459  14.257
 7004W        W72231  44.856   4.576  12.098
 7005W        W72232  24.313   5.822  10.930
 7006W        W72233  36.057   0.959   1.448
 7007W        W72234   8.712  40.814  10.638
 7008W        W72235  34.613  17.822   1.811
 7009W        W72236  41.373  17.123   2.267
 7010W        W72237  13.084  34.440   2.871
 7011W        W72238  32.099   3.115   0.322
 7012W        W72239  16.602  35.624   2.990
 7013W        W72240  35.234   7.189   4.069
 7014W        W72241   2.399   2.355   4.968
 7015W        W72242  40.385  24.372  12.040
 7016W        W72243  28.171  11.238   2.467
 7017W        W72244  31.642  35.811   1.632
 7018W        W72245  35.447  41.040  10.688
 7019W        W72246   6.879  34.923  14.860
 7020W        W72247  27.058  25.742  11.568
 7021W        W72248   3.889  28.900   2.749
 7022W        W72249  36.287  20.138   3.822
 7023W        W72250  22.549  16.227   3.745
 7024W        W72251  30.041   7.674   1.653
 7025W        W72252  26.070  25.479   2.623
 7026W        W72253  12.333  16.840   2.071
 7027W        W72254  33.066   4.905   1.841
 7028W        W72255  14.052   9.407   4.506
 7029W        W72256  28.393  25.446   4.020
 7030W        W72257  14.118  27.231   3.523
 7031W        W72258  15.228  36.410  12.616
 7032W        W72259  37.131  36.421   0.174
 7033W        W72260  27.546  30.014  14.819
 7034W        W72261  20.549  43.121   4.559
 7035W        W72262   0.168   1.590   4.078
 7036W        W72263   2.288  38.007  12.534
 7037W        W72264  33.461  42.031  12.458
 7038W        W72265  32.209  25.658   3.622
 7039W        W72266  15.870  39.943  14.885
 7040W        W72267  26.802  31.437  12.424
 7041W        W72268   1.900   7.324  11.186
 7042W        W72269  13.010  29.551   0.272
 7043W        W72270   7.733  31.942   4.667
 7044W        W72271  10.472  18.254  11.978
 7045W        W72272  14.062  19.253   3.457
 7046W        W72273  40.807  17.159  12.164
 7047W        W72274   2.934   8.131   3.694
 7048W        W72275  37.252   4.195   1.180
 7049W        W72276  26.652  10.234   5.012
 7050W        W72277   8.018  27.923  12.847
 7051W        W72278  18.009  26.905  13.531
 7052W        W72279   2.739  13.624   0.407
 7053W        W72280  34.008  19.076  11.622
 7054W        W72281  19.385   4.143   1.768
 7055W        W72282  22.709  12.095  14.139
 7056W        W72283  18.121  38.911  12.320
 7057W        W72284   2.841  34.744  14.268
 7058W        W72285   6.986  33.599   0.033
 7059W        W72286  17.006  36.271  12.132
 7060W        W72287   8.958  42.865  11.075
 7061W        W72288  18.368   9.937  12.507
 7062W        W72289  26.489   1.927   0.913
 7063W        W72290  22.781  34.088   1.270
 7064W        W72291  36.560  44.257  12.080
 7065W        W72292   9.589  34.398  10.729
 7066W        W72293  32.943   1.788   4.118
 7067W        W72294  31.496  22.504   4.304
 7068W        W72295   8.412  37.280   2.414
 7069W        W72296  29.608  10.110   4.468
 7070W        W72297  16.097   9.230  14.296
 7071W        W72298  39.293  15.483   1.757
 7072W        W72299  39.059  15.213   0.269
 7073W        W72300  36.266  28.444   1.676
 7074W        W72301  25.050  12.217   0.541
 7075W        W72302  36.792  32.890  13.111
 7076W        W72303   6.541   0.034   4.155
 7077W        W72304  35.335  29.015   2.843
 7078W        W72305  24.932   7.523  11.709
 7079W        W72306  25.193   4.049  12.963
 7080W        W72307  13.109  17.072   2.204
 7081W        W72308  33.380   7.635   2.801
 7082W        W72309  27.664  35.466  12.367
 7083W        W72310   9.986  40.750   1.924
 7084W        W72311  17.650  11.325   2.234
 7085W        W72312  32.157  13.800   2.605
 7086W        W72313  16.343  22.117  13.054
 7087W        W72314   1.182  30.184   2.685
 7088W        W72315  43.787  33.514   1.927
 7089W        W72316  30.041  14.274   0.341
 7090W        W72317  32.496  37.572   0.173
 7091W        W72318   2.490  11.322   3.786
 7092W        W72319  21.229   0.337  10.215
 7093W        W72320  14.758  31.868   3.047
 7094W        W72321  16.631  12.880   3.322
 7095W        W72322  12.616   6.129  13.505
 7096W        W72323  14.124  28.628  13.423
 7097W        W72324  26.782  42.433   4.387
 7098W        W72325  25.479  29.641  11.214
 7099W        W72326  41.085  19.169   4.664
 7100W        W72327  25.155  12.109   3.197
 7101W        W72328  37.274  41.313   0.309
 7102W        W72329   1.548  19.685   0.515
 7103W        W72330  37.593   9.807  11.517
 7104W        W72331  40.412  20.955  10.301
 7105W        W72332  38.223  32.623  11.222
 7106W        W72333  15.870  23.055   3.654
 7107W        W72334  40.217  38.335   1.027
 7108W        W72335  37.282  12.935   2.347
 7109W        W72336  28.106  22.091   0.161
 7110W        W72337  22.534   5.308  10.363
 7111W        W72338  43.016  28.993  11.260
 7112W        W72339  11.854  38.047   3.328
 7113W        W72340   2.470  32.959   1.552
 7114W        W72341  19.725  34.498  13.313
 7115W        W72342  15.345  40.822   2.417
 7116W        W72343  19.306  38.389   4.459
 7117W        W72344  36.998   9.246  14.562
 7118W        W72345  24.158  41.739   0.772
 7119W        W72346  12.402  25.496   1.340
 7120W        W72347   9.306  26.542  13.935
 7121W        W72348  21.666  33.275  10.960
 7122W        W72349  36.158  28.499   1.164
 7123W        W72350  12.381  35.014  12.849
 7124W        W72351  13.623  34.396  12.630
 7125W        W72352  25.557  14.338   2.655
 7126W        W72353  33.128  41.847   0.382
 7127W        W72354  18.638  33.248  11.140
 7128W        W72355  15.751  27.953   2.031
 7129W        W72356  31.221  27.083   1.074
 7130W        W72357  33.934  36.356  13.867
 7131W        W72358  27.850  21.617   2.334
 7132W        W72359   7.967  26.476  12.042
 7133W        W72360  21.541   5.435   3.543
 7134W        W72361  34.020   3.613  10.915
 7135W        W72362  42.501   2.842   2.175
 7136W        W72363  33.720  12.228   4.745
 7137W        W72364  29.034   0.892   2.151
 7138W        W72365  23.879   3.841  12.115
 7139W        W72366  26.913  12.701  14.504
 7140W        W72367   0.811  37.445  11.138
 7141W        W72368  25.089  29.812  11.502
 7142W        W72369  10.791  34.708   1.899
 7143W        W72370  12.585  18.508  12.614
 7144W        W72371  20.252  21.175  14.735
 7145W        W72372  21.930  15.604  11.089
 7146W        W72373   7.429  39.915  12.936
 7147W        W72374  42.478  33.339  10.876
 7148W        W72375  13.492  18.265  14.885
 7149W        W72376  10.717  19.455   2.706
 7150W        W72377  42.990   8.699  13.957
 7151W        W72378  11.781  31.893   2.705
 7152W        W72379  22.725  35.379  10.332
 7153W        W72380  40.294  20.115   2.355
 7154W        W72381  25.173  19.535  10.651
 7155W        W72382  43.030  12.163  14.235
 7156W        W72383  35.932  40.519   3.630
 7157W        W72384  11.570   9.733   3.705
 7158W        W72385  16.719  44.734  12.034
 7159W        W72386  43.500   7.646   1.296
 7160W        W72387  13.101  18.045   3.127
 7161W        W72388   8.349  34.683   3.631
 7162W        W72389  19.624  11.658  13.262
 7163W        W72390   0.152  17.286   5.053
 7164W        W72391  37.749  10.326  14.737
 7165W        W72392  17.483  12.305   3.361
 7166W        W72393  20.237  40.468  13.033
 7167W        W72394  16.838  28.361  12.523
 7168W        W72395   8.420  26.681  14.504
 7169W        W72396   7.465   6.870  13.413
 7170W        W72397   8.247  22.059   3.843
 7171W        W72398  37.711  25.203   0.855
 7172W        W72399  40.491   1.441   3.753
 7173W        W72400  15.742  12.370   4.903
 7174W        W72401  42.571  31.463   0.533
 7175W        W72402  10.835  35.895  14.920
 7176W        W72403   7.896   5.589  10.770
 7177W        W72404  25.580  23.598  13.350
 7178W        W72405  31.273  27.679  11.181
 7179W        W72406   3.506  22.031   0.218
 7180W        W72407   2.500   9.644  13.365
 7181W        W72408   0.727  18.053   2.474
 7182W        W72409  37.537   9.451   2.723
 7183W        W72410  27.180   1.318   0.462
 7184W        W72411  29.223  29.890   2.264
 7185W        W72412   9.872   3.565  10.864
 7186W        W72413  32.039  28.583  11.783
 7187W        W72414  32.619  22.187   2.724
 7188W        W72415   9.921  40.041   4.161
 7189W        W72416   5.096  39.012   0.367
 7190W        W72417  24.167   1.083  11.263
 7191W        W72418   9.140  42.428  13.005
 7192W        W72419  13.179   3.483  12.489
 7193W        W72420  43.709  23.048  11.748
 7194W        W72421  23.922  39.869  14.252
 7195W        W72422  15.062  28.582   2.810
 7196W        W72423  43.659  16.539   0.753
 7197W        W72424   3.674  21.089   1.500
 7198W        W72425  38.742   8.678  11.175
 7199W        W72426  30.070  44.466  11.365
 7200W        W72427  40.572  41.392  13.570
 7201W        W72428  26.606  30.249   3.274
 7202W        W72429   5.901  33.301  11.786
 7203W        W72430   6.823   5.968   2.667
 7204W        W72431   6.975  30.680  11.571
 7205W        W72432  23.632   3.157  13.627
 7206W        W72433  11.287  20.362   1.785
 7207W        W72434  38.900   8.280   0.337
 7208W        W72435  18.499  28.051   4.758
 7209W        W72436  20.571  32.461   4.639
 7210W        W72437  25.175  10.584  11.128
 7211W        W72438  38.434  22.731   2.778
 7212W        W72439  15.658  24.670   5.298
 7213W        W72440   5.533   4.945  12.817
 7214W        W72441  18.898  21.516  12.503
 7215W        W72442   8.251  35.934   4.320
 7216W        W72443  25.044   2.634  11.197
 7217W        W72444  17.030  25.668  14.153
 7218W        W72445  12.040  19.068   4.049
 7219W        W72446  35.464  27.883  14.947
 7220W        W72447   5.229  28.887  12.010
 7221W        W72448  19.569   6.480  11.159
 7222W        W72449  43.712  21.301   1.899
 7223W        W72450  15.352  23.499   2.420
 7224W        W72451   2.461  13.598   0.949
 7225W        W72452  29.399  40.954   1.923
 7226W        W72453   0.933  19.365  12.086
 7227W        W72454   6.452   8.518  10.581
 7228W        W72455  33.878  27.639   2.908
 7229W        W72456  35.632  38.985  11.910
 7230W        W72457   0.810  33.151   3.282
 7231W        W72458  27.575  17.764   2.774
 7232W        W72459  13.533  15.321  14.829
 7233W        W72460  13.952  33.676   3.207
 7234W        W72461  33.490   6.385   3.566
 7235W        W72462   9.544  41.390  10.485
 7236W        W72463  33.005  27.897   5.284
 7237W        W72464  31.464  22.839  14.436
 7238W        W72465   0.183  23.506   1.050
 7239W        W72466  15.679  31.546   2.238
 7240W        W72467  30.162   4.712   3.378
 7241W        W72468  20.569  26.911  14.575
 7242W        W72469  34.726  34.120  13.878
 7243W        W72470  13.933   9.269   3.657
 7244W        W72471  41.893   6.679   4.193
 7245W        W72472  35.797  28.121   3.828
 7246W        W72473  36.807  10.086   2.437
 7247W        W72474  31.607  25.116  14.817
 7248W        W72475  22.962   6.218   0.860
 7249W        W72476  31.132   8.331   0.992
 7250W        W72477  29.312  16.472  14.382
 7251W        W72478  37.217   5.745  13.586
 7252W        W72479  38.897   7.771   2.187
 7253W        W72480  10.828  18.090   0.160
 7254W        W72481  19.333  12.667   3.667
 7255W        W72482  34.252  30.957  10.413
 7256W        W72483  36.143  37.728  13.175
 7257W        W72484  41.465  33.329   3.500
 7258W        W72485   1.218  40.115   0.223
 7259W        W72486   3.842  42.845   1.179
 7260W        W72487   5.394  38.854  10.893
 7261W        W72488  29.647   1.991   4.082
 7262W        W72489   3.450   7.303   4.790
 7263W        W72490   1.353  22.781  11.975
 7264W        W72491  30.972   5.157  12.797
 7265W        W72492  27.147  27.251  11.604
 7266W        W72493   7.810   4.458   1.285
 7267W        W72494   6.888   3.296  12.390
 7268W        W72495  20.826  19.988  12.241
 7269W        W72496  30.341  16.487   4.591
 7270W        W72497  20.015  39.157  14.542
 7271W        W72498  13.543  44.835  11.580
 7272W        W72499  24.969  31.331   3.430
 7273W        W72500  18.552   9.976  10.713
 7274W        W72501  17.297  10.884  11.650
 7275W        W72502   8.179  24.687   0.379
 7276W        W72503   6.284  26.176   2.195
 7277W        W72504  21.329   2.244  12.345
 7278W        W72505  42.924  31.772   0.247
 7279W        W72506  22.143  11.137   1.482
 7280W        W72507   2.741  17.767   1.893
 7281W        W72508   7.900  24.054   2.302
 7282W        W72509  43.445  39.312   4.726
 7283W        W72510  28.859  23.041   4.877
 7284W        W72511  21.968  43.904   2.188
 7285W        W72512  35.325  25.970  10.492
 7286W        W72513  11.953  33.522  14.957
 7287W        W72514  20.418  23.700   2.925
 7288W        W72515  20.300  43.630  12.427
 7289W        W72516  34.100  39.304  13.362
 7290W        W72517  21.395  34.854   1.227
 7291W        W72518   1.134   1.998   0.785
 7292W        W72519  31.790   2.326   3.142
 7293W        W72520  36.082  24.069  13.940
 7294W        W72521  35.728   5.930   1.033
 7295W        W72522  29.684  39.476   0.525
 7296W        W72523   2.913  13.601  13.671
 7297W        W72524  38.537  17.308  11.180
 7298W        W72525  11.401   0.216  14.136
 7299W        W72526  18.635  16.507   0.901
 7300W        W72527  11.318  39.369   3.623
 7301W        W72528  27.375   5.422   0.169
 7302W        W72529   5.513  30.053  12.169
 7303W        W72530  35.659   1.394  12.112
 7304W        W72531  32.422  19.114   1.969
 7305W        W72532  16.408  31.725   2.272
 7306W        W72533  16.136  12.055   4.712
 7307W        W72534  23.416  26.395  12.466
 7308W        W72535   2.000  28.427   1.800
 7309W        W72536  23.519  44.451  13.158
 7310W        W72537  16.276   0.109   4.472
 7311W        W72538  39.409   0.524  10.718
 7312W        W72539   2.336  33.951   4.073
 7313W        W72540  24.390  18.668  11.134
 7314W        W72541  22.799  16.299   4.190
 7315W        W72542  25.526   7.239  13.005
 7316W        W72543  28.522   7.264   0.455
 7317W        W72544  28.607  17.618  10.555
 7318W        W72545  24.443  11.371   0.461
 7319W        W72546   0.258  37.121  13.014
 7320W        W72547  24.093  41.328   3.318
 7321W        W72548  36.075  14.882   0.242
 7322W        W72549  23.997  33.434  11.622
 7323W        W72550  32.746  43.633   2.007
 7324W        W72551  44.197   4.308  10.420
 7325W        W72552  43.592  24.218  12.814
 7326W        W72553  43.987   2.704  12.635
 7327W        W72554  33.384  35.172  12.834
 7328W        W72555  44.252  22.120   3.751
 7329W        W72556  36.315  19.423  14.010
 7330W        W72557  28.153  10.678  10.302
 7331W        W72558  41.469  11.269   3.106
 7332W        W72559  13.011  19.603  10.049
 7333W        W72560   6.481  26.116   1.678
 7334W        W72561  25.475  40.769  13.891
 7335W        W72562  17.084  18.179   2.374
 7336W        W72563  13.879  29.669   4.247
 7337W        W72564  13.777  34.617   1.678
 7338W        W72565  29.335  31.107  12.046
 7339W        W72566  35.224  30.898   4.519
 7340W        W72567  31.776  32.441   2.658
 7341W        W72568  41.913   3.829   0.831
 7342W        W72569  14.881  37.507  12.906
 7343W        W72570  31.456  30.160  11.795
 7344W        W72571  38.432  43.077  12.113
 7345W        W72572  41.055   0.378   3.576
 7346W        W72573   0.028   4.107  11.377
 7347W        W72574  35.488   6.287   4.799
 7348W        W72575  44.922  28.598   3.066
 7349W        W72576  42.946  35.450  12.621
 7350W        W72577   1.266   7.927  12.379
 7351W        W72578  40.325   0.274   2.321
 7352W        W72579  35.092  19.319  14.302
 7353W        W72580  12.475  27.073  14.331
 7354W        W72581  25.015  35.330   3.663
 7355W        W72582  26.734  28.904   3.732
 7356W        W72583  10.896  11.740   0.769
 7357W        W72584   2.498  32.834  12.588
 7358W        W72585  43.560  13.450   3.529
 7359W        W72586  14.235  25.185   3.655
 7360W        W72587  35.264  10.150  10.411
 7361W        W72588  32.499  26.175  13.019
 7362W        W72589   3.303  28.940  13.334
 7363W        W72590   2.333  23.744   2.735
 7364W        W72591  15.326   7.960   1.290
 7365W        W72592   6.958  35.652   1.801
 7366W        W72593  32.703  26.002   3.964
 7367W        W72594   2.781   4.829  14.703
 7368W        W72595  42.963  12.513  14.613
 7369W        W72596  44.467   8.386   0.894
 7370W        W72597   3.542  23.199   3.785
 7371W        W72598   0.775  18.134  11.669
 7372W        W72599  25.474  22.628   2.142
 7373W        W72600   6.038   0.031   4.130
 7374W        W72601  27.950  36.654   9.803
 7375W        W72602  39.831   4.054   2.795
 7376W        W72603  30.929   7.143   0.483
 7377W        W72604   8.121   8.354  12.507
 7378W        W72605   1.973  20.260  11.047
 7379W        W72606  40.599  40.632  11.658
 7380W        W72607  35.109   1.007   1.190
 7381W        W72608   7.961   9.056   2.166
 7382W        W72609  13.986  18.788   3.680
 7383W        W72610  27.508  22.689  14.262
 7384W        W72611  42.308  26.626  12.088
 7385W        W72612  31.152  12.380  11.030
 7386W        W72613  17.476  22.693  10.679
 7387W        W72614  41.685  23.648   4.143
 7388W        W72615  14.838  24.630   1.458
 7389W        W72616   2.175   1.006   4.366
 7390W        W72617  18.615  33.363  14.232
 7391W        W72618  15.642  30.217  13.045
 7392W        W72619   3.903  23.638   1.593
 7393W        W72620  37.520  30.326   3.726
 7394W        W72621  12.384  26.524   3.717
 7395W        W72622  35.979   0.661   3.631
 7396W        W72623  26.819  30.992  13.152
 7397W        W72624  34.393  30.688  14.980
 7398W        W72625  14.602  29.422   3.732
 7399W        W72626  11.850  18.290   2.230
 7400W        W72627  18.629  35.284  12.546
 7401W        W72628  40.410  15.685   4.016
 7402W        W72629  22.605  29.486   0.043
 7403W        W72630  11.436  11.270  14.122
 7404W        W72631  23.933  28.004  12.099
 7405W        W72632  17.735  20.950  14.801
 7406W        W72633  25.784  23.104   2.121
 7407W        W72634  12.997   3.363  10.826
 7408W        W72635  22.051  24.124  11.401
 7409W        W72636  12.554  23.444   0.654
 7410W        W72637  29.446   7.036   2.805
 7411W        W72638  25.607  15.215   2.266
 7412W        W72639  11.682  36.494   2.232
 7413W        W72640  19.996   8.307   0.799
 7414W        W72641  43.896  38.799   1.720
 7415W        W72642  44.735  43.422   0.353
 7416W        W72643  23.028  28.059  11.146
 7417W        W72644  24.639  18.166   3.489
 7418W        W72645  38.033   0.258   0.729
 7419W        W72646  24.995  27.027  11.160
 7420W        W72647  36.786  34.656   2.230
 7421W        W72648  26.227  17.910  12.796
 7422W        W72649   3.139  38.848   3.115
 7423W        W72650  34.947  30.873  14.364
 7424W        W72651   8.121  39.404   3.219
 7425W        W72652  16.807   7.359   0.026
 7426W        W72653  41.191   7.772   1.683
 7427W        W72654  22.473   1.906   3.164
 7428W        W72655  34.035   5.432  14.410
 7429W        W72656  35.727   0.867  14.321
 7430W        W72657   7.933  31.003   2.786
 7431W        W72658  43.014  35.369  14.546
 7432W        W72659   9.151  32.857   1.223
 7433W        W72660  32.429   9.052  11.132
 7434W        W72661  32.842   7.770   3.614
 7435W        W72662   9.766   5.381  14.805
 7436W        W72663  16.630  27.160  12.179
 7437W        W72664  11.815  17.778   1.180
 7438W        W72665  10.859  12.338  13.435
 7439W        W72666  44.416  30.323  11.059
 7440W        W72667  12.815  38.046  12.203
 7441W        W72668   1.277  29.168  14.046
 7442W        W72669  13.421  39.445  13.756
 7443W        W72670   1.201  29.070   3.646
 7444W        W72671  40.487  43.297   3.667
 7445W        W72672  20.373  28.435  11.122
 7446W        W72673  27.183  23.103  12.057
 7447W        W72674  33.164  20.568  13.442
 7448W        W72675  23.547  41.953   1.425
 7449W        W72676   0.657  18.351  14.167
 7450W        W72677  31.460  12.228  12.991
 7451W        W72678  41.756  40.178   3.875
 7452W        W72679  19.552  25.705   2.841
 7453W        W72680  17.515  11.674   0.845
 7454W        W72681  41.326  43.186   3.129
 7455W        W72682   5.402   9.790   4.616
 7456W        W72683  34.547  40.013  12.716
 7457W        W72684  36.528   2.932   0.706
 7458W        W72685  25.694  17.290   9.715
 7459W        W72686  24.422  18.215   1.785
 7460W        W72687  41.061  12.879   4.132
 7461W        W72688  27.618  40.361   0.808
 7462W        W72689  29.627  17.653   3.664
 7463W        W72690  16.177  31.596   1.794
 7464W        W72691  40.655  43.295  12.102
 7465W        W72692  33.054  15.937  11.458
 7466W        W72693   1.272  22.040  13.797
 7467W        W72694  34.394  24.467  11.599
 7468W        W72695  22.517  12.838   0.137
 7469W        W72696  43.727  20.027   0.142
 7470W        W72697  43.458  14.694  14.785
 7471W        W72698  31.506  18.480  12.934
 7472W        W72699  38.095   7.448  10.502
 7473W        W72700  26.698  42.842   2.160
 7474W        W72701  22.249  30.474   2.197
 7475W        W72702   4.420  29.681   4.135
 7476W        W72703   5.328  17.673  12.757
 7477W        W72704  29.762   7.104  12.066
 7478W        W72705   9.664  13.330   2.816
 7479W        W72706  14.041  29.565   0.305
 7480W        W72707  27.491   4.224   3.831
 7481W        W72708  36.594  17.126  11.096
 7482W        W72709   4.121  34.232   3.802
 7483W        W72710  41.328  31.338  12.636
 7484W        W72711  44.647  21.534   5.123
 7485W        W72712  37.028  14.280   1.037
 7486W        W72713  41.854   5.375   0.478
 7487W        W72714  24.631  23.106   2.208
 7488W        W72715   2.518   6.559  11.456
 7489W        W72716  34.094   8.014  14.370
 7490W        W72717   6.282  31.003  12.256
 7491W        W72718  10.170  30.911   1.858
 7492W        W72719  38.169  30.807  14.727
 7493W        W72720   3.655  10.202  14.371
 7494W        W72721   0.747  25.671   2.035
 7495W        W72722  37.773  22.192   1.226
 7496W        W72723  31.531  19.520  13.054
 7497W        W72724  28.488  10.633   1.417
 7498W        W72725  37.066   2.004  13.912
 7499W        W72726  11.903  19.108   0.792
 7500W        W72727  31.557   9.216   2.250
 7501W        W72728  22.158  12.921  12.564
 7502W        W72729  21.039   7.165   4.100
 7503W        W72730  19.724  27.494  10.482
 7504W        W72731  39.612  20.110  12.852
 7505W        W72732  28.559   3.940   2.616
 7506W        W72733  42.699   7.259   2.056
 7507W        W72734  23.081  15.545  14.476
 7508W        W72735   3.325  36.880   0.484
 7509W        W72736  14.431  11.767   4.758
 7510W        W72737  34.109  32.239   1.384
 7511W        W72738  42.558  24.766  14.022
 7512W        W72739  18.629   1.818   3.345
 7513W        W72740  14.118  28.422  12.003
 7514W        W72741  16.184  42.538   3.639
 7515W        W72742  44.434  27.329  14.380
 7516W        W72743   5.148  31.765  11.472
 7517W        W72744  30.561   6.648   1.302
 7518W        W72745   2.694  30.573  11.509
 7519W        W72746  31.158  32.065   3.534
 7520W        W72747  17.828  41.694  10.596
 7521W        W72748  36.859  38.119  13.373
 7522W        W72749  25.948  20.567   1.279
 7523W        W72750  15.739  15.561  14.296
 7524W        W72751  11.664  11.301   1.816
 7525W        W72752  43.714  43.820  14.822
 7526W        W72753  10.836  41.831  12.975
 7527W        W72754  17.245  24.455  13.843
 7528W        W72755  28.129  28.506   0.319
 7529W        W72756  12.712  44.747   3.297
 7530W        W72757  35.956  20.808  10.768
 7531W        W72758  22.788   0.460  13.452
 7532W        W72759  40.951  39.137  14.503
 7533W        W72760  32.471  24.242   0.526
 7534W        W72761  17.239  26.722   4.360
 7535W        W72762  13.309  43.316   3.284
 7536W        W72763  29.111  15.632  12.171
 7537W        W72764   6.066   7.073  13.568
 7538W        W72765  24.957  17.235   4.007
 7539W        W72766  11.841  37.300  11.934
 7540W        W72767  22.017  40.875  10.962
 7541W        W72768  11.336  33.709   2.679
 7542W        W72769  24.593  15.097  11.269
 7543W        W72770  23.547  13.001  11.581
 7544W        W72771  34.447   1.688  10.710
 7545W        W72772  19.135   4.910  13.310
 7546W        W72773  39.409  10.158  10.645
 7547W        W72774  11.122   5.210  11.121
 7548W        W72775   8.482  30.534  10.588
 7549W        W72776  22.269  23.202   3.779
 7550W        W72777  15.745  18.113   0.003
 7551W        W72778  40.697  28.685  12.354
 7552W        W72779  37.345  39.431  11.593
 7553W        W72780  44.698  12.746  10.697
 7554W        W72781  38.197  24.831  13.395
 7555W        W72782  18.716  12.165   3.651
 7556W        W72783  11.712  40.328   3.087
 7557W        W72784  11.873  35.546   0.921
 7558W        W72785  12.982   4.841   1.429
 7559W        W72786  26.252   8.645  12.693
 7560W        W72787  32.478  41.773   4.281
 7561W        W72788   0.889  21.322  11.593
 7562W        W72789   2.646   3.486  10.258
 7563W        W72790   7.244   7.257   2.253
 7564W        W72791  39.564  14.703  12.991
 7565W        W72792   4.309  44.618  11.991
 7566W        W72793  34.474  10.741   4.573
 7567W        W72794  31.872  25.808  14.309
 7568W        W72795   0.716  37.498   3.694
 7569W        W72796   2.536  25.066  11.518
 7570W        W72797  27.284  24.574   3.789
 7571W        W72798  10.769  12.527  14.595
 7572W        W72799  28.168  16.621   2.211
 7573W        W72800  44.562  35.174  13.872
 7574W        W72801  10.925  38.763   0.335
 7575W        W72802  27.501   0.316  11.466
 7576W        W72803  14.539  30.709  10.818
 7577W        W72804   5.742  29.071   4.138
 7578W        W72805  12.354  42.194   3.283
 7579W        W72806   8.463  22.024  12.554
 7580W        W72807  11.271  29.468  12.249
 7581W        W72808   2.509  25.985   0.170
 7582W        W72809  20.825  22.143   3.353
 7583W        W72810   1.003  13.068  11.551
 7584W        W72811  11.324  10.390  12.034
 7585W        W72812  35.414  16.116  13.784
 7586W        W72813   5.975  25.177   2.647
 7587W        W72814  26.524  13.593  12.586
 7588W        W72815  20.741  44.840   3.067
 7589W        W72816  36.596  14.032  11.669
 7590W        W72817  43.059   3.309   4.714
 7591W        W72818  41.092   3.692   1.185
 7592W        W72819   4.136  42.119  13.847
 7593W        W72820  19.573  21.767  12.947
 7594W        W72821  42.891   9.310  10.480
 7595W        W72822  34.887  19.631  11.825
 7596W        W72823  36.858  26.504   1.792
 7597W        W72824  39.920   1.521  10.861
 7598W        W72825  16.287  16.090   2.717
 7599W        W72826  12.302  44.325   2.423
 7600W        W72827  18.326  11.329   0.683
 7601W        W72828  24.013  43.906   0.462
 7602W        W72829  33.668  28.148   3.098
 7603W        W72830   1.028   4.223  10.565
 7604W        W72831  29.899   1.539   0.374
 7605W        W72832  31.389  31.040  11.248
 7606W        W72833  32.659  16.814  10.327
 7607W        W72834  38.338  40.836  13.505
 7608W        W72835   8.938  12.581   0.914
 7609W        W72836  39.184  36.602  13.984
 7610W        W72837  39.485  10.150  14.025
 7611W        W72838  38.994  40.526   1.347
 7612W        W72839   8.880   6.113  10.641
 7613W        W72840  40.378   0.958   3.567
 7614W        W72841  27.670  12.327   2.355
 7615W        W72842  35.026  39.773   0.357
 7616W        W72843  43.343   5.511  13.962
 7617W        W72844   6.946  22.137   3.325
 7618W        W72845  19.079   0.804  13.779
 7619W        W72846  32.405   4.395  11.536
 7620W        W72847   6.438  13.281  12.805
 7621W        W72848   1.288  33.631  12.827
 7622W        W72849  21.143   6.778   0.958
 7623W        W72850  28.604  11.875   2.143
 7624W        W72851  16.043  43.861  14.375
 7625W        W72852  31.412   1.541  13.113
 7626W        W72853  25.866  32.482  12.361
 7627W        W72854   4.293  26.968   1.205
 7628W        W72855  33.253  19.373  11.122
 7629W        W72856  12.380  19.006  12.750
 7630W        W72857   5.363  27.630   4.597
 7631W        W72858  31.998  35.242   0.745
 7632W        W72859   9.844  11.216   2.352
 7633W        W72860  19.111  28.880   3.457
 7634W        W72861  26.458  38.112  12.506
 7635W        W72862  27.717  26.936  10.549
 7636W        W72863  29.663   4.229  14.389
 7637W        W72864  12.858  10.199  12.896
 7638W        W72865  15.050   1.700   0.798
 7639W        W72866  42.667  31.203   5.115
 7640W        W72867  25.661   6.815   3.227
 7641W        W72868   5.030  37.941  13.548
 7642W        W72869  34.440   5.906  12.849
 7643W        W72870  21.273  38.329  12.356
 7644W        W72871  36.735  24.927   1.236
 7645W        W72872  31.642  24.869  13.371
 7646W        W72873  25.540   6.727   0.284
 7647W        W72874  39.858  29.749  11.189
 7648W        W72875   7.208  21.232   2.316
 7649W        W72876  10.203   5.321   2.209
 7650W        W72877  33.657   4.357   1.800
 7651W        W72878  40.264  39.905   3.292
 7652W        W72879  39.858   8.827   4.761
 7653W        W72880  32.070  16.271  12.801
 7654W        W72881  10.583  26.171  14.979
 7655W        W72882  38.626   4.859   0.477
 7656W        W72883  37.760  30.924   0.880
 7657W        W72884  13.343  35.253   5.021
 7658W        W72885  16.836  19.271  13.054
 7659W        W72886  32.356  22.699   3.196
 7660W        W72887  37.954   2.497   3.356
 7661W        W72888  26.805  42.989  13.832
 7662W        W72889  13.362  34.923  11.631
 7663W        W72890  15.014  44.560  11.131
 7664W        W72891  42.436  20.476  13.020
 7665W        W72892  30.897  36.073   3.784
 7666W        W72893  31.664   1.709  11.995
 7667W        W72894   7.350  36.587   3.084
 7668W        W72895  42.439  35.850  14.974
 7669W        W72896  35.805  24.315  12.485
 7670W        W72897  41.493  21.810   4.442
 7671W        W72898   5.824  28.273   2.203
 7672W        W72899   5.208  40.081  14.111
 7673W        W72900  18.634   5.309  12.037
 7674W        W72901  13.451  10.242  10.051
 7675W        W72902  40.861  39.696  13.324
 7676W        W72903   0.885  38.256  10.799
 7677W        W72904  24.241  28.587   0.945
 7678W        W72905  36.045  13.281  12.841
 7679W        W72906  19.723  11.464  10.597
 7680W        W72907  26.879  11.512   0.923
 7681W        W72908   7.150  44.195   3.647
 7682W        W72909  18.480  31.411  11.613
 7683W        W72910  20.708   9.194   1.870
 7684W        W72911   9.729  44.079  12.987
 7685W        W72912  23.249   4.665  12.532
 7686W        W72913  10.273  16.044  13.168
 7687W        W72914  35.107  39.046   1.328
 7688W        W72915   0.483  15.258   3.162
 7689W        W72916  24.102  22.112   2.702
 7690W        W72917  11.076  33.901   0.812
 7691W        W72918  43.162  28.231   9.996
 7692W        W72919  43.759  21.252  11.952
 7693W        W72920  38.528  19.138   0.979
 7694W        W72921  39.354  44.946  13.384
 7695W        W72922  14.768  23.155   4.135
 7696W        W72923  31.283  22.558   0.475
 7697W        W72924  33.370  23.550   1.447
 7698W        W72925  15.307  16.774   0.949
 7699W        W72926  44.829  28.636   1.476
 7700W        W72927  21.225   7.313  14.842
 7701W        W72928  30.325  26.172  14.468
 7702W        W72929   5.098  37.096   1.389
 7703W        W72930  17.301   1.558   2.180
 7704W        W72931  44.339  19.373   3.287
 7705W        W72932  38.486   1.516  10.729
 7706W        W72933  33.298  38.052   2.328
 7707W        W72934  37.099  35.991  14.830
 7708W        W72935   0.229  13.264   1.764
 7709W        W72936  40.728   7.896   3.285
 7710W        W72937  23.511   0.842  14.560
 7711W        W72938  27.701  24.240   2.434
 7712W        W72939  21.516  22.133  11.343
 7713W        W72940   9.339  26.013  13.939
 7714W        W72941  14.768  19.524   4.161
 7715W        W72942  34.338  40.391  10.988
 7716W        W72943  24.742  20.536  11.570
 7717W        W72944   7.386  19.308   4.581
 7718W        W72945   7.023  34.047   0.456
 7719W        W72946  33.516  31.308   1.164
 7720W        W72947  13.260   5.477   4.731
 7721W        W72948   8.276  27.571   0.075
 7722W        W72949  28.140  17.368  14.345
 7723W        W72950  25.664  10.911  13.510
 7724W        W72951  38.779  37.469  14.250
 7725W        W72952  36.037   6.176  14.552
 7726W        W72953  18.663   4.942   1.800
 7727W        W72954  25.577   3.250   1.160
 7728W        W72955  20.123  14.234   3.634
 7729W        W72956  21.093  36.355  11.116
 7730W        W72957  20.150   7.368   4.592
 7731W        W72958   6.161  23.668   2.247
 7732W        W72959  27.210  31.474   4.044
 7733W        W72960  18.857  20.733   4.652
 7734W        W72961  16.100   4.924   1.369
 7735W        W72962  14.639  18.778   0.349
 7736W        W72963  16.319  11.448   2.203
 7737W        W72964  32.025  18.112   3.492
 7738W        W72965  39.149  44.268   3.093
 7739W        W72966  39.436  40.846  10.639
 7740W        W72967  23.582  22.854  13.131
 7741W        W72968   1.691   5.995  14.845
 7742W        W72969   2.771  38.869  10.900
 7743W        W72970  42.423  34.673  12.589
 7744W        W72971  32.627  38.246   5.472
 7745W        W72972  35.586  14.116   0.308
 7746W        W72973  43.773  23.082   1.693
 7747W        W72974  28.464  22.245   3.867
 7748W        W72975   1.326  32.108   1.672
 7749W        W72976  29.884  17.817   1.452
 7750W        W72977   5.689  20.172  12.917
 7751W        W72978  42.763   5.640   0.397
 7752W        W72979   1.562   3.503  13.014
 7753W        W72980  19.168  18.013   2.207
 7754W        W72981  31.911  16.324   2.777
 7755W        W72982  18.162  43.559   2.424
 7756W        W72983   3.972   3.304   1.317
 7757W        W72984  31.431   5.320  10.802
 7758W        W72985   1.094  19.070   2.768
 7759W        W72986  27.640   6.896  13.421
 7760W        W72987  31.063  30.410   3.386
 7761W        W72988   8.250  36.986   0.514
 7762W        W72989  24.956  16.219   2.316
 7763W        W72990   7.591   1.939  12.131
 7764W        W72991  11.144  34.364   3.644
 7765W        W72992  25.483  36.715   4.595
 7766W        W72993   3.552   9.810   4.134
 7767W        W72994  31.969  23.497   3.735
 7768W        W72995  31.521  23.634   0.775
 7769W        W72996   3.459   4.157  14.997
 7770W        W72997  35.081  25.132   4.105
 7771W        W72998  37.951  37.955   0.404
 7772W        W72999   3.851  31.420   3.528
 7773W        W73000  28.063  35.103  13.989
 7774W        W73001  43.842  10.435  12.594
 7775W        W73002   9.868   8.670  13.961
 7776W        W73003  14.803  37.188   0.943
 7777W        W73004  12.374  38.609   2.388
 7778W        W73005  17.492   1.027   1.268
 7779W        W73006  32.373  43.421  13.123
 7780W        W73007  27.514  22.681  11.990
 7781W        W73008  33.974  10.686  11.302
 7782W        W73009  26.666  32.964   1.301
 7783W        W73010  32.053  32.596  14.906
 7784W        W73011  21.778  11.046  13.415
 7785W        W73012   1.515   6.763   0.335
 7786W        W73013   8.942  30.398  12.526
 7787W        W73014  31.243  44.614  13.599
 7788W        W73015   7.955  28.484  11.682
 7789W        W73016  13.093   7.147  11.571
 7790W        W73017  33.111  25.283   0.759
 7791W        W73018  24.918  21.672  14.744
 7792W        W73019  11.919  34.348   3.063
 7793W        W73020  25.523  21.231  11.408
 7794W        W73021   1.241   7.844  14.889
 7795W        W73022  28.371  26.105   1.328
 7796W        W73023  42.473   3.354  12.341
 7797W        W73024  35.543  20.108   2.139
 7798W        W73025  19.183  25.612  11.561
 7799W        W73026   9.790  20.507  14.844
 7800W        W73027   5.795  32.569  14.056
 7801W        W73028  38.589  43.850  11.588
 7802W        W73029  40.011  31.563  10.638
 7803W        W73030   3.760  19.583  14.207
 7804W        W73031  17.276  33.491   3.555
 7805W        W73032  17.887  16.204   2.161
 7806W        W73033  29.455  23.496   3.746
 7807W        W73034  31.318  10.225   2.465
 7808W        W73035  44.376  38.633   0.769
 7809W        W73036  29.688   6.023  14.751
 7810W        W73037  43.654  16.311   2.868
 7811W        W73038  22.756  37.089  12.008
 7812W        W73039   1.156  26.427  11.560
 7813W        W73040  28.118  40.706  11.542
 7814W        W73041   9.275  12.690   0.287
 7815W        W73042   3.469   6.989  14.399
 7816W        W73043   8.749  15.618  13.538
 7817W        W73044  18.033  40.254  12.960
 7818W        W73045  24.054  20.450  12.721
 7819W        W73046  18.497   6.483  12.407
 7820W        W73047  14.179   6.735   0.701
 7821W        W73048   6.840  42.874  11.232
 7822W        W73049  33.970  31.802  10.760
 7823W        W73050   4.649   4.256   0.733
 7824W        W73051   3.015  27.170   1.756
 7825W        W73052  40.360  44.798  13.524
 7826W        W73053   6.956  36.392  14.796
 7827W        W73054   9.003  28.064   0.932
 7828W        W73055  35.639   7.451   3.167
 7829W        W73056   6.845   6.902   4.589
 7830W        W73057  30.375  29.033  10.633
 7831W        W73058   5.508  26.335  12.715
 7832W        W73059  37.053  17.767   2.250
 7833W        W73060  25.289  27.815   2.882
 7834W        W73061  12.623  23.461   2.838
 7835W        W73062  17.632  24.415  12.968
 7836W        W73063   1.893  22.174   0.402
 7837W        W73064  20.281  10.231   3.010
 7838W        W73065  15.503  14.348   1.990
 7839W        W73066  14.819   1.754   4.187
 7840W        W73067  33.356  30.475  11.627
 7841W        W73068  15.780  44.467   1.990
 7842W        W73069   7.928  28.247  12.473
 7843W        W73070   1.851  11.186  10.583
 7844W        W73071   2.956  14.276   2.192
 7845W        W73072  11.762  33.477  12.933
 7846W        W73073   5.865  13.746  14.926
 7847W        W73074   3.886  31.960  10.505
 7848W        W73075  17.828   8.379   4.146
 7849W        W73076  19.997  36.031   2.219
 7850W        W73077  26.232  43.506  12.456
 7851W        W73078  24.472  20.643  12.491
 7852W        W73079  14.036   5.722   3.237
 7853W        W73080  44.464  17.756  11.569
 7854W        W73081  35.400  14.671  11.939
 7855W        W73082  42.525   1.350  12.528
 7856W        W73083  32.496  16.893   1.645
 7857W        W73084  28.732   2.260  12.127
 7858W        W73085  19.104  30.117   3.215
 7859W        W73086   8.296  40.944  13.828
 7860W        W73087  31.102  42.004  13.549
 7861W        W73088  18.755  40.113  11.075
 7862W        W73089   6.719  43.785  12.656
 7863W        W73090  41.449  24.051  14.995
 7864W        W73091   3.933  28.733  14.772
 7865W        W73092  38.578  30.358  12.787
 7866W        W73093  39.554   7.096   4.561
 7867W        W73094  44.912  16.126   0.754
 7868W        W73095  20.029  13.098  11.227
 7869W        W73096  29.728  34.351  12.080
 7870W        W73097  43.035  21.676  11.579
 7871W        W73098  37.561  23.231  14.198
 7872W        W73099  36.159   4.435  11.583
 7873W        W73100  33.266  18.167  12.475
 7874W        W73101  17.399   8.223  13.453
 7875W        W73102  16.581  18.746   2.559
 7876W        W73103  18.732   6.244   2.847
 7877W        W73104  33.399  38.213   0.029
 7878W        W73105   3.278  20.892   1.796
 7879W        W73106   1.206  35.356  14.423
 7880W        W73107   9.371  43.859  11.488
 7881W        W73108  37.492  29.423   2.349
 7882W        W73109  31.256  41.623  11.181
 7883W        W73110  41.845  13.758   3.988
 7884W        W73111  40.808  13.774  13.136
 7885W        W73112  38.570   4.660   2.814
 7886W        W73113   2.711  14.220  10.830
 7887W        W73114   8.854   0.191  11.525
 7888W        W73115   1.409   5.090   3.562
 7889W        W73116  15.369   1.960   2.416
 7890W        W73117   4.488  32.722   0.820
 7891W        W73118  36.850  43.342   0.221
 7892W        W73119  42.783  22.520   2.290
 7893W        W73120   8.889  18.235  13.158
 7894W        W73121  42.721   6.218   4.616
 7895W        W73122   9.149  36.461  12.991
 7896W        W73123  35.490  14.661   4.744
 7897W        W73124  37.404   6.731  10.958
 7898W        W73125  36.553  20.068   1.907
 7899W        W73126   8.791  25.884  13.564
 7900W        W73127  19.131  42.280  14.841
 7901W        W73128  38.317  35.462  14.412
 7902W        W73129  16.705  31.991   2.688
 7903W        W73130  34.256  35.012  12.957
 7904W        W73131  33.472  18.692  11.970
 7905W        W73132   7.861   9.819  14.066
 7906W        W73133  38.901  37.557   3.236
 7907W        W73134  36.955   9.618  11.841
 7908W        W73135  12.290  37.044  12.042
 7909W        W73136  16.004  38.097   4.284
 7910W        W73137  36.539  19.052   0.813
 7911W        W73138  25.185  20.562  14.015
 7912W        W73139  35.403  38.357  14.082
 7913W        W73140  24.393   6.778   3.673
 7914W        W73141  26.275   1.635   1.332
 7915W        W73142  40.338   2.881   1.338
 7916W        W73143  18.336   2.778  13.906
 7917W        W73144  30.996  12.244   2.300
 7918W        W73145   5.402  11.264  11.504
 7919W        W73146  38.871  24.449  10.104
 7920W        W73147  26.860  21.121   1.088
 7921W        W73148  29.127  14.957  12.794
 7922W        W73149  23.264  29.113  10.672
 7923W        W73150  40.831  18.048  12.716
 7924W        W73151  30.740  20.125  13.920
 7925W        W73152   1.262  17.664  14.266
 7926W        W73153  26.619   2.716  12.617
 7927W        W73154   2.286  35.465  13.047
 7928W        W73155  15.579   2.889  11.223
 7929W        W73156   8.750  22.412  13.980
 7930W        W73157   2.368   3.910  14.713
 7931W        W73158  33.078  29.413   3.276
 7932W        W73159  17.611  26.292  14.484
 7933W        W73160  25.808  26.276   1.366
 7934W        W73161   5.822  24.565  11.137
 7935W        W73162  32.660  36.208  14.933
 7936W        W73163  12.872  35.493   5.087
 7937W        W73164  32.923   0.754   3.038
 7938W        W73165  36.389  24.464   1.253
 7939W        W73166  21.329  26.131   0.368
 7940W        W73167   5.726   6.147   4.176
 7941W        W73168   3.485   2.849  11.624
 7942W        W73169  20.958   2.425   2.540
 7943W        W73170  10.950  34.535   3.167
 7944W        W73171  33.819  29.034   3.582
 7945W        W73172  21.069  31.072  10.407
 7946W        W73173   2.425  10.471  10.796
 7947W        W73174  35.870  19.266  11.968
 7948W        W73175   6.826  38.365   1.455
 7949W        W73176   3.412  22.267  14.300
 7950W        W73177  30.548  10.827  12.956
 7951W        W73178  33.270  28.712   4.570
 7952W        W73179  21.283  42.661   5.170
 7953W        W73180  37.969  24.478  13.084
 7954W        W73181  42.436   1.590   3.739
 7955W        W73182  44.741  31.421   1.299
 7956W        W73183  10.374  40.812   0.416
 7957W        W73184   3.202  32.867  11.052
 7958W        W73185  18.740   9.433  14.702
 7959W        W73186  24.516  30.349   3.624
 7960W        W73187   9.054  25.600   4.661
 7961W        W73188  33.348  40.396  10.784
 7962W        W73189  42.052   4.474  12.930
 7963W        W73190  19.354  26.389  13.082
 7964W        W73191  11.579  16.000   9.783
 7965W        W73192  20.441   3.570   4.892
 7966W        W73193  42.581  22.725   1.863
 7967W        W73194  13.618  33.183   2.109
 7968W        W73195   8.645  32.326   4.064
 7969W        W73196  17.534  37.327  13.550
 7970W        W73197  34.830   3.961  14.943
 7971W        W73198   5.817  40.602  14.399
 7972W        W73199  15.720  34.705  10.682
 7973W        W73200  28.575  44.069   0.910
 7974W        W73201  12.480  27.762  12.562
 7975W        W73202  26.298  15.269  10.538
 7976W        W73203  26.953  21.045  14.343
 7977W        W73204  22.666  24.425  11.615
 7978W        W73205  20.838   1.332   1.280
 7979W        W73206  39.403  26.537   1.916
 7980W        W73207  33.273  26.610   0.161
 7981W        W73208   8.567  34.368   5.155
 7982W        W73209   4.817  32.913   2.201
 7983W        W73210  15.254  41.983  13.784
 7984W        W73211  14.190  32.401  14.466
 7985W        W73212  12.814  31.119   1.504
 7986W        W73213  29.500  13.047  12.347
 7987W        W73214  20.876  21.239  10.872
 7988W        W73215   2.181   0.304  11.912
 7989W        W73216  13.493  25.820  12.944
 7990W        W73217  31.054  40.786   0.804
 7991W        W73218   3.691   9.422  11.386
 7992W        W73219   5.982  10.955  10.455
 7993W        W73220  14.015   6.251   0.889
 7994W        W73221   9.702  32.138   3.661
 7995W        W73222   4.532  10.068  10.025
 7996W        W73223  34.294  19.796  12.978
 7997W        W73224  43.757  12.644  14.269
 7998W        W73225  23.480  14.005  10.724
 7999W        W73226  34.895  35.542   2.420
 8000W        W73227  39.838   2.710   3.241
 8001W        W73228  36.134   8.615   1.242
 8002W        W73229   0.221   2.484  14.502
 8003W        W73230  23.458  28.227  12.381
 8004W        W73231  27.891  13.054  12.826
 8005W        W73232   3.170  21.111   1.346
 8006W        W73233   8.611  43.991  10.621
 8007W        W73234  37.621  16.884  13.472
 8008W        W73235  22.782  21.035  11.924
 8009W        W73236  33.524   9.959   0.906
 8010W        W73237  37.087   2.069   2.154
 8011W        W73238  34.078  43.946   3.934
 8012W        W73239  25.775  30.272  12.951
 8013W        W73240   9.755   1.488   2.594
 8014W        W73241  17.287  11.482  11.188
 8015W        W73242  31.376  19.597  14.912
 8016W        W73243  17.047  11.954  13.779
 8017W        W73244  23.769  15.808   0.804
 8018W        W73245  20.762  10.690  14.374
 8019W        W73246   0.539   9.667   4.329
 8020W        W73247  41.393  22.692  11.983
 8021W        W73248   8.342  34.373  13.994
 8022W        W73249  37.506  33.292  10.743
 8023W        W73250   5.183  38.492   0.399
 8024W        W73251  28.169   0.640  10.983
 8025W        W73252  13.296  17.391   1.649
 8026W        W73253  15.425  15.374   5.068
 8027W        W73254  19.849  19.107  14.698
 8028W        W73255  20.065  19.565  12.599
 8029W        W73256   2.964   3.286   3.758
 8030W        W73257  24.721  27.127  12.385
 8031W        W73258  14.280  31.657  12.537
 8032W        W73259  27.463  24.447   4.251
 8033W        W73260  21.505  28.954  14.432
 8034W        W73261  30.078  16.321  13.928
 8035W        W73262  34.910  11.752  13.301
 8036W        W73263  25.148  33.620   3.624
 8037W        W73264  41.318  35.645  11.286
 8038W        W73265  34.890   1.397  12.463
 8039W        W73266  21.178  15.603  10.639
 8040W        W73267  40.323  43.504  12.435
 8041W        W73268  18.769   8.325   0.310
 8042W        W73269   7.050  20.207   2.187
 8043W        W73270  41.156  33.696  11.633
 8044W        W73271  19.084  24.996   0.445
 8045W        W73272  13.149  38.032   4.504
 8046W        W73273  35.082  44.218   1.903
 8047W        W73274  27.442  44.253  12.221
 8048W        W73275   2.995  39.299  14.365
 8049W        W73276  35.281  34.945   0.942
 8050W        W73277  32.246  17.323   5.037
 8051W        W73278  13.326  20.063   4.798
 8052W        W73279  28.054   6.459  14.060
 8053W        W73280  24.997   8.623   0.408
 8054W        W73281  18.365  34.918  14.958
 8055W        W73282  30.907  17.817   4.297
 8056W        W73283  12.591  22.668   0.273
 8057W        W73284   1.929  22.562   4.657
 8058W        W73285   7.817  41.226   3.727
 8059W        W73286  35.643  28.552  12.856
 8060W        W73287  20.754  28.483  14.564
 8061W        W73288  42.062  27.764  13.302
 8062W        W73289  11.324   6.194   1.249
 8063W        W73290   0.989  21.751  11.347
 8064W        W73291  14.635  30.183  10.670
 8065W        W73292  33.895   3.400   3.734
 8066W        W73293  34.560   1.752   3.189
 8067W        W73294  12.016  41.364  12.280
 8068W        W73295   5.965  36.531  14.880
 8069W        W73296  37.571  32.983  10.266
 8070W        W73297  13.409  15.307  11.740
 8071W        W73298  19.945  23.939   4.507
 8072W        W73299  40.539  15.303   4.348
 8073W        W73300  39.896   4.688  13.069
 8074W        W73301  38.863  20.479   3.172
 8075W        W73302  27.208  35.802  12.410
 8076W        W73303   7.862  24.771  14.828
 8077W        W73304   4.597  24.603   2.695
 8078W        W73305  17.129  42.444   0.819
 8079W        W73306  19.333  23.018   0.310
 8080W        W73307   4.592  15.321   3.507
 8081W        W73308  41.838  15.599  14.026
 8082W        W73309  35.487  20.541   2.974
 8083W        W73310  17.393  32.136   1.260
 8084W        W73311  31.861  37.295   0.939
 8085W        W73312   5.927  31.174  14.806
 8086W        W73313   6.655  22.771  11.714
 8087W        W73314  31.172  25.773  13.284
 8088W        W73315  12.543  40.576   0.976
 8089W        W73316  10.318  37.797   1.464
 8090W        W73317  23.141   3.434  14.394
 8091W        W73318  17.830  14.022  11.341
 8092W        W73319  39.780  34.160  11.300
 8093W        W73320  21.619  43.430   2.251
 8094W        W73321  20.068  10.593  13.020
 8095W        W73322  12.197  38.656  11.218
 8096W        W73323  34.461   4.934   4.512
 8097W        W73324  39.384  22.373  14.813
 8098W        W73325  32.620  32.155  12.963
 8099W        W73326  38.625  17.167  13.375
 8100W        W73327  44.698  41.653  11.697
 8101W        W73328  11.266  44.431   1.506
 8102W        W73329  15.803  10.298  13.418
 8103W        W73330  44.887  41.846   0.427
 8104W        W73331  43.538  33.989   1.897
 8105W        W73332   4.384   5.136   2.280
 8106W        W73333  35.516   9.282  10.816
 8107W        W73334   8.692   9.233  12.174
 8108W        W73335  27.012  38.378  11.891
 8109W        W73336   7.226  41.009   0.362
 8110W        W73337  26.731  22.241   3.736
 8111W        W73338   0.292  14.054  12.000
 8112W        W73339  27.072  26.621   3.324
 8113W        W73340   1.583  36.301   2.866
 8114W        W73341  39.937   0.645  14.015
 8115W        W73342   7.911  13.152  13.231
 8116W        W73343  40.263  41.754  12.493
 8117W        W73344   2.383   9.323   1.440
 8118W        W73345   7.330  16.506  10.398
 8119W        W73346  39.960  27.497  13.725
 8120W        W73347  17.108  27.905  11.639
 8121W        W73348  11.634   0.850  11.212
 8122W        W73349  21.087  28.604  13.598
 8123W        W73350  14.185   1.733   4.607
 8124W        W73351  24.156  14.856   1.208
 8125W        W73352  40.814  39.070   2.123
 8126W        W73353  37.797  25.653  13.371
 8127W        W73354  22.682  24.664   4.298
 8128W        W73355  37.964  33.098   3.106
 8129W        W73356  17.005  41.708   4.461
 8130W        W73357   8.005  19.605   0.547
 8131W        W73358  34.942  19.071  13.061
 8132W        W73359  18.752  23.135  10.686
 8133W        W73360  20.769  32.657  12.511
 8134W        W73361  36.544  35.663   3.266
 8135W        W73362  17.026  37.906  10.742
 8136W        W73363   8.734   2.977   4.386
 8137W        W73364  29.711  41.586  14.077
 8138W        W73365   5.319  41.825   1.318
 8139W        W73366  44.642  21.256   4.183
 8140W        W73367  25.006  42.041  10.787
 8141W        W73368  33.405  13.155   3.682
 8142W        W73369  15.546   2.218   4.221
 8143W        W73370  38.548  28.680  12.103
 8144W        W73371  27.239  19.121   2.807
 8145W        W73372  23.737  26.860  12.368
 8146W        W73373   0.104  22.431   3.583
 8147W        W73374  22.497  43.081  10.231
 8148W        W73375   5.236  26.222   9.752
 8149W        W73376  31.624  15.879  13.841
 8150W        W73377  10.776  38.970  11.547
 8151W        W73378   5.906  25.480   1.118
 8152W        W73379  17.672  38.334  12.447
 8153W        W73380  27.500  30.631  14.100
 8154W        W73381  35.946   1.527  10.782
 8155W        W73382  28.239  12.525   4.521
 8156W        W73383  25.988  34.521   4.812
 8157W        W73384  35.086   2.966  11.487
 8158W        W73385  40.621   2.887  12.018
 8159W        W73386  16.998  18.452  13.376
 8160W        W73387  37.322  14.322   4.640
 8161W        W73388   8.661  40.577  14.886
 8162W        W73389  31.385  41.476  10.721
 8163W        W73390  36.306  28.149   2.456
 8164W        W73391  11.327   9.123  12.531
 8165W        W73392   3.932   9.689   1.375
 8166W        W73393  40.455   6.412   1.316
 8167W        W73394  16.264  28.423  10.807
 8168W        W73395  27.484  27.045   9.530
 8169W        W73396  28.731  22.007   3.072
 8170W        W73397   8.737  29.914   2.723
 8171W        W73398   0.800  41.137  14.804
 8172W        W73399   4.427  32.435  11.707
 8173W        W73400  13.296   9.919   0.923
 8174W        W73401  40.277   4.731  14.345
 8175W        W73402   6.445  15.253  12.026
 8176W        W73403  38.499  26.386  12.510
 8177W        W73404  22.996  35.556   0.374
 8178W        W73405  41.717  26.259  12.509
 8179W        W73406  16.503  16.623   3.190
 8180W        W73407   4.241  27.387  14.754
 8181W        W73408  37.313  43.224   0.655
 8182W        W73409  17.089  29.053  14.280
 8183W        W73410  26.390  39.861   1.367
 8184W        W73411  18.202  39.951  12.158
 8185W        W73412   2.710  32.978  13.836
 8186W        W73413  41.918  24.817  13.467
 8187W        W73414   5.206  17.832   0.498
 8188W        W73415   4.425  34.858  12.685
 8189W        W73416  34.594   6.477  12.017
 8190W        W73417  27.680  17.797   3.978
 8191W        W73418   3.484  24.495   0.329
 8192W        W73419  15.424  20.237  11.084
 8193W        W73420   6.628  33.597   4.476
 8194W        W73421  31.504   7.875  14.333
 8195W        W73422  27.424  35.881   4.259
 8196W        W73423   8.035  22.645   1.017
 8197W        W73424  42.733  43.721  14.316
 8198W        W73425   3.245  37.054   1.324
 8199W        W73426  38.300  22.265   1.309
 8200W        W73427  17.765  30.940   1.740
 8201W        W73428  37.938   0.764   4.625
 8202W        W73429  30.464  31.365   4.063
 8203W        W73430  35.101  39.505  13.531
 8204W        W73431  11.834  13.593  14.955
 8205W        W73432  14.857   3.274  11.080
 8206W        W73433   0.375  44.899  11.476
 8207W        W73434   3.242  24.580   2.851
 8208W        W73435  15.163   9.245  11.169
 8209W        W73436  19.032   3.899  11.214
 8210W        W73437  25.973  41.779   1.162
 8211W        W73438  39.920  16.385   4.181
 8212W        W73439  40.702  14.711   1.783
 8213W        W73440  37.695   8.526  13.208
 8214W        W73441  11.254  35.285  11.795
 8215W        W73442  15.013   4.906  14.256
 8216W        W73443  30.953   1.311   2.052
 8217W        W73444  24.976  10.241  14.955
 8218W        W73445  36.851  27.421  13.740
 8219W        W73446  35.530  26.071   0.319
 8220W        W73447  18.188  30.401  14.038
 8221W        W73448   0.048  11.695   2.179
 8222W        W73449  38.894  30.577   4.739
 8223W        W73450  39.371  13.690  11.111
 8224W        W73451  15.110  39.002  12.027
 8225W        W73452  31.176  44.779  11.889
 8226W        W73453  16.338  18.842   0.899
 8227W        W73454   6.062  25.664   2.438
 8228W        W73455  19.074  31.473  10.954
 8229W        W73456   3.825  17.169   3.385
 8230W        W73457  21.158  25.243   4.515
 8231W        W73458  44.428  44.771   1.375
 8232W        W73459  25.664  33.120   3.173
 8233W        W73460  31.651   5.721  13.846
 8234W        W73461  11.552  42.476   3.280
 8235W        W73462  27.588   0.657  13.125
 8236W        W73463  25.750  44.261  14.524
 8237W        W73464  41.821   1.838  13.536
 8238W        W73465  44.478   8.597   1.376
 8239W        W73466  31.027  36.038  10.446
 8240W        W73467  34.083  24.051  11.577
 8241W        W73468  25.993   5.220   3.682
 8242W        W73469   7.605  31.345   3.841
 8243W        W73470   3.734   6.959   0.844
 8244W        W73471  34.100  40.543   4.914
 8245W        W73472   9.300  40.939   1.819
 8246W        W73473   9.240  32.059  12.420
 8247W        W73474  26.715  30.159   4.132
 8248W        W73475   6.971   1.441   2.623
 8249W        W73476  27.406  33.056   0.286
 8250W        W73477  26.345  22.630  14.074
 8251W        W73478  23.228  36.534   3.343
 8252W        W73479   4.297  20.767  12.934
 8253W        W73480  11.572  10.675   0.756
 8254W        W73481  22.759   9.215   4.927
 8255W        W73482  41.988  14.195   2.675
 8256W        W73483  37.685  33.472  11.219
 8257W        W73484  14.233   8.323   0.242
 8258W        W73485  32.787  39.527  13.841
 8259W        W73486  20.180  38.864   1.366
 8260W        W73487  17.715  21.143  13.883
 8261W        W73488   7.674  22.685  12.044
 8262W        W73489  36.391  22.511  13.597
 8263W        W73490  21.617  30.315  14.613
 8264W        W73491  24.398   3.952  13.994
 8265W        W73492  26.038  27.082   1.793
 8266W        W73493  41.209  20.816  12.524
 8267W        W73494  38.212  14.448   1.308
 8268W        W73495   8.926   4.247  12.444
 8269W        W73496  18.319  35.884  11.658
 8270W        W73497   3.212  37.301   0.823
 8271W        W73498  25.285  28.390  11.151
 8272W        W73499   6.985   3.684  13.642
 8273W        W73500  12.093   1.018  10.500
 8274W        W73501  23.663  20.906  10.907
 8275W        W73502  35.171  10.612  11.138
 8276W        W73503   9.349  30.972   0.916
 8277W        W73504  23.645  12.138  11.335
 8278W        W73505  28.465  24.310  10.968
 8279W        W73506  18.401  21.605  11.582
 8280W        W73507  42.064  10.219   2.838
 8281W        W73508  36.131   7.787   3.191
 8282W        W73509  29.960  29.061  14.228
 8283W        W73510   3.795   6.915   2.167
 8284W        W73511  21.125  13.152  12.108
 8285W        W73512   1.801   6.819  11.427
 8286W        W73513  23.701   5.193  13.787
 8287W        W73514   7.899  12.483   0.010
 8288W        W73515   0.262  38.470  11.451
 8289W        W73516   5.523  34.450  11.864
 8290W        W73517  43.824  28.694   3.262
 8291W        W73518  17.307  10.785   1.750
 8292W        W73519  37.362   4.689   3.379
 8293W        W73520  19.700  38.872  14.836
 8294W        W73521  31.660   8.958  12.521
 8295W        W73522  26.355  36.434   5.058
 8296W        W73523  10.791  29.460   0.888
 8297W        W73524   2.712  30.950  12.410
 8298W        W73525  29.715  17.787   0.216
 8299W        W73526   5.391  34.718   2.554
 8300W        W73527  36.586  27.442   3.670
 8301W        W73528  41.261   0.660  12.447
 8302W        W73529  38.807  12.269   2.492
 8303W        W73530  42.465  10.185  10.493
 8304W        W73531  10.924  42.403   4.767
 8305W        W73532  14.431  25.392   2.702
 8306W        W73533  22.053  16.054   1.523
 8307W        W73534  27.138   7.149   3.212
 8308W        W73535  11.678  20.108  10.799
 8309W        W73536  24.014  38.285   0.248
 8310W        W73537   4.760   5.457  11.185
 8311W        W73538  19.872  36.008   3.777
 8312W        W73539  20.169  32.387   1.677
 8313W        W73540   7.618  17.265   1.240
 8314W        W73541  11.655  23.926   3.484
 8315W        W73542  36.037  28.890   0.822
 8316W        W73543   7.344   3.470  14.957
 8317W        W73544  24.896  36.506   0.832
 8318W        W73545  32.645  12.232   4.536
 8319W        W73546  14.740  24.974   3.532
 8320W        W73547  39.051  32.288  14.453
 8321W        W73548  39.542  25.884  11.123
 8322W        W73549  27.023  29.861   3.223
 8323W        W73550   0.479  24.515   5.129
 8324W        W73551   8.141   4.317   4.829
 8325W        W73552  14.857  25.175   5.186
 8326W        W73553  13.119  39.959  14.224
 8327W        W73554   9.292  12.766  14.321
 8328W        W73555  11.333  22.476  13.719
 8329W        W73556  21.068  22.521  10.812
 8330W        W73557  41.022  10.157   1.865
 8331W        W73558  44.962  25.128  11.780
 8332W        W73559  14.545  21.277   4.153
 8333W        W73560  35.979  42.598  12.153
 8334W        W73561  36.372  14.376  11.272
 8335W        W73562  37.484  16.595  14.331
 8336W        W73563  29.071  16.642   3.200
 8337W        W73564  19.784  11.188   3.371
 8338W        W73565  20.909  19.150   1.225
 8339W        W73566  13.284   8.437   4.987
 8340W        W73567  26.454  37.014  13.619
 8341W        W73568  37.912  17.884  12.037
 8342W        W73569   2.432   0.823  11.722
 8343W        W73570  12.748  37.882  10.871
 8344W        W73571   5.460  11.177  12.949
 8345W        W73572  28.655  17.262  13.413
 8346W        W73573  35.831   0.878  12.917
 8347W        W73574  21.296   0.489  11.101
 8348W        W73575  32.890   9.671   0.914
 8349W        W73576  25.297   7.839   3.208
 8350W        W73577  22.150  43.830   4.169
 8351W        W73578  21.180  30.134   0.909
 8352W        W73579  42.341  23.652   3.793
 8353W        W73580  24.488  23.221   1.340
 8354W        W73581  18.121   5.653  12.579
 8355W        W73582  16.451   1.281   0.787
 8356W        W73583   3.913  12.664   2.827
 8357W        W73584  18.540  43.380  14.919
 8358W        W73585  36.486  34.680   4.247
 8359W        W73586   8.725  15.311   1.377
 8360W        W73587  29.003  19.835  10.989
 8361W        W73588  16.711  18.806   1.258
 8362W        W73589   0.757  41.943  11.025
 8363W        W73590  36.490  42.541   1.888
 8364W        W73591   7.462  34.118   3.314
 8365W        W73592  24.036  16.602  14.641
 8366W        W73593  19.308  24.242  10.997
 8367W        W73594  39.328  29.037  11.543
 8368W        W73595   0.569  22.347   1.077
 8369W        W73596   0.894  43.150   1.799
 8370W        W73597  28.972  12.765   0.755
 8371W        W73598  23.433  20.252  13.934
 8372W        W73599  20.256   6.087  11.299
 8373W        W73600  22.736  27.751   4.987
 8374W        W73601  11.569   4.941   1.124
 8375W        W73602   0.979  38.229   1.673
 8376W        W73603  10.712  18.707  13.149
 8377W        W73604  32.153   5.813  11.628
 8378W        W73605   5.235  14.425   2.719
 8379W        W73606  28.175   5.754   2.188
 8380W        W73607  35.121  36.048  13.232
 8381W        W73608  12.075  38.879  14.898
 8382W        W73609  38.784   4.268   4.534
 8383W        W73610  18.130  39.979   2.367
 8384W        W73611   8.180  33.163   3.987
 8385W        W73612  38.934  28.952   0.463
 8386W        W73613  16.936  39.138  13.970
 8387W        W73614  21.692  17.171  12.401
 8388W        W73615  30.985  14.145  13.096
 8389W        W73616  38.751  36.598  10.714
 8390W        W73617  44.591  40.479   5.152
 8391W        W73618  16.231  29.346  10.687
 8392W        W73619  22.759  13.113  13.948
 8393W        W73620  33.598  33.551  14.593
 8394W        W73621   1.257   8.151  14.453
 8395W        W73622  15.847  24.591   4.815
 8396W        W73623  16.124  11.161   1.774
 8397W        W73624  17.178  37.433  13.160
 8398W        W73625  26.164  23.045  12.011
 8399W        W73626  17.835   0.162  14.020
 8400W        W73627  37.413   2.691  11.015
 8401W        W73628   3.159   4.343   3.724
 8402W        W73629  37.406  37.898  12.526
 8403W        W73630   6.178  30.865  12.733
 8404W        W73631   4.692   3.985  13.842
 8405W        W73632  19.507   6.358  13.435
 8406W        W73633  10.668  39.281   2.670
 8407W        W73634   6.316   9.859   0.209
 8408W        W73635  35.658  14.488   3.238
 8409W        W73636  20.013  28.504  14.621
 8410W        W73637  24.032  28.950  14.081
 8411W        W73638  27.264  16.642  11.057
 8412W        W73639  30.441  12.803   0.446
 8413W        W73640   9.386  33.222   4.197
 8414W        W73641  17.655  44.887  10.841
 8415W        W73642  22.125  12.650  11.942
 8416W        W73643  37.264  36.474   4.255
 8417W        W73644  21.079  22.746   1.211
 8418W        W73645   1.396  13.647  12.573
 8419W        W73646  24.076  15.684  13.345
 8420W        W73647  16.109   4.061   1.884
 8421W        W73648  13.821  27.116   0.845
 8422W        W73649  29.198   5.855  14.729
 8423W        W73650  33.606   8.889   5.232
 8424W        W73651  39.999  36.737   2.854
 8425W        W73652  20.610   0.959   2.185
 8426W        W73653   6.775  35.871  10.717
 8427W        W73654   1.392  30.626   4.643
 8428W        W73655  15.118  13.483   4.088
 8429W        W73656  31.764   7.641  14.991
 8430W        W73657  42.873  13.670  12.512
 8431W        W73658   6.194  13.692   1.664
 8432W        W73659  33.532   1.494  10.271
 8433W        W73660  23.922  32.221   3.198
 8434W        W73661   2.513   5.246  14.532
 8435W        W73662  36.542   4.590   3.754
 8436W        W73663   9.961   7.585  12.103
 8437W        W73664  39.886   4.619  14.019
 8438W        W73665   4.627  16.446   9.829
 8439W        W73666  36.943  15.748   2.186
 8440W        W73667  40.238  36.634  11.635
 8441W        W73668  10.915  33.878  12.903
 8442W        W73669  12.923  25.680   1.332
 8443W        W73670  11.435   9.648  10.703
 8444W        W73671  11.745   6.459   1.374
 8445W        W73672   8.412  39.608  10.676
 8446W        W73673   6.905   5.225  10.749
 8447W        W73674   5.187  22.821  14.238
 8448W        W73675   1.994  39.379  11.316
 8449W        W73676  44.089   7.374   0.085
 8450W        W73677  43.861   7.684  13.419
 8451W        W73678  29.857  25.547   2.309
 8452W        W73679  36.912  35.959   3.599
 8453W        W73680  23.777  32.908  13.173
 8454W        W73681   8.875  16.775   5.423
 8455W        W73682  36.867  18.286   3.723
 8456W        W73683  14.692  31.968  12.029
 8457W        W73684  39.176   3.837   4.615
 8458W        W73685  16.214   1.235   1.968
 8459W        W73686  29.109  20.197   0.716
 8460W        W73687   5.449  42.406  11.037
 8461W        W73688  39.020   0.519  12.939
 8462W        W73689  20.980  28.658   1.820
 8463W        W73690  29.887   5.606   4.706
 8464W        W73691  21.725  36.467  10.861
 8465W        W73692  15.891  15.969   4.771
 8466W        W73693   6.103   9.804   4.092
 8467W        W73694  11.863  38.276  11.126
 8468W        W73695  21.031  14.123   2.245
 8469W        W73696   5.399  16.657   3.214
 8470W        W73697  32.420   3.270   1.912
 8471W        W73698  16.074   8.227  12.934
 8472W        W73699  14.649   3.793   0.408
 8473W        W73700  37.328   9.626   3.173
 8474W        W73701  24.587  41.041   1.417
 8475W        W73702   6.679  20.568  14.266
 8476W        W73703  15.288  22.773  14.827
 8477W        W73704   7.659  27.827  12.272
 8478W        W73705  13.313   8.990   4.971
 8479W        W73706  23.069  38.973   3.583
 8480W        W73707  19.095  43.397  12.011
 8481W        W73708  44.721  37.547   1.388
 8482W        W73709  21.667   3.632  13.433
 8483W        W73710   2.964  29.228  11.961
 8484W        W73711  44.450  18.007  13.541
 8485W        W73712   0.445  34.725   3.697
 8486W        W73713  29.021  29.393   3.539
 8487W        W73714  32.717  24.816   2.298
 8488W        W73715  34.607  15.574  14.507
 8489W        W73716  10.872   7.198  14.796
 8490W        W73717  34.817  41.216   0.337
 8491W        W73718   4.407  17.868  14.193
 8492W        W73719  34.860   8.891  11.132
 8493W        W73720  10.693  12.823  14.154
 8494W        W73721  36.451   8.098   1.801
 8495W        W73722   5.182   1.793   1.224
 8496W        W73723  10.289  30.176   4.605
 8497W        W73724   3.000  10.723   0.847
 8498W        W73725  11.889  41.361   4.378
 8499W        W73726  38.851  19.994  14.077
 8500W        W73727  17.966  37.417   2.655
 8501W        W73728  22.039  17.232   4.470
 8502W        W73729  16.475  10.398  11.652
 8503W        W73730  21.004  29.221  11.339
 8504W        W73731  43.637  24.804   2.325
 8505W        W73732  23.159  18.750   0.920
 8506W        W73733   4.859  10.093  12.648
 8507W        W73734  26.493  20.799   3.693
 8508W        W73735   4.498  44.992   4.737
 8509W        W73736  14.048  30.440   1.408
 8510W        W73737  36.850  31.549  12.482
 8511W        W73738  30.157   8.777  14.260
 8512W        W73739  39.645  11.796   4.547
 8513W        W73740  37.811  41.903   3.760
 8514W        W73741  25.726  11.635   0.275
 8515W        W73742   0.495  37.604  13.059
 8516W        W73743  32.929   1.946  13.065
 8517W        W73744  37.601  21.696   3.886
 8518W        W73745   8.905  44.977  11.053
 8519W        W73746   1.938  42.543  11.631
 8520W        W73747   2.381  26.550   3.191
 8521W        W73748  25.088  32.684   3.625
 8522W        W73749  22.037  13.663  14.017
 8523W        W73750  33.984  41.502   3.988
 8524W        W73751  15.371  17.009  13.780
 8525W        W73752  24.759  20.927  10.806
 8526W        W73753  39.113   4.215   2.881
 8527W        W73754  27.380  36.001  10.295
 8528W        W73755  41.976  12.736   2.872
 8529W        W73756  42.276  39.843  14.594
 8530W        W73757  16.057  41.999   4.492
 8531W        W73758  35.526  34.452  14.845
 8532W        W73759  28.673  26.786  12.055
 8533W        W73760  34.448  44.063   2.355
 8534W        W73761  22.782  16.765   4.423
 8535W        W73762   9.927  35.434   4.185
 8536W        W73763  29.028  41.418  12.784
 8537W        W73764  39.842  26.604  14.886
 8538W        W73765   5.755   5.201  13.665
 8539W        W73766  15.405  44.174   1.339
 8540W        W73767   5.095  33.975  13.457
 8541W        W73768  42.086  27.107   4.087
 8542W        W73769   7.480  25.234  11.575
 8543W        W73770  14.289  39.672  14.869
 8544W        W73771  11.430  29.362   4.054
 8545W        W73772  21.412  26.951   3.191
 8546W        W73773  17.105  19.206   0.841
 8547W        W73774  41.476  31.732  10.764
 8548W        W73775  30.596  40.290  11.402
 8549W        W73776  17.346  43.817  14.521
 8550W        W73777  42.584  40.511  13.764
 8551W        W73778  34.457  21.438  13.508
 8552W        W73779   1.289  37.247   1.377
 8553W        W73780   3.426  24.958   3.153
 8554W        W73781  29.070  17.737  10.764
 8555W        W73782  28.574  35.052  13.934
 8556W        W73783   2.999  27.050   2.659
 8557W        W73784  39.097  30.191   2.213
 8558W        W73785  38.354  12.604  12.052
 8559W        W73786  20.713  18.868  12.953
 8560W        W73787   9.778   6.273   1.427
 8561W        W73788  27.858  38.593   2.896
 8562W        W73789  22.568  12.602  14.087
 8563W        W73790  12.722  11.881   2.547
 8564W        W73791   7.857   2.853  11.309
 8565W        W73792  25.789  41.332   0.885
 8566W        W73793  35.049  40.584   3.163
 8567W        W73794   9.619   3.292  14.321
 8568W        W73795  37.898   9.355  12.159
 8569W        W73796  36.428  34.175  13.339
 8570W        W73797  32.980  36.957  14.681
 8571W        W73798  44.280   7.777  11.617
 8572W        W73799   5.918  41.985  11.076
 8573W        W73800  31.118   7.334  13.826
 8574W        W73801  16.843  27.328  11.180
 8575W        W73802  38.687   2.931  13.061
 8576W        W73803  11.314   8.635   4.790
 8577W        W73804  19.763  16.470  13.236
 8578W        W73805  12.413   8.552   0.013
 8579W        W73806  31.098  25.430  14.170
 8580W        W73807  38.078   0.052   2.371
 8581W        W73808   6.322  19.946  11.056
 8582W        W73809  31.877  41.314  12.489
 8583W        W73810   0.864   1.515   1.501
 8584W        W73811  37.394  44.978   0.144
 8585W        W73812  21.274  13.379  12.554
 8586W        W73813   9.904  38.141   1.611
 8587W        W73814  37.112  44.638   1.736
 8588W        W73815   1.760  15.876   2.254
 8589W        W73816  26.375   3.009   4.255
 8590W        W73817  23.855  11.611   1.992
 8591W        W73818   9.668  40.082   2.866
 8592W        W73819  19.643  15.079   4.557
 8593W        W73820  31.872  36.178  14.006
 8594W        W73821  38.151  22.738   0.355
 8595W        W73822   9.820  38.477   4.399
 8596W        W73823  31.021  23.409  12.530
 8597W        W73824  31.643   3.359  10.689
 8598W        W73825  20.779  31.033  13.098
 8599W        W73826   2.244  21.563  13.975
 8600W        W73827   9.049  10.833   1.789
 8601W        W73828  12.049  29.927   0.373
 8602W        W73829   1.172  26.320  14.130
 8603W        W73830  23.535  25.062  11.110
 8604W        W73831   1.819  18.600   2.878
 8605W        W73832  19.444  34.889  12.394
 8606W        W73833   5.280  12.031   3.924
 8607W        W73834  21.248   8.565  13.414
 8608W        W73835  16.746  24.549   2.910
 8609W        W73836  21.080  35.389   3.641
 8610W        W73837   9.198  11.324  13.962
 8611W        W73838  29.429  14.299   0.392
 8612W        W73839  25.876  33.072   1.843
 8613W        W73840  27.504  34.416   2.149
 8614W        W73841  25.693  26.367  14.462
 8615W        W73842  28.362  18.875   3.696
 8616W        W73843   1.470   5.203  14.005
 8617W        W73844   7.814  21.168  11.191
 8618W        W73845  37.446  17.620   4.566
 8619W        W73846   9.834  44.281  12.527
 8620W        W73847  28.525  21.854   0.373
 8621W        W73848  15.507   9.130   4.128
 8622W        W73849  28.877  23.554  13.327
 8623W        W73850  24.719  32.285   2.781
 8624W        W73851  22.823  22.013   4.116
 8625W        W73852  22.177  43.756  12.002
 8626W        W73853   0.710  11.112   3.164
 8627W        W73854  15.907  41.572   3.287
 8628W        W73855  42.440  34.233   2.404
 8629W        W73856  33.074  33.788  14.534
 8630W        W73857  23.451  27.400   1.398
 8631W        W73858   5.230  31.934  13.750
 8632W        W73859  37.826   5.923  14.059
 8633W        W73860   8.899  38.522  14.978
 8634W        W73861  23.629  15.823  13.554
 8635W        W73862  28.599  24.413   2.887
 8636W        W73863  13.738  25.061   1.432
 8637W        W73864   6.920  32.196   2.216
 8638W        W73865   4.783   1.856  12.469
 8639W        W73866   3.175  17.982  13.256
 8640W        W73867  10.406  18.236  11.280
 8641W        W73868  30.839  41.547  10.708
 8642W        W73869  41.467  43.587   4.933
 8643W        W73870   8.291   1.682   3.173
 8644W        W73871  20.005  38.993  11.094
 8645W        W73872   4.316   0.878  11.426
 8646W        W73873  40.374  24.312  11.117
 8647W        W73874  15.097  16.652   4.102
 8648W        W73875  28.469   0.830  13.945
 8649W        W73876  33.937   4.897   4.482
 8650W        W73877   1.922  42.236  10.387
 8651W        W73878  31.908  11.952  12.012
 8652W        W73879  36.201  38.499  14.323
 8653W        W73880  14.020  12.140   1.330
 8654W        W73881  40.136   4.234   3.186
 8655W        W73882   9.255  29.591  14.012
 8656W        W73883  10.714   3.559   1.302
 8657W        W73884  42.912  40.485   4.444
 8658W        W73885  40.512  39.115  13.951
 8659W        W73886  22.542  26.198  14.844
 8660W        W73887  30.661  41.440  12.024
 8661W        W73888  37.406  29.014  14.836
 8662W        W73889  44.835  20.561  13.842
 8663W        W73890   0.236  15.185  12.560
 8664W        W73891  14.434  33.704   3.879
 8665W        W73892  43.494   4.544  14.270
 8666W        W73893  32.326  27.710  10.361
 8667W        W73894   9.390  31.490   0.930
 8668W        W73895  11.124  13.109  13.955
 8669W        W73896  12.248  21.469  10.943
 8670W        W73897  35.898  39.843   2.102
 8671W        W73898  25.131   2.497   2.951
 8672W        W73899  38.011  14.473   1.794
 8673W        W73900  23.970  41.062   2.834
 8674W        W73901  20.702  43.570   3.721
 8675W        W73902   5.402  32.508   3.492
 8676W        W73903  10.689  24.694  12.483
 8677W        W73904   4.330  19.055   0.050
 8678W        W73905  44.438  15.243   0.781
 8679W        W73906  14.056  24.948  11.236
 8680W        W73907   2.337  17.033   1.382
 8681W        W73908  16.845   2.964   3.407
 8682W        W73909  11.140   0.791   1.224
 8683W        W73910  14.149   0.876  12.841
 8684W        W73911  32.419  18.223   4.791
 8685W        W73912   6.681   1.465   1.279
 8686W        W73913  28.849  16.688  13.405
 8687W        W73914  37.448  41.314  14.400
 8688W        W73915  27.004  10.805   4.671
 8689W        W73916  32.837  15.825   4.263
 8690W        W73917  37.288   8.162   2.752
 8691W        W73918  31.484  40.028  11.103
 8692W        W73919  44.035  38.480  13.949
 8693W        W73920  15.612   0.507  11.177
 8694W        W73921   7.268   0.234  11.503
 8695W        W73922   7.774  41.733  10.707
 8696W        W73923  20.165   4.175  13.561
 8697W        W73924  37.634  39.023   3.598
 8698W        W73925   9.991   7.696   0.527
 8699W        W73926  18.123   3.584  14.550
 8700W        W73927  13.877  38.863   1.662
 8701W        W73928  33.575  28.254   2.240
 8702W        W73929  17.179  28.221  12.914
 8703W        W73930   3.692  34.678   4.916
 8704W        W73931  30.373  31.630   5.072
 8705W        W73932  32.996   7.824  14.099
 8706W        W73933  30.048   2.945  11.186
 8707W        W73934  44.644  20.718  14.486
 8708W        W73935  39.833  31.156  14.395
 8709W        W73936  27.954   0.392  12.828
 8710W        W73937  24.556  20.521  11.062
 8711W        W73938   6.047  20.460   3.902
 8712W        W73939   0.107   0.346  13.819
 8713W        W73940   1.623  17.315   5.025
 8714W        W73941  14.167  38.837  12.129
 8715W        W73942  36.569  44.581  13.386
 8716W        W73943  44.252  20.434   0.746
 8717W        W73944   5.392   5.928  13.807
 8718W        W73945  42.314   5.751   0.938
 8719W        W73946  20.774  36.414  12.581
 8720W        W73947  26.943  27.440   5.127
 8721W        W73948  34.443  23.621  11.673
 8722W        W73949  28.550  28.124   3.104
 8723W        W73950  28.202  38.905   1.940
 8724W        W73951  21.225  40.916  14.537
 8725W        W73952  37.969  34.816   0.833
 8726W        W73953   6.459  39.500   2.557
 8727W        W73954  12.936  23.997  12.089
 8728W        W73955  23.752  40.823  11.564
 8729W        W73956  15.880  22.412  13.024
 8730W        W73957  42.452  31.648  14.556
 8731W        W73958   9.675  26.387   1.833
 8732W        W73959  42.719  34.562  13.474
 8733W        W73960  17.290  11.193   0.768
 8734W        W73961  28.000  26.477   0.286
 8735W        W73962   6.775   0.853   0.508
 8736W        W73963  30.493  27.929  14.883
 8737W        W73964   0.700   3.511  13.966
 8738W        W73965  25.082  16.337  11.178
 8739W        W73966   2.340   9.167  14.908
 8740W        W73967  30.947  42.337   0.161
 8741W        W73968  17.482  44.230  13.955
 8742W        W73969  41.493  35.513   1.750
 8743W        W73970  36.367   6.258  12.811
 8744W        W73971  34.260  41.841   3.707
 8745W        W73972   0.601  44.460   4.496
 8746W        W73973  35.073  34.944  11.974
 8747W        W73974  19.426  21.721  11.709
 8748W        W73975  12.779  18.578  12.150
 8749W        W73976  12.637  11.793   4.468
 8750W        W73977  19.621  10.740   3.544
 8751W        W73978  14.600  21.958  12.023
 8752W        W73979   3.347  27.926   3.552
 8753W        W73980  18.650  21.754  14.346
 8754W        W73981  15.204  38.083   1.776
 8755W        W73982   8.127  42.569   2.393
 8756W        W73983  19.813  31.530  11.611
 8757W        W73984   9.452  40.602  11.247
 8758W        W73985  23.477  27.349  12.163
 8759W        W73986  41.317  16.491   4.165
 8760W        W73987  44.028   7.216   3.611
 8761W        W73988   2.515  18.713   1.612
 8762W        W73989  31.401  10.819   0.784
 8763W        W73990  14.354  30.589  11.879
 8764W        W73991  25.522   0.305   1.762
 8765W        W73992   9.678  29.020  14.331
 8766W        W73993   8.303  38.623   2.684
 8767W        W73994  44.883  38.206   0.140
 8768W        W73995  39.012  15.334   2.182
 8769W        W73996   2.409  39.826   4.122
 8770W        W73997   1.721  37.013  14.197
 8771W        W73998   6.657  30.296   0.829
 8772W        W73999  36.500  22.680   3.140
 8773W        W74000  21.258  36.940   3.235
 8774W        W74001  42.509  13.805  12.175
 8775W        W74002  31.051  36.568  14.244
 8776W        W74003  27.982  44.429   2.284
 8777W        W74004  14.351  30.346   2.695
 8778W        W74005  23.751   7.506   4.151
 8779W        W74006   8.806   6.522  13.389
 8780W        W74007   4.851  16.661  14.593
 8781W        W74008  15.589  36.543  13.881
 8782W        W74009  14.524  12.787   4.785
 8783W        W74010   1.424  22.234   2.400
 8784W        W74011  14.599  26.640   3.014
 8785W        W74012  33.497  16.534  13.403
 8786W        W74013  21.262   4.657   3.878
 8787W        W74014  39.046  38.004  13.037
 8788W        W74015  29.436  22.011   1.407
 8789W        W74016  10.236  38.023  13.926
 8790W        W74017  26.408  18.210   4.619
 8791W        W74018  42.006  15.586   1.250
 8792W        W74019   2.415  12.514  13.074
 8793W        W74020  35.310  14.080   3.060
 8794W        W74021   7.355  35.283  11.602
 8795W        W74022  41.528   0.886  12.063
 8796W        W74023   2.070   7.966   2.595
 8797W        W74024  41.283   5.217   1.275
 8798W        W74025  22.093  36.318   3.270
 8799W        W74026  26.886   1.903   1.874
 8800W        W74027  23.224  15.624  12.339
 8801W        W74028  18.405  15.140  11.884
 8802W        W74029  34.234  13.421   4.123
 8803W        W74030  10.718   5.981  11.024
 8804W        W74031  19.011  14.787  13.055
 8805W        W74032   4.837  44.574   3.776
 8806W        W74033  40.470   5.708  14.460
 8807W        W74034  37.291  35.563   4.053
 8808W        W74035  20.061  10.922   3.742
 8809W        W74036  16.858   2.458   3.600
 8810W        W74037   7.427  22.251   3.108
 8811W        W74038  15.043  10.697  14.289
 8812W        W74039  21.212  33.321   3.095
 8813W        W74040  24.813  33.109  13.008
 8814W        W74041  28.096  37.418  10.209
 8815W        W74042  40.430  44.282  12.033
 8816W        W74043   9.224  13.329   0.910
 8817W        W74044  17.781  10.864  13.091
 8818W        W74045  15.277  16.786   4.571
 8819W        W74046  34.068  14.175   2.181
 8820W        W74047  16.691  19.317   1.146
 8821W        W74048   0.143   5.762  12.852
 8822W        W74049  20.126  11.389  12.559
 8823W        W74050  15.672   3.307  11.523
 8824W        W74051   3.325  25.729   0.305
 8825W        W74052  24.225  32.085  12.669
 8826W        W74053  24.758   6.702  13.206
 8827W        W74054  28.696   6.438  13.252
 8828W        W74055  27.691  26.641  14.839
 8829W        W74056   2.278  31.447   1.300
 8830W        W74057  43.456  14.557  11.550
 8831W        W74058  17.039  13.594   4.062
 8832W        W74059  29.056   2.910  14.301
 8833W        W74060  25.212  27.589   4.657
 8834W        W74061  14.370  26.228   0.868
 8835W        W74062  42.318  11.787   4.611
 8836W        W74063  41.513   3.762   3.359
 8837W        W74064  14.551  14.736  13.653
 8838W        W74065   8.845  11.761  13.978
 8839W        W74066  43.600   8.657   4.566
 8840W        W74067  13.896  44.905   0.761
 8841W        W74068  39.068  25.498   0.295
 8842W        W74069   1.877  31.417  14.957
 8843W        W74070  31.026  12.735   0.123
 8844W        W74071  17.825  26.041   4.237
 8845W        W74072  43.860  42.675  12.921
 8846W        W74073   8.376  19.755  12.437
 8847W        W74074  27.545  29.160  14.063
 8848W        W74075  21.075  27.229  13.969
 8849W        W74076  30.287  42.264  13.880
 8850W        W74077  15.990  33.629   5.802
 8851W        W74078  18.283  15.793  13.433
 8852W        W74079   5.289   2.464  11.444
 8853W        W74080  33.388  37.177   1.878
 8854W        W74081  10.339  43.538  12.613
 8855W        W74082   9.770  36.507   0.262
 8856W        W74083  38.497  33.229  13.259
 8857W        W74084  26.485   6.667  11.132
 8858W        W74085  44.422  40.811  14.957
 8859W        W74086  37.903  26.668  13.398
 8860W        W74087  15.795   9.587   4.225
 8861W        W74088  13.283  12.705  12.544
 8862W        W74089  38.276   0.818  12.506
 8863W        W74090   7.280  30.961   4.194
 8864W        W74091  33.117   0.141   0.831
 8865W        W74092   0.256  21.780  12.630
 8866W        W74093  28.297  10.576  11.152
 8867W        W74094  25.740  26.288  13.398
 8868W        W74095   3.647  14.573  12.942
 8869W        W74096  15.547  36.318   2.277
 8870W        W74097  20.264  32.888  14.251
 8871W        W74098   9.166  37.735  14.465
 8872W        W74099  35.911  38.466   9.779
 8873W        W74100  13.361   2.898   2.934
 8874W        W74101  20.364   8.318  12.058
 8875W        W74102  35.743   5.337  13.439
 8876W        W74103  43.981  40.493  13.987
 8877W        W74104  31.118  23.613  14.853
 8878W        W74105  13.919   4.883  11.714
 8879W        W74106  19.822   9.369  11.144
 8880W        W74107   2.989  18.822  13.401
 8881W        W74108  43.057  42.309  12.419
 8882W        W74109  19.527  41.949  13.070
 8883W        W74110   7.740   9.008   4.062
 8884W        W74111   2.124  42.394   3.690
 8885W        W74112  27.629  15.688   0.352
 8886W        W74113   0.996  35.971  13.964
 8887W        W74114  32.646  23.137   1.284
 8888W        W74115   7.311  25.617   0.711
 8889W        W74116  20.250  33.688  11.268
 8890W        W74117  22.786  29.129  13.503
 8891W        W74118  24.691  16.005   3.732
 8892W        W74119  23.590  29.215   3.622
 8893W        W74120   5.959  40.885  12.834
 8894W        W74121  21.748  30.634   2.375
 8895W        W74122  28.428  18.638   0.656
 8896W        W74123  23.226  31.598   2.784
 8897W        W74124  12.491  35.124  13.905
 8898W        W74125  28.483  10.639  12.981
 8899W        W74126  15.529  22.395  12.114
 8900W        W74127  40.355  41.568   4.140
 8901W        W74128  41.741  31.633   3.133
 8902W        W74129  11.338  29.563   1.241
 8903W        W74130  43.706  13.343   0.929
 8904W        W74131  34.650  35.521   0.684
 8905W        W74132  11.699  20.130  11.608
 8906W        W74133  24.984   2.932   2.246
 8907W        W74134   4.521  38.459   3.658
 8908W        W74135  32.189   8.194   4.715
 8909W        W74136   3.782  36.363  10.376
 8910W        W74137  17.630  31.487  10.647
 8911W        W74138  14.997  37.045   0.449
 8912W        W74139   1.751   2.996   0.710
 8913W        W74140  40.975  18.405   0.593
 8914W        W74141   9.163   3.700   2.225
 8915W        W74142  33.967  44.840  13.291
 8916W        W74143  16.544  31.855   3.765
 8917W        W74144   7.080   5.111   4.329
 8918W        W74145  41.831  28.598  14.538
 8919W        W74146  14.115   3.297  12.437
 8920W        W74147   5.374   5.842   4.403
 8921W        W74148  43.024  36.741  13.391
 8922W        W74149   5.384  38.333  12.495
 8923W        W74150  38.404  36.997   2.773
 8924W        W74151  37.065   3.368  11.623
 8925W        W74152  24.966  41.965   1.282
 8926W        W74153  10.432  18.612   3.742
 8927W        W74154  41.948   1.196  11.935
 8928W        W74155  35.198  27.156   0.910
 8929W        W74156  43.795  15.064   3.157
 8930W        W74157  37.396  15.163   1.790
 8931W        W74158  19.491  41.309  12.449
 8932W        W74159  19.344  44.600   1.797
 8933W        W74160  10.427   8.639  10.381
 8934W        W74161  29.559  37.358   3.160
 8935W        W74162  12.105  31.845  12.506
 8936W        W74163   9.330   9.245   3.171
 8937W        W74164  14.770  32.456   3.707
 8938W        W74165  41.746  39.143   0.857
 8939W        W74166  21.180  26.741   4.561
 8940W        W74167   2.985  25.019  14.303
 8941W        W74168   6.386  37.025  13.355
 8942W        W74169  16.025  15.692  12.521
 8943W        W74170   0.080   0.899   0.699
 8944W        W74171   9.657  36.376   4.582
 8945W        W74172   3.883  10.666  14.093
 8946W        W74173  36.544  31.858   0.750
 8947W        W74174  19.218  44.129  13.634
 8948W        W74175  12.329  20.117   4.498
 8949W        W74176   3.465  24.317   4.597
 8950W        W74177   5.279   5.412   4.091
 8951W        W74178   7.674  32.943   0.002
 8952W        W74179  10.097  40.078  14.958
 8953W        W74180  34.337  29.732   3.767
 8954W        W74181  35.311  23.556   2.893
 8955W        W74182  14.055  33.143  14.942
 8956W        W74183  21.089  32.849  10.711
 8957W        W74184  38.530  11.479  11.015
 8958W        W74185  15.928  36.383  14.264
 8959W        W74186  20.727  29.472  11.754
 8960W        W74187  12.011  40.480   2.662
 8961W        W74188  43.942  20.969  11.577
 8962W        W74189  43.777  16.792   1.222
 8963W        W74190  40.146  22.773  11.804
 8964W        W74191   1.326  11.882  14.304
 8965W        W74192  34.011  17.308   3.587
 8966W        W74193  34.459  28.494  13.486
 8967W        W74194  36.068   9.582  13.513
 8968W        W74195   4.930   7.795   0.742
 8969W        W74196   3.744   7.711   3.621
 8970W        W74197  39.403  23.689  14.189
 8971W        W74198   8.729  40.930  11.569
 8972W        W74199  39.498   3.894   0.823
 8973W        W74200  17.569  15.710   3.743
 8974W        W74201  19.587  35.503   4.612
 8975W        W74202  23.999   7.779  12.939
 8976W        W74203  38.618  27.859   3.425
 8977W        W74204   0.082  22.434   1.262
 8978W        W74205  36.601  23.667   0.177
 8979W        W74206  34.508  21.572   0.840
 8980W        W74207  43.845   1.800  10.335
 8981W        W74208  38.985   0.004  12.068
 8982W        W74209   1.322  24.407   0.166
 8983W        W74210   3.804  33.006  10.707
 8984W        W74211  26.967  21.333  13.901
 8985W        W74212  36.138  39.839  12.650
 8986W        W74213  42.347   0.368  14.031
 8987W        W74214  12.513  12.859  10.963
 8988W        W74215  17.002  44.447  13.896
 8989W        W74216  12.839   2.823  10.737
 8990W        W74217  24.013  44.867   1.743
 8991W        W74218  10.819  17.710   2.928
 8992W        W74219  29.449  14.857  10.372
 8993W        W74220   2.581  19.317   2.583
 8994W        W74221  43.301  26.313  10.156
 8995W        W74222   2.275  14.280   2.691
 8996W        W74223  24.735  10.371  14.055
 8997W        W74224   5.317  26.764   2.710
 8998W        W74225  11.781  29.951   4.181
 8999W        W74226  11.514   2.282   4.648
 9000W        W74227  39.296  27.625  11.169
 9001W        W74228  40.838  39.814   3.426
 9002W        W74229   2.254  34.339  12.542
 9003W        W74230  44.304   2.422   0.700
 9004W        W74231  12.181  40.576  13.002
 9005W        W74232  28.449  39.879  12.430
 9006W        W74233  44.260  30.656   3.077
 9007W        W74234  44.895  23.722  13.834
 9008W        W74235  14.373  37.083  11.546
 9009W        W74236  36.117  41.257   3.196
 9010W        W74237  38.023   4.556   4.643
 9011W        W74238  36.064  37.426   0.543
 9012W        W74239  28.484   6.733  11.511
 9013W        W74240  18.862  19.999  11.866
 9014W        W74241   4.242  40.359   3.689
 9015W        W74242   9.950  43.377   3.342
 9016W        W74243  25.949  31.100  12.701
 9017W        W74244  20.876  12.774   0.017
 9018W        W74245   5.706  10.473   1.471
 9019W        W74246  42.729  16.213  11.508
 9020W        W74247  19.617   2.539  11.705
 9021W        W74248  19.508  15.130   1.722
 9022W        W74249  17.528  40.450   2.064
 9023W        W74250  44.943  31.378   4.998
 9024W        W74251  14.363  27.112   0.853
 9025W        W74252  33.899  14.833   1.814
 9026W        W74253  33.548  40.078   3.157
 9027W        W74254  37.612  20.590   1.756
 9028W        W74255  31.006  32.479  14.262
 9029W        W74256   0.420  34.153  10.556
 9030W        W74257  33.642  16.766   1.011
 9031W        W74258  40.270  10.366  14.488
 9032W        W74259  13.307   7.755  13.446
 9033W        W74260  30.680  12.247  12.545
 9034W        W74261  31.844  31.492   3.221
 9035W        W74262  19.830  21.082   1.772
 9036W        W74263  43.363  27.869  13.824
 9037W        W74264   7.015  24.647  12.145
 9038W        W74265  37.983  21.996  13.483
 9039W        W74266  10.179  35.438   1.683
 9040W        W74267  18.119  16.400  12.655
 9041W        W74268   5.288  20.257   3.492
 9042W        W74269  44.228  13.755  10.779
 9043W        W74270   8.546  12.896  10.761
 9044W        W74271  13.694  19.685   2.910
 9045W        W74272  23.011  33.176  11.619
 9046W        W74273  14.485  13.665  13.928
 9047W        W74274  28.386   8.856   0.493
 9048W        W74275   7.824   4.979   0.405
 9049W        W74276  34.456   7.389  13.642
 9050W        W74277  30.988   1.168   0.380
 9051W        W74278  35.352   1.472   1.346
 9052W        W74279  20.991   5.962   1.545
 9053W        W74280  44.190  33.427   1.559
 9054W        W74281  29.625  32.492  11.637
 9055W        W74282  18.567  31.566   1.744
 9056W        W74283  24.728  28.086  11.572
 9057W        W74284  37.878  38.533  11.068
 9058W        W74285  19.733   9.872   3.606
 9059W        W74286  25.269  13.144   1.336
 9060W        W74287  17.392  36.445  12.437
 9061W        W74288   1.321  13.867  11.227
 9062W        W74289  24.602  28.626  13.132
 9063W        W74290  43.411  23.497  11.182
 9064W        W74291  11.493  20.372  11.189
 9065W        W74292  26.698  28.418   4.744
 9066W        W74293  25.130   5.847  10.438
 9067W        W74294   0.961  27.011   1.805
 9068W        W74295  36.161  40.475   0.468
 9069W        W74296  10.224  40.939  11.644
 9070W        W74297  19.289   9.889   0.920
 9071W        W74298  37.564  20.153   2.805
 9072W        W74299   4.307  11.334  13.447
 9073W        W74300  44.636  32.502   1.345
 9074W        W74301  44.500  35.563  11.170
 9075W        W74302  21.652  42.215   1.310
 9076W        W74303  14.590  17.728  10.826
 9077W        W74304  12.691  41.897   4.095
 9078W        W74305  38.608  44.920   3.386
 9079W        W74306   0.388   5.439   3.561
 9080W        W74307  16.319   3.352  11.289
 9081W        W74308   3.474  20.971   3.207
 9082W        W74309  22.906   7.766   1.454
 9083W        W74310   4.484  14.247   1.315
 9084W        W74311  28.401   7.886  14.469
 9085W        W74312  40.746  15.939  12.610
 9086W        W74313   1.252  14.204  10.853
 9087W        W74314  29.609  42.010   3.297
 9088W        W74315  10.757  39.377  13.099
 9089W        W74316  35.697  35.360  12.440
 9090W        W74317  11.181  37.592  13.964
 9091W        W74318  37.821  34.189  14.886
 9092W        W74319  27.765  28.426   1.099
 9093W        W74320  34.572   5.741   3.837
 9094W        W74321  44.535   7.665   1.198
 9095W        W74322   5.854  32.522   0.942
 9096W        W74323  39.533  28.460   1.527
 9097W        W74324   2.989  42.865   0.830
 9098W        W74325   6.380  34.966   0.002
 9099W        W74326  31.097  21.116  12.106
 9100W        W74327  28.395  38.911  11.462
 9101W        W74328   9.828   3.996   0.437
 9102W        W74329   9.748   2.963   1.283
 9103W        W74330  43.189  43.014  11.315
 9104W        W74331  21.091  39.911  10.806
 9105W        W74332  19.050  27.701  14.703
 9106W        W74333  30.848  21.707   4.265
 9107W        W74334   0.886   6.200   1.797
 9108W        W74335  11.369  28.226   4.427
 9109W        W74336  26.189  21.517  14.376
 9110W        W74337  17.266  24.693  12.063
 9111W        W74338   7.839   5.739   0.787
 9112W        W74339  14.296  38.804   3.332
 9113W        W74340   8.776   5.789   4.135
 9114W        W74341  24.236  39.975  12.927
 9115W        W74342  33.695   1.942   3.703
 9116W        W74343  42.958  42.040   1.970
 9117W        W74344   0.493   3.355   0.896
 9118W        W74345  22.337  33.116  12.705
 9119W        W74346   9.096  14.178   2.752
 9120W        W74347  34.347   7.684  12.536
 9121W        W74348   7.274  24.888   1.439
 9122W        W74349   1.745   4.675  12.547
 9123W        W74350  38.490   1.507   4.579
 9124W        W74351  44.067  24.495   2.231
 9125W        W74352  44.946  36.342  13.537
 9126W        W74353  36.984  12.931  13.190
 9127W        W74354   9.331  38.409  13.837
 9128W        W74355  42.332  41.714  12.014
 9129W        W74356  15.562  38.726   1.489
 9130W        W74357  12.391   7.438  13.322
 9131W        W74358  21.600  28.984   2.438
 9132W        W74359   1.112  14.141  14.705
 9133W        W74360   7.544   1.577  12.655
 9134W        W74361  14.548  23.271  14.615
 9135W        W74362  15.789  26.948  12.790
 9136W        W74363  33.542  44.711  13.839
 9137W        W74364  24.546  43.577   1.766
 9138W        W74365  10.935   8.630  10.463
 9139W        W74366  31.870  18.265   1.996
 9140W        W74367   2.449  15.736   3.740
 9141W        W74368  32.142  22.949   2.776
 9142W        W74369  40.125  29.677  11.654
 9143W        W74370  10.364  10.409  14.482
 9144W        W74371  19.764  12.285   2.200
 9145W        W74372  43.596  41.653  12.109
 9146W        W74373  35.009   2.050   4.162
 9147W        W74374  24.591  10.630   3.149
 9148W        W74375   2.403  33.961   1.269
 9149W        W74376  44.603  38.416  14.767
 9150W        W74377   0.510  35.110  11.974
 9151W        W74378   1.315  19.543   2.806
 9152W        W74379  12.765  23.931   4.915
 9153W        W74380  21.647  29.193   1.038
 9154W        W74381  36.049   6.318   0.927
 9155W        W74382  16.093   8.688   0.914
 9156W        W74383  22.971  23.217  12.035
 9157W        W74384  31.003   3.631   1.808
 9158W        W74385  18.767  34.047   2.041
 9159W        W74386  39.726  33.725   2.708
 9160W        W74387  37.838  24.090   1.377
 9161W        W74388  38.959   3.228   4.308
 9162W        W74389  28.665  36.972  14.296
 9163W        W74390  10.687  31.624   0.404
 9164W        W74391  36.525   3.932  10.542
 9165W        W74392   4.465  34.589   0.517
 9166W        W74393  26.994  12.758   1.933
 9167W        W74394  39.569  13.251  14.270
 9168W        W74395  11.159   7.686   4.393
 9169W        W74396  10.083  42.582  14.848
 9170W        W74397   8.847   1.873   4.220
 9171W        W74398  20.257   7.178  11.143
 9172W        W74399   9.742  36.051   0.516
 9173W        W74400  18.749  21.124  10.754
 9174W        W74401  34.906  12.329   3.313
 9175W        W74402  23.253   5.476  13.839
 9176W        W74403  22.765  42.798   4.125
 9177W        W74404  30.765  20.098  12.647
 9178W        W74405  31.638  23.372   5.027
 9179W        W74406   1.275  17.079   3.265
 9180W        W74407  24.058  13.820  11.914
 9181W        W74408   0.982  10.745   0.620
 9182W        W74409   5.500  22.716  13.796
 9183W        W74410   7.728  28.578   2.367
 9184W        W74411  19.278   3.453   3.120
 9185W        W74412  14.723  35.636   4.174
 9186W        W74413  24.669  14.709  11.993
 9187W        W74414  31.905  17.285  13.830
 9188W        W74415  11.383   3.011  13.796
 9189W        W74416  43.854  12.732   1.289
 9190W        W74417  34.915  12.090  11.063
 9191W        W74418   2.875  10.357  12.896
 9192W        W74419  27.897  10.232  11.161
 9193W        W74420  17.016  17.648   1.956
 9194W        W74421  20.510  24.890   1.399
 9195W        W74422  43.925  26.162  11.759
 9196W        W74423  23.491  23.256  12.240
 9197W        W74424   8.282  27.051   1.342
 9198W        W74425   7.282  42.164  11.097
 9199W        W74426  25.558   1.851   2.843
 9200W        W74427  34.413   9.991   0.842
 9201W        W74428  44.198  30.545   0.829
 9202W        W74429  37.636   4.859   0.247
 9203W        W74430  17.727   9.704   3.623
 9204W        W74431  26.561  30.503  10.790
 9205W        W74432   7.801  43.434   1.861
 9206W        W74433   2.916  39.754   4.187
 9207W        W74434   9.791  24.739   2.660
 9208W        W74435  18.962  13.861   4.475
 9209W        W74436   2.893  16.577  12.422
 9210W        W74437  17.399  17.637  14.426
 9211W        W74438  19.236  23.429   2.741
 9212W        W74439   4.129  42.436  11.120
 9213W        W74440  11.941  11.066  14.840
 9214W        W74441  28.057   4.948   4.759
 9215W        W74442   6.653  42.937   1.422
 9216W        W74443  37.648  34.434   1.135
 9217W        W74444  29.879   4.176   4.291
 9218W        W74445   0.968  20.973   4.780
 9219W        W74446  13.333   0.277  11.449
 9220W        W74447  35.638  19.526   0.587
 9221W        W74448  19.061  12.649  13.723
 9222W        W74449  22.899   7.619  12.381
 9223W        W74450  29.230  32.963   3.338
 9224W        W74451  21.811  21.413   2.753
 9225W        W74452   8.437  21.589   4.047
 9226W        W74453  16.512   6.696   0.760
 9227W        W74454  38.605  20.991  12.406
 9228W        W74455  11.159  36.083   3.122
 9229W        W74456  36.833  17.347  11.580
 9230W        W74457  21.191   7.665  14.290
 9231W        W74458  34.608  20.915  14.566
 9232W        W74459  31.707  17.464   2.287
 9233W        W74460  20.258  42.730  12.180
 9234W        W74461  44.230  15.307  10.672
 9235W        W74462  15.308  14.235  13.957
 9236W        W74463  27.244  11.553   0.404
 9237W        W74464  44.195  39.735  10.698
 9238W        W74465   9.758   0.761   3.790
 9239W        W74466   3.279  36.388  12.799
 9240W        W74467  24.445   2.715   0.304
 9241W        W74468  31.591  26.195  14.086
 9242W        W74469  22.521  38.149  11.151
 9243W        W74470  11.152  26.476  10.665
 9244W        W74471   1.473  26.974   2.661
 9245W        W74472  42.195   4.734   1.912
 9246W        W74473  14.823  20.474  13.026
 9247W        W74474  14.391   7.735   4.504
 9248W        W74475  12.278   7.805   3.235
 9249W        W74476  32.583  16.637  13.841
 9250W        W74477  23.525  19.560   1.846
 9251W        W74478  43.934  27.144   0.469
 9252W        W74479  43.789  29.529   2.662
 9253W        W74480  35.817  23.721   1.829
 9254W        W74481  31.034  17.155  14.865
 9255W        W74482   4.952  29.542   2.895
 9256W        W74483  41.930  14.837  14.394
 9257W        W74484  41.447  17.555   2.539
 9258W        W74485   2.691  21.337  12.602
 9259W        W74486   1.735  32.548   2.013
 9260W        W74487  42.567  40.028   2.339
 9261W        W74488   9.199  18.721  13.900
 9262W        W74489  32.747  28.692   4.543
 9263W        W74490  42.737  33.566   4.121
 9264W        W74491  18.949  16.785   2.632
 9265W        W74492   4.205  28.541   0.985
 9266W        W74493  42.745  11.345   2.411
 9267W        W74494  25.008  26.878   2.357
 9268W        W74495  17.280  19.677  14.997
 9269W        W74496  16.594  32.377   1.733
 9270W        W74497  31.162  16.243   4.121
 9271W        W74498  21.043   9.396  11.533
 9272W        W74499   0.297   7.421  13.292
 9273W        W74500  29.872  16.344   4.729
 9274W        W74501  44.353  22.026   1.616
 9275W        W74502  42.512  19.310  14.922
 9276W        W74503  27.414  27.104  13.797
 9277W        W74504  31.930  29.161   1.876
 9278W        W74505   0.765   5.790   3.701
 9279W        W74506  44.548  38.132   2.776
 9280W        W74507   0.321  21.030   1.266
 9281W        W74508  14.908   1.952   9.631
 9282W        W74509  44.212  17.562  13.565
 9283W        W74510   5.474  44.012   3.878
 9284W        W74511   5.043   6.888   2.720
 9285W        W74512  18.232  22.066   1.967
 9286W        W74513  44.582  40.099   1.208
 9287W        W74514  15.214  24.786   4.216
 9288W        W74515  43.853  10.909  11.179
 9289W        W74516   2.822  20.597   2.181
 9290W        W74517  22.137   6.898   0.815
 9291W        W74518  22.621  34.361   4.759
 9292W        W74519  19.754  40.065  14.493
 9293W        W74520   0.143   5.764   1.343
 9294W        W74521  27.338   2.620  12.665
 9295W        W74522  12.569  32.458   2.648
 9296W        W74523  34.051  33.486  11.884
 9297W        W74524  42.961  25.663   2.285
 9298W        W74525   3.311   4.749   1.827
 9299W        W74526   7.681   0.736   4.710
 9300W        W74527  12.333  11.316  12.585
 9301W        W74528  39.549  38.633   2.377
 9302W        W74529   3.121  36.934  10.373
 9303W        W74530  13.706   0.675   2.952
 9304W        W74531   2.862  12.734  10.739
 9305W        W74532  38.119  27.124  13.408
 9306W        W74533  32.395  38.130   5.028
 9307W        W74534  40.477   6.730  14.395
 9308W        W74535  24.167  15.722   4.620
 9309W        W74536  37.125  42.984  12.090
 9310W        W74537  28.951  38.947  14.658
 9311W        W74538  10.593  19.429   1.340
 9312W        W74539  37.133  16.204  14.845
 9313W        W74540  36.806  27.349   0.726
 9314W        W74541  11.907  16.141   0.573
 9315W        W74542  44.396  40.475   4.120
 9316W        W74543  33.950  11.882   4.051
 9317W        W74544  17.546  35.125   1.810
 9318W        W74545  40.402  30.445  12.398
 9319W        W74546  37.757  37.876  10.142
 9320W        W74547   9.595   4.893  14.950
 9321W        W74548  12.242  31.260  13.331
 9322W        W74549  15.758   8.350  14.235
 9323W        W74550  41.569  19.840  11.627
 9324W        W74551  37.558  24.792   3.240
 9325W        W74552  42.012  12.129  12.064
 9326W        W74553   1.033  41.980   2.203
 9327W        W74554  36.480  32.092  13.422
 9328W        W74555  18.975   2.676  11.748
 9329W        W74556  25.278  40.201  12.343
 9330W        W74557  36.354  18.407   3.547
 9331W        W74558  22.070  29.529  13.874
 9332W        W74559  42.142  10.488   1.012
 9333W        W74560  44.875  36.392   2.250
 9334W        W74561  28.411  40.189  11.077
 9335W        W74562  20.740  28.988   2.209
 9336W        W74563  30.150  27.391  12.632
 9337W        W74564  43.831   0.513   4.806
 9338W        W74565  44.893  16.387   0.283
 9339W        W74566  22.986  30.918   2.393
 9340W        W74567  36.527  44.216  10.739
 9341W        W74568  23.629  34.260  12.437
 9342W        W74569  19.488  26.120  12.203
 9343W        W74570  25.694  10.900  12.482
 9344W        W74571  13.821   8.389  11.646
 9345W        W74572  12.823  30.224   3.796
 9346W        W74573   7.645  17.418   2.809
 9347W        W74574  14.581  38.749   2.849
 9348W        W74575   9.323  12.521   2.236
 9349W        W74576  27.009  39.535   3.186
 9350W        W74577   7.657  21.196   1.413
 9351W        W74578  16.808  37.829  11.594
 9352W        W74579  14.890  36.988  11.576
 9353W        W74580   8.393  30.041  14.776
 9354W        W74581  19.660  26.623   1.774
 9355W        W74582  36.049   2.167  14.161
 9356W        W74583  38.320  43.316   0.660
 9357W        W74584  35.528  39.332   4.630
 9358W        W74585  28.543  38.010  14.441
 9359W        W74586  39.301   1.480   1.273
 9360W        W74587  28.268  39.214   4.411
 9361W        W74588  18.124  37.047  12.488
 9362W        W74589  35.591  34.841  12.404
 9363W        W74590  31.248  27.475  12.562
 9364W        W74591  14.966  37.151  13.297
 9365W        W74592  44.601   5.322  14.385
 9366W        W74593  39.879  11.574  12.510
 9367W        W74594   3.064  24.061  11.925
 9368W        W74595  30.718   6.115  10.881
 9369W        W74596  38.057  37.340  12.354
 9370W        W74597  35.608  41.240   3.262
 9371W        W74598  21.311   4.372  14.778
 9372W        W74599  29.623  37.284  11.668
 9373W        W74600  28.668  32.276   3.839
 9374W        W74601  13.341  25.734   2.203
 9375W        W74602  22.782  30.910   3.224
 9376W        W74603  37.073  20.207   3.177
 9377W        W74604  34.611  36.048   5.339
 9378W        W74605  32.266   6.484  10.504
 9379W        W74606  27.330  23.514   4.125
 9380W        W74607  43.909  44.060  10.977
 9381W        W74608   7.407  16.560   0.038
 9382W        W74609  33.794  37.948  10.409
 9383W        W74610  26.896  15.789  11.022
 9384W        W74611  41.705   1.928   2.114
 9385W        W74612  35.445  41.503  14.312
 9386W        W74613  40.976  12.150   3.771
 9387W        W74614  32.636   9.307   4.136
 9388W        W74615  42.721  38.479   0.339
 9389W        W74616   4.917   9.169   4.843
 9390W        W74617  42.939  27.497   1.842
 9391W        W74618  11.069  35.051  11.372
 9392W        W74619  44.996  32.935  12.033
 9393W        W74620  40.180  37.057   4.310
 9394W        W74621  42.730  31.600   2.900
 9395W        W74622   2.457  29.111   1.524
 9396W        W74623  28.600  14.204   5.005
 9397W        W74624  16.695  44.161   0.241
 9398W        W74625  13.875   3.003   3.152
 9399W        W74626  22.188  34.786   4.052
 9400W        W74627  28.211  10.338   4.032
 9401W        W74628  27.556   9.384   0.784
 9402W        W74629  22.467  12.339  14.522
 9403W        W74630   7.205  13.815  12.086
 9404W        W74631   6.365  30.936   0.003
 9405W        W74632  14.345  40.618   2.249
 9406W        W74633  26.684  28.761   0.259
 9407W        W74634  10.848  14.219  13.859
 9408W        W74635  23.917  29.514  10.493
 9409W        W74636  21.586   8.755   4.639
 9410W        W74637  43.876  14.722   1.725
 9411W        W74638  28.012   1.703  13.958
 9412W        W74639  18.043  20.777   1.982
 9413W        W74640   3.804  18.289  12.157
 9414W        W74641  28.970  40.040  13.331
 9415W        W74642  31.485  37.491   4.112
 9416W        W74643  30.964  28.163   0.478
 9417W        W74644  15.182  13.976  14.966
 9418W        W74645   7.092  26.592   9.945
 9419W        W74646   2.960  22.566   3.262
 9420W        W74647  44.626  11.286  11.898
 9421W        W74648  20.586  35.643   4.495
 9422W        W74649  21.995  17.136  13.874
 9423W        W74650  18.012  37.978   1.387
 9424W        W74651   8.833   5.804  14.804
 9425W        W74652  39.495   9.679   0.407
 9426W        W74653   3.885  27.871  11.582
 9427W        W74654   7.754   2.608  10.877
 9428W        W74655  40.850  22.580  13.995
 9429W        W74656  39.395  26.508  12.135
 9430W        W74657  36.374  18.363   3.037
 9431W        W74658  10.059  27.172  12.947
 9432W        W74659  13.722   2.326   1.857
 9433W        W74660   5.517  42.314   1.197
 9434W        W74661  23.686   9.608   3.448
 9435W        W74662  39.407  10.388   3.795
 9436W        W74663   9.438  10.822   4.846
 9437W        W74664  11.219  26.935   4.120
 9438W        W74665  18.674  24.571  13.727
 9439W        W74666   8.897  11.281   0.359
 9440W        W74667  38.395  34.029   1.046
 9441W        W74668   5.323  13.842   2.735
 9442W        W74669  26.498  12.879   0.320
 9443W        W74670   8.339  42.553  14.999
 9444W        W74671  23.898  17.191  11.177
 9445W        W74672  43.637  38.590   2.208
 9446W        W74673  21.131  13.628   3.175
 9447W        W74674  43.687  38.441  11.080
 9448W        W74675  18.136  38.132  11.936
 9449W        W74676   7.304  23.689  13.317
 9450W        W74677  35.477  31.682  11.242
 9451W        W74678  37.060  15.727   0.637
 9452W        W74679  30.220   3.513  13.098
 9453W        W74680  10.384   2.517   2.413
 9454W        W74681   1.836  25.420  11.864
 9455W        W74682  21.431  28.151   0.779
 9456W        W74683  35.340  32.093   0.366
 9457W        W74684  24.034  18.561   0.674
 9458W        W74685   3.201  27.909   1.551
 9459W        W74686  16.825  17.750   2.421
 9460W        W74687  14.299  23.008   2.198
 9461W        W74688  13.198   8.849  10.978
 9462W        W74689  40.566  17.161   0.425
 9463W        W74690  41.966  28.517   1.704
 9464W        W74691  21.646   4.252  12.127
 9465W        W74692  35.031  36.547   1.862
 9466W        W74693   1.044  11.221  14.828
 9467W        W74694   0.705   6.880   3.672
 9468W        W74695  26.591  43.493   3.087
 9469W        W74696  43.650   5.719   4.363
 9470W        W74697   3.894  13.127   4.213
 9471W        W74698  17.915   1.292  13.461
 9472W        W74699  43.335  14.140   4.733
 9473W        W74700  35.849  12.108  14.518
 9474W        W74701   9.756  32.648  14.910
 9475W        W74702  15.144  38.309   2.268
 9476W        W74703  11.449  26.533  12.045
 9477W        W74704  31.549   8.130   1.213
 9478W        W74705  39.061  16.692   1.359
 9479W        W74706   4.366  10.729   4.682
 9480W        W74707  34.780  11.861  12.378
 9481W        W74708   6.655  17.350  13.037
 9482W        W74709  35.488  44.095  13.105
 9483W        W74710  10.310   6.271   1.384
 9484W        W74711   7.770  23.400   1.857
 9485W        W74712   5.318  10.778   4.682
 9486W        W74713   3.974  21.586   0.758
 9487W        W74714  30.028  10.128  14.500
 9488W        W74715   4.040  39.936   1.284
 9489W        W74716  16.651  43.768  12.131
 9490W        W74717  34.224  40.632  13.887
 9491W        W74718  41.150   0.754   1.366
 9492W        W74719  13.094  29.106   3.171
 9493W        W74720  34.770  24.430   1.784
 9494W        W74721  28.959  17.185   5.040
 9495W        W74722  44.813  13.857   4.469
 9496W        W74723   2.812   3.833  14.980
 9497W        W74724   6.965  23.218   3.103
 9498W        W74725  18.886  10.014  12.559
 9499W        W74726   2.780  25.796   2.337
 9500W        W74727  15.192  33.951  13.069
 9501W        W74728  28.472  40.666   0.124
 9502W        W74729  23.377  36.865  14.071
 9503W        W74730   8.575   2.410   1.908
 9504W        W74731  34.808  12.185  10.485
 9505W        W74732  36.384  12.108   1.913
 9506W        W74733   4.506  38.505  12.360
 9507W        W74734  36.567  34.736  11.349
 9508W        W74735   3.238  41.258   5.069
 9509W        W74736  22.683  26.377  10.486
 9510W        W74737  15.688  43.442  12.898
 9511W        W74738  31.604  13.837  11.327
 9512W        W74739   8.817   0.863   1.916
 9513W        W74740  29.936  12.747  12.393
 9514W        W74741  35.172   7.149   3.284
 9515W        W74742   8.131  41.018  13.339
 9516W        W74743  35.046  14.655   0.811
 9517W        W74744  26.759  14.063  12.594
 9518W        W74745  23.926  15.322   4.856
 9519W        W74746  31.723  28.244   3.282
 9520W        W74747  40.565  24.253  12.606
 9521W        W74748   7.712  28.208  11.313
 9522W        W74749   9.974  19.146  12.056
 9523W        W74750  23.130  38.446   3.579
 9524W        W74751  29.116  19.752  13.264
 9525W        W74752  26.201  28.622  10.719
 9526W        W74753  17.246  19.433   9.982
 9527W        W74754  17.630  18.101   1.645
 9528W        W74755  42.871   3.739  13.459
 9529W        W74756  25.030  21.295  13.554
 9530W        W74757  18.637  13.768  14.764
 9531W        W74758   6.311   4.614   4.962
 9532W        W74759  18.282  40.768   2.787
 9533W        W74760  27.639  38.899   3.623
 9534W        W74761  17.754  23.523   4.110
 9535W        W74762   2.984  28.142   1.000
 9536W        W74763  40.291  12.346  14.470
 9537W        W74764  40.852   6.621  10.774
 9538W        W74765  22.382  44.720  12.368
 9539W        W74766  44.123  41.451  13.485
 9540W        W74767  11.720  25.229  14.842
 9541W        W74768   7.283  40.927  11.886
 9542W        W74769  43.300   4.967  14.623
 9543W        W74770  13.229  16.754  13.045
 9544W        W74771  22.043  37.969  14.974
 9545W        W74772  19.193   5.190   4.495
 9546W        W74773  17.148  39.497   0.864
 9547W        W74774  28.610  14.782  14.118
 9548W        W74775   9.316  17.329   2.379
 9549W        W74776  32.853   6.780   0.258
 9550W        W74777   0.705  39.502   1.394
 9551W        W74778   4.687  44.468  13.372
 9552W        W74779   0.038  20.691   2.237
 9553W        W74780  26.668  10.467   3.672
 9554W        W74781  41.112  37.832  14.175
 9555W        W74782  14.777  27.476   3.253
 9556W        W74783  12.377  14.696  11.515
 9557W        W74784   0.949   7.946   1.755
 9558W        W74785  34.572   0.841  11.228
 9559W        W74786   0.592  38.005   3.671
 9560W        W74787  31.626  27.902   0.417
 9561W        W74788  19.637  12.316   3.377
 9562W        W74789  34.925  27.578   3.902
 9563W        W74790  28.213  34.462  11.991
 9564W        W74791  36.090   4.476   2.645
 9565W        W74792   1.042  25.909  11.457
 9566W        W74793   7.773  42.410   2.806
 9567W        W74794  24.449   9.221  13.731
 9568W        W74795   6.194  11.307  14.251
 9569W        W74796  34.268  26.315   2.694
 9570W        W74797  40.922  23.733   0.894
 9571W        W74798  13.619  17.183  14.149
 9572W        W74799   2.389  35.144  13.521
 9573W        W74800  31.921   1.893  14.363
 9574W        W74801   8.081  18.726  12.883
 9575W        W74802   2.015  38.879   3.722
 9576W        W74803  31.019  19.693  13.919
 9577W        W74804  36.617  40.815  14.311
 9578W        W74805  36.755  29.738  14.660
 9579W        W74806  15.307  12.184  12.492
 9580W        W74807  12.594  26.997  10.635
 9581W        W74808  28.880   6.368   4.230
 9582W        W74809  29.245  44.417  11.073
 9583W        W74810  19.911  28.832  14.128
 9584W        W74811  33.090  42.237  12.768
 9585W        W74812  21.079  30.692   0.286
 9586W        W74813  30.516  27.672  11.810
 9587W        W74814  24.566   8.325  10.753
 9588W        W74815  38.981  27.321  12.932
 9589W        W74816  20.054  16.908  11.166
 9590W        W74817   8.416  33.766   4.891
 9591W        W74818  22.485   8.740  14.643
 9592W        W74819   7.258  16.512   4.927
 9593W        W74820   9.801  19.209   3.602
 9594W        W74821  23.555   9.133  14.776
 9595W        W74822   8.142  16.777  12.043
 9596W        W74823  17.066  22.389  10.712
 9597W        W74824  27.074  40.201  13.671
 9598W        W74825  14.744  22.623  11.204
 9599W        W74826  20.818  31.384   2.479
 9600W        W74827  17.063  25.551   4.049
 9601W        W74828  23.439  38.017   3.564
 9602W        W74829  21.064   5.714  12.656
 9603W        W74830  43.145  44.167  10.626
 9604W        W74831  31.535  25.643  13.925
 9605W        W74832   3.828   8.391  14.393
 9606W        W74833  19.089  12.274  11.794
 9607W        W74834  38.919  38.799   1.190
 9608W        W74835  37.829   1.815  14.410
 9609W        W74836  39.079   7.649   1.723
 9610W        W74837   6.848  14.112  14.334
 9611W        W74838  16.579   9.279   0.326
 9612W        W74839  33.733  19.569   0.925
 9613W        W74840  28.096  26.049  14.351
 9614W        W74841  35.469  41.027   1.217
 9615W        W74842  29.004  17.439   9.884
 9616W        W74843  17.660  31.200  12.103
 9617W        W74844  26.185  33.825  13.771
 9618W        W74845  38.028  26.604   3.822
 9619W        W74846  11.596  18.917  13.264
 9620W        W74847  38.514  30.560   0.918
 9621W        W74848  17.698   3.645  11.161
 9622W        W74849  41.872  38.812  10.812
 9623W        W74850  21.684  25.173  14.541
 9624W        W74851  44.508  14.017   4.080
 9625W        W74852   3.234  22.331  12.819
 9626W        W74853  13.917  26.258  12.594
 9627W        W74854  33.092   2.498  13.908
 9628W        W74855  24.598  29.637   0.839
 9629W        W74856  23.981  43.858   3.644
 9630W        W74857  23.377  38.455  11.182
 9631W        W74858  25.214  41.380   2.744
 9632W        W74859   8.313  32.578   2.259
 9633W        W74860   0.988  44.281  13.957
 9634W        W74861  12.218   6.481  13.464
 9635W        W74862  35.882  10.640  14.337
 9636W        W74863   3.443  11.250   0.050
 9637W        W74864  15.348  34.269   3.301
 9638W        W74865  26.510  21.090  14.042
 9639W        W74866  42.919  20.127   1.645
 9640W        W74867   8.767   1.741   2.901
 9641W        W74868   6.430  22.112   3.320
 9642W        W74869  39.097  13.335  12.950
 9643W        W74870  14.815  18.565   3.747
 9644W        W74871   5.187  40.110   3.654
 9645W        W74872  12.892  42.467   3.700
 9646W        W74873  23.272  36.965  11.970
 9647W        W74874  26.515  38.552  11.151
 9648W        W74875  40.011  31.963   0.752
 9649W        W74876  11.674  32.841   2.818
 9650W        W74877   1.460   5.751   1.243
 9651W        W74878  10.184  23.549  10.722
 9652W        W74879  33.556  33.129   3.830
 9653W        W74880  13.881  13.822  11.760
 9654W        W74881  36.387  18.822   0.320
 9655W        W74882  19.374  20.118  11.927
 9656W        W74883  42.597  25.710  11.505
 9657W        W74884  13.244  37.084   1.368
 9658W        W74885  21.622  21.471  10.757
 9659W        W74886  11.355  15.603  14.551
 9660W        W74887   6.258  19.799  14.808
 9661W        W74888  30.414   8.410  13.474
 9662W        W74889  11.232  35.616  12.611
 9663W        W74890  15.131   5.855   3.610
 9664W        W74891  33.931   7.570   0.803
 9665W        W74892   7.465  40.538   0.253
 9666W        W74893  38.780  40.811   2.807
 9667W        W74894  30.053  24.957   2.789
 9668W        W74895  15.740  25.309  10.729
 9669W        W74896  42.346  29.633   0.001
 9670W        W74897  38.960  36.649   4.602
 9671W        W74898  22.250   2.236  14.352
 9672W        W74899   4.523  21.789   1.058
 9673W        W74900  32.212   8.944  13.959
 9674W        W74901   3.876  17.245   0.359
 9675W        W74902   2.890  16.616   2.080
 9676W        W74903  13.407  20.124   2.887
 9677W        W74904  22.707  21.368   1.408
 9678W        W74905  30.112  21.269  13.176
 9679W        W74906  25.982  36.405   1.743
 9680W        W74907  30.446   7.245   2.240
 9681W        W74908  15.612  31.118  12.142
 9682W        W74909  13.376   9.151   2.795
 9683W        W74910  20.152  18.229  13.234
 9684W        W74911  41.054  44.056  14.212
 9685W        W74912  22.172   9.426  14.964
 9686W        W74913  32.624   3.197  14.457
 9687W        W74914  11.649  25.463  11.872
 9688W        W74915   7.676  36.281  13.543
 9689W        W74916  11.571   6.271  11.947
 9690W        W74917  19.377  44.384   1.288
 9691W        W74918  26.423  18.027   4.120
 9692W        W74919  26.459  30.246  11.607
 9693W        W74920  35.811   4.834  10.721
 9694W        W74921  38.879  21.123   1.863
 9695W        W74922  37.019   2.862   4.318
 9696W        W74923  36.858   4.683  11.975
 9697W        W74924  10.198   1.002  12.533
 9698W        W74925   8.444  20.147   3.585
 9699W        W74926  18.492  36.909   1.084
 9700W        W74927   2.751   6.998  12.954
 9701W        W74928  15.170  33.407   3.652
 9702W        W74929  38.196  15.829   1.714
 9703W        W74930  29.572  33.065  11.704
 9704W        W74931  34.657  28.900  13.779
 9705W        W74932  43.987  43.375  13.948
 9706W        W74933  38.989  40.547   4.177
 9707W        W74934  22.990  39.945   0.725
 9708W        W74935  17.185  38.482   3.252
 9709W        W74936   3.106  27.885  11.227
 9710W        W74937  34.928  14.212   1.456
 9711W        W74938  27.562  40.044   0.239
 9712W        W74939  23.190  25.113   0.437
 9713W        W74940  38.339  13.756  14.685
 9714W        W74941  42.998  41.560   4.526
 9715W        W74942  38.339  26.013   2.707
 9716W        W74943   0.850  44.971  11.259
 9717W        W74944  44.478  33.985   2.368
 9718W        W74945   3.449  17.466  13.930
 9719W        W74946   3.802   6.645  12.383
 9720W        W74947  17.317   4.828   1.256
 9721W        W74948  14.426   9.765  10.241
 9722W        W74949  37.044  14.086   3.781
 9723W        W74950  19.199  39.636   4.076
 9724W        W74951  12.452  36.258  13.500
 9725W        W74952  42.904  28.387   5.087
 9726W        W74953   1.377  42.383   2.804
 9727W        W74954  41.469  30.167   3.386
 9728W        W74955  15.033  10.938   4.105
 9729W        W74956  41.417  41.145   4.109
 9730W        W74957   4.745  35.144  14.628
 9731W        W74958  42.035  43.066   9.830
 9732W        W74959  24.347  23.381   2.543
 9733W        W74960  40.506   1.735  12.057
 9734W        W74961   9.716   4.413   4.812
 9735W        W74962  29.792  19.748  10.860
 9736W        W74963  26.726   9.067   2.745
 9737W        W74964  24.915  15.617   4.068
 9738W        W74965   1.295  12.651  13.917
 9739W        W74966  19.057  14.599   1.446
 9740W        W74967  39.588  35.453   2.731
 9741W        W74968  13.631   9.064  12.828
 9742W        W74969  11.180  28.851   0.319
 9743W        W74970  23.020  42.304  10.685
 9744W        W74971  25.745  18.061   0.263
 9745W        W74972  26.888   6.450  12.499
 9746W        W74973  37.059  28.596   2.245
 9747W        W74974  12.678   6.653   1.333
 9748W        W74975  40.538  34.840   0.783
 9749W        W74976   4.389  17.190   0.397
 9750W        W74977   6.559  15.923  13.809
 9751W        W74978  38.820  13.382  10.416
 9752W        W74979   5.629  39.882   3.742
 9753W        W74980   7.241  39.311   1.166
 9754W        W74981  11.417  42.376   4.914
 9755W        W74982  42.951  44.217  13.357
 9756W        W74983   7.418  10.935   3.643
 9757W        W74984  31.073  44.383   0.303
 9758W        W74985  30.662  33.169  13.952
 9759W        W74986  34.631  18.513   1.407
 9760W        W74987  15.923  32.133  11.504
 9761W        W74988  41.358  10.586  12.810
 9762W        W74989  41.444  22.522   1.656
 9763W        W74990  12.493   0.121   3.551
 9764W        W74991  35.815  19.000   2.408
 9765W        W74992   4.314   9.103  10.253
 9766W        W74993  21.573  29.588   4.933
 9767W        W74994   7.393  41.380  11.561
 9768W        W74995   4.906   5.945  11.232
 9769W        W74996   2.042  41.386  11.175
 9770W        W74997  11.221  19.848   1.737
 9771W        W74998  15.625  12.298   0.404
 9772W        W74999  36.927  19.557   0.257
 9773W        W75000  11.140  32.607  12.001
 9774W        W75001  16.177  25.003   3.321
 9775W        W75002  38.406  43.291   2.790
 9776W        W75003  39.334   1.276   2.066
 9777W        W75004  36.074  40.776   0.006
 9778W        W75005  41.543   8.718   1.782
 9779W        W75006   8.121  35.579  12.961
 9780W        W75007  27.638  14.514   4.079
 9781W        W75008   4.146  13.601  12.017
 9782W        W75009  29.905  36.088   1.262
 9783W        W75010   9.193   1.316  12.087
 9784W        W75011  43.690  23.961   2.900
 9785W        W75012  17.041   3.276   1.794
 9786W        W75013  20.989  36.009   2.264
 9787W        W75014  37.796  37.588  11.986
 9788W        W75015  16.439  23.793   1.761
 9789W        W75016  33.062   8.237   3.514
 9790W        W75017  20.424  20.203   0.652
 9791W        W75018  40.430  29.670   2.234
 9792W        W75019  40.524  36.269  11.185
 9793W        W75020  14.409  35.813   1.627
 9794W        W75021   9.727  11.421  10.717
 9795W        W75022  43.305  28.478  10.642
 9796W        W75023  43.999   3.241  14.516
 9797W        W75024   2.376   0.007   1.098
 9798W        W75025  42.039  22.494  13.549
 9799W        W75026  14.837  33.081   0.814
 9800W        W75027   9.790  29.365  11.548
 9801W        W75028  10.304   0.495   1.469
 9802W        W75029  41.998  32.022  12.424
 9803W        W75030  36.024  19.524  11.472
 9804W        W75031  37.746  44.836   0.895
 9805W        W75032   7.462  15.223  12.831
 9806W        W75033  44.652  10.315   3.405
 9807W        W75034   3.826  12.155  12.438
 9808W        W75035  30.674  19.227  12.620
 9809W        W75036   3.861  44.846  11.858
 9810W        W75037  34.541  27.943   1.403
 9811W        W75038   8.985   6.240  14.521
 9812W        W75039  43.331   4.256  11.396
 9813W        W75040  12.631  25.560   2.306
 9814W        W75041  18.348   6.685   1.723
 9815W        W75042  16.052  29.845  13.164
 9816W        W75043  33.108  41.721  12.656
 9817W        W75044  21.957  36.554  14.530
 9818W        W75045  40.877  20.993  12.896
 9819W        W75046  20.957  17.580   2.314
 9820W        W75047  43.209  20.758  10.521
 9821W        W75048  25.083  22.160  12.767
 9822W        W75049  12.225  16.959   0.276
 9823W        W75050  25.959  34.928  10.847
 9824W        W75051  32.901  15.350  13.742
 9825W        W75052  14.703  32.216   4.175
 9826W        W75053   4.158   2.959   2.943
 9827W        W75054   3.003  33.506  12.981
 9828W        W75055  23.831  41.750   5.081
 9829W        W75056  30.424  29.115  13.346
 9830W        W75057   2.934  31.356  12.082
 9831W        W75058  44.224   3.966  12.374
 9832W        W75059  25.185  31.248   0.387
 9833W        W75060   3.477  30.812   4.586
 9834W        W75061  25.749  27.603  12.050
 9835W        W75062  42.280   2.381  12.474
 9836W        W75063  38.789  10.569   4.115
 9837W        W75064  42.869  28.877   4.174
 9838W        W75065  35.795   0.652   4.569
 9839W        W75066  38.370  16.863   0.355
 9840W        W75067  24.904   4.319  11.550
 9841W        W75068   9.397  13.743   3.690
 9842W        W75069  41.516  31.979  12.218
 9843W        W75070  22.082  11.714   3.840
 9844W        W75071   4.793   8.298  13.121
 9845W        W75072  15.932  32.175  10.204
 9846W        W75073  19.097  40.204   2.648
 9847W        W75074  34.450  38.488  12.642
 9848W        W75075  16.611   2.397   1.690
 9849W        W75076  33.711  26.509  13.406
 9850W        W75077  35.028  24.728   2.303
 9851W        W75078   7.457  41.390  14.743
 9852W        W75079  16.886  25.016  12.091
 9853W        W75080   5.395  10.864   4.134
 9854W        W75081   3.750  33.902   3.110
 9855W        W75082  23.625  28.687   2.166
 9856W        W75083  38.807  26.612   3.148
 9857W        W75084  20.272  16.269   2.764
 9858W        W75085  20.237  23.033  10.985
 9859W        W75086  38.504  38.529   0.362
 9860W        W75087   2.951  35.534   4.627
 9861W        W75088  35.483  44.100  12.045
 9862W        W75089  23.767  31.708  11.466
 9863W        W75090  36.160  16.106   2.722
 9864W        W75091  35.383  41.875  11.656
 9865W        W75092  15.552   1.701  12.414
 9866W        W75093  28.380  17.615  14.830
 9867W        W75094  21.052  18.440  11.540
 9868W        W75095  28.560  14.830   1.659
 9869W        W75096  42.501   4.322   0.337
 9870W        W75097  12.820  28.135  12.511
 9871W        W75098   8.583   0.808  14.638
 9872W        W75099  38.458   7.384  13.290
 9873W        W75100  39.572  29.094   1.864
 9874W        W75101  33.643   5.685   4.183
 9875W        W75102  22.107  24.355   5.124
 9876W        W75103  34.000   7.218  14.827
 9877W        W75104  34.076  20.190   2.855
 9878W        W75105  17.843   2.089   3.277
 9879W        W75106   1.341   5.432   3.173
 9880W        W75107  24.277  30.842  14.933
 9881W        W75108  44.302   6.377   4.691
 9882W        W75109   6.447  43.349  10.733
 9883W        W75110  44.140  42.815   4.588
 9884W        W75111  36.584  41.769  14.400
 9885W        W75112  22.025  17.552   1.428
 9886W        W75113  16.074  13.269  12.358
 9887W        W75114  36.924  11.852  12.072
 9888W        W75115  19.676  23.685  14.455
 9889W        W75116   8.851  17.842   2.275
 9890W        W75117   6.604   4.691   3.278
 9891W        W75118   6.448  24.983   9.829
 9892W        W75119  14.149  11.059  12.840
 9893W        W75120  30.581  32.994  10.806
 9894W        W75121  36.452   1.245   3.195
 9895W        W75122  23.090  21.778  12.058
 9896W        W75123  42.838  16.233   1.284
 9897W        W75124   4.303  12.847  14.461
 9898W        W75125  22.568  12.878  13.094
 9899W        W75126  22.796  22.406  10.745
 9900W        W75127  15.100  11.309   3.339
 9901W        W75128  29.718  39.511   0.027
 9902W        W75129  31.631  38.614  14.012
 9903W        W75130  21.797   9.619   2.749
 9904W        W75131   8.774  29.665   3.191
 9905W        W75132  12.147  41.179   3.149
 9906W        W75133   6.424  32.885  11.038
 9907W        W75134  24.207  15.334   1.401
 9908W        W75135  43.314   4.886   3.754
 9909W        W75136  37.446  17.335   1.407
 9910W        W75137   3.176  38.529  11.013
 9911W        W75138   0.620  36.759  12.098
 9912W        W75139  44.582   2.300   2.626
 9913W        W75140  38.549  35.843   2.280
 9914W        W75141  11.893   7.616  12.039
 9915W        W75142   9.940  15.072   1.949
 9916W        W75143  22.254   1.906   2.656
 9917W        W75144  25.115  39.946  14.309
 9918W        W75145   4.816   4.428   1.212
 9919W        W75146   6.777  18.848  11.550
 9920W        W75147  14.169   0.787   1.304
 9921W        W75148  39.818  26.791  14.277
 9922W        W75149  40.574  23.738  14.418
 9923W        W75150  20.166  41.085  12.612
 9924W        W75151  40.490  27.969   0.302
 9925W        W75152  15.954  33.698  12.111
 9926W        W75153  34.510   5.807  11.428
 9927W        W75154  12.614  27.871  14.763
 9928W        W75155   3.075  42.372  13.736
 9929W        W75156  36.143  11.536   4.797
 9930W        W75157  18.070  28.877   3.706
 9931W        W75158  40.045  38.102   3.547
 9932W        W75159  32.293  23.538   5.022
 9933W        W75160  26.604  15.177   0.100
 9934W        W75161   6.747  24.569   4.452
 9935W        W75162  11.200  30.126   4.967
 9936W        W75163  43.295   2.497   0.659
 9937W        W75164   0.359  41.918  10.696
 9938W        W75165  43.847  32.956  14.770
 9939W        W75166  21.357  29.381   4.090
 9940W        W75167  41.021  14.038  13.985
 9941W        W75168  43.037  30.362   4.770
 9942W        W75169  23.072  13.643  13.014
 9943W        W75170  12.541  11.179   3.273
 9944W        W75171  27.912  32.172  12.428
 9945W        W75172  40.648  43.472  13.588
 9946W        W75173  30.583  23.035  13.569
 9947W        W75174  40.363  20.161  13.862
 9948W        W75175  39.032  24.622  11.680
 9949W        W75176  33.382  39.551  12.867
 9950W        W75177  43.587  25.004   0.622
 9951W        W75178  23.752  29.733   0.822
 9952W        W75179  15.964  23.342  12.091
 9953W        W75180   5.813  12.188  11.754
 9954W        W75181   2.682  16.316   3.220
 9955W        W75182   8.282  13.588  10.291
 9956W        W75183  15.187  20.726   4.523
 9957W        W75184  16.537  41.326  13.495
 9958W        W75185  25.610  12.138  13.866
 9959W        W75186  21.752  27.217  12.815
 9960W        W75187  41.966  39.763  13.849
 9961W        W75188  33.154  16.788   4.201
 9962W        W75189  42.130  41.231  12.030
 9963W        W75190  18.532  10.679  10.354
 9964W        W75191  37.125  28.973  11.972
 9965W        W75192  28.153  31.100  12.514
 9966W        W75193  40.014  31.431   2.842
 9967W        W75194  19.472  27.155  13.649
 9968W        W75195  14.882  14.694   1.471
 9969W        W75196   9.182  17.583  13.714
 9970W        W75197   2.358   7.693   1.486
 9971W        W75198  22.060   4.995   0.026
 9972W        W75199  17.965  22.866   3.076
 9973W        W75200  22.317  23.581  14.511
 9974W        W75201  41.026  42.433  14.795
 9975W        W75202   6.942  14.394  14.791
 9976W        W75203  44.753   3.459  13.381
 9977W        W75204  17.300  30.407  13.811
 9978W        W75205  12.286   0.951   0.896
 9979W        W75206  42.515   3.572  14.397
 9980W        W75207   8.718  41.474   3.266
 9981W        W75208  27.161  21.998  10.705
 9982W        W75209  24.236   6.226  13.461
 9983W        W75210  22.226  15.670   4.375
 9984W        W75211  10.731  26.970   1.130
 9985W        W75212  14.975  35.663   0.288
 9986W        W75213  25.992  13.210   1.949
 9987W        W75214  13.872  13.015   1.444
 9988W        W75215  21.959  14.778  14.409
 9989W        W75216  33.566   8.456   0.012
 9990W        W75217   9.019   7.633  13.958
 9991W        W75218   7.859  43.822  12.415
 9992W        W75219  39.925  42.735   1.400
 9993W        W75220  35.603  14.620  14.314
 9994W        W75221  36.829   4.682  11.097
 9995W        W75222  38.076  30.453  12.918
 9996W        W75223  40.990   4.283  13.379
 9997W        W75224   0.770  28.639   1.120
 9998W        W75225   2.293  10.849   2.211
 9999W        W75226   7.815   6.873   4.899
10000W        W75227  34.455  30.612   0.909
10001W        W75228  27.988  19.509  13.037
10002W        W75229  43.952  11.065   2.690
10003W        W75230  38.405  14.794  12.125
10004W        W75231  33.313  18.864  14.743
10005W        W75232  30.408  33.984   0.152
10006W        W75233  30.699  25.652  13.419
10007W        W75234   6.736  21.303   1.281
10008W        W75235  14.778  15.011  12.832
10009W        W75236  34.682   8.195   2.136
10010W        W75237  17.645  17.073   4.278
10011W        W75238   2.470  42.333   2.320
10012W        W75239  36.874  18.197   4.241
10013W        W75240  15.431  24.879  13.728
10014W        W75241  42.535  44.724  14.431
10015W        W75242  18.371   3.302   3.651
10016W        W75243  35.423  21.243  13.944
10017W        W75244  42.696  36.598   1.699
10018W        W75245   2.824   4.068  14.513
10019W        W75246  19.167  29.281   3.854
10020W        W75247   8.565   9.228  12.687
10021W        W75248  35.977   3.159  13.915
10022W        W75249  12.041  30.967   4.606
10023W        W75250  32.879  15.831  13.442
10024W        W75251  28.918   7.093   4.941
10025W        W75252   3.334  23.096  14.763
10026W        W75253  34.569  26.593   1.741
10027W        W75254  38.863   0.543  10.693
10028W        W75255  16.052  31.854   3.911
10029W        W75256  35.898  44.086   2.579
10030W        W75257   2.680  33.387   3.486
10031W        W75258  16.113  25.652   4.330
10032W        W75259  26.481  24.486   1.562
10033W        W75260   6.764  32.236  13.963
10034W        W75261   7.658  28.288  12.047
10035W        W75262  26.127  35.397  14.767
10036W        W75263   2.400  33.331  12.569
10037W        W75264  42.461  17.195  12.524
10038W        W75265  28.633  24.654  12.153
10039W        W75266  44.242  33.015   2.438
10040W        W75267  38.017  26.195  12.490
10041W        W75268  42.408   2.109   3.663
10042W        W75269  19.581   8.623  14.904
10043W        W75270  44.718  35.645  14.602
10044W        W75271  10.174  42.778   2.227
10045W        W75272  11.165  12.423  10.847
10046W        W75273   9.448  30.031  12.235
10047W        W75274  40.568  21.091   0.910
10048W        W75275  11.601  19.266   0.375
10049W        W75276  36.493  33.650   4.240
10050W        W75277   7.848   7.779   4.867
10051W        W75278  42.242  22.263  13.971
10052W        W75279  15.545  10.279   1.961
10053W        W75280  27.438  29.510   1.364
10054W        W75281  13.300   9.804  12.193
10055W        W75282  41.408  26.168   0.363
10056W        W75283  42.557   4.916  11.597
10057W        W75284  34.185  43.251   1.824
10058W        W75285  36.576  36.994  12.932
10059W        W75286  42.872  33.063  10.643
10060W        W75287   0.203   2.424  13.084
10061W        W75288   0.844  12.023  12.035
10062W        W75289   9.659  16.112  12.610
10063W        W75290  23.171  15.063  11.974
10064W        W75291  32.496  37.412   2.117
10065W        W75292  27.548  35.382   3.419
10066W        W75293  10.352  30.863   0.743
10067W        W75294  14.864  39.924  10.825
10068W        W75295  17.535  14.738  11.119
10069W        W75296  31.388  25.056  14.002
10070W        W75297  24.435   4.231   4.603
10071W        W75298  17.817   5.391  13.229
10072W        W75299  24.922   1.913   0.880
10073W        W75300  16.179  40.765   0.976
10074W        W75301   1.282   0.812  12.591
10075W        W75302   8.252  37.595   1.250
10076W        W75303  41.091   3.609   2.048
10077W        W75304  42.060   7.058   4.534
10078W        W75305   7.896   8.815  12.628
10079W        W75306  38.737  16.840   4.343
10080W        W75307  40.723  36.953   4.662
10081W        W75308  39.257   6.095   3.543
10082W        W75309  21.785  26.613   4.026
10083W        W75310  33.986  31.241   0.937
10084W        W75311  28.435  26.972   9.778
10085W        W75312  21.258  28.877  12.615
10086W        W75313  36.873  39.066  13.329
10087W        W75314  41.506  31.176   5.039
10088W        W75315  34.022  23.829  12.039
10089W        W75316  19.862  28.881   2.230
10090W        W75317  26.451  10.958   3.694
10091W        W75318  12.843  17.174   1.738
10092W        W75319  16.870   5.279  12.551
10093W        W75320   9.111  18.171  12.689
10094W        W75321  22.042  22.959   2.157
10095W        W75322  32.253   1.195   2.236
10096W        W75323   4.367  39.362  14.464
10097W        W75324   8.753  30.125   1.306
10098W        W75325  24.777  19.261   3.615
10099W        W75326  42.291   2.656  11.096
10100W        W75327   8.711  40.576   3.668
10101W        W75328  31.495  22.686  12.996
10102W        W75329  17.138  11.211  14.256
10103W        W75330  42.480  41.510  14.833
10104W        W75331  13.947  18.738  14.016
10105W        W75332  20.983  29.424   3.502
10106W        W75333  16.242   0.675  12.618
10107W        W75334  15.153   3.951  14.280
10108W        W75335  32.870  32.770   1.627
10109W        W75336  25.633  30.961   4.548
10110W        W75337  12.969  42.161   1.860
10111W        W75338   4.322  35.522   3.235
10112W        W75339  17.678  24.062   1.966
10113W        W75340  41.017  43.797  14.706
10114W        W75341  20.695   1.489  12.830
10115W        W75342  26.333  16.299   1.176
10116W        W75343  27.187  38.014   3.904
10117W        W75344  12.212   5.944  11.635
10118W        W75345  32.580  22.771  11.267
10119W        W75346  21.973  32.477   1.266
10120W        W75347  37.346  39.096  13.536
10121W        W75348   9.631  44.159   1.667
10122W        W75349  43.759  22.607  12.049
10123W        W75350   9.001  15.723   1.184
10124W        W75351  11.741  27.649  14.333
10125W        W75352  29.217  36.391  10.353
10126W        W75353  24.551  29.426   1.309
10127W        W75354  38.001  12.696  13.272
10128W        W75355  41.553  10.276   4.206
10129W        W75356  44.338   1.208  10.711
10130W        W75357  35.049  21.038   1.371
10131W        W75358  10.611  43.646  12.085
10132W        W75359   7.097  29.951  14.952
10133W        W75360  33.275  23.272  13.559
10134W        W75361  36.446  30.001   0.462
10135W        W75362  31.761  20.282  14.046
10136W        W75363  22.216  27.255   0.467
10137W        W75364  32.923  34.582  13.323
10138W        W75365   2.772  14.569   4.231
10139W        W75366  44.795  37.436  14.165
10140W        W75367  25.845  40.526  11.132
10141W        W75368  15.837  19.748  12.933
10142W        W75369  34.011  25.676   3.016
10143W        W75370  36.481  11.687  11.293
10144W        W75371  17.658  33.161  11.554
10145W        W75372  37.330  30.994   1.446
10146W        W75373  36.869   9.841   3.264
10147W        W75374  26.085  22.940  12.900
10148W        W75375  24.391  10.172   5.005
10149W        W75376  14.427  15.348   0.059
10150W        W75377  14.954  22.318   0.591
10151W        W75378  37.103  12.698   1.864
10152W        W75379  15.323   0.427   0.336
10153W        W75380  27.925  23.807   1.758
10154W        W75381  40.545  11.307  10.727
10155W        W75382  37.997   1.997   2.602
10156W        W75383  27.247   9.998   2.329
10157W        W75384  31.740  19.853  10.763
10158W        W75385   8.279  27.942   3.253
10159W        W75386  17.993   1.025   1.281
10160W        W75387  29.070  24.520   3.108
10161W        W75388  27.056  31.990  13.975
10162W        W75389   9.585  42.342  14.808
10163W        W75390   8.617  27.452   3.372
10164W        W75391  40.413  34.335  11.877
10165W        W75392   0.310   3.717   2.789
10166W        W75393  10.882  10.656  11.159
10167W        W75394  24.660  23.022   3.573
10168W        W75395  25.773  20.502   0.499
10169W        W75396  43.214  35.588   1.063
10170W        W75397  26.223  23.613   0.045
10171W        W75398  35.074   4.598   1.228
10172W        W75399  40.443   2.360   3.773
10173W        W75400  29.182   2.439  11.934
10174W        W75401  34.154  38.814   0.721
10175W        W75402  14.560  17.291  14.316
10176W        W75403  38.003  32.969   0.390
10177W        W75404   8.202  33.636  13.506
10178W        W75405  24.502  36.000   3.277
10179W        W75406  35.197  24.952  12.627
10180W        W75407  24.701  14.859  12.611
10181W        W75408  44.781  14.069   0.935
10182W        W75409  19.538   9.642   4.557
10183W        W75410  30.546  16.225  10.635
10184W        W75411  16.202  39.459   0.321
10185W        W75412  14.212  36.086   3.039
10186W        W75413  43.017  34.436  13.964
10187W        W75414  16.528  18.561  10.631
10188W        W75415  26.659   5.924  13.545
10189W        W75416   0.173  18.593   0.390
10190W        W75417  43.792  44.322   0.020
10191W        W75418  37.600   8.046   4.140
10192W        W75419  43.593  39.838   0.251
10193W        W75420  34.945  38.826   2.583
10194W        W75421   5.755   4.313   4.101
10195W        W75422  19.790  18.782  14.276
10196W        W75423  11.963   3.836   4.627
10197W        W75424   4.652   2.326  11.163
10198W        W75425  29.514  37.542  12.117
10199W        W75426   3.487   6.389   1.684
10200W        W75427  44.796  30.841  10.693
10201W        W75428  28.593   1.823  11.340
10202W        W75429  20.724  34.392  14.348
10203W        W75430   7.033   7.346  10.759
10204W        W75431   4.258  28.096  14.585
10205W        W75432  14.699   1.471  11.128
10206W        W75433  23.680  21.775   1.239
10207W        W75434  28.978  15.039  13.280
10208W        W75435   7.696   9.981  12.688
10209W        W75436  25.114  26.362   2.211
10210W        W75437  32.023   9.237   1.806
10211W        W75438   6.125  27.697  14.225
10212W        W75439  44.803  43.060   2.938
10213W        W75440   3.728  15.243   0.035
10214W        W75441  28.667  31.642   2.270
10215W        W75442  16.062  26.419   0.939
10216W        W75443  37.361  35.995   2.000
10217W        W75444  30.300   8.318   2.068
10218W        W75445  38.930  34.118   3.065
10219W        W75446   8.173  37.569  14.369
10220W        W75447  44.797  27.369   0.059
10221W        W75448  28.232  42.090  13.835
10222W        W75449  20.751   0.843   3.573
10223W        W75450  17.173  36.890  13.040
10224W        W75451  18.987  31.943  10.731
10225W        W75452  33.498   4.591   4.504
10226W        W75453   1.760   9.713   0.016
10227W        W75454  11.270  17.725   2.638
10228W        W75455  44.675   1.338  11.895
10229W        W75456  24.470   0.317  13.854
10230W        W75457  33.427  15.124  12.971
10231W        W75458  30.107  10.585   4.161
10232W        W75459  15.651   9.381   2.350
10233W        W75460  17.252  14.720   1.848
10234W        W75461  18.588   4.753   2.272
10235W        W75462  26.446   5.964  11.795
10236W        W75463  43.946  23.827   0.853
10237W        W75464  39.054  12.814  11.238
10238W        W75465  24.660  31.428  13.540
10239W        W75466  15.151  22.535  14.340
10240W        W75467  10.074   3.787  14.997
10241W        W75468   1.426  28.176  13.925
10242W        W75469  43.412  35.331  13.505
10243W        W75470  23.081  41.931   4.133
10244W        W75471   2.399  29.286   4.033
10245W        W75472  16.808  30.165   3.030
10246W        W75473  34.817  18.698   5.218
10247W        W75474  34.456  10.283   1.262
10248W        W75475   5.884  36.869   2.264
10249W        W75476  15.656  36.047  11.207
10250W        W75477  19.573   6.680  13.016
10251W        W75478  21.062  17.874  11.106
10252W        W75479  38.035  14.345  11.562
10253W        W75480   3.399  18.784  11.280
10254W        W75481  14.729  10.472  14.650
10255W        W75482  38.437  23.536  13.059
10256W        W75483  18.281  35.813   0.196
10257W        W75484   4.157   5.806  12.610
10258W        W75485  22.593  18.793   2.851
10259W        W75486  10.255  35.117  11.679
10260W        W75487  29.305  10.876  11.034
10261W        W75488  20.121  15.390   4.510
10262W        W75489  41.468  32.091   0.722
10263W        W75490  25.886  14.903  14.650
10264W        W75491  27.751  43.361  12.911
10265W        W75492  26.492  23.137  13.980
10266W        W75493  44.657  18.787  13.460
10267W        W75494  38.058  37.655   1.766
10268W        W75495  44.687  14.716   5.170
10269W        W75496  26.237  25.528  13.400
10270W        W75497  24.405  41.404  13.251
10271W        W75498  29.629  23.421   1.185
10272W        W75499  14.132  44.910  12.941
10273W        W75500   0.271  34.914  10.756
10274W        W75501  29.437  40.988   0.970
10275W        W75502   7.863   0.448   3.288
10276W        W75503  32.088  19.184   2.384
10277W        W75504  35.022  18.850  12.529
10278W        W75505  31.004  42.114  14.657
10279W        W75506   8.852   9.664   2.191
10280W        W75507  25.245  40.081  12.840
10281W        W75508  42.487  16.501  12.948
10282W        W75509  26.413  17.863   0.748
10283W        W75510  41.814  35.029  14.217
10284W        W75511   1.552  28.516  13.093
10285W        W75512  42.991  26.103  11.938
10286W        W75513   1.221  27.056   0.103
10287W        W75514   7.915   4.212   4.013
10288W        W75515  33.714  32.888  13.992
10289W        W75516  21.532  21.240   2.361
10290W        W75517  20.469  35.459   3.056
10291W        W75518  31.323   6.731   0.854
10292W        W75519   2.015  15.711  12.536
10293W        W75520  36.035   8.151   2.360
10294W        W75521  38.990  34.571  13.889
10295W        W75522  21.099  21.280   0.188
10296W        W75523  19.211  25.507   1.175
10297W        W75524  36.422  40.386   0.948
10298W        W75525   2.353  39.562  12.656
10299W        W75526  28.985  38.082   0.811
10300W        W75527  29.674   6.570  14.722
10301W        W75528  38.904  16.244  14.216
10302W        W75529  34.101  18.485   1.346
10303W        W75530  32.115  25.006  14.764
10304W        W75531  24.046  13.560   5.066
10305W        W75532   5.567  29.178  12.629
10306W        W75533  34.191  40.072   5.074
10307W        W75534   7.946  44.974   0.808
10308W        W75535  10.051   8.385  11.564
10309W        W75536   8.933  10.157  10.717
10310W        W75537  44.768  24.620  12.185
10311W        W75538  33.566   6.248  10.687
10312W        W75539  22.907  28.730  11.735
10313W        W75540  38.528  18.200   4.141
10314W        W75541  34.918  17.285  14.284
10315W        W75542  33.017   2.906  13.367
10316W        W75543  40.532  42.320   0.501
10317W        W75544  16.491  18.685   4.048
10318W        W75545   3.902   6.825  14.923
10319W        W75546   0.253  22.687   4.877
10320W        W75547  29.367   3.836  12.901
10321W        W75548  38.091  15.552  11.137
10322W        W75549  35.090  18.718  12.034
10323W        W75550  44.934  10.309   2.913
10324W        W75551  43.547  39.417  14.893
10325W        W75552   8.294  12.535  11.783
10326W        W75553   2.246  36.024   2.136
10327W        W75554  23.413  14.379  11.276
10328W        W75555  17.695  13.746   3.340
10329W        W75556  36.113  42.546   3.745
10330W        W75557  35.291   0.861   3.705
10331W        W75558  10.412  44.013   0.794
10332W        W75559  44.071   7.141  14.121
10333W        W75560  29.952  24.000  11.347
10334W        W75561  38.386  26.915  11.682
10335W        W75562  27.165   2.491  11.413
10336W        W75563  13.930  40.543  14.543
10337W        W75564  24.432  10.166  12.101
10338W        W75565  12.643  35.966   2.722
10339W        W75566  43.023  37.471  13.894
10340W        W75567  27.602   9.375   1.728
10341W        W75568  10.188  41.805  12.557
10342W        W75569   7.209  31.641  13.071
10343W        W75570  38.968  36.526  13.442
10344W        W75571   0.339  42.746  13.232
10345W        W75572  14.525   4.004  13.621
10346W        W75573  37.005   6.174  14.374
10347W        W75574  18.047  14.241   4.465
10348W        W75575  20.761  19.949   0.342
10349W        W75576   2.961  10.386   1.809
10350W        W75577  20.606  20.679  11.702
10351W        W75578   1.303   3.351  14.295
10352W        W75579  17.616  12.758  11.467
10353W        W75580  31.217   7.166  10.833
10354W        W75581  21.544  21.110  14.391
10355W        W75582  26.394  12.765   4.163
10356W        W75583  19.524   5.511  14.619
10357W        W75584  30.139  18.010  13.987
10358W        W75585  27.898   2.766  12.831
10359W        W75586   7.131  32.644   1.878
10360W        W75587  32.168   4.825  14.364
10361W        W75588  19.249  39.821  11.747
10362W        W75589  38.569  33.494   3.587
10363W        W75590  40.014  12.300  10.589
10364W        W75591  27.171  15.350  10.847
10365W        W75592  37.163   5.944   1.032
10366W        W75593   9.633  42.003  13.524
10367W        W75594   9.448  19.038   2.536
10368W        W75595  25.665   1.405   2.541
10369W        W75596  13.393  23.932   0.268
10370W        W75597  18.364   8.600   1.692
10371W        W75598  10.928  34.307  14.741
10372W        W75599   0.007  40.750   1.778
10373W        W75600  32.599  18.178  11.014
10374W        W75601  37.517  14.286  10.553
10375W        W75602  31.856  40.775   0.454
10376W        W75603   2.894  29.657   3.254
10377W        W75604  17.780  31.008  13.498
10378W        W75605   8.450  43.393   2.326
10379W        W75606  25.018  35.715  13.942
10380W        W75607  41.465  26.039  14.806
10381W        W75608  31.319  34.906   4.780
10382W        W75609  11.844  28.059   0.198
10383W        W75610  26.083  39.763  13.284
10384W        W75611  10.571  12.992  14.654
10385W        W75612  39.554  12.579   0.042
10386W        W75613  34.177  19.679  11.261
10387W        W75614  36.141  41.423   1.367
10388W        W75615   2.478  26.114   0.682
10389W        W75616  25.374  32.700   4.063
10390W        W75617   8.340   5.184   0.074
10391W        W75618   6.294  21.536   0.491
10392W        W75619  37.404  18.312  13.379
10393W        W75620   8.374  15.553   3.517
10394W        W75621  37.346   7.439  12.225
10395W        W75622  14.181   0.736   2.539
10396W        W75623  23.764  44.918   4.485
10397W        W75624  43.233   5.448   2.253
10398W        W75625  32.386  15.573   2.773
10399W        W75626  30.937  39.965  11.602
10400W        W75627  31.262  41.942  12.450
10401W        W75628  33.459   6.937  11.634
10402W        W75629  44.777  26.041  12.021
10403W        W75630   6.333  22.276  13.430
10404W        W75631  22.086  44.778   4.998
10405W        W75632  43.053   8.913  12.953
10406W        W75633  25.630  42.777  13.101
10407W        W75634   5.882  40.839   1.342
10408W        W75635  17.442  35.084  12.006
10409W        W75636  17.574  24.970   1.327
10410W        W75637   0.367  44.056   1.435
10411W        W75638  25.081   9.818   3.138
10412W        W75639  37.437   7.672   2.903
10413W        W75640   7.141  35.474  10.708
10414W        W75641  11.156   6.357   0.310
10415W        W75642   8.723  21.233  11.111
10416W        W75643   7.448  43.855   3.387
10417W        W75644   7.562  18.284  11.037
10418W        W75645  33.131  11.228  11.576
10419W        W75646  42.445  37.804   3.711
10420W        W75647  20.254  29.229   1.363
10421W        W75648  28.259  24.016  12.807
10422W        W75649  10.800  23.058  11.195
10423W        W75650  43.623  12.256  11.039
10424W        W75651  23.943  28.735  11.617
10425W        W75652  34.932   8.208  13.283
10426W        W75653  41.978   8.140  11.667
10427W        W75654  22.779  14.875  12.225
10428W        W75655  28.661  31.829   3.557
10429W        W75656  22.178  23.982   3.198
10430W        W75657  38.335  24.666  13.878
10431W        W75658  29.982  14.800   1.551
10432W        W75659  16.220  15.585  14.587
10433W        W75660  15.174   3.869   0.320
10434W        W75661  15.639  32.361  13.551
10435W        W75662  24.192  34.270   0.741
10436W        W75663  33.158  14.276   1.690
10437W        W75664  12.207   8.209  14.703
10438W        W75665   5.845  44.192  13.378
10439W        W75666  29.374   5.057  10.309
10440W        W75667   8.461  22.623   3.550
10441W        W75668  31.396  40.160  13.814
10442W        W75669  21.933  38.870   0.896
10443W        W75670  25.087  21.710  11.083
10444W        W75671   3.698  30.360   4.056
10445W        W75672  24.290   9.743   0.222
10446W        W75673  25.643  22.633  11.434
10447W        W75674   0.998  37.922  11.174
10448W        W75675   2.043  20.961   2.017
10449W        W75676  24.290  37.548   2.842
10450W        W75677  36.007  26.003  12.538
10451W        W75678  18.069  36.820   4.060
10452W        W75679  10.470  15.117   2.153
10453W        W75680   5.174  15.181  14.136
10454W        W75681  29.590  35.093   0.158
10455W        W75682   1.753  20.185   0.359
10456W        W75683  15.594  39.094   4.066
10457W        W75684  13.506  40.809   1.747
10458W        W75685   7.210  14.176  13.531
10459W        W75686   7.630  43.385  12.568
10460W        W75687  12.380  26.162  14.174
10461W        W75688  30.556  36.754  12.201
10462W        W75689  44.387  41.477   5.050
10463W        W75690   6.863  22.524   4.894
10464W        W75691  23.531  35.515  12.121
10465W        W75692  34.831  24.608  13.468
10466W        W75693  37.424  36.480   2.233
10467W        W75694   7.048  20.718   3.738
10468W        W75695  34.766  13.388   4.072
10469W        W75696  15.691  10.087  12.058
10470W        W75697   8.876  10.097   3.443
10471W        W75698  44.144  28.343   1.776
10472W        W75699   7.245   0.997   2.732
10473W        W75700  18.138  40.825  12.402
10474W        W75701  14.862  26.102  14.777
10475W        W75702   8.035  16.529  11.587
10476W        W75703  37.996  37.349  14.773
10477W        W75704  40.741  21.855   0.374
10478W        W75705   9.246  22.820  12.943
10479W        W75706   0.711  25.088  12.071
10480W        W75707  43.480  21.415   0.509
10481W        W75708  27.957   4.842   0.839
10482W        W75709  31.113  28.572   4.519
10483W        W75710  39.314  41.860   3.460
10484W        W75711  13.794  41.789  14.543
10485W        W75712  23.940  22.402  12.023
10486W        W75713  39.902   8.860   0.611
10487W        W75714  38.427  28.159  13.161
10488W        W75715  42.137  37.938   1.868
10489W        W75716  25.283   9.731  13.740
10490W        W75717  27.940   1.683   1.761
10491W        W75718  43.788  13.754  11.104
10492W        W75719  22.492   5.631  11.670
10493W        W75720   0.125   6.753  13.761
10494W        W75721   0.239  16.790   5.173
10495W        W75722   2.342  14.047   1.687
10496W        W75723  38.612   3.319   3.103
10497W        W75724  43.587  37.302   4.657
10498W        W75725  34.285  32.229  14.000
10499W        W75726  38.075  34.401   3.702
10500W        W75727  22.512  29.145  11.666
10501W        W75728  13.275  14.596  13.789
10502W        W75729  21.396  12.081   2.385
10503W        W75730  42.832  43.921   4.095
10504W        W75731  13.209   5.064  10.194
10505W        W75732  32.643   4.619  14.439
10506W        W75733   7.022  25.472   3.207
10507W        W75734  44.779   0.850   0.245
10508W        W75735  23.133  40.352   3.455
10509W        W75736  37.007  35.041   0.230
10510W        W75737  12.692  19.117  11.151
10511W        W75738  23.754  18.286  12.714
10512W        W75739  30.702  24.201   2.936
10513W        W75740  28.442  33.917  11.166
10514W        W75741  44.242  34.476  12.658
10515W        W75742  26.460  19.819   2.610
10516W        W75743  20.642  41.723   2.295
10517W        W75744   7.149  14.019   3.547
10518W        W75745  35.025   2.834  12.859
10519W        W75746  40.023   3.748   1.874
10520W        W75747   8.822  24.988  11.576
10521W        W75748  13.594  15.126   1.386
10522W        W75749  37.335   6.947   1.964
10523W        W75750  39.045  43.314  13.161
10524W        W75751  31.173  25.484   3.914
10525W        W75752  20.464  27.102  12.282
10526W        W75753   4.315   3.021   3.451
10527W        W75754  33.687   8.509   3.129
10528W        W75755  44.225  24.088  14.828
10529W        W75756  43.677  42.640   3.740
10530W        W75757  40.702  39.405   1.165
10531W        W75758   7.080   3.107   0.654
10532W        W75759  36.276  29.775  10.471
10533W        W75760   7.470  23.988  11.671
10534W        W75761   6.067  14.813  14.073
10535W        W75762  33.764  35.078   0.768
10536W        W75763  20.621  34.372   1.915
10537W        W75764  41.519  44.831   4.710
10538W        W75765  16.289  42.330  12.569
10539W        W75766  10.175  31.434  10.604
10540W        W75767   7.633   2.143   1.824
10541W        W75768  21.903  26.502  13.486
10542W        W75769  33.610  23.773  14.931
10543W        W75770  36.850   5.843  12.423
10544W        W75771  11.946  19.885  13.011
10545W        W75772  39.002  11.264   0.211
10546W        W75773  18.032   0.211   3.586
10547W        W75774  35.677  37.549   1.734
10548W        W75775   5.006  14.751  13.883
10549W        W75776   2.850   7.282   1.904
10550W        W75777  14.755  12.727  10.808
10551W        W75778  44.904  26.736   0.328
10552W        W75779  20.642   2.003  12.965
10553W        W75780  18.078  11.736   0.468
10554W        W75781  29.340  30.628   1.737
10555W        W75782  25.074  10.323   3.182
10556W        W75783  21.668  23.760   1.153
10557W        W75784  20.753  22.755   2.676
10558W        W75785  34.887  31.013  13.818
10559W        W75786  40.265  22.612   4.164
10560W        W75787  18.027  30.852   3.639
10561W        W75788  22.163   4.470  11.217
10562W        W75789  14.701  39.679  13.616
10563W        W75790   1.622  30.694   1.959
10564W        W75791  33.506  30.441   0.838
10565W        W75792  16.019  33.515   1.590
10566W        W75793  40.115  33.236   2.215
10567W        W75794  23.909  19.066  14.922
10568W        W75795   6.187  24.936  11.035
10569W        W75796  24.546  20.469  12.971
10570W        W75797  42.610  42.468   3.663
10571W        W75798  19.013   0.403   0.404
10572W        W75799  14.672   8.126  14.302
10573W        W75800  31.897   7.815   4.560
10574W        W75801  27.393  15.605  14.888
10575W        W75802  34.278  42.893  12.097
10576W        W75803   9.323   5.943  12.601
10577W        W75804  13.650  31.398   1.316
10578W        W75805  21.508  21.958  12.494
10579W        W75806  25.648  19.609  12.350
10580W        W75807  35.161   5.307   4.981
10581W        W75808  18.732  27.185  12.634
10582W        W75809  44.026  37.653   4.667
10583W        W75810  31.644  27.941   2.413
10584W        W75811  39.536  37.042   3.573
10585W        W75812  38.172  12.206   3.282
10586W        W75813   1.397   4.054   4.057
10587W        W75814  32.695  19.519   3.744
10588W        W75815  22.761  35.211  14.773
10589W        W75816  12.569   3.491   0.399
10590W        W75817   3.366  34.919   2.799
10591W        W75818  28.625  16.901   4.106
10592W        W75819   3.435   5.278   2.696
10593W        W75820  35.174   7.638   0.395
10594W        W75821  16.730  27.876   0.052
10595W        W75822  44.396  41.442   2.800
10596W        W75823  18.667   0.005  13.796
10597W        W75824  37.446  41.484   2.235
10598W        W75825  38.230  10.253  14.569
10599W        W75826  18.773   9.288  11.187
10600W        W75827  35.909  37.439   3.646
10601W        W75828  20.771  41.011  14.279
10602W        W75829  18.379  32.051   1.485
10603W        W75830  29.663  16.579   2.784
10604W        W75831  42.162  37.068   4.819
10605W        W75832   4.864  30.575  10.694
10606W        W75833   8.441  23.669  14.381
10607W        W75834  27.400  12.418   3.284
10608W        W75835  42.388  11.609   3.319
10609W        W75836  25.807   3.633  12.219
10610W        W75837  10.809  31.609   1.463
10611W        W75838   7.766  19.173  12.016
10612W        W75839  24.014  31.943  10.225
10613W        W75840  22.652  42.485  12.963
10614W        W75841  11.870  12.325   3.310
10615W        W75842  19.161  13.394  13.441
10616W        W75843  12.794  40.006   1.872
10617W        W75844   3.223   7.371   4.188
10618W        W75845  25.802  28.032  13.496
10619W        W75846  35.496  23.278   4.122
10620W        W75847  25.676  42.786   4.653
10621W        W75848  24.186  12.248   1.268
10622W        W75849  19.179   9.751   4.072
10623W        W75850  11.651  33.566  11.492
10624W        W75851  17.480  39.211   2.230
10625W        W75852  18.345   6.649   4.047
10626W        W75853   5.498  31.616   3.482
10627W        W75854  14.520  32.956  13.063
10628W        W75855   4.321  22.894   4.571
10629W        W75856  27.631  37.729   4.450
10630W        W75857   7.787  39.517   2.297
10631W        W75858  27.159  27.140   5.479
10632W        W75859  27.220  37.220  11.513
10633W        W75860   7.388  25.044  10.510
10634W        W75861  19.149  22.123   1.350
10635W        W75862  27.894  37.223   1.471
10636W        W75863  43.371  31.801  14.442
10637W        W75864  12.147  11.685  11.476
10638W        W75865  27.938  43.898  11.065
10639W        W75866  20.581  14.557   0.040
10640W        W75867   6.694  40.559  14.397
10641W        W75868  36.405   6.190  10.298
10642W        W75869  43.208  10.352   1.725
10643W        W75870  19.672  23.229  12.779
10644W        W75871  42.415  13.475  10.813
10645W        W75872  33.538  30.455  12.108
10646W        W75873  39.803  10.119   0.380
10647W        W75874  37.563  25.296   1.461
10648W        W75875  43.988   0.941  14.894
10649W        W75876  31.952  16.825   0.069
10650W        W75877  37.557  15.649   0.140
10651W        W75878   5.616  24.308  13.359
10652W        W75879   4.399  41.845  13.472
10653W        W75880  31.897  36.788   3.299
10654W        W75881   9.431  23.191   3.102
10655W        W75882   4.703   7.138  13.922
10656W        W75883  12.193  42.266  12.103
10657W        W75884   0.695  39.853  10.685
10658W        W75885   1.862  13.501   2.852
10659W        W75886  44.421  22.992  14.469
10660W        W75887   2.859   7.965   4.209
10661W        W75888  37.082  23.230   1.562
10662W        W75889  42.791  11.343  12.630
10663W        W75890   4.478   8.772   1.647
10664W        W75891  37.816   4.334   3.132
10665W        W75892  24.852  11.395  11.184
10666W        W75893  41.500  36.422  11.925
10667W        W75894   9.112  14.319  11.700
10668W        W75895  13.391  21.490   0.390
10669W        W75896  38.915  15.667  12.614
10670W        W75897  18.765  13.640   1.843
10671W        W75898   2.567  25.892   4.352
10672W        W75899  38.573  35.639  12.079
10673W        W75900  12.749  18.076   0.726
10674W        W75901   9.199  41.267   1.414
10675W        W75902  37.835  31.496   1.725
10676W        W75903   0.543   1.480   4.426
10677W        W75904  11.897  28.121  14.296
10678W        W75905  22.513  27.978   3.235
10679W        W75906  15.121  21.279  14.838
10680W        W75907  39.941  19.449   1.468
10681W        W75908  10.259   4.182  11.044
10682W        W75909   7.110  36.656  12.998
10683W        W75910  18.417   4.315  12.372
10684W        W75911  38.255  39.867   2.199
10685W        W75912  44.494  37.110   4.522
10686W        W75913  14.727  19.733   2.655
10687W        W75914  12.054  34.619   2.643
10688W        W75915  29.065  19.048  14.971
10689W        W75916  36.397   8.721  11.957
10690W        W75917  24.408  12.619  10.290
10691W        W75918  16.843  22.281  12.992
10692W        W75919  30.473  26.570   0.702
10693W        W75920  42.023  17.401  11.730
10694W        W75921  24.418  11.362   3.744
10695W        W75922  39.974  43.023   2.269
10696W        W75923  25.217  26.721   1.807
10697W        W75924  12.136  20.562   2.635
10698W        W75925   7.308  19.893  14.559
10699W        W75926  29.526  12.284   1.248
10700W        W75927  15.905  25.923  11.430
10701W        W75928  31.413  12.783  12.553
10702W        W75929  37.856  30.863  11.218
10703W        W75930  24.991  12.871  14.356
10704W        W75931  30.003  20.611  13.740
10705W        W75932  24.474  34.484   1.172
10706W        W75933   5.916  37.100   3.666
10707W        W75934  34.209  22.835  14.732
10708W        W75935   2.297  16.815   1.848
10709W        W75936  20.537  35.133   0.435
10710W        W75937   9.584  35.566   2.457
10711W        W75938  25.998  11.909  13.069
10712W        W75939   0.172  31.151  10.282
10713W        W75940  11.696  30.565  13.456
10714W        W75941  13.038  11.897  14.183
10715W        W75942  25.504  27.166   3.683
10716W        W75943  19.047  25.991  13.352
10717W        W75944  31.502  12.337   2.188
10718W        W75945  16.555  25.566  13.926
10719W        W75946  12.150  26.303   2.350
10720W        W75947  39.269  22.758   2.886
10721W        W75948   8.150  26.712   1.913
10722W        W75949   2.859   5.512  14.251
10723W        W75950  15.969  36.402   1.060
10724W        W75951  32.183   1.855   0.857
10725W        W75952  21.457   7.520   1.175
10726W        W75953  43.998  18.921   0.824
10727W        W75954  36.487   5.114   3.738
10728W        W75955  34.297   4.917  13.750
10729W        W75956   1.433  42.903   0.150
10730W        W75957  11.580  41.298  14.388
10731W        W75958  37.370  29.007  11.522
10732W        W75959  43.409  42.518  11.659
10733W        W75960  29.519  17.563  10.544
10734W        W75961   0.118  32.207  13.026
10735W        W75962  36.077   1.669  14.348
10736W        W75963  28.922  19.810   3.519
10737W        W75964  40.094  29.397  14.802
10738W        W75965   7.458  11.855   1.305
10739W        W75966  13.657  11.148   1.279
10740W        W75967  40.470  31.961  14.603
10741W        W75968  29.823   7.826   4.062
10742W        W75969  41.747  42.349  14.455
10743W        W75970  28.862  25.903  12.545
10744W        W75971  28.243  41.072   2.680
10745W        W75972  40.689   7.704   1.575
10746W        W75973  40.117  36.106  13.146
10747W        W75974  33.499   3.142  12.061
10748W        W75975  38.764  36.425  12.558
10749W        W75976  28.934  29.231  12.509
10750W        W75977  11.206  12.084   4.901
10751W        W75978  40.319  12.884  11.153
10752W        W75979  37.607  33.430   2.250
10753W        W75980   5.522   2.171   1.932
10754W        W75981  30.990  34.001  13.777
10755W        W75982  23.025  37.852   1.874
10756W        W75983  44.691  23.994  10.050
10757W        W75984  10.196  13.822   4.129
10758W        W75985   8.143  34.642   5.025
10759W        W75986   3.123  39.291   4.087
10760W        W75987  12.722   3.126   0.722
10761W        W75988  12.874  33.908   2.204
10762W        W75989   1.348  19.555  14.675
10763W        W75990  26.624  42.973  11.510
10764W        W75991  39.926   0.520   2.070
10765W        W75992  11.299  31.974  14.297
10766W        W75993  34.723  25.840  13.992
10767W        W75994  42.137  29.418   1.798
10768W        W75995  38.299  11.700   3.206
10769W        W75996  15.141  30.387   4.195
10770W        W75997  28.553  24.978  10.355
10771W        W75998  27.725  23.163  11.994
10772W        W75999  30.038  22.637  11.107
10773W        W76000  42.039   2.573   2.842
10774W        W76001   3.475  37.820   3.251
10775W        W76002  28.994  10.675   3.301
10776W        W76003  35.614  24.728  13.513
10777W        W76004  41.151  26.017  10.908
10778W        W76005   3.355   9.459  12.383
10779W        W76006  23.153   8.836  13.958
10780W        W76007  14.135  12.061  14.925
10781W        W76008  19.096  43.863   4.207
10782W        W76009  43.026  29.198  13.463
10783W        W76010  19.290  28.865   2.959
10784W        W76011  29.266  25.267  11.520
10785W        W76012  42.516  33.639   0.667
10786W        W76013  13.424  15.329   0.379
10787W        W76014  14.260  10.897   3.637
10788W        W76015   1.268  33.523  12.006
10789W        W76016   7.845   1.340   2.399
10790W        W76017  15.480  40.597  13.333
10791W        W76018  42.081  34.868   4.948
10792W        W76019  22.385  18.943  12.683
10793W        W76020  25.293   5.354  14.182
10794W        W76021  15.791   2.144   0.289
10795W        W76022  40.367  21.144  12.120
10796W        W76023  19.586  31.546   1.495
10797W        W76024  37.126  38.260   0.767
10798W        W76025   4.710   3.462   4.103
10799W        W76026   2.779   4.006  11.153
10800W        W76027  29.923  17.246  10.348
10801W        W76028  29.884   9.293  12.551
10802W        W76029  33.431  12.153   2.192
10803W        W76030  43.234  23.722   2.752
10804W        W76031  34.324  44.140  12.657
10805W        W76032  13.738  42.507   2.454
10806W        W76033  12.746  44.471  12.587
10807W        W76034  11.363  19.314  13.038
10808W        W76035   9.723   6.983  12.952
10809W        W76036  29.125  37.151   0.869
10810W        W76037  42.899  12.631   1.936
10811W        W76038  42.759  22.256   4.062
10812W        W76039  22.754   9.650   1.278
10813W        W76040  41.655  28.084   4.560
10814W        W76041  13.039   7.061   3.099
10815W        W76042  25.552  37.024   0.384
10816W        W76043  17.321  17.517   4.658
10817W        W76044  29.487  42.938  11.128
10818W        W76045  22.449  25.713   2.247
10819W        W76046  15.522  31.048   3.695
10820W        W76047   0.681  23.248  14.247
10821W        W76048  11.315   0.746   4.383
10822W        W76049   3.627  36.485   4.546
10823W        W76050  29.556  28.145   4.566
10824W        W76051  11.222  31.472  14.262
10825W        W76052  15.509  25.067  11.997
10826W        W76053   0.862   7.306   0.717
10827W        W76054   7.785  38.406   1.900
10828W        W76055   7.534  19.704  10.539
10829W        W76056  40.368   6.802  10.851
10830W        W76057  20.732  11.437  13.833
10831W        W76058  24.988  37.917  13.427
10832W        W76059  43.712   7.851   0.857
10833W        W76060  30.148  21.772  10.701
10834W        W76061  42.227  16.868   4.447
10835W        W76062  20.824  36.478   0.658
10836W        W76063  32.800  34.220  12.182
10837W        W76064  26.503  25.528  13.834
10838W        W76065  15.850  20.109   2.764
10839W        W76066  10.675  16.975  11.571
10840W        W76067   7.311  29.177   4.273
10841W        W76068   9.588  36.261   4.085
10842W        W76069  15.200  16.877  11.599
10843W        W76070  10.930   1.138  11.058
10844W        W76071  24.741  43.843  13.812
10845W        W76072   1.850  18.042  13.520
10846W        W76073  28.759   5.830   0.964
10847W        W76074  11.585   3.486   1.268
10848W        W76075  34.474  19.254  10.709
10849W        W76076  32.028  14.162   0.179
10850W        W76077  15.219  42.288  11.716
10851W        W76078   2.426   0.522   1.764
10852W        W76079  11.321  30.418  10.736
10853W        W76080   3.410  26.461   5.555
10854W        W76081  40.269   8.777  10.303
10855W        W76082  20.546  16.197   3.191
10856W        W76083  30.559  43.992   3.954
10857W        W76084  20.201  33.479  10.257
10858W        W76085   8.540  34.331  13.239
10859W        W76086  34.357  32.328   1.838
10860W        W76087  28.951  40.944  11.058
10861W        W76088  41.297  44.064  10.708
10862W        W76089  42.837   5.502  10.963
10863W        W76090  28.856  11.901  14.890
10864W        W76091   5.862  23.798  12.064
10865W        W76092  26.914  40.924   2.014
10866W        W76093  41.331  11.709  13.399
10867W        W76094   7.630  44.558   0.125
10868W        W76095   6.290  42.062   1.302
10869W        W76096  24.703  23.259  13.966
10870W        W76097  42.708  14.038   0.011
10871W        W76098  18.757  23.620   2.926
10872W        W76099  33.619   2.584   4.950
10873W        W76100   2.669  36.397   0.774
10874W        W76101  43.029  27.009   3.159
10875W        W76102  11.008  29.332   0.437
10876W        W76103  30.093  31.690   3.911
10877W        W76104  37.209  42.425   4.809
10878W        W76105   8.245  34.147  11.078
10879W        W76106   9.361  33.685   1.401
10880W        W76107  35.421  20.725  13.079
10881W        W76108  18.777  24.619   4.978
10882W        W76109  41.451  43.328   3.624
10883W        W76110  26.424  10.683  12.997
10884W        W76111   6.973  37.912   3.337
10885W        W76112  33.013   0.269  10.746
10886W        W76113   6.799  29.357   1.122
10887W        W76114  24.510  41.441   1.739
10888W        W76115  32.373  23.226   3.145
10889W        W76116   9.351  27.533   2.762
10890W        W76117   7.379   3.359   5.420
10891W        W76118  15.059  37.108  10.782
10892W        W76119  13.240   4.178   3.429
10893W        W76120   0.882   1.658   2.043
10894W        W76121   1.549  32.556  13.598
10895W        W76122   8.972  40.595   0.303
10896W        W76123  18.739  35.401  13.510
10897W        W76124  33.856  26.704   1.272
10898W        W76125  38.964  38.635   4.275
10899W        W76126  41.010  22.362   3.611
10900W        W76127   8.991  30.795   2.803
10901W        W76128  12.740  15.046  12.521
10902W        W76129   7.118  15.286   2.419
10903W        W76130   8.449  24.059  13.898
10904W        W76131  42.527  22.247   0.775
10905W        W76132  44.784  27.984   0.845
10906W        W76133   9.300   2.444  14.069
10907W        W76134  41.732  25.920   4.931
10908W        W76135  42.938  38.557  10.255
10909W        W76136  35.759   2.821   4.789
10910W        W76137  23.126  11.688  12.049
10911W        W76138  41.437  22.122   3.999
10912W        W76139  33.994  15.560  11.412
10913W        W76140  44.758  40.284  14.435
10914W        W76141  25.077  33.230   9.796
10915W        W76142  31.971   6.053  11.195
10916W        W76143  44.708  43.054  11.444
10917W        W76144  11.991  34.174  13.887
10918W        W76145  11.766   7.728   0.914
10919W        W76146   8.191  13.604   4.227
10920W        W76147   3.512   2.059  12.826
10921W        W76148  28.557  14.838   0.323
10922W        W76149  13.289  22.144   3.230
10923W        W76150  14.169  15.004  13.399
10924W        W76151  29.816  11.422  14.309
10925W        W76152  36.976   4.925  11.531
10926W        W76153   7.852  16.676  14.244
10927W        W76154  22.478   2.232   0.922
10928W        W76155  15.280  40.514   4.592
10929W        W76156  30.640  43.154  11.596
10930W        W76157  36.511  13.059  12.983
10931W        W76158   2.277  44.008  13.058
10932W        W76159  35.537  32.361  11.963
10933W        W76160   7.564   0.970   5.183
10934W        W76161  29.974   7.000   4.623
10935W        W76162  39.182   0.317   3.977
10936W        W76163   2.923  30.228   2.086
10937W        W76164  21.215  33.872   2.267
10938W        W76165  18.674  30.532   1.628
10939W        W76166  22.632  25.155   4.092
10940W        W76167  25.190   0.528   2.127
10941W        W76168  11.524  12.542   4.516
10942W        W76169  38.859   5.691  12.206
10943W        W76170  30.041  18.658  12.371
10944W        W76171  29.620  11.336  14.814
10945W        W76172  35.320   6.329   2.442
10946W        W76173   0.274  14.589  11.959
10947W        W76174  14.658  27.080   1.358
10948W        W76175   2.686  31.940   3.201
10949W        W76176  10.337  25.058   3.227
10950W        W76177  37.036  28.044   3.245
10951W        W76178  41.869   8.124  12.534
10952W        W76179   9.603  42.130   3.627
10953W        W76180   6.949  14.537  12.560
10954W        W76181  22.670  20.165  12.047
10955W        W76182   2.265  15.889   0.852
10956W        W76183  39.971   0.806   3.851
10957W        W76184  44.245   8.877   2.343
10958W        W76185   4.836   4.209   2.549
10959W        W76186  27.703  27.526  14.934
10960W        W76187  18.189  42.343  10.970
10961W        W76188  39.790  23.096  13.055
10962W        W76189  39.393   7.441  11.208
10963W        W76190  19.788  24.759   1.828
10964W        W76191  23.536  40.782  13.823
10965W        W76192   2.349  40.962  10.309
10966W        W76193   5.483  27.249   2.697
10967W        W76194  38.786  38.013  10.662
10968W        W76195  30.131  36.351  11.595
10969W        W76196  42.764  36.259   1.194
10970W        W76197  24.395  18.060   3.055
10971W        W76198  39.940  43.479  13.186
10972W        W76199  39.351   2.084  11.567
10973W        W76200   8.737  19.609  14.263
10974W        W76201   8.276  14.542  12.833
10975W        W76202   4.852  23.714  13.053
10976W        W76203  32.429   1.812   4.816
10977W        W76204  38.270  42.575  11.140
10978W        W76205  37.108  13.871  13.239
10979W        W76206   0.047  32.436   2.233
10980W        W76207  36.502  29.914  11.044
10981W        W76208  13.093  41.287  12.475
10982W        W76209   2.316  38.254   0.403
10983W        W76210  13.350  20.176   4.282
10984W        W76211  20.133   1.797   4.498
10985W        W76212  24.510  22.720   4.143
10986W        W76213  12.729  28.498  13.470
10987W        W76214  35.499  36.441   5.098
10988W        W76215  33.665  21.653   1.614
10989W        W76216  19.200   6.310  10.722
10990W        W76217   5.426   4.467  11.206
10991W        W76218   2.913  29.564  12.948
10992W        W76219  23.921  39.572  14.857
10993W        W76220  41.631   5.162  10.320
10994W        W76221  32.969  32.553   3.648
10995W        W76222  12.699  22.167  10.523
10996W        W76223  24.411  22.455  12.944
10997W        W76224  20.595   4.979  14.875
10998W        W76225  44.474  42.253  13.056
10999W        W76226  25.845  21.567   5.085
11000W        W76227  12.655  25.396  11.652
11001W        W76228  22.769  39.670  13.069
11002W        W76229  18.607  31.229  11.120
11003W        W76230  39.314  21.805   2.582
11004W        W76231  34.515  12.824   5.135
11005W        W76232  29.508  14.159   3.024
11006W        W76233  25.251  27.190  11.584
11007W        W76234  18.236  35.529  10.824
11008W        W76235  35.401   6.808  11.627
11009W        W76236  21.279   7.293  12.103
11010W        W76237  16.867  32.564   1.345
11011W        W76238  24.144   6.807  14.500
11012W        W76239  31.707  16.418  13.813
11013W        W76240  21.492  15.283  14.078
11014W        W76241  40.765  41.986  11.379
11015W        W76242  22.115  40.983   3.233
11016W        W76243   9.834  38.835  13.945
11017W        W76244  37.538  35.466   0.927
11018W        W76245  38.106  18.562   4.250
11019W        W76246  37.131   3.980  14.010
11020W        W76247   5.306  42.620  14.006
11021W        W76248  36.937  35.951  10.718
11022W        W76249  40.465  26.267   4.540
11023W        W76250  41.613   8.783   3.529
11024W        W76251  34.543  17.274   2.906
11025W        W76252  11.401  32.032   1.888
11026W        W76253  23.304  34.070   3.842
11027W        W76254  33.322  41.789  14.904
11028W        W76255  16.826  32.930  11.139
11029W        W76256  29.620  38.608   4.446
11030W        W76257  21.245  35.572   2.160
11031W        W76258   6.961  17.136  11.098
11032W        W76259   1.780  15.759  14.790
11033W        W76260  21.885  34.947   2.609
11034W        W76261   3.156   5.469  11.195
11035W        W76262  16.225   4.626   3.687
11036W        W76263  12.353  14.501   2.510
11037W        W76264  38.925  19.678  13.392
11038W        W76265  13.449  12.548  10.143
11039W        W76266  40.504  12.186  14.922
11040W        W76267   7.813  26.773  10.758
11041W        W76268   0.309  35.381   2.995
11042W        W76269  14.906  34.037   3.178
11043W        W76270  39.046  24.186  11.393
11044W        W76271   5.670  28.122  12.876
11045W        W76272   6.634  30.653  12.914
11046W        W76273  44.942  12.703   2.053
11047W        W76274   6.337   9.581  13.801
11048W        W76275  32.353  15.152   1.061
11049W        W76276  28.095  35.976  12.983
11050W        W76277   1.047  38.528   1.224
11051W        W76278  25.443   9.595  10.688
11052W        W76279  44.934  28.190   0.403
11053W        W76280  37.323  10.161   0.478
11054W        W76281  23.221  30.899  14.606
11055W        W76282  24.442   3.450  13.973
11056W        W76283  37.780  29.970  14.002
11057W        W76284  10.042  20.023  13.029
11058W        W76285  42.843  18.916  14.849
11059W        W76286  23.366  33.423  10.676
11060W        W76287  17.700  15.510  11.583
11061W        W76288  26.029   6.498   4.122
11062W        W76289  17.672  34.251  12.616
11063W        W76290  36.375   6.023   4.067
11064W        W76291  41.600  30.043  14.896
11065W        W76292  39.700  22.840  13.515
11066W        W76293   2.684  13.564   3.909
11067W        W76294  44.924  44.051   1.131
11068W        W76295  19.595  25.214  12.142
11069W        W76296  42.896  27.108   4.517
11070W        W76297   6.800  43.967  11.330
11071W        W76298   8.657  19.535  12.012
11072W        W76299  22.635   2.437   2.611
11073W        W76300  34.182  17.157  14.972
11074W        W76301   3.859   8.350  13.148
11075W        W76302  16.566  25.996  10.746
11076W        W76303  20.512   2.302  11.257
11077W        W76304   2.207   3.485   3.277
11078W        W76305  40.564  43.913  14.409
11079W        W76306  42.506  24.158   3.726
11080W        W76307  28.849  31.787   2.744
11081W        W76308  32.458  43.840   1.075
11082W        W76309  31.580  41.672  11.599
11083W        W76310   6.829  43.617  14.948
11084W        W76311  12.824  36.753   4.545
11085W        W76312  13.458   1.738  11.206
11086W        W76313  15.399   0.399   3.205
11087W        W76314   1.064  14.578   1.929
11088W        W76315  25.523  12.743  13.067
11089W        W76316  15.480  27.681  14.019
11090W        W76317  15.283   4.366   2.105
11091W        W76318  25.242  37.384   2.625
11092W        W76319  30.353  43.233   0.610
11093W        W76320  42.521  15.794   1.164
11094W        W76321  24.751  24.825   1.396
11095W        W76322  40.470  13.627  13.645
11096W        W76323  25.474   4.225  13.342
11097W        W76324   3.847  12.576  14.392
11098W        W76325  11.055  41.235  13.561
11099W        W76326   7.350  44.658  12.787
11100W        W76327  20.056  17.258  10.759
11101W        W76328  17.556  15.803   1.284
11102W        W76329   2.411   2.333   3.493
11103W        W76330  17.080  40.158  10.988
11104W        W76331  18.577  25.735   1.788
11105W        W76332  17.755  42.073   4.110
11106W        W76333  40.041   3.332  14.544
11107W        W76334  32.563  15.588   1.766
11108W        W76335  14.694  18.550   4.364
11109W        W76336  16.827   6.610   3.832
11110W        W76337  28.902  36.054  12.514
11111W        W76338  22.697   2.980  12.569
11112W        W76339   3.151  30.621  13.071
11113W        W76340  33.153  19.119  11.953
11114W        W76341  10.212   5.375  13.878
11115W        W76342  31.279  11.494   1.871
11116W        W76343   6.276  14.102  13.869
11117W        W76344  24.222  44.693   4.455
11118W        W76345  30.060  39.548   1.247
11119W        W76346  41.049  10.253  12.068
11120W        W76347  10.414  13.952   2.741
11121W        W76348  38.553  12.736   4.847
11122W        W76349  29.739   0.836  13.495
11123W        W76350  18.051  29.401   3.696
11124W        W76351   0.633  28.165   1.364
11125W        W76352  27.126  38.502  10.317
11126W        W76353  31.942  42.025   3.563
11127W        W76354  19.778   9.310  12.043
11128W        W76355  23.611   4.226   0.394
11129W        W76356   8.252  44.928   2.578
11130W        W76357   3.880  24.944   0.283
11131W        W76358   1.655  26.124  14.061
11132W        W76359  24.008  31.475   0.745
11133W        W76360  25.051   9.891  10.514
11134W        W76361  44.692  43.763   2.086
11135W        W76362  40.291  18.654  13.031
11136W        W76363   1.001  15.550  11.437
11137W        W76364  24.156  22.015  13.941
11138W        W76365  29.894  43.555  13.010
11139W        W76366  19.744  19.093   0.975
11140W        W76367  40.412  40.296   0.004
11141W        W76368  44.933  10.334  12.516
11142W        W76369  38.616  21.010   4.047
11143W        W76370  11.446  11.319  13.607
11144W        W76371  10.155   7.700   2.728
11145W        W76372  10.085  36.868  12.007
11146W        W76373  40.921  37.876  11.624
11147W        W76374  20.508  20.071  11.258
11148W        W76375  18.170  24.412   1.961
11149W        W76376  37.774  34.718  14.851
11150W        W76377  22.950  41.215  14.864
11151W        W76378  42.003  38.791   3.576
11152W        W76379  22.691  38.665  12.445
11153W        W76380  29.581  21.038  10.550
11154W        W76381   3.486   9.379   4.701
11155W        W76382  36.341   3.799  11.983
11156W        W76383  30.342   6.980   4.265
11157W        W76384  43.417   8.419  14.356
11158W        W76385  18.760  32.172  10.314
11159W        W76386   5.182   0.433   1.732
11160W        W76387  30.096  12.734   3.029
11161W        W76388  28.461  31.397   1.858
11162W        W76389  27.614  31.126   3.290
11163W        W76390  42.875  31.059  10.673
11164W        W76391  28.920  25.532  11.241
11165W        W76392   3.367  13.268   3.933
11166W        W76393  36.956  36.806   0.494
11167W        W76394  31.165   9.624   1.284
11168W        W76395  44.895  25.066  12.406
11169W        W76396  39.725  36.019   0.458
11170W        W76397   5.018  25.915   5.017
11171W        W76398  31.776  11.299   1.783
11172W        W76399  10.804   2.578   2.772
11173W        W76400  17.930   7.102  10.925
11174W        W76401  28.140  13.260  14.874
11175W        W76402  24.507   6.300  13.026
11176W        W76403   1.977   4.487  13.025
11177W        W76404  32.378  15.764  14.341
11178W        W76405  12.669  27.426   2.780
11179W        W76406  39.317  43.061  13.552
11180W        W76407  15.705  13.543   4.140
11181W        W76408  26.004  13.922  13.381
11182W        W76409   1.529  23.153   1.701
11183W        W76410   2.484  36.923   4.257
11184W        W76411  22.350  17.723  12.141
11185W        W76412  27.303  30.016   1.289
11186W        W76413  16.147  44.634   4.038
11187W        W76414  25.282  19.726  10.175
11188W        W76415   0.990  39.783   1.750
11189W        W76416   7.643  20.060   3.263
11190W        W76417  26.951   5.312   2.125
11191W        W76418  37.674   9.329  11.167
11192W        W76419  36.598  39.497  13.422
11193W        W76420  37.301   7.772  13.065
11194W        W76421  10.742  44.876  11.846
11195W        W76422  30.111   4.489   1.884
11196W        W76423   4.927  18.540  14.481
11197W        W76424   9.285  28.690  14.376
11198W        W76425  35.598   8.430   2.322
11199W        W76426  38.059  17.587  11.136
11200W        W76427  28.727   2.467  13.876
11201W        W76428  31.691  35.250   4.907
11202W        W76429  40.458  32.145   0.545
11203W        W76430  37.657  26.414  11.978
11204W        W76431  14.787  19.084  14.381
11205W        W76432   6.399  12.232   0.843
11206W        W76433  35.489  26.741   3.730
11207W        W76434  22.112  27.287   2.496
11208W        W76435  24.812  36.876  12.556
11209W        W76436   8.371  38.742   3.616
11210W        W76437  13.314  17.645  11.221
11211W        W76438   3.038   0.444  12.591
11212W        W76439  40.118  18.121  11.734
11213W        W76440  26.494  24.545   1.033
11214W        W76441   4.737  16.897  10.555
11215W        W76442  25.783   9.000   3.966
11216W        W76443  16.805  23.525   4.591
11217W        W76444  44.398  33.752  13.855
11218W        W76445  26.896  22.830  10.394
11219W        W76446  10.569  36.342   4.455
11220W        W76447   3.929  22.127  14.367
11221W        W76448  17.761  30.011  14.920
11222W        W76449  19.331  15.592  13.984
11223W        W76450  16.818  25.877   1.411
11224W        W76451  14.196  12.426   2.221
11225W        W76452  26.965  24.207  13.559
11226W        W76453  36.571   8.078   3.273
11227W        W76454   0.419  18.745   2.276
11228W        W76455  10.868   8.287  12.142
11229W        W76456   5.149  39.865   0.465
11230W        W76457  30.942  44.822   4.004
11231W        W76458  34.843   9.360  14.803
11232W        W76459  20.924   2.670  11.580
11233W        W76460  12.624  33.619  14.173
11234W        W76461  17.847  38.083   3.657
11235W        W76462  27.060  22.772  11.691
11236W        W76463   7.369  27.712  13.084
11237W        W76464  41.266  19.746  14.764
11238W        W76465  44.103  39.598  11.171
11239W        W76466  42.078  35.889   1.638
11240W        W76467  29.075  13.121   0.309
11241W        W76468  10.635   6.813   3.685
11242W        W76469   8.864  14.744  13.644
11243W        W76470  31.577  23.953  13.533
11244W        W76471  41.806  33.439  11.113
11245W        W76472  36.240  15.911   4.862
11246W        W76473  32.586  14.769   4.378
11247W        W76474  34.891   2.993  10.637
11248W        W76475  38.851   5.749   1.871
11249W        W76476  28.203  44.483   4.706
11250W        W76477   5.397  33.384   3.969
11251W        W76478  13.695  19.074  14.366
11252W        W76479  25.976   4.753  11.314
11253W        W76480  18.387  38.482  14.821
11254W        W76481  40.559  19.131  12.052
11255W        W76482   8.622   1.933  12.294
11256W        W76483  30.868  22.969   3.187
11257W        W76484  21.788   7.824  13.522
11258W        W76485   7.518   1.785   0.732
11259W        W76486   4.647  16.275   3.318
11260W        W76487  19.559   3.027  14.022
11261W        W76488  40.003  40.643   2.636
11262W        W76489  27.876  19.174  10.955
11263W        W76490  34.580  42.899   3.113
11264W        W76491  31.609  24.619  13.830
11265W        W76492  39.591  30.605  11.775
11266W        W76493  44.754   3.171   4.249
11267W        W76494  31.616  41.920  13.551
11268W        W76495  17.981  34.564  12.090
11269W        W76496   6.593  11.686   1.453
11270W        W76497  40.864  42.038  11.887
11271W        W76498  36.085  23.623  10.628
11272W        W76499  17.796  22.272   2.258
11273W        W76500  27.629  33.685  13.414
11274W        W76501  18.549  12.835  11.266
11275W        W76502  39.273  31.937  10.470
11276W        W76503  21.509  23.315  14.901
11277W        W76504   0.749  26.478  14.401
11278W        W76505  25.590  11.364  14.318
11279W        W76506   6.921   9.909   0.768
11280W        W76507  16.752  33.284  12.020
11281W        W76508  13.409  34.242   4.123
11282W        W76509  16.107  25.992  10.480
11283W        W76510   1.994  19.282  13.117
11284W        W76511  27.531   0.870  11.635
11285W        W76512  27.704  29.957  10.270
11286W        W76513  43.838  42.404   4.185
11287W        W76514  21.609  27.493   1.964
11288W        W76515  43.041   4.453  12.239
11289W        W76516  18.408  21.553  12.488
11290W        W76517  26.047  26.710  10.801
11291W        W76518   1.501  35.198   4.636
11292W        W76519  13.748  34.601  13.798
11293W        W76520  33.817   0.858  12.065
11294W        W76521  12.564   3.357   2.085
11295W        W76522   2.685   9.995  10.802
11296W        W76523  29.945   1.340   1.919
11297W        W76524  25.094  36.559   0.348
11298W        W76525   8.754  16.600  12.625
11299W        W76526  18.009  44.229  12.047
11300W        W76527  36.273  20.636  12.563
11301W        W76528  33.476  35.108   2.811
11302W        W76529  35.189  25.600   4.786
11303W        W76530  36.629   9.901   4.166
11304W        W76531  14.714  44.228  13.295
11305W        W76532  40.460  30.068   3.597
11306W        W76533   2.006  16.214  14.887
11307W        W76534  25.655  11.438  11.253
11308W        W76535   3.221   7.788   3.379
11309W        W76536   4.149  18.822   4.163
11310W        W76537  23.425  26.934   3.641
11311W        W76538  18.135  37.515   0.041
11312W        W76539  29.214  25.219   2.734
11313W        W76540   8.289   0.189   4.587
11314W        W76541   5.491  12.498   1.872
11315W        W76542  41.751  23.637  13.951
11316W        W76543  18.644   7.917  13.381
11317W        W76544  19.664  30.658   0.396
11318W        W76545  23.095  26.964   1.482
11319W        W76546  23.052   1.969  14.889
11320W        W76547   6.065  25.324  10.704
11321W        W76548  41.884   4.459   3.919
11322W        W76549  19.136  38.516   0.945
11323W        W76550   5.756   0.534  14.011
11324W        W76551  34.094  37.439   1.725
11325W        W76552  20.638  16.774  12.459
11326W        W76553  43.378  41.576  12.965
11327W        W76554  42.180   3.023  13.195
11328W        W76555   8.307  25.918   3.231
11329W        W76556  40.130  12.693   0.918
11330W        W76557  21.589  39.166   1.197
11331W        W76558   1.261  10.052   2.689
11332W        W76559  40.035  18.576  13.488
11333W        W76560  21.563  13.839  10.445
11334W        W76561  25.050  27.429  14.394
11335W        W76562  21.142   4.301   1.370
11336W        W76563  20.778  26.199   2.133
11337W        W76564  16.099  24.218   1.837
11338W        W76565  32.420  22.923  12.023
11339W        W76566  38.778  25.964   0.369
11340W        W76567  37.001  31.741   1.328
11341W        W76568  25.513   2.847   0.409
11342W        W76569  20.032  36.098   1.355
11343W        W76570  41.223   3.476  12.136
11344W        W76571  34.046  32.903   4.467
11345W        W76572   4.903  44.789   2.149
11346W        W76573  24.506  26.221  10.809
11347W        W76574  17.386  18.640   0.145
11348W        W76575   9.327  31.692   3.608
11349W        W76576  42.410  13.156  10.373
11350W        W76577  32.929  24.020  11.619
11351W        W76578   7.308  28.466   3.699
11352W        W76579   8.341  17.687  13.888
11353W        W76580  14.882  30.905  11.136
11354W        W76581   6.658  13.185  12.343
11355W        W76582   9.476  13.166   3.286
11356W        W76583   8.783  10.785   3.619
11357W        W76584  36.483  19.852   0.323
11358W        W76585  39.472  38.759  14.551
11359W        W76586  30.080  10.867   4.610
11360W        W76587  32.128  13.436   2.246
11361W        W76588   5.397  32.778   0.879
11362W        W76589  29.654  39.449  14.530
11363W        W76590   5.363  32.589  12.155
11364W        W76591  19.672  40.038  11.550
11365W        W76592  14.687   8.650   1.371
11366W        W76593   3.711   7.946  10.871
11367W        W76594   1.052  35.140   3.021
11368W        W76595   6.493  44.449  14.091
11369W        W76596  24.930   7.927  13.347
11370W        W76597   6.291  20.136   0.893
11371W        W76598   0.951  21.758  11.872
11372W        W76599   1.711  22.991   4.894
11373W        W76600  10.625  30.557  14.876
11374W        W76601  42.008  22.346   3.805
11375W        W76602  10.427  14.127  11.192
11376W        W76603  11.564  39.015  10.666
11377W        W76604  17.763  20.289  11.091
11378W        W76605  10.377  14.069   3.699
11379W        W76606  37.834  15.930  10.233
11380W        W76607  20.110   1.269   0.081
11381W        W76608  15.313  33.960  14.046
11382W        W76609  41.049  29.886   4.971
11383W        W76610  41.010  36.715   3.302
11384W        W76611   4.383  30.422  14.140
11385W        W76612   3.721  41.675  12.064
11386W        W76613   5.956   9.148  12.431
11387W        W76614   2.169  41.510   3.712
11388W        W76615  35.057  16.528  13.876
11389W        W76616  38.256   5.054   2.957
11390W        W76617  22.918  43.320  11.129
11391W        W76618   3.233  16.774  12.766
11392W        W76619  16.600   7.301  11.759
11393W        W76620  37.643  29.692  10.026
11394W        W76621  41.509  27.427  11.192
11395W        W76622   3.298  15.072  13.053
11396W        W76623  29.122  18.206  13.149
11397W        W76624  18.115  17.582   3.701
11398W        W76625  17.589  31.114   0.869
11399W        W76626   0.853  19.405  14.784
11400W        W76627   3.278  13.378   3.082
11401W        W76628  39.569   6.348  11.932
11402W        W76629  32.386   8.453   2.810
11403W        W76630   8.940  29.953   3.644
11404W        W76631  43.344   5.890  13.352
11405W        W76632  14.129  40.567   0.045
11406W        W76633   5.714  12.120  14.409
11407W        W76634   3.892  40.434   4.821
11408W        W76635   4.956   1.747   2.593
11409W        W76636  26.558  28.984  13.902
11410W        W76637  30.505  36.555  12.982
11411W        W76638  31.111  11.912  14.180
11412W        W76639  23.578  44.633   9.798
11413W        W76640  34.162  27.995   3.127
11414W        W76641  43.156  43.381   1.299
11415W        W76642  22.573  31.417   1.961
11416W        W76643  21.647  29.742  12.443
11417W        W76644  35.029  23.204  11.081
11418W        W76645  22.691  20.991  13.420
11419W        W76646  20.823  10.454  10.130
11420W        W76647  26.624  44.053  10.708
11421W        W76648  23.483  39.680  14.595
11422W        W76649   1.379  30.607   0.981
11423W        W76650  35.836  17.978   4.699
11424W        W76651  15.131  44.823   2.687
11425W        W76652  38.545  11.903  12.712
11426W        W76653  33.583  30.865  13.442
11427W        W76654   8.253  41.866   0.356
11428W        W76655   5.413   2.966   0.822
11429W        W76656  18.568  36.593  14.356
11430W        W76657  13.758  27.059  14.209
11431W        W76658  27.367  35.437  11.514
11432W        W76659  37.152  32.032  10.245
11433W        W76660  26.733  10.787  12.560
11434W        W76661  14.145   3.196  14.806
11435W        W76662  35.035  35.980   2.132
11436W        W76663   0.771  13.749  11.007
11437W        W76664   4.091  44.587   2.847
11438W        W76665  27.965  30.570  11.113
11439W        W76666  42.591  30.079   0.054
11440W        W76667   4.171  29.432   0.911
11441W        W76668  24.362  24.941   3.880
11442W        W76669  10.395  44.387   4.132
11443W        W76670  14.904  14.230   3.674
11444W        W76671  16.348  28.489   3.891
11445W        W76672  39.002   0.612   2.105
11446W        W76673   2.237  18.071  13.929
11447W        W76674   3.936  15.582   2.698
11448W        W76675   5.894   7.168  12.592
11449W        W76676  19.565  41.293  13.286
11450W        W76677  37.484  15.020   4.180
11451W        W76678  25.413   0.817   1.733
11452W        W76679  24.807   6.391  11.621
11453W        W76680  18.184  10.677   2.537
11454W        W76681  38.849  13.398  13.868
11455W        W76682  19.365  22.124   0.852
11456W        W76683  35.356  12.259   1.689
11457W        W76684  17.150  43.602   1.202
11458W        W76685  32.993  22.307   0.138
11459W        W76686  30.944  10.248   2.904
11460W        W76687  26.624  34.612  14.304
11461W        W76688   9.591  37.359  12.793
11462W        W76689  25.685  23.295   3.705
11463W        W76690  37.810   4.640   5.131
11464W        W76691  31.070   2.008  11.157
11465W        W76692  16.528  41.439   2.644
11466W        W76693  19.483  17.667  13.425
11467W        W76694   5.704  14.968   4.430
11468W        W76695   6.698  41.819   0.211
11469W        W76696   6.118  32.516   2.621
11470W        W76697  10.807  35.365  13.820
11471W        W76698  23.224  43.004  12.287
11472W        W76699  42.336  22.338   3.202
11473W        W76700  19.973  20.333   2.305
11474W        W76701  41.412   7.330   3.840
11475W        W76702  14.557   8.709   0.346
11476W        W76703   7.180  13.662  12.976
11477W        W76704  30.161   8.234   4.105
11478W        W76705   8.726   5.313   0.890
11479W        W76706  24.737  19.387  12.199
11480W        W76707  27.838  23.079   0.003
11481W        W76708  28.200  38.117  13.098
11482W        W76709   8.611  15.785  10.618
11483W        W76710   3.839  24.202  11.622
11484W        W76711  24.065  20.752   1.911
11485W        W76712  21.746   0.315  14.448
11486W        W76713  26.731  35.441   2.762
11487W        W76714  34.829  21.469   4.038
11488W        W76715  16.110   3.886   0.796
11489W        W76716  19.204  12.674   1.065
11490W        W76717  27.790  20.539   3.183
11491W        W76718  44.437   5.146   2.636
11492W        W76719   2.431  21.002   0.120
11493W        W76720  24.530  14.212   4.376
11494W        W76721  21.183  25.835   2.060
11495W        W76722   7.474   7.826  13.871
11496W        W76723  31.694  36.063  14.988
11497W        W76724   3.033   1.176   3.824
11498W        W76725   8.853  27.982   1.716
11499W        W76726  13.319  21.569  14.881
11500W        W76727   8.980   8.894   2.645
11501W        W76728  25.999  27.580  12.487
11502W        W76729  34.527   4.062   4.745
11503W        W76730  20.302  44.838  11.968
11504W        W76731  17.958  36.869   3.128
11505W        W76732  32.629  34.956   0.378
11506W        W76733   6.730  24.657   3.933
11507W        W76734  24.028   3.407  12.933
11508W        W76735  11.664   3.995   1.256
11509W        W76736   3.278  36.914   2.260
11510W        W76737  40.452  19.068  10.390
11511W        W76738  13.011   5.895  12.318
11512W        W76739  21.272  11.323  10.718
11513W        W76740  19.348  13.045  11.645
11514W        W76741  36.231  35.120  13.464
11515W        W76742  24.499  17.702   0.251
11516W        W76743  11.738   4.154  14.976
11517W        W76744  21.572   3.859  12.489
11518W        W76745  40.932  13.336   0.862
11519W        W76746  38.456  19.655   4.694
11520W        W76747   2.790  36.114  10.697
11521W        W76748   7.251  42.428   0.751
11522W        W76749  41.920   4.150   3.499
11523W        W76750  37.823  33.630  14.048
11524W        W76751   3.270  15.687  14.335
11525W        W76752  14.111  34.833   1.294
11526W        W76753  36.976  22.134   2.957
11527W        W76754   9.500  28.004  12.360
11528W        W76755  43.301  12.367   1.402
11529W        W76756  35.325   7.700  14.906
11530W        W76757  17.935  24.288  11.641
11531W        W76758  11.712   7.266   1.814
11532W        W76759   7.340  11.245  12.365
11533W        W76760  41.396  32.226   1.275
11534W        W76761  10.219  33.156  13.011
11535W        W76762   4.704  19.462   0.815
11536W        W76763  39.350   9.619   3.293
11537W        W76764  18.667   8.555  11.696
11538W        W76765  27.655   6.839   4.038
11539W        W76766  18.752  40.024   0.949
11540W        W76767  22.244  16.756   4.447
11541W        W76768   4.827  37.334  11.651
11542W        W76769  41.207  19.132  10.213
11543W        W76770   7.202  22.190   4.306
11544W        W76771  12.667   9.606   1.288
11545W        W76772  21.974  18.102   4.532
11546W        W76773  22.842   7.181  10.529
11547W        W76774   1.751  41.974   2.809
11548W        W76775  42.761  31.160   2.194
11549W        W76776   8.076  12.455   0.829
11550W        W76777  33.051  20.083   2.999
11551W        W76778  26.217   0.378   4.263
11552W        W76779  38.995  29.524   5.096
11553W        W76780  14.371  32.865  10.121
11554W        W76781  24.939   7.315   0.808
11555W        W76782  27.205   3.190   4.545
11556W        W76783  38.983  23.867   3.963
11557W        W76784  20.661  26.959   4.432
11558W        W76785  31.767   3.732   0.823
11559W        W76786  21.390  31.370   3.746
11560W        W76787   6.331   1.693   1.577
11561W        W76788   4.813  32.044  14.902
11562W        W76789  21.405  37.079  12.603
11563W        W76790   3.493  37.001  11.456
11564W        W76791   4.963  38.554  12.756
11565W        W76792  40.657   1.983  13.896
11566W        W76793  28.225   1.455  13.012
11567W        W76794  40.633  37.371  11.848
11568W        W76795  14.546  24.685  12.047
11569W        W76796  29.895  10.234  13.825
11570W        W76797  13.005  26.884   2.040
11571W        W76798  19.113  42.493   2.174
11572W        W76799  16.047  27.218  14.365
11573W        W76800  42.824  39.974   0.860
11574W        W76801  32.034  33.133   3.813
11575W        W76802   1.770  12.447  14.879
11576W        W76803  39.402  41.029  11.157
11577W        W76804  31.125  13.293   0.325
11578W        W76805  15.550  38.315  14.907
11579W        W76806  17.834  22.103   2.775
11580W        W76807   5.288  13.827  13.854
11581W        W76808   3.811   1.881   1.731
11582W        W76809  29.365  30.514   1.241
11583W        W76810  20.985   3.238   0.315
11584W        W76811  16.638   6.542  10.683
11585W        W76812  29.732  42.412  12.813
11586W        W76813  36.638  29.379   2.740
11587W        W76814  43.309  26.131   3.635
11588W        W76815   0.004   5.782  14.962
11589W        W76816  29.517  44.288   9.972
11590W        W76817  37.385  32.150   0.429
11591W        W76818   7.315   9.917   3.724
11592W        W76819  18.742  44.259  13.499
11593W        W76820  17.850  38.558  10.652
11594W        W76821   8.284  41.073   1.275
11595W        W76822  36.993   3.040  12.147
11596W        W76823   8.657  44.678   1.276
11597W        W76824  44.007   0.711   2.389
11598W        W76825  30.577  16.257   0.199
11599W        W76826  38.220  18.365  11.185
11600W        W76827  29.657  18.583   2.662
11601W        W76828  15.776  11.601  13.813
11602W        W76829   3.259  28.708  10.754
11603W        W76830  24.693  29.491   2.341
11604W        W76831  33.156  34.530  11.946
11605W        W76832   3.295  35.839   0.732
11606W        W76833  31.169  42.869  10.755
11607W        W76834  39.005  40.318  12.079
11608W        W76835   4.211  24.906  14.843
11609W        W76836   2.141   8.094   1.840
11610W        W76837  19.645  35.937  11.489
11611W        W76838  26.376   1.080   5.346
11612W        W76839  28.683   0.644   2.420
11613W        W76840  29.618   9.713  10.483
11614W        W76841  29.949  33.458   3.161
11615W        W76842   5.824   7.317  10.626
11616W        W76843  38.705  14.295   1.204
11617W        W76844  31.492  15.861  11.136
11618W        W76845  31.085  10.013  11.574
11619W        W76846  21.591  18.211  10.672
11620W        W76847  35.276  26.567  14.465
11621W        W76848  15.153  31.536   2.447
11622W        W76849  12.275   2.660  13.435
11623W        W76850  43.315  43.572  13.280
11624W        W76851   9.726  22.913  14.703
11625W        W76852  38.989  39.685   4.533
11626W        W76853  22.651  10.521   2.890
11627W        W76854  10.053  33.346  10.277
11628W        W76855  16.221  11.547  14.524
11629W        W76856  13.253  11.242   1.905
11630W        W76857  33.898  24.116   2.280
11631W        W76858  23.793  30.841   3.290
11632W        W76859  14.832   4.921  14.740
11633W        W76860  33.295  42.470   3.304
11634W        W76861  37.837  22.336  11.871
11635W        W76862   7.307  35.684   4.754
11636W        W76863  22.780   1.286  13.997
11637W        W76864  39.398  31.122   2.211
11638W        W76865  25.539  24.638  13.629
11639W        W76866  31.565  28.434  11.956
11640W        W76867   0.948   4.734  14.753
11641W        W76868   8.482  12.855  13.308
11642W        W76869  26.081   1.931   5.022
11643W        W76870  35.390   5.377   4.541
11644W        W76871  32.501  25.272   2.375
11645W        W76872  33.669  41.405   2.590
11646W        W76873  21.741  19.411   2.218
11647W        W76874  29.500  13.334   3.490
11648W        W76875  33.780  10.323   3.377
11649W        W76876   1.866  11.107   2.380
11650W        W76877  40.010  26.069   4.357
11651W        W76878  16.698  26.785   0.380
11652W        W76879  40.743   5.744   0.833
11653W        W76880  34.297   3.970   4.285
11654W        W76881  30.451   5.104  10.470
11655W        W76882  13.786  22.919  12.848
11656W        W76883   9.261  33.294  12.882
11657W        W76884  35.787  23.544   2.661
11658W        W76885  14.246  12.254   4.060
11659W        W76886   8.227   3.263  11.133
11660W        W76887  26.225  18.289   2.723
11661W        W76888  11.212   2.344  12.160
11662W        W76889  20.617  14.145  13.989
11663W        W76890  18.545  16.299   4.176
11664W        W76891  20.308  13.308  12.380
11665W        W76892   2.314   7.694   0.532
11666W        W76893  39.416  39.947   4.428
11667W        W76894  18.669  44.914  10.751
11668W        W76895  37.256  27.447  13.363
11669W        W76896  12.764  43.115  13.948
11670W        W76897   5.644  28.100  14.261
11671W        W76898  31.596  29.035  12.497
11672W        W76899  14.255  10.143   2.746
11673W        W76900  32.023   2.966  11.528
11674W        W76901  19.056   3.472  14.666
11675W        W76902  42.907  11.567   1.654
11676W        W76903   2.307   3.713   0.734
11677W        W76904  44.446   7.923  12.480
11678W        W76905  20.115  27.770  11.697
11679W        W76906  33.182  29.049   0.529
11680W        W76907  14.268   0.755  12.355
11681W        W76908  34.155  29.681   0.963
11682W        W76909  26.645  31.216   2.316
11683W        W76910  19.859   2.944  12.591
11684W        W76911  19.090  18.219  14.224
11685W        W76912  27.963   8.375   3.081
11686W        W76913  40.742  25.661   4.008
11687W        W76914   3.512  42.871  14.379
11688W        W76915   4.566  39.921  10.131
11689W        W76916  37.849  14.648   3.638
11690W        W76917   9.127  11.635  14.448
11691W        W76918   9.662  22.603   1.879
11692W        W76919  36.512  28.398   3.743
11693W        W76920  44.537  39.922  11.055
11694W        W76921  23.755  24.651   2.241
11695W        W76922  41.773  43.995   2.924
11696W        W76923  13.000  10.910   4.662
11697W        W76924   8.789   4.793   3.832
11698W        W76925  24.198  44.872   2.589
11699W        W76926  40.830  15.131  14.935
11700W        W76927  42.428  35.609  10.725
11701W        W76928   9.817   0.928   4.262
11702W        W76929   3.971  21.747  12.664
11703W        W76930  28.427   3.565   1.882
11704W        W76931  14.052   5.116  11.278
11705W        W76932  11.285  27.799   2.300
11706W        W76933   9.525   0.450   1.967
11707W        W76934   2.757   1.953  14.950
11708W        W76935   3.803  20.729  12.910
11709W        W76936  42.861  42.881   5.010
11710W        W76937  31.055  34.549   2.361
11711W        W76938  23.646  14.470  13.985
11712W        W76939  43.066  39.444   0.875
11713W        W76940  22.246  34.476  11.188
11714W        W76941   7.846  39.646  11.946
11715W        W76942   9.141  44.013   1.700
11716W        W76943  35.133  34.901  10.240
11717W        W76944  31.371  36.443   0.187
11718W        W76945  43.846  39.119  11.694
11719W        W76946  19.337  15.743   3.261
11720W        W76947  27.929  26.561   3.642
11721W        W76948  28.839  10.906   3.722
11722W        W76949  30.296  24.232  11.659
11723W        W76950  32.764  31.147   0.940
11724W        W76951   6.158  44.394   3.749
11725W        W76952  39.693   1.392   3.313
11726W        W76953   8.354  39.570  14.384
11727W        W76954  42.763  12.261   3.249
11728W        W76955   3.895   6.676  14.422
11729W        W76956  29.167  39.802  12.919
11730W        W76957  22.092  44.713   2.341
11731W        W76958  19.336  21.213   0.351
11732W        W76959  15.617  33.399  12.555
11733W        W76960  10.134   3.801  11.977
11734W        W76961  15.535  34.093  11.061
11735W        W76962  35.635  24.180   1.920
11736W        W76963   4.160  24.561  12.583
11737W        W76964   1.043  33.687   4.152
11738W        W76965  28.095   0.689  10.120
11739W        W76966   6.769   4.334   4.384
11740W        W76967  13.124  25.319   4.958
11741W        W76968  15.114  11.912   0.818
11742W        W76969  10.582  28.922   2.428
11743W        W76970   2.033  40.939  11.595
11744W        W76971  39.358  17.011  11.545
11745W        W76972  22.190  27.702   0.755
11746W        W76973  20.960  19.863   1.333
11747W        W76974  25.811  33.623  13.352
11748W        W76975  23.170   2.292   2.624
11749W        W76976  18.664   3.856  12.983
11750W        W76977  38.455  32.902   0.681
11751W        W76978  36.098   9.264  10.699
11752W        W76979  31.882  10.256   1.702
11753W        W76980  39.064  19.248   1.730
11754W        W76981   2.779  20.056  14.305
11755W        W76982   6.921  44.251  13.891
11756W        W76983  33.350   5.189  12.996
11757W        W76984  43.317  16.728  12.190
11758W        W76985  19.709   3.133  10.336
11759W        W76986  23.475  35.482  11.605
11760W        W76987  35.063   5.632  12.028
11761W        W76988  23.486  43.128  13.490
11762W        W76989  23.427  10.360   2.323
11763W        W76990  29.320  43.884  10.853
11764W        W76991   3.571  16.615  14.279
11765W        W76992   8.176   1.870  11.345
11766W        W76993  37.542  14.372  11.077
11767W        W76994  30.812  18.069   0.161
11768W        W76995  44.057   9.534  11.933
11769W        W76996  32.545  31.186  11.083
11770W        W76997  36.509   4.705  13.371
11771W        W76998  11.780  37.846  14.907
11772W        W76999  16.621  29.544   1.680
11773W        W77000   3.956   3.073  11.236
11774W        W77001  20.507  34.349  12.934
11775W        W77002   9.631  40.561   2.647
11776W        W77003   0.767  26.114   2.338
11777W        W77004   5.646   0.768  11.585
11778W        W77005   9.637  30.199  11.186
11779W        W77006   2.758  22.067  11.933
11780W        W77007  35.853  14.318  13.489
11781W        W77008  16.350  33.428  11.354
11782W        W77009  11.700  26.037   4.371
11783W        W77010  27.468  27.986  11.937
11784W        W77011   7.495   1.480  14.484
11785W        W77012   5.748  35.836   3.221
11786W        W77013   1.093  36.490   2.819
11787W        W77014  34.570  19.274   2.639
11788W        W77015  15.874  39.815   4.388
11789W        W77016  34.738  29.618  13.947
11790W        W77017  16.506  27.968   4.657
11791W        W77018  29.919   3.853  10.761
11792W        W77019  22.647  25.524  13.099
11793W        W77020   5.787  25.185  11.881
11794W        W77021  21.348  11.142  13.677
11795W        W77022  19.030  26.884   4.087
11796W        W77023   4.206  44.204   1.303
11797W        W77024  25.704  36.113  14.367
11798W        W77025  31.112  14.895  14.716
11799W        W77026  18.119   5.929  12.142
11800W        W77027  17.909  23.683   1.684
11801W        W77028  41.807  19.382   5.052
11802W        W77029  40.337  36.155   4.629
11803W        W77030  31.029  11.151  11.741
11804W        W77031  34.451  32.122   3.194
11805W        W77032   2.003   8.649  11.349
11806W        W77033   4.238  30.987  13.461
11807W        W77034  14.567  36.041   0.272
11808W        W77035  15.482  44.839   4.607
11809W        W77036   9.636  28.987  12.361
11810W        W77037  43.500   3.299  14.470
11811W        W77038  30.674  11.385   3.328
11812W        W77039  26.166  16.266   1.942
11813W        W77040  24.510   2.933  13.971
11814W        W77041  36.609  38.182  11.545
11815W        W77042  15.756   4.025   0.022
11816W        W77043  43.320   6.371  13.095
11817W        W77044   6.822  27.174  10.750
11818W        W77045  36.072  41.054   4.539
11819W        W77046  19.804  34.005   3.438
11820W        W77047  43.468  32.129   1.728
11821W        W77048   3.662   9.575   3.235
11822W        W77049  26.717  27.381  11.867
11823W        W77050  28.521  26.318   3.669
11824W        W77051  12.203   9.888   1.218
11825W        W77052  12.240  37.555   2.604
11826W        W77053  14.712  34.160   4.560
11827W        W77054   7.285  16.351  12.899
11828W        W77055  19.261  37.416   2.786
11829W        W77056   6.845  37.558   2.231
11830W        W77057  41.244  43.006   2.607
11831W        W77058  11.648  28.406   4.018
11832W        W77059  43.207  34.367  10.661
11833W        W77060  19.513  32.550   3.725
11834W        W77061  41.440  44.949  14.806
11835W        W77062  25.775  32.624  14.381
11836W        W77063  39.260   4.284   9.868
11837W        W77064   6.177  20.982  12.982
11838W        W77065  25.249  13.788   4.934
11839W        W77066  22.651  24.709   1.461
11840W        W77067  14.093  31.853   2.235
11841W        W77068  37.953  13.405  12.511
11842W        W77069   5.849   7.381  14.461
11843W        W77070  39.788  10.475  11.585
11844W        W77071  18.512  34.861   0.879
11845W        W77072  26.464  22.705   2.911
11846W        W77073  42.466  29.664  13.967
11847W        W77074  42.917  23.863   1.229
11848W        W77075  28.172   5.834   2.697
11849W        W77076  34.584  42.871  11.682
11850W        W77077  11.610  20.094   3.761
11851W        W77078  44.481   8.575   3.641
11852W        W77079  15.122  32.582  14.828
11853W        W77080  39.633  25.773   4.658
11854W        W77081  10.883  29.278   1.383
11855W        W77082  43.071  26.933  14.519
11856W        W77083   5.469   5.701  14.735
11857W        W77084  12.754   0.994  11.283
11858W        W77085   6.973  34.920  11.601
11859W        W77086  11.856   4.800   4.899
11860W        W77087  29.635  16.600  14.009
11861W        W77088  27.497   9.110  11.371
11862W        W77089  12.627  33.710  11.628
11863W        W77090   9.427  41.803  14.980
11864W        W77091  11.563  22.872  11.147
11865W        W77092   6.877  20.090   0.879
11866W        W77093  37.643  13.294  14.800
11867W        W77094  41.225  36.913   1.704
11868W        W77095  38.611  16.127   1.866
11869W        W77096   4.694  26.999  14.501
11870W        W77097  42.997  21.188   0.336
11871W        W77098  26.954   1.614   3.343
11872W        W77099  10.418  19.123  13.017
11873W        W77100  12.661  38.770   1.247
11874W        W77101  43.123  39.834   4.054
11875W        W77102   2.925  25.494  14.591
11876W        W77103   6.690  25.891   3.048
11877W        W77104   3.707  20.454  14.371
11878W        W77105  10.381  30.478   2.105
11879W        W77106  31.944  33.803  10.746
11880W        W77107  16.122  37.875   0.310
11881W        W77108  21.093  36.908   1.347
11882W        W77109   9.699  16.512  14.779
11883W        W77110  26.963  44.637   2.355
11884W        W77111  35.494   9.088   4.314
11885W        W77112  42.335   1.134  14.331
11886W        W77113   6.293  10.784  12.934
11887W        W77114  38.667  23.987  12.855
11888W        W77115  10.877  18.462  14.820
11889W        W77116  34.916  27.787  11.544
11890W        W77117  38.275  31.819  12.117
11891W        W77118  34.455  36.180  14.939
11892W        W77119  31.512  39.844  13.028
11893W        W77120  33.777  13.933   2.774
11894W        W77121  19.021   7.118  14.484
11895W        W77122   2.358  42.235   4.991
11896W        W77123  40.804  12.370  14.509
11897W        W77124  32.322   9.724   0.884
11898W        W77125  22.066  36.341   0.524
11899W        W77126  41.564  32.041  10.241
11900W        W77127  22.099  22.048  10.706
11901W        W77128  30.246   4.866  12.955
11902W        W77129  34.570   5.599  13.320
11903W        W77130  18.090   0.476   2.598
11904W        W77131  12.838  31.556   4.589
11905W        W77132   7.309  25.944   4.754
11906W        W77133  44.036   2.523   1.731
11907W        W77134   7.203   8.725   1.951
11908W        W77135  22.732  19.937  12.513
11909W        W77136  40.512  38.368  10.813
11910W        W77137  34.951   9.130   4.084
11911W        W77138  17.435   3.415  14.788
11912W        W77139  39.345  33.903  11.450
11913W        W77140   8.461   8.223   2.191
11914W        W77141  32.809  38.034  13.819
11915W        W77142   7.075  23.307   4.478
11916W        W77143  38.454  28.861   3.330
11917W        W77144  37.108  43.301  14.789
11918W        W77145  39.498  29.212  14.775
11919W        W77146  18.996  41.711   1.557
11920W        W77147  43.403  40.275   4.574
11921W        W77148  43.738  26.036   3.336
11922W        W77149   9.874  28.666  14.946
11923W        W77150  22.330  37.598  14.755
11924W        W77151  18.175   4.767   1.931
11925W        W77152  28.150  32.793  10.579
11926W        W77153   5.019  42.849   1.789
11927W        W77154  34.909  28.520   9.734
11928W        W77155  21.703   6.224   3.184
11929W        W77156  16.364  26.651   1.281
11930W        W77157  11.691  16.160  13.373
11931W        W77158  40.037   5.919  14.659
11932W        W77159  34.031  36.134  12.531
11933W        W77160  22.977  21.688  10.955
11934W        W77161  27.371  35.923  10.797
11935W        W77162  20.835  24.685  14.524
11936W        W77163   0.268  19.958  13.045
11937W        W77164  24.385  37.944   0.719
11938W        W77165  34.103  38.108   0.310
11939W        W77166  31.355   1.697   2.911
11940W        W77167   6.638  10.893  13.863
11941W        W77168  16.619  26.313   4.977
11942W        W77169  30.136  25.268   1.361
11943W        W77170   5.105  18.463   2.272
11944W        W77171  16.337  28.572   1.013
11945W        W77172  13.181  24.425  11.910
11946W        W77173   1.543   4.694   0.656
11947W        W77174  34.571  27.575   2.279
11948W        W77175  23.256   2.759   1.164
11949W        W77176   6.445  16.478   4.024
11950W        W77177  40.720   1.659   1.798
11951W        W77178  27.232  35.858  11.287
11952W        W77179  23.881  11.582  10.391
11953W        W77180   5.651   3.280   3.604
11954W        W77181  21.726   8.614  10.629
11955W        W77182  19.193  33.637   2.908
11956W        W77183   7.740  13.156   3.515
11957W        W77184   7.118   4.060   2.665
11958W        W77185  42.258  31.567  12.507
11959W        W77186  33.412   5.828  13.498
11960W        W77187  24.320  20.097   4.500
11961W        W77188  23.129  44.247  12.849
11962W        W77189   8.970   3.313  12.952
11963W        W77190  14.144  21.038   3.439
11964W        W77191   2.382  15.820  14.471
11965W        W77192  31.193   8.818  14.819
11966W        W77193  14.699   2.297  14.527
11967W        W77194  18.240  23.653   0.255
11968W        W77195  18.258   6.757   3.147
11969W        W77196   3.243   1.851  14.794
11970W        W77197   8.332   2.788  12.484
11971W        W77198  26.284  13.837   2.579
11972W        W77199  26.007  44.044  11.160
11973W        W77200   7.189  25.424  12.866
11974W        W77201   2.492   9.630   4.155
11975W        W77202  17.635  39.090   2.743
11976W        W77203  41.414  41.000   0.734
11977W        W77204  18.967  31.851   2.884
11978W        W77205  20.059  29.016  13.674
11979W        W77206   5.927  22.336   1.404
11980W        W77207   2.541   1.109   2.945
11981W        W77208   6.258   1.420  12.660
11982W        W77209  32.338  32.658   3.062
11983W        W77210  22.198  31.568   2.286
11984W        W77211   8.896  25.145   2.167
11985W        W77212  36.260  37.116  10.215
11986W        W77213  39.106   1.270  14.959
11987W        W77214  14.867  26.586   5.208
11988W        W77215  21.811  39.140   3.204
11989W        W77216  33.852  33.960   2.653
11990W        W77217  31.925  16.295   0.077
11991W        W77218  16.684  25.604  10.427
11992W        W77219  35.559  41.000  14.374
11993W        W77220  21.695  13.881  10.936
11994W        W77221   9.271  25.390   0.380
11995W        W77222  20.276  11.760  14.944
11996W        W77223  15.395  41.165  11.139
11997W        W77224  30.954   3.102   1.767
11998W        W77225  37.981  38.535  14.377
11999W        W77226  11.735  31.807  13.162
12000W        W77227  10.716  22.983   1.368
12001W        W77228  29.936  12.105   0.308
12002W        W77229   4.260  41.612  13.954
12003W        W77230  36.828  40.423  12.452
12004W        W77231  30.086   9.751   3.796
12005W        W77232   4.428  32.451  12.938
12006W        W77233  21.472   0.683  11.564
12007W        W77234  29.351  24.743  14.364
12008W        W77235   3.630  39.453   1.222
12009W        W77236  19.021  39.727  13.919
12010W        W77237  43.483  16.191   2.368
12011W        W77238  19.229   5.355  11.065
12012W        W77239  16.587  20.585  12.280
12013W        W77240  10.883   1.719  14.458
12014W        W77241  43.248  38.297  11.634
12015W        W77242   2.888  17.728  11.691
12016W        W77243  38.038  35.643   2.286
12017W        W77244  17.335   8.196   2.380
12018W        W77245  38.284   1.895   1.367
12019W        W77246  37.322   7.233  10.845
12020W        W77247   7.718  44.813   3.800
12021W        W77248  10.399  25.156  13.154
12022W        W77249  35.244  37.724   4.106
12023W        W77250  11.230   0.282   4.615
12024W        W77251  26.678  16.149   1.808
12025W        W77252  17.375  34.326   1.388
12026W        W77253   2.304  21.247  10.824
12027W        W77254  20.571   9.451   4.499
12028W        W77255  20.262  15.699   0.190
12029W        W77256  20.550  19.372   4.694
12030W        W77257  28.187   4.311  10.783
12031W        W77258  23.345  10.464  12.804
12032W        W77259   0.356  29.063  13.764
12033W        W77260  39.084  15.085  14.403
12034W        W77261   7.557   1.008  14.281
12035W        W77262  10.382   9.456  14.420
12036W        W77263  19.638  29.548  12.163
12037W        W77264  13.447  22.266  14.276
12038W        W77265   2.255   6.823  13.016
12039W        W77266  13.297  36.367  12.139
12040W        W77267  12.595  20.330   3.629
12041W        W77268  34.954   2.593  14.914
12042W        W77269  21.542  31.125   3.172
12043W        W77270  29.261  23.674   0.888
12044W        W77271  33.038   7.533   0.953
12045W        W77272  20.869  22.536  14.796
12046W        W77273  37.606  13.258   1.183
12047W        W77274  40.932  23.966  11.463
12048W        W77275   9.228   2.899   4.545
12049W        W77276  30.646  11.802  14.366
12050W        W77277  27.610  35.598   1.387
12051W        W77278   0.322  11.758   0.358
12052W        W77279  16.781   2.931   4.872
12053W        W77280   7.724  39.486   1.246
12054W        W77281  33.395   4.922  13.943
12055W        W77282   8.123   7.896   1.299
12056W        W77283  42.438   4.664  13.342
12057W        W77284  43.470  13.370   1.432
12058W        W77285  39.372  39.430   3.153
12059W        W77286  11.937  26.758  12.157
12060W        W77287  10.271  17.614  12.117
12061W        W77288  31.000  24.411   5.110
12062W        W77289  32.529  16.527   2.131
12063W        W77290  44.233  38.614   3.699
12064W        W77291   0.086  32.481  13.589
12065W        W77292  36.959  21.491  12.588
12066W        W77293  22.230   8.160  12.491
12067W        W77294  44.039   0.922   1.383
12068W        W77295  13.179  11.220  12.438
12069W        W77296  21.692  16.552   0.938
12070W        W77297  27.894  35.557  11.422
12071W        W77298  11.432  27.442  11.113
12072W        W77299  23.468  24.601   2.661
12073W        W77300  36.928   9.193   2.233
12074W        W77301   0.855  24.634  10.188
12075W        W77302  27.731  33.874   1.353
12076W        W77303  29.341  41.527   4.642
12077W        W77304   2.651  24.143   2.760
12078W        W77305  43.066  37.318  14.668
12079W        W77306  41.497  36.382   2.737
12080W        W77307  22.038  37.572  12.083
12081W        W77308  25.956   7.761  10.543
12082W        W77309  17.903   5.428   4.599
12083W        W77310   7.920   3.954   1.254
12084W        W77311   4.423  25.086   3.896
12085W        W77312  22.377  44.276   2.322
12086W        W77313  36.380  20.197  13.495
12087W        W77314  40.232  33.997  11.527
12088W        W77315  32.060  17.776  10.948
12089W        W77316   5.398  26.584  10.704
12090W        W77317  41.304   5.612   1.627
12091W        W77318   3.963  39.488   0.811
12092W        W77319  36.424  16.772   4.630
12093W        W77320  35.034  15.916   3.459
12094W        W77321   6.917  38.591   1.922
12095W        W77322  27.197   6.465  10.429
12096W        W77323  13.044   1.851  13.341
12097W        W77324  24.241  39.433  14.034
12098W        W77325  35.555  37.713  12.454
12099W        W77326  11.083  37.104   1.692
12100W        W77327  44.341   9.208   4.553
12101W        W77328  31.654  29.290  11.149
12102W        W77329  28.892  13.401  11.256
12103W        W77330  35.059  25.736   2.355
12104W        W77331  16.942  44.466   4.631
12105W        W77332   9.746  14.915   0.224
12106W        W77333  10.168  37.227  11.667
12107W        W77334  12.608   3.410   5.042
12108W        W77335  39.342  41.413  12.580
12109W        W77336  25.018  13.373  12.417
12110W        W77337  13.837  26.665   1.787
12111W        W77338  36.527  40.045  11.353
12112W        W77339  22.683  13.142   2.812
12113W        W77340  43.362   5.975  11.921
12114W        W77341  44.230   0.687  13.884
12115W        W77342  25.483  23.410  12.293
12116W        W77343   7.931  37.563   5.111
12117W        W77344  17.558   5.754   2.326
12118W        W77345  16.226   8.658  14.926
12119W        W77346   5.504   9.261   3.485
12120W        W77347   2.630  12.965  12.905
12121W        W77348  13.387  15.644  14.028
12122W        W77349  30.341  25.017  14.032
12123W        W77350  31.069  19.084   0.998
12124W        W77351   6.377  18.960  11.186
12125W        W77352  21.735   3.032  12.088
12126W        W77353  21.983   6.624  13.148
12127W        W77354   2.702  36.464   4.191
12128W        W77355  37.919  10.801   2.841
12129W        W77356  28.540  17.790  13.404
12130W        W77357  39.450  30.694   3.356
12131W        W77358  34.634  35.716  14.820
12132W        W77359  33.625  41.261  11.217
12133W        W77360  34.809  43.977  12.564
12134W        W77361  16.011  18.560  14.244
12135W        W77362   2.527  23.535   3.372
12136W        W77363  23.557  14.351   3.713
12137W        W77364  39.393  20.697  12.052
12138W        W77365  38.531  14.568  11.678
12139W        W77366  18.083  33.151   1.389
12140W        W77367  27.997  32.120   4.899
12141W        W77368  33.592  40.820   1.284
12142W        W77369  11.343  44.307  12.511
12143W        W77370  35.018  19.588  14.996
12144W        W77371  27.732  41.416   2.691
12145W        W77372  32.255  41.492   2.185
12146W        W77373  18.529  21.575  13.382
12147W        W77374  37.175  13.249  14.574
12148W        W77375  18.673   2.716  12.172
12149W        W77376  18.305  17.854   1.263
12150W        W77377  13.347  39.924  11.423
12151W        W77378  43.932  27.394  13.585
12152W        W77379  37.568  24.618  14.402
12153W        W77380   9.879   9.811   4.098
12154W        W77381  42.791  11.900  10.868
12155W        W77382   0.603  21.971  11.081
12156W        W77383   0.775  25.104   4.895
12157W        W77384  20.854  12.975  12.500
12158W        W77385   8.678  18.059  13.608
12159W        W77386   2.790  39.500  13.928
12160W        W77387   1.999  19.331   9.737
12161W        W77388  14.996   8.412  12.001
12162W        W77389  25.575  26.775   4.072
12163W        W77390  39.552  33.045  11.017
12164W        W77391   0.745  14.234  10.781
12165W        W77392   2.549   3.575  13.776
12166W        W77393  20.166  41.337  10.300
12167W        W77394   9.016  28.271  12.980
12168W        W77395  21.712  22.932  11.709
12169W        W77396  30.156  11.493   3.344
12170W        W77397  27.034  30.094   2.724
12171W        W77398  30.730  43.639   4.282
12172W        W77399  34.565  16.544  12.135
12173W        W77400   2.338   6.162   4.099
12174W        W77401  43.369  17.588   1.116
12175W        W77402  42.802  14.332   3.362
12176W        W77403   0.788  37.382   0.459
12177W        W77404   9.156  10.397   4.675
12178W        W77405  14.351  30.008   1.344
12179W        W77406  22.718  34.295  11.215
12180W        W77407   4.542  16.560  12.708
12181W        W77408  30.524  39.603  13.948
12182W        W77409   7.722  13.287  14.721
12183W        W77410  19.463   3.929   3.321
12184W        W77411  28.599  23.953   3.905
12185W        W77412  33.572  42.251  14.792
12186W        W77413  37.059   6.712   0.229
12187W        W77414  24.459  37.719   0.243
12188W        W77415  12.627   7.820   4.616
12189W        W77416  23.715  21.004  11.994
12190W        W77417  29.597   1.472   0.903
12191W        W77418  38.271  29.260   4.765
12192W        W77419   0.555  31.105  10.612
12193W        W77420   6.970   7.786  14.572
12194W        W77421  27.032  43.851   0.354
12195W        W77422  30.504  34.474  12.295
12196W        W77423  35.802  39.783  13.025
12197W        W77424  39.318  14.851  12.327
12198W        W77425  13.936   9.581   3.241
12199W        W77426   7.658  40.976  14.438
12200W        W77427   1.814  38.323   2.557
12201W        W77428  34.156   7.396   2.443
12202W        W77429  26.220  18.817   1.838
12203W        W77430  17.839   2.928   4.356
12204W        W77431  27.979   5.474   4.807
12205W        W77432  36.852   5.140   0.302
12206W        W77433  16.612   6.178  11.043
12207W        W77434  44.241  14.285  11.609
12208W        W77435  18.784  19.836   1.222
12209W        W77436  38.589  10.079  12.024
12210W        W77437  26.552   4.790  13.273
12211W        W77438  22.647  34.457  13.565
12212W        W77439  32.939   0.645  13.058
12213W        W77440  16.148  33.377   4.516
12214W        W77441   4.084   4.100  11.264
12215W        W77442   5.070   4.824   0.058
12216W        W77443  20.812  12.764   1.045
12217W        W77444  21.448  36.931   4.525
12218W        W77445  38.167   3.206   2.829
12219W        W77446  39.604   5.657  14.459
12220W        W77447   9.877  25.408   2.215
12221W        W77448   4.458  28.901  11.055
12222W        W77449  28.480  31.627   3.105
12223W        W77450  29.425  16.122   1.832
12224W        W77451  37.664  27.603   2.366
12225W        W77452   7.595  35.063   3.351
12226W        W77453   9.924  14.109  11.258
12227W        W77454   8.814   6.099  11.996
12228W        W77455  37.829  32.258  13.987
12229W        W77456  29.130   0.224  14.525
12230W        W77457  31.463   7.150   3.161
12231W        W77458   7.859  22.990   4.165
12232W        W77459  21.957   1.945  10.737
12233W        W77460  15.209  26.086   0.739
12234W        W77461  44.710  41.035   2.772
12235W        W77462  43.510   7.240   0.952
12236W        W77463  33.723  17.651  12.026
12237W        W77464  43.371  39.317   4.209
12238W        W77465  20.967   1.771  10.619
12239W        W77466  39.425  14.494   2.896
12240W        W77467  31.824  18.159  12.542
12241W        W77468  27.000   3.271  11.901
12242W        W77469  14.697  37.707  14.776
12243W        W77470  28.017  10.720   4.867
12244W        W77471  12.365  31.851   3.949
12245W        W77472  38.935  38.033   0.706
12246W        W77473  23.667   5.366  11.191
12247W        W77474   6.160  31.840  12.578
12248W        W77475  33.356   6.171  11.158
12249W        W77476   1.783  12.757   1.425
12250W        W77477  18.090   9.168  10.638
12251W        W77478  32.459  21.017   0.508
12252W        W77479  37.525  44.600   4.564
12253W        W77480   2.465   2.802   0.842
12254W        W77481  29.448  26.962  12.497
12255W        W77482  36.902  14.328  14.277
12256W        W77483  14.171  40.065   2.424
12257W        W77484  33.442  13.015   3.089
12258W        W77485  33.029  35.533  12.085
12259W        W77486  30.267  18.205  10.700
12260W        W77487   5.241   9.942   1.746
12261W        W77488  22.343  11.920  13.354
12262W        W77489   8.060  24.949   1.134
12263W        W77490  25.439  39.791   0.920
12264W        W77491  28.249  30.948   0.069
12265W        W77492  39.356  32.704  14.398
12266W        W77493  31.257   2.353  10.606
12267W        W77494  43.576  14.076  12.616
12268W        W77495  40.223  31.338   3.304
12269W        W77496  41.708  19.119   5.484
12270W        W77497   5.205   3.900  14.791
12271W        W77498  32.639  21.664  11.627
12272W        W77499   3.645  26.476   3.659
12273W        W77500  15.863  36.149  12.062
12274W        W77501   9.149  30.622  12.932
12275W        W77502   5.358  16.286   2.588
12276W        W77503   5.703   9.959  10.658
12277W        W77504  16.894  24.087  11.609
12278W        W77505  22.504  13.273  13.511
12279W        W77506  31.421  30.332   2.288
12280W        W77507  10.873  27.849  14.592
12281W        W77508  29.967   0.561   0.319
12282W        W77509  11.899   6.236  10.537
12283W        W77510  16.241  28.070  14.943
12284W        W77511  17.774  28.565  13.376
12285W        W77512   7.354  36.018   3.907
12286W        W77513  34.191  24.723  11.213
12287W        W77514  40.901  42.046   0.724
12288W        W77515  15.160  35.990  10.983
12289W        W77516  37.636  14.131   1.914
12290W        W77517  14.356   1.263   0.413
12291W        W77518  29.855   5.530   0.231
12292W        W77519   7.231   5.608   2.705
12293W        W77520  17.037  10.721   0.804
12294W        W77521   6.547  44.446  13.548
12295W        W77522  42.311   6.576   4.545
12296W        W77523  15.349  20.229   4.612
12297W        W77524  39.933  19.636  14.768
12298W        W77525  18.515  44.178  11.570
12299W        W77526  30.586  31.279   4.559
12300W        W77527  18.732  38.684  13.868
12301W        W77528  35.495  37.424  10.677
12302W        W77529   8.762  26.055   4.714
12303W        W77530  34.018  15.731  10.923
12304W        W77531  14.846  26.195   1.165
12305W        W77532  40.002  12.420  14.050
12306W        W77533   8.804  37.325   5.038
12307W        W77534  36.354  13.597   3.756
12308W        W77535  35.284   9.647  11.103
12309W        W77536   9.716  42.754  14.530
12310W        W77537   8.582  17.616   1.195
12311W        W77538  44.537  30.281  10.249
12312W        W77539  40.139  22.213   1.360
12313W        W77540   5.900  41.118  14.489
12314W        W77541  31.952   3.974   3.289
12315W        W77542   1.154  31.411   0.395
12316W        W77543  22.103  20.947  11.532
12317W        W77544  13.287  39.188   0.250
12318W        W77545  36.125  19.581   3.707
12319W        W77546  41.984  41.560   0.002
12320W        W77547  18.883  36.429   3.737
12321W        W77548  23.669   5.280   0.659
12322W        W77549  24.751  30.119   0.888
12323W        W77550  40.617   5.799  12.988
12324W        W77551   6.074  22.761  13.519
12325W        W77552  11.698  15.806   1.580
12326W        W77553  43.996  26.596   3.778
12327W        W77554  16.085   2.128  12.548
12328W        W77555  12.571  37.787  11.362
12329W        W77556   0.451  33.454   3.045
12330W        W77557  26.505  37.056  14.956
12331W        W77558   5.664  33.566   0.846
12332W        W77559  32.289  26.488   0.806
12333W        W77560  17.520  34.819  14.298
12334W        W77561  11.791  34.361  12.600
12335W        W77562  12.806   5.169   2.866
12336W        W77563  12.441  37.478  10.771
12337W        W77564  23.126   0.490  14.837
12338W        W77565  41.088  19.126   3.651
12339W        W77566   6.951  14.272  11.181
12340W        W77567   4.077  39.452  14.879
12341W        W77568   6.102  32.485  11.076
12342W        W77569  19.124  28.045  13.529
12343W        W77570   5.815  20.635  14.269
12344W        W77571  19.661  31.518   3.394
12345W        W77572   1.996  25.282   0.762
12346W        W77573  16.334   4.366   2.245
12347W        W77574  22.722   4.930   4.489
12348W        W77575  34.657   3.346  12.544
12349W        W77576  29.505  41.410   2.621
12350W        W77577  40.909  22.597  14.915
12351W        W77578  40.188   0.418  11.225
12352W        W77579  27.236  36.629  11.907
12353W        W77580  40.740   1.449  11.189
12354W        W77581   8.091  42.567   1.518
12355W        W77582  11.682  30.697   1.832
12356W        W77583   5.282  37.274  14.710
12357W        W77584   6.032  38.008  12.469
12358W        W77585  22.174   3.531  11.573
12359W        W77586  15.502  23.583  12.075
12360W        W77587  42.526  32.833  10.960
12361W        W77588   0.489  10.038  13.559
12362W        W77589  38.293  31.696   4.115
12363W        W77590  37.444  33.417   4.100
12364W        W77591   1.796  19.525  13.529
12365W        W77592  23.842  24.112   2.225
12366W        W77593  33.019  20.536  11.223
12367W        W77594  22.459  29.456   0.538
12368W        W77595   4.771   7.850   0.239
12369W        W77596  27.864   6.713   3.571
12370W        W77597  15.956  36.604  14.788
12371W        W77598   8.791  35.612  10.748
12372W        W77599  44.415  21.201   3.735
12373W        W77600  39.255  17.917   3.706
12374W        W77601  19.545  19.423  14.974
12375W        W77602  23.385  32.458   2.549
12376W        W77603  25.052  15.257  12.645
12377W        W77604  34.041  34.841  14.852
12378W        W77605  16.812  38.350   0.787
12379W        W77606  27.927  34.570  11.537
12380W        W77607  22.703  41.418   1.639
12381W        W77608  25.111  34.821  14.469
12382W        W77609  44.835  41.080  14.793
12383W        W77610  15.323  32.122   4.278
12384W        W77611  21.278  20.619   4.564
12385W        W77612  27.668  14.121  12.508
12386W        W77613  43.899  34.465   0.371
12387W        W77614  41.372  33.486  13.971
12388W        W77615  36.767  13.036  11.240
12389W        W77616  28.416  24.306  13.203
12390W        W77617  17.995  43.214  10.758
12391W        W77618  10.835  13.622   3.501
12392W        W77619  34.153  12.636  14.756
12393W        W77620  38.090  37.184   2.126
12394W        W77621  22.814  21.869  13.535
12395W        W77622  37.016  23.664   3.831
12396W        W77623  14.584  16.604  13.787
12397W        W77624  26.053   0.236   0.827
12398W        W77625  18.108  17.607  13.841
12399W        W77626  28.323  30.495  10.711
12400W        W77627  16.740  16.776  10.679
12401W        W77628  33.031  19.319  10.665
12402W        W77629  20.438   1.020   4.987
12403W        W77630  32.371  13.582  12.898
12404W        W77631   4.975  27.430  12.134
12405W        W77632  16.659  31.218  10.650
12406W        W77633  38.567  40.336   1.620
12407W        W77634  37.205  21.900   3.659
12408W        W77635  26.911  19.286   0.500
12409W        W77636  24.539  34.172   2.467
12410W        W77637  32.894  22.755  12.128
12411W        W77638  10.148  35.901   3.258
12412W        W77639  10.444  43.116  11.385
12413W        W77640  20.732  43.958  14.420
12414W        W77641   7.813  30.132   4.381
12415W        W77642   0.780   2.025   3.644
12416W        W77643  42.777  42.145   0.541
12417W        W77644  23.512  34.967   4.650
12418W        W77645   1.031  28.115   2.239
12419W        W77646  10.170  28.588  12.123
12420W        W77647  32.657   1.627  11.706
12421W        W77648  43.380  41.885  12.526
12422W        W77649  27.675  27.011  11.453
12423W        W77650  10.235   2.677   3.697
12424W        W77651  18.445  35.409   1.924
12425W        W77652   6.673  22.628  12.246
12426W        W77653  29.522  30.937  11.571
12427W        W77654   7.805  31.632  10.856
12428W        W77655  44.922  27.065  14.358
12429W        W77656   7.199  16.895  10.708
12430W        W77657  21.199   8.005   2.324
12431W        W77658  16.095  39.846  12.619
12432W        W77659  31.956  39.584   4.716
12433W        W77660  23.472  22.725  14.087
12434W        W77661  41.518   9.189   3.221
12435W        W77662  12.083  25.198   4.429
12436W        W77663  15.809  23.476   2.738
12437W        W77664   9.733  36.871  13.417
12438W        W77665  10.359  40.685   2.889
12439W        W77666  40.890  36.699   1.013
12440W        W77667  10.138  38.295   2.786
12441W        W77668  10.374   3.945  11.535
12442W        W77669   3.546   7.219  10.853
12443W        W77670  14.285  12.791   3.871
12444W        W77671   2.683   4.097   3.718
12445W        W77672  40.675  36.079   5.051
12446W        W77673   6.655   1.386   3.016
12447W        W77674  28.171  42.917   2.137
12448W        W77675  20.331  14.188   0.328
12449W        W77676  22.625  13.877   0.280
12450W        W77677  20.547  30.712   3.138
12451W        W77678   4.800   8.407   2.796
12452W        W77679  15.843  44.932   1.221
12453W        W77680   2.781  23.818   0.314
12454W        W77681  44.573  10.157  11.282
12455W        W77682  33.543  15.572  10.812
12456W        W77683  32.500  43.282   4.298
12457W        W77684  21.618  20.820  11.601
12458W        W77685   3.844   5.251   3.645
12459W        W77686  34.316  33.887   2.867
12460W        W77687   8.713  17.999  10.497
12461W        W77688  16.617  40.346   1.182
12462W        W77689   4.381  30.394  10.695
12463W        W77690  36.140  17.247  14.292
12464W        W77691  22.576  30.848  11.539
12465W        W77692  41.447   2.565  14.870
12466W        W77693  43.889  44.505  14.109
12467W        W77694   9.371  37.054  10.695
12468W        W77695  29.697   9.910   1.401
12469W        W77696  32.183  39.086   1.551
12470W        W77697   8.401  30.992   5.069
12471W        W77698   5.890  28.653  14.540
12472W        W77699   6.345  44.559  12.069
12473W        W77700  11.937  17.287  10.342
12474W        W77701  27.164   0.466   4.742
12475W        W77702   1.572  23.503   4.884
12476W        W77703  42.964  35.324   1.474
12477W        W77704  42.832   6.505   0.680
12478W        W77705  33.648  19.491   4.627
12479W        W77706  18.493   3.444  13.284
12480W        W77707  32.397  35.900   1.244
12481W        W77708  31.561  35.839   4.537
12482W        W77709   5.350  26.404  11.437
12483W        W77710  13.670  26.156   1.468
12484W        W77711  40.390  17.774  12.639
12485W        W77712  40.230  29.862   1.404
12486W        W77713   0.163  14.083   3.126
12487W        W77714  36.289   4.827  10.489
12488W        W77715   7.608   7.210   3.224
12489W        W77716  17.636  43.458  13.030
12490W        W77717   7.257   4.926   1.071
12491W        W77718  17.185  26.944  14.830
12492W        W77719  24.679  39.834   3.261
12493W        W77720  10.269  17.610   2.836
12494W        W77721  34.500   7.680   0.834
12495W        W77722  17.186   4.943   0.768
12496W        W77723   9.517  12.177   4.975
12497W        W77724  23.990   6.654  10.761
12498W        W77725  37.558  22.300   4.505
12499W        W77726  32.915   5.277   4.654
12500W        W77727  15.847  11.878   2.212
12501W        W77728  43.765  35.036  12.201
12502W        W77729  22.427  37.857  10.734
12503W        W77730  23.485  24.246   0.935
12504W        W77731   1.022  15.267   4.981
12505W        W77732  35.805   3.423  14.336
12506W        W77733  36.999  19.030  10.608
12507W        W77734  12.667  44.772  10.874
12508W        W77735   1.750   3.159  13.377
12509W        W77736   0.394  32.505  12.371
12510W        W77737  38.450  34.327  14.467
12511W        W77738  14.032  22.791  11.953
12512W        W77739   2.998  10.347  14.966
12513W        W77740  14.770   6.951   1.961
12514W        W77741   2.264   6.720   2.690
12515W        W77742  44.295  11.813   0.201
12516W        W77743  23.629  17.790  11.932
12517W        W77744   2.207  14.553  12.964
12518W        W77745  17.080   8.262   4.595
12519W        W77746  35.251  21.786  11.179
12520W        W77747  21.734  26.939  13.241
12521W        W77748  39.028  30.519   1.800
12522W        W77749  32.609  32.820  14.837
12523W        W77750  32.770   9.873  11.423
12524W        W77751  35.854  44.423  14.873
12525W        W77752   0.618   7.333  14.187
12526W        W77753  43.155   4.524   1.525
12527W        W77754   5.300  32.073  12.257
12528W        W77755  26.943  42.953  13.281
12529W        W77756  21.628  23.427  13.767
12530W        W77757   4.552  35.837   2.878
12531W        W77758  14.499  43.276  13.479
12532W        W77759  20.993  35.400   1.743
12533W        W77760  34.130  37.554  10.316
12534W        W77761   1.010  17.153  11.499
12535W        W77762   5.407  39.619   2.198
12536W        W77763  35.020  37.549   4.518
12537W        W77764  30.924  22.207   4.067
12538W        W77765   9.699  17.201  14.110
12539W        W77766   9.603  36.595  12.622
12540W        W77767  23.716  34.255   3.594
12541W        W77768  37.428  11.307   4.171
12542W        W77769  30.910   3.849   2.712
12543W        W77770  33.041  20.195   1.971
12544W        W77771   6.406   1.451  11.667
12545W        W77772  25.089  13.194   0.270
12546W        W77773  14.938  44.412  10.640
12547W        W77774  12.150   3.906   3.835
12548W        W77775  11.679  22.698   0.193
12549W        W77776  29.077  34.389  13.436
12550W        W77777  13.375   7.496  11.837
12551W        W77778  27.209   2.133  12.858
12552W        W77779  25.867  25.859  11.231
12553W        W77780   2.542  44.336   2.704
12554W        W77781  24.529  43.817   2.786
12555W        W77782  29.714  19.178   0.315
12556W        W77783  41.461  28.059  10.734
12557W        W77784  41.064  19.164  12.867
12558W        W77785   7.385   2.233   5.022
12559W        W77786  23.350  15.075  14.564
12560W        W77787   5.792  24.007   4.285
12561W        W77788  32.033  16.316  13.377
12562W        W77789   3.119   4.426   2.769
12563W        W77790  18.845  41.906  12.062
12564W        W77791   0.293  14.835   2.934
12565W        W77792  29.922  11.762  10.029
12566W        W77793  41.344  29.149  11.725
12567W        W77794  25.069  29.931   2.178
12568W        W77795   2.956  28.647   3.134
12569W        W77796  37.539  12.621  11.647
12570W        W77797   8.911  35.475  12.595
12571W        W77798  23.004  15.047   4.230
12572W        W77799  15.743   9.840   1.199
12573W        W77800  38.034  29.935   0.898
12574W        W77801  19.335  17.080   3.628
12575W        W77802  10.368   8.783  11.707
12576W        W77803  19.794   7.282  14.947
12577W        W77804   7.333   7.132   4.571
12578W        W77805  31.715   0.921  13.113
12579W        W77806  44.294  14.014   2.275
12580W        W77807  18.784  36.278  12.513
12581W        W77808  13.342  14.670   1.459
12582W        W77809  31.856  44.498  11.104
12583W        W77810  41.425  37.383   1.797
12584W        W77811  20.852  15.774   3.249
12585W        W77812  43.004  18.799   2.064
12586W        W77813  24.204  39.884  11.541
12587W        W77814  28.420  26.161  12.442
12588W        W77815  17.954  42.717  10.682
12589W        W77816  34.857  33.833  11.137
12590W        W77817  27.646  29.570   4.693
12591W        W77818  42.875  12.684   2.968
12592W        W77819  20.609  27.752  14.899
12593W        W77820   2.896  21.902   2.799
12594W        W77821   0.241  34.986  11.501
12595W        W77822  36.424   9.915  14.440
12596W        W77823  37.656  15.238  11.998
12597W        W77824   4.486  22.487   3.366
12598W        W77825  21.567  33.396  11.473
12599W        W77826   0.260  23.430  14.027
12600W        W77827   3.449   1.903   3.373
12601W        W77828  42.423  39.036   3.809
12602W        W77829  29.103  23.906  12.003
12603W        W77830  23.517  12.419  12.203
12604W        W77831   9.365  12.784  13.815
12605W        W77832  10.331  29.432   2.059
12606W        W77833  33.583   5.419  12.594
12607W        W77834  20.716  12.646   3.648
12608W        W77835  40.928  19.149   4.159
12609W        W77836  33.004  43.267  10.620
12610W        W77837   5.667  44.700  11.539
12611W        W77838  42.173  38.088   4.068
12612W        W77839   6.279  23.222  14.928
12613W        W77840  42.696  31.044  12.039
12614W        W77841   5.269   7.230  11.960
12615W        W77842   0.949   3.206   4.928
12616W        W77843  32.302  30.289   2.174
12617W        W77844  16.625   0.807  10.670
12618W        W77845  32.433  34.326  13.137
12619W        W77846  28.073   2.434   5.049
12620W        W77847  22.454  33.602  11.595
12621W        W77848   4.239  12.142  10.723
12622W        W77849   9.818   8.121   2.928
12623W        W77850  20.303   9.552  11.193
12624W        W77851   4.395  24.392   2.284
12625W        W77852  38.582   4.162   2.788
12626W        W77853  11.259  15.756   4.263
12627W        W77854   8.655   8.132   0.106
12628W        W77855  34.300  35.014   1.433
12629W        W77856  23.452  43.814   3.688
12630W        W77857   4.403  36.322   4.778
12631W        W77858   2.244  43.212   1.959
12632W        W77859  26.937  24.229   3.602
12633W        W77860  25.144  16.815   1.474
12634W        W77861  37.063  42.384  12.965
12635W        W77862  12.139  35.995  13.074
12636W        W77863   0.703  22.820   1.852
12637W        W77864  26.557  13.841  10.736
12638W        W77865  19.168  29.705  11.991
12639W        W77866  20.021  17.643  11.992
12640W        W77867  26.599  13.150  11.660
12641W        W77868  13.872  18.615  12.846
12642W        W77869  23.624  38.624   2.462
12643W        W77870  33.592  32.778   4.202
12644W        W77871  19.588  24.712   4.658
12645W        W77872   6.361   8.366   1.110
12646W        W77873   3.621   3.481  12.121
12647W        W77874  32.116  10.189   0.813
12648W        W77875  31.636  28.263   0.823
12649W        W77876  29.819   6.303   4.312
12650W        W77877  10.348  36.060  10.679
12651W        W77878  43.422  14.005  11.578
12652W        W77879  12.693   2.718  11.602
12653W        W77880  19.708  34.456   1.347
12654W        W77881   8.254  41.831  12.887
12655W        W77882  30.549  25.095   0.263
12656W        W77883  35.048  23.755   3.736
12657W        W77884   1.866  21.212   2.416
12658W        W77885  25.288  40.486  10.971
12659W        W77886  10.857  40.774   3.630
12660W        W77887  33.875  18.599  14.586
12661W        W77888  33.979  22.858  10.273
12662W        W77889  23.981  44.550  12.379
12663W        W77890  33.828  20.679   1.000
12664W        W77891   0.946   7.396   4.574
12665W        W77892   4.204  20.314  14.410
12666W        W77893   2.346   8.740  11.705
12667W        W77894  23.845  24.993   2.716
12668W        W77895  16.863  27.175   2.689
12669W        W77896  22.199  44.934  10.333
12670W        W77897  23.872  18.642   1.829
12671W        W77898  28.511  34.331  14.701
12672W        W77899  20.931  44.423   4.526
12673W        W77900  26.477  41.603   2.907
12674W        W77901  18.331   2.890  12.543
12675W        W77902  19.260   4.354   3.064
12676W        W77903  23.137  41.020   0.366
12677W        W77904   4.606   8.233  14.912
12678W        W77905  13.211  26.686  11.641
12679W        W77906  17.679   3.144  11.208
12680W        W77907   3.837  29.018  12.962
12681W        W77908  12.673   2.596  13.127
12682W        W77909   9.487   7.120  11.246
12683W        W77910  22.156   4.475  14.242
12684W        W77911  16.750  37.116  13.255
12685W        W77912  13.834  44.239   4.144
12686W        W77913  15.877  35.527  11.066
12687W        W77914  27.670   3.854   4.176
12688W        W77915  28.565  33.427  14.796
12689W        W77916  19.499   2.758   1.767
12690W        W77917  40.076   9.220   3.017
12691W        W77918   7.845  44.438   0.995
12692W        W77919  17.300  10.785   3.574
12693W        W77920  20.376  30.664   3.627
12694W        W77921  28.136   0.748   4.562
12695W        W77922  38.834  15.054  11.460
12696W        W77923  15.624   1.470  14.203
12697W        W77924  27.700  24.245  11.965
12698W        W77925   5.472  44.926   3.287
12699W        W77926  30.751  34.163   3.292
12700W        W77927  15.622  41.212   4.546
12701W        W77928   5.232  25.480  11.173
12702W        W77929  35.928  28.081   0.026
12703W        W77930  25.576   9.103  13.706
12704W        W77931   8.155  18.765   2.030
12705W        W77932   7.802  38.818  11.631
12706W        W77933  14.193   2.701  13.736
12707W        W77934   4.080  44.842   2.387
12708W        W77935  42.962   7.419  11.193
12709W        W77936  10.866  23.270  14.859
12710W        W77937  23.158   0.473   2.669
12711W        W77938   1.820  12.533  13.290
12712W        W77939  34.452  37.259   3.147
12713W        W77940   6.724  19.601  14.680
12714W        W77941  13.895  26.114   1.008
12715W        W77942  43.073  32.520  12.832
12716W        W77943   1.719  32.454   2.595
12717W        W77944  10.981  43.193   4.917
12718W        W77945  44.389   8.393   4.806
12719W        W77946  33.120  20.613   4.748
12720W        W77947   4.156   7.776  12.453
12721W        W77948  21.038   9.938   2.389
12722W        W77949  11.258  17.755  12.053
12723W        W77950   5.999  24.170   0.865
12724W        W77951   7.419   9.879  11.157
12725W        W77952  13.070  11.644   3.704
12726W        W77953   8.774  16.574   4.124
12727W        W77954   3.974  41.239  11.137
12728W        W77955   8.562  23.713   1.629
12729W        W77956  29.150   6.852   4.545
12730W        W77957  20.757  17.156   4.124
12731W        W77958  38.560  26.424   2.100
12732W        W77959  20.565  44.075  13.344
12733W        W77960   4.697  34.656  14.439
12734W        W77961   6.389  38.609   4.162
12735W        W77962  20.978  43.389   4.612
12736W        W77963  30.451  16.418   2.204
12737W        W77964   2.913  19.581  12.939
12738W        W77965  30.373  43.226  10.759
12739W        W77966  20.221  41.051  10.755
12740W        W77967  10.842  19.636  14.101
12741W        W77968  33.094  14.864   0.019
12742W        W77969  27.399  35.986   5.132
12743W        W77970  27.010   8.470   2.161
12744W        W77971  19.532   8.865   9.894
12745W        W77972   1.772  34.953   1.846
12746W        W77973   6.888   2.583  11.422
12747W        W77974   2.948  43.808  14.671
12748W        W77975  30.197  16.129  13.456
12749W        W77976  40.051   3.934   3.597
12750W        W77977   3.769  25.523   2.164
12751W        W77978   0.054  24.959  12.884
12752W        W77979  21.994   5.190  12.434
12753W        W77980  26.478  44.852  10.879
12754W        W77981  32.864  28.874  13.384
12755W        W77982  29.426  17.739  11.667
12756W        W77983  31.641   2.752  13.759
12757W        W77984   9.861   2.369  14.444
12758W        W77985  25.614  13.536   1.358
12759W        W77986   3.998  39.344  12.389
12760W        W77987  44.761  32.005   3.159
12761W        W77988  29.088   2.729  14.787
12762W        W77989   1.843  36.013   4.183
12763W        W77990  12.883   4.702   0.819
12764W        W77991  12.833  38.902   4.041
12765W        W77992  18.260  18.792   2.132
12766W        W77993  14.951  18.743   1.711
12767W        W77994  39.658  27.517   1.886
12768W        W77995  11.285  35.428  11.093
12769W        W77996   2.591  10.295  14.365
12770W        W77997   9.805  21.243   4.584
12771W        W77998  20.867  14.900  14.341
12772W        W77999  34.396  18.886  13.896
12773W        W78000  24.997   6.368   5.310
12774W        W78001  23.015  35.298  13.315
12775W        W78002  33.981  16.665   4.760
12776W        W78003  24.294  20.121  13.778
12777W        W78004  20.730  14.727   0.513
12778W        W78005  15.670  39.092   3.196
12779W        W78006  15.875   6.343   0.605
12780W        W78007  30.865  19.523  14.797
12781W        W78008  17.342  27.425  12.389
12782W        W78009  29.685  36.561   1.377
12783W        W78010  10.849  40.045  10.927
12784W        W78011  43.950   7.852  12.573
12785W        W78012  33.366   6.381   0.263
12786W        W78013   9.720  36.052  10.288
12787W        W78014   9.709  30.944   3.232
12788W        W78015  13.246  42.269   2.707
12789W        W78016  29.568  15.096  13.974
12790W        W78017  17.262  14.702   0.765
12791W        W78018  37.508  22.077  10.990
12792W        W78019  36.830   0.987  13.883
12793W        W78020   3.579  38.429  13.891
12794W        W78021   8.639   6.230   2.780
12795W        W78022   2.764  31.289  11.215
12796W        W78023   5.674   8.558  13.712
12797W        W78024  17.902  22.070   4.605
12798W        W78025   0.817  32.586   0.903
12799W        W78026  15.572   6.869   3.097
12800W        W78027  32.106  10.697  13.560
12801W        W78028  30.440   9.997   4.545
12802W        W78029   4.455   9.703   2.654
12803W        W78030  36.075   8.144   1.449
12804W        W78031  15.230  23.883   1.187
12805W        W78032  38.759  23.519  12.597
12806W        W78033  27.991  10.765   2.339
12807W        W78034  33.991  41.368  14.237
12808W        W78035   0.179  32.476  11.908
12809W        W78036  10.686  10.060   2.406
12810W        W78037  25.051  22.670   2.897
12811W        W78038  14.541  43.749   4.219
12812W        W78039   1.727  43.906   1.290
12813W        W78040   3.580   4.067  11.212
12814W        W78041  27.589  17.399   3.635
12815W        W78042  44.065  33.155  11.098
12816W        W78043  38.332  29.990   2.500
12817W        W78044  10.031  31.819   4.916
12818W        W78045  32.972   9.426  13.870
12819W        W78046  13.193  17.302   1.164
12820W        W78047  32.600   7.245   5.165
12821W        W78048   8.265  19.668  10.761
12822W        W78049  27.675  35.097  12.710
12823W        W78050  40.512   1.445   0.025
12824W        W78051  29.120   9.089   3.232
12825W        W78052   4.777  19.504   0.299
12826W        W78053   1.514  11.600  10.501
12827W        W78054  12.801   5.167  10.493
12828W        W78055  33.275  35.880   0.684
12829W        W78056  35.336  16.403  11.548
12830W        W78057  10.397  20.849   3.134
12831W        W78058  20.293  31.156  13.014
12832W        W78059   7.597  23.922  12.561
12833W        W78060  30.045   8.846   3.269
12834W        W78061   1.666  31.574   0.398
12835W        W78062  12.298  36.864  14.262
12836W        W78063  33.157  37.875   1.837
12837W        W78064  24.870  40.474   2.839
12838W        W78065  20.786   7.672   2.418
12839W        W78066  24.408  19.712   2.374
12840W        W78067  19.149  15.305  12.141
12841W        W78068  34.273  13.854  10.674
12842W        W78069  12.826  32.475  13.318
12843W        W78070  41.800  40.656  14.994
12844W        W78071  26.472  27.604   3.220
12845W        W78072  20.156  43.831   1.618
12846W        W78073  37.055  22.094   2.432
12847W        W78074   3.466  30.663   3.709
12848W        W78075   7.810  41.476  13.413
12849W        W78076  44.724   3.912  14.911
12850W        W78077  14.155  36.996   4.406
12851W        W78078  40.757   8.162  12.645
12852W        W78079   0.287  43.609   9.615
12853W        W78080   2.483  43.457   2.896
12854W        W78081  36.539   4.290  11.898
12855W        W78082  14.401  32.124  12.418
12856W        W78083  26.410  40.287   2.367
12857W        W78084  42.400   4.435  11.564
12858W        W78085  32.519  36.473   3.187
12859W        W78086  31.457  13.089  11.348
12860W        W78087  12.108   8.410  12.442
12861W        W78088   7.790  27.220   4.680
12862W        W78089   9.315  26.674  10.428
12863W        W78090  38.166  13.849   0.272
12864W        W78091   5.352  35.069  13.426
12865W        W78092  18.654  37.226  10.615
12866W        W78093  28.170  33.174  11.502
12867W        W78094  20.399  41.281  13.455
12868W        W78095  17.212  19.673   2.933
12869W        W78096  24.211   6.059   0.360
12870W        W78097  25.688  25.890   4.368
12871W        W78098  18.378   0.247  14.228
12872W        W78099  17.828  41.977  11.066
12873W        W78100  40.889  29.800  14.303
12874W        W78101  21.024  30.065   2.268
12875W        W78102  22.898  20.034  10.703
12876W        W78103  33.464  15.032   4.018
12877W        W78104  33.449   7.089   4.051
12878W        W78105  41.498  20.315   4.185
12879W        W78106   9.770   6.740   2.106
12880W        W78107   2.475  31.107  10.649
12881W        W78108  10.422  22.076  11.443
12882W        W78109  21.429  25.569   0.334
12883W        W78110   1.157  38.033   2.667
12884W        W78111  36.007  26.406  13.892
12885W        W78112  26.199  32.826   4.112
12886W        W78113  13.753  28.621  11.673
12887W        W78114  25.551   5.747   4.107
12888W        W78115  40.061  20.507  12.938
12889W        W78116  37.356  40.827   0.841
12890W        W78117  32.851  35.998  12.888
12891W        W78118  42.412  28.237  12.502
12892W        W78119   0.872   5.261   3.827
12893W        W78120  24.255  44.189   4.518
12894W        W78121  16.385  16.238  11.861
12895W        W78122  28.186  29.747  14.334
12896W        W78123   1.489  28.629   1.832
12897W        W78124  28.191  22.027   3.075
12898W        W78125  35.913  22.665   1.415
12899W        W78126  11.673  34.965   2.180
12900W        W78127  12.290   6.305   2.370
12901W        W78128  32.242  30.141  13.510
12902W        W78129  21.025  36.001  14.841
12903W        W78130  32.687   0.957   0.924
12904W        W78131   1.927  25.817   3.583
12905W        W78132  37.894  25.131   4.683
12906W        W78133   5.607  29.073  13.317
12907W        W78134  43.744  10.432  11.067
12908W        W78135   5.918  24.098  10.418
12909W        W78136  35.510   5.363  12.574
12910W        W78137  21.446  29.199   3.428
12911W        W78138  26.156  26.695   1.417
12912W        W78139  20.266  41.191   1.796
12913W        W78140  42.897   0.248   4.569
12914W        W78141  19.042  38.860  13.501
12915W        W78142  13.292  27.980  10.775
12916W        W78143  36.914  41.137   0.940
12917W        W78144  35.487  18.740   4.534
12918W        W78145  22.178  21.548   4.191
12919W        W78146  25.563  31.415   2.757
12920W        W78147  28.507  33.541  14.304
12921W        W78148  37.453  18.649   2.639
12922W        W78149  28.976  35.817  14.472
12923W        W78150  44.671   3.512   0.710
12924W        W78151  21.708  14.993   2.704
12925W        W78152  32.739  44.783  10.685
12926W        W78153  11.825  26.253   2.824
12927W        W78154  21.048  44.770   0.350
12928W        W78155  35.061  26.203  14.101
12929W        W78156  17.949  43.722  12.115
12930W        W78157  11.068  30.045  13.366
12931W        W78158  21.067  36.947  10.659
12932W        W78159  38.012  40.109   4.927
12933W        W78160  29.255  17.218   0.983
12934W        W78161   6.557  10.340   3.534
12935W        W78162  42.704   4.473   0.832
12936W        W78163  26.651  17.027   1.618
12937W        W78164  32.858   3.261  14.923
12938W        W78165  14.875  14.170  14.609
12939W        W78166  43.088   5.284   1.394
12940W        W78167  33.413   4.981   0.079
12941W        W78168   8.401  17.702  13.357
12942W        W78169  18.496   4.186   2.713
12943W        W78170  39.827  42.279  13.664
12944W        W78171  33.416  29.435  14.737
12945W        W78172   4.244  27.813  13.745
12946W        W78173  20.427  19.166  10.795
12947W        W78174  13.641  17.761  12.480
12948W        W78175  13.150   8.741   1.283
12949W        W78176  19.217  19.716   0.974
12950W        W78177  36.067   4.760  14.456
12951W        W78178  18.541  19.773   2.368
12952W        W78179  36.536   0.460  12.563
12953W        W78180  19.485  37.399  11.533
12954W        W78181   2.691  21.063   0.865
12955W        W78182  30.395  27.968  13.953
12956W        W78183  29.465  26.082   1.742
12957W        W78184  18.720  41.397  12.089
12958W        W78185  12.196  44.810  12.210
12959W        W78186  37.584   5.668   2.876
12960W        W78187  40.488   0.229  12.885
12961W        W78188  28.970   8.954  11.221
12962W        W78189  20.752  36.516   1.170
12963W        W78190  27.579  32.571  14.134
12964W        W78191  24.285  26.281   1.147
12965W        W78192  15.748  30.544  14.852
12966W        W78193  12.165  30.186  14.912
12967W        W78194  35.034  41.363   1.246
12968W        W78195   4.699  12.123  13.362
12969W        W78196  33.852  21.517  11.043
12970W        W78197   2.043  23.052  13.564
12971W        W78198  29.203  27.093   0.860
12972W        W78199   6.863  22.212  14.647
12973W        W78200  39.777  17.279   3.630
12974W        W78201   9.449  40.283   3.301
12975W        W78202  10.635  20.530   2.800
12976W        W78203  24.415  40.286   0.880
12977W        W78204  40.270  27.754   4.303
12978W        W78205  38.327  17.844   1.572
12979W        W78206   4.840  15.119   3.909
12980W        W78207   7.874   2.673   0.673
12981W        W78208   9.952  12.164  14.257
12982W        W78209   8.317  14.246   1.657
12983W        W78210   0.244  18.850  11.688
12984W        W78211   4.467  11.590  10.961
12985W        W78212  28.694  14.595   3.026
12986W        W78213   1.868   4.363   0.468
12987W        W78214  29.881  12.194  11.635
12988W        W78215  18.764   1.280   4.053
12989W        W78216  23.646  41.161   1.204
12990W        W78217  36.967  17.189  12.938
12991W        W78218   2.522  31.518  14.040
12992W        W78219  28.563  39.375   1.317
12993W        W78220  27.540  36.520   0.237
12994W        W78221  12.715  24.556  12.079
12995W        W78222  42.405  14.986  13.941
12996W        W78223  44.709  29.105   1.670
12997W        W78224  37.072   9.803   2.766
12998W        W78225   7.619  40.034  13.505
12999W        W78226  17.250  33.817  12.418
13000W        W78227  37.237  14.749   4.965
13001W        W78228  29.331   2.392  12.948
13002W        W78229   7.446   7.148  14.279
13003W        W78230  31.934  25.539   5.183
13004W        W78231  43.462  26.193  13.122
13005W        W78232  38.910  23.744  14.495
13006W        W78233   0.120  32.388   0.369
13007W        W78234  35.522   9.617   4.302
13008W        W78235  35.054  20.765  13.444
13009W        W78236  20.594   6.684  12.032
13010W        W78237  21.055  22.576   3.065
13011W        W78238  27.170  16.027  13.818
13012W        W78239  31.462   4.919   1.692
13013W        W78240  20.173  28.412   3.580
13014W        W78241  42.469  20.305   1.435
13015W        W78242  40.345  25.267   3.197
13016W        W78243  36.874  25.628  13.501
13017W        W78244  27.092  37.542  13.889
13018W        W78245   1.439  41.954  12.132
13019W        W78246  10.336  16.314   3.286
13020W        W78247  24.027  37.764   4.843
13021W        W78248   8.816  42.952  11.977
13022W        W78249  12.665  19.765   1.910
13023W        W78250  39.252  41.083   2.704
13024W        W78251  43.820  36.105  14.416
13025W        W78252   6.406   8.426  14.802
13026W        W78253  23.721  24.644  12.508
13027W        W78254  44.830   9.795   0.196
13028W        W78255  31.286  33.410   1.803
13029W        W78256  16.215  37.456   2.209
13030W        W78257   1.002  19.668   3.609
13031W        W78258  10.286  21.819   1.628
13032W        W78259  27.935  37.523  12.411
13033W        W78260  44.547  26.197   1.905
13034W        W78261  25.476  38.985   2.666
13035W        W78262  44.850   6.991   4.259
13036W        W78263  42.873  34.071  10.919
13037W        W78264   2.263  25.906   2.380
13038W        W78265   1.830   0.652   0.703
13039W        W78266   6.208   0.193  12.922
13040W        W78267  21.257   0.835   1.788
13041W        W78268   9.709  39.025   2.643
13042W        W78269  33.973  38.371  10.644
13043W        W78270  39.398   9.416   0.835
13044W        W78271  36.129   0.722  11.210
13045W        W78272  18.680  11.853  12.924
13046W        W78273  22.114  44.362   2.754
13047W        W78274  21.207  15.084  10.418
13048W        W78275   6.843  19.480  13.419
13049W        W78276   5.934  10.347  13.457
13050W        W78277   6.381  39.429  11.441
13051W        W78278  31.122  35.286   0.517
13052W        W78279  34.068  40.281  10.567
13053W        W78280  23.402  25.153  13.552
13054W        W78281  17.600   5.323  11.974
13055W        W78282   4.775  25.362   3.015
13056W        W78283   5.352  27.108  10.745
13057W        W78284  10.982  21.453   4.105
13058W        W78285  21.229  35.035   5.088
13059W        W78286  37.326   6.644   3.579
13060W        W78287  43.040  21.396   3.691
13061W        W78288  24.908  15.334   4.499
13062W        W78289  12.743  42.496  11.616
13063W        W78290  12.601  22.174  12.584
13064W        W78291  36.606  44.349   1.753
13065W        W78292   2.475  37.363   4.546
13066W        W78293   5.092  31.278   1.739
13067W        W78294  11.747   2.900  12.012
13068W        W78295  17.802  11.240   0.708
13069W        W78296  42.122  18.746   5.523
13070W        W78297  11.617  38.664  12.092
13071W        W78298  18.298  25.318  13.561
13072W        W78299  41.897   0.796   2.709
13073W        W78300   7.309  35.797  11.561
13074W        W78301  38.925  39.867   5.037
13075W        W78302  26.422  19.290   2.651
13076W        W78303  12.080  41.393  14.370
13077W        W78304   8.503  34.333   2.606
13078W        W78305   5.863   6.684   3.578
13079W        W78306  30.045  43.739  13.892
13080W        W78307   9.136  40.700   3.392
13081W        W78308   4.274  15.225   1.739
13082W        W78309  43.398  43.498  11.992
13083W        W78310  24.235  23.881  13.733
13084W        W78311  40.978  40.438  10.740
13085W        W78312  21.579   2.533  11.944
13086W        W78313  41.775  42.984  11.569
13087W        W78314  12.742  29.005   3.674
13088W        W78315  22.642  34.819  11.190
13089W        W78316  23.238  20.824  12.093
13090W        W78317   2.807  33.028  10.617
13091W        W78318  11.898  32.980   0.591
13092W        W78319  24.540   8.796   4.719
13093W        W78320  38.467   2.243   1.864
13094W        W78321  21.230  22.181  10.461
13095W        W78322  41.465  19.762   2.471
13096W        W78323  30.376  10.197   2.275
13097W        W78324  40.693  11.065  12.571
13098W        W78325  43.055   6.501  13.706
13099W        W78326  23.510  18.141  11.559
13100W        W78327  42.412  18.586   4.559
13101W        W78328  43.970   1.045  10.376
13102W        W78329  34.620  27.109   3.298
13103W        W78330  27.421  28.776   0.826
13104W        W78331   0.031  12.697  11.613
13105W        W78332  35.441  38.257  13.068
13106W        W78333  29.670  38.947  11.033
13107W        W78334  24.268   3.977   2.157
13108W        W78335  19.199  19.676   1.484
13109W        W78336  39.512  33.466  10.686
13110W        W78337  44.123  16.435   3.240
13111W        W78338  16.269  20.661  14.016
13112W        W78339  24.537   7.252  14.847
13113W        W78340  36.463  17.092  13.891
13114W        W78341   4.220  19.556  13.990
13115W        W78342  24.978   8.795   3.661
13116W        W78343  27.997  25.398   4.634
13117W        W78344  25.964  42.267   3.203
13118W        W78345   1.410  14.947   4.241
13119W        W78346  23.796  44.802   2.253
13120W        W78347  21.417  15.628  11.109
13121W        W78348  31.372   0.500   0.810
13122W        W78349  43.558   8.259   3.139
13123W        W78350   2.956  13.798  11.612
13124W        W78351  27.056  26.025  13.012
13125W        W78352  20.034  25.539   2.774
13126W        W78353   5.608   1.400  10.829
13127W        W78354  24.274  32.981  14.399
13128W        W78355  16.961  42.322   2.641
13129W        W78356  18.139  15.869   1.793
13130W        W78357  41.379  14.455   3.132
13131W        W78358   7.683  12.641   0.461
13132W        W78359  40.555  26.603   1.257
13133W        W78360  15.025  37.352   3.619
13134W        W78361  20.530  30.561   0.067
13135W        W78362  29.375  18.718   4.476
13136W        W78363   9.613  27.365   2.340
13137W        W78364  27.720   0.029   1.363
13138W        W78365  11.103  41.756  13.451
13139W        W78366  26.622  35.268   4.588
13140W        W78367   2.641   8.817  12.615
13141W        W78368  32.600  13.653   1.329
13142W        W78369  18.962  23.564   4.305
13143W        W78370  31.873  42.993  13.908
13144W        W78371  40.007  40.756   3.226
13145W        W78372  23.730   0.298   0.425
13146W        W78373   4.678  31.609   2.614
13147W        W78374  34.064  25.717  10.512
13148W        W78375  28.736   7.171  13.998
13149W        W78376  27.012  27.079   4.711
13150W        W78377   7.762   3.707   4.058
13151W        W78378  43.373  32.667  11.664
13152W        W78379  22.637  34.570   1.403
13153W        W78380  10.357  40.954  12.947
13154W        W78381  38.090  10.735  13.965
13155W        W78382   9.438  28.125  11.463
13156W        W78383  31.927  17.037   0.544
13157W        W78384   2.944   9.290  12.633
13158W        W78385  10.368  42.979   0.942
13159W        W78386   1.242  43.842   2.264
13160W        W78387   0.831  13.890  12.039
13161W        W78388  34.556  39.898   3.864
13162W        W78389  36.517   6.417   2.162
13163W        W78390  40.763  13.114  11.169
13164W        W78391  13.494   6.803  11.684
13165W        W78392  34.876  11.696   1.244
13166W        W78393   3.181  43.734   3.102
13167W        W78394   4.855  14.333   2.389
13168W        W78395   8.241  11.537   1.208
13169W        W78396  20.815  26.963   0.476
13170W        W78397  26.902   7.745   0.760
13171W        W78398  23.119   1.895  12.863
13172W        W78399   7.893  34.661  13.866
13173W        W78400  27.038  25.328   1.255
13174W        W78401   2.055  12.675   2.888
13175W        W78402   1.629  17.798  12.092
13176W        W78403  23.065  13.765  14.033
13177W        W78404  41.753  40.927  14.545
13178W        W78405  40.283  17.987   0.254
13179W        W78406  15.305  41.798   1.823
13180W        W78407  34.892   7.871   1.793
13181W        W78408  10.692  10.562  14.926
13182W        W78409  28.155  39.534  12.158
13183W        W78410   4.439  18.503   0.438
13184W        W78411   7.407  28.952   0.500
13185W        W78412  29.521   6.727  14.221
13186W        W78413  34.130   3.496   4.174
13187W        W78414  39.543  21.632   4.483
13188W        W78415  22.450  18.292  13.733
13189W        W78416  13.277  31.346   1.684
13190W        W78417  16.785  10.034   4.202
13191W        W78418   3.008  35.568  14.000
13192W        W78419  11.665  40.387   1.085
13193W        W78420  13.173  42.864   0.710
13194W        W78421  31.648   5.772  11.523
13195W        W78422   6.378  13.610  10.948
13196W        W78423  12.650  20.026   4.074
13197W        W78424   7.385  33.632   3.497
13198W        W78425  41.999   4.763  11.615
13199W        W78426  32.719  10.723   2.568
13200W        W78427  20.452  21.393   3.127
13201W        W78428  27.074  11.158  14.757
13202W        W78429  14.078  44.243  11.164
13203W        W78430  16.215  20.585   1.492
13204W        W78431  32.661   9.229  11.542
13205W        W78432  22.056   2.309   0.232
13206W        W78433  35.527  24.709  12.240
13207W        W78434   1.429   0.480   0.997
13208W        W78435  35.900  36.005   4.041
13209W        W78436  15.124  35.261  14.298
13210W        W78437   3.421  43.324  12.717
13211W        W78438  28.951   9.288  14.491
13212W        W78439   2.010  25.079   3.160
13213W        W78440   8.706  17.889   4.595
13214W        W78441   3.303  23.138   4.287
13215W        W78442   2.423  36.577  14.790
13216W        W78443  23.062  28.541   1.374
13217W        W78444  21.435  23.612   3.880
13218W        W78445  35.494  38.325   1.421
13219W        W78446  33.382  44.503  14.341
13220W        W78447   9.187  25.371  13.978
13221W        W78448  29.863  43.797  14.807
13222W        W78449  16.333   6.111   1.942
13223W        W78450  22.212  21.307   3.593
13224W        W78451  25.465  38.705   3.730
13225W        W78452   8.849  44.525   3.212
13226W        W78453  17.925  27.904  11.877
13227W        W78454   1.933   4.303   1.873
13228W        W78455  27.397  22.856   0.227
13229W        W78456  32.347  39.253  13.707
13230W        W78457   4.258   2.736  10.362
13231W        W78458  15.202  11.671  11.695
13232W        W78459  30.044   9.372   3.443
13233W        W78460   5.408  32.982   4.327
13234W        W78461  14.683  13.243   2.423
13235W        W78462  16.932   7.724   4.552
13236W        W78463  41.955  15.748   2.414
13237W        W78464  34.331  27.117  13.319
13238W        W78465  26.993  16.714  10.582
13239W        W78466  17.216   3.022  12.090
13240W        W78467  39.108  30.163   4.499
13241W        W78468  31.004   5.626  14.575
13242W        W78469  17.886  33.131   0.750
13243W        W78470  42.230  38.514   3.173
13244W        W78471  34.536  25.007  10.970
13245W        W78472  28.450  21.783   2.667
13246W        W78473   3.289  35.375   3.221
13247W        W78474  13.839  25.694   1.882
13248W        W78475  28.551   7.275   3.953
13249W        W78476  16.525   4.283  12.963
13250W        W78477  41.969  28.037  11.653
13251W        W78478  14.494  28.660  14.507
13252W        W78479  19.153  10.245   2.773
13253W        W78480  37.298  37.568   3.231
13254W        W78481  44.088  30.349   2.665
13255W        W78482  43.978  20.455  11.514
13256W        W78483   0.316  11.248   0.220
13257W        W78484  41.769  33.125  13.890
13258W        W78485   6.444  33.984   2.439
13259W        W78486  44.207   6.129   5.142
13260W        W78487  12.601  19.325   0.295
13261W        W78488   0.167  36.160  11.149
13262W        W78489  21.493  13.266  13.000
13263W        W78490  42.756  31.546  11.039
13264W        W78491  29.258  37.645   0.839
13265W        W78492   3.782  23.585   0.560
13266W        W78493  30.788  14.907   5.024
13267W        W78494  11.404  27.180  12.902
13268W        W78495  21.772  24.700   1.729
13269W        W78496  33.179  20.114  13.143
13270W        W78497  14.252  16.724   4.406
13271W        W78498   7.409  39.926  12.051
13272W        W78499  41.357   3.205  11.200
13273W        W78500   4.950  16.565   0.091
13274W        W78501  43.850  23.234   4.677
13275W        W78502  21.442  17.606   2.411
13276W        W78503   0.453  38.668  14.363
13277W        W78504  32.720  25.864   1.326
13278W        W78505   9.699  36.103  12.455
13279W        W78506  32.012  33.324  13.708
13280W        W78507  14.797  18.776  13.940
13281W        W78508  24.490   6.720   4.544
13282W        W78509  16.076   4.812   2.269
13283W        W78510  41.357  11.742   2.177
13284W        W78511  31.043  29.448   3.149
13285W        W78512   6.930  23.480   2.667
13286W        W78513  17.993  41.992  13.348
13287W        W78514  14.111   9.081  13.630
13288W        W78515  11.350  40.342   4.411
13289W        W78516  32.943   6.681  10.387
13290W        W78517  40.581   7.669   3.958
13291W        W78518  15.122  39.408  10.673
13292W        W78519   0.498  13.692  14.367
13293W        W78520  32.587  34.015   2.404
13294W        W78521  18.653  39.818  12.443
13295W        W78522   7.648  11.943   3.634
13296W        W78523  37.562  12.678  13.806
13297W        W78524  11.381  34.491   0.450
13298W        W78525   1.224  38.096   0.634
13299W        W78526  11.398  37.699   4.207
13300W        W78527  33.538  24.495  13.947
13301W        W78528  36.800  10.192   1.932
13302W        W78529  16.469  29.907  11.131
13303W        W78530  41.771  16.809   0.793
13304W        W78531  29.617  20.284   0.385
13305W        W78532   7.332   9.310  14.490
13306W        W78533   0.887  18.855  12.950
13307W        W78534  34.464   4.904   0.221
13308W        W78535  23.569  35.431   4.879
13309W        W78536   6.325   8.961   3.847
13310W        W78537   1.856  30.263  13.485
13311W        W78538  33.884   0.751   2.675
13312W        W78539  25.691  35.567  12.027
13313W        W78540  31.303  29.005   3.233
13314W        W78541  31.429  29.644   2.884
13315W        W78542  28.226   7.769   1.230
13316W        W78543  36.410   1.020  11.521
13317W        W78544  23.465   9.276   2.140
13318W        W78545  16.324  28.984  12.198
13319W        W78546  11.039  20.530   4.041
13320W        W78547  27.700   3.050  14.874
13321W        W78548  18.107  18.248   0.977
13322W        W78549  33.470  14.627  14.754
13323W        W78550  33.947  15.167  14.464
13324W        W78551  38.518   1.511   0.773
13325W        W78552   5.291  17.213   3.253
13326W        W78553  12.776  10.556   1.913
13327W        W78554  28.394   3.856  11.033
13328W        W78555  25.684  44.198   2.347
13329W        W78556   5.414   6.051  11.233
13330W        W78557  30.980  30.418  13.830
13331W        W78558  38.806   4.896   5.048
13332W        W78559  22.358  39.538   4.920
13333W        W78560   0.151  18.678   2.703
13334W        W78561   9.611  28.729   0.419
13335W        W78562   9.802  35.253  10.738
13336W        W78563  37.996  35.138   1.290
13337W        W78564  36.561   1.014  13.426
13338W        W78565  11.368  12.281  13.402
13339W        W78566  38.628  10.530  14.816
13340W        W78567  10.413  37.585   0.891
13341W        W78568  38.150   3.628   4.301
13342W        W78569  33.243  32.409   4.075
13343W        W78570   1.816  18.381  10.797
13344W        W78571  22.008  23.225   2.788
13345W        W78572  32.448  39.825   0.706
13346W        W78573   5.537  25.847   5.010
13347W        W78574  44.470  15.103   3.323
13348W        W78575  43.454  41.254   1.341
13349W        W78576  40.972  22.763   1.826
13350W        W78577  42.315   4.946   4.712
13351W        W78578  24.190  36.894  14.765
13352W        W78579   9.448   7.183   4.282
13353W        W78580  17.740   1.799   2.347
13354W        W78581  14.806  30.598   2.116
13355W        W78582   6.627  11.423  13.960
13356W        W78583   1.968   5.816   0.244
13357W        W78584  19.994  35.695  12.199
13358W        W78585   5.736  25.161   3.347
13359W        W78586  36.867  20.814   3.745
13360W        W78587  42.810  25.194  13.236
13361W        W78588   7.931   9.889   0.891
13362W        W78589  32.062  13.367   3.262
13363W        W78590  34.977  29.866  11.065
13364W        W78591  17.255  34.614  13.912
13365W        W78592   4.339  25.091  14.359
13366W        W78593  22.797  26.512   4.124
13367W        W78594  27.161  11.194  11.015
13368W        W78595  37.085  23.844   2.146
13369W        W78596   7.059   8.490  12.520
13370W        W78597  32.050  31.465  10.709
13371W        W78598  26.701  32.925   3.219
13372W        W78599  26.934  33.403   1.270
13373W        W78600  15.335  33.179   3.204
13374W        W78601  13.687  37.834   0.305
13375W        W78602   8.203  32.695  11.046
13376W        W78603  43.558   7.775   5.133
13377W        W78604   9.827  38.393   4.894
13378W        W78605  16.412   2.792  14.448
13379W        W78606  43.356  26.217  14.898
13380W        W78607  42.791   5.431  11.499
13381W        W78608   7.249  11.394   2.235
13382W        W78609   5.725  19.138  13.844
13383W        W78610  28.545   2.674   4.483
13384W        W78611  42.764  39.166   1.225
13385W        W78612  14.126   2.528  10.620
13386W        W78613  34.310  39.292  13.868
13387W        W78614  10.954  21.715   0.824
13388W        W78615  33.013  29.932   0.460
13389W        W78616  12.179  19.135  11.404
13390W        W78617   8.922   5.592  10.593
13391W        W78618   3.609  39.281  10.960
13392W        W78619  10.367  14.149   2.046
13393W        W78620  16.168  10.633  14.968
13394W        W78621  31.508  25.048  11.465
13395W        W78622  27.464  26.109  12.202
13396W        W78623  44.993  34.033   2.461
13397W        W78624  11.866  44.965  12.803
13398W        W78625  32.649  25.710  12.636
13399W        W78626  36.539  30.286   2.815
13400W        W78627  14.836  28.340  11.174
13401W        W78628  15.957  38.436   2.612
13402W        W78629  11.716   9.702   1.281
13403W        W78630  30.642  28.700   1.248
13404W        W78631  44.256  10.790  13.765
13405W        W78632  19.747  35.426  13.341
13406W        W78633  23.865   1.769  11.729
13407W        W78634  14.721  40.228  10.413
13408W        W78635  17.805  27.163   0.744
13409W        W78636  12.221   9.539  14.792
13410W        W78637  38.462  38.625   3.705
13411W        W78638  25.497  39.916   1.426
13412W        W78639  14.352   7.338  12.946
13413W        W78640  10.961   3.847   3.184
13414W        W78641  23.385  18.368  11.092
13415W        W78642  42.466  33.541  14.802
13416W        W78643  33.510  36.807   2.808
13417W        W78644   1.910  21.089  10.530
13418W        W78645  43.360  24.215  14.797
13419W        W78646  21.700  32.248  14.898
13420W        W78647  43.383  43.736   4.191
13421W        W78648  32.496  14.471  13.957
13422W        W78649   0.120   4.441   3.701
13423W        W78650  21.209  37.924   3.109
13424W        W78651  23.071   7.199  13.826
13425W        W78652   9.163  24.806   3.792
13426W        W78653  26.607  31.784  13.778
13427W        W78654  16.807   9.303  13.045
13428W        W78655  21.333   1.397  10.859
13429W        W78656  31.888  33.512  11.170
13430W        W78657  23.019  29.832  13.012
13431W        W78658   1.674   5.137  11.625
13432W        W78659   3.522  36.498  11.941
13433W        W78660  26.058  16.279   3.214
13434W        W78661   9.979   2.713   0.876
13435W        W78662  23.479  15.275   0.779
13436W        W78663  36.066  32.928  10.576
13437W        W78664   3.483  30.878  11.534
13438W        W78665  33.645  39.143  13.071
13439W        W78666  28.720  10.664  11.986
13440W        W78667  22.215  14.373  14.577
13441W        W78668  44.342   0.679  12.133
13442W        W78669   4.352  35.738   3.691
13443W        W78670  40.433  16.095  14.476
13444W        W78671  11.254  22.637   4.465
13445W        W78672  22.345  42.472  14.739
13446W        W78673  26.148  28.700   4.509
13447W        W78674  33.985   9.081  11.538
13448W        W78675  24.431  31.132  14.448
13449W        W78676  18.695  32.771  13.891
13450W        W78677  28.676  17.777  12.117
13451W        W78678  29.618  43.466   4.617
13452W        W78679  17.688  26.457   3.935
13453W        W78680   3.162  17.312   4.142
13454W        W78681  35.288   0.450  12.675
13455W        W78682  38.631  22.479  11.612
13456W        W78683  12.855  21.318  10.489
13457W        W78684  13.847  19.239  13.870
13458W        W78685  14.850  31.848   5.132
13459W        W78686  29.438   7.470  11.238
13460W        W78687   8.175  17.805   9.945
13461W        W78688   1.419  33.168   0.013
13462W        W78689   2.427  17.452   2.725
13463W        W78690   4.199   0.948   2.764
13464W        W78691   0.581  15.764   0.458
13465W        W78692  11.757  16.963   4.507
13466W        W78693  14.137  34.648  13.014
13467W        W78694  31.319  38.377   2.928
13468W        W78695  35.498  14.457   2.704
13469W        W78696  27.215  39.849  10.575
13470W        W78697  35.984   8.816  12.890
13471W        W78698  33.059   8.466   3.998
13472W        W78699   4.737  17.632   0.336
13473W        W78700   4.515  20.724  14.463
13474W        W78701  30.845  26.111   0.738
13475W        W78702  13.084  43.188   2.749
13476W        W78703  25.244   4.875   2.978
13477W        W78704  20.540  17.302   2.345
13478W        W78705  44.402  39.407   3.923
13479W        W78706  12.302   6.453  14.838
13480W        W78707  21.899   8.326   3.956
13481W        W78708  22.573  34.546  10.764
13482W        W78709   3.695  38.931  13.937
13483W        W78710  44.838  25.528  14.541
13484W        W78711   7.833  38.920   9.928
13485W        W78712  32.014  38.025  13.547
13486W        W78713  31.363  43.580  10.739
13487W        W78714   1.757  10.249  10.521
13488W        W78715  18.400  19.222   2.443
13489W        W78716  41.282  27.983  12.044
13490W        W78717  24.173  19.828  11.521
13491W        W78718  32.939   9.501   3.729
13492W        W78719  44.850  40.808   0.294
13493W        W78720  18.415  19.855  13.989
13494W        W78721  30.671  18.870   2.800
13495W        W78722  33.855  16.857   2.510
13496W        W78723   0.465  36.953  11.655
13497W        W78724   2.914  15.468   3.677
13498W        W78725  14.355  22.106   2.339
13499W        W78726   0.888  14.124   3.917
13500W        W78727   6.730  37.585   3.676
13501W        W78728  18.038  16.135  14.631
13502W        W78729  36.319   0.029  13.777
13503W        W78730   0.061   0.036   0.842
13504W        W78731  16.797  21.407  12.983
13505W        W78732  35.371  16.127  12.801
13506W        W78733  41.866  40.255  12.154
13507W        W78734  33.720  38.819   1.283
13508W        W78735  28.347  13.470   5.401
13509W        W78736  44.890   3.344  14.368
13510W        W78737  25.852  41.442   4.119
13511W        W78738  14.818  34.725   1.898
13512W        W78739  40.214  23.941   1.889
13513W        W78740  14.793  40.564   1.289
13514W        W78741  38.764  24.330   1.263
13515W        W78742  32.002   9.524   2.241
13516W        W78743  30.236  31.567  14.512
13517W        W78744  31.865   3.191   4.532
13518W        W78745  37.987  44.743   4.756
13519W        W78746  29.654   9.670   3.205
13520W        W78747   2.292  21.031  12.442
13521W        W78748  17.811  21.327   3.754
13522W        W78749  17.805  44.896   4.919
13523W        W78750  40.825  22.283   1.949
13524W        W78751  23.960   1.878   1.825
13525W        W78752  35.394  16.315   0.498
13526W        W78753  16.659   5.131   4.237
13527W        W78754   6.907  30.075  10.729
13528W        W78755  38.883  20.237   4.562
13529W        W78756   6.996  31.975  14.351
13530W        W78757  42.485   4.855   2.335
13531W        W78758  14.644  15.832   4.185
13532W        W78759  24.875  13.855  11.358
13533W        W78760  42.902  23.163   1.845
13534W        W78761  15.753  41.274   1.377
13535W        W78762  41.489  34.599  11.215
13536W        W78763  24.406  19.523   2.848
13537W        W78764  23.155  16.707  11.118
13538W        W78765  28.116  38.280  11.682
13539W        W78766  29.709  29.030   4.040
13540W        W78767  42.008   5.422  12.042
13541W        W78768  22.074  39.854   4.541
13542W        W78769  42.402  25.520   1.943
13543W        W78770  32.887  41.383  12.341
13544W        W78771  26.187  33.341  13.601
13545W        W78772  35.320   6.737  13.348
13546W        W78773  10.261  40.526  13.230
13547W        W78774  24.796  18.314  11.152
13548W        W78775  35.231   6.212   0.254
13549W        W78776   1.713   0.674  14.768
13550W        W78777  43.477   7.435  11.308
13551W        W78778  36.466  26.647  11.509
13552W        W78779  37.050   2.928   0.771
13553W        W78780   7.327  11.559  11.099
13554W        W78781  35.955  20.096  11.559
13555W        W78782   6.142  15.305   2.012
13556W        W78783  11.764  39.859  12.843
13557W        W78784  39.730  12.670   1.310
13558W        W78785  15.819   3.822   4.222
13559W        W78786  19.402  14.292   1.166
13560W        W78787   3.495  43.901   9.861
13561W        W78788  22.702   9.237   2.649
13562W        W78789   0.702   3.378   1.880
13563W        W78790   2.871  31.230   9.816
13564W        W78791  44.976  16.577  13.120
13565W        W78792  36.102  11.113   4.483
13566W        W78793  15.229  15.078  12.040
13567W        W78794  37.564  30.685   4.567
13568W        W78795  35.298  40.522  11.183
13569W        W78796  12.224  36.522   2.364
13570W        W78797   4.966  36.966  13.543
13571W        W78798  38.842  11.725   0.403
13572W        W78799  10.063  34.623  12.356
13573W        W78800  29.552  33.517   2.786
13574W        W78801  19.809  40.445  14.880
13575W        W78802  22.669  30.142  14.420
13576W        W78803  27.949   0.153   0.874
13577W        W78804   4.166  15.028  13.842
13578W        W78805  35.286  16.734  14.483
13579W        W78806  12.255  15.254   4.780
13580W        W78807  20.157  44.291   1.288
13581W        W78808  31.560  37.761   0.214
13582W        W78809  29.759  10.798  11.241
13583W        W78810   9.805  18.473   4.667
13584W        W78811   2.286  25.704   0.971
13585W        W78812   7.859   2.287  14.051
13586W        W78813  12.700   4.896  10.036
13587W        W78814   0.556  23.503  11.445
13588W        W78815  41.368  31.697   2.753
13589W        W78816  33.936  10.900  14.389
13590W        W78817  12.918  41.985  14.978
13591W        W78818  43.775  21.054  10.408
13592W        W78819  42.376  32.350  10.868
13593W        W78820  27.368  43.425  13.943
13594W        W78821  12.326   1.733   0.448
13595W        W78822  39.508  15.360   1.202
13596W        W78823  40.381   5.638  13.447
13597W        W78824  10.773  34.259  12.557
13598W        W78825  15.370  33.562   0.021
13599W        W78826  31.814  25.256  13.078
13600W        W78827   6.993   7.773   0.978
13601W        W78828  30.079   9.660   0.374
13602W        W78829   2.833  35.102  11.597
13603W        W78830  18.367  14.731   3.094
13604W        W78831  13.091  13.146   1.673
13605W        W78832  29.144  44.794   3.149
13606W        W78833  13.746  18.794  12.381
13607W        W78834  28.105  34.296   2.978
13608W        W78835  27.764  18.046   2.287
13609W        W78836  20.096  26.405   3.721
13610W        W78837  11.887   4.217   0.846
13611W        W78838  36.657  36.373   0.355
13612W        W78839   1.453  12.092  10.699
13613W        W78840  25.825  30.384  14.927
13614W        W78841   2.481  33.315  11.398
13615W        W78842  41.495  37.531   2.282
13616W        W78843  33.809  30.676  10.280
13617W        W78844  25.631   9.969  11.618
13618W        W78845   6.771   2.312  13.342
13619W        W78846  18.559  22.602   3.700
13620W        W78847  37.823  16.790  13.944
13621W        W78848  31.964  44.922   3.026
13622W        W78849  38.890  42.429   4.617
13623W        W78850  11.622  33.904   3.151
13624W        W78851  14.362  23.168  11.477
13625W        W78852  32.690  42.991   3.899
13626W        W78853  33.175  26.103  11.707
13627W        W78854   4.727  30.757  12.874
13628W        W78855  34.403  11.893   1.220
13629W        W78856  20.291  25.656  11.245
13630W        W78857  36.213  43.463   1.670
13631W        W78858   1.363  19.554  11.912
13632W        W78859  23.082  22.467  14.482
13633W        W78860  26.975  27.837  12.062
13634W        W78861  34.086   7.355  11.212
13635W        W78862   7.529   9.771   4.451
13636W        W78863   7.824  24.349   0.164
13637W        W78864  36.862  44.913   1.371
13638W        W78865  28.455  30.876   3.753
13639W        W78866  10.865  26.954  13.758
13640W        W78867  36.407  35.134   3.297
13641W        W78868  42.211  12.445   4.086
13642W        W78869   6.297  11.563  11.111
13643W        W78870  41.486  14.283   4.556
13644W        W78871   1.448  44.678   0.262
13645W        W78872  31.992   0.072   4.527
13646W        W78873   5.605   3.841  11.441
13647W        W78874  42.333  14.305  12.085
13648W        W78875  31.265  31.507   5.525
13649W        W78876  33.078  42.280  11.803
13650W        W78877  27.777  42.838  12.925
13651W        W78878  37.070  30.521  13.904
13652W        W78879  36.881  23.944   0.509
13653W        W78880  38.758  37.386  11.834
13654W        W78881  18.282  42.000   2.258
13655W        W78882  26.536  17.545  13.399
13656W        W78883   2.490  20.983   4.112
13657W        W78884  39.418   2.433   1.111
13658W        W78885  28.430  29.476   4.112
13659W        W78886  30.429   8.760  11.860
13660W        W78887  24.789  32.923   4.021
13661W        W78888  16.396   4.323   1.323
13662W        W78889  42.589  30.082  11.280
13663W        W78890  36.451  33.037   1.818
13664W        W78891  25.114  20.750  13.491
13665W        W78892  18.668  18.556   0.271
13666W        W78893  26.142   0.629  13.136
13667W        W78894   1.877   8.379   0.178
13668W        W78895  14.242  35.972  10.834
13669W        W78896  24.293  27.577   1.092
13670W        W78897  10.729  30.380  12.418
13671W        W78898  37.746  36.186   3.116
13672W        W78899  15.272  11.673  12.502
13673W        W78900   0.677  25.439   5.310
13674W        W78901  15.560  16.986   3.399
13675W        W78902  40.026  16.314   3.291
13676W        W78903  38.621  11.091   3.671
13677W        W78904   0.369  19.815   0.681
13678W        W78905  42.385  12.711   1.840
13679W        W78906  41.900  26.141  14.487
13680W        W78907  12.709  34.319   0.471
13681W        W78908   7.380   0.413   0.405
13682W        W78909  24.426  24.683  11.705
13683W        W78910   8.991  26.985   1.837
13684W        W78911  32.595  25.489   3.931
13685W        W78912   7.449  20.593   4.058
13686W        W78913  39.086  23.586   3.053
13687W        W78914  22.504   5.413   2.614
13688W        W78915  18.869   7.438   2.332
13689W        W78916   6.285  16.797   4.410
13690W        W78917   1.212  44.940  12.877
13691W        W78918  22.251  26.213  13.822
13692W        W78919  39.561   8.205  10.783
13693W        W78920   9.851  20.665  12.460
13694W        W78921  30.626  10.662   2.930
13695W        W78922   2.507  28.438  13.265
13696W        W78923  28.853   9.452  13.492
13697W        W78924  36.433  24.624   2.395
13698W        W78925   9.871  43.934   2.898
13699W        W78926  21.179  27.062  11.167
13700W        W78927  23.602   2.239   2.963
13701W        W78928  17.900  19.528   4.921
13702W        W78929   7.734  12.688  10.667
13703W        W78930  44.930  14.103   3.811
13704W        W78931   0.796   4.760  10.790
13705W        W78932  20.159   7.231   0.874
13706W        W78933  24.030  18.215  12.012
13707W        W78934   5.166  12.660   2.695
13708W        W78935  37.169   8.065  11.143
13709W        W78936  21.639  13.618   1.823
13710W        W78937  21.695  18.501  10.235
13711W        W78938   8.161  29.389  11.280
13712W        W78939  17.803  17.407   2.758
13713W        W78940  13.098  41.291   2.841
13714W        W78941  11.275  15.245   4.408
13715W        W78942  32.146  21.082  12.531
13716W        W78943   0.722  13.280  11.192
13717W        W78944  14.740  39.790   4.376
13718W        W78945  25.246   3.717  12.200
13719W        W78946  43.908  20.788   4.937
13720W        W78947  18.731   6.032   4.615
13721W        W78948  44.275  38.778   1.286
13722W        W78949  15.406  25.603   0.810
13723W        W78950   1.032  10.026  12.536
13724W        W78951   3.360  44.909   0.174
13725W        W78952  22.729  18.570  13.371
13726W        W78953  44.940  26.668  13.994
13727W        W78954  34.645  25.956  12.623
13728W        W78955  23.962  35.592  11.473
13729W        W78956  26.787  32.028   4.044
13730W        W78957  34.067  30.417   0.606
13731W        W78958  24.392  20.113   2.693
13732W        W78959  36.487  29.598   2.291
13733W        W78960  17.638  41.887  14.393
13734W        W78961  23.129  34.636  11.182
13735W        W78962  42.410  37.412  13.407
13736W        W78963   4.485  10.809   4.184
13737W        W78964   3.257  29.860   2.197
13738W        W78965  12.093  23.727   3.292
13739W        W78966   6.928  21.224  12.567
13740W        W78967  20.547  30.017  12.976
13741W        W78968   6.044   5.060   0.436
13742W        W78969  42.289  34.532   1.176
13743W        W78970  29.089  24.416  12.105
13744W        W78971  26.580  38.216   4.540
13745W        W78972  14.751  10.301  14.149
13746W        W78973  41.081  44.792  11.907
13747W        W78974  20.926   1.635  14.667
13748W        W78975  40.864  11.784   0.309
13749W        W78976   1.684  11.531   2.684
13750W        W78977  28.509   8.388   2.035
13751W        W78978  28.125  35.703   0.269
13752W        W78979  17.411  19.634   0.967
13753W        W78980  35.905   9.741   3.405
13754W        W78981   4.345  10.861   1.886
13755W        W78982  20.868   6.622   3.239
13756W        W78983  25.452   3.566  14.080
13757W        W78984   7.709  43.544  11.073
13758W        W78985   7.834  19.834  14.368
13759W        W78986  40.643  16.078  10.073
13760W        W78987  25.247  19.152   0.324
13761W        W78988  33.495  44.394   1.697
13762W        W78989  14.597  20.231  12.499
13763W        W78990  37.956  22.628   0.825
13764W        W78991  18.863  15.175   3.748
13765W        W78992  24.725  31.837  12.588
13766W        W78993  16.251  34.086   3.398
13767W        W78994  41.523  39.618   0.827
13768W        W78995  43.282  13.259  12.961
13769W        W78996   4.850  30.884  11.128
13770W        W78997  23.581  44.653   3.128
13771W        W78998  37.817   2.708  14.453
13772W        W78999  18.105   4.450  11.999
13773W        W79000  13.151  26.169  14.898
13774W        W79001  41.808  35.276  12.876
13775W        W79002  15.813   4.402  13.363
13776W        W79003  17.656  27.021  12.251
13777W        W79004  22.556  33.962   2.263
13778W        W79005  30.961  24.270  13.052
13779W        W79006  34.660   4.446  11.684
13780W        W79007  24.886  15.694   2.170
13781W        W79008  41.318   1.775   2.474
13782W        W79009   8.314  14.641   2.833
13783W        W79010   3.289  36.626  14.619
13784W        W79011  19.322  41.056  11.236
13785W        W79012  34.079  38.839  13.907
13786W        W79013   9.042  26.875  12.984
13787W        W79014  14.923  18.954  14.916
13788W        W79015  42.257  26.465  12.980
13789W        W79016  28.557  32.146  13.546
13790W        W79017  44.424   8.136  12.957
13791W        W79018  26.030  18.134   1.652
13792W        W79019  44.859   6.205  13.108
13793W        W79020  19.178  29.365  12.409
13794W        W79021  41.746  18.177  12.150
13795W        W79022  37.791  13.567  12.975
13796W        W79023  14.028  14.581   3.772
13797W        W79024  40.564  16.917  10.796
13798W        W79025  17.288  15.693   4.174
13799W        W79026  12.172  23.794   0.908
13800W        W79027  44.978  15.772   1.526
13801W        W79028  20.292   0.319   1.167
13802W        W79029  24.073  44.777   5.340
13803W        W79030  22.453  34.610   0.416
13804W        W79031  38.386  39.347   0.866
13805W        W79032  11.417  31.752  14.905
13806W        W79033  39.518  16.046  14.310
13807W        W79034  20.149  44.648  12.426
13808W        W79035  13.757   4.448  13.764
13809W        W79036  15.255  32.910  11.958
13810W        W79037  22.984  17.483   4.101
13811W        W79038  44.114  31.438   4.590
13812W        W79039  30.193  44.065  11.092
13813W        W79040  11.751  22.310   1.679
13814W        W79041  33.589  33.040   4.642
13815W        W79042   2.737   6.723   0.765
13816W        W79043  16.028  29.423   3.688
13817W        W79044  32.651  22.488   1.871
13818W        W79045  28.709  42.683   1.262
13819W        W79046  21.484  37.772   2.423
13820W        W79047  41.544  22.455  10.947
13821W        W79048  23.889  13.994  13.866
13822W        W79049   3.544  40.956  14.346
13823W        W79050  19.082  15.571   0.424
13824W        W79051  31.246  27.219   3.473
13825W        W79052  36.169  40.893  11.155
13826W        W79053  24.564  29.800   2.750
13827W        W79054   5.595   7.339   4.103
13828W        W79055  35.382  24.286   2.359
13829W        W79056  24.114   5.700  13.503
13830W        W79057   3.448  19.101   3.823
13831W        W79058  30.564   9.192   4.125
13832W        W79059  38.994  21.041  11.590
13833W        W79060  18.739  44.709  14.811
13834W        W79061  38.555  44.806   2.253
13835W        W79062  36.588  12.868   4.209
13836W        W79063  31.731  34.306  14.508
13837W        W79064  30.102  14.771   2.550
13838W        W79065   8.828  32.591  12.243
13839W        W79066  12.778  44.924  14.347
13840W        W79067   7.951  13.652  12.479
13841W        W79068   3.920  44.761   3.296
13842W        W79069   9.780  25.739  12.020
13843W        W79070  11.264  27.453  13.362
13844W        W79071  19.814   6.366  11.601
13845W        W79072   5.389  27.238  12.418
13846W        W79073  39.528  16.673  10.473
13847W        W79074   6.452  23.818  11.431
13848W        W79075  35.429  15.670  13.049
13849W        W79076  40.297  12.868  12.816
13850W        W79077   4.575  44.701  12.411
13851W        W79078  30.148  34.629  11.965
13852W        W79079  32.121  39.400   0.699
13853W        W79080  20.095  15.867   1.352
13854W        W79081  37.634  43.100  10.420
13855W        W79082  24.266  19.262  11.956
13856W        W79083  13.326  43.774   4.979
13857W        W79084  34.800  19.683   1.385
13858W        W79085  40.271  12.715  13.727
13859W        W79086   9.614  29.164   2.294
13860W        W79087  41.470  15.705   4.511
13861W        W79088  17.043  12.400   1.340
13862W        W79089  32.219   6.960  12.075
13863W        W79090  38.608   7.809  13.593
13864W        W79091   3.662   7.811   1.166
13865W        W79092  10.687  36.385  10.323
13866W        W79093   3.637  15.168   0.961
13867W        W79094  38.583  10.318   1.027
13868W        W79095  30.564  29.687  14.491
13869W        W79096  44.295  42.455  11.662
13870W        W79097  20.516   9.528   0.068
13871W        W79098  26.757  22.510   3.303
13872W        W79099  42.287   2.153   1.428
13873W        W79100  43.793   8.780   0.749
13874W        W79101  37.109  23.022   0.564
13875W        W79102  41.950  39.312   2.661
13876W        W79103  41.811  24.652   3.243
13877W        W79104  31.351   3.711  12.549
13878W        W79105  32.337  22.610  14.555
13879W        W79106  22.922  31.491   1.597
13880W        W79107   8.062  41.504  11.090
13881W        W79108  33.475   2.798   4.501
13882W        W79109   9.996  21.119   2.953
13883W        W79110  34.290   7.724  13.985
13884W        W79111  21.138   2.334   0.317
13885W        W79112  40.296  32.120  13.825
13886W        W79113  29.775  17.650  13.899
13887W        W79114   0.280  15.554  11.906
13888W        W79115  28.849  30.406  10.769
13889W        W79116  27.898  43.339   3.421
13890W        W79117  40.470  17.727  11.704
13891W        W79118   1.047  42.200  11.939
13892W        W79119  18.610   1.435   1.732
13893W        W79120  18.225  13.586  10.684
13894W        W79121  20.030  29.523  13.555
13895W        W79122  44.460  24.480  11.034
13896W        W79123  41.190  14.914   1.755
13897W        W79124  18.676  22.615  13.624
13898W        W79125   5.631  26.069  10.472
13899W        W79126  19.786  16.649  13.955
13900W        W79127  17.675  14.715  13.081
13901W        W79128  18.374  17.781   2.122
13902W        W79129  22.705  13.663   1.210
13903W        W79130  25.612  10.836   4.177
13904W        W79131  39.774  36.275  12.774
13905W        W79132  21.489  33.965   2.721
13906W        W79133  19.092  30.860   1.680
13907W        W79134   8.216  29.452   0.665
13908W        W79135  36.589  34.098   0.562
13909W        W79136  36.039  15.920  10.885
13910W        W79137  42.367  44.407  14.820
13911W        W79138  19.149  15.538  11.668
13912W        W79139  25.515  39.687  10.234
13913W        W79140   0.466  36.141   4.410
13914W        W79141   2.856  23.848  13.083
13915W        W79142   7.308   8.537  14.948
13916W        W79143  37.714  16.873   4.025
13917W        W79144  19.685  21.596  14.068
13918W        W79145   0.396  35.112   2.437
13919W        W79146   8.225  14.152  14.435
13920W        W79147  28.559  29.128   1.396
13921W        W79148  39.502  24.559   4.480
13922W        W79149  12.340  34.154  11.606
13923W        W79150  33.120   3.413  12.587
13924W        W79151  39.413  41.803  12.008
13925W        W79152  29.021  38.541   3.368
13926W        W79153  23.721  12.653  11.213
13927W        W79154  24.837  13.884  13.514
13928W        W79155   2.184  13.932  13.981
13929W        W79156  34.585   8.802   4.856
13930W        W79157  21.418   1.740  12.450
13931W        W79158  14.292  34.435   1.017
13932W        W79159   4.823  11.485   2.889
13933W        W79160  36.361  28.509  13.906
13934W        W79161  38.234  35.840   1.842
13935W        W79162  32.502  22.153   0.259
13936W        W79163   1.921  26.517  14.497
13937W        W79164  21.104  31.345  12.841
13938W        W79165   6.743  12.536  14.488
13939W        W79166   0.436   0.580   4.141
13940W        W79167  10.569   0.916   5.245
13941W        W79168  36.433  20.982  10.625
13942W        W79169   9.862   6.404   0.069
13943W        W79170   2.499  15.561   1.225
13944W        W79171  36.148  32.341  14.070
13945W        W79172  26.546  15.109   3.791
13946W        W79173  10.265  17.555   0.753
13947W        W79174  18.558  32.728  11.138
13948W        W79175  44.749  24.264  14.920
13949W        W79176  22.717  37.636  11.090
13950W        W79177  28.930  28.707  12.474
13951W        W79178   3.363  40.390  12.180
13952W        W79179  20.507   8.620  11.182
13953W        W79180  38.831  23.526   2.608
13954W        W79181   0.509   4.379   3.140
13955W        W79182  30.333  10.367  14.076
13956W        W79183  22.962  21.592  14.365
13957W        W79184  23.998  14.641   0.332
13958W        W79185  19.687  34.814  12.898
13959W        W79186  27.242  17.614   1.800
13960W        W79187   1.885  11.243   1.897
13961W        W79188  40.900  20.077   3.238
13962W        W79189  22.281   3.699   0.296
13963W        W79190   0.721  19.279  14.009
13964W        W79191   6.706  26.650   3.749
13965W        W79192  44.622  16.811  14.914
13966W        W79193  34.162  34.946  12.004
13967W        W79194  17.502   6.792   4.972
13968W        W79195  13.093  30.056   0.158
13969W        W79196   1.010  23.755   0.705
13970W        W79197  42.882  22.317   1.376
13971W        W79198   4.960   4.674   3.684
13972W        W79199  16.557   8.821   1.502
13973W        W79200   8.434  13.316   9.841
13974W        W79201  20.978  33.053   2.686
13975W        W79202   8.662  24.854   3.647
13976W        W79203  31.136  25.575  12.473
13977W        W79204   4.480  25.740  12.436
13978W        W79205  26.497  43.527   1.206
13979W        W79206  36.483   1.872  13.014
13980W        W79207  31.014  41.252  12.822
13981W        W79208  17.440  17.452   0.206
13982W        W79209  21.403  42.248   4.316
13983W        W79210  35.571  31.943   3.657
13984W        W79211  26.615  38.954   4.884
13985W        W79212   9.247  38.400   3.106
13986W        W79213   9.815  40.048  11.693
13987W        W79214   5.886  36.532   0.790
13988W        W79215   6.495  24.114  14.479
13989W        W79216  15.262  39.900  11.455
13990W        W79217  40.731  40.051  10.988
13991W        W79218  34.802  19.753  12.870
13992W        W79219  27.225  29.543   2.408
13993W        W79220  31.345  28.708   2.800
13994W        W79221  17.478  18.873   3.721
13995W        W79222  25.074   3.023  13.391
13996W        W79223  25.526  43.563   0.792
13997W        W79224  35.069  43.619  11.281
13998W        W79225  38.383   3.986  12.336
13999W        W79226  16.087  22.776   2.949
14000W        W79227  16.678   8.823  10.728
14001W        W79228  33.994  23.104   3.962
14002W        W79229  36.570  40.528  11.505
14003W        W79230  44.926  34.317  14.139
14004W        W79231  19.350  37.133  13.323
14005W        W79232  23.273  38.565   1.361
14006W        W79233  18.058  34.981   1.801
14007W        W79234  23.520   6.736   4.686
14008W        W79235  29.528  41.854   1.815
14009W        W79236  24.968  34.269   0.295
14010W        W79237   1.398   7.336   2.272
14011W        W79238  28.872  20.675  11.105
14012W        W79239  22.746  24.068  13.063
14013W        W79240  28.650  14.932   2.166
14014W        W79241  19.799  40.944  14.530
14015W        W79242  15.830  13.378  13.976
14016W        W79243  41.787  31.842   4.458
14017W        W79244   8.383  31.096  12.755
14018W        W79245  21.728  17.652  11.519
14019W        W79246  17.300   6.428   1.910
14020W        W79247   6.271  34.998   3.111
14021W        W79248  15.375   4.374  10.746
14022W        W79249  40.968  13.916   2.774
14023W        W79250  16.862  38.929  11.161
14024W        W79251  15.236  29.383   3.119
14025W        W79252  11.919   0.044   4.300
14026W        W79253  39.033  20.018   0.998
14027W        W79254  16.760  42.573   1.173
14028W        W79255  30.142  40.398   4.056
14029W        W79256   6.628  27.664   2.112
14030W        W79257  29.180  14.458   0.854
14031W        W79258  39.835  14.316   1.797
14032W        W79259  44.452   7.386  13.357
14033W        W79260  32.970   7.408  12.370
14034W        W79261  25.924  25.565   4.043
14035W        W79262   0.511  20.467  14.396
14036W        W79263  25.029  27.230   1.983
14037W        W79264  13.870  41.278   4.553
14038W        W79265  30.624  21.697  11.476
14039W        W79266  31.450  29.875  10.587
14040W        W79267   2.364  21.325   2.258
14041W        W79268   5.851  20.055  10.612
14042W        W79269   4.402  42.324   3.545
14043W        W79270  11.342   2.995   0.788
14044W        W79271  13.601  29.982   3.405
14045W        W79272  35.361  25.198   3.655
14046W        W79273  28.484  25.754  14.510
14047W        W79274  24.013  28.591   0.366
14048W        W79275   0.410  16.673   4.071
14049W        W79276  44.748  28.490   3.736
14050W        W79277   4.789  41.189  11.207
14051W        W79278   9.642  28.467   4.539
14052W        W79279  30.067   7.626  14.304
14053W        W79280  24.434   8.862  13.348
14054W        W79281  39.879  13.819   1.811
14055W        W79282  21.494  30.427   0.557
14056W        W79283  40.377  24.530   4.273
14057W        W79284  33.109  21.021   3.181
14058W        W79285  43.313  31.491  13.997
14059W        W79286  39.707  23.165   1.227
14060W        W79287   9.757  27.656  10.761
14061W        W79288   3.170  19.333  13.833
14062W        W79289  31.264   3.116   3.637
14063W        W79290  13.323  12.103   3.734
14064W        W79291  13.133  39.336   2.705
14065W        W79292   8.738  15.532   9.807
14066W        W79293  21.753  32.938   2.306
14067W        W79294   7.421   3.784   2.361
14068W        W79295   3.780  21.596  13.128
14069W        W79296  30.543   1.436  14.739
14070W        W79297  38.002  30.616   3.660
14071W        W79298  33.510  29.120  14.294
14072W        W79299  22.511  33.142   0.388
14073W        W79300  13.305  41.419  11.431
14074W        W79301  14.710  19.204   1.785
14075W        W79302  11.655  17.326  14.383
14076W        W79303   0.432  14.086   3.611
14077W        W79304  11.873  29.441  11.672
14078W        W79305  42.705  22.437  11.151
14079W        W79306  34.168  29.817  13.162
14080W        W79307  16.123  31.432  11.043
14081W        W79308  22.671  32.396  12.637
14082W        W79309  25.822   8.868   2.371
14083W        W79310  29.825   9.400   0.760
14084W        W79311  32.494  41.189   5.387
14085W        W79312   7.701  24.590   1.081
14086W        W79313  40.089  10.692   4.058
14087W        W79314   0.225  24.439  14.864
14088W        W79315  31.553   8.548   0.228
14089W        W79316  28.413   3.745  14.807
14090W        W79317  32.961   1.346  11.389
14091W        W79318  31.593  22.006  12.242
14092W        W79319  31.352  29.186  13.488
14093W        W79320  33.491  12.244   3.748
14094W        W79321  37.016  40.249  11.509
14095W        W79322  15.235  34.947   1.736
14096W        W79323  29.990   5.459   0.731
14097W        W79324  26.500  28.510  12.471
14098W        W79325  41.073  11.696   0.773
14099W        W79326  37.610   5.325  14.843
14100W        W79327  31.074   1.826   1.309
14101W        W79328  15.623  38.092  11.181
14102W        W79329  37.674  10.477  10.805
14103W        W79330  31.836  22.470  14.594
14104W        W79331  20.750  22.578   2.152
14105W        W79332  20.488   2.894  13.323
14106W        W79333   5.148   1.384   3.353
14107W        W79334  36.385  22.961  11.781
14108W        W79335  43.269  29.433   0.129
14109W        W79336   6.572  44.842  11.112
14110W        W79337  41.793  29.987   1.724
14111W        W79338  35.023  10.540   4.252
14112W        W79339   6.251  26.410  10.091
14113W        W79340  23.473   2.661   2.020
14114W        W79341  13.326  30.025  11.060
14115W        W79342  32.902   9.760   3.276
14116W        W79343   9.620  24.566   4.003
14117W        W79344  43.828  23.561   1.515
14118W        W79345  16.804  30.698   3.104
14119W        W79346  39.011  35.973   0.953
14120W        W79347  42.463  12.975   0.801
14121W        W79348  38.973  13.754   3.059
14122W        W79349  34.257  34.542   0.240
14123W        W79350  12.904  28.743  13.044
14124W        W79351  23.036  42.898  13.619
14125W        W79352  11.761  26.907  11.678
14126W        W79353   5.877  24.527  14.719
14127W        W79354  42.183  19.610   3.606
14128W        W79355  17.216  43.186  12.934
14129W        W79356  32.947   1.153  10.927
14130W        W79357   2.943  23.198  14.335
14131W        W79358  26.990  18.587  12.114
14132W        W79359  34.125  27.475   9.667
14133W        W79360  30.790  21.085  13.580
14134W        W79361  16.624  24.719  12.484
14135W        W79362  19.353   1.478  11.963
14136W        W79363   8.170  27.901   4.199
14137W        W79364  29.027  44.117  11.648
14138W        W79365  24.261  36.378  14.734
14139W        W79366  43.513   7.916   1.753
14140W        W79367  19.490  14.710  11.188
14141W        W79368  36.027  29.728   1.588
14142W        W79369  26.916   2.113   4.141
14143W        W79370  12.275   6.262   4.770
14144W        W79371  10.878  14.101   3.697
14145W        W79372  24.461  11.324   4.649
14146W        W79373  29.338  31.523   3.593
14147W        W79374   1.362  19.989  14.260
14148W        W79375  22.982  32.034  10.556
14149W        W79376  40.959  22.512  13.005
14150W        W79377  14.732  15.663  13.849
14151W        W79378  30.158  25.179  10.281
14152W        W79379  25.584  32.350  14.977
14153W        W79380   3.425   9.113   1.417
14154W        W79381  37.222  37.985   1.237
14155W        W79382  24.540   2.316   1.735
14156W        W79383  19.775   7.776  11.705
14157W        W79384   7.588  19.530  14.772
14158W        W79385  23.755  36.035   3.635
14159W        W79386  14.422  15.908   3.346
14160W        W79387  18.569   4.729  14.571
14161W        W79388   7.773   7.142   1.208
14162W        W79389  23.605  29.043   3.130
14163W        W79390  32.026  33.551  14.871
14164W        W79391  38.659  39.442  14.464
14165W        W79392  17.082  23.671  12.067
14166W        W79393  29.422  43.928   3.155
14167W        W79394  27.591  26.253   1.968
14168W        W79395  34.463  12.710  11.090
14169W        W79396   4.114   0.841   3.797
14170W        W79397  27.014  35.016   3.874
14171W        W79398  42.113  14.702   2.612
14172W        W79399   6.540   5.287  11.398
14173W        W79400  12.990  40.617  14.167
14174W        W79401  31.897  40.561   1.826
14175W        W79402   6.691  11.288  11.372
14176W        W79403  32.386  37.138  13.024
14177W        W79404  26.638   7.755   3.547
14178W        W79405  15.819   5.264   2.131
14179W        W79406  25.318   9.172   3.804
14180W        W79407  26.412  22.950  14.471
14181W        W79408  35.019  29.673  13.507
14182W        W79409  16.489  42.918  10.991
14183W        W79410  12.662  23.103   3.702
14184W        W79411  37.400  38.910   4.050
14185W        W79412  36.648  43.812  11.226
14186W        W79413   5.723  29.175   0.718
14187W        W79414  18.480  32.332  12.922
14188W        W79415  15.508   8.660  13.504
14189W        W79416  15.871  41.781   1.256
14190W        W79417  29.620  43.089   0.019
14191W        W79418  20.796  14.671   4.806
14192W        W79419  37.885  30.865   4.177
14193W        W79420  16.728  36.461   2.659
14194W        W79421  10.879   4.255  12.178
14195W        W79422   9.368  21.363  11.958
14196W        W79423  30.800  13.104   4.819
14197W        W79424  35.669   0.075   0.432
14198W        W79425   9.741  19.535   3.206
14199W        W79426  30.814  28.685  14.516
14200W        W79427  32.762   9.603  14.482
14201W        W79428  18.062  35.466   2.323
14202W        W79429  25.043  31.469   1.944
14203W        W79430  40.527  29.066   1.903
14204W        W79431   8.706  10.413  12.149
14205W        W79432  15.262  17.981  13.838
14206W        W79433   3.483  19.638   4.189
14207W        W79434  13.229  13.785  12.491
14208W        W79435  25.666  22.245  14.063
14209W        W79436   1.999   1.295  12.520
14210W        W79437   6.620   3.934   2.781
14211W        W79438   2.187  36.454   4.187
14212W        W79439  19.295   2.627  12.149
14213W        W79440   4.647  15.682   4.538
14214W        W79441  13.939   1.686  11.723
14215W        W79442  11.098  19.060   1.270
14216W        W79443  19.769  31.036  11.492
14217W        W79444  35.335  42.365   0.377
14218W        W79445  39.670  24.145  13.582
14219W        W79446  16.087   0.377   2.355
14220W        W79447  30.417  24.606   2.830
14221W        W79448  39.407  23.032   3.717
14222W        W79449   2.879  28.134  10.195
14223W        W79450  24.020  23.669   3.998
14224W        W79451  27.629  10.408  12.643
14225W        W79452   5.626  21.269   4.155
14226W        W79453   2.837  33.063   0.747
14227W        W79454  40.437  10.879  12.163
14228W        W79455   3.665  26.707  10.306
14229W        W79456  35.945  24.475   2.278
14230W        W79457  39.831   1.286  12.601
14231W        W79458  20.106  44.204  14.361
14232W        W79459  30.550  25.416  14.860
14233W        W79460  27.540  34.016  11.646
14234W        W79461  36.490  22.148   1.683
14235W        W79462   9.722  12.090   0.953
14236W        W79463  31.065   9.748  11.000
14237W        W79464  36.705   0.359   2.147
14238W        W79465  31.900   1.410  14.594
14239W        W79466  22.003  23.152  14.618
14240W        W79467  41.704  26.682   4.035
14241W        W79468  33.135  31.868  10.174
14242W        W79469  35.636  27.049   2.891
14243W        W79470   4.820   2.710   2.119
14244W        W79471  22.219  30.293  13.154
14245W        W79472   9.070  33.886   1.846
14246W        W79473  17.293  35.867   2.458
14247W        W79474  31.538   9.563   0.385
14248W        W79475  12.421  14.528   4.951
14249W        W79476  10.327  39.298  11.038
14250W        W79477  24.180  29.580   2.398
14251W        W79478  31.024   6.669  10.795
14252W        W79479  34.994  24.954  12.167
14253W        W79480  16.105   9.111   2.253
14254W        W79481  30.184  44.250  13.967
14255W        W79482   4.946   5.271   1.364
14256W        W79483   6.457  37.606  11.013
14257W        W79484  35.222  11.650  10.911
14258W        W79485  35.995  14.558   0.809
14259W        W79486  29.686  34.907   1.567
14260W        W79487   3.099  37.802   0.931
14261W        W79488  38.432   8.973   2.133
14262W        W79489  42.922  18.384   1.299
14263W        W79490  15.315  16.377  11.576
14264W        W79491  34.982  41.851  12.569
14265W        W79492  13.580  29.027   4.864
14266W        W79493  24.731   3.830  11.491
14267W        W79494  26.877  39.405  12.705
14268W        W79495  37.511   7.914  12.086
14269W        W79496  26.628  10.584   2.767
14270W        W79497  38.387  27.606  11.032
14271W        W79498  24.906  30.959  13.459
14272W        W79499   7.172  42.986   2.281
14273W        W79500  16.879  41.213   4.518
14274W        W79501  36.899  30.155   1.652
14275W        W79502  40.410  34.830  11.705
14276W        W79503  21.683  34.435   2.690
14277W        W79504  29.894  37.886   2.722
14278W        W79505   3.001  11.645  13.848
14279W        W79506  22.457  11.958   0.901
14280W        W79507  15.036  43.077  14.351
14281W        W79508   7.455  32.595   3.561
14282W        W79509  27.342   2.747   4.808
14283W        W79510  18.429   8.711  12.164
14284W        W79511  28.879  26.278  10.776
14285W        W79512  34.080  33.987  11.630
14286W        W79513  30.156   2.241   4.643
14287W        W79514  22.188   8.190  14.492
14288W        W79515  11.940   1.401   0.224
14289W        W79516   6.472   3.279   4.166
14290W        W79517  15.820  13.162   4.491
14291W        W79518   4.183  14.324   1.722
14292W        W79519  31.987  11.904   0.158
14293W        W79520   3.197  30.801   9.847
14294W        W79521  39.858   1.549   1.209
14295W        W79522  21.197  34.106  14.855
14296W        W79523  38.991   5.917   1.401
14297W        W79524   1.156   4.518   1.384
14298W        W79525   0.340  27.112   1.189
14299W        W79526  28.153  24.592   1.344
14300W        W79527  26.496  26.338  13.032
14301W        W79528   6.430  23.615   2.686
14302W        W79529  14.233  41.920  12.833
14303W        W79530   6.749  29.200   0.624
14304W        W79531  37.520  26.667  13.029
14305W        W79532   8.208  19.147   4.519
14306W        W79533  37.284  42.580  11.205
14307W        W79534  12.664  22.370   1.182
14308W        W79535  44.197  31.967  12.782
14309W        W79536   0.866  43.288  13.275
14310W        W79537   3.761  41.812   0.878
14311W        W79538  11.076  40.823  14.359
14312W        W79539   1.684  43.370   3.035
14313W        W79540  35.308  27.591  12.178
14314W        W79541  24.962  21.693   3.704
14315W        W79542  36.701   0.946  14.393
14316W        W79543   0.725  42.379   3.067
14317W        W79544  23.627   1.814  14.263
14318W        W79545  31.570  18.249  11.642
14319W        W79546  29.382  30.656   4.548
14320W        W79547   3.067  14.258  13.985
14321W        W79548  27.425  22.449  10.631
14322W        W79549   6.850  20.096  14.484
14323W        W79550  37.835  44.525   3.157
14324W        W79551  34.440  21.886   2.779
14325W        W79552  22.556  26.974   4.892
14326W        W79553  13.388  19.258   0.683
14327W        W79554  41.077   3.294  14.157
14328W        W79555  31.945  31.860   4.157
14329W        W79556  43.410   7.809  11.967
14330W        W79557  38.862  23.996   2.829
14331W        W79558  25.980  25.847   2.280
14332W        W79559  12.509  43.337   1.393
14333W        W79560   8.013  34.033   1.705
14334W        W79561  14.311  16.637  12.017
14335W        W79562   1.264  34.537  14.917
14336W        W79563  23.296  19.013  13.809
14337W        W79564  31.033  20.639  13.457
14338W        W79565  26.581   6.348  14.450
14339W        W79566   6.309  32.534   4.069
14340W        W79567  32.343  34.550  10.593
14341W        W79568  29.973  33.637  11.640
14342W        W79569  10.597  35.410   1.331
14343W        W79570  16.027  28.966  12.654
14344W        W79571  25.394   6.820  10.645
14345W        W79572  20.672   3.322  12.687
14346W        W79573  41.589  20.244   1.005
14347W        W79574  19.051  18.077  10.406
14348W        W79575   7.871   7.298   4.597
14349W        W79576  33.795  24.079  13.703
14350W        W79577  25.520   2.753   0.917
14351W        W79578   1.318  30.451  10.077
14352W        W79579  43.293   8.799   2.384
14353W        W79580   7.891  15.462  11.630
14354W        W79581  30.245  29.959   4.834
14355W        W79582  14.874  38.016  14.395
14356W        W79583  23.535  18.696  14.142
14357W        W79584  22.595  21.610   3.915
14358W        W79585  26.954  26.909  11.952
14359W        W79586  15.941   2.752   1.999
14360W        W79587  14.180  40.093   3.319
14361W        W79588  18.497  35.399  13.030
14362W        W79589  41.260  28.268   3.567
14363W        W79590  10.068   9.615   2.569
14364W        W79591  26.026  25.777   1.257
14365W        W79592  26.178  26.501  14.355
14366W        W79593   8.796   0.094  10.564
14367W        W79594   1.372   7.401   1.332
14368W        W79595  11.724  18.059  13.349
14369W        W79596   1.246   9.542   2.643
14370W        W79597  24.654  20.930   1.778
14371W        W79598  17.707  23.451  14.586
14372W        W79599  21.150  35.570  13.572
14373W        W79600  36.898  15.899  14.394
14374W        W79601  35.453  32.508   1.347
14375W        W79602  28.089  31.300   3.210
14376W        W79603  26.005  41.760   4.654
14377W        W79604  23.414   7.624  14.569
14378W        W79605  17.252  34.614   2.638
14379W        W79606  15.815  19.324   2.644
14380W        W79607  35.298   5.637   0.976
14381W        W79608  29.138  31.995   3.697
14382W        W79609  38.369  18.787   1.914
14383W        W79610  26.468  44.296   4.616
14384W        W79611   4.439   1.208  14.026
14385W        W79612  44.542   7.149   1.837
14386W        W79613  15.833  27.993  13.759
14387W        W79614   4.145  41.457   0.766
14388W        W79615  11.697  20.097   3.251
14389W        W79616  38.882   1.071   1.891
14390W        W79617  26.908   9.259  10.775
14391W        W79618  26.164  10.570  11.234
14392W        W79619  29.533   0.230   0.269
14393W        W79620  33.077  15.407  11.381
14394W        W79621   3.894  22.381   0.273
14395W        W79622  12.442  20.067  12.961
14396W        W79623  35.152   0.415   2.318
14397W        W79624  24.248   1.395   3.577
14398W        W79625   5.368  44.976   2.434
14399W        W79626   5.206  17.037   5.396
14400W        W79627  22.229  43.936   3.663
14401W        W79628  38.546  14.051  12.956
14402W        W79629  21.781  19.055   4.573
14403W        W79630   9.214  32.166   3.772
14404W        W79631  38.099  44.332  11.194
14405W        W79632   1.147  21.569   0.566
14406W        W79633  30.108   0.581  14.383
14407W        W79634  34.121  42.009   2.059
14408W        W79635  12.592   4.880   4.170
14409W        W79636  40.773  23.279   3.757
14410W        W79637  37.371  42.832   3.583
14411W        W79638  34.438  12.262   0.774
14412W        W79639  17.003  34.183   5.017
14413W        W79640  13.707  18.276  11.542
14414W        W79641   3.811  34.314  15.000
14415W        W79642  19.515  20.831   3.682
14416W        W79643  33.543  21.194  10.803
14417W        W79644  12.893  13.065   0.333
14418W        W79645  38.173  28.653   1.496
14419W        W79646  13.531  15.880   1.776
14420W        W79647  22.610  25.664  14.360
14421W        W79648  11.179   5.934  13.530
14422W        W79649  42.370   0.439   0.880
14423W        W79650   0.256   1.501  13.627
14424W        W79651  14.271  38.156  12.584
14425W        W79652  34.091  11.299   3.232
14426W        W79653  31.561  17.983   2.312
14427W        W79654  32.558  11.720  13.086
14428W        W79655  29.700  43.367   1.962
14429W        W79656  12.109   5.780   4.295
14430W        W79657  32.925  40.317  14.356
14431W        W79658  31.991  28.783  14.291
14432W        W79659  15.308  38.091   0.883
14433W        W79660  34.892  16.048  13.877
14434W        W79661   3.531   9.014   3.820
14435W        W79662  21.343  21.014  12.484
14436W        W79663  28.936  20.214   1.689
14437W        W79664  44.557  44.579  11.519
14438W        W79665   8.958   1.721   3.737
14439W        W79666   0.783  20.701   0.370
14440W        W79667  15.592  19.632  11.251
14441W        W79668  41.207  15.609   0.778
14442W        W79669  24.220  29.621  11.421
14443W        W79670  15.220   6.599  14.969
14444W        W79671  23.238   5.875   4.692
14445W        W79672  39.159  26.633   2.759
14446W        W79673   0.403  19.502  13.417
14447W        W79674  27.161  17.645   4.154
14448W        W79675  19.217  26.856  13.287
14449W        W79676  35.776  44.360  12.499
14450W        W79677   2.972   2.993   0.756
14451W        W79678  28.496  16.323  13.257
14452W        W79679   1.413  13.979   4.271
14453W        W79680   6.187  18.092  12.057
14454W        W79681  10.279  20.162   2.822
14455W        W79682  13.542  19.864   1.719
14456W        W79683  13.644  16.273   0.795
14457W        W79684  25.494   3.981   2.756
14458W        W79685  23.474   1.245  13.351
14459W        W79686  40.067  19.757   4.852
14460W        W79687   5.429  41.483   4.193
14461W        W79688  26.191  14.287  14.751
14462W        W79689  32.165   5.684   2.507
14463W        W79690  13.462  31.673  11.319
14464W        W79691   2.424   4.931   0.530
14465W        W79692   8.193  35.777  14.033
14466W        W79693   9.668  27.473   3.711
14467W        W79694  25.230  24.026   4.146
14468W        W79695   3.216  42.996   2.771
14469W        W79696  41.757  34.580   0.352
14470W        W79697  14.695  24.006  12.946
14471W        W79698  36.056  21.324   3.268
14472W        W79699   3.108  35.075   1.853
14473W        W79700  36.889   2.544   2.081
14474W        W79701  21.966  30.524   1.763
14475W        W79702   7.339  25.396   0.201
14476W        W79703  12.338   2.940  13.866
14477W        W79704  10.310  34.600  13.942
14478W        W79705   6.686  43.592   9.976
14479W        W79706  20.995   9.764   0.122
14480W        W79707  16.045  31.119   0.667
14481W        W79708  20.862  16.023   0.734
14482W        W79709  44.212   0.878  12.980
14483W        W79710  25.105  31.544  13.810
14484W        W79711  42.900   3.618  12.376
14485W        W79712  23.594   1.887  14.827
14486W        W79713   7.221  39.749   4.471
14487W        W79714  12.890  38.280   1.256
14488W        W79715  20.139  27.045  12.872
14489W        W79716  11.677   1.174   2.201
14490W        W79717  33.913  44.491   0.755
14491W        W79718   3.446  11.721  10.713
14492W        W79719   2.726  11.872   4.656
14493W        W79720  13.080  27.700   4.989
14494W        W79721  16.069  41.054   4.758
14495W        W79722  43.762  19.802   2.754
14496W        W79723  43.581  39.097  10.702
14497W        W79724  24.583   1.899   0.487
14498W        W79725  22.433  17.536   3.253
14499W        W79726  16.629  15.469  13.877
14500W        W79727  32.616  33.807   3.888
14501W        W79728   9.365  12.753   3.599
14502W        W79729  37.490  25.635   1.027
14503W        W79730  33.929  11.852  13.511
14504W        W79731  29.233   2.262   3.678
14505W        W79732  36.632  13.692   4.644
14506W        W79733  25.757   9.154  11.982
14507W        W79734   4.099  26.119  12.443
14508W        W79735  30.446  43.399  12.027
14509W        W79736  32.396  35.582   0.813
14510W        W79737  18.230  22.456  13.393
14511W        W79738  16.761  10.664  12.525
14512W        W79739  40.901   4.444   0.751
14513W        W79740  22.340  17.067   2.314
14514W        W79741  32.842  15.142  11.833
14515W        W79742  21.802   1.908  13.585
14516W        W79743  15.605  34.882   4.668
14517W        W79744  15.906  27.204   0.808
14518W        W79745   9.853  37.293  13.763
14519W        W79746  23.747  38.368  11.571
14520W        W79747  17.213  43.814  10.879
14521W        W79748   5.167   7.613   2.757
14522W        W79749   3.865  10.211  13.872
14523W        W79750  38.334  29.339  14.432
14524W        W79751   6.683   3.889  13.218
14525W        W79752  34.177  27.451  11.108
14526W        W79753  14.604  32.564   4.599
14527W        W79754  35.331  15.124   3.807
14528W        W79755  28.829  28.512  13.228
14529W        W79756   8.013   1.851   0.896
14530W        W79757  33.364  12.507   3.242
14531W        W79758   5.433   3.436   2.975
14532W        W79759  15.147  29.066  11.097
14533W        W79760  39.998  19.380   4.511
14534W        W79761  41.160  32.399   3.292
14535W        W79762  39.606  19.226  13.247
14536W        W79763  34.943  41.453  14.449
14537W        W79764  11.239  18.908   0.340
14538W        W79765  30.386  24.141   1.908
14539W        W79766  29.323  37.551  12.613
14540W        W79767   4.341  22.741   3.783
14541W        W79768  25.470  13.314  11.006
14542W        W79769  18.066  15.527   3.766
14543W        W79770  37.474  25.950  14.458
14544W        W79771  40.278  37.552  13.980
14545W        W79772  24.453  19.587   1.879
14546W        W79773  11.525  30.191  12.968
14547W        W79774  22.530  30.631  14.389
14548W        W79775  19.825  14.880   2.393
14549W        W79776  13.752  16.842   4.233
14550W        W79777  43.469  32.946  13.951
14551W        W79778  22.281   4.202  13.815
14552W        W79779   0.781   8.777   3.646
14553W        W79780  11.715  12.348   2.795
14554W        W79781   2.642  18.816   2.617
14555W        W79782  11.238   1.294  14.875
14556W        W79783  42.968  30.023  11.644
14557W        W79784  38.306  28.172  13.984
14558W        W79785   7.454   9.171   2.113
14559W        W79786  28.795   4.851   4.211
14560W        W79787  37.844  31.365   3.261
14561W        W79788  33.299  31.413  14.871
14562W        W79789  31.728  24.276   4.741
14563W        W79790   4.573  17.302   0.947
14564W        W79791  38.393  10.305  12.991
14565W        W79792  35.364  38.090  11.058
14566W        W79793  16.569   6.177   1.468
14567W        W79794  11.068  31.016   3.171
14568W        W79795   9.705  36.990   2.424
14569W        W79796   9.792  14.133   1.431
14570W        W79797  41.732  34.467  11.643
14571W        W79798   0.217   7.128  14.529
14572W        W79799   0.395   1.313  14.100
14573W        W79800   3.939   5.117  10.157
14574W        W79801   8.906  29.675   2.293
14575W        W79802  36.933  30.330   4.077
14576W        W79803   0.448   1.805   2.415
14577W        W79804  10.694  30.667   3.066
14578W        W79805  17.978  33.875   4.192
14579W        W79806  10.809   9.699  14.549
14580W        W79807   4.735  18.094   2.853
14581W        W79808   0.215  17.339  12.414
14582W        W79809  14.849   7.695  14.052
14583W        W79810  33.399  37.915  14.592
14584W        W79811  20.652  37.792   0.831
14585W        W79812  18.726  14.348   5.206
14586W        W79813  12.397  44.233   0.459
14587W        W79814  40.375  21.151  13.490
14588W        W79815  28.732   4.779   2.792
14589W        W79816  27.825  28.144  13.465
14590W        W79817  21.073  34.643  10.785
14591W        W79818  11.078   1.266  13.071
14592W        W79819  36.575  11.357  13.424
14593W        W79820  14.159   0.790   0.253
14594W        W79821  20.192  42.218  12.150
14595W        W79822   3.018  20.120  11.105
14596W        W79823  14.315  32.945   1.848
14597W        W79824  26.635   7.625  12.078
14598W        W79825  30.465  35.119   3.361
14599W        W79826  22.584   2.362  14.923
14600W        W79827  44.430  32.720   4.294
14601W        W79828  28.224   1.613  13.497
14602W        W79829  12.223  39.986  12.558
14603W        W79830  35.877  36.094  14.331
14604W        W79831  26.131   7.376  10.850
14605W        W79832  37.289  27.488  14.276
14606W        W79833   3.753  32.603  13.345
14607W        W79834  21.054  27.278   4.573
14608W        W79835  20.750  37.839   3.346
14609W        W79836  35.932  24.401   3.719
14610W        W79837  43.539  44.124  14.056
14611W        W79838  44.744   8.815  14.378
14612W        W79839  14.335   0.200  11.641
14613W        W79840  26.146   0.699   5.621
14614W        W79841  15.410  34.589  11.094
14615W        W79842  10.976   5.389   2.805
14616W        W79843   9.915   1.745  12.621
14617W        W79844  34.680  38.685   2.159
14618W        W79845  10.891  30.598  11.095
14619W        W79846  34.325   3.245  13.913
14620W        W79847  10.816  43.320  11.682
14621W        W79848  35.062  38.316  10.671
14622W        W79849  13.258  31.623  10.821
14623W        W79850  14.575  19.964  11.202
14624W        W79851  39.826  25.827   3.105
14625W        W79852  34.604  11.741   0.769
14626W        W79853  13.233  36.513   1.369
14627W        W79854  42.334  25.616  12.909
14628W        W79855  37.770   7.525  10.894
14629W        W79856  22.000   5.359   0.864
14630W        W79857  40.491  28.162  12.591
14631W        W79858  29.551  43.833   1.789
14632W        W79859   4.912  14.469   0.225
14633W        W79860  24.071  22.979  10.603
14634W        W79861  38.870  41.685   3.222
14635W        W79862  20.779  26.771  14.131
14636W        W79863  43.858   8.659  14.422
14637W        W79864  25.682  10.608   1.821
14638W        W79865   7.214  29.048  12.474
14639W        W79866   3.438   8.673  13.066
14640W        W79867  39.119   8.757  14.350
14641W        W79868   2.970  29.751  12.019
14642W        W79869  10.650   1.937  14.906
14643W        W79870  39.670  17.859  13.009
14644W        W79871  35.160  38.684  13.168
14645W        W79872   4.342  12.681   0.400
14646W        W79873  37.854  23.022  12.505
14647W        W79874   1.945  23.002  11.965
14648W        W79875  12.629  19.329  10.688
14649W        W79876  12.935  31.119   2.022
14650W        W79877  12.989  35.922   1.702
14651W        W79878  26.113   0.935  12.702
14652W        W79879  10.689  33.244  11.354
14653W        W79880  19.744  30.635   4.906
14654W        W79881  15.713  38.878  14.082
14655W        W79882   0.496  35.027  13.948
14656W        W79883   7.467  22.914  14.732
14657W        W79884  17.402   6.739  13.708
14658W        W79885   0.437  38.115  12.147
14659W        W79886  32.601  26.781   3.270
14660W        W79887  23.003  14.676  10.675
14661W        W79888  31.017  39.808   0.352
14662W        W79889   1.434  14.360  11.326
14663W        W79890  37.317  13.164   0.184
14664W        W79891   4.655  40.397  14.728
14665W        W79892   5.814  34.857  12.937
14666W        W79893  20.810  38.071  13.985
14667W        W79894  37.050  28.635   4.675
14668W        W79895  13.242   7.772   3.798
14669W        W79896  38.897  22.552  10.710
14670W        W79897  29.065  41.461  11.946
14671W        W79898  28.685  29.938   3.675
14672W        W79899   0.042   1.365   4.532
14673W        W79900  19.254  14.455   3.816
14674W        W79901  32.429  28.081   2.722
14675W        W79902  13.555  17.736   0.865
14676W        W79903   9.710  31.639   2.287
14677W        W79904  18.221  33.972   0.391
14678W        W79905   5.659   6.326   3.288
14679W        W79906  42.823  20.890   4.996
14680W        W79907  39.387  37.525  13.965
14681W        W79908   1.260  14.323   2.351
14682W        W79909  18.530  40.107  12.889
14683W        W79910  41.232  42.166  14.427
14684W        W79911   5.155   6.059   5.043
14685W        W79912  20.571  22.677  10.804
14686W        W79913  38.168  13.977   1.865
14687W        W79914  35.919  32.168  13.637
14688W        W79915  29.179  30.399   2.308
14689W        W79916  30.558  31.891  13.197
14690W        W79917  36.307  14.121   4.658
14691W        W79918  23.725  28.743  11.135
14692W        W79919   9.384  30.585   2.188
14693W        W79920  33.634  21.988   2.508
14694W        W79921  41.472  38.349  12.407
14695W        W79922  38.820   3.763  14.615
14696W        W79923  15.300  24.282   4.044
14697W        W79924  20.599  43.244  10.399
14698W        W79925  10.309  17.358   1.228
14699W        W79926  13.218  21.896   4.636
14700W        W79927  28.962  32.548   0.316
14701W        W79928  19.588  25.604   1.515
14702W        W79929   2.710  18.215   3.189
14703W        W79930  22.103  26.094   2.179
14704W        W79931  41.895  30.894   4.814
14705W        W79932  24.991  38.986   2.440
14706W        W79933  22.483  36.811  12.395
14707W        W79934  40.053  13.688   0.461
14708W        W79935   7.527   5.342   4.174
14709W        W79936   3.608  40.046  12.627
14710W        W79937  38.892  30.231   0.110
14711W        W79938  27.107  37.501  13.384
14712W        W79939   3.373  32.917  12.513
14713W        W79940   9.102  40.937  13.915
14714W        W79941  19.081  13.038  12.964
14715W        W79942  25.520   4.484   1.419
14716W        W79943   6.761  32.916  11.476
14717W        W79944  35.332  27.300   4.738
14718W        W79945  17.567   9.909  12.975
14719W        W79946  14.296  33.418  12.511
14720W        W79947  33.837  35.220  13.924
14721W        W79948  16.989  39.090  12.566
14722W        W79949  34.520  37.806   1.349
14723W        W79950  34.168  23.643   3.438
14724W        W79951  12.255  39.163  11.269
14725W        W79952  30.811  17.405  10.282
14726W        W79953  25.390  38.885  13.583
14727W        W79954  15.517  24.751  12.440
14728W        W79955   7.837  41.224  10.668
14729W        W79956  30.093  24.395   0.307
14730W        W79957  19.396  22.549  11.181
14731W        W79958  31.207  31.198  13.322
14732W        W79959  32.520   6.596  11.828
14733W        W79960  22.280   5.350  12.041
14734W        W79961  36.113  24.241  12.905
14735W        W79962  43.521  30.890   1.891
14736W        W79963  27.700   0.884  12.634
14737W        W79964  30.963  42.444   2.436
14738W        W79965  24.620  28.091   2.812
14739W        W79966   5.406  38.448  13.055
14740W        W79967   0.759  39.315  10.595
14741W        W79968  25.090  25.722   3.386
14742W        W79969  22.728   4.385   0.245
14743W        W79970  30.224  28.142  13.489
14744W        W79971  38.446  16.299   3.409
14745W        W79972  40.867  26.115  14.227
14746W        W79973   0.452  17.080   4.673
14747W        W79974  23.739  13.352   3.667
14748W        W79975  40.407  11.093  11.174
14749W        W79976  11.493   2.668  14.964
14750W        W79977   6.749  33.458   1.707
14751W        W79978  22.589  28.744   1.305
14752W        W79979  13.991  13.886  13.932
14753W        W79980  18.789  34.325   3.796
14754W        W79981  42.883  27.996  10.361
14755W        W79982   0.172   6.899   2.678
14756W        W79983  31.532   7.207   2.170
14757W        W79984   1.858  22.762   1.181
14758W        W79985  40.038  39.207  13.776
14759W        W79986   6.968  15.766   2.278
14760W        W79987  30.147  25.621   0.974
14761W        W79988  12.753   0.929   0.255
14762W        W79989  39.655  35.374  12.216
14763W        W79990   0.681  43.405   1.383
14764W        W79991  30.407  24.449   1.464
14765W        W79992  26.954  31.197  10.657
14766W        W79993  10.548  24.499   3.791
14767W        W79994  30.207  22.758  13.268
14768W        W79995  38.371  25.627   0.421
14769W        W79996  44.262  39.290   2.227
14770W        W79997  14.166  43.005  13.930
14771W        W79998  11.738  18.112   0.789
14772W        W79999  44.828  14.568   0.850
14773W        W80000  25.562   6.197   0.271
14774W        W80001  34.808   0.767   1.585
14775W        W80002  34.115  44.555   0.258
14776W        W80003  23.270  24.138   3.765
14777W        W80004   6.661  43.639  11.683
14778W        W80005  16.539  19.593  12.477
14779W        W80006  15.034  44.903   1.744
14780W        W80007  14.359  18.820  11.494
14781W        W80008  11.891  17.168  13.518
14782W        W80009  42.436  34.451   4.830
14783W        W80010  31.793   5.809   4.557
14784W        W80011  31.019  32.688  11.982
14785W        W80012  24.313   4.696  13.385
14786W        W80013  21.714  27.139  11.129
14787W        W80014  36.567  27.693   2.385
14788W        W80015  30.428  32.642  12.528
14789W        W80016  39.473  30.592  10.889
14790W        W80017  17.186  26.757   1.687
14791W        W80018  22.133  28.162   2.344
14792W        W80019  13.659  22.163  12.456
14793W        W80020  40.897  23.449   4.422
14794W        W80021  21.500  17.550  12.702
14795W        W80022  34.523  22.581   0.078
14796W        W80023  26.397  38.088   2.869
14797W        W80024  21.025  39.364  14.928
14798W        W80025   4.922  42.886   2.712
14799W        W80026  38.612  13.197  12.940
14800W        W80027  11.941   4.801   0.782
14801W        W80028  11.648  24.073  11.585
14802W        W80029   2.665  37.730   1.224
14803W        W80030  37.849   3.258   0.388
14804W        W80031  18.727  19.675   1.708
14805W        W80032  17.572   1.837  10.488
14806W        W80033   4.245  29.865   2.737
14807W        W80034  36.159  27.900   0.971
14808W        W80035  42.916  41.738  14.625
14809W        W80036   9.668  17.286   4.167
14810W        W80037  35.838  34.458   2.217
14811W        W80038  35.677  29.566   0.257
14812W        W80039   4.478   3.506   1.079
14813W        W80040  18.752  24.116   3.376
14814W        W80041   5.383   6.947   9.991
14815W        W80042  43.161  10.758   0.911
14816W        W80043  23.040  38.392   1.832
14817W        W80044  31.956  30.610   2.971
14818W        W80045  36.473  23.685   0.750
14819W        W80046   5.818  11.216   1.027
14820W        W80047  30.913  29.006   2.906
14821W        W80048  32.127  41.360  12.035
14822W        W80049  17.533   3.305   4.106
14823W        W80050   3.496  37.499   3.659
14824W        W80051  33.137  13.664   1.431
14825W        W80052  33.122   9.444   4.218
14826W        W80053   0.858  40.189  11.512
14827W        W80054  24.664  17.786  11.232
14828W        W80055   4.698  34.885   4.589
14829W        W80056  41.641   4.045  11.183
14830W        W80057  21.106  37.431  12.379
14831W        W80058  36.608  39.624  12.546
14832W        W80059  23.060   8.708  13.368
14833W        W80060  31.916  44.798   1.242
14834W        W80061  40.932  39.673  14.520
14835W        W80062  12.305  23.274  14.075
14836W        W80063   1.274  19.028  11.153
14837W        W80064  26.082  25.831  14.992
14838W        W80065  38.856  33.017   2.165
14839W        W80066  15.140   4.633  13.853
14840W        W80067  10.536   9.710   2.763
14841W        W80068  10.240  33.926  14.793
14842W        W80069  18.616  31.153   4.185
14843W        W80070   6.010  28.243   4.606
14844W        W80071  13.287  30.285  12.542
14845W        W80072  17.206  15.757   1.745
14846W        W80073   4.424   4.661   4.457
14847W        W80074  36.285  44.397   0.764
14848W        W80075   3.046  26.666   2.357
14849W        W80076   1.865  28.700   2.218
14850W        W80077  31.460  13.555  12.153
14851W        W80078  23.287   3.345   3.037
14852W        W80079   6.241  18.065  14.083
14853W        W80080  43.329  33.166  11.466
14854W        W80081  16.110  34.011   2.883
14855W        W80082  30.919  33.122  11.179
14856W        W80083  25.965   2.071  14.003
14857W        W80084   6.226   0.846   1.373
14858W        W80085   9.879  19.820   4.926
14859W        W80086  37.986  33.488   0.349
14860W        W80087  27.060  41.972   3.705
14861W        W80088  17.117  40.582   1.783
14862W        W80089  12.302  12.052   3.387
14863W        W80090  17.024  42.697  14.334
14864W        W80091   0.234  25.190   3.038
14865W        W80092  43.445  22.172   1.185
14866W        W80093   4.237  11.960   4.134
14867W        W80094  37.314  38.577  11.979
14868W        W80095   4.841   6.163   3.880
14869W        W80096   4.381  38.944  13.642
14870W        W80097  32.541  18.306   3.192
14871W        W80098  17.049  42.973  12.470
14872W        W80099  17.264  31.703   4.291
14873W        W80100  31.033  44.252  11.154
14874W        W80101  19.678  13.783  13.871
14875W        W80102  11.841  14.659  12.157
14876W        W80103  34.574  12.811   0.044
14877W        W80104  44.811  44.996  14.368
14878W        W80105  29.669  36.844   1.873
14879W        W80106   2.308   4.975  12.168
14880W        W80107  41.758  44.450  10.740
14881W        W80108  21.740   3.663  10.696
14882W        W80109  31.773  35.330   1.630
14883W        W80110  17.134  36.978   2.833
14884W        W80111   0.155  18.699  13.329
14885W        W80112  34.957  37.380  10.815
14886W        W80113  13.682  19.856  13.362
14887W        W80114  30.941  31.426   0.912
14888W        W80115  22.038  18.067  14.551
14889W        W80116  34.413  10.426  10.812
14890W        W80117  33.032  20.035  14.169
14891W        W80118  21.065   3.367  11.864
14892W        W80119  14.366  37.443  12.939
14893W        W80120  30.490  29.250   4.626
14894W        W80121   5.160  42.326  12.151
14895W        W80122  42.055   1.726   3.042
14896W        W80123  11.437   7.703   3.910
14897W        W80124  17.118  36.021  14.039
14898W        W80125   3.207  19.546   3.770
14899W        W80126  39.680   6.743   1.520
14900W        W80127   3.948  13.696  10.716
14901W        W80128  29.593  34.572   4.285
14902W        W80129  16.168  33.654   3.669
14903W        W80130  42.811  15.710  11.538
14904W        W80131   0.182  26.670   1.397
14905W        W80132   6.899  31.637   4.906
14906W        W80133  42.983   7.898   3.777
14907W        W80134  40.610  22.872  12.039
14908W        W80135  43.891   9.615  14.323
14909W        W80136  35.567   8.841  11.596
14910W        W80137  20.122   7.090   4.139
14911W        W80138  26.265   8.873   2.646
14912W        W80139  36.886  40.625   0.905
14913W        W80140  34.863  27.606   3.399
14914W        W80141  24.597  19.709  14.015
14915W        W80142   7.134   9.423   0.764
14916W        W80143  20.129  39.019   3.530
14917W        W80144  25.621   8.241  10.999
14918W        W80145  16.110  20.816  12.666
14919W        W80146  11.542  30.835   3.244
14920W        W80147  21.753   5.251  12.904
14921W        W80148  13.136   5.682   4.256
14922W        W80149  25.735   5.907  11.523
14923W        W80150   0.829  33.660  11.232
14924W        W80151  23.976  19.886  14.777
14925W        W80152  37.413  44.050   3.567
14926W        W80153  29.942  42.690  14.823
14927W        W80154  21.178  35.561  10.595
14928W        W80155   9.846  17.095   3.712
14929W        W80156  35.433   6.610  14.991
14930W        W80157  37.642  23.566  11.496
14931W        W80158   4.424  20.072   4.516
14932W        W80159  39.954  26.782  10.456
14933W        W80160  12.725   6.504  11.076
14934W        W80161  34.611  39.360  13.462
14935W        W80162  44.425   7.923  14.508
14936W        W80163  40.512  41.924   1.499
14937W        W80164  21.546  26.653  10.163
14938W        W80165   4.223  31.597   1.655
14939W        W80166  25.562  37.659  12.021
14940W        W80167  23.214  14.904   1.294
14941W        W80168   5.284  18.282   4.595
14942W        W80169   5.097  15.914   2.839
14943W        W80170  10.294  27.965  12.904
14944W        W80171   5.031  24.903   4.565
14945W        W80172   9.923  44.420  10.565
14946W        W80173  12.905  25.670   1.879
14947W        W80174   7.161  39.807  10.694
14948W        W80175  41.569  21.873  10.823
14949W        W80176   6.194  32.206   3.034
14950W        W80177  11.061  28.732   2.517
14951W        W80178  15.770  32.871  11.134
14952W        W80179   3.995  21.659  10.649
14953W        W80180  31.160   3.775   2.266
14954W        W80181  33.929  32.584   0.629
14955W        W80182  17.773  30.493  10.973
14956W        W80183  28.439  13.433  12.013
14957W        W80184  20.175   4.966  12.605
14958W        W80185  36.488  30.517   2.350
14959W        W80186  11.843   4.606  12.597
14960W        W80187  11.186  25.411   0.064
14961W        W80188  19.708  27.649   0.813
14962W        W80189  36.837  12.666   2.319
14963W        W80190   4.076   6.749  13.910
14964W        W80191  16.683  33.044   3.098
14965W        W80192  35.322  36.405   0.027
14966W        W80193  10.957  12.137  14.318
14967W        W80194  28.280  28.939   1.803
14968W        W80195  18.400  39.986  10.734
14969W        W80196  42.302   0.939  11.613
14970W        W80197  34.140  32.885  14.896
14971W        W80198   3.648  28.453   1.116
14972W        W80199   6.094  23.305   1.273
14973W        W80200  13.148  15.568  10.620
14974W        W80201  21.026  13.753   0.162
14975W        W80202  22.974  37.560   4.022
14976W        W80203  15.149  18.651   2.189
14977W        W80204   6.923  31.870  14.887
14978W        W80205  44.270  29.284   2.762
14979W        W80206   0.353  34.371  11.035
14980W        W80207  20.371   5.031   2.744
14981W        W80208  25.001  17.106   3.119
14982W        W80209  39.860  35.950   2.875
14983W        W80210  22.468   9.765   0.254
14984W        W80211  39.423  16.756   2.900
14985W        W80212  12.348  26.466   1.887
14986W        W80213  19.154  10.765   1.706
14987W        W80214  29.112  36.980   5.761
14988W        W80215  39.863  44.385  12.915
14989W        W80216  10.845  36.624   1.790
14990W        W80217  27.594  27.183   5.789
14991W        W80218  10.596  21.144  13.014
14992W        W80219  28.902   4.946  11.486
14993W        W80220  35.922  32.434  12.285
14994W        W80221   5.249   2.765  11.843
14995W        W80222  41.941  36.822  10.860
14996W        W80223   5.209  21.849  12.725
14997W        W80224   0.731  12.869   0.459
14998W        W80225   5.458  26.143  10.985
14999W        W80226   0.206   7.495  14.933
15000W        W80227  35.397  16.694  13.517
15001W        W80228   8.174   9.263  11.828
15002W        W80229  44.033  11.425   2.308
15003W        W80230  20.219   5.658   3.606
15004W        W80231  18.379  15.849  14.363
15005W        W80232  24.640  16.289   0.586
15006W        W80233  41.515  41.464  10.579
15007W        W80234   8.592  10.245   0.284
15008W        W80235  29.197  27.568   0.135
15009W        W80236  38.604  14.817   1.309
15010W        W80237   4.008   1.224  13.738
15011W        W80238   2.832   3.370  13.392
15012W        W80239  26.024  31.249  10.770
15013W        W80240  14.494   8.588  12.039
15014W        W80241  41.578  10.383   0.949
15015W        W80242  27.855  23.075  10.690
15016W        W80243   8.892  43.920  11.067
15017W        W80244  15.669  15.272  14.749
15018W        W80245  37.333  26.093  10.697
15019W        W80246  14.334  34.296  10.663
15020W        W80247  15.202  33.787   5.343
15021W        W80248  20.283  38.198   3.748
15022W        W80249  31.179   7.296   4.090
15023W        W80250   1.072  14.590  14.073
15024W        W80251   5.673  25.449   0.526
15025W        W80252  28.134   3.880   0.806
15026W        W80253  31.824  34.132  11.616
15027W        W80254  35.884   7.439  10.797
15028W        W80255  23.715  11.103   4.107
15029W        W80256  14.692   4.548  12.514
15030W        W80257  28.505  32.825  14.928
15031W        W80258   7.868  11.259  14.405
15032W        W80259  15.865  28.150  11.144
15033W        W80260  41.810  27.194   1.442
15034W        W80261   1.214  25.961  10.906
15035W        W80262  26.111  33.287   0.926
15036W        W80263  44.732  30.914   1.268
15037W        W80264   0.712   9.314   1.738
15038W        W80265   8.941  42.483   4.248
15039W        W80266  28.436   8.406  14.310
15040W        W80267  42.781  26.073   4.937
15041W        W80268   1.720  25.550   3.211
15042W        W80269  25.039  41.261  12.478
15043W        W80270  32.471  25.664   4.780
15044W        W80271  10.658  13.722   1.667
15045W        W80272   0.284   2.373   2.241
15046W        W80273   4.643  30.509  14.726
15047W        W80274  42.786  41.768   4.049
15048W        W80275  31.187  28.383  11.561
15049W        W80276   2.738  16.723   1.572
15050W        W80277  30.852   0.051   2.185
15051W        W80278   9.726  20.366   2.933
15052W        W80279  24.683  21.723   3.207
15053W        W80280  38.667  34.841  10.861
15054W        W80281  17.662  27.600  10.633
15055W        W80282  40.942  41.034  11.651
15056W        W80283   7.707  10.033  10.692
15057W        W80284  38.335  34.668  11.998
15058W        W80285  24.425  17.255  11.245
15059W        W80286  40.987  33.866   2.867
15060W        W80287  30.888  10.264   4.734
15061W        W80288  38.539   5.843   0.576
15062W        W80289  15.152  17.547  14.469
15063W        W80290  29.379  19.994  10.670
15064W        W80291  26.404   4.660   2.006
15065W        W80292  18.156   2.461   2.664
15066W        W80293   6.211  30.464   2.063
15067W        W80294  27.234  41.547  13.258
15068W        W80295  22.092   6.922  14.038
15069W        W80296  19.658  28.129  14.495
15070W        W80297  41.998  39.015   1.313
15071W        W80298  33.407  19.724  13.434
15072W        W80299  35.191  27.554  11.147
15073W        W80300  13.548  20.112   0.980
15074W        W80301   1.910  30.945   2.739
15075W        W80302  42.914  12.561  10.872
15076W        W80303  16.818  13.284  12.963
15077W        W80304  32.344  19.899  11.572
15078W        W80305  11.651   6.970   2.267
15079W        W80306  13.997  16.134   1.930
15080W        W80307  38.069   8.713   2.937
15081W        W80308  44.708  20.266   0.546
15082W        W80309  17.257  12.832   0.584
15083W        W80310  29.112  33.874  13.487
15084W        W80311   5.990  44.790  14.676
15085W        W80312  27.562  41.397  12.004
15086W        W80313  23.915   5.401   4.237
15087W        W80314  32.241  11.553   2.679
15088W        W80315  10.724   6.780  13.065
15089W        W80316   3.747  20.081   3.408
15090W        W80317  33.126  29.188  10.741
15091W        W80318  29.126  16.230  13.396
15092W        W80319   7.430  27.999   1.809
15093W        W80320   2.088  22.604  12.250
15094W        W80321  28.662  36.925   0.968
15095W        W80322  10.921   2.162   0.877
15096W        W80323  19.647  43.585   4.445
15097W        W80324   7.782  30.888   0.590
15098W        W80325  37.903   3.970  13.049
15099W        W80326  31.217  26.132   1.574
15100W        W80327  13.061  23.110   0.750
15101W        W80328  42.523  18.583  13.152
15102W        W80329  30.001  43.925   3.081
15103W        W80330  32.932  19.278  11.517
15104W        W80331  18.563  24.839  14.285
15105W        W80332  37.364   9.116   3.152
15106W        W80333   5.263   7.768   4.536
15107W        W80334  36.998  27.482   2.161
15108W        W80335   3.835  20.831   4.544
15109W        W80336  13.823  32.041   4.885
15110W        W80337   7.775   6.675   1.491
15111W        W80338  34.594   1.795  13.345
15112W        W80339  37.975  31.600  10.734
15113W        W80340  21.090   1.396   1.952
15114W        W80341  28.554  38.227  11.975
15115W        W80342   2.231  13.646   0.455
15116W        W80343  27.918  29.072   2.561
15117W        W80344  20.785  16.182   1.929
15118W        W80345  19.524   1.922   0.682
15119W        W80346  41.880  25.757  12.563
15120W        W80347  21.963  17.561  14.393
15121W        W80348  44.333  42.300   2.925
15122W        W80349  19.115   4.295  14.051
15123W        W80350  13.181  37.001  12.914
15124W        W80351  30.607  38.504   0.499
15125W        W80352  29.008  32.863   4.134
15126W        W80353  16.747   0.352   0.510
15127W        W80354  25.488  27.590   1.599
15128W        W80355  29.977  15.743  12.782
15129W        W80356  13.597  35.354   3.715
15130W        W80357  29.076  31.887  14.357
15131W        W80358  25.287   4.507  13.732
15132W        W80359   0.164  42.568  11.036
15133W        W80360  23.125   4.888  10.753
15134W        W80361  14.552  35.833  12.613
15135W        W80362   1.895  41.851   0.432
15136W        W80363  24.249   5.440   1.305
15137W        W80364   6.439  24.993   4.535
15138W        W80365  33.589   4.974  11.203
15139W        W80366  20.744  30.341  10.766
15140W        W80367  38.037   2.968  13.890
15141W        W80368  43.479  41.160   2.794
15142W        W80369   1.671  11.689  11.264
15143W        W80370  22.705  18.075   1.459
15144W        W80371  43.992  18.065  12.724
15145W        W80372  13.796   2.690  12.675
15146W        W80373  39.552  18.533  14.344
15147W        W80374  24.617  25.404   3.760
15148W        W80375   3.613   0.605  10.702
15149W        W80376  18.473  42.376   3.045
15150W        W80377  32.471  28.514  13.441
15151W        W80378  25.067  40.804   3.223
15152W        W80379  41.498  26.721  12.609
15153W        W80380   1.195  21.226   3.066
15154W        W80381  37.544   6.491  11.950
15155W        W80382  10.755   9.166  12.702
15156W        W80383  39.424  15.284  14.758
15157W        W80384   4.359  39.505  13.948
15158W        W80385  36.420  35.967  14.465
15159W        W80386  22.959  36.357  11.552
15160W        W80387  10.132  36.623   4.555
15161W        W80388  26.222  31.021   3.872
15162W        W80389  25.682   1.216  14.353
15163W        W80390   0.222  28.618   2.630
15164W        W80391  26.511  43.127  12.256
15165W        W80392   7.324   3.747  12.436
15166W        W80393   5.049  28.742   2.713
15167W        W80394  12.524  17.232   9.909
15168W        W80395  18.611   9.029  12.506
15169W        W80396  44.989  19.114   1.203
15170W        W80397  41.017  16.788   2.096
15171W        W80398  30.654  17.962  11.346
15172W        W80399   5.626  13.216  12.365
15173W        W80400   1.006  41.807   4.224
15174W        W80401  12.909  30.015  12.313
15175W        W80402  34.014  15.706   4.791
15176W        W80403  12.849  13.536  12.245
15177W        W80404  18.810   5.172   1.340
15178W        W80405  29.679  39.309  11.399
15179W        W80406  20.426  10.571   1.044
15180W        W80407  37.890  12.280   2.870
15181W        W80408  41.316  39.937  12.549
15182W        W80409  15.061   9.966  13.898
15183W        W80410   2.783  17.539  11.200
15184W        W80411  37.711  21.279   0.370
15185W        W80412   8.046   2.802  10.492
15186W        W80413  19.236   8.645  13.509
15187W        W80414  42.489  26.003   1.624
15188W        W80415  38.479  34.537  13.330
15189W        W80416   3.420  24.474   3.322
15190W        W80417  18.846   4.255   4.518
15191W        W80418  41.999  27.969  13.812
15192W        W80419  17.068  24.150  14.257
15193W        W80420  31.153   4.404  10.474
15194W        W80421  28.846   5.210  14.684
15195W        W80422   4.202  44.514  13.566
15196W        W80423   7.089   7.979  11.666
15197W        W80424  40.782   1.504  11.684
15198W        W80425  28.958   2.442   0.464
15199W        W80426   5.426  21.039   3.261
15200W        W80427  11.799  13.885  10.347
15201W        W80428  36.967  18.066   1.179
15202W        W80429   4.283  15.547   3.858
15203W        W80430  21.753  15.743  13.971
15204W        W80431  43.771  10.249  14.874
15205W        W80432  26.698  40.835   3.194
15206W        W80433   1.914  41.345  14.749
15207W        W80434   9.589  22.168  11.741
15208W        W80435  25.156  16.836  14.014
15209W        W80436  24.986  29.108   1.194
15210W        W80437  14.762  13.991   0.274
15211W        W80438  19.101  15.550  12.608
15212W        W80439  29.497  29.870  11.530
15213W        W80440  32.939   5.375   2.751
15214W        W80441  14.471  16.219   1.338
15215W        W80442  18.373  22.269  13.873
15216W        W80443  31.957  25.609   1.231
15217W        W80444  23.481  35.394   4.359
15218W        W80445  13.744   1.212  12.883
15219W        W80446  33.450  44.538   3.802
15220W        W80447  43.304  43.067   3.639
15221W        W80448  43.430  41.149   0.830
15222W        W80449   9.038  11.304   2.090
15223W        W80450  21.077  13.190  11.099
15224W        W80451  27.656  39.983  11.477
15225W        W80452  41.860   0.954  14.292
15226W        W80453  44.717  10.843   2.203
15227W        W80454   6.805  15.421  12.963
15228W        W80455  35.049  38.818  10.599
15229W        W80456  29.192  25.695   2.897
15230W        W80457  36.761  39.031   1.826
15231W        W80458  24.063  25.712   0.485
15232W        W80459  37.909  43.949  13.947
15233W        W80460  41.404  33.753   2.229
15234W        W80461  26.140  30.085  13.967
15235W        W80462  30.550  26.408  11.182
15236W        W80463  22.320  38.890   0.535
15237W        W80464  25.663  31.008   0.464
15238W        W80465  12.030   3.540  11.176
15239W        W80466   6.528  35.371   1.959
15240W        W80467   7.636  31.345  11.248
15241W        W80468  39.637  12.901   3.900
15242W        W80469  31.116  43.962  13.002
15243W        W80470   2.008  22.620   2.054
15244W        W80471  33.187  24.644   2.744
15245W        W80472  32.168   1.018  11.935
15246W        W80473  32.057  22.249   0.892
15247W        W80474  13.798   8.310   1.926
15248W        W80475  12.122  25.480  11.655
15249W        W80476  26.149  32.875  12.958
15250W        W80477   7.908   8.554  10.759
15251W        W80478   5.683  39.924   2.760
15252W        W80479  34.024  26.123  10.171
15253W        W80480   1.155   0.023  14.983
15254W        W80481  16.580  25.462  11.457
15255W        W80482  18.041   8.923  11.431
15256W        W80483  20.588  30.490   1.637
15257W        W80484  42.251  12.687  10.509
15258W        W80485   1.653  32.850   4.190
15259W        W80486  14.565  10.861  14.360
15260W        W80487  34.628  38.194   2.828
15261W        W80488   6.872   4.794  14.895
15262W        W80489   9.296   4.862   4.045
15263W        W80490  35.412  43.648   1.356
15264W        W80491  39.888  14.626   1.397
15265W        W80492   0.301   9.357  14.927
15266W        W80493  28.637   6.426   3.775
15267W        W80494  30.962  35.580   4.660
15268W        W80495   5.423   6.738   4.455
15269W        W80496   8.291   3.567   2.885
15270W        W80497  33.944  29.240  12.531
15271W        W80498  42.672  19.506   3.404
15272W        W80499  22.479  18.210   1.921
15273W        W80500  32.074  26.522   1.290
15274W        W80501  16.202  43.646  12.342
15275W        W80502  23.738   2.112   0.323
15276W        W80503  30.414  20.486  12.754
15277W        W80504  15.900  34.351   2.224
15278W        W80505  16.268  13.750   4.750
15279W        W80506   4.754   9.720   1.755
15280W        W80507  30.012  38.057   1.354
15281W        W80508  31.887   4.028   4.384
15282W        W80509  29.903   3.427   3.119
15283W        W80510  32.500  44.823   4.691
15284W        W80511   8.367  36.147   1.050
15285W        W80512  16.502  13.798   3.288
15286W        W80513  21.582   8.179  13.917
15287W        W80514  11.354  39.412  13.956
15288W        W80515  35.363  10.168   1.763
15289W        W80516   6.721  19.704  12.564
15290W        W80517   9.154  12.312  13.840
15291W        W80518  41.939  44.816   1.862
15292W        W80519   5.886  39.964   2.272
15293W        W80520  29.571  24.174   0.850
15294W        W80521  19.732  11.359  11.926
15295W        W80522  21.023   7.705   1.942
15296W        W80523  10.365  18.717  10.915
15297W        W80524   1.419  20.066  14.779
15298W        W80525  30.656   2.134  13.726
15299W        W80526   8.875  22.951  14.873
15300W        W80527  11.226  20.599  13.769
15301W        W80528  10.783  21.108   1.876
15302W        W80529  26.972  19.169  10.785
15303W        W80530   0.262  41.570   0.248
15304W        W80531   3.610  25.902  12.475
15305W        W80532  42.650  41.425  12.383
15306W        W80533  17.009  16.305  14.400
15307W        W80534   1.433   4.231  11.284
15308W        W80535  41.615   8.990   4.936
15309W        W80536   9.695  11.636   4.136
15310W        W80537   9.615  24.258  14.369
15311W        W80538  13.578  39.905  12.720
15312W        W80539  43.886  13.380   3.149
15313W        W80540   5.076  17.262   1.229
15314W        W80541   7.327  32.089  11.245
15315W        W80542  27.479  29.515  14.930
15316W        W80543  36.834  25.234  10.426
15317W        W80544   6.704  24.275  11.421
15318W        W80545  26.326  44.758   0.065
15319W        W80546  13.724   4.108  12.765
15320W        W80547  38.177  10.278  12.326
15321W        W80548  36.486  23.771  14.671
15322W        W80549   7.784  20.842   3.058
15323W        W80550  13.692  18.129   1.178
15324W        W80551  21.700  23.654  12.252
15325W        W80552  40.267  21.665  12.818
15326W        W80553  25.341  44.679   2.153
15327W        W80554  38.583  30.489  12.013
15328W        W80555  12.665  17.148   1.207
15329W        W80556  39.820   4.371   3.675
15330W        W80557  10.782  24.651  14.342
15331W        W80558  19.838  30.041   0.684
15332W        W80559  19.361  15.167   0.258
15333W        W80560  23.223  34.165   4.662
15334W        W80561  10.556  20.095  12.928
15335W        W80562  34.913   2.226  13.381
15336W        W80563  29.643  44.702  10.825
15337W        W80564  10.013  30.492   5.075
15338W        W80565  26.088  38.313  11.491
15339W        W80566  32.729  32.501   4.105
15340W        W80567  36.064   9.796  10.670
15341W        W80568   3.142  40.848  12.987
15342W        W80569   7.775  17.086  13.908
15343W        W80570  36.873  19.851   2.597
15344W        W80571   0.471   9.181   0.430
15345W        W80572  28.060  20.209   2.186
15346W        W80573  26.480  19.298  11.098
15347W        W80574  19.422   4.006   3.836
15348W        W80575  37.873  35.790  10.524
15349W        W80576  17.699  17.317   1.066
15350W        W80577  26.392   5.620   0.538
15351W        W80578  38.400   8.128  11.529
15352W        W80579  12.090  18.555  12.668
15353W        W80580  12.961   6.044   3.006
15354W        W80581  37.162  33.043  14.993
15355W        W80582  28.007  31.501  13.351
15356W        W80583   5.354  21.638   1.632
15357W        W80584  42.751  24.792  12.409
15358W        W80585  28.155  36.541   4.927
15359W        W80586  19.020  36.391  14.270
15360W        W80587  40.068   6.967  11.690
15361W        W80588  28.243  33.913  10.399
15362W        W80589   2.313  18.320   1.352
15363W        W80590  27.518  13.107  10.639
15364W        W80591  23.627  30.062  13.498
15365W        W80592   4.921   0.259   4.520
15366W        W80593  41.763  12.252   0.487
15367W        W80594  43.134  40.952  14.682
15368W        W80595  11.399  30.654  11.178
15369W        W80596  34.671   6.687   2.264
15370W        W80597   0.670   7.697   2.692
15371W        W80598   1.937   3.617   4.821
15372W        W80599  31.917  16.868  11.957
15373W        W80600   7.798  12.714   2.389
15374W        W80601  28.889  10.394  14.892
15375W        W80602   0.136  43.838   3.339
15376W        W80603  26.026  24.695   0.812
15377W        W80604  14.352  39.050   0.856
15378W        W80605  33.385  29.652  10.800
15379W        W80606  27.092  39.162  14.824
15380W        W80607  18.610   1.517  13.956
15381W        W80608  41.383  20.688   0.770
15382W        W80609  33.785   1.278   0.807
15383W        W80610  25.138   8.645   1.720
15384W        W80611  32.068  34.828   2.605
15385W        W80612  14.061  30.910  11.500
15386W        W80613  20.832  32.149   4.997
15387W        W80614  16.491  42.907   4.155
15388W        W80615  33.063   3.923  11.885
15389W        W80616  20.029  15.798   2.799
15390W        W80617   4.010  40.487   0.737
15391W        W80618  39.757  31.498   2.364
15392W        W80619   3.112  24.687   4.510
15393W        W80620   3.353  12.236   1.807
15394W        W80621  30.982   2.883  12.660
15395W        W80622  13.197  43.941   0.926
15396W        W80623  34.881  16.035  13.007
15397W        W80624   3.858  43.598  12.849
15398W        W80625  34.444  31.920  13.591
15399W        W80626  39.816  37.837   0.221
15400W        W80627  43.778   3.045  14.058
15401W        W80628  25.758  12.224  12.072
15402W        W80629  11.316  34.460  12.397
15403W        W80630  36.950  42.058   4.100
15404W        W80631  22.087  34.584  12.186
15405W        W80632   0.972  22.900  12.948
15406W        W80633   0.655  41.932   3.297
15407W        W80634   5.048  37.331   5.081
15408W        W80635  34.041  18.342  12.154
15409W        W80636  26.374  20.266  11.225
15410W        W80637   8.401   4.485  12.100
15411W        W80638  10.026  23.053  10.697
15412W        W80639   1.391  12.424   2.132
15413W        W80640  18.508   5.988  13.211
15414W        W80641  17.939  26.176   2.959
15415W        W80642  19.908   5.824  14.010
15416W        W80643   6.332   8.174  11.555
15417W        W80644  36.033   0.242   2.648
15418W        W80645  22.624  42.202  12.500
15419W        W80646   8.058  38.311   3.670
15420W        W80647  35.823  16.419  13.732
15421W        W80648  33.996  17.525  11.589
15422W        W80649  32.518  43.511  14.427
15423W        W80650  23.717  22.601   3.348
15424W        W80651  30.370  33.631   1.899
15425W        W80652   6.185  17.182  14.553
15426W        W80653  19.154  42.553  13.380
15427W        W80654  23.388  36.008  12.000
15428W        W80655  20.164  18.391   4.527
15429W        W80656  27.638  15.165   4.732
15430W        W80657  18.277  19.610  13.068
15431W        W80658  12.692  29.783  10.258
15432W        W80659  44.944  10.789   0.305
15433W        W80660   7.893  25.302  11.272
15434W        W80661  20.691   4.048  11.872
15435W        W80662   8.004  11.184   3.225
15436W        W80663  23.121  27.538  11.148
15437W        W80664  32.000   9.215  10.879
15438W        W80665  28.748  23.987   0.070
15439W        W80666   1.001  40.753  12.474
15440W        W80667  26.585  40.582   0.461
15441W        W80668  34.382  33.431  13.398
15442W        W80669  17.242  39.339   0.321
15443W        W80670   3.336  20.942   3.691
15444W        W80671  22.031  43.402   4.880
15445W        W80672  26.132  11.162   1.494
15446W        W80673  36.967  32.669   2.418
15447W        W80674   8.222  21.574   3.021
15448W        W80675  43.820  34.608   3.432
15449W        W80676   7.387  25.374  14.323
15450W        W80677  11.157  34.813  13.193
15451W        W80678  26.944  15.598  13.562
15452W        W80679  26.054  31.956  12.508
15453W        W80680  33.298  27.170   9.979
15454W        W80681  44.594  17.271  12.827
15455W        W80682  22.520  42.736  10.630
15456W        W80683  12.510  43.372   2.211
15457W        W80684   6.887  34.014  10.680
15458W        W80685  11.024  24.512   3.993
15459W        W80686   8.175  18.414   4.119
15460W        W80687   1.269  15.733  14.734
15461W        W80688   9.377   2.138   1.319
15462W        W80689  15.439  44.513   2.401
15463W        W80690  18.324   2.323  10.555
15464W        W80691  43.596  31.627   1.279
15465W        W80692  14.064  18.953   2.477
15466W        W80693  22.522  20.786   2.674
15467W        W80694  12.925  34.693  11.435
15468W        W80695  40.519  36.447   2.269
15469W        W80696  35.541  20.458  11.525
15470W        W80697  32.736  44.265  12.369
15471W        W80698  21.159  11.593  13.515
15472W        W80699  42.631  10.991   4.087
15473W        W80700   3.217   4.822  13.886
15474W        W80701  19.728  34.744   1.797
15475W        W80702  25.514   0.990   3.363
15476W        W80703  26.932  37.934  11.652
15477W        W80704  15.109  38.530   2.744
15478W        W80705  19.374  23.360  11.053
15479W        W80706  24.287  42.044   3.110
15480W        W80707  31.033  30.884   0.247
15481W        W80708  13.155  40.891  11.415
15482W        W80709  12.195  26.555  14.986
15483W        W80710  21.722   7.943   3.632
15484W        W80711  32.307   1.330   3.157
15485W        W80712  20.061   5.880   2.684
15486W        W80713  36.832   6.129  11.986
15487W        W80714  36.100  41.584   1.861
15488W        W80715  17.995  10.686  10.565
15489W        W80716  20.754   4.757  10.311
15490W        W80717  15.861   4.876  14.986
15491W        W80718  18.420  40.330  12.458
15492W        W80719  25.683  28.148   0.329
15493W        W80720  23.596  22.890  12.593
15494W        W80721   1.356  14.248   3.707
15495W        W80722  18.986  13.241  14.861
15496W        W80723  27.608   3.676  13.498
15497W        W80724  30.022  32.987   1.193
15498W        W80725  26.646  18.696   1.237
15499W        W80726  16.626  11.464   4.207
15500W        W80727   4.468   5.231  13.501
15501W        W80728  23.767   7.179  14.350
15502W        W80729  13.196   0.927   0.525
15503W        W80730   3.241  26.376  11.338
15504W        W80731  44.951  31.705   3.592
15505W        W80732   2.983  32.446  11.229
15506W        W80733  17.199  11.375  12.928
15507W        W80734  13.341   7.200   0.384
15508W        W80735  23.363  24.650  14.756
15509W        W80736  15.024  26.680  12.685
15510W        W80737   1.543  40.319   3.330
15511W        W80738  35.003  26.647  14.904
15512W        W80739  19.086   4.250   3.526
15513W        W80740   1.055  12.384   4.102
15514W        W80741   0.813  10.266   0.789
15515W        W80742  44.849  20.402   1.425
15516W        W80743   6.827  27.838   1.213
15517W        W80744  19.325  14.189  12.999
15518W        W80745  17.272   1.200  10.780
15519W        W80746  28.696  18.212  14.724
15520W        W80747  25.435  38.272   0.775
15521W        W80748  12.392  33.526  13.709
15522W        W80749  36.542   9.246   3.644
15523W        W80750  21.557  29.249   0.489
15524W        W80751  20.749   6.525  10.660
15525W        W80752  40.027  40.294   0.390
15526W        W80753  27.881   5.241   4.366
15527W        W80754  26.098  43.332  10.412
15528W        W80755  29.717  30.597   3.132
15529W        W80756   1.027  23.888   1.410
15530W        W80757  40.622  23.200   0.282
15531W        W80758  19.717  13.271   2.345
15532W        W80759  28.663   8.610  11.970
15533W        W80760  43.394  23.010  11.335
15534W        W80761  22.304   2.787  12.290
15535W        W80762  20.509  42.753  12.948
15536W        W80763  27.909  40.883   0.482
15537W        W80764   8.786  43.461  13.865
15538W        W80765  25.949  12.613   4.751
15539W        W80766  30.675   0.356   2.794
15540W        W80767   5.437  31.344  11.525
15541W        W80768   0.327   8.876   1.556
15542W        W80769  28.000  44.309  14.367
15543W        W80770  36.832   1.871   3.967
15544W        W80771  26.411   4.670  11.568
15545W        W80772   1.149  15.915  11.115
15546W        W80773  27.800  44.981  12.543
15547W        W80774  18.220   1.639  14.880
15548W        W80775  26.734  21.013   2.403
15549W        W80776  40.050  43.887   0.843
15550W        W80777  31.741  29.972  12.269
15551W        W80778  41.462   7.337   4.381
15552W        W80779  26.666  30.631  12.817
15553W        W80780  26.904   3.706   3.995
15554W        W80781  44.968   6.140   1.024
15555W        W80782   9.777  28.538  14.466
15556W        W80783  14.556  27.578  14.185
15557W        W80784   0.619  34.914  11.121
15558W        W80785   0.221  13.464   0.472
15559W        W80786  40.454  10.579  13.890
15560W        W80787  41.352  37.966   1.435
15561W        W80788  36.304  11.802  13.410
15562W        W80789  21.783  32.168  13.961
15563W        W80790  30.789  32.614  13.806
15564W        W80791  13.199  16.705  14.541
15565W        W80792  11.260  34.004  13.257
15566W        W80793  40.191  26.213  12.576
15567W        W80794   9.736  26.297  11.121
15568W        W80795  35.455   9.096  14.050
15569W        W80796  34.021  13.916   4.017
15570W        W80797   2.446  15.231   3.679
15571W        W80798  38.808  31.548  13.358
15572W        W80799   3.616  13.112  13.507
15573W        W80800  17.790   5.783  14.599
15574W        W80801  14.660  23.139  12.708
15575W        W80802  26.116  19.583  13.528
15576W        W80803  36.100   1.187  14.515
15577W        W80804  43.281  32.275   4.965
15578W        W80805   7.876  40.520  13.388
15579W        W80806   4.661  29.249   4.248
15580W        W80807  37.894   9.468   4.483
15581W        W80808  29.553  23.612  11.982
15582W        W80809  22.702   0.289   0.066
15583W        W80810   5.194   1.521   4.450
15584W        W80811  28.088   0.113  11.499
15585W        W80812   1.458  38.460  10.479
15586W        W80813  32.093  14.710   2.819
15587W        W80814  34.464   2.485   0.051
15588W        W80815  31.366   5.808  11.972
15589W        W80816  44.805  44.302  11.883
15590W        W80817   7.617  10.763   0.551
15591W        W80818  13.166  39.505   1.292
15592W        W80819  14.793  10.656   4.473
15593W        W80820  44.829   9.290   0.928
15594W        W80821  18.519  38.036  14.385
15595W        W80822  25.155   1.478   2.661
15596W        W80823  44.295  23.514  11.421
15597W        W80824  30.507   8.242  11.702
15598W        W80825  29.146  32.655   0.802
15599W        W80826  28.718  41.028  14.823
15600W        W80827  28.013  17.548   1.171
15601W        W80828  43.853   6.449   0.469
15602W        W80829  15.812  17.877  12.284
15603W        W80830  39.906  19.003   4.149
15604W        W80831  33.552  23.113   1.768
15605W        W80832  23.347  44.615   4.513
15606W        W80833   1.371  21.546  11.623
15607W        W80834  22.132  12.084  14.828
15608W        W80835  35.480   4.435  12.021
15609W        W80836  40.855   1.837  14.920
15610W        W80837   2.410   2.963   4.517
15611W        W80838  32.496  22.090   3.754
15612W        W80839  29.473  22.757   3.235
15613W        W80840  43.956  17.372   0.400
15614W        W80841  34.987  40.883   1.428
15615W        W80842  37.295  30.432  13.449
15616W        W80843  39.474  11.088   0.029
15617W        W80844  21.935  16.869   0.509
15618W        W80845  22.164  44.633  10.757
15619W        W80846  22.239  11.786   2.148
15620W        W80847  18.680   4.760  12.447
15621W        W80848   0.090   0.898   1.752
15622W        W80849  41.837   5.711  14.388
15623W        W80850  23.361  38.979  12.789
15624W        W80851  35.104  42.865   4.188
15625W        W80852  32.309  23.320  11.100
15626W        W80853  39.512  35.525   0.475
15627W        W80854  28.339   6.739  10.995
15628W        W80855  26.284   2.497  13.980
15629W        W80856  14.902  24.085   2.238
15630W        W80857  32.460  23.581  11.507
15631W        W80858  29.138  32.920  13.232
15632W        W80859  24.162  18.755  10.687
15633W        W80860  10.441   3.863   4.601
15634W        W80861  28.087   3.103  13.485
15635W        W80862  17.200  22.681  14.212
15636W        W80863  33.506  17.073   4.496
15637W        W80864  36.908  42.541   2.825
15638W        W80865   3.172  11.072   0.463
15639W        W80866  15.148   5.666  12.960
15640W        W80867  10.090  25.667  13.662
15641W        W80868  17.808   6.309   4.095
15642W        W80869  18.170  43.929   2.067
15643W        W80870   5.182  19.674  11.823
15644W        W80871  29.541  11.859   2.315
15645W        W80872   7.929   8.181   2.205
15646W        W80873  43.717  12.355   0.601
15647W        W80874  31.513  29.166  12.994
15648W        W80875  42.598  31.161   2.672
15649W        W80876  20.213  34.173   2.380
15650W        W80877  42.947  32.648  13.319
15651W        W80878  28.565  12.905   0.324
15652W        W80879  34.470  44.975  13.441
15653W        W80880  20.700  33.979   2.280
15654W        W80881  17.518   1.904   1.123
15655W        W80882  27.994  28.460   9.715
15656W        W80883   9.103  44.565   3.727
15657W        W80884   0.548  29.985  11.859
15658W        W80885  23.236  35.190  13.941
15659W        W80886   6.165  40.618   0.670
15660W        W80887  14.830  28.702  13.178
15661W        W80888   6.339  23.273   0.768
15662W        W80889  38.428  16.173  13.412
15663W        W80890   5.532  35.152  11.184
15664W        W80891  28.456  41.728   1.188
15665W        W80892  33.421  15.729   0.931
15666W        W80893  35.493   4.610   2.881
15667W        W80894  12.179   4.149   0.399
15668W        W80895   6.472  30.646  10.547
15669W        W80896  14.144   4.987   4.427
15670W        W80897  24.983  27.641  11.592
15671W        W80898  44.965   1.396   0.827
15672W        W80899  10.172  31.868  11.928
15673W        W80900  23.732  23.189  14.048
15674W        W80901   2.217  37.456   4.118
15675W        W80902  23.239  22.732   3.602
15676W        W80903   2.426  31.476  13.543
15677W        W80904  28.716   3.931  14.439
15678W        W80905  41.021  38.833   0.417
15679W        W80906  21.245   1.814   0.311
15680W        W80907  28.949  43.980  11.172
15681W        W80908  34.577  20.256  10.781
15682W        W80909  11.986  38.466  13.546
15683W        W80910  43.827  42.468   2.132
15684W        W80911  30.949  41.931   4.925
15685W        W80912  34.498  23.175  10.903
15686W        W80913   4.776  35.954  14.863
15687W        W80914  19.535  21.258  13.025
15688W        W80915  41.829   6.962  12.168
15689W        W80916  28.052  40.431   3.270
15690W        W80917  31.436   6.851  12.493
15691W        W80918   3.872  20.431  11.138
15692W        W80919  17.713  16.319  14.969
15693W        W80920  35.006   4.609  12.043
15694W        W80921  38.844  44.409   1.656
15695W        W80922   0.568  31.136  13.125
15696W        W80923   6.186  39.323   3.587
15697W        W80924  20.151  43.801   1.114
15698W        W80925  15.105  20.851   3.063
15699W        W80926  16.569  33.422   1.745
15700W        W80927  37.625  42.376   3.638
15701W        W80928  32.029  35.664   5.489
15702W        W80929  25.623  36.001   5.143
15703W        W80930   9.867   0.940  12.949
15704W        W80931  22.617  30.397   0.758
15705W        W80932  16.102  32.378   4.549
15706W        W80933   9.384  23.777   3.713
15707W        W80934   8.439   6.187  14.815
15708W        W80935  42.025  27.244   2.303
15709W        W80936  25.188   9.865   2.634
15710W        W80937  17.604  38.539  14.529
15711W        W80938  16.587  13.626   2.391
15712W        W80939  32.464  19.812   3.367
15713W        W80940   0.346  18.141   4.589
15714W        W80941  29.283  27.946  12.509
15715W        W80942  40.399  18.266  14.361
15716W        W80943  43.571  21.611   1.502
15717W        W80944  37.070  44.890   3.194
15718W        W80945  38.029  34.296   0.778
15719W        W80946  44.323  18.253  13.966
15720W        W80947  26.543  30.669  11.292
15721W        W80948  16.880  35.518   0.067
15722W        W80949  28.234  23.930  12.082
15723W        W80950  21.246  43.860   3.663
15724W        W80951  32.124  43.390  11.127
15725W        W80952   4.779  15.682  12.363
15726W        W80953  15.445  43.364  12.015
15727W        W80954  43.810  37.730  10.663
15728W        W80955  19.535  20.399  11.074
15729W        W80956  20.137  10.572  11.143
15730W        W80957   3.761  33.766  13.848
15731W        W80958   0.307  23.757   3.361
15732W        W80959   5.393  11.312  12.028
15733W        W80960   5.982  25.810  12.486
15734W        W80961  10.872   4.710   3.387
15735W        W80962  31.983  22.753   0.917
15736W        W80963   0.207  20.061   3.200
15737W        W80964  36.666  32.900   2.791
15738W        W80965   0.672  28.856   0.653
15739W        W80966   2.674   3.459  11.287
15740W        W80967  35.956  26.467   0.057
15741W        W80968   5.306  10.330  12.606
15742W        W80969   6.736  10.645   3.166
15743W        W80970  42.949  11.695  13.963
15744W        W80971   8.897  30.058  14.935
15745W        W80972  42.078  38.588   2.269
15746W        W80973   9.378  30.617   0.474
15747W        W80974  41.330  16.313  13.840
15748W        W80975  21.758   6.576   2.791
15749W        W80976  27.460  40.876  12.091
15750W        W80977  17.768   3.025  14.677
15751W        W80978  33.011  16.737   0.346
15752W        W80979   4.859  10.604   4.870
15753W        W80980   6.646  30.616  14.427
15754W        W80981  37.587   2.998  12.420
15755W        W80982  17.728   7.823   4.087
15756W        W80983   9.534  14.142  13.967
15757W        W80984  33.547   8.145   4.105
15758W        W80985  41.604  27.563  12.454
15759W        W80986  12.318  35.979   3.272
15760W        W80987  28.744  24.945   0.762
15761W        W80988   6.342  12.807  14.293
15762W        W80989   8.902  30.490   3.623
15763W        W80990  14.629  12.594   1.662
15764W        W80991  43.384  29.777  11.399
15765W        W80992  18.082  42.567   3.375
15766W        W80993  27.876   2.462   4.110
15767W        W80994  37.410  42.274   1.888
15768W        W80995  19.496  37.880  11.271
15769W        W80996   7.827   6.303  10.723
15770W        W80997  22.851  22.775  11.108
15771W        W80998  31.051  36.834   3.084
15772W        W80999  31.643   0.868   3.627
15773W        W81000  16.271  37.116  10.944
15774W        W81001  32.054  28.245   1.186
15775W        W81002   7.307  36.100  14.248
15776W        W81003  41.955  43.426  10.690
15777W        W81004  41.934  19.002   4.133
15778W        W81005  21.083  26.095   3.752
15779W        W81006  39.082  11.116  12.398
15780W        W81007  36.859   7.392  10.694
15781W        W81008  39.101   6.193  13.772
15782W        W81009  31.528  19.014  12.068
15783W        W81010  20.963  20.645   2.321
15784W        W81011  22.685  15.129  12.650
15785W        W81012  15.037   2.304   2.208
15786W        W81013   1.578  32.583  11.501
15787W        W81014  44.509  39.439   3.202
15788W        W81015  34.584  30.495   1.408
15789W        W81016  25.086  17.415   3.538
15790W        W81017  22.493  22.279   4.530
15791W        W81018   2.455   8.237  11.425
15792W        W81019  40.064  30.226   1.066
15793W        W81020  13.300  20.597  10.723
15794W        W81021   1.483   0.099   4.079
15795W        W81022  15.106  10.004   0.276
15796W        W81023  12.185  39.519   2.689
15797W        W81024  33.674   7.815  13.321
15798W        W81025   7.434  31.978   4.242
15799W        W81026  28.027  33.639   3.182
15800W        W81027  28.541  21.774   4.039
15801W        W81028   9.944  18.719   3.664
15802W        W81029  26.179  22.299   2.740
15803W        W81030   9.429  43.718  13.159
15804W        W81031  18.815   0.624  12.518
15805W        W81032  24.090  40.916   1.292
15806W        W81033  34.585  24.627  12.990
15807W        W81034  10.347  20.818  14.163
15808W        W81035  11.713  37.167   3.359
15809W        W81036  34.366  18.769  13.088
15810W        W81037  34.313   5.765  12.353
15811W        W81038  37.642   7.141  12.525
15812W        W81039  37.322   7.800  12.569
15813W        W81040  16.369  21.070   4.197
15814W        W81041  24.386  41.384  11.893
15815W        W81042  23.242  39.474  13.766
15816W        W81043  39.080  21.667   4.715
15817W        W81044   7.635  33.100  12.947
15818W        W81045  28.591  15.400   0.381
15819W        W81046  17.601  37.253   3.451
15820W        W81047  31.594  18.890  14.428
15821W        W81048   5.871  25.167  13.253
15822W        W81049  16.628  15.981  13.950
15823W        W81050   1.860   3.272   1.708
15824W        W81051  33.030   6.306  12.686
15825W        W81052  15.488  33.849  13.496
15826W        W81053  41.120  31.130  14.868
15827W        W81054  20.254  34.496  13.356
15828W        W81055  16.692   1.996   4.647
15829W        W81056   7.786  17.051   1.715
15830W        W81057  37.286   3.390   1.260
15831W        W81058  32.828  41.593   0.715
15832W        W81059  16.733  18.593  11.717
15833W        W81060  43.581  14.282  13.973
15834W        W81061  43.556   2.452   2.756
15835W        W81062  37.323  27.582   0.454
15836W        W81063  30.260  19.585  10.992
15837W        W81064   7.291   8.765  13.749
15838W        W81065   5.390  27.898   4.161
15839W        W81066   2.465  39.600   0.808
15840W        W81067  26.002  28.199   4.498
15841W        W81068  27.941  10.390  13.475
15842W        W81069  25.164   4.169  12.463
15843W        W81070   8.238  31.010   3.192
15844W        W81071  33.486   6.769   4.448
15845W        W81072  38.264  17.530   1.985
15846W        W81073  25.475   8.263  13.990
15847W        W81074  28.496  20.273  12.157
15848W        W81075  13.670   3.691   3.565
15849W        W81076  37.964  21.977   2.644
15850W        W81077  34.409   9.439   0.737
15851W        W81078  30.407  15.491  13.008
15852W        W81079  19.604   5.947   4.393
15853W        W81080  27.572  30.456  12.362
15854W        W81081  15.383  30.880  11.741
15855W        W81082  34.614  13.633   2.635
15856W        W81083  21.196  21.501  12.433
15857W        W81084  34.007   3.885  14.469
15858W        W81085  21.254   7.233   1.868
15859W        W81086  24.172  15.657   3.301
15860W        W81087  38.351  40.423  14.372
15861W        W81088  37.921  27.089  11.546
15862W        W81089  30.681  25.690   0.475
15863W        W81090  27.981  10.189   0.752
15864W        W81091  43.547  30.965   4.028
15865W        W81092  41.069  38.451   2.315
15866W        W81093  42.054  35.604  11.171
15867W        W81094  24.627  44.754   2.877
15868W        W81095  30.113  44.213   4.097
15869W        W81096  43.803   4.092   3.897
15870W        W81097  14.335  18.975  10.995
15871W        W81098  44.543  20.122   1.058
15872W        W81099   2.083  32.949   1.885
15873W        W81100  27.467  30.715  12.796
15874W        W81101  17.655  13.312   0.119
15875W        W81102  10.526  26.425  12.065
15876W        W81103  19.001   1.549   4.834
15877W        W81104   1.960  33.609  12.707
15878W        W81105  24.532  30.002  12.911
15879W        W81106  43.184   5.352   0.477
15880W        W81107  33.694  40.086  12.228
15881W        W81108  44.295  28.472  10.714
15882W        W81109  16.063  38.984  14.475
15883W        W81110  26.296  25.568  14.307
15884W        W81111  43.069  41.517  11.924
15885W        W81112   4.659  11.338   3.378
15886W        W81113  32.894  36.022  11.998
15887W        W81114   2.929  37.999  12.870
15888W        W81115  33.537  14.207   1.329
15889W        W81116  42.975  25.562   3.198
15890W        W81117  14.602   8.968   1.751
15891W        W81118   0.815  20.521   1.867
15892W        W81119  38.153  40.901  14.423
15893W        W81120  27.690   9.751   2.593
15894W        W81121   9.254  10.772  13.214
15895W        W81122   7.865   0.790   2.330
15896W        W81123  39.050   3.486  10.352
15897W        W81124   7.929  37.386   0.688
15898W        W81125  14.806  39.927   2.651
15899W        W81126  39.915  22.825   3.217
15900W        W81127  23.786  13.864  12.530
15901W        W81128  18.973  26.391  14.523
15902W        W81129   8.970   1.753  11.908
15903W        W81130  39.414  41.527  13.071
15904W        W81131   3.721  20.609   2.224
15905W        W81132  10.071  39.973  10.635
15906W        W81133  38.170   8.861  11.448
15907W        W81134  11.543  37.389   3.806
15908W        W81135   0.839   6.119   5.062
15909W        W81136  12.452   7.192  13.786
15910W        W81137  34.232  11.353   0.776
15911W        W81138  13.818  27.896  12.502
15912W        W81139   5.494  33.563   4.867
15913W        W81140  44.891  16.226  10.512
15914W        W81141  42.779  44.003   2.747
15915W        W81142  30.597  28.219  14.456
15916W        W81143  17.893  37.440   0.521
15917W        W81144   5.400  35.477  14.345
15918W        W81145  44.823   8.412   0.491
15919W        W81146   1.454  19.600   1.847
15920W        W81147  12.730  21.292  11.066
15921W        W81148  36.535  20.264  11.826
15922W        W81149  20.761  15.247   2.808
15923W        W81150   9.197  33.379   1.808
15924W        W81151  18.060   7.565   0.018
15925W        W81152  27.682  42.311   2.858
15926W        W81153  15.249  42.124   3.892
15927W        W81154   7.838  41.532   4.154
15928W        W81155  41.756  31.177  12.093
15929W        W81156  24.949  14.307   1.763
15930W        W81157  22.454  35.380  11.665
15931W        W81158  25.733  38.818  14.535
15932W        W81159  29.609  44.371  11.580
15933W        W81160   2.671  29.379   0.422
15934W        W81161  35.936  36.910  13.496
15935W        W81162  33.597   5.413   0.411
15936W        W81163  21.225   8.060  13.587
15937W        W81164  27.722  18.703  12.475
15938W        W81165  43.201  29.053  14.348
15939W        W81166  42.346  20.792   3.156
15940W        W81167   5.145   0.834   2.277
15941W        W81168  29.745  34.454  10.144
15942W        W81169  27.431  12.756   4.142
15943W        W81170  12.809   3.148   3.696
15944W        W81171  19.023  35.329   2.609
15945W        W81172  29.472  16.426   1.405
15946W        W81173   3.275  36.129  12.359
15947W        W81174  32.169  10.813  14.474
15948W        W81175  16.094   5.174   4.521
15949W        W81176  44.002  23.806  12.944
15950W        W81177   6.735  19.788   1.820
15951W        W81178  42.471   1.469   2.867
15952W        W81179  32.058   5.453   4.179
15953W        W81180  29.984  12.549   1.110
15954W        W81181  28.093  20.637  10.423
15955W        W81182  14.226  28.227  12.464
15956W        W81183   5.274  15.097   4.682
15957W        W81184   6.317  42.540   2.342
15958W        W81185  42.001  32.801   1.560
15959W        W81186  42.526  23.254   3.174
15960W        W81187  39.829   0.535  13.118
15961W        W81188  20.620  10.080  10.432
15962W        W81189  36.041  19.753  11.927
15963W        W81190  33.461   2.873   2.703
15964W        W81191  41.752  15.476  12.660
15965W        W81192  13.379   1.532  13.071
15966W        W81193  38.007   1.192   2.390
15967W        W81194  35.514  17.700   2.041
15968W        W81195  43.387   3.816   0.888
15969W        W81196  30.914  21.544  11.867
15970W        W81197  32.445   9.220   2.180
15971W        W81198  18.577  24.859  11.931
15972W        W81199  26.078   7.519  13.847
15973W        W81200  19.593  26.983   1.111
15974W        W81201  22.190   2.447   1.676
15975W        W81202  19.531  19.924  14.869
15976W        W81203  17.065   7.302  11.970
15977W        W81204   0.281  17.845   0.987
15978W        W81205  16.124  29.948   4.555
15979W        W81206  44.269  34.956  10.632
15980W        W81207  12.827  30.300  11.921
15981W        W81208   2.260   2.175  14.031
15982W        W81209  44.233   4.777  11.948
15983W        W81210  22.744  13.759  14.428
15984W        W81211   8.652  20.803  12.100
15985W        W81212  44.345  42.712   1.126
15986W        W81213  22.089  29.477  14.846
15987W        W81214  33.828  38.518   0.474
15988W        W81215  39.753  14.621  12.104
15989W        W81216   1.059  20.355   0.025
15990W        W81217   5.879   4.471   4.599
15991W        W81218  41.299  10.834   1.841
15992W        W81219  43.811  25.789  11.201
15993W        W81220  28.035  25.576  11.550
15994W        W81221  21.817  41.286   1.335
15995W        W81222  17.864   3.404   2.833
15996W        W81223  24.148  29.231  11.754
15997W        W81224  40.543  43.327   2.809
15998W        W81225   0.439  11.899   4.476
15999W        W81226  13.135   3.113   4.343
16000W        W81227  36.514  31.901   4.842
16001W        W81228  19.519  31.012   4.641
16002W        W81229  27.211  21.755   1.126
16003W        W81230   0.551  27.536  13.388
16004W        W81231  32.405  34.438   4.050
16005W        W81232   3.975  35.453   0.874
16006W        W81233  11.579   4.830  13.912
16007W        W81234  20.562  38.942   3.875
16008W        W81235   6.248  34.785  12.087
16009W        W81236  38.630   4.920   3.274
16010W        W81237  41.905  14.568  13.957
16011W        W81238  28.577  20.625  11.600
16012W        W81239  38.298  39.886  12.418
16013W        W81240  33.936   3.493   2.195
16014W        W81241   5.295   6.338   2.068
16015W        W81242  24.717  29.562  10.732
16016W        W81243  37.992  34.304  13.190
16017W        W81244   4.036  38.575  14.824
16018W        W81245   6.674  35.435   0.042
16019W        W81246   4.453  18.471   2.651
16020W        W81247   0.546  23.119  13.165
16021W        W81248  33.016  26.952   2.195
16022W        W81249  39.810   1.838   3.057
16023W        W81250  15.594  37.995  10.674
16024W        W81251  39.942  10.167   3.371
16025W        W81252  33.848  36.965   1.778
16026W        W81253  17.614  17.638   0.664
16027W        W81254  25.230  35.021  11.504
16028W        W81255  10.029  18.119   1.536
16029W        W81256   6.246  44.420   0.033
16030W        W81257  44.463  37.786  12.899
16031W        W81258  14.615  44.516   0.890
16032W        W81259  20.757   1.156   0.243
16033W        W81260  15.888  31.126  13.287
16034W        W81261  19.960  37.098   0.038
16035W        W81262   0.871  37.359  13.342
16036W        W81263  38.144   0.223  11.128
16037W        W81264  14.695  41.901  11.068
16038W        W81265   4.192  22.077   0.765
16039W        W81266  10.165   6.463  12.625
16040W        W81267  28.083  20.016  11.220
16041W        W81268   0.558  22.291   4.999
16042W        W81269  20.271   0.295  11.180
16043W        W81270  22.548  22.915  11.965
16044W        W81271  44.938   5.894   2.254
16045W        W81272  21.018   4.477  12.876
16046W        W81273  32.412  42.450   1.261
16047W        W81274  22.623  44.906  13.403
16048W        W81275   9.329  26.003  11.211
16049W        W81276  25.279  22.132   2.119
16050W        W81277  42.968   0.843  14.869
16051W        W81278   9.796  28.901   4.282
16052W        W81279  14.640  40.775  13.350
16053W        W81280  23.692  29.265  12.541
16054W        W81281  12.714  10.159   3.235
16055W        W81282   9.187  11.917   0.963
16056W        W81283  32.800  30.686   3.527
16057W        W81284  15.404  27.630   4.311
16058W        W81285  10.824  40.815  13.898
16059W        W81286  32.717  18.740   4.488
16060W        W81287  19.099  14.663  10.833
16061W        W81288  14.995   5.536   1.809
16062W        W81289   0.085  21.216   2.198
16063W        W81290  28.062  11.324  13.410
16064W        W81291  33.828  34.799   4.417
16065W        W81292   4.546  13.919   1.714
16066W        W81293  30.318   9.533   0.800
16067W        W81294  19.146  39.017   0.769
16068W        W81295  44.366  21.172  12.599
16069W        W81296  36.866  36.712  13.470
16070W        W81297  30.999  16.879   2.822
16071W        W81298   2.298  21.207   0.582
16072W        W81299  19.571  40.340   0.929
16073W        W81300  19.514  17.639  11.181
16074W        W81301  41.178  17.584   2.098
16075W        W81302   8.174  43.406  12.455
16076W        W81303   7.099  13.753   3.105
16077W        W81304  31.545  30.827   2.265
16078W        W81305  44.400  24.313  12.359
16079W        W81306  15.738  29.599  13.485
16080W        W81307   8.013   5.499   4.170
16081W        W81308  15.320  31.130   4.929
16082W        W81309  20.615  27.885  11.600
16083W        W81310  15.368  38.104  13.265
16084W        W81311  23.042  36.114   1.319
16085W        W81312  26.278  28.063  12.450
16086W        W81313  28.076  31.472   0.261
16087W        W81314  26.245  22.153   3.643
16088W        W81315   8.808  43.427  13.309
16089W        W81316   4.542  22.021   2.713
16090W        W81317  32.097  34.842   4.117
16091W        W81318   4.967  14.115   1.954
16092W        W81319  38.875  26.043  12.422
16093W        W81320  36.581   7.614  11.898
16094W        W81321   2.299  12.046  10.486
16095W        W81322  37.505  32.875   1.767
16096W        W81323  13.042   5.942  11.786
16097W        W81324   4.883  42.794  10.778
16098W        W81325  28.669  40.849  13.399
16099W        W81326  10.712  38.572   3.309
16100W        W81327  28.351  18.931   0.192
16101W        W81328  28.694  41.991  12.453
16102W        W81329  11.654   5.236   2.042
16103W        W81330  29.870  18.674   0.395
16104W        W81331  34.874  19.251   4.059
16105W        W81332   7.917   9.828   4.823
16106W        W81333  30.122  25.526   5.386
16107W        W81334  37.329   8.941  13.842
16108W        W81335  29.206   8.884   0.353
16109W        W81336  27.073   0.786  11.196
16110W        W81337  13.229   8.404   2.226
16111W        W81338  36.033  37.551   4.493
16112W        W81339   8.207  12.809   4.607
16113W        W81340  12.161   4.460   4.019
16114W        W81341  13.545  14.310  14.781
16115W        W81342  21.465  10.394  11.963
16116W        W81343   8.669  26.327   3.278
16117W        W81344   5.300  22.574   9.746
16118W        W81345  24.011   9.040  12.067
16119W        W81346  34.418  26.030  14.352
16120W        W81347  31.323  12.289   5.247
16121W        W81348  43.278  37.098  14.208
16122W        W81349   2.756  40.509  13.897
16123W        W81350  28.256  14.307   0.799
16124W        W81351   5.020  38.567  12.193
16125W        W81352   1.768  33.622   3.155
16126W        W81353  22.735  32.965   2.113
16127W        W81354  14.912   9.756  13.437
16128W        W81355  17.232  31.942   0.476
16129W        W81356  35.627  10.369   2.662
16130W        W81357   9.183  38.486   0.803
16131W        W81358  33.891   3.789   1.718
16132W        W81359  14.647  41.793  14.587
16133W        W81360  41.362   2.271  11.280
16134W        W81361  20.632   6.952   3.598
16135W        W81362  31.036  25.695   0.106
16136W        W81363   5.154  30.601   1.237
16137W        W81364  33.515  27.345   2.706
16138W        W81365  11.091  44.500  11.231
16139W        W81366   3.721  22.617   1.202
16140W        W81367   2.414  21.520   4.498
16141W        W81368  42.387  41.768   0.297
16142W        W81369  34.316  30.242  10.600
16143W        W81370  38.329  27.582   0.198
16144W        W81371  30.124  35.132  12.153
16145W        W81372  44.908   7.249   4.699
16146W        W81373  44.764   1.837  11.991
16147W        W81374  23.887  40.311   0.918
16148W        W81375   3.181  29.971  11.071
16149W        W81376  23.043  30.341  10.438
16150W        W81377  16.565  21.594   1.043
16151W        W81378  34.921   1.778   2.770
16152W        W81379  37.748   0.245  12.086
16153W        W81380   0.446   7.598   4.710
16154W        W81381   1.321  40.285  13.058
16155W        W81382   1.768  15.226  14.822
16156W        W81383  36.497  27.725  13.427
16157W        W81384  37.798  11.921  12.154
16158W        W81385  33.389  33.328   1.152
16159W        W81386   6.906   3.643  14.781
16160W        W81387  28.361   8.717   3.801
16161W        W81388  10.267  19.168  10.653
16162W        W81389  24.566  34.835  11.259
16163W        W81390   1.827  12.219   2.949
16164W        W81391   5.724  34.632  14.813
16165W        W81392  37.128  42.439   3.814
16166W        W81393  21.512   4.268   2.708
16167W        W81394  32.936  25.457   0.292
16168W        W81395   9.473  27.638  13.448
16169W        W81396  32.995  44.695  11.132
16170W        W81397  37.518  13.565  11.582
16171W        W81398  16.771  19.846   2.662
16172W        W81399  11.117  31.627  11.639
16173W        W81400  14.295  37.883   3.872
16174W        W81401  34.138  37.095  12.509
16175W        W81402  16.285  32.879  14.916
16176W        W81403  31.659   1.915  14.834
16177W        W81404  18.248   1.438  10.743
16178W        W81405  27.565  25.958  10.688
16179W        W81406  34.831   9.283  11.467
16180W        W81407  38.263  37.380  14.278
16181W        W81408  37.957  10.228  11.354
16182W        W81409  13.442  29.934   4.984
16183W        W81410  31.788   1.783   0.333
16184W        W81411  23.275  39.830   4.672
16185W        W81412  39.581   0.289  14.846
16186W        W81413   6.942   3.667   1.322
16187W        W81414  14.501  14.151   4.645
16188W        W81415  33.209  20.373  10.765
16189W        W81416   0.247  14.555  11.120
16190W        W81417  24.284  12.782   1.209
16191W        W81418   1.498   5.189  14.540
16192W        W81419  36.841  26.469   4.360
16193W        W81420  42.863  11.780   3.510
16194W        W81421  40.494  22.708   0.250
16195W        W81422   8.287  34.272  12.287
16196W        W81423   2.676  20.451   5.480
16197W        W81424   9.195  24.557   1.539
16198W        W81425   5.511  24.086  11.825
16199W        W81426   3.235   3.728   1.774
16200W        W81427  43.218  40.723   2.747
16201W        W81428  22.312  12.783   4.078
16202W        W81429  36.894  40.969   2.781
16203W        W81430  14.283   6.894   0.223
16204W        W81431  18.950  32.005  12.589
16205W        W81432  19.987  42.447   0.266
16206W        W81433  20.774   3.641  11.573
16207W        W81434  24.733   4.798   2.800
16208W        W81435  19.255  34.562   0.959
16209W        W81436  22.984   4.170   2.789
16210W        W81437  20.724  30.416   0.553
16211W        W81438  36.466  20.217   3.325
16212W        W81439   1.884  16.496   3.675
16213W        W81440  12.902  39.336  12.377
16214W        W81441  11.203  18.595  11.448
16215W        W81442   4.846  19.954   1.178
16216W        W81443   9.149   4.324  12.905
16217W        W81444  29.009  29.402  11.722
16218W        W81445  37.182  18.550  13.787
16219W        W81446   7.931   3.621  13.562
16220W        W81447  34.921  37.829  14.297
16221W        W81448  22.720  19.342   4.225
16222W        W81449  33.992  26.418  11.997
16223W        W81450  24.875  34.078   4.397
16224W        W81451  35.046  41.355  10.732
16225W        W81452  24.127  22.506  10.350
16226W        W81453   1.007   3.930  11.414
16227W        W81454  44.044   5.462  12.142
16228W        W81455   6.904  33.601  14.162
16229W        W81456  32.009  36.636  13.837
16230W        W81457  18.803   8.666  10.444
16231W        W81458  21.103  33.163  11.635
16232W        W81459   5.309  28.507   1.957
16233W        W81460   3.015  31.857  11.953
16234W        W81461   7.845  41.867   0.929
16235W        W81462  30.188   4.606   3.877
16236W        W81463  36.666  35.911   2.255
16237W        W81464   4.380  28.746   3.680
16238W        W81465  26.809   4.495  12.926
16239W        W81466  38.002  37.147   1.620
16240W        W81467  24.006  30.728   1.212
16241W        W81468  27.540  16.854   3.768
16242W        W81469  44.928   8.813   1.194
16243W        W81470  24.137  12.422   4.091
16244W        W81471  30.705  36.445   1.231
16245W        W81472  21.146  34.437   0.253
16246W        W81473  23.789  39.091  11.861
16247W        W81474  10.602  24.522   4.286
16248W        W81475  27.115  30.723  14.460
16249W        W81476   0.689  41.660   1.899
16250W        W81477  10.925  16.492   3.128
16251W        W81478  22.302  12.304   2.337
16252W        W81479  11.828  18.264  11.674
16253W        W81480  40.899  16.581  13.779
16254W        W81481  26.069  41.323   3.087
16255W        W81482   8.013  24.184   4.530
16256W        W81483  42.581   9.445  12.242
16257W        W81484  24.914   0.427   2.757
16258W        W81485  17.529  12.807  10.960
16259W        W81486  35.180   8.979  14.518
16260W        W81487  13.343   0.406   0.434
16261W        W81488  34.109  21.164  12.739
16262W        W81489  35.664  19.645   3.431
16263W        W81490   4.323  34.089   2.885
16264W        W81491  25.300  37.099   2.201
16265W        W81492  14.063  29.966   0.006
16266W        W81493  16.137  33.379  13.783
16267W        W81494  24.215  25.145   3.431
16268W        W81495   9.231  36.259   5.198
16269W        W81496   4.859   6.538   5.003
16270W        W81497  33.187  19.145   3.257
16271W        W81498   3.686  20.596   1.704
16272W        W81499  41.519  40.611   4.186
16273W        W81500  43.114  11.090  11.759
16274W        W81501  17.241  32.448   3.662
16275W        W81502  26.406  34.234  13.995
16276W        W81503  37.016  43.989  12.102
16277W        W81504   4.534  25.578  14.350
16278W        W81505   1.132  41.605   0.847
16279W        W81506  36.120  17.471   0.343
16280W        W81507  20.952  43.992   2.619
16281W        W81508   4.943  10.276   1.053
16282W        W81509  17.025  39.467  10.999
16283W        W81510  26.155  35.807  12.887
16284W        W81511   8.233   6.577   2.823
16285W        W81512  13.379  16.143  13.892
16286W        W81513  10.764  28.241   1.697
16287W        W81514   2.200  15.129   3.027
16288W        W81515  40.310  26.624   3.149
16289W        W81516  26.580  43.777  14.292
16290W        W81517   3.290  12.844   2.196
16291W        W81518  40.447   8.132   1.670
16292W        W81519  22.796  41.445   1.135
16293W        W81520  23.279  28.091  12.872
16294W        W81521  31.017   4.670   4.540
16295W        W81522   4.487   7.156  11.294
16296W        W81523  44.813   5.289   2.315
16297W        W81524  28.978  36.823  12.055
16298W        W81525  15.206  43.575   2.115
16299W        W81526  23.635  36.277   2.606
16300W        W81527   0.426   2.462  10.864
16301W        W81528  11.630  39.862   0.211
16302W        W81529  27.091  11.358  13.234
16303W        W81530  19.931  22.676  11.203
16304W        W81531  33.545   9.165   1.398
16305W        W81532  42.881  41.860  12.652
16306W        W81533  31.577  44.955   3.812
16307W        W81534  15.409  37.028  13.995
16308W        W81535   8.657  34.644   0.148
16309W        W81536  27.377  20.525   3.541
16310W        W81537  33.110  24.514  11.658
16311W        W81538  23.870   6.757   0.627
16312W        W81539   2.533  30.185   2.792
16313W        W81540   8.249  25.558   0.273
16314W        W81541  22.180   3.410   1.148
16315W        W81542  18.167  14.776  13.849
16316W        W81543   2.019  44.573   1.849
16317W        W81544  37.323   4.237   3.131
16318W        W81545  32.423  15.173  13.874
16319W        W81546  32.275  38.853   4.941
16320W        W81547  15.611   9.243  14.041
16321W        W81548  22.807  33.877   4.731
16322W        W81549  38.821   8.126   1.818
16323W        W81550  25.733  15.516  11.912
16324W        W81551  32.079   9.591  10.510
16325W        W81552  15.766   8.219   3.035
16326W        W81553  16.212  23.483  11.643
16327W        W81554  38.066  34.483  12.419
16328W        W81555  22.209   1.727   0.390
16329W        W81556  17.680  10.635   4.296
16330W        W81557  10.617  22.033  10.964
16331W        W81558  16.866  29.470  14.102
16332W        W81559   4.832  19.571  14.350
16333W        W81560  12.451  40.049   0.799
16334W        W81561  31.095  11.712  11.907
16335W        W81562  20.630  35.939   0.733
16336W        W81563   8.768   7.115  10.767
16337W        W81564   2.580  31.899  10.400
16338W        W81565  31.033   6.333  11.211
16339W        W81566   3.822   1.301   2.214
16340W        W81567  20.523  11.422   0.335
16341W        W81568  29.082  38.941   0.168
16342W        W81569  18.428   8.079  11.661
16343W        W81570  29.396  27.048   0.183
16344W        W81571  14.234   8.913  11.024
16345W        W81572  10.189  26.112  13.323
16346W        W81573  20.899  12.683  10.712
16347W        W81574  16.632  11.478  12.846
16348W        W81575  11.677  29.679   3.741
16349W        W81576  39.436  37.522   3.158
16350W        W81577  14.728   5.041   0.900
16351W        W81578   3.963  31.190  11.206
16352W        W81579  29.476  19.838  14.818
16353W        W81580   3.838  19.016  12.962
16354W        W81581  31.171  24.156  12.194
16355W        W81582  15.632  26.611  14.949
16356W        W81583  19.364   2.976  11.570
16357W        W81584  27.145  39.869  14.113
16358W        W81585  37.889   1.865   4.147
16359W        W81586   7.567   9.790  14.513
16360W        W81587   1.971   0.761   3.049
16361W        W81588   6.364   0.007  11.804
16362W        W81589  35.012  26.263   1.655
16363W        W81590  43.359  21.873   2.671
16364W        W81591  42.814   2.321   2.198
16365W        W81592   7.494  14.870   1.584
16366W        W81593  28.088  10.767  13.943
16367W        W81594  38.062  44.862  11.838
16368W        W81595  25.985  36.529   4.358
16369W        W81596   1.900   9.125  11.039
16370W        W81597  35.529  30.039   2.823
16371W        W81598  14.405  44.425  12.933
16372W        W81599  25.795  20.734  14.658
16373W        W81600  41.375  25.036   1.307
16374W        W81601  43.541  24.739   1.806
16375W        W81602  26.927  17.848  13.219
16376W        W81603  19.223  27.933  11.709
16377W        W81604   1.297  29.573   3.692
16378W        W81605  26.836  10.180  13.291
16379W        W81606  15.774  19.288   1.830
16380W        W81607   2.829   4.994  14.208
16381W        W81608  28.565   6.774   4.162
16382W        W81609  38.852  36.148  13.029
16383W        W81610   4.344   2.227  14.869
16384W        W81611  30.635  32.116   5.093
16385W        W81612  31.066   7.875  13.891
16386W        W81613  15.728   4.640   2.663
16387W        W81614  27.537  39.486   3.262
16388W        W81615  41.365  20.777   2.411
16389W        W81616   9.158   8.876  10.353
16390W        W81617   0.377  43.605   1.780
16391W        W81618   2.435  38.075  13.035
16392W        W81619  35.345  31.019  13.526
16393W        W81620   0.922  19.603   1.853
16394W        W81621  12.538  33.474   0.989
16395W        W81622  15.039  43.923   3.222
16396W        W81623  25.566   6.829  11.126
16397W        W81624  26.990  43.845   2.637
16398W        W81625  32.378   6.166   1.956
16399W        W81626  38.716   9.895  12.934
16400W        W81627   0.848  28.390   0.450
16401W        W81628  33.132  17.409   1.365
16402W        W81629  41.371  23.969   0.974
16403W        W81630  15.015  26.666   2.698
16404W        W81631  43.111  41.336  14.327
16405W        W81632  23.853   2.367   4.512
16406W        W81633   4.593  41.660  12.151
16407W        W81634  39.060  37.316  12.268
16408W        W81635  27.530  33.621  14.386
16409W        W81636  23.112  21.661   3.842
16410W        W81637   8.439  14.135  11.137
16411W        W81638   2.880  14.956   3.586
16412W        W81639  42.431   3.941   4.296
16413W        W81640  27.709  42.662  10.770
16414W        W81641   3.718  17.743   1.806
16415W        W81642  29.544  15.301  13.499
16416W        W81643  34.297  20.281   0.335
16417W        W81644   1.924  14.445  10.396
16418W        W81645  25.427  23.395   4.960
16419W        W81646  15.315   7.349  11.603
16420W        W81647  12.310  43.960   3.970
16421W        W81648   0.241   2.285   3.271
16422W        W81649   5.155  32.918   0.014
16423W        W81650   8.081  18.791  12.185
16424W        W81651  28.355  10.253   4.930
16425W        W81652  16.529  12.717   2.254
16426W        W81653   8.885  13.704   3.692
16427W        W81654   3.816  41.952   2.823
16428W        W81655  34.736  43.856  13.056
16429W        W81656  31.448   2.845  10.469
16430W        W81657  11.246   9.830  12.868
16431W        W81658  27.910  15.736   0.799
16432W        W81659   8.734  28.117   3.059
16433W        W81660  35.055  26.657   0.863
16434W        W81661  24.132  25.177   0.474
16435W        W81662  13.441  43.952  12.527
16436W        W81663  37.570   4.225   2.653
16437W        W81664   3.069  12.688  12.965
16438W        W81665   5.280   4.312   4.357
16439W        W81666  29.355   2.208  13.448
16440W        W81667  15.701   2.710   2.837
16441W        W81668   0.335  28.032  14.883
16442W        W81669  26.626   0.515   0.193
16443W        W81670  21.054   9.118  12.873
16444W        W81671  16.536   2.808  12.919
16445W        W81672  15.386  37.652  12.915
16446W        W81673  14.703   2.249  13.194
16447W        W81674  43.986  31.125  11.231
16448W        W81675  15.880   0.286  14.661
16449W        W81676  10.835   2.033  11.930
16450W        W81677  20.034  15.019   0.018
16451W        W81678  15.206  34.902  10.726
16452W        W81679  26.607  12.569  14.920
16453W        W81680   6.840  10.694  12.071
16454W        W81681   6.667   9.849  10.768
16455W        W81682  19.031  20.503   2.346
16456W        W81683  28.903  14.458  10.239
16457W        W81684  30.570  13.804  12.911
16458W        W81685   8.941  42.083   5.072
16459W        W81686  21.696  18.770  13.445
16460W        W81687  33.471  33.935  12.410
16461W        W81688  19.923  16.112   0.193
16462W        W81689  44.869  27.663   1.451
16463W        W81690  24.450  40.172   2.246
16464W        W81691  30.067  39.619  14.273
16465W        W81692  27.418  32.613   2.400
16466W        W81693  32.189  19.511   3.722
16467W        W81694  24.070  32.607   3.581
16468W        W81695  44.918  17.802  14.302
16469W        W81696  33.600  13.079  11.729
16470W        W81697  25.173  25.006  12.092
16471W        W81698  37.554  39.219  12.579
16472W        W81699  31.094  31.515   1.827
16473W        W81700  12.334  44.927   1.724
16474W        W81701  29.950   0.869  10.908
16475W        W81702  24.593  14.552   1.193
16476W        W81703  15.157   4.855   3.285
16477W        W81704   2.249  44.893   3.601
16478W        W81705  32.915  43.168   2.107
16479W        W81706  38.868  17.140  11.661
16480W        W81707   8.915  18.670  12.029
16481W        W81708  21.080  33.368  10.701
16482W        W81709  10.814  42.965   2.840
16483W        W81710  29.086   3.225   0.894
16484W        W81711  24.544  19.892   4.923
16485W        W81712  18.210  10.407  14.629
16486W        W81713  10.816  13.602   4.032
16487W        W81714  43.450   5.249   1.810
16488W        W81715  31.426  44.256   3.460
16489W        W81716  24.188   9.138   2.846
16490W        W81717  23.581  11.855   2.367
16491W        W81718  18.124  23.438  11.484
16492W        W81719   0.096   6.777  12.824
16493W        W81720  43.340  38.131   2.205
16494W        W81721  27.613  30.470  14.589
16495W        W81722  32.112  21.936   2.759
16496W        W81723  13.059   7.757  10.530
16497W        W81724   8.409  15.519  13.109
16498W        W81725  23.774  34.065  11.985
16499W        W81726  21.470  17.006  13.879
16500W        W81727   0.225  44.339   2.604
16501W        W81728   7.782  13.504   3.884
16502W        W81729  12.407  18.744  11.727
16503W        W81730  11.168  20.141  11.567
16504W        W81731  12.478  15.310  12.146
16505W        W81732  41.334  29.891  12.472
16506W        W81733  31.653  12.557  13.445
16507W        W81734  28.362  37.090   2.866
16508W        W81735  20.509  40.559  14.172
16509W        W81736  21.411  40.014  11.221
16510W        W81737   5.957   1.559   3.783
16511W        W81738  31.452  34.010  14.084
16512W        W81739  41.985   7.447  12.121
16513W        W81740  38.099  41.993  12.849
16514W        W81741  13.061  22.338   1.532
16515W        W81742  35.602   7.256  12.649
16516W        W81743  12.921   9.388   3.664
16517W        W81744   1.403   8.128  10.709
16518W        W81745  32.866   6.005  14.434
16519W        W81746  31.998  22.569  13.103
16520W        W81747  43.352  32.951   2.439
16521W        W81748  36.603  41.884   0.309
16522W        W81749  21.052   3.221  11.355
16523W        W81750  26.486  21.039  11.191
16524W        W81751  23.592  40.766   0.358
16525W        W81752  21.589  33.122  13.864
16526W        W81753  41.713  16.216  13.491
16527W        W81754  28.192  18.540  12.315
16528W        W81755  17.009   8.714   3.246
16529W        W81756  39.766  24.560   0.303
16530W        W81757   0.268   8.736   0.237
16531W        W81758  38.470  41.859  12.494
16532W        W81759  44.782  16.963   4.176
16533W        W81760  41.291  13.242   1.575
16534W        W81761  21.565  40.004  13.098
16535W        W81762   0.022  17.158  14.843
16536W        W81763  42.665  33.159  12.603
16537W        W81764  36.929  43.410   2.311
16538W        W81765  10.342   8.615  13.696
16539W        W81766  25.677  21.098   4.041
16540W        W81767  37.669  27.063  14.319
16541W        W81768  27.485  22.223  12.994
16542W        W81769   1.329  11.822  12.246
16543W        W81770  25.921  11.679   2.570
16544W        W81771   0.750  40.804   4.869
16545W        W81772  27.200  21.022   0.323
16546W        W81773  38.226  43.616  14.196
16547W        W81774   2.177  36.960   4.684
16548W        W81775  30.918  19.690   0.305
16549W        W81776   8.936  40.756   2.904
16550W        W81777  43.821  21.268   5.082
16551W        W81778  12.124  31.213  11.633
16552W        W81779  43.514  29.997  14.237
16553W        W81780  38.126  10.745   3.331
16554W        W81781  16.295  38.205   0.693
16555W        W81782  31.896  38.971  11.791
16556W        W81783  40.087   8.219  14.476
16557W        W81784   6.038   0.881   5.098
16558W        W81785  29.052   2.710   0.947
16559W        W81786  18.784  21.168   3.469
16560W        W81787  10.317  43.046   1.805
16561W        W81788   8.817   0.954   4.183
16562W        W81789  28.535  18.796  12.028
16563W        W81790  37.178   9.204  11.040
16564W        W81791  31.517  34.176   3.246
16565W        W81792  35.764   6.717   1.851
16566W        W81793   5.668  28.638  13.033
16567W        W81794  34.638  14.939   0.122
16568W        W81795  12.565   3.727   2.851
16569W        W81796   1.688   7.759  11.423
16570W        W81797  18.503  33.817   4.246
16571W        W81798  34.331  17.273  14.067
16572W        W81799  23.332  25.984  11.388
16573W        W81800  20.554  24.045  12.445
16574W        W81801  41.950   8.281   3.196
16575W        W81802   9.945  44.438   2.750
16576W        W81803  25.587  24.564  14.504
16577W        W81804  35.590  18.127  14.512
16578W        W81805  26.717   7.305   5.148
16579W        W81806  43.504  32.650   3.289
16580W        W81807  44.292  11.186  14.098
16581W        W81808  12.325   4.213   4.443
16582W        W81809  24.217  40.117   1.779
16583W        W81810  20.491  41.570  11.619
16584W        W81811  25.934  28.135  14.819
16585W        W81812   2.261   0.912  12.721
16586W        W81813  19.619   7.754   0.339
16587W        W81814   7.541  31.954  14.237
16588W        W81815  21.622  15.875   3.810
16589W        W81816  41.592   9.679  14.265
16590W        W81817  16.844   9.790  13.771
16591W        W81818  43.401  22.019  10.976
16592W        W81819  26.545   9.612  10.690
16593W        W81820  12.914  20.559  12.037
16594W        W81821   2.598  19.189   4.237
16595W        W81822   7.432  13.713  13.444
16596W        W81823  18.733  28.249   1.854
16597W        W81824  36.676   7.276  12.446
16598W        W81825  11.301  42.014  10.723
16599W        W81826  44.835   1.756   4.867
16600W        W81827   7.418  42.942   0.908
16601W        W81828  31.302  40.800  14.944
16602W        W81829  43.713  44.433   0.900
16603W        W81830  31.726  18.648  13.393
16604W        W81831  25.439  12.637   4.039
16605W        W81832  32.656  31.016  11.945
16606W        W81833   0.276  35.950   0.670
16607W        W81834  21.468   8.704   3.137
16608W        W81835  10.499  28.502   3.388
16609W        W81836  20.312   3.726   2.415
16610W        W81837   5.832  37.965   0.767
16611W        W81838  21.547  22.822  12.636
16612W        W81839  36.601   7.341  14.536
16613W        W81840  37.953  20.808  11.641
16614W        W81841   3.477  18.178   0.472
16615W        W81842   7.332   3.690   1.861
16616W        W81843  26.973  28.673  10.163
16617W        W81844   0.723  25.971  11.071
16618W        W81845  23.752  27.760   2.316
16619W        W81846  25.012  22.639   3.395
16620W        W81847  37.104  27.404  10.897
16621W        W81848   5.673  43.290   1.343
16622W        W81849  12.637  43.957  14.329
16623W        W81850  43.464   0.907  13.446
16624W        W81851   0.762   3.287  13.485
16625W        W81852   5.677   3.398   4.140
16626W        W81853  29.225  31.944  13.862
16627W        W81854   5.794  24.173   0.361
16628W        W81855  24.854  30.472  13.688
16629W        W81856   3.079  10.275  11.546
16630W        W81857  20.115  31.489   0.678
16631W        W81858   7.503  26.096   1.644
16632W        W81859  37.099  20.725   0.904
16633W        W81860  15.525  13.656   2.391
16634W        W81861  37.582  21.592   2.762
16635W        W81862  38.941  15.190  12.332
16636W        W81863  24.646  10.642   0.895
16637W        W81864  41.542  41.633   0.305
16638W        W81865  22.993  23.636  13.968
16639W        W81866   5.241  14.871   4.185
16640W        W81867   9.105   1.804   2.018
16641W        W81868  41.411  33.636  12.621
16642W        W81869  35.596  17.009   3.643
16643W        W81870  31.352  23.333   1.257
16644W        W81871  10.925  31.930  13.490
16645W        W81872  38.308  10.667  12.631
16646W        W81873  31.907  37.915   2.324
16647W        W81874  44.869  12.836  12.088
16648W        W81875   5.934  14.514   4.564
16649W        W81876   9.209  34.479   0.384
16650W        W81877  10.100  43.919  14.444
16651W        W81878  28.826   2.141   2.770
16652W        W81879   6.092  37.606  11.364
16653W        W81880  19.430  28.045   3.253
16654W        W81881  25.111  12.688   3.312
16655W        W81882   7.459  43.394   3.144
16656W        W81883  42.650   2.903   3.529
16657W        W81884   9.561  16.272   0.747
16658W        W81885  12.094   8.600   0.689
16659W        W81886  27.484  29.051   3.323
16660W        W81887  16.728  21.756  14.395
16661W        W81888   9.756   9.833  10.746
16662W        W81889  15.774  29.526   0.365
16663W        W81890  44.528  39.366  10.909
16664W        W81891  22.262   4.266   1.383
16665W        W81892  24.938  25.182   2.153
16666W        W81893  39.121  44.737   3.293
16667W        W81894  38.348   3.509   0.433
16668W        W81895  38.525  44.437   4.667
16669W        W81896  31.682  21.088   0.795
16670W        W81897  40.757   3.731  11.477
16671W        W81898  23.140  39.276  13.292
16672W        W81899  29.632  25.175   1.257
16673W        W81900  14.942  35.828   1.511
16674W        W81901  41.812  24.023   4.489
16675W        W81902  28.505  22.556  13.530
16676W        W81903  36.538  38.794   5.290
16677W        W81904  31.653   7.997   3.621
16678W        W81905  25.286  27.241  14.833
16679W        W81906  12.052  41.343  13.521
16680W        W81907  21.457  12.440  11.608
16681W        W81908  44.957  22.174   1.706
16682W        W81909  34.413  16.442   3.898
16683W        W81910  32.538  25.539  14.152
16684W        W81911  44.330  25.459   4.337
16685W        W81912   1.513   6.339  13.433
16686W        W81913  35.283  19.761  13.524
16687W        W81914  19.393  19.164  13.324
16688W        W81915  15.616  32.090  13.110
16689W        W81916  43.188   1.901  13.451
16690W        W81917  30.103  23.151  10.386
16691W        W81918  21.498  26.597   1.487
16692W        W81919  22.779   5.878  11.191
16693W        W81920   4.283   7.268   2.223
16694W        W81921  37.495  36.694  11.928
16695W        W81922  35.473  13.303  14.862
16696W        W81923  39.289  29.779  13.374
16697W        W81924   8.797  33.163  10.318
16698W        W81925  18.290  43.975  12.412
16699W        W81926  38.011  41.989   4.214
16700W        W81927   3.332  18.342  14.113
16701W        W81928  12.400  44.446  11.896
16702W        W81929  40.582   7.423   3.080
16703W        W81930  15.907  38.449  13.870
16704W        W81931  31.943  13.118  14.805
16705W        W81932  42.102  30.957  11.314
16706W        W81933  38.555   3.520  11.504
16707W        W81934   8.824  22.510  11.768
16708W        W81935  12.808  30.367   4.273
16709W        W81936  37.813  41.917   1.420
16710W        W81937  18.592  37.524   1.893
16711W        W81938  39.941   3.021  10.103
16712W        W81939  26.194   4.307  11.142
16713W        W81940  21.572  12.494   2.630
16714W        W81941  36.393  13.867  14.955
16715W        W81942  40.213   8.227  12.795
16716W        W81943  20.201  34.037  13.817
16717W        W81944  16.256  14.187  11.405
16718W        W81945  31.273  16.156  14.491
16719W        W81946  18.829   3.394   2.207
16720W        W81947  43.942   8.172   4.034
16721W        W81948  32.046  10.940  12.089
16722W        W81949  22.620  31.011   2.753
16723W        W81950  14.592  34.293   2.849
16724W        W81951   0.964  30.000  13.959
16725W        W81952  38.328  22.260  12.549
16726W        W81953   9.211   4.754   3.536
16727W        W81954  30.075  34.179   1.539
16728W        W81955  17.762  25.430  13.037
16729W        W81956  12.678   3.871   2.265
16730W        W81957   4.705  16.539  14.104
16731W        W81958  19.609  14.765   0.926
16732W        W81959  40.305  28.258   4.197
16733W        W81960  13.352   4.492   1.586
16734W        W81961   9.566   7.770  11.834
16735W        W81962  42.399  43.104  13.968
16736W        W81963   5.521   6.570  11.296
16737W        W81964  29.134   6.258  12.099
16738W        W81965  25.206  22.693  13.402
16739W        W81966  13.159  12.268   1.144
16740W        W81967  17.263   3.540  12.101
16741W        W81968  34.980  18.258  13.411
16742W        W81969  33.056   7.815  12.729
16743W        W81970  25.087   2.263  13.021
16744W        W81971  36.328   8.126   2.804
16745W        W81972  15.900  33.670   4.120
16746W        W81973   6.140  40.295   3.128
16747W        W81974  30.734  25.131  13.451
16748W        W81975  32.286  39.393  12.874
16749W        W81976  19.757  29.694   0.275
16750W        W81977  35.304   9.223  11.812
16751W        W81978  36.542  22.578   3.632
16752W        W81979   8.115   9.196  12.944
16753W        W81980  38.095  13.052  12.876
16754W        W81981   2.998  15.626  10.480
16755W        W81982  30.648  24.900  14.788
16756W        W81983  29.947  35.999   0.385
16757W        W81984   3.526  40.290   3.080
16758W        W81985  38.254  13.767  10.727
16759W        W81986  14.854  30.326   3.481
16760W        W81987  18.563   5.440   0.881
16761W        W81988  18.836  22.720  10.406
16762W        W81989  27.987  24.084  13.374
16763W        W81990  34.706  25.353   1.402
16764W        W81991  39.824   2.290  12.259
16765W        W81992   9.268   2.456   0.923
16766W        W81993  13.400   8.346   0.023
16767W        W81994  31.410   9.166   3.173
16768W        W81995   0.898   7.188  11.625
16769W        W81996  11.237  10.291   0.725
16770W        W81997  33.783  16.266   1.884
16771W        W81998   7.862  35.097  10.715
16772W        W81999  25.080   4.955  13.909
16773W        W82000  17.823  11.482  11.176
16774W        W82001  38.141   7.784   0.327
16775W        W82002  44.952  26.543   3.565
16776W        W82003  10.508  14.840   3.358
16777W        W82004  32.404  38.069   2.299
16778W        W82005  23.747  10.043   3.204
16779W        W82006   9.796  30.463  14.300
16780W        W82007  37.739  39.821  11.629
16781W        W82008   4.806   2.287   0.701
16782W        W82009  42.432  36.622  10.435
16783W        W82010   0.801  33.651   1.747
16784W        W82011  20.150  40.694   1.739
16785W        W82012  26.281   8.653   0.407
16786W        W82013  18.309  29.429  12.830
16787W        W82014  28.415  44.498   3.239
16788W        W82015   9.890  31.627  12.283
16789W        W82016   9.633  23.648  14.053
16790W        W82017  25.162  22.920  11.605
16791W        W82018  20.541  16.531  12.007
16792W        W82019  35.717   0.387   0.011
16793W        W82020  24.776  19.279  10.465
16794W        W82021  34.440  44.927   4.708
16795W        W82022  20.198  40.337   0.388
16796W        W82023   6.118  26.942  13.048
16797W        W82024  40.593  29.096   3.744
16798W        W82025  42.865  22.723  13.020
16799W        W82026  21.618  34.178   2.255
16800W        W82027  15.743  10.325   2.912
16801W        W82028  43.268  31.268   3.252
16802W        W82029  17.061   1.914   3.686
16803W        W82030  15.177   1.947  12.149
16804W        W82031  11.571   0.051   0.321
16805W        W82032  24.963  34.586   1.329
16806W        W82033  33.026  25.114  10.648
16807W        W82034  37.054  24.187   1.740
16808W        W82035  33.665   0.708   1.354
16809W        W82036   6.414  33.510  12.448
16810W        W82037  25.163  35.084  12.697
16811W        W82038  13.924   7.340   2.297
16812W        W82039  22.340   9.956   3.863
16813W        W82040  30.406  11.190   3.717
16814W        W82041  19.071  27.571  13.921
16815W        W82042  14.043  38.945  11.642
16816W        W82043  26.058  39.260  11.485
16817W        W82044  35.846  39.832   0.737
16818W        W82045  37.339  38.169  10.304
16819W        W82046  23.570  32.090   4.091
16820W        W82047  14.181   9.891  14.071
16821W        W82048  16.670   9.802   4.655
16822W        W82049  25.474  26.711   1.351
16823W        W82050  25.497  18.117  13.318
16824W        W82051   6.464  28.846  12.868
16825W        W82052  37.468  17.080  14.587
16826W        W82053  38.364  32.831  14.165
16827W        W82054   8.170  31.432  14.008
16828W        W82055   8.882  23.723   1.216
16829W        W82056  10.087  32.736  11.657
16830W        W82057  36.453  23.107  12.315
16831W        W82058   7.186  18.003  11.924
16832W        W82059  30.542  42.071   3.317
16833W        W82060  35.606   0.837  12.431
16834W        W82061  13.318  26.705   4.828
16835W        W82062  21.875   8.826   4.180
16836W        W82063   1.756   6.735  12.948
16837W        W82064  10.197  20.516  11.492
16838W        W82065   0.002  36.001   3.383
16839W        W82066  35.360  29.458  12.390
16840W        W82067   2.065  27.641  10.302
16841W        W82068  33.237  16.721   1.350
16842W        W82069  10.227   3.493   3.377
16843W        W82070  35.874  36.411  13.358
16844W        W82071  42.570   8.369  14.810
16845W        W82072   1.375   9.862   1.371
16846W        W82073  25.159   7.400   3.476
16847W        W82074  43.673  25.734  10.714
16848W        W82075  31.751  10.902   2.275
16849W        W82076  35.504  13.604   1.710
16850W        W82077  25.731  25.330   4.454
16851W        W82078  20.063  21.557   1.757
16852W        W82079  24.047  20.606   4.562
16853W        W82080  40.774   5.366   0.237
16854W        W82081  36.211   5.852   0.759
16855W        W82082  43.444  12.300  14.504
16856W        W82083  38.526   3.360   1.749
16857W        W82084  17.219  33.662  14.974
16858W        W82085  29.509  14.600  13.876
16859W        W82086  26.531  24.266   2.244
16860W        W82087   3.618   5.559   4.019
16861W        W82088  11.364  32.493  14.281
16862W        W82089  43.159  33.341  10.967
16863W        W82090  35.922  19.658  13.760
16864W        W82091   3.275  35.575   1.734
16865W        W82092  27.444  24.652  11.565
16866W        W82093  27.719  36.409  14.784
16867W        W82094   3.310  42.054   0.745
16868W        W82095  10.326  22.372  12.396
16869W        W82096  27.954  38.467  14.533
16870W        W82097  16.755  41.177   3.638
16871W        W82098   1.723  12.969  14.829
16872W        W82099  41.372  20.301  14.927
16873W        W82100  14.129   4.649   3.164
16874W        W82101  12.592   9.885   3.644
16875W        W82102  18.800  19.740  14.320
16876W        W82103   8.698  21.196   1.398
16877W        W82104  16.928   9.672   0.252
16878W        W82105  10.812  24.500  12.947
16879W        W82106  12.056  40.645  14.405
16880W        W82107  44.733  44.589   0.988
16881W        W82108  30.741  40.978   2.290
16882W        W82109  31.914  34.293  14.035
16883W        W82110  37.145  23.437  13.967
16884W        W82111  34.943  25.944   3.652
16885W        W82112  20.797   9.672   2.781
16886W        W82113  40.516  16.050  14.987
16887W        W82114  30.478   1.160   3.367
16888W        W82115  31.591  37.505   2.339
16889W        W82116  37.974  16.839   1.716
16890W        W82117  11.802  26.206  11.154
16891W        W82118  11.905  40.413  12.105
16892W        W82119  15.216  39.936   0.289
16893W        W82120  28.475  10.852   0.471
16894W        W82121  11.260  37.830   0.057
16895W        W82122   7.655  21.143  10.712
16896W        W82123  16.407  21.255   3.719
16897W        W82124  24.201  12.520   4.614
16898W        W82125   4.106  16.526  13.000
16899W        W82126  39.737  11.389  12.061
16900W        W82127  42.366   7.071  14.246
16901W        W82128  29.898  44.545  10.399
16902W        W82129  43.929  12.816   1.797
16903W        W82130  21.371  34.274  11.100
16904W        W82131  36.255   6.138  11.189
16905W        W82132  35.429  44.568  12.802
16906W        W82133  30.910   0.903   1.292
16907W        W82134  33.776  44.149   3.143
16908W        W82135  17.009   0.860   1.766
16909W        W82136  40.957   6.865   9.781
16910W        W82137  10.300   7.751  11.116
16911W        W82138  16.150   4.713  12.935
16912W        W82139  13.239  31.809   2.921
16913W        W82140   2.290  29.374   5.305
16914W        W82141  12.130  30.419   2.685
16915W        W82142   5.466  40.256  14.523
16916W        W82143   8.879  17.538  14.471
16917W        W82144  34.906  28.635  12.409
16918W        W82145  37.488  18.612   0.050
16919W        W82146  44.803  42.863   1.927
16920W        W82147  17.559  14.344  14.064
16921W        W82148  33.451  32.142  14.304
16922W        W82149   0.159  22.823   3.900
16923W        W82150  35.833   0.460  10.875
16924W        W82151  13.553  31.025  11.992
16925W        W82152  30.947  15.600  11.667
16926W        W82153  19.031  16.538  10.723
16927W        W82154  38.889  22.422   3.070
16928W        W82155  21.407   6.649   3.180
16929W        W82156   7.106  17.376   2.289
16930W        W82157  38.601  26.935  13.410
16931W        W82158  32.392   9.125   0.296
16932W        W82159   3.043   9.528  13.100
16933W        W82160  39.970  35.667   0.770
16934W        W82161  15.150  31.026   2.734
16935W        W82162  13.753  17.644   1.406
16936W        W82163   7.698  11.733  10.795
16937W        W82164  35.462  42.472  10.546
16938W        W82165   7.392   9.429  11.396
16939W        W82166   9.648   6.078  11.176
16940W        W82167   9.667  26.710  10.819
16941W        W82168  43.682  34.400   3.893
16942W        W82169  11.856  31.559   3.655
16943W        W82170   6.100  25.422  14.538
16944W        W82171  40.340  43.337  12.898
16945W        W82172  13.240  42.025   1.338
16946W        W82173   2.806  33.842  13.334
16947W        W82174  17.935  41.179   3.204
16948W        W82175  38.941  33.367   4.355
16949W        W82176  44.851   9.115  11.624
16950W        W82177  21.239  20.503   2.745
16951W        W82178  30.391  33.128   1.925
16952W        W82179   1.348  22.151   0.484
16953W        W82180  22.939  16.150   0.984
16954W        W82181  43.017   5.219   2.684
16955W        W82182  28.451   4.903  14.487
16956W        W82183  29.295  22.716  11.507
16957W        W82184   0.594  35.778  14.894
16958W        W82185  33.209  40.296   3.789
16959W        W82186  12.624   2.679  12.109
16960W        W82187   4.629   5.071  10.188
16961W        W82188  22.932  29.277   0.408
16962W        W82189  26.300   4.542   3.321
16963W        W82190   9.258  34.394  13.455
16964W        W82191   8.673  27.555  12.351
16965W        W82192  23.431   4.878   0.908
16966W        W82193   2.208  18.730  11.671
16967W        W82194  15.249  15.620   1.469
16968W        W82195  31.032  28.822  13.997
16969W        W82196   8.853   3.204  14.961
16970W        W82197  16.656  30.213  10.775
16971W        W82198  38.783  37.981   4.771
16972W        W82199  33.264   2.723   0.691
16973W        W82200  29.396  11.780   0.708
16974W        W82201  19.766  35.517   0.377
16975W        W82202   8.953  38.651  14.086
16976W        W82203   6.712  37.555  13.465
16977W        W82204   8.844  26.996  13.427
16978W        W82205   4.912   0.047   1.174
16979W        W82206  41.140  24.801  11.215
16980W        W82207  33.404   6.227   0.924
16981W        W82208  39.280  12.702   0.456
16982W        W82209  42.880  39.245  10.635
16983W        W82210  44.552  33.880   3.334
16984W        W82211   1.059  18.395  12.683
16985W        W82212  39.725   5.789  12.350
16986W        W82213  20.753  37.826   4.724
16987W        W82214  20.969  39.529   3.792
16988W        W82215   4.550   6.329  11.330
16989W        W82216   9.715  41.043  11.600
16990W        W82217  13.702  36.990   1.687
16991W        W82218  28.518  12.078   2.632
16992W        W82219  23.173  21.796   3.331
16993W        W82220  20.998  42.355   0.199
16994W        W82221  35.377  11.218  14.311
16995W        W82222  20.023  21.592  14.469
16996W        W82223  39.072  11.137  13.308
16997W        W82224  25.744  38.997   0.344
16998W        W82225  41.460   2.734  11.549
16999W        W82226  27.079   9.654  13.976
17000W        W82227  19.655  34.549   3.633
17001W        W82228   0.859  21.254  14.216
17002W        W82229  34.028  34.015  14.515
17003W        W82230  21.600  10.362  10.722
17004W        W82231   1.809  25.093  10.743
17005W        W82232  23.694   9.262   4.663
17006W        W82233  19.991  34.948  13.328
17007W        W82234  13.708  35.524   0.630
17008W        W82235  18.197  17.124  14.611
17009W        W82236  35.397  18.269   3.167
17010W        W82237  25.225  30.138  12.160
17011W        W82238  36.625  34.407   3.789
17012W        W82239  17.747  33.680  12.445
17013W        W82240  19.663   6.678   0.378
17014W        W82241  12.289  26.360  11.307
17015W        W82242  29.972  35.752  12.966
17016W        W82243  26.296  16.226   2.768
17017W        W82244  24.002  18.563   3.656
17018W        W82245  19.231   4.713  11.818
17019W        W82246  43.520  22.785   2.919
17020W        W82247  28.882  19.084  10.745
17021W        W82248  15.518  22.193   3.126
17022W        W82249  17.111  23.893   3.708
17023W        W82250  15.081  42.870   2.736
17024W        W82251  36.933  10.630   1.158
17025W        W82252  22.505  33.626   0.549
17026W        W82253  20.475  10.238   1.620
17027W        W82254  17.642   4.930   0.487
17028W        W82255  28.690  36.374  10.360
17029W        W82256  23.642  35.011  12.177
17030W        W82257  31.738  13.621   2.928
17031W        W82258  28.021  26.112   3.005
17032W        W82259  39.335  24.339   2.771
17033W        W82260  21.374  28.031   0.217
17034W        W82261  17.851  32.481   1.539
17035W        W82262  14.689  27.448   4.712
17036W        W82263  24.152  22.420   0.236
17037W        W82264  36.922  35.607  14.498
17038W        W82265  41.503  15.129  14.370
17039W        W82266  34.150  19.975  11.691
17040W        W82267  24.036  21.614  11.885
17041W        W82268  15.231  43.107  11.022
17042W        W82269  32.048   6.836  13.852
17043W        W82270   5.071  23.008   4.136
17044W        W82271  42.774   5.130   0.267
17045W        W82272  31.288  31.709   4.637
17046W        W82273  22.020  22.983   4.784
17047W        W82274  42.705  28.372  14.029
17048W        W82275  38.495  33.905  11.059
17049W        W82276  23.571  43.191   2.237
17050W        W82277  18.680  29.224  12.244
17051W        W82278  20.519  38.976   0.407
17052W        W82279  11.199   2.356   4.021
17053W        W82280  44.188  12.486   3.155
17054W        W82281  43.320   1.849   2.851
17055W        W82282  44.640   6.849   2.609
17056W        W82283   0.311  12.490  11.257
17057W        W82284  26.657  22.975  11.932
17058W        W82285  30.508   2.699  10.431
17059W        W82286  43.393  37.638   3.263
17060W        W82287   7.145  24.384   2.664
17061W        W82288  25.943  44.732   0.432
17062W        W82289  30.356  10.127  11.630
17063W        W82290  13.218  17.022  10.706
17064W        W82291   0.253  22.138   4.603
17065W        W82292  35.139   4.647  12.914
17066W        W82293   4.145  39.435   1.352
17067W        W82294   5.979  23.312  13.297
17068W        W82295  32.096   7.504  11.053
17069W        W82296  19.648  11.680   2.733
17070W        W82297  38.835  42.090   0.726
17071W        W82298  30.361  16.692   0.423
17072W        W82299  26.066  21.501   1.633
17073W        W82300  36.851  15.646   3.624
17074W        W82301   3.305  12.676  13.426
17075W        W82302   8.118  23.248   2.253
17076W        W82303  36.786  37.123  14.312
17077W        W82304  14.617  24.048   2.672
17078W        W82305  14.405  33.888  13.927
17079W        W82306  32.086   5.413   1.239
17080W        W82307  32.825  39.261  12.023
17081W        W82308  11.782  14.624  11.084
17082W        W82309   8.968   9.749   1.531
17083W        W82310  10.222   3.765  12.924
17084W        W82311  25.319  42.431  11.816
17085W        W82312   0.742  40.195   0.832
17086W        W82313  17.345  23.076   0.929
17087W        W82314  38.894  25.709   2.084
17088W        W82315  33.078  35.029  12.034
17089W        W82316  43.452   9.150   4.504
17090W        W82317   7.777   3.574  11.680
17091W        W82318   4.774   4.218   4.542
17092W        W82319  26.295  22.603   1.087
17093W        W82320  25.310  27.129  13.487
17094W        W82321  34.820  17.895  11.054
17095W        W82322  36.513  38.557   1.880
17096W        W82323  43.228  13.759   0.922
17097W        W82324  40.513  12.150  10.468
17098W        W82325   3.098   9.824  12.657
17099W        W82326  19.435  14.365   5.060
17100W        W82327  26.887  18.237   4.419
17101W        W82328   6.726  23.510  14.859
17102W        W82329   2.032  23.580   3.123
17103W        W82330  16.080   7.627   0.795
17104W        W82331  31.649  32.592   1.210
17105W        W82332   1.190  30.687  11.057
17106W        W82333  12.085  19.131   2.109
17107W        W82334   8.684  33.905  12.959
17108W        W82335  43.373   7.381   3.178
17109W        W82336  13.361  13.603   2.209
17110W        W82337  18.576   4.212   3.667
17111W        W82338  44.672  32.786   2.287
17112W        W82339  11.688  26.923   4.341
17113W        W82340  41.213  43.209  11.035
17114W        W82341  20.294   6.769  12.468
17115W        W82342  26.117  19.807   4.272
17116W        W82343   7.575  18.753  12.984
17117W        W82344  12.910  44.551  12.058
17118W        W82345  30.651  35.068  14.014
17119W        W82346  31.357  14.247  12.669
17120W        W82347  18.833  26.881   2.236
17121W        W82348  35.606  21.654   3.194
17122W        W82349  40.985  27.743   1.038
17123W        W82350  36.935  20.503  13.039
17124W        W82351  31.549  25.167   5.136
17125W        W82352  44.386  44.907  11.143
17126W        W82353   6.552  26.396   5.086
17127W        W82354  37.441  20.096   1.807
17128W        W82355  28.643  15.638  12.464
17129W        W82356   1.811  27.519  12.975
17130W        W82357  34.084  22.786   1.749
17131W        W82358   1.567  37.561   1.757
17132W        W82359  27.820  31.000  13.310
17133W        W82360  38.038  13.191   0.884
17134W        W82361  38.314  17.988  12.885
17135W        W82362  10.994  28.999  10.090
17136W        W82363  27.943  26.817   9.741
17137W        W82364   7.369  18.472  11.759
17138W        W82365  19.751  36.393   3.473
17139W        W82366  41.513  40.858   2.248
17140W        W82367   0.171  28.366  10.736
17141W        W82368  16.600  24.239   2.024
17142W        W82369  35.462  11.034  12.454
17143W        W82370  11.468   3.378  11.877
17144W        W82371   8.258  10.162   2.645
17145W        W82372  24.686  33.456   1.755
17146W        W82373  18.842  26.470  10.606
17147W        W82374   1.921  34.119   2.227
17148W        W82375  36.606  20.955   2.342
17149W        W82376  13.846  20.663   3.899
17150W        W82377  39.310  18.830  14.862
17151W        W82378  17.258   9.427   2.738
17152W        W82379  27.976  36.237  13.418
17153W        W82380  26.412   7.703   5.021
17154W        W82381  29.039  26.336  11.677
17155W        W82382  16.379  19.213  12.140
17156W        W82383   8.390  37.181  14.076
17157W        W82384  43.427  12.191  12.447
17158W        W82385  37.008  26.035  14.918
17159W        W82386   6.915  39.839  11.151
17160W        W82387  23.476  22.982   1.950
17161W        W82388  34.471  22.281  11.894
17162W        W82389  35.465  27.077  13.821
17163W        W82390  13.132  44.818   1.253
17164W        W82391  21.742  12.116   0.295
17165W        W82392   0.725   5.131  13.386
17166W        W82393  26.936   5.672   0.465
17167W        W82394  19.113   6.934   3.712
17168W        W82395  33.890  18.975   4.060
17169W        W82396  23.703   5.734  13.826
17170W        W82397  27.632   7.641   4.568
17171W        W82398  44.757  37.463   0.514
17172W        W82399  42.975   5.193  10.001
17173W        W82400  12.615  34.498  12.830
17174W        W82401   5.572  27.624   0.518
17175W        W82402   7.115  17.371   1.172
17176W        W82403  13.877  19.814  13.823
17177W        W82404  16.169  36.505   2.597
17178W        W82405  28.714  28.881   2.790
17179W        W82406   7.003   1.667   0.860
17180W        W82407  41.373  13.573  10.664
17181W        W82408  34.083  29.700   4.743
17182W        W82409   1.064  20.236  13.304
17183W        W82410   4.851   2.056  10.647
17184W        W82411  33.849  41.027  13.854
17185W        W82412  18.205  18.693   4.570
17186W        W82413  27.579  28.118   1.900
17187W        W82414   7.329  22.747  10.734
17188W        W82415  42.995   7.798   1.337
17189W        W82416  14.432  40.022   4.019
17190W        W82417  39.450   6.793  12.175
17191W        W82418  20.139   9.937  13.788
17192W        W82419  10.462  26.975  11.999
17193W        W82420  31.985  22.444   1.387
17194W        W82421  27.113   7.150   0.803
17195W        W82422   7.098  19.984   0.400
17196W        W82423  18.667  22.058  11.641
17197W        W82424  33.098   3.059  10.729
17198W        W82425  21.141  11.689  12.042
17199W        W82426  21.009  41.118  13.833
17200W        W82427  22.656  38.427   2.812
17201W        W82428  19.607  23.206  14.282
17202W        W82429  11.172   9.833  14.892
17203W        W82430  10.994   8.798   2.862
17204W        W82431  14.598  38.282   3.640
17205W        W82432  25.036   4.809  11.701
17206W        W82433  13.581  31.227  10.706
17207W        W82434  34.579  13.800  12.473
17208W        W82435  38.496   1.429   1.570
17209W        W82436  22.699  33.135   3.994
17210W        W82437  28.115  33.832  13.474
17211W        W82438  10.867  37.915  12.925
17212W        W82439  40.798  29.867   1.908
17213W        W82440   3.216  36.409   4.167
17214W        W82441  35.684   7.331   1.010
17215W        W82442   9.364  38.830   3.830
17216W        W82443  15.799  29.453   0.881
17217W        W82444  38.581  39.474   3.686
17218W        W82445   3.522  14.312  11.202
17219W        W82446  40.723  34.209  14.494
17220W        W82447  35.093  37.086  12.434
17221W        W82448  28.302  42.356   1.400
17222W        W82449  38.199   2.523  10.720
17223W        W82450   0.027   6.688  14.298
17224W        W82451  23.688  25.194   2.271
17225W        W82452  33.414   8.875  10.953
17226W        W82453  40.533  35.014  14.968
17227W        W82454  10.366  13.287   1.781
17228W        W82455  40.995   4.977   4.529
17229W        W82456  15.268   2.744   0.838
17230W        W82457  32.314   9.918  14.627
17231W        W82458  37.060  42.135   0.811
17232W        W82459  23.160  44.428  12.340
17233W        W82460   3.703   3.227   3.094
17234W        W82461   5.829   6.287   1.905
17235W        W82462  19.530  17.546   1.863
17236W        W82463   0.796   0.473   4.499
17237W        W82464   2.814  15.839   0.848
17238W        W82465  27.533  36.604   2.751
17239W        W82466   3.594  16.529   0.516
17240W        W82467   1.822  43.764  14.874
17241W        W82468  25.505  30.214  14.535
17242W        W82469  11.461   8.811  14.816
17243W        W82470  12.000   9.258  10.790
17244W        W82471   8.807  39.459   2.352
17245W        W82472  12.654   2.171  12.064
17246W        W82473  21.237  24.476   4.124
17247W        W82474   1.529  14.451   2.846
17248W        W82475   6.965  28.803   4.482
17249W        W82476  34.557  28.446   1.192
17250W        W82477  27.029  40.086  11.001
17251W        W82478  41.359  18.157   1.851
17252W        W82479   0.364  16.311   5.006
17253W        W82480  39.762  42.373   1.078
17254W        W82481  15.240   4.659   4.108
17255W        W82482  27.246  38.948  10.625
17256W        W82483  28.867  25.943   4.784
17257W        W82484   0.632  32.416   0.437
17258W        W82485  44.008  30.391  10.278
17259W        W82486  41.065   4.651   4.120
17260W        W82487  13.620  22.676   2.247
17261W        W82488  29.663   4.220   0.266
17262W        W82489   4.805  29.162  13.849
17263W        W82490  43.171  28.439  11.519
17264W        W82491  12.672  27.517   3.661
17265W        W82492   1.801  10.405  11.496
17266W        W82493  38.274  18.246  12.029
17267W        W82494   1.885  15.181   4.499
17268W        W82495  39.670   1.646  11.686
17269W        W82496   3.483   8.281   0.999
17270W        W82497  40.596   3.880   1.228
17271W        W82498  12.503   3.434  10.991
17272W        W82499  13.830  40.819   2.831
17273W        W82500  14.549  22.211   0.891
17274W        W82501  41.357  44.445  13.968
17275W        W82502  23.177  18.221  11.931
17276W        W82503   3.247  40.943   4.614
17277W        W82504  36.090  16.214  13.342
17278W        W82505  23.736  32.777   0.698
17279W        W82506  22.802  21.112   1.855
17280W        W82507  21.731  11.109   1.845
17281W        W82508  42.448  12.195   1.946
17282W        W82509   3.444  19.679   3.337
17283W        W82510  37.219  43.073  11.100
17284W        W82511   8.399  44.196  11.506
17285W        W82512   9.277  22.390  11.171
17286W        W82513  13.051   0.877  14.041
17287W        W82514   0.494  43.579  13.488
17288W        W82515   4.925  41.709  11.227
17289W        W82516  38.647  22.451   3.716
17290W        W82517  38.345   2.434  11.616
17291W        W82518  29.040  41.171  13.564
17292W        W82519  16.492  12.397   4.569
17293W        W82520   0.775  29.621  14.282
17294W        W82521   4.081  29.086  10.741
17295W        W82522  36.971  44.312   1.317
17296W        W82523  44.214   2.232   3.158
17297W        W82524  21.153  15.047   0.520
17298W        W82525   6.741  22.707   1.320
17299W        W82526  26.851  27.092  10.668
17300W        W82527  19.790  43.803   4.993
17301W        W82528  37.484  38.383   2.763
17302W        W82529  19.021  10.813   4.865
17303W        W82530   2.829  12.322   3.595
17304W        W82531  15.074  14.566  11.232
17305W        W82532  36.412   2.906  14.793
17306W        W82533  20.995   6.882   0.463
17307W        W82534   4.908  25.694  11.548
17308W        W82535  18.047  44.725  12.931
17309W        W82536  38.481  31.472   4.548
17310W        W82537  31.899  35.444   4.473
17311W        W82538   6.215  35.202   2.642
17312W        W82539  41.958   3.947  12.102
17313W        W82540  44.768  20.734  13.360
17314W        W82541   6.827  13.377   0.666
17315W        W82542  31.633  22.838   1.346
17316W        W82543  42.856  43.425  13.090
17317W        W82544   9.789  33.298   0.753
17318W        W82545   6.758  26.085  10.820
17319W        W82546  36.052   2.044  12.248
17320W        W82547  12.377  12.186  13.627
17321W        W82548  11.172   3.809   1.273
17322W        W82549  16.240  36.617   0.669
17323W        W82550  13.954  39.825  13.071
17324W        W82551   6.881  16.472  12.453
17325W        W82552  35.046  38.834   1.810
17326W        W82553  34.863  14.113  14.048
17327W        W82554  37.146   2.412   0.693
17328W        W82555  19.118  19.076  11.869
17329W        W82556  34.089  14.302  14.494
17330W        W82557  25.232  35.809   2.103
17331W        W82558  31.130  40.596   2.452
17332W        W82559  40.991  22.783  11.674
17333W        W82560  12.701  42.215   2.772
17334W        W82561  15.477  39.082  11.295
17335W        W82562  23.845   5.221  12.967
17336W        W82563  37.022  32.684  11.966
17337W        W82564   1.751  27.016   2.228
17338W        W82565  40.569  31.136   4.470
17339W        W82566  20.593  13.837   2.335
17340W        W82567  22.397  14.221   5.093
17341W        W82568  27.125  12.602  11.949
17342W        W82569  19.246  28.050   2.757
17343W        W82570  43.699  27.539  10.119
17344W        W82571   8.782  40.775   1.939
17345W        W82572  21.950   9.242   0.913
17346W        W82573  33.568  15.579   3.106
17347W        W82574  12.137  14.177   1.694
17348W        W82575  33.661  33.591   3.037
17349W        W82576  35.509  38.830   1.555
17350W        W82577  41.911   4.198  13.850
17351W        W82578  22.323  44.662   4.548
17352W        W82579   3.297  33.661   0.026
17353W        W82580  42.195  14.836  11.991
17354W        W82581  41.694   5.823   0.287
17355W        W82582  38.795  25.005  12.577
17356W        W82583  41.053  13.680   0.023
17357W        W82584  43.824  42.190   1.694
17358W        W82585  35.454   2.414   2.946
17359W        W82586  44.561  43.520   4.181
17360W        W82587  21.698   0.380  11.918
17361W        W82588  44.519  34.789  14.297
17362W        W82589  42.823   9.894   3.638
17363W        W82590  13.168  24.785   2.641
17364W        W82591  24.581  29.365   0.388
17365W        W82592  43.092  33.542  13.577
17366W        W82593   1.998  34.248  11.123
17367W        W82594  42.740   0.325  13.580
17368W        W82595  43.746  35.047  13.965
17369W        W82596  24.097  10.296  13.825
17370W        W82597  38.607  25.539   4.948
17371W        W82598  30.013   2.622  14.434
17372W        W82599   2.563  22.255  14.724
17373W        W82600  44.522   6.875  10.589
17374W        W82601  20.610   7.317   4.870
17375W        W82602  15.088   1.500  12.513
17376W        W82603  43.975  28.713   2.111
17377W        W82604  23.281  39.258  11.362
17378W        W82605   3.853  41.475  11.569
17379W        W82606  32.181  30.836   4.147
17380W        W82607  18.908  40.277  12.548
17381W        W82608  35.720  38.423   0.739
17382W        W82609  10.888  34.971   1.438
17383W        W82610  18.869   8.790   1.613
17384W        W82611   7.311  31.408   3.268
17385W        W82612  18.584  41.751  11.629
17386W        W82613  32.571  30.753   4.484
17387W        W82614  11.184  23.934  12.510
17388W        W82615  26.488  42.053   4.546
17389W        W82616  35.570   2.796   1.635
17390W        W82617  15.320  21.341  13.491
17391W        W82618  31.918  31.887  10.409
17392W        W82619   8.997   5.309   4.066
17393W        W82620   4.277  15.704   1.400
17394W        W82621  34.905  40.439  12.726
17395W        W82622  41.121  19.110   1.906
17396W        W82623   6.861  11.766  14.864
17397W        W82624  39.676  28.479  12.550
17398W        W82625   3.536  36.839   4.167
17399W        W82626   3.524  17.205   3.805
17400W        W82627  37.287  19.819  10.555
17401W        W82628  44.080  28.489  10.235
17402W        W82629  25.978   0.456  14.936
17403W        W82630  28.221  28.433   3.470
17404W        W82631  26.187   6.723  14.484
17405W        W82632  11.545  31.041   4.558
17406W        W82633  25.973   1.226   1.188
17407W        W82634   3.740  11.448   3.138
17408W        W82635  34.101  41.329   4.457
17409W        W82636   8.757   7.863   4.277
17410W        W82637   3.902  13.231  13.105
17411W        W82638  43.644   0.569  11.182
17412W        W82639  27.029  31.957  12.111
17413W        W82640  15.290  31.621   4.023
17414W        W82641  26.559  21.387  13.578
17415W        W82642   2.962  23.000   0.762
17416W        W82643  37.280   5.197  12.888
17417W        W82644  38.062   2.744  12.463
17418W        W82645  10.339  30.008  13.790
17419W        W82646  36.345  39.007  10.812
17420W        W82647  38.942  14.095  11.697
17421W        W82648   8.175  27.373   4.114
17422W        W82649  40.329   1.927  14.823
17423W        W82650   3.904   9.322  10.941
17424W        W82651  26.632  13.083   2.157
17425W        W82652   3.618   8.157  14.784
17426W        W82653  25.503   1.443   1.197
17427W        W82654   5.828  41.303  11.640
17428W        W82655  18.768  36.565  12.064
17429W        W82656  34.330  32.554  14.466
17430W        W82657  38.776  42.033  10.732
17431W        W82658  11.571  30.169  11.204
17432W        W82659  20.577  39.022   2.660
17433W        W82660   4.849  27.700   4.747
17434W        W82661  21.745  30.613  13.982
17435W        W82662  38.121   4.347  14.927
17436W        W82663   8.847  18.721   3.659
17437W        W82664   9.394   8.943   2.196
17438W        W82665   4.939  24.437   3.955
17439W        W82666  10.449  11.292   0.378
17440W        W82667  16.797   9.020  12.091
17441W        W82668  10.183  39.117   4.053
17442W        W82669  18.391   8.392  12.552
17443W        W82670  21.650   8.272   4.837
17444W        W82671  44.933  27.113  12.971
17445W        W82672  14.392   8.005   4.073
17446W        W82673  23.100  16.975  10.681
17447W        W82674  20.261   7.477   2.745
17448W        W82675  40.447  41.807   4.612
17449W        W82676  20.516   0.516   1.878
17450W        W82677  24.104  39.443   4.496
17451W        W82678  24.606  18.706  12.467
17452W        W82679   8.133  37.448   1.765
17453W        W82680  13.731   0.765  10.685
17454W        W82681  33.724  41.047   4.152
17455W        W82682  23.315  41.000   2.296
17456W        W82683  33.813  44.895   3.678
17457W        W82684  34.245  26.499  14.438
17458W        W82685  22.868  11.521  11.136
17459W        W82686  25.856  21.262  14.037
17460W        W82687  32.885  43.532  12.914
17461W        W82688  18.822  39.021  11.803
17462W        W82689  41.704  41.063   4.974
17463W        W82690   3.404  18.299  11.093
17464W        W82691  28.993  23.613  12.423
17465W        W82692  44.145  23.006  10.742
17466W        W82693  36.962   6.426   0.882
17467W        W82694  42.810  34.110  10.418
17468W        W82695  19.502  11.220   0.442
17469W        W82696   7.540  22.828   1.011
17470W        W82697  41.339  22.987  14.426
17471W        W82698  21.274   8.850  10.683
17472W        W82699  36.418  37.862   0.467
17473W        W82700  12.288   9.252   2.663
17474W        W82701   4.408  37.867  11.472
17475W        W82702  32.635  14.388  13.369
17476W        W82703  10.851   1.481  11.991
17477W        W82704  42.610  14.200  12.488
17478W        W82705  42.482   4.281   1.792
17479W        W82706  35.447  22.028   4.531
17480W        W82707  36.072  37.761   4.030
17481W        W82708   0.303  31.510   4.002
17482W        W82709  35.381  22.612  14.117
17483W        W82710  14.383  10.302  11.860
17484W        W82711  43.346   6.184  12.385
17485W        W82712   8.367  29.750  11.629
17486W        W82713   1.276  11.749  12.759
17487W        W82714  35.277  18.420  11.596
17488W        W82715  26.460  35.942   4.974
17489W        W82716  43.992   6.345   1.373
17490W        W82717  30.358  29.460  14.918
17491W        W82718  13.417  23.876   4.883
17492W        W82719  37.979   9.194   2.756
17493W        W82720  36.890  34.327   1.829
17494W        W82721  33.124  28.611   1.396
17495W        W82722  23.275  12.761  13.770
17496W        W82723  12.443  24.629  10.762
17497W        W82724  19.737  15.100   3.644
17498W        W82725   5.294   1.822  12.346
17499W        W82726  23.101   8.651   3.683
17500W        W82727  12.199  37.054   2.365
17501W        W82728  35.607  44.736  10.671
17502W        W82729   5.780   9.670  11.151
17503W        W82730  16.080  19.995   0.270
17504W        W82731   7.883  18.121   2.385
17505W        W82732   6.650  20.699  10.815
17506W        W82733  22.665   2.223   1.739
17507W        W82734  33.427  12.632   4.527
17508W        W82735   8.604  30.086   2.205
17509W        W82736  24.644  34.096  10.673
17510W        W82737  40.058   7.648  12.222
17511W        W82738  43.406   5.357   4.033
17512W        W82739   5.440  36.258   3.639
17513W        W82740  14.109  43.838  11.523
17514W        W82741  44.905  33.925  11.836
17515W        W82742  19.812   6.218  13.029
17516W        W82743   3.843   6.127  11.077
17517W        W82744  24.569  42.507  10.962
17518W        W82745  22.827   2.106  10.559
17519W        W82746  23.250  29.130  14.501
17520W        W82747  27.933  19.301  10.465
17521W        W82748  41.804  15.364   2.100
17522W        W82749   1.566  22.061   0.016
17523W        W82750  29.623  22.180   2.455
17524W        W82751  44.326  36.356  11.528
17525W        W82752  40.229  10.157  13.585
17526W        W82753   5.670  18.121  11.950
17527W        W82754   9.285  24.909   1.930
17528W        W82755   8.813   3.473  10.411
17529W        W82756   4.569   9.756   4.174
17530W        W82757  21.194  15.160  10.918
17531W        W82758  38.302  34.168   1.551
17532W        W82759   6.197  18.865  12.382
17533W        W82760  16.418   9.911   2.614
17534W        W82761  34.870  33.974  12.031
17535W        W82762  21.184  40.899   3.227
17536W        W82763  22.477  41.448  14.818
17537W        W82764   0.899  24.647  14.977
17538W        W82765  13.917   9.222   2.832
17539W        W82766   7.903  11.465  13.126
17540W        W82767  11.889  25.734   2.804
17541W        W82768  27.479  39.311   3.885
17542W        W82769  40.050  11.912   0.772
17543W        W82770  36.992  31.991  13.588
17544W        W82771  37.486  25.040  11.561
17545W        W82772  41.477  27.905   1.205
17546W        W82773  18.747   2.459  13.939
17547W        W82774  15.096  20.237  14.940
17548W        W82775  29.556  14.101  12.430
17549W        W82776  15.541  31.325   1.769
17550W        W82777  43.023  19.482  13.640
17551W        W82778  39.091  40.090   1.055
17552W        W82779  40.518  40.557   2.867
17553W        W82780  17.211  44.401   5.204
17554W        W82781  27.519  43.594   0.306
17555W        W82782  33.995  37.110   1.293
17556W        W82783  15.086  33.076  10.571
17557W        W82784   9.835  23.798  14.506
17558W        W82785  40.740  38.092  11.195
17559W        W82786  29.328  40.765  10.173
17560W        W82787  16.285   7.668   3.048
17561W        W82788  21.684  27.003   1.194
17562W        W82789  11.845  35.168  10.671
17563W        W82790  27.703  15.633   1.288
17564W        W82791  20.102  13.995  14.868
17565W        W82792  14.614   4.413   4.206
17566W        W82793   1.941   7.140  12.678
17567W        W82794  13.316   3.920   3.861
17568W        W82795  34.471  19.267  12.936
17569W        W82796  17.652   1.435  12.103
17570W        W82797  15.338   6.852   4.503
17571W        W82798  25.967   7.869  13.348
17572W        W82799  10.846  36.858   1.281
17573W        W82800   2.867  32.319  12.106
17574W        W82801  40.030  39.271  10.963
17575W        W82802  33.359  18.197   4.849
17576W        W82803  32.880  28.034  12.930
17577W        W82804   4.127   1.776  14.904
17578W        W82805  12.353  36.013  14.808
17579W        W82806  16.109  31.446  12.918
17580W        W82807  19.239  40.686  12.504
17581W        W82808  32.179   8.348  11.041
17582W        W82809   0.494  17.632   0.497
17583W        W82810  13.300  36.982  14.316
17584W        W82811   9.160  10.164  11.509
17585W        W82812   9.322   3.093  14.733
17586W        W82813   7.914  41.521   4.650
17587W        W82814   1.174  18.146   0.002
17588W        W82815   9.923  24.224   2.675
17589W        W82816   5.776  20.022   3.765
17590W        W82817  17.004   5.938  11.275
17591W        W82818  34.497  37.293   1.244
17592W        W82819  21.975  39.382   4.339
17593W        W82820  17.999  35.461   0.458
17594W        W82821  20.658  22.011  12.112
17595W        W82822  13.339  25.194  11.697
17596W        W82823  32.017   7.639   3.560
17597W        W82824   8.919   0.022   3.164
17598W        W82825   3.811  22.086   1.102
17599W        W82826  16.791  41.954   2.328
17600W        W82827  37.973  42.071   0.955
17601W        W82828  13.825   2.601   4.442
17602W        W82829  30.379  36.077  14.818
17603W        W82830  33.803  39.362   3.129
17604W        W82831   8.929  43.352   1.909
17605W        W82832   4.927   8.858   3.797
17606W        W82833  32.715  32.505   2.709
17607W        W82834   8.919  43.283  11.600
17608W        W82835  35.368  37.394  13.743
17609W        W82836  21.168  11.754  14.841
17610W        W82837  17.269  14.695   1.310
17611W        W82838  25.318   6.172  11.700
17612W        W82839  33.759  38.400   0.983
17613W        W82840   1.847  32.503  14.035
17614W        W82841  38.264  13.250   0.351
17615W        W82842  35.756  12.309  10.803
17616W        W82843  35.885  38.996  11.083
17617W        W82844  19.440  13.400  11.258
17618W        W82845  15.245  24.430   2.066
17619W        W82846  28.504  11.903  11.048
17620W        W82847   3.453   0.659  11.859
17621W        W82848  18.530  26.259  14.299
17622W        W82849  33.177   5.795   1.636
17623W        W82850  34.432   6.203   3.534
17624W        W82851  38.023  31.097  13.466
17625W        W82852  21.244  16.830   2.839
17626W        W82853  25.120  36.969   0.675
17627W        W82854  32.409   4.928  14.799
17628W        W82855  39.636  38.963   4.391
17629W        W82856  21.251  28.964   1.318
17630W        W82857  26.183  23.773  12.614
17631W        W82858  19.321  11.688  12.544
17632W        W82859  31.368  10.680  14.025
17633W        W82860  33.917  23.774   0.375
17634W        W82861  41.051  20.275   1.776
17635W        W82862  17.558  20.744   1.759
17636W        W82863  34.609  39.807   1.388
17637W        W82864  31.302  41.702  12.921
17638W        W82865  38.284   9.692   4.021
17639W        W82866  28.161   5.697   4.343
17640W        W82867  29.301  18.985  14.332
17641W        W82868  19.044  32.493  11.205
17642W        W82869   6.247  39.872  11.673
17643W        W82870  31.655  42.793  12.435
17644W        W82871   8.043   8.595   4.232
17645W        W82872  33.558   8.978   0.024
17646W        W82873   8.643  15.595  12.627
17647W        W82874   1.373   6.810  14.810
17648W        W82875  31.548   6.351  11.207
17649W        W82876   6.652   0.426  13.220
17650W        W82877   6.121  28.962  13.431
17651W        W82878  31.303   3.791   1.034
17652W        W82879  22.572   0.952  14.340
17653W        W82880  11.966  13.533   0.463
17654W        W82881   8.824   1.091   0.014
17655W        W82882   4.254  16.387   4.533
17656W        W82883   2.746   5.843   2.655
17657W        W82884   5.394  26.909  11.581
17658W        W82885  15.590   2.285  10.510
17659W        W82886  22.484   9.298   0.918
17660W        W82887  44.288  39.351   0.168
17661W        W82888  18.397  24.069  10.728
17662W        W82889  43.055  22.355  11.936
17663W        W82890  35.320  26.702   3.224
17664W        W82891  37.802  10.668  12.566
17665W        W82892  38.900  28.625   3.229
17666W        W82893  24.457  31.867   3.670
17667W        W82894  38.871  27.814   2.293
17668W        W82895   1.730  16.403   2.238
17669W        W82896  28.194  19.150  14.082
17670W        W82897  36.071   3.830   0.368
17671W        W82898  25.749   8.626  12.001
17672W        W82899  19.079  43.024  14.397
17673W        W82900  40.907  34.649  14.310
17674W        W82901  28.115  16.062  13.978
17675W        W82902  10.695  43.768  13.801
17676W        W82903  37.610  41.718   0.294
17677W        W82904   8.373  35.201  12.138
17678W        W82905   4.105  39.938  12.653
17679W        W82906  20.624  31.545  12.919
17680W        W82907   4.913  26.530  14.499
17681W        W82908  31.927  40.807  13.673
17682W        W82909  26.614  11.131  13.272
17683W        W82910   5.294  32.437   1.242
17684W        W82911   6.266  33.543  14.467
17685W        W82912  22.587  11.274  13.319
17686W        W82913  18.518  32.911   1.530
17687W        W82914  30.028  21.382   3.314
17688W        W82915  24.709  39.356  14.245
17689W        W82916   4.986  25.075  11.365
17690W        W82917  31.893   7.101   1.819
17691W        W82918  12.597  31.477   2.191
17692W        W82919  21.019  13.853   2.711
17693W        W82920  42.444  30.566   3.401
17694W        W82921   4.310  33.963  11.583
17695W        W82922   8.331  11.659  13.988
17696W        W82923  27.549   7.123  12.062
17697W        W82924  14.948  13.320   2.879
17698W        W82925  24.109  35.008   2.424
17699W        W82926  28.949   7.745   0.854
17700W        W82927  14.557  38.458  13.412
17701W        W82928  42.550  40.124  14.936
17702W        W82929  44.498  39.932   0.279
17703W        W82930  22.860  35.870  10.376
17704W        W82931  23.659  42.526  14.341
17705W        W82932  29.580  33.551   1.448
17706W        W82933  25.499  34.993   2.868
17707W        W82934  23.288  21.053  13.076
17708W        W82935   6.754  10.143   0.305
17709W        W82936   5.188  38.127   2.352
17710W        W82937  11.176   3.675   4.031
17711W        W82938   6.036  36.974  11.219
17712W        W82939  31.084  20.326   2.363
17713W        W82940  19.099   8.601   0.620
17714W        W82941  29.993  19.033  13.871
17715W        W82942  28.606  32.582   2.815
17716W        W82943  24.065  17.120  14.824
17717W        W82944  15.362  33.095  13.193
17718W        W82945  17.661   0.534   2.907
17719W        W82946  13.170  38.415  14.332
17720W        W82947  12.744  33.208   0.036
17721W        W82948   1.967  37.599   3.102
17722W        W82949   6.661  24.005  13.491
17723W        W82950  21.991  16.106   1.009
17724W        W82951  37.063  22.601   2.774
17725W        W82952  44.230  33.548   0.140
17726W        W82953  10.962  35.423   0.350
17727W        W82954   9.215   5.252   2.306
17728W        W82955  17.220  37.050   0.412
17729W        W82956  21.786  10.660  11.679
17730W        W82957  42.126  40.116   2.075
17731W        W82958   9.625  38.443   1.936
17732W        W82959  18.773  29.879  10.700
17733W        W82960  23.317   5.247  12.970
17734W        W82961  15.724  44.054  14.002
17735W        W82962  31.100  34.308  10.182
17736W        W82963  42.512  37.964  10.701
17737W        W82964  27.497  39.398   1.795
17738W        W82965  40.965  12.240  13.124
17739W        W82966  26.146  12.609   1.342
17740W        W82967   6.692  44.359   1.512
17741W        W82968  37.334  35.571   0.284
17742W        W82969   5.811  26.677   0.986
17743W        W82970  15.906   6.904  14.025
17744W        W82971  18.388  29.592   4.066
17745W        W82972  17.939  22.195  11.143
17746W        W82973  39.356   7.846   0.805
17747W        W82974   7.467  16.118   2.983
17748W        W82975  37.371   7.297  11.614
17749W        W82976  15.104  29.459   3.602
17750W        W82977  14.046  39.478   0.857
17751W        W82978   3.847  27.071   3.772
17752W        W82979   7.476  43.361   4.161
17753W        W82980  35.324  44.974  13.900
17754W        W82981  35.089  19.278  13.514
17755W        W82982   7.859  38.367   2.890
17756W        W82983   4.671  26.971  11.974
17757W        W82984  31.972  10.572  13.043
17758W        W82985  25.634  20.214  11.606
17759W        W82986   4.888  35.486   0.482
17760W        W82987  29.533   0.237  12.477
17761W        W82988  40.485   9.547   4.371
17762W        W82989   9.475   4.397  12.474
17763W        W82990  37.370  29.110  14.322
17764W        W82991   1.583  24.100  13.426
17765W        W82992  22.954  27.023  14.802
17766W        W82993  23.274   2.398  12.901
17767W        W82994   8.643  42.849  11.489
17768W        W82995  32.956  26.185  12.552
17769W        W82996  13.456  36.357   3.516
17770W        W82997  30.746  33.656   3.275
17771W        W82998  42.464  28.515   3.440
17772W        W82999  43.706  21.301  11.242
17773W        W83000   7.740  36.876   1.887
17774W        W83001  28.175  32.429   3.984
17775W        W83002   9.735   8.590  11.071
17776W        W83003  27.769  38.958  10.616
17777W        W83004  44.396   0.619  14.911
17778W        W83005  19.573  41.446  14.521
17779W        W83006  10.652  23.771  13.228
17780W        W83007  31.910  11.173   2.696
17781W        W83008  34.968   1.742  12.073
17782W        W83009  34.329  27.531  12.097
17783W        W83010  26.497   9.979   3.679
17784W        W83011  18.485   3.327  11.608
17785W        W83012  21.692  40.397   0.693
17786W        W83013  41.945  32.177  11.938
17787W        W83014  43.048  37.973   2.636
17788W        W83015   3.993  18.257   0.368
17789W        W83016   6.663   1.252  12.337
17790W        W83017  43.168   6.890   3.148
17791W        W83018  40.359  14.854   1.390
17792W        W83019  21.707  26.160   4.838
17793W        W83020   8.790  34.101  10.414
17794W        W83021  42.229  17.676  12.857
17795W        W83022   8.848   9.339  11.220
17796W        W83023  25.165  10.031   4.377
17797W        W83024  40.117  35.102  10.054
17798W        W83025   9.738  26.227   1.299
17799W        W83026  30.262  33.077   3.347
17800W        W83027   2.593   5.859   0.164
17801W        W83028  15.393  17.730   0.948
17802W        W83029  21.069  42.724  13.061
17803W        W83030   0.887   3.478   3.395
17804W        W83031  20.532  26.486  13.745
17805W        W83032   7.963  31.244  13.040
17806W        W83033  26.538  42.477   4.870
17807W        W83034   2.953  40.524  14.950
17808W        W83035   8.378  40.083  12.241
17809W        W83036  17.869  24.167   3.414
17810W        W83037  20.253  30.578   2.047
17811W        W83038  44.796  24.262   4.947
17812W        W83039  31.327   2.300   2.228
17813W        W83040   6.109   7.896  11.966
17814W        W83041  21.662  24.246   4.325
17815W        W83042   9.786   8.152  14.061
17816W        W83043  11.154   0.797  13.510
17817W        W83044  37.262  38.054   0.002
17818W        W83045  25.825   2.928  11.463
17819W        W83046   5.852  39.572  11.546
17820W        W83047  31.158  16.692  13.095
17821W        W83048  27.410   7.692  13.759
17822W        W83049  10.312  39.745   0.316
17823W        W83050  10.671  29.533   3.076
17824W        W83051  10.769  35.920   0.429
17825W        W83052   4.176  41.365   1.492
17826W        W83053  37.137  15.147  11.096
17827W        W83054  11.676  23.674  12.479
17828W        W83055   6.816  17.360  11.541
17829W        W83056  29.215  18.073  14.461
17830W        W83057   9.696  32.153   2.236
17831W        W83058  11.662   5.668  14.796
17832W        W83059  16.790  14.610   2.095
17833W        W83060  43.356  11.449   0.999
17834W        W83061  19.199  13.157   3.792
17835W        W83062  17.027  40.338  11.449
17836W        W83063   8.770   2.419   2.387
17837W        W83064   4.468  37.140   4.082
17838W        W83065  13.045  33.855  13.889
17839W        W83066  19.714   9.305   2.758
17840W        W83067  19.387  28.946  13.990
17841W        W83068  34.751  28.071   2.748
17842W        W83069  39.469  10.439  12.039
17843W        W83070   6.712  42.308   4.883
17844W        W83071  10.723  35.021  12.108
17845W        W83072   0.836  19.775  13.419
17846W        W83073  33.172  26.971   2.687
17847W        W83074   0.527  12.148   4.038
17848W        W83075   5.032  33.390   2.215
17849W        W83076   2.095  37.357   1.912
17850W        W83077  41.276  11.671  14.312
17851W        W83078  14.666  15.099   0.458
17852W        W83079   3.760  42.348  12.553
17853W        W83080  42.755  13.143   1.227
17854W        W83081  27.081  30.952   2.136
17855W        W83082   9.430   4.813   3.078
17856W        W83083  35.829  15.225  12.553
17857W        W83084  17.373  36.865  14.965
17858W        W83085  13.779  29.733   0.710
17859W        W83086   6.573  20.919   4.441
17860W        W83087   2.394   9.765  12.045
17861W        W83088  21.584   0.196  11.442
17862W        W83089  23.783  29.621  14.249
17863W        W83090  16.382  16.387  12.822
17864W        W83091  35.544  37.949   4.879
17865W        W83092  21.664  12.949  11.834
17866W        W83093  33.079  12.315   1.418
17867W        W83094   6.633   2.491  11.987
17868W        W83095  10.673  17.204   0.686
17869W        W83096   3.700   7.113  13.948
17870W        W83097   3.910  23.587   4.713
17871W        W83098  27.030  43.746  10.668
17872W        W83099  39.426  21.315  14.092
17873W        W83100  16.309  29.664   3.242
17874W        W83101   5.485   2.065  11.705
17875W        W83102  11.788  17.639   0.238
17876W        W83103  28.586  42.937  14.011
17877W        W83104  29.956  22.497  14.755
17878W        W83105  22.940   7.070  11.524
17879W        W83106  43.698   9.451  13.874
17880W        W83107  20.914  16.797   3.230
17881W        W83108  44.219  37.819  12.436
17882W        W83109  34.467   1.903  14.846
17883W        W83110   5.274  37.534  13.825
17884W        W83111  18.526  35.296   4.933
17885W        W83112  18.257  10.233  10.346
17886W        W83113  28.008  22.626   0.272
17887W        W83114   8.563  36.436   3.229
17888W        W83115   7.781  24.748   1.560
17889W        W83116  19.150  21.829   4.735
17890W        W83117  25.498  36.042  12.034
17891W        W83118  36.284  28.855  11.530
17892W        W83119  38.157   4.890   0.258
17893W        W83120   9.214  31.025   2.384
17894W        W83121  33.084   2.829  14.740
17895W        W83122  37.688  40.411   3.786
17896W        W83123  36.187  29.585   0.194
17897W        W83124  38.971  21.416   3.260
17898W        W83125  42.424  25.131   2.687
17899W        W83126  36.054  31.383   0.976
17900W        W83127  28.148  25.703  10.708
17901W        W83128  39.325  35.948   4.340
17902W        W83129  38.853   6.934   3.130
17903W        W83130  42.385   6.919   0.749
17904W        W83131  28.895   3.336   1.806
17905W        W83132  18.825  44.795  14.268
17906W        W83133  30.516  25.883   3.819
17907W        W83134  13.140  13.303   0.797
17908W        W83135   3.049  20.030   4.180
17909W        W83136   4.752  11.737   2.358
17910W        W83137   4.030  23.035   4.078
17911W        W83138  25.014   3.997   1.828
17912W        W83139   5.266  28.024   0.202
17913W        W83140   2.423  13.035  10.764
17914W        W83141  29.603  10.816   0.479
17915W        W83142  35.919  29.855   3.186
17916W        W83143  14.252  40.502  12.452
17917W        W83144  18.460  13.252  12.426
17918W        W83145  33.330  35.330   2.380
17919W        W83146  23.230  34.492  13.872
17920W        W83147  38.236  16.803   4.147
17921W        W83148  31.053  43.245   4.223
17922W        W83149  15.396   4.694  11.151
17923W        W83150  18.373  22.491  11.634
17924W        W83151  36.250  13.061   0.772
17925W        W83152  21.908  12.663  11.473
17926W        W83153   4.683  40.684   2.068
17927W        W83154  16.509  33.340   0.722
17928W        W83155  13.957  41.051   0.240
17929W        W83156  37.965   5.434   0.820
17930W        W83157  25.554  20.644  12.044
17931W        W83158  24.269  39.464  12.380
17932W        W83159  36.521  10.076   3.581
17933W        W83160  30.481  23.782   2.754
17934W        W83161  12.701  43.959  13.303
17935W        W83162  32.960  44.718   3.914
17936W        W83163  11.354   0.009  12.916
17937W        W83164  40.523   6.456  11.492
17938W        W83165   6.288  12.657  14.777
17939W        W83166  18.625  26.128   4.573
17940W        W83167   8.395   3.759   1.268
17941W        W83168  29.157  17.209  10.953
17942W        W83169  35.353  33.856   2.847
17943W        W83170   5.122   2.216  11.043
17944W        W83171   3.173  10.207   0.812
17945W        W83172   9.122  35.179   3.539
17946W        W83173   0.332  36.101   3.796
17947W        W83174   4.790  20.779  13.099
17948W        W83175  44.577  27.102  13.949
17949W        W83176  35.752  32.806  14.967
17950W        W83177  10.685   9.366  10.793
17951W        W83178  33.424   3.630  12.129
17952W        W83179  32.923  15.868   0.960
17953W        W83180   3.426  11.300  13.097
17954W        W83181  25.343   2.818   3.321
17955W        W83182  30.372  27.350   2.900
17956W        W83183  27.493   8.678   2.187
17957W        W83184  11.229  17.570  13.061
17958W        W83185  39.061  43.784  11.759
17959W        W83186  38.799  19.658  11.384
17960W        W83187   0.824  15.562  13.844
17961W        W83188  41.693  14.635  11.943
17962W        W83189   0.884   9.834   3.024
17963W        W83190   1.697   9.541  13.112
17964W        W83191  12.392  16.350  14.578
17965W        W83192  23.189  13.841   1.307
17966W        W83193  13.995  43.957  14.236
17967W        W83194  12.552  43.855   1.316
17968W        W83195  33.088  33.093   3.586
17969W        W83196  30.354  38.149  13.842
17970W        W83197  43.957   6.714   2.208
17971W        W83198  38.791  39.026   2.617
17972W        W83199  12.110   4.460  14.090
17973W        W83200  36.711   6.574  13.054
17974W        W83201  20.690  43.058   3.660
17975W        W83202  36.127  35.030   0.846
17976W        W83203   7.147  27.896  12.109
17977W        W83204  32.918  41.154  13.907
17978W        W83205  10.560  12.237   2.720
17979W        W83206  36.511  34.545   0.194
17980W        W83207   9.165  24.983  11.160
17981W        W83208  22.642   6.107  11.645
17982W        W83209  35.009  21.150   1.893
17983W        W83210  31.391  14.499   4.548
17984W        W83211  18.551   9.748  12.959
17985W        W83212  36.795   3.448  11.190
17986W        W83213  41.457  19.815  13.908
17987W        W83214   5.456  31.123   3.706
17988W        W83215  34.366   6.709   3.647
17989W        W83216  39.829  17.185   1.791
17990W        W83217  41.559   3.315  14.349
17991W        W83218  24.640  39.851  10.752
17992W        W83219  21.317  32.967  11.193
17993W        W83220  41.479  39.609   2.723
17994W        W83221  40.789  10.793   1.170
17995W        W83222  35.063  44.879  12.591
17996W        W83223  10.437   4.415  14.799
17997W        W83224  11.815  26.065   0.360
17998W        W83225   9.279   0.425   4.724
17999W        W83226  38.243  39.113   4.609
18000W        W83227  28.515   5.868  10.988
18001W        W83228  30.671   1.968   4.006
18002W        W83229  11.309  15.234   3.718
18003W        W83230   3.519   0.575   4.916
18004W        W83231  16.121  44.798  12.902
18005W        W83232  22.121  35.408   0.335
18006W        W83233  12.724   0.911  14.726
18007W        W83234  39.578  37.552   3.700
18008W        W83235   2.219   5.388   4.673
18009W        W83236   4.218   4.955   4.066
18010W        W83237   7.158  32.054   4.676
18011W        W83238  29.366  36.067   3.624
18012W        W83239  14.268  38.151   4.789
18013W        W83240  14.600  14.561   0.525
18014W        W83241  40.047  39.511   0.939
18015W        W83242  27.686  29.570  13.537
18016W        W83243   2.707  14.993  14.407
18017W        W83244  40.643   7.372   1.209
18018W        W83245  11.878  14.035   1.248
18019W        W83246  36.851   3.354   4.406
18020W        W83247  29.655   8.937   2.355
18021W        W83248  39.766   7.015  13.477
18022W        W83249  36.434  39.953  10.854
18023W        W83250  27.739  34.369  12.936
18024W        W83251   8.886  40.299   2.105
18025W        W83252  11.030  11.902  14.787
18026W        W83253  13.611  39.628   1.061
18027W        W83254  41.165  24.629  10.589
18028W        W83255  17.304  30.147   1.679
18029W        W83256  31.628  13.215   0.439
18030W        W83257  26.812  15.324  10.487
18031W        W83258  30.052  16.629  11.029
18032W        W83259  11.811   7.086   4.145
18033W        W83260  12.125  40.974  11.614
18034W        W83261  10.127  42.272   2.338
18035W        W83262  23.227  15.560  10.688
18036W        W83263  17.675  24.404  12.096
18037W        W83264   3.586  19.111   4.320
18038W        W83265  14.615  12.234  10.744
18039W        W83266   5.927  15.277  12.027
18040W        W83267   5.424  17.232   1.689
18041W        W83268  36.626  18.169   0.797
18042W        W83269  15.582   4.765  13.628
18043W        W83270  27.681  36.971  12.037
18044W        W83271  20.453   1.268   3.151
18045W        W83272   7.379  10.291  14.403
18046W        W83273   5.771   4.140  11.063
18047W        W83274  13.165  32.402  14.486
18048W        W83275   2.316  18.128  12.333
18049W        W83276  25.721  36.073  10.063
18050W        W83277  39.639  33.422   2.270
18051W        W83278  12.559   8.257   3.325
18052W        W83279  28.381  38.748   2.756
18053W        W83280   0.054  33.121   2.122
18054W        W83281  25.001  34.680  13.911
18055W        W83282  27.740  29.609   2.408
18056W        W83283  17.560   7.914  11.218
18057W        W83284  38.383  31.512   2.431
18058W        W83285   5.979   7.781   0.767
18059W        W83286  31.093  10.690   3.800
18060W        W83287  20.713  13.064   1.892
18061W        W83288  27.651  13.350  13.813
18062W        W83289   0.991  33.917   3.696
18063W        W83290   1.647  28.883   3.452
18064W        W83291  15.686  12.803  10.356
18065W        W83292  39.894  26.519   3.732
18066W        W83293   8.229   1.927  13.968
18067W        W83294  44.702   3.533   3.739
18068W        W83295  30.464  26.167   0.358
18069W        W83296   6.914  13.661  12.506
18070W        W83297  31.842  37.910  10.815
18071W        W83298  18.709  15.540  11.937
18072W        W83299  38.707  17.682   1.252
18073W        W83300  26.116  32.597   1.855
18074W        W83301  39.710   7.901   4.770
18075W        W83302  29.486  38.916  14.743
18076W        W83303  32.881  17.160   5.651
18077W        W83304  15.441   6.720  11.301
18078W        W83305  44.769  14.282   4.830
18079W        W83306   4.743  34.564  13.912
18080W        W83307  35.796  44.677   3.766
18081W        W83308  43.216  24.968   0.277
18082W        W83309  19.492  42.294   3.076
18083W        W83310  31.936  25.273  11.243
18084W        W83311  41.432  31.585  11.643
18085W        W83312  35.377   3.064  14.357
18086W        W83313  33.735   8.276  13.542
18087W        W83314  43.787  43.999   1.832
18088W        W83315  11.570  12.674   1.815
18089W        W83316  36.531  31.016   0.261
18090W        W83317  12.471   2.669   2.840
18091W        W83318  27.140  22.042   3.516
18092W        W83319  42.842   4.817  14.869
18093W        W83320   8.659  16.690  13.496
18094W        W83321  41.306  14.788   4.716
18095W        W83322  33.155  34.244  14.780
18096W        W83323  44.433  15.852   2.638
18097W        W83324  14.050  24.028   0.654
18098W        W83325  17.997   8.719   1.146
18099W        W83326  33.028   9.098   3.378
18100W        W83327  32.915  25.123   2.669
18101W        W83328   6.525  40.225   0.394
18102W        W83329  41.535  32.155  13.083
18103W        W83330  10.402   3.973  12.468
18104W        W83331  23.279   8.371   2.738
18105W        W83332  42.678  13.538  14.912
18106W        W83333  25.270  13.958   1.543
18107W        W83334  44.819  41.320   0.276
18108W        W83335   2.925  37.158  12.513
18109W        W83336  41.849   8.883   2.951
18110W        W83337  20.769  20.228   1.648
18111W        W83338   2.029   2.523   0.795
18112W        W83339  22.782  24.636  14.339
18113W        W83340  18.082  42.523  11.953
18114W        W83341   0.729  35.080  10.581
18115W        W83342  19.168  17.494   2.245
18116W        W83343  25.726  20.745  11.577
18117W        W83344   6.284   4.276   2.266
18118W        W83345  11.761  14.147  12.900
18119W        W83346   9.752  24.684  12.072
18120W        W83347   9.752  38.518  13.536
18121W        W83348  40.589  22.204   1.107
18122W        W83349   2.299  34.536   0.002
18123W        W83350  21.811  17.764  10.760
18124W        W83351   8.634  26.030  13.100
18125W        W83352  14.825  43.211   2.200
18126W        W83353  42.782  37.500  10.690
18127W        W83354  40.795  34.978   1.750
18128W        W83355  39.064  35.042  12.058
18129W        W83356   1.201  20.921  14.019
18130W        W83357  35.632   2.476   0.860
18131W        W83358  24.963  20.720   0.974
18132W        W83359  11.762  33.039  12.135
18133W        W83360  40.807  44.171  10.768
18134W        W83361   7.444  33.775   0.347
18135W        W83362   7.548   8.136   3.027
18136W        W83363  24.667   6.751  12.191
18137W        W83364   1.247  32.870   3.233
18138W        W83365  15.072  13.154  10.723
18139W        W83366  33.071  39.426  14.280
18140W        W83367  25.866  17.279   1.427
18141W        W83368  28.639  23.142  12.011
18142W        W83369  33.435   9.305  12.943
18143W        W83370  12.164   8.665  11.446
18144W        W83371  35.890  25.941   3.712
18145W        W83372  29.977  12.600   0.591
18146W        W83373   3.986   5.795   3.714
18147W        W83374  28.392  37.266   1.720
18148W        W83375  44.312  33.868   2.855
18149W        W83376   4.340  11.343  14.580
18150W        W83377  15.617  32.476   1.862
18151W        W83378  12.963   4.212  10.780
18152W        W83379  19.786  25.709  12.064
18153W        W83380  37.272   9.308   0.848
18154W        W83381  34.770   9.834   3.708
18155W        W83382  19.423  13.624   3.726
18156W        W83383   2.614   4.380  12.334
18157W        W83384  18.237  22.553   2.270
18158W        W83385   5.968  30.460  10.675
18159W        W83386  36.073  42.883  14.578
18160W        W83387  24.963  15.889  13.419
18161W        W83388  17.242  23.498   3.408
18162W        W83389  16.227  13.390   0.786
18163W        W83390  28.558  15.910   0.463
18164W        W83391  26.786  27.570   0.982
18165W        W83392  29.575   2.790   2.061
18166W        W83393  32.037  20.038  14.398
18167W        W83394  15.080  17.807  12.507
18168W        W83395  34.944  27.067  11.109
18169W        W83396  29.254  43.061  14.142
18170W        W83397  31.926  11.846   2.357
18171W        W83398   8.948  16.853   4.546
18172W        W83399  36.508  14.254   2.401
18173W        W83400  43.763  26.694  11.122
18174W        W83401  31.687  11.799   1.915
18175W        W83402  37.963  24.603   1.428
18176W        W83403  44.935  31.792  14.458
18177W        W83404  34.201  10.904   1.876
18178W        W83405   7.415  28.683   1.356
18179W        W83406  23.276  26.538   3.347
18180W        W83407  40.464   2.972  12.510
18181W        W83408  22.656   3.719  14.459
18182W        W83409  18.041  13.835   4.125
18183W        W83410   1.041  12.694  12.989
18184W        W83411  17.539   9.226   1.005
18185W        W83412  11.446  19.857  11.226
18186W        W83413  33.634  43.092  10.876
18187W        W83414   8.612   8.492   0.487
18188W        W83415  29.889   4.450   1.435
18189W        W83416  31.055  16.307  10.517
18190W        W83417  33.920  43.072  13.056
18191W        W83418  39.670  24.768   2.754
18192W        W83419  21.115  17.125   0.303
18193W        W83420  43.618  44.558   3.578
18194W        W83421  37.636  38.741   1.370
18195W        W83422   2.401   6.869   3.680
18196W        W83423  41.807   9.918   1.704
18197W        W83424  33.542  35.956  10.633
18198W        W83425  19.532  12.623  12.402
18199W        W83426  26.294   8.114   1.268
18200W        W83427  21.707  11.314  14.935
18201W        W83428   7.372  11.256   1.098
18202W        W83429  28.952  39.948  13.830
18203W        W83430  13.061  17.573   2.388
18204W        W83431  39.435  20.322  13.809
18205W        W83432  39.029   4.305   4.985
18206W        W83433  28.648   4.920   0.529
18207W        W83434  38.027  33.769   1.715
18208W        W83435  31.872  35.795  10.804
18209W        W83436  13.186  12.130  12.867
18210W        W83437   1.272   6.350   0.491
18211W        W83438  10.281   8.052   4.994
18212W        W83439  14.264  31.945   1.197
18213W        W83440  21.062  32.561   4.740
18214W        W83441  10.715   9.754   4.679
18215W        W83442  10.241   5.688  12.117
18216W        W83443  30.494  39.068  12.853
18217W        W83444   1.725  10.160   1.613
18218W        W83445  38.784  41.027  12.287
18219W        W83446  26.982   3.493  12.968
18220W        W83447  24.853  16.120  12.954
18221W        W83448  36.054  10.461  14.797
18222W        W83449  41.979  11.466  14.885
18223W        W83450  21.380  26.462  12.426
18224W        W83451  42.526  13.201   4.115
18225W        W83452  24.691   1.313  13.329
18226W        W83453  19.276  30.973  11.649
18227W        W83454  40.441  33.891   2.542
18228W        W83455  44.395  20.371   4.390
18229W        W83456  14.703  20.591   1.868
18230W        W83457  27.800  15.280  10.183
18231W        W83458  27.701  15.706  14.269
18232W        W83459  23.051   3.928   1.830
18233W        W83460  14.966   3.188   1.801
18234W        W83461  17.696  21.209   4.366
18235W        W83462  24.197   1.787  13.646
18236W        W83463  12.812  22.073   3.492
18237W        W83464  32.440  24.141  10.736
18238W        W83465  24.819  20.235   3.607
18239W        W83466   6.625  42.665  11.752
18240W        W83467   7.120  16.660  11.189
18241W        W83468  39.542  13.558   2.161
18242W        W83469  22.067  12.218   0.687
18243W        W83470   9.404  24.621   4.726
18244W        W83471   2.590  27.689  10.211
18245W        W83472   5.592   9.108   1.699
18246W        W83473  42.359  38.394  12.423
18247W        W83474  10.908   7.281  13.934
18248W        W83475  38.373  29.982  11.934
18249W        W83476  14.082  24.087  14.267
18250W        W83477  10.621  39.017  14.456
18251W        W83478  37.380   6.068   5.213
18252W        W83479  37.556  22.469  14.111
18253W        W83480  27.948  39.817   2.357
18254W        W83481   0.844  31.883   4.762
18255W        W83482  22.486  19.773   3.528
18256W        W83483   8.395  21.466  13.939
18257W        W83484  44.824   2.917  13.354
18258W        W83485   6.349   3.510   0.935
18259W        W83486   3.974  43.256   1.873
18260W        W83487  35.897  26.891   4.656
18261W        W83488  23.871  15.178   3.340
18262W        W83489  11.628   7.210   0.895
18263W        W83490   3.171  39.098  14.842
18264W        W83491  10.394  42.012   0.887
18265W        W83492  20.831  41.176   4.489
18266W        W83493   8.239  35.320   2.316
18267W        W83494  11.882   0.339  11.877
18268W        W83495  22.628  29.049   4.467
18269W        W83496  42.842  16.688  13.369
18270W        W83497  17.059  25.960  10.559
18271W        W83498   7.315  10.363  10.442
18272W        W83499  35.555  28.581   2.652
18273W        W83500   6.413  41.738   1.687
18274W        W83501  44.181   5.876  12.614
18275W        W83502  30.618  12.106   2.829
18276W        W83503  10.218  36.039  12.492
18277W        W83504  21.788  16.879   1.959
18278W        W83505   0.435   8.779   1.018
18279W        W83506   2.736  43.207   1.263
18280W        W83507  11.852  37.842  11.924
18281W        W83508  26.610  37.338   2.366
18282W        W83509  37.202  11.801  14.979
18283W        W83510  32.142  19.114  12.605
18284W        W83511  23.976  30.086  10.739
18285W        W83512   3.027  39.098   3.600
18286W        W83513  16.615   8.023  11.039
18287W        W83514  28.854  42.975   4.107
18288W        W83515  44.692  42.100  13.576
18289W        W83516  22.446   9.024  12.049
18290W        W83517  38.040  10.311   3.590
18291W        W83518   4.979  23.215  13.062
18292W        W83519  42.029   2.002   0.274
18293W        W83520  32.556  17.963  12.917
18294W        W83521  29.220  21.231  14.794
18295W        W83522  41.542   1.870  10.472
18296W        W83523  11.857  39.316  13.845
18297W        W83524  43.639   8.621   1.252
18298W        W83525  18.706  38.978   1.896
18299W        W83526   2.242  22.553   0.365
18300W        W83527  12.768  18.085  12.356
18301W        W83528  26.958   2.804   2.774
18302W        W83529  39.747  36.433   3.687
18303W        W83530  39.471  40.039   0.107
18304W        W83531  15.522  26.099  11.156
18305W        W83532  22.567  15.207  11.286
18306W        W83533  39.809  44.999  13.160
18307W        W83534  31.615  36.217   2.375
18308W        W83535  18.382  13.235  13.846
18309W        W83536  26.962  17.052  11.167
18310W        W83537   1.211   6.748  12.041
18311W        W83538  17.180  27.271  12.877
18312W        W83539  20.045  18.615  13.589
18313W        W83540   5.768  43.938   1.961
18314W        W83541  35.554   6.334   4.269
18315W        W83542  28.672  39.357   4.071
18316W        W83543  23.593   6.892   2.706
18317W        W83544   5.301  18.017   0.014
18318W        W83545  29.908  34.024   4.819
18319W        W83546   2.035   4.408   2.373
18320W        W83547  42.267  36.538  12.330
18321W        W83548   1.973   8.893   2.866
18322W        W83549  36.627   8.442   4.253
18323W        W83550   9.416   8.908   3.814
18324W        W83551  39.829  15.545  10.736
18325W        W83552  25.063  19.852  12.935
18326W        W83553  37.901  40.006   0.841
18327W        W83554  13.231   3.414   3.834
18328W        W83555  34.812  37.453  13.974
18329W        W83556  16.674  38.011  12.122
18330W        W83557  31.580   5.361  11.823
18331W        W83558  10.778   2.936  10.789
18332W        W83559  44.851  38.091  13.855
18333W        W83560   2.493  39.657  11.049
18334W        W83561  12.719  23.188  13.423
18335W        W83562  10.845   8.706  11.838
18336W        W83563  43.306   8.191   0.765
18337W        W83564  20.583  32.345   2.102
18338W        W83565  23.614  31.146  12.372
18339W        W83566  15.212  42.549   3.536
18340W        W83567  24.257  16.407  13.622
18341W        W83568  44.953  15.645   2.010
18342W        W83569  21.483  38.857  10.729
18343W        W83570   1.258  25.829   0.799
18344W        W83571  27.063   1.409   1.985
18345W        W83572  23.885  21.611   0.793
18346W        W83573  14.466   3.674   1.311
18347W        W83574  24.814  31.374  11.663
18348W        W83575   7.745  10.670  13.935
18349W        W83576  38.969  28.226   4.641
18350W        W83577  25.454  17.067   3.374
18351W        W83578  42.887   2.860  14.026
18352W        W83579  10.412  21.910  13.879
18353W        W83580  32.603  27.324   3.159
18354W        W83581  13.097  18.571   3.167
18355W        W83582  18.050  32.197   0.379
18356W        W83583  24.690  44.244   1.502
18357W        W83584  17.544  29.222  12.890
18358W        W83585  37.963   6.937  12.167
18359W        W83586  15.629  28.983  14.851
18360W        W83587  39.120  18.682   4.485
18361W        W83588  10.376   7.235  11.253
18362W        W83589   4.117  35.942   4.100
18363W        W83590   6.753  16.378  12.935
18364W        W83591   8.880  21.004  14.331
18365W        W83592  33.032  31.862   2.718
18366W        W83593  32.918   8.970   2.222
18367W        W83594  27.172  34.341  12.910
18368W        W83595   0.243  34.583  13.814
18369W        W83596   6.190  42.234   2.793
18370W        W83597  15.287  39.592   1.809
18371W        W83598  15.786  21.080   0.912
18372W        W83599  23.529  31.059  10.701
18373W        W83600  12.720  41.717  10.711
18374W        W83601   9.704   1.803   4.914
18375W        W83602  10.757   5.003   0.536
18376W        W83603  41.556  29.068  12.184
18377W        W83604   4.866  34.950   3.720
18378W        W83605  40.961   8.804   2.903
18379W        W83606   7.126   5.951  11.684
18380W        W83607  12.100  30.468   3.540
18381W        W83608   7.203  40.990   2.847
18382W        W83609  22.773  44.746  10.103
18383W        W83610  30.951  14.647  12.880
18384W        W83611  20.482  38.463   1.328
18385W        W83612  31.874  14.680   0.271
18386W        W83613   8.284  24.926   1.609
18387W        W83614   2.177   8.832   3.805
18388W        W83615  41.856   2.670  14.044
18389W        W83616  30.823  31.866  14.937
18390W        W83617  41.951  19.632   2.247
18391W        W83618  40.374  35.867  13.535
18392W        W83619  31.279  41.509  13.398
18393W        W83620  37.402  11.341   4.688
18394W        W83621  33.579  36.298   0.365
18395W        W83622  23.191   3.002  10.955
18396W        W83623   2.738  38.573   3.301
18397W        W83624   2.519  20.048  12.101
18398W        W83625  24.106  34.139  14.043
18399W        W83626  27.486   2.680  12.181
18400W        W83627   6.869   9.828  11.234
18401W        W83628   4.126  11.190   1.291
18402W        W83629   7.422   7.684  14.364
18403W        W83630  17.547  35.475   2.191
18404W        W83631  17.013   6.321  13.598
18405W        W83632  43.078  27.107  14.053
18406W        W83633  36.727  44.923  12.016
18407W        W83634  37.522  42.763   0.478
18408W        W83635  21.981   0.206  12.387
18409W        W83636  41.999  34.995  12.477
18410W        W83637  28.081   7.923   4.538
18411W        W83638  10.755  28.640   2.943
18412W        W83639  13.976  44.749   3.294
18413W        W83640  36.019  31.154   0.343
18414W        W83641  32.159  42.245   2.585
18415W        W83642  28.593  42.747   4.498
18416W        W83643  39.404   1.654  14.745
18417W        W83644   4.360  32.899   1.331
18418W        W83645  37.686  13.835  10.746
18419W        W83646  38.339  24.668  11.232
18420W        W83647  35.584  22.249   1.241
18421W        W83648   1.932   4.198  12.598
18422W        W83649  15.011  36.371   3.407
18423W        W83650   7.914  39.634  13.635
18424W        W83651  35.444  14.065   4.581
18425W        W83652  21.860  29.208   4.709
18426W        W83653  23.222  33.087  12.642
18427W        W83654  37.296  30.979  13.940
18428W        W83655  29.910   4.849  11.623
18429W        W83656  17.182  25.173   3.626
18430W        W83657   1.848  38.839   1.638
18431W        W83658   8.713  10.912   2.664
18432W        W83659  36.236  26.075   1.122
18433W        W83660  28.216  14.103  12.490
18434W        W83661  37.078  14.185  10.782
18435W        W83662  12.114  24.446  12.655
18436W        W83663  44.973  25.859  13.157
18437W        W83664  33.295  35.427  14.962
18438W        W83665  38.386  23.752  11.002
18439W        W83666   5.949  40.808   4.506
18440W        W83667  11.770  15.864  10.304
18441W        W83668   5.285  32.443  12.637
18442W        W83669  11.788  20.813  14.895
18443W        W83670  18.622   6.651  11.949
18444W        W83671  41.975  23.754  13.047
18445W        W83672  15.400  20.106  14.037
18446W        W83673   6.385  38.975   3.241
18447W        W83674  11.765   3.640   0.001
18448W        W83675  14.202  27.266  13.989
18449W        W83676  27.546  43.288   2.778
18450W        W83677   8.429  13.751   1.696
18451W        W83678  25.724  29.612   3.593
18452W        W83679  31.598  11.384  12.631
18453W        W83680   4.066  17.531  11.279
18454W        W83681  16.655  13.243   2.805
18455W        W83682  21.269  44.453  13.541
18456W        W83683  26.115  20.990  14.372
18457W        W83684  23.473  18.232   2.766
18458W        W83685  32.569  39.427   2.761
18459W        W83686  38.623   8.805  14.479
18460W        W83687  23.804  40.414   1.770
18461W        W83688  12.570  21.681   2.514
18462W        W83689  20.079  40.863  14.037
18463W        W83690  22.523  15.374   4.705
18464W        W83691  29.902  41.778  13.580
18465W        W83692  11.124  44.544  13.058
18466W        W83693  33.698  43.580  11.095
18467W        W83694  36.399  22.342  13.043
18468W        W83695  44.431  14.410   1.180
18469W        W83696  41.789  17.819  14.475
18470W        W83697  40.363  10.739   2.801
18471W        W83698  39.042   8.847  11.619
18472W        W83699   3.690   2.996  14.277
18473W        W83700  34.377  32.540   4.319
18474W        W83701  20.469  39.498  12.549
18475W        W83702  33.517  43.317   4.297
18476W        W83703  16.857  33.030   4.112
18477W        W83704   6.255  10.140  13.850
18478W        W83705  16.837  36.194   4.166
18479W        W83706  38.816  40.258   0.652
18480W        W83707  14.771  12.404  11.710
18481W        W83708   3.892  42.143  13.374
18482W        W83709   6.945   3.227   0.159
18483W        W83710   5.636  41.230  13.051
18484W        W83711  22.109  17.299  11.477
18485W        W83712  22.840  44.799   3.649
18486W        W83713  36.370  14.237  13.561
18487W        W83714   9.214  40.210   4.279
18488W        W83715   3.022  20.612  11.267
18489W        W83716   2.428   4.795   2.364
18490W        W83717  15.259  14.542   3.251
18491W        W83718  23.602   9.271   4.097
18492W        W83719  43.123  18.483  13.241
18493W        W83720  28.063  39.365  10.583
18494W        W83721  31.682  32.129  11.382
18495W        W83722   1.299  12.644  14.817
18496W        W83723  34.607  24.618  12.041
18497W        W83724  19.636  31.425   0.926
18498W        W83725  26.649  20.039   0.843
18499W        W83726  34.569  41.312   3.102
18500W        W83727  35.360  11.315  10.527
18501W        W83728   8.919   8.635  13.039
18502W        W83729  25.467   8.034   0.898
18503W        W83730  30.943  34.205  12.429
18504W        W83731  34.982  21.647   1.677
18505W        W83732  25.890   7.853   1.726
18506W        W83733  30.592  10.673   2.050
18507W        W83734  14.521  24.561  14.851
18508W        W83735  26.841  19.757   1.239
18509W        W83736  17.824  38.051  11.515
18510W        W83737  12.947  35.331   3.325
18511W        W83738  44.725  28.312   9.974
18512W        W83739  19.741   2.890  12.104
18513W        W83740  42.332   4.738  14.972
18514W        W83741  32.927  30.997   2.231
18515W        W83742  42.992  38.518   4.561
18516W        W83743  21.222   2.677  14.944
18517W        W83744   9.828  38.003   2.118
18518W        W83745  12.280  18.880  14.954
18519W        W83746   2.263   5.706   2.766
18520W        W83747  26.423  38.212   2.352
18521W        W83748  35.348  15.497  11.270
18522W        W83749  41.473  23.807   3.663
18523W        W83750  25.683  30.644  12.610
18524W        W83751   7.138  42.962   3.837
18525W        W83752   5.511   6.696   1.732
18526W        W83753  14.849  26.248  12.209
18527W        W83754   3.502  13.638   2.720
18528W        W83755  12.207   6.152   3.355
18529W        W83756  19.558   3.105   5.095
18530W        W83757  13.407  17.261   0.673
18531W        W83758  19.705  20.001   4.597
18532W        W83759  11.360  10.573   2.838
18533W        W83760   9.192  29.180   4.551
18534W        W83761  39.097   0.053  10.772
18535W        W83762  16.868   8.520  12.018
18536W        W83763  38.951  18.146  11.736
18537W        W83764  10.125  38.852  14.773
18538W        W83765   9.641   4.478   2.312
18539W        W83766  15.431  10.198  11.629
18540W        W83767  26.926   7.329   4.159
18541W        W83768  22.296   6.759  13.564
18542W        W83769   4.217   2.284   2.270
18543W        W83770  18.548  36.535   4.100
18544W        W83771  31.181  33.734  10.390
18545W        W83772  29.079   8.873  12.947
18546W        W83773  16.810   3.353   2.292
18547W        W83774  12.361  38.890   3.797
18548W        W83775  36.123   5.917   2.215
18549W        W83776  33.001  19.359  13.103
18550W        W83777   5.472  29.918   2.298
18551W        W83778   5.849  43.242   4.855
18552W        W83779  31.545  20.622  11.242
18553W        W83780  31.968  44.052  11.920
18554W        W83781  28.548  10.954   3.304
18555W        W83782  11.849  23.275  13.746
18556W        W83783  16.212   4.510   2.730
18557W        W83784  26.523  10.223  11.350
18558W        W83785  14.579   1.513  12.565
18559W        W83786  13.605  36.329  11.517
18560W        W83787  12.604  43.723   0.415
18561W        W83788  17.624   0.347  13.026
18562W        W83789  12.478  18.285   4.719
18563W        W83790  10.830   2.803  11.276
18564W        W83791  36.448  29.529   4.372
18565W        W83792   9.184  34.487  12.470
18566W        W83793  28.890  26.516   1.843
18567W        W83794  22.476  35.155  14.318
18568W        W83795   1.540  23.622  10.495
18569W        W83796  40.066   3.638  13.992
18570W        W83797   8.611   6.704  12.919
18571W        W83798   9.122  33.499   2.864
18572W        W83799   8.660  12.293  14.019
18573W        W83800  13.651  13.290  14.905
18574W        W83801   4.707   8.632   3.368
18575W        W83802  27.117  13.362  14.840
18576W        W83803  20.621  28.881  12.969
18577W        W83804  15.825  17.676   3.721
18578W        W83805  27.673  43.475  11.205
18579W        W83806   8.397   5.229   1.314
18580W        W83807  31.811  33.571  10.316
18581W        W83808  32.412  11.984  14.500
18582W        W83809  36.540  28.685   4.606
18583W        W83810   7.740   6.698   0.954
18584W        W83811  28.606  35.645   4.907
18585W        W83812  21.808  34.838   1.615
18586W        W83813  32.415  25.024   1.929
18587W        W83814  10.610   6.977  10.738
18588W        W83815   7.894  23.508  12.476
18589W        W83816  14.946  19.474  14.753
18590W        W83817  22.120  18.972   1.658
18591W        W83818  23.071  41.249   3.271
18592W        W83819   8.376  21.293   2.356
18593W        W83820  38.874  16.168   1.413
18594W        W83821  28.802  21.230  13.061
18595W        W83822  33.791  42.055  14.362
18596W        W83823   6.733  42.956   4.137
18597W        W83824  15.846  18.850  14.668
18598W        W83825  41.119  26.092   1.676
18599W        W83826   3.494  39.313   3.718
18600W        W83827  40.937   5.386   1.918
18601W        W83828   2.124   3.381   0.376
18602W        W83829  36.896  30.331  12.880
18603W        W83830  43.001  19.498  12.474
18604W        W83831   8.804  18.654  10.984
18605W        W83832  25.914  35.028   0.285
18606W        W83833   2.160  27.595   0.826
18607W        W83834  39.858  28.979   4.376
18608W        W83835  42.213   4.319   3.081
18609W        W83836   2.073  21.207  14.311
18610W        W83837  41.697   7.732   3.172
18611W        W83838   8.330  30.439  13.479
18612W        W83839  31.423  28.540  12.460
18613W        W83840  11.395  26.444   4.202
18614W        W83841   1.304  27.671  12.960
18615W        W83842  26.846  26.708   4.332
18616W        W83843   1.011   8.581  11.475
18617W        W83844   8.847   8.159  12.166
18618W        W83845   1.763   1.005  13.897
18619W        W83846  19.037  40.071  13.004
18620W        W83847  41.852  20.114   3.350
18621W        W83848  18.254   4.447   3.148
18622W        W83849  23.103  40.926  12.382
18623W        W83850   9.834  37.321  10.728
18624W        W83851  10.326  40.389  10.400
18625W        W83852   1.820  33.910   0.289
18626W        W83853  12.769  36.330  14.761
18627W        W83854  28.641   7.168   4.476
18628W        W83855   6.240  27.629  11.911
18629W        W83856  16.798  15.234  11.722
18630W        W83857  43.816   1.782   0.519
18631W        W83858  34.783  11.526   4.354
18632W        W83859  40.334  11.837   1.214
18633W        W83860  10.431  27.473  12.727
18634W        W83861   7.579  20.657   1.129
18635W        W83862  16.399  34.751  11.132
18636W        W83863   0.849  21.787  14.723
18637W        W83864  40.330   3.281  10.310
18638W        W83865  13.308  32.656   0.396
18639W        W83866  34.864  17.323   9.864
18640W        W83867  41.554   4.980  12.882
18641W        W83868  20.586  29.572   3.191
18642W        W83869  31.492  21.517   4.669
18643W        W83870  40.311  42.922  11.943
18644W        W83871   6.641  14.454   4.234
18645W        W83872  17.591  29.106   4.562
18646W        W83873  38.396   4.426   2.393
18647W        W83874  18.531  30.818   5.058
18648W        W83875  34.224  43.964   4.953
18649W        W83876  13.683  14.218   3.293
18650W        W83877  32.061  31.358   4.154
18651W        W83878  11.643   9.121   1.877
18652W        W83879  43.585  22.560   3.756
18653W        W83880   8.149  22.718   2.287
18654W        W83881  40.841   2.882   1.504
18655W        W83882  43.710  28.141  10.708
18656W        W83883   2.192  24.727   1.886
18657W        W83884  27.125  38.875  12.064
18658W        W83885  36.928  32.157   2.190
18659W        W83886  22.993  27.962  13.830
18660W        W83887  31.343  35.396  13.606
18661W        W83888  10.472  11.271  12.473
18662W        W83889  34.410  21.688   2.310
18663W        W83890  27.235   5.004  11.628
18664W        W83891  29.408  18.475  13.521
18665W        W83892  12.529  33.126   1.377
18666W        W83893  20.526   5.315  12.467
18667W        W83894   5.586   9.316   2.221
18668W        W83895  20.250  43.318   0.902
18669W        W83896  44.296  23.937  12.038
18670W        W83897  19.745   7.443   2.627
18671W        W83898  41.068  25.998   3.276
18672W        W83899  13.128  30.933  10.737
18673W        W83900  12.269   5.431  11.722
18674W        W83901   2.493   4.688  11.796
18675W        W83902  35.259  15.913  11.795
18676W        W83903  18.045  36.319  12.988
18677W        W83904  36.665   2.413  14.784
18678W        W83905  23.263  37.778  14.353
18679W        W83906   1.268  32.174  13.818
18680W        W83907  43.709  27.082  10.354
18681W        W83908  28.115  39.850  14.365
18682W        W83909   7.732  26.440   0.698
18683W        W83910  44.667  38.068  12.447
18684W        W83911   6.087   2.687  12.370
18685W        W83912  38.552  12.250  11.637
18686W        W83913  19.143  40.916  13.412
18687W        W83914  25.247  29.875   0.762
18688W        W83915  28.568  21.328   0.430
18689W        W83916  26.244  37.643  13.959
18690W        W83917  31.055  17.711  12.975
18691W        W83918  10.829  41.250  12.146
18692W        W83919  42.506  38.583  11.969
18693W        W83920  17.912  23.742   0.681
18694W        W83921  42.960  34.982  12.854
18695W        W83922  16.582  44.323  13.445
18696W        W83923   1.838  31.037  11.400
18697W        W83924  25.950  29.993   2.355
18698W        W83925  27.679  23.854  10.462
18699W        W83926  18.785  43.686  12.337
18700W        W83927  22.142  20.277   3.704
18701W        W83928   0.878  30.836  10.198
18702W        W83929  10.332  43.501  10.623
18703W        W83930  17.351  39.484  12.593
18704W        W83931  18.272   4.068  10.609
18705W        W83932  41.583   7.747   1.344
18706W        W83933   2.733  19.808  11.663
18707W        W83934   2.869   9.732   3.244
18708W        W83935  15.254  31.009  10.796
18709W        W83936  23.301  36.197  11.216
18710W        W83937  30.368  35.366  10.481
18711W        W83938  39.844  15.188  11.138
18712W        W83939  22.901  37.299   4.483
18713W        W83940  32.921  11.056  12.613
18714W        W83941  16.997  42.069   1.870
18715W        W83942  21.756   0.007  13.964
18716W        W83943  44.738  36.721   0.851
18717W        W83944  36.358  37.550   0.937
18718W        W83945   5.763   3.438   2.222
18719W        W83946  42.258   7.724  10.749
18720W        W83947  10.815  36.839  11.145
18721W        W83948  15.599   5.265   0.767
18722W        W83949   3.351  36.696  12.386
18723W        W83950  14.878  16.048  11.611
18724W        W83951  14.574  16.016   0.838
18725W        W83952  19.576  12.668  13.812
18726W        W83953  39.809  19.634  14.256
18727W        W83954   5.768   1.936   4.135
18728W        W83955   6.618   9.573  14.453
18729W        W83956   4.920  15.571  10.983
18730W        W83957  33.718  13.152   1.224
18731W        W83958  31.853   9.456   1.322
18732W        W83959   3.886   1.545  13.348
18733W        W83960  29.693   4.704   5.108
18734W        W83961   4.391  29.423  11.021
18735W        W83962  43.110   7.458  11.689
18736W        W83963  14.177  29.978  10.719
18737W        W83964   0.788   2.559  11.544
18738W        W83965   7.880   4.310  13.448
18739W        W83966   7.272  41.520  12.396
18740W        W83967   3.839  37.374   4.982
18741W        W83968  18.270  13.301  11.932
18742W        W83969  19.344   2.072  12.471
18743W        W83970  36.380   7.633   4.754
18744W        W83971  25.176  22.227  12.263
18745W        W83972  43.505  20.513  12.970
18746W        W83973  15.288  23.310  11.118
18747W        W83974  42.934  42.337  13.900
18748W        W83975  20.095  31.612  12.905
18749W        W83976  15.914  14.502   1.432
18750W        W83977  23.773  35.784   2.761
18751W        W83978  12.411  27.443  12.167
18752W        W83979   6.208  14.791   4.237
18753W        W83980  31.214  36.430   1.143
18754W        W83981  36.057  12.624   0.559
18755W        W83982  37.034  14.776   4.483
18756W        W83983  25.084  22.430  13.838
18757W        W83984  43.926  25.138   3.309
18758W        W83985  16.361  33.642   0.341
18759W        W83986  13.471  12.633  14.124
18760W        W83987  29.974  33.382  14.597
18761W        W83988  12.596  21.913   0.953
18762W        W83989  18.523  27.394   0.303
18763W        W83990  14.801  30.549   0.390
18764W        W83991  13.577  19.170   3.598
18765W        W83992  38.185  33.656   3.219
18766W        W83993   1.241  29.443  11.556
18767W        W83994  33.497  40.500   2.799
18768W        W83995   4.399   5.844  11.232
18769W        W83996  19.822  19.744  13.565
18770W        W83997  39.877  23.108  13.966
18771W        W83998  17.304  19.519   0.482
18772W        W83999  21.142  17.118  11.818
18773W        W84000  35.588  44.920  13.416
18774W        W84001  22.540  41.728   0.242
18775W        W84002  42.106  27.457  12.880
18776W        W84003  11.449  42.562  13.070
18777W        W84004  21.015  33.702   1.169
18778W        W84005  44.485  14.603  14.412
18779W        W84006  41.629  17.123   2.743
18780W        W84007  13.619  20.556  14.234
18781W        W84008  41.148   9.371   0.875
18782W        W84009  19.815  19.325   3.694
18783W        W84010  20.247  13.142  10.756
18784W        W84011  33.317  35.619   1.949
18785W        W84012  34.280  38.541   4.510
18786W        W84013   5.045  22.075   2.631
18787W        W84014  42.488  12.604  14.811
18788W        W84015  35.995  28.378   0.675
18789W        W84016  27.064  37.562   3.158
18790W        W84017  23.061   0.703  12.993
18791W        W84018  30.957  15.840   2.735
18792W        W84019  17.062  26.569   5.106
18793W        W84020  33.825  34.311   0.417
18794W        W84021  42.643  12.709   4.037
18795W        W84022  23.872  11.039   2.763
18796W        W84023  21.880  34.121  11.985
18797W        W84024  38.614  30.604   1.426
18798W        W84025  17.620  34.492  10.925
18799W        W84026  14.325  15.313   4.114
18800W        W84027  12.746   7.954   0.935
18801W        W84028  38.617  21.416  10.176
18802W        W84029  17.497   9.271  14.314
18803W        W84030   3.268  16.881   2.789
18804W        W84031  24.685   3.946  12.923
18805W        W84032  38.106  33.935  14.467
18806W        W84033  25.663  44.774  11.529
18807W        W84034  10.220  40.798  14.509
18808W        W84035  24.650   7.941  14.297
18809W        W84036  11.400   4.181  13.356
18810W        W84037   7.286  37.036  13.891
18811W        W84038  37.934  40.064   2.576
18812W        W84039  15.665   2.480  13.802
18813W        W84040  44.615  19.567  13.796
18814W        W84041  19.657   3.738   1.903
18815W        W84042   1.960   1.012  11.486
18816W        W84043  22.807   6.585  11.590
18817W        W84044  12.349  16.614   9.805
18818W        W84045  42.256  39.823   3.585
18819W        W84046  15.312  35.913  14.924
18820W        W84047  30.170  24.290  13.554
18821W        W84048   2.830  14.870   1.726
18822W        W84049  43.680  44.974   3.954
18823W        W84050   2.229  34.850   3.171
18824W        W84051  14.350  19.981   1.428
18825W        W84052  30.981  18.344   4.230
18826W        W84053  31.545  40.800  11.504
18827W        W84054  15.166  38.831   4.042
18828W        W84055  30.104   4.023   0.482
18829W        W84056  43.969  22.926  13.966
18830W        W84057  17.264  29.501   0.512
18831W        W84058  44.628  27.524   3.743
18832W        W84059   0.161  24.191   4.045
18833W        W84060  36.433   1.731   0.465
18834W        W84061  31.909  13.279   1.390
18835W        W84062  30.751  18.376  13.263
18836W        W84063  42.039   6.034  11.151
18837W        W84064  23.472  25.204  12.541
18838W        W84065  25.376   9.393  14.563
18839W        W84066   8.222  25.074  13.796
18840W        W84067  32.510  41.826   1.859
18841W        W84068  28.246  12.427  14.639
18842W        W84069  43.789  27.653   2.358
18843W        W84070  37.265  35.333  13.396
18844W        W84071  37.884  19.448   4.127
18845W        W84072  10.714   6.823   4.525
18846W        W84073  38.652  38.120   3.575
18847W        W84074  14.006  22.522   0.163
18848W        W84075   5.331  35.128   2.906
18849W        W84076   3.227  21.141  13.448
18850W        W84077  30.418  42.440  12.019
18851W        W84078  33.037  43.460   3.005
18852W        W84079   8.562   2.085  14.313
18853W        W84080  16.214  31.474  12.016
18854W        W84081  17.967  19.214  13.302
18855W        W84082  20.913  21.829   2.478
18856W        W84083  22.136  13.029   1.593
18857W        W84084  38.031  34.376  11.484
18858W        W84085   3.090  21.653  12.544
18859W        W84086  12.726  43.708   4.174
18860W        W84087  11.222  12.252   0.619
18861W        W84088   2.783  29.603   1.433
18862W        W84089  34.480  27.106  11.347
18863W        W84090  25.111  13.619   1.176
18864W        W84091  30.474  22.969   1.439
18865W        W84092   5.363  14.117   2.309
18866W        W84093   2.891  35.088   2.913
18867W        W84094  32.671  21.017   2.263
18868W        W84095  23.116  23.267   2.193
18869W        W84096  25.483  10.915   1.445
18870W        W84097  14.815  35.323  13.293
18871W        W84098  38.583  40.566  13.927
18872W        W84099  23.489  18.539  13.623
18873W        W84100  44.968  10.082  13.529
18874W        W84101  16.805  12.723   2.688
18875W        W84102   2.634  44.672  11.072
18876W        W84103  17.145   5.426   2.074
18877W        W84104   5.862   3.468  14.368
18878W        W84105  37.359  35.555  14.761
18879W        W84106  16.008  27.055   3.111
18880W        W84107  37.340   3.222   0.342
18881W        W84108  11.339  12.292  11.330
18882W        W84109  21.071   7.173  14.358
18883W        W84110  11.165  10.376  14.832
18884W        W84111   4.736  13.068   4.604
18885W        W84112  15.579   9.801   0.168
18886W        W84113  34.163  30.253   1.130
18887W        W84114   4.601   0.044  14.457
18888W        W84115  39.924  39.267  11.927
18889W        W84116  10.354   4.752  10.041
18890W        W84117  32.129   2.957   4.133
18891W        W84118  32.114  40.433  11.646
18892W        W84119  17.622   4.756   4.245
18893W        W84120  15.773  31.518   0.284
18894W        W84121  26.743  28.498  13.942
18895W        W84122  40.039  16.265   1.851
18896W        W84123  13.281  11.850   3.262
18897W        W84124   4.766  31.549  10.745
18898W        W84125  40.988  24.027   1.340
18899W        W84126  18.009  19.549   2.312
18900W        W84127  35.595  29.146   0.786
18901W        W84128  13.784   5.189   3.631
18902W        W84129  43.066  42.367  14.799
18903W        W84130  34.852  35.088  13.255
18904W        W84131  29.306  21.210   2.695
18905W        W84132  34.265  27.612  13.571
18906W        W84133  44.885   2.437  13.606
18907W        W84134  14.095  11.281  10.989
18908W        W84135   2.902   2.479   4.367
18909W        W84136  32.342   2.805  14.264
18910W        W84137  39.271  36.190   1.816
18911W        W84138  38.969  44.763  11.598
18912W        W84139  24.997  32.977   2.466
18913W        W84140  25.266  22.219   3.220
18914W        W84141  35.522  27.159   1.318
18915W        W84142  31.640  12.263   1.706
18916W        W84143  19.626  26.085  13.406
18917W        W84144  44.366  17.560  12.027
18918W        W84145  38.292  24.740  12.634
18919W        W84146   6.010  16.596  14.750
18920W        W84147  41.130  34.503  12.600
18921W        W84148   2.335  38.521   2.715
18922W        W84149  32.936  32.874  14.378
18923W        W84150  13.731   7.637  11.158
18924W        W84151  34.346  13.055   4.653
18925W        W84152  26.763  11.355   3.876
18926W        W84153  43.791  11.585   3.716
18927W        W84154  40.495   2.115   2.748
18928W        W84155  10.778  23.618   0.541
18929W        W84156  22.024  34.550   3.603
18930W        W84157   5.789   0.819   3.647
18931W        W84158  23.041   5.361   4.857
18932W        W84159  30.653  42.822  10.710
18933W        W84160  39.422  26.267  12.598
18934W        W84161  38.134  11.785   1.731
18935W        W84162  15.447   1.529   3.298
18936W        W84163  40.218   7.476   4.952
18937W        W84164  12.583  38.275  11.180
18938W        W84165  10.213  11.171  11.602
18939W        W84166  34.488   2.901  12.775
18940W        W84167   4.766  13.256  10.771
18941W        W84168  14.589  42.049  11.592
18942W        W84169  18.480  44.487   1.309
18943W        W84170   5.845  41.876   2.562
18944W        W84171  27.420   9.766   3.047
18945W        W84172  44.806   4.476   2.952
18946W        W84173  27.977  17.105   1.902
18947W        W84174  13.325  19.320   3.063
18948W        W84175  22.109  26.976  13.628
18949W        W84176  28.457  38.380  10.671
18950W        W84177   6.634  16.076   3.181
18951W        W84178  39.903  10.242  10.395
18952W        W84179  19.696  12.599  14.962
18953W        W84180  35.574  42.355   2.993
18954W        W84181  35.198  18.235   2.694
18955W        W84182  27.227  18.611  12.577
18956W        W84183  18.834   3.648  12.051
18957W        W84184   0.865  22.123   1.767
18958W        W84185  42.084   8.797  14.249
18959W        W84186   4.019   5.741   1.399
18960W        W84187  28.051   8.215   0.256
18961W        W84188  41.388  36.412   1.644
18962W        W84189  44.951  44.372   5.180
18963W        W84190  41.742  26.441   9.440
18964W        W84191  23.793  21.640   1.752
18965W        W84192  11.187  21.695   0.334
18966W        W84193  37.928  18.324  13.056
18967W        W84194  23.177  43.706   0.495
18968W        W84195  21.069  20.673   1.623
18969W        W84196  38.309  41.761   1.307
18970W        W84197   6.922  42.900  13.773
18971W        W84198  21.022  37.878   0.461
18972W        W84199  15.694  19.873   4.390
18973W        W84200   2.218  19.140   1.670
18974W        W84201  16.826   0.422   3.843
18975W        W84202   0.420   6.237   4.087
18976W        W84203  13.610  23.448  14.892
18977W        W84204  39.637  33.480   3.184
18978W        W84205  44.929  39.824   3.327
18979W        W84206  35.033  34.098  11.561
18980W        W84207  27.359  32.071  14.849
18981W        W84208  12.806  11.182   3.701
18982W        W84209   9.696  34.503  13.176
18983W        W84210  41.787  12.314  14.534
18984W        W84211  13.415  27.414  12.185
18985W        W84212  40.055  29.345  12.032
18986W        W84213  14.120  41.494  14.087
18987W        W84214  29.898  28.721   1.704
18988W        W84215   5.794  14.132   1.138
18989W        W84216  37.505  27.614  12.082
18990W        W84217   9.080  24.203   1.164
18991W        W84218  13.127  25.665  11.605
18992W        W84219   8.696   8.479   4.134
18993W        W84220  37.117   6.950  13.972
18994W        W84221  35.059  18.262   1.506
18995W        W84222  30.920   6.628   0.462
18996W        W84223  21.476  11.865  13.871
18997W        W84224  26.055  35.318  13.027
18998W        W84225  23.503  30.568  12.872
18999W        W84226  27.393   3.811   0.414
19000W        W84227   3.202  15.194  14.524
19001W        W84228  31.351  21.641  10.941
19002W        W84229  36.991  11.201   3.406
19003W        W84230   5.958   1.054  11.314
19004W        W84231  11.641  26.198  12.938
19005W        W84232  19.265  30.984   0.345
19006W        W84233  17.137  23.681  13.405
19007W        W84234  32.002  41.070   0.911
19008W        W84235  31.619   2.342   0.650
19009W        W84236  26.463   5.757  10.778
19010W        W84237  41.395   1.256   0.310
19011W        W84238  24.957  20.780  12.442
19012W        W84239  41.038  43.455   2.785
19013W        W84240  33.144  28.936  12.020
19014W        W84241  40.894   9.956  11.663
19015W        W84242  40.489   5.155   1.803
19016W        W84243   0.235  38.556   3.663
19017W        W84244  37.452  29.529   4.902
19018W        W84245  38.956  11.225  11.176
19019W        W84246  26.690  13.570   2.292
19020W        W84247  32.280  23.637  10.685
19021W        W84248   0.583  22.642  12.693
19022W        W84249  37.975  42.958   0.790
19023W        W84250  17.225  37.984   3.121
19024W        W84251  21.929  29.030   2.047
19025W        W84252  23.884   5.749  13.009
19026W        W84253  15.635  13.435  12.545
19027W        W84254  26.914  40.191  11.964
19028W        W84255  42.806   4.872  12.060
19029W        W84256  12.103  44.919  11.706
19030W        W84257  19.116  39.369   4.501
19031W        W84258  33.997  36.082   0.176
19032W        W84259   8.685  34.592   3.172
19033W        W84260  18.554  28.551  11.532
19034W        W84261  43.195  25.555  13.295
19035W        W84262  24.659  26.205  11.716
19036W        W84263  24.218   2.848  11.641
19037W        W84264  44.373  15.675   4.145
19038W        W84265   5.898  18.945   4.678
19039W        W84266  12.489  15.802  10.732
19040W        W84267  41.257  14.579  10.686
19041W        W84268  30.494  25.249   0.759
19042W        W84269  32.644  42.663  14.243
19043W        W84270   1.860  29.763  13.536
19044W        W84271  27.701   7.926  13.423
19045W        W84272  16.635  22.766   2.447
19046W        W84273   5.314   8.603  11.892
19047W        W84274  15.332  24.134  12.207
19048W        W84275  13.783  34.850  13.368
19049W        W84276  17.886  20.030  10.665
19050W        W84277   8.674   8.702  14.526
19051W        W84278  10.722   1.926   0.452
19052W        W84279  12.239  39.599   3.243
19053W        W84280  12.845  28.237  13.010
19054W        W84281   0.553  41.643   0.686
19055W        W84282   2.295  19.101   3.544
19056W        W84283  17.165   3.119  14.416
19057W        W84284  38.880  36.096   2.683
19058W        W84285   7.614   4.501  11.582
19059W        W84286   6.578  23.391  13.966
19060W        W84287  32.652   2.893   0.218
19061W        W84288   0.374  19.309  14.891
19062W        W84289  34.705  16.763   3.529
19063W        W84290  37.319  26.069   3.802
19064W        W84291  38.540  43.018   3.209
19065W        W84292  20.164  41.926   2.432
19066W        W84293  44.382  20.022  13.686
19067W        W84294  22.648  16.642  11.083
19068W        W84295  18.178  28.570  14.332
19069W        W84296  17.709  16.174  12.352
19070W        W84297   9.838  42.854  13.544
19071W        W84298  18.781  17.209  13.305
19072W        W84299  28.648  42.901   2.294
19073W        W84300  42.059  44.727  10.411
19074W        W84301  40.053  42.753   0.372
19075W        W84302  37.469  12.799  13.301
19076W        W84303  15.763   0.275   4.597
19077W        W84304  26.232  28.064   3.236
19078W        W84305  27.974  29.717  14.855
19079W        W84306  36.974   5.414   5.358
19080W        W84307  11.431   6.301   3.752
19081W        W84308  30.414  34.153  11.871
19082W        W84309  32.451  25.239  12.526
19083W        W84310  22.494  15.627   2.152
19084W        W84311   4.858  28.369  12.563
19085W        W84312  15.974  34.231   4.252
19086W        W84313   7.225   2.166   0.919
19087W        W84314  24.422  20.131  12.527
19088W        W84315  13.242  36.587  11.214
19089W        W84316  15.411  44.072  12.861
19090W        W84317  14.967  30.500   4.957
19091W        W84318  17.653  44.744   1.094
19092W        W84319  25.910   4.273  13.589
19093W        W84320  29.977  21.631  12.836
19094W        W84321  14.783  31.664   3.928
19095W        W84322   5.111  13.947  11.989
19096W        W84323   2.093  33.484   0.457
19097W        W84324   7.139  30.483  14.898
19098W        W84325  41.840  36.289  13.023
19099W        W84326  39.946  23.998  10.908
19100W        W84327   1.223  44.655  10.809
19101W        W84328  31.248  17.748   1.614
19102W        W84329  42.150  25.520  10.659
19103W        W84330  13.977  40.787   3.721
19104W        W84331  13.410  38.461  14.798
19105W        W84332  33.549  24.565  12.957
19106W        W84333  39.939  27.579  14.225
19107W        W84334   5.270   4.157  12.433
19108W        W84335   9.677  12.428  10.109
19109W        W84336  29.440  20.545   5.099
19110W        W84337  37.067   2.251   1.649
19111W        W84338  12.807  27.054  11.596
19112W        W84339   7.980   8.696  12.132
19113W        W84340  28.452  27.957   3.582
19114W        W84341  10.892   3.213   0.944
19115W        W84342  17.293  23.768   1.426
19116W        W84343  30.548   4.373   0.451
19117W        W84344  29.501  15.603  13.954
19118W        W84345  39.408  21.519  12.146
19119W        W84346   3.653   2.719   0.250
19120W        W84347  38.397  28.831  14.478
19121W        W84348  32.650  38.751   1.864
19122W        W84349  11.558  33.696   0.934
19123W        W84350  13.170   8.780  13.553
19124W        W84351  40.668   0.013   0.274
19125W        W84352  30.753  28.174   1.311
19126W        W84353  41.121  34.664   0.407
19127W        W84354  40.792   8.680  11.103
19128W        W84355  15.585   4.052   3.356
19129W        W84356  38.023  17.549  14.408
19130W        W84357  22.225  43.410  13.973
19131W        W84358  24.896   4.898   1.961
19132W        W84359  15.314  37.566  10.642
19133W        W84360  33.872   9.198  11.055
19134W        W84361  43.983  42.463  14.824
19135W        W84362  11.170  34.758  11.967
19136W        W84363  34.674  11.154   4.856
19137W        W84364  17.427   9.912   1.844
19138W        W84365  22.992  27.033   3.373
19139W        W84366  27.096  44.242  10.546
19140W        W84367  41.249   5.860  13.404
19141W        W84368  27.638  25.481   1.313
19142W        W84369   9.124   6.765  12.932
19143W        W84370  16.317  32.227   0.160
19144W        W84371  15.109  38.036  10.470
19145W        W84372  23.792   3.542   3.490
19146W        W84373   7.389   9.717   2.284
19147W        W84374  32.029  24.784   1.636
19148W        W84375   4.406  40.344   2.825
19149W        W84376  40.947  32.343   0.468
19150W        W84377   0.476  21.614   2.962
19151W        W84378  26.175  33.504   2.704
19152W        W84379   9.474  32.841  10.949
19153W        W84380  18.777  20.129   2.004
19154W        W84381  35.163  25.902   0.648
19155W        W84382  12.659  42.587   1.860
19156W        W84383  24.248  39.281   4.011
19157W        W84384  39.969  10.348  13.973
19158W        W84385  13.085  16.160   1.968
19159W        W84386   9.784  37.937   4.598
19160W        W84387  28.436   1.813   0.248
19161W        W84388  27.583  24.190   1.926
19162W        W84389  12.418   2.405  13.877
19163W        W84390  35.557   6.622  10.753
19164W        W84391   2.907  17.210  14.388
19165W        W84392  12.084   7.242   3.289
19166W        W84393   5.306  26.003   4.570
19167W        W84394  26.058  43.716  13.213
19168W        W84395  23.117  42.951  11.798
19169W        W84396  36.500   4.276   2.359
19170W        W84397  21.182  32.090   9.735
19171W        W84398  38.339  33.464  12.384
19172W        W84399  14.791  13.961  10.716
19173W        W84400   1.528  19.226  12.897
19174W        W84401  38.609   4.748  10.183
19175W        W84402  29.347  20.233  11.632
19176W        W84403  42.940  36.550  11.717
19177W        W84404   4.173  39.768   4.396
19178W        W84405  43.774  26.410   0.140
19179W        W84406  44.256   4.644   2.790
19180W        W84407  25.250  11.277   3.382
19181W        W84408  20.854  14.351  12.457
19182W        W84409  34.608  35.954  13.438
19183W        W84410  44.337  42.856  12.221
19184W        W84411   6.852  25.379   0.652
19185W        W84412  27.493  37.813  12.516
19186W        W84413  43.623  14.883   2.622
19187W        W84414  31.819  25.954   4.372
19188W        W84415   9.257   9.594   0.702
19189W        W84416  37.203   7.259   4.252
19190W        W84417   9.201   5.133  13.546
19191W        W84418  13.240  25.189   2.300
19192W        W84419  37.366   1.250   3.461
19193W        W84420  39.464  41.609  14.390
19194W        W84421  29.012  24.001   3.105
19195W        W84422   7.871   1.198   4.818
19196W        W84423  29.429   7.474   4.191
19197W        W84424  41.742  43.940  11.497
19198W        W84425   3.036  25.923   4.113
19199W        W84426  42.951  18.574  14.114
19200W        W84427  30.435   9.741   5.006
19201W        W84428  11.077  29.508  12.720
19202W        W84429  18.674  14.706   4.691
19203W        W84430  44.060  20.184   2.548
19204W        W84431   8.187   3.299   2.434
19205W        W84432   5.500  30.660   2.836
19206W        W84433  31.660  13.444  11.680
19207W        W84434  39.414   0.854  11.252
19208W        W84435   1.839  39.947   3.543
19209W        W84436  20.617  41.999   0.685
19210W        W84437  18.948  42.430   0.316
19211W        W84438   5.732  17.038  14.775
19212W        W84439  42.188   0.859   3.149
19213W        W84440  24.051  19.202   1.863
19214W        W84441  19.620  13.681  13.358
19215W        W84442  38.185  26.177   1.832
19216W        W84443  44.164   5.235   0.355
19217W        W84444  20.157  41.721   4.565
19218W        W84445  42.997   6.854   0.338
19219W        W84446  21.044  31.560  11.090
19220W        W84447  16.860  24.237  12.481
19221W        W84448   6.758  30.852  13.417
19222W        W84449  21.309  23.729   2.891
19223W        W84450  33.932  40.577   3.931
19224W        W84451   6.468   1.717  11.090
19225W        W84452  30.851  28.007   5.314
19226W        W84453  16.308  33.839   4.376
19227W        W84454  35.222  37.567  10.249
19228W        W84455  32.168   8.875  12.617
19229W        W84456   4.871   8.908   2.920
19230W        W84457  31.634  33.397  12.096
19231W        W84458  36.458  16.329  10.595
19232W        W84459  13.371  15.470   5.095
19233W        W84460   7.260  19.836  12.091
19234W        W84461  15.546  33.566  13.050
19235W        W84462  43.879  24.433  11.650
19236W        W84463   8.254  15.802  13.505
19237W        W84464  37.569  13.195   0.651
19238W        W84465  30.718  19.189  13.187
19239W        W84466   6.761  21.448   0.274
19240W        W84467   3.998  35.630  12.058
19241W        W84468  37.078   7.295   3.768
19242W        W84469  34.033  15.228  11.022
19243W        W84470   5.549  38.495   0.037
19244W        W84471  21.406   3.466  11.037
19245W        W84472  13.909  24.570   1.458
19246W        W84473  28.235  20.818  13.429
19247W        W84474  11.975  37.674   9.931
19248W        W84475  29.215  12.343   4.356
19249W        W84476   8.418  41.372   4.617
19250W        W84477   4.228   4.112   1.049
19251W        W84478  20.784   0.354   2.874
19252W        W84479  31.654   0.045  14.949
19253W        W84480   2.464  14.894   0.864
19254W        W84481  35.628  41.821  12.108
19255W        W84482  21.770  35.949   4.581
19256W        W84483  19.212  31.049  14.084
19257W        W84484  44.109   8.357   3.167
19258W        W84485   2.052   8.902   0.232
19259W        W84486   6.021  40.828   3.770
19260W        W84487  22.586  40.225  13.981
19261W        W84488   0.778  26.096   2.867
19262W        W84489  12.619  23.163  11.619
19263W        W84490  26.222  31.844  11.624
19264W        W84491  24.701   7.220   3.202
19265W        W84492   6.165   2.959  10.756
19266W        W84493  43.575  10.264   2.745
19267W        W84494  17.498  18.763  11.146
19268W        W84495  42.406   3.404  13.925
19269W        W84496   7.520  41.988   1.887
19270W        W84497  25.649  27.703  14.052
19271W        W84498  21.052  40.300  11.949
19272W        W84499  26.606   1.287   2.206
19273W        W84500  22.925  30.590  13.527
19274W        W84501  28.592  41.432   2.626
19275W        W84502  43.405  41.501   0.393
19276W        W84503  33.343  25.913   1.385
19277W        W84504  21.240  15.723  14.190
19278W        W84505  10.709   0.307  11.537
19279W        W84506  38.015  34.344   5.044
19280W        W84507  35.915  39.765  13.947
19281W        W84508  41.932  18.131   2.588
19282W        W84509  35.893   7.660   2.259
19283W        W84510  28.076  16.109   1.510
19284W        W84511  12.588  24.226  12.457
19285W        W84512  16.428   2.549  12.469
19286W        W84513  20.803  14.248  11.246
19287W        W84514  20.742  24.663   0.852
19288W        W84515   4.416  26.913   4.209
19289W        W84516  30.590  17.188   0.203
19290W        W84517  42.292  11.721   0.279
19291W        W84518  12.619   8.659  14.527
19292W        W84519  18.011  44.757  12.076
19293W        W84520  39.098  10.919  13.794
19294W        W84521   4.594  44.363  12.869
19295W        W84522  17.812  10.853   1.653
19296W        W84523  43.244  15.208  13.617
19297W        W84524  28.548  41.245  11.097
19298W        W84525   2.217  18.249   0.835
19299W        W84526  21.818  40.336   0.163
19300W        W84527  15.312  12.691  12.582
19301W        W84528  18.765  27.236   3.615
19302W        W84529  19.543  19.174  11.116
19303W        W84530  20.366  24.044   1.611
19304W        W84531  27.919  11.560   1.698
19305W        W84532  22.782  31.528  10.754
19306W        W84533  29.415   2.900  13.091
19307W        W84534  35.636  37.909   3.837
19308W        W84535   9.310  32.271  10.361
19309W        W84536  28.406   8.212   2.498
19310W        W84537  10.321  43.717   3.160
19311W        W84538  21.479  44.068   4.297
19312W        W84539   5.177  26.513   4.618
19313W        W84540   0.885  34.592   0.801
19314W        W84541   8.378  41.721   4.147
19315W        W84542  33.153  33.748   1.334
19316W        W84543  36.534  14.732  14.353
19317W        W84544   0.372  25.608  10.978
19318W        W84545  34.322  35.264  12.471
19319W        W84546  23.125  11.670  10.681
19320W        W84547  41.498  30.658   4.589
19321W        W84548  31.379  29.371   1.821
19322W        W84549  38.334  25.480  14.384
19323W        W84550   5.854  22.509  11.611
19324W        W84551   8.722  14.233  13.511
19325W        W84552  29.722  30.465  13.009
19326W        W84553  11.673  31.410  11.482
19327W        W84554  31.578  28.066   1.323
19328W        W84555  27.535  41.917  13.512
19329W        W84556   4.270  27.913   4.101
19330W        W84557  36.078  33.936  10.604
19331W        W84558  16.306  26.095   0.169
19332W        W84559  42.468  21.057   0.350
19333W        W84560  29.566   9.446   2.257
19334W        W84561  10.141  20.410   3.240
19335W        W84562  39.814  25.704  14.845
19336W        W84563   1.410  40.534  14.967
19337W        W84564  23.692  39.780   2.575
19338W        W84565  21.611  26.975   3.683
19339W        W84566  31.211  22.384  11.519
19340W        W84567  15.919  16.349  12.636
19341W        W84568   9.864  28.091   0.634
19342W        W84569  17.685  25.231   1.799
19343W        W84570  40.177  11.927  14.078
19344W        W84571  11.831  29.697   1.944
19345W        W84572  41.274  26.654   2.661
19346W        W84573   0.521  10.447   4.569
19347W        W84574   6.604  40.462   3.292
19348W        W84575  41.753   5.927  13.431
19349W        W84576  32.999  40.817   0.636
19350W        W84577  32.420   2.429  13.878
19351W        W84578  36.841  16.889  14.222
19352W        W84579  27.252  11.413  12.738
19353W        W84580  12.168   9.412  12.185
19354W        W84581  37.271  12.868  11.292
19355W        W84582  31.223  33.464   0.282
19356W        W84583  38.339  22.777  13.754
19357W        W84584  37.353  17.589   1.850
19358W        W84585  24.115   5.975   4.110
19359W        W84586  11.121  17.686   0.042
19360W        W84587  17.270  31.003  13.614
19361W        W84588   0.106  38.556  13.942
19362W        W84589  22.328  30.394  14.832
19363W        W84590   2.908  38.381   4.828
19364W        W84591  23.509  33.537   1.046
19365W        W84592  21.522   0.708  14.722
19366W        W84593  29.057  28.996  13.429
19367W        W84594  23.490  15.692   2.003
19368W        W84595   5.345  29.548   1.924
19369W        W84596  42.948   1.456  14.231
19370W        W84597  20.797   6.707   4.204
19371W        W84598  32.336  42.142  12.133
19372W        W84599   7.873  44.295  13.983
19373W        W84600  44.934   3.932   0.937
19374W        W84601   8.479  37.906   0.894
19375W        W84602   6.845   8.770  14.901
19376W        W84603  34.657   3.712   4.038
19377W        W84604  18.760  12.931  10.830
19378W        W84605  11.498   0.914   0.838
19379W        W84606  42.989  16.456  12.863
19380W        W84607   1.315  29.762  10.700
19381W        W84608  38.611  44.502   3.757
19382W        W84609   7.629  30.009   3.868
19383W        W84610   7.069  34.020  12.818
19384W        W84611  15.506  29.732   2.834
19385W        W84612   3.946  18.803   0.355
19386W        W84613  42.291   3.979   3.811
19387W        W84614  27.528  25.180   2.302
19388W        W84615  38.410  13.526  14.170
19389W        W84616  22.564  19.180  10.724
19390W        W84617  36.571  35.938  12.040
19391W        W84618  31.179  13.552  11.263
19392W        W84619  41.678  44.778   1.415
19393W        W84620   9.368  36.555  11.586
19394W        W84621   8.070  18.921   2.620
19395W        W84622  37.116  22.608   3.827
19396W        W84623  36.825  20.013  13.291
19397W        W84624  12.267  42.661  11.664
19398W        W84625   3.313  32.046   3.913
19399W        W84626  27.278  32.658   1.911
19400W        W84627   2.358  33.624   2.702
19401W        W84628  32.660  39.058   0.496
19402W        W84629  11.777   1.829  14.524
19403W        W84630  38.999  41.865   4.890
19404W        W84631  25.145  30.969  13.006
19405W        W84632  19.305   4.429  12.557
19406W        W84633  24.724   8.731  13.766
19407W        W84634  22.687  14.069   3.678
19408W        W84635  40.273  10.297  11.674
19409W        W84636   3.200  35.501  11.593
19410W        W84637  15.271  18.787   3.084
19411W        W84638  14.234   2.206  13.911
19412W        W84639   1.973  12.216   4.864
19413W        W84640  44.299  30.614   1.358
19414W        W84641   9.753  25.184   4.803
19415W        W84642  17.890  13.611  11.060
19416W        W84643  26.491  27.340   2.714
19417W        W84644   4.680  27.911   3.566
19418W        W84645   6.023  41.546   2.160
19419W        W84646   2.836  33.075   2.774
19420W        W84647   8.254  24.644   3.860
19421W        W84648  27.847  42.750   0.835
19422W        W84649  29.940   7.178   2.511
19423W        W84650   8.626  34.902  11.100
19424W        W84651   3.891  33.754  11.918
19425W        W84652  10.794   2.497  12.941
19426W        W84653   9.186  37.528  12.475
19427W        W84654  16.967  34.812  12.071
19428W        W84655  19.402  30.638  12.219
19429W        W84656  27.393  18.528   3.478
19430W        W84657  16.555  25.124   4.701
19431W        W84658  20.558  11.623  10.586
19432W        W84659  16.069  16.554  14.393
19433W        W84660  32.649  11.915  11.661
19434W        W84661  20.306  32.915  13.094
19435W        W84662  10.590   6.533   4.114
19436W        W84663  33.938  14.331  13.422
19437W        W84664  41.410  13.858   4.237
19438W        W84665  37.786  12.812   3.613
19439W        W84666  11.039  39.455  13.524
19440W        W84667  40.091  35.978   2.338
19441W        W84668  16.015   2.774   3.795
19442W        W84669  18.089  35.084   2.717
19443W        W84670  15.656  36.475  13.370
19444W        W84671  20.738   8.669   0.978
19445W        W84672  24.612  11.180  10.788
19446W        W84673  28.063   7.571  10.588
19447W        W84674  30.654  22.437   3.681
19448W        W84675   2.392   0.960  11.217
19449W        W84676   5.670   0.667   2.809
19450W        W84677  26.645  44.244  14.514
19451W        W84678  29.141  21.228   1.718
19452W        W84679   1.970  15.432   2.129
19453W        W84680  12.218   6.933   0.000
19454W        W84681  14.621  16.122   4.609
19455W        W84682  18.702  43.819   1.930
19456W        W84683   8.110  26.852   4.038
19457W        W84684  21.165  10.152  11.035
19458W        W84685  15.835  34.061   3.765
19459W        W84686  13.332  20.635   2.109
19460W        W84687  10.827  26.958   4.807
19461W        W84688  26.997  27.099   0.883
19462W        W84689  11.305  30.499   0.760
19463W        W84690  25.698   8.806   0.387
19464W        W84691  41.730  13.629   3.520
19465W        W84692  14.829  15.306   2.425
19466W        W84693  12.254  30.084   2.143
19467W        W84694  19.134   2.988   2.782
19468W        W84695  25.486  33.199  10.494
19469W        W84696  10.334   0.138  14.986
19470W        W84697  14.601  20.406  14.936
19471W        W84698  28.424   8.195   3.808
19472W        W84699  30.217  42.882  12.717
19473W        W84700  23.254   9.137   0.476
19474W        W84701  13.226  14.277   2.546
19475W        W84702  36.199   3.276   2.240
19476W        W84703  26.068   1.762   4.131
19477W        W84704  42.970  29.650  13.761
19478W        W84705  26.971  36.207   1.735
19479W        W84706   7.786  38.287  13.495
19480W        W84707  40.124  27.200  10.743
19481W        W84708  21.383   2.972   4.221
19482W        W84709   0.540   0.862   5.675
19483W        W84710  34.901  41.488   0.756
19484W        W84711  42.069  33.912  11.690
19485W        W84712  34.889  29.870  14.376
19486W        W84713  40.907  24.620   2.261
19487W        W84714  34.670  10.474   0.839
19488W        W84715  43.296  38.332   1.228
19489W        W84716   6.013  18.944   1.274
19490W        W84717  29.959  29.744   1.561
19491W        W84718  14.583   2.173   4.375
19492W        W84719  14.351  24.205  11.876
19493W        W84720   8.654  37.777  11.440
19494W        W84721   3.294  36.876   4.638
19495W        W84722  10.761  23.031   2.817
19496W        W84723  10.465  12.734  12.444
19497W        W84724  17.725  21.810  13.282
19498W        W84725  10.655  28.596  12.910
19499W        W84726  18.541  24.489  11.552
19500W        W84727   0.282  16.431   0.975
19501W        W84728  11.679  33.122  11.238
19502W        W84729  40.537   8.827   2.629
19503W        W84730   4.264   9.258   1.701
19504W        W84731  11.276  17.935  10.985
19505W        W84732  15.115  19.731  13.780
19506W        W84733   6.923   1.877  14.969
19507W        W84734  30.634   3.805  11.521
19508W        W84735  13.243  31.063   1.174
19509W        W84736  43.220   7.172   5.396
19510W        W84737  11.399  28.223  12.881
19511W        W84738  38.707  20.015   1.407
19512W        W84739  21.098  18.372   2.811
19513W        W84740  43.769   2.416  13.494
19514W        W84741   6.958  29.452  14.766
19515W        W84742   4.882   9.403   3.828
19516W        W84743  18.977  43.227   4.969
19517W        W84744  22.673  29.956   4.309
19518W        W84745   7.179  25.549  13.857
19519W        W84746  29.755   3.361   1.370
19520W        W84747  36.996  13.003   0.567
19521W        W84748  29.563  36.740  13.357
19522W        W84749  31.925  19.591  12.732
19523W        W84750   6.456   3.765   3.948
19524W        W84751  15.847  35.390   2.991
19525W        W84752  29.405  11.729   3.923
19526W        W84753  40.211  25.462  14.064
19527W        W84754   4.333  17.982  11.480
19528W        W84755  15.165  12.711  10.448
19529W        W84756  24.799  15.177  10.810
19530W        W84757   0.453  40.436  13.956
19531W        W84758   1.933   0.751  11.040
19532W        W84759  24.118  43.255  14.661
19533W        W84760  10.700  18.194  12.437
19534W        W84761  20.764   8.148   0.323
19535W        W84762   0.891  32.363  12.473
19536W        W84763   5.007  15.135   1.271
19537W        W84764   3.803  28.656  11.991
19538W        W84765   7.870  14.887  14.868
19539W        W84766  19.795  11.178  13.538
19540W        W84767  10.384  32.409   2.229
19541W        W84768  34.479  13.632  10.175
19542W        W84769  31.809  10.377   1.207
19543W        W84770  19.671  10.901  12.839
19544W        W84771  28.486  26.217   3.176
19545W        W84772  41.339  17.750   2.993
19546W        W84773  43.561   5.421   3.518
19547W        W84774  35.329  11.947   1.273
19548W        W84775  18.452  36.633   2.996
19549W        W84776  29.522  38.577   3.536
19550W        W84777  10.655  19.690   3.167
19551W        W84778  12.353   2.326  10.629
19552W        W84779   1.517  10.198   3.729
19553W        W84780  43.290   2.364  12.861
19554W        W84781   6.184  22.999   1.689
19555W        W84782  15.771  10.624  12.899
19556W        W84783  13.616   3.734  12.444
19557W        W84784   9.298  12.312   0.655
19558W        W84785  30.303  24.091  14.848
19559W        W84786  22.943  11.876   1.777
19560W        W84787  31.264  12.696  13.085
19561W        W84788  29.063  12.299  12.032
19562W        W84789  16.237  40.562  14.009
19563W        W84790  24.181  31.554  12.798
19564W        W84791   2.944  16.587  11.023
19565W        W84792  42.336  35.336  14.977
19566W        W84793   9.201  41.546  14.547
19567W        W84794  25.562  25.639   3.630
19568W        W84795   8.637   3.812  11.187
19569W        W84796  22.007  23.387  10.945
19570W        W84797  36.493  42.550  14.825
19571W        W84798  11.868   9.070  11.274
19572W        W84799  23.299   0.435  13.354
19573W        W84800  21.369  32.342   5.097
19574W        W84801  19.150  25.538   4.116
19575W        W84802   5.063  44.581   2.584
19576W        W84803  10.185  14.138  12.460
19577W        W84804  38.888  22.339   1.652
19578W        W84805  13.617  19.486   4.278
19579W        W84806   5.519  11.567   0.331
19580W        W84807  43.529  42.373  12.667
19581W        W84808   5.852   8.079   4.673
19582W        W84809  18.322  20.108   4.140
19583W        W84810  16.235   2.922   2.713
19584W        W84811  29.155  18.614   3.582
19585W        W84812  20.951   4.444   4.913
19586W        W84813  11.998   5.486   3.883
19587W        W84814   0.994  43.773  12.471
19588W        W84815  42.788  29.688   3.665
19589W        W84816   4.262  12.433  12.545
19590W        W84817  32.989  35.409   1.627
19591W        W84818  14.332  33.849   4.352
19592W        W84819  15.945  28.604   2.910
19593W        W84820   6.268  25.501  11.738
19594W        W84821   9.659   7.208   3.347
19595W        W84822  37.766   5.338  12.818
19596W        W84823   9.808   6.786   4.818
19597W        W84824   6.759   7.101  12.113
19598W        W84825  27.190  43.686   4.116
19599W        W84826  18.164  21.246   4.132
19600W        W84827  27.409  19.027   2.296
19601W        W84828   7.273  32.486  13.749
19602W        W84829  26.939  24.478  10.748
19603W        W84830  27.805  38.790  13.614
19604W        W84831  10.095   6.754  13.899
19605W        W84832  34.463   5.702   0.773
19606W        W84833  38.417  17.401   2.815
19607W        W84834  41.773  26.484   2.694
19608W        W84835  39.138  20.940   4.142
19609W        W84836  27.586  12.192   2.850
19610W        W84837  15.694  13.677   5.146
19611W        W84838   3.754  42.195   0.504
19612W        W84839  30.090  23.890  12.619
19613W        W84840  11.452   1.297   4.920
19614W        W84841  10.624  31.667   2.292
19615W        W84842  36.271  16.794   4.140
19616W        W84843  16.585   4.167   2.662
19617W        W84844   2.244  18.771   1.069
19618W        W84845   3.342  21.058   2.270
19619W        W84846  34.582  23.202  11.930
19620W        W84847   0.342  34.412   1.883
19621W        W84848  38.805  42.331  13.973
19622W        W84849   1.938  39.168  10.623
19623W        W84850   3.898  18.241   1.758
19624W        W84851   2.292  13.184   3.171
19625W        W84852   1.498   8.190   3.679
19626W        W84853  18.579   4.427  14.154
19627W        W84854  19.653  40.828   0.831
19628W        W84855  42.920  39.438   2.232
19629W        W84856  11.674  17.276  13.044
19630W        W84857  16.305  40.658  11.201
19631W        W84858  23.619  34.293  14.183
19632W        W84859  27.240   9.900  13.432
19633W        W84860  19.509  14.758  12.970
19634W        W84861   6.899  11.307  10.549
19635W        W84862  10.366   0.894   1.803
19636W        W84863  16.946  27.962  10.358
19637W        W84864  40.450  36.565   4.310
19638W        W84865  18.721   7.408   5.098
19639W        W84866  22.910   4.417  10.790
19640W        W84867  32.966  31.514  13.926
19641W        W84868   7.225   3.759  13.185
19642W        W84869   3.911   5.794  12.084
19643W        W84870  14.795  23.742  14.535
19644W        W84871  41.996  23.891  11.607
19645W        W84872  44.462  15.409   2.912
19646W        W84873  35.147  18.898  11.286
19647W        W84874   9.864  38.809   0.432
19648W        W84875  20.464  17.418   0.237
19649W        W84876  36.207  20.689  13.565
19650W        W84877  18.347   9.000  14.286
19651W        W84878  21.352  14.347  12.553
19652W        W84879  28.040  27.112  10.168
19653W        W84880   2.928  11.876   3.328
19654W        W84881  38.304  41.793  10.838
19655W        W84882   9.157  21.768   2.150
19656W        W84883  19.018  39.693   2.679
19657W        W84884  25.685   6.969  11.611
19658W        W84885   5.901  34.661  11.574
19659W        W84886  16.495  34.324   1.579
19660W        W84887  42.256  24.509   1.146
19661W        W84888   1.788  11.923  14.974
19662W        W84889  30.447   3.968  13.313
19663W        W84890  35.112  10.393  12.000
19664W        W84891  21.073  33.409  12.893
19665W        W84892  17.046  12.672   2.217
19666W        W84893  37.743   0.348   0.312
19667W        W84894  12.250   4.065   2.510
19668W        W84895  13.310  20.091  13.617
19669W        W84896  41.463  20.105   0.465
19670W        W84897   4.925  17.702   3.723
19671W        W84898  41.248  14.139  14.864
19672W        W84899  16.734  12.491  12.576
19673W        W84900   9.329  34.090  10.404
19674W        W84901  42.054  34.879   0.685
19675W        W84902  35.218  44.748  14.615
19676W        W84903  14.207  16.166   2.947
19677W        W84904  31.492  29.607   4.839
19678W        W84905   4.914  21.054   3.237
19679W        W84906  34.554  39.921  11.160
19680W        W84907  31.814   3.171  11.122
19681W        W84908  20.720  34.647   0.444
19682W        W84909  15.750   7.084  11.483
19683W        W84910  17.759  44.406  10.486
19684W        W84911  34.554  41.209   1.411
19685W        W84912  24.222  43.106  13.971
19686W        W84913  16.223   1.170  13.784
19687W        W84914  39.855   2.999   4.553
19688W        W84915  33.853  11.557   3.655
19689W        W84916  11.295   6.463  12.377
19690W        W84917  18.156  26.305   4.495
19691W        W84918  30.670  26.631  14.388
19692W        W84919  23.207  14.120  12.795
19693W        W84920  10.941  14.837  14.435
19694W        W84921   8.827  12.166  14.866
19695W        W84922  15.400   4.455   3.063
19696W        W84923   3.483  26.287   1.840
19697W        W84924   1.253  13.168  14.820
19698W        W84925   3.359  33.892  14.557
19699W        W84926  10.624  17.673  12.495
19700W        W84927  19.693   6.448   0.861
19701W        W84928  30.502  25.684  14.342
19702W        W84929  38.572   2.035   0.938
19703W        W84930  42.926  33.542  13.092
19704W        W84931  25.568  36.231   2.018
19705W        W84932   3.840  17.896  13.937
19706W        W84933  42.398  22.521  11.786
19707W        W84934   1.536  19.066   4.070
19708W        W84935  29.761  24.329   4.104
19709W        W84936  24.198  42.185  11.166
19710W        W84937  11.733  14.324   0.842
19711W        W84938  35.366  33.038   1.243
19712W        W84939  22.994   1.340   2.142
19713W        W84940  19.778  14.786  11.592
19714W        W84941   6.917   6.206  13.090
19715W        W84942  29.971   9.842   2.278
19716W        W84943   1.288  37.503   4.371
19717W        W84944  14.735  38.580  11.457
19718W        W84945   8.713   4.260   3.878
19719W        W84946  43.549  13.523  11.691
19720W        W84947  27.473   2.785   0.338
19721W        W84948  23.218  20.436  14.872
19722W        W84949  27.191   8.198   1.755
19723W        W84950  29.707  25.175  12.948
19724W        W84951   5.930  42.145  14.475
19725W        W84952  15.133  13.106  14.736
19726W        W84953  44.960   1.027  13.472
19727W        W84954   0.203  40.946   2.664
19728W        W84955  38.564  34.553   3.625
19729W        W84956  42.909  27.559  13.904
19730W        W84957  43.060   9.210   4.146
19731W        W84958   5.440   2.526   4.307
19732W        W84959  37.614  42.349  13.021
19733W        W84960  43.042  42.336  10.899
19734W        W84961   1.751  34.146   3.168
19735W        W84962   0.730  17.210   3.248
19736W        W84963   7.915  26.369   4.144
19737W        W84964  34.807   4.277  14.126
19738W        W84965  19.228   4.287  14.963
19739W        W84966  10.705  38.815   4.707
19740W        W84967  42.997  23.279  12.164
19741W        W84968   3.781  14.114   4.236
19742W        W84969  33.604   8.294   1.518
19743W        W84970  30.622  16.524  11.096
19744W        W84971  25.694  10.910   3.283
19745W        W84972  24.050  12.863  11.597
19746W        W84973  34.563  26.793  14.133
19747W        W84974  26.405  31.840   0.141
19748W        W84975   9.898  35.361  13.579
19749W        W84976   8.300  25.156  14.306
19750W        W84977  12.624  41.863  14.567
19751W        W84978  41.564  37.213  11.590
19752W        W84979  26.662  11.350  11.096
19753W        W84980  37.935  14.763  14.889
19754W        W84981  38.397  34.841  12.587
19755W        W84982   2.533  38.946   3.695
19756W        W84983  42.985  14.540  12.754
19757W        W84984  30.301  10.255   2.796
19758W        W84985  42.333  37.466  11.916
19759W        W84986  20.676   7.699   4.270
19760W        W84987  23.022  43.448  11.608
19761W        W84988  27.263   5.295   0.658
19762W        W84989  16.366   6.229   0.520
19763W        W84990  17.074  41.988  11.576
19764W        W84991  33.057  43.324   0.318
19765W        W84992   5.671  42.270  11.484
19766W        W84993  40.934  26.934   1.438
19767W        W84994  29.994   8.950  13.796
19768W        W84995  18.893  38.418   0.201
19769W        W84996   6.475  28.514   4.588
19770W        W84997  19.647   1.021   1.199
19771W        W84998  24.095  26.893   4.275
19772W        W84999  20.104  40.197  12.066
19773W        W85000  41.419  26.120   2.626
19774W        W85001  44.907  40.594  11.524
19775W        W85002  41.313  41.016   2.707
19776W        W85003   7.282  11.189   2.713
19777W        W85004  18.700  36.572  12.938
19778W        W85005  42.460  14.899   0.290
19779W        W85006  41.613  37.860   1.871
19780W        W85007  28.084  32.212   1.684
19781W        W85008  12.172  37.437  11.195
19782W        W85009   9.544   3.559   4.151
19783W        W85010  14.044   5.615  13.387
19784W        W85011  39.299   7.390   3.702
19785W        W85012  35.973  11.845  14.069
19786W        W85013  34.566   8.685   3.176
19787W        W85014   5.917  12.702  10.862
19788W        W85015   9.260  32.810  11.959
19789W        W85016  27.967  32.904  13.352
19790W        W85017  42.944  38.969  14.493
19791W        W85018  33.247  27.403  13.334
19792W        W85019   9.701  30.990  14.380
19793W        W85020  15.808  41.463  11.258
19794W        W85021  29.487  41.216  12.637
19795W        W85022  18.694  10.340  13.819
19796W        W85023  16.020  34.046   0.434
19797W        W85024  19.143   4.978  10.306
19798W        W85025  10.137  33.980  13.393
19799W        W85026  43.350  24.183   1.216
19800W        W85027  17.939  41.195  10.683
19801W        W85028  38.961  30.117  13.047
19802W        W85029  36.581   7.577   3.110
19803W        W85030  36.010   0.288  13.458
19804W        W85031   9.053  10.087  13.341
19805W        W85032  25.866  22.694  14.248
19806W        W85033  42.987   2.244  10.529
19807W        W85034  43.294  20.978  13.055
19808W        W85035  13.033  25.585  12.912
19809W        W85036   5.411   5.422   2.728
19810W        W85037  15.113  27.743   4.722
19811W        W85038  23.575  38.200  10.781
19812W        W85039  28.543  35.562   3.685
19813W        W85040   5.852  39.763  14.948
19814W        W85041   9.334   5.719   3.148
19815W        W85042   8.333  37.001   1.975
19816W        W85043  16.007  13.467   1.294
19817W        W85044   8.824  38.025   2.288
19818W        W85045  15.608  13.185  12.092
19819W        W85046  14.265  40.998  14.798
19820W        W85047  20.443  23.563   4.746
19821W        W85048  18.593  37.846  11.304
19822W        W85049  22.228  23.476   4.505
19823W        W85050  21.431   9.731  11.525
19824W        W85051   3.856  20.070  14.024
19825W        W85052  14.912  15.018  11.632
19826W        W85053  34.138  26.176   3.177
19827W        W85054  12.623  20.745  14.510
19828W        W85055  15.039  13.680  12.507
19829W        W85056  22.232  34.133  11.605
19830W        W85057  28.321  36.745   4.435
19831W        W85058  15.075   4.539  11.515
19832W        W85059   1.491  21.659   3.069
19833W        W85060  10.095  12.102  10.137
19834W        W85061  16.720  25.078   2.012
19835W        W85062  35.725  36.994  14.460
19836W        W85063  27.515   7.574   3.619
19837W        W85064  21.212  39.900  11.679
19838W        W85065  32.111   9.030  14.683
19839W        W85066  32.944  37.340   0.011
19840W        W85067  21.535  26.112  13.394
19841W        W85068   8.840  22.759  11.327
19842W        W85069  20.396  38.717   1.837
19843W        W85070   3.219  11.716   1.758
19844W        W85071  38.045  39.058   1.208
19845W        W85072   0.692  42.686   4.032
19846W        W85073  15.207   1.441   2.842
19847W        W85074   1.418  40.756  13.646
19848W        W85075  43.081  38.679   5.043
19849W        W85076  30.599  22.313   2.773
19850W        W85077   7.078   4.087   1.656
19851W        W85078  27.839  30.829  12.120
19852W        W85079  23.985   8.870  14.870
19853W        W85080  27.959  19.942  14.412
19854W        W85081  32.335  25.756   2.307
19855W        W85082  41.437  41.205  12.121
19856W        W85083  37.396  34.512  10.777
19857W        W85084  22.205  23.640  10.514
19858W        W85085   3.174  13.092   2.652
19859W        W85086  23.927  38.402  14.728
19860W        W85087  42.122  40.371  11.621
19861W        W85088   1.584  10.086  14.728
19862W        W85089   6.396  33.965   4.825
19863W        W85090  39.644  25.015  12.429
19864W        W85091  22.302  17.595  14.777
19865W        W85092  14.029  25.515   5.056
19866W        W85093  20.561  22.056  13.053
19867W        W85094  17.086   7.700  12.353
19868W        W85095   2.490  27.075   1.780
19869W        W85096  20.381  33.714   3.213
19870W        W85097  19.606  10.842   0.780
19871W        W85098  27.142  13.825   2.164
19872W        W85099  14.751  10.092  11.145
19873W        W85100   9.876  28.556  12.545
19874W        W85101  27.177   6.229  13.797
19875W        W85102  32.054  13.941   0.660
19876W        W85103   7.945  29.962   0.242
19877W        W85104  21.500  24.167   3.796
19878W        W85105   6.153  33.662   2.742
19879W        W85106  44.445  13.832   2.756
19880W        W85107  33.365  18.978   0.242
19881W        W85108  13.455  29.706   4.523
19882W        W85109   7.366  12.104  11.607
19883W        W85110   3.159  22.850  10.596
19884W        W85111  16.352   1.999  10.775
19885W        W85112  33.660  11.187  11.987
19886W        W85113   8.331  30.486  14.460
19887W        W85114  40.429  34.471  10.856
19888W        W85115  38.431  24.295   2.093
19889W        W85116  16.720  38.282   2.382
19890W        W85117   7.005   7.261   0.223
19891W        W85118  15.085  39.473   1.354
19892W        W85119  26.916   4.465  11.637
19893W        W85120  18.181   0.011   1.116
19894W        W85121  40.715  28.075   0.754
19895W        W85122  17.791  26.048   0.786
19896W        W85123  10.877  40.399   2.171
19897W        W85124  21.275  42.049  12.527
19898W        W85125  27.893  38.987  11.326
19899W        W85126  37.173   1.766  13.463
19900W        W85127  22.762  30.294  13.918
19901W        W85128   4.966  13.351   0.937
19902W        W85129   9.155  19.689  12.880
19903W        W85130  22.796  37.571  14.532
19904W        W85131  15.656  16.731   2.156
19905W        W85132  43.172  29.340  11.594
19906W        W85133  17.286  13.334  14.156
19907W        W85134  17.797  29.121   3.172
19908W        W85135   3.853  28.025   3.759
19909W        W85136   0.531  22.023   4.201
19910W        W85137  41.952   3.177  14.034
19911W        W85138  19.874  17.177   4.991
19912W        W85139   7.680  17.284  12.983
19913W        W85140  25.949   5.573   1.828
19914W        W85141   4.371  20.084  13.966
19915W        W85142  43.849  26.638   2.196
19916W        W85143  39.925   8.089  11.992
19917W        W85144   5.082  41.146  12.980
19918W        W85145  27.750   8.964  10.920
19919W        W85146  20.365  28.521  14.228
19920W        W85147  18.312  30.385   9.768
19921W        W85148  35.784   9.312  11.622
19922W        W85149  10.622   9.158  13.751
19923W        W85150  23.227  34.261   3.373
19924W        W85151  31.996   8.910  12.110
19925W        W85152  41.314  43.447  13.013
19926W        W85153  24.614  37.919   2.106
19927W        W85154   2.615  44.265  12.578
19928W        W85155  35.484  13.024   0.303
19929W        W85156  34.477  42.729   3.610
19930W        W85157  25.236  33.550   0.775
19931W        W85158  16.208  39.454  13.509
19932W        W85159  26.924   1.019  10.218
19933W        W85160  39.433  31.041  12.981
19934W        W85161   4.996  28.406   1.403
19935W        W85162  14.262  36.850  11.104
19936W        W85163  35.423  26.507  12.352
19937W        W85164  29.489   0.519  14.815
19938W        W85165   6.508  21.112   1.723
19939W        W85166   2.758  40.039   0.781
19940W        W85167  24.732  16.633  12.561
19941W        W85168  27.928  12.721  11.506
19942W        W85169  31.163  28.075   0.973
19943W        W85170  29.077  38.581   0.951
19944W        W85171  32.934   8.250  14.866
19945W        W85172  18.796   5.601  11.064
19946W        W85173  11.188  43.385   4.490
19947W        W85174  14.705  21.315  11.738
19948W        W85175  29.569  31.031   0.255
19949W        W85176  31.597  41.660   2.807
19950W        W85177  40.929  28.437   4.285
19951W        W85178  21.504   6.921  14.537
19952W        W85179   7.411  32.159   1.066
19953W        W85180  37.344  13.877  11.135
19954W        W85181   1.835  30.192   3.284
19955W        W85182   4.856  30.509  13.862
19956W        W85183  36.869  20.487   4.185
19957W        W85184  38.360   7.613  13.999
19958W        W85185   8.540  34.077  14.412
19959W        W85186  17.205  15.945  12.079
19960W        W85187  12.641  15.317  10.675
19961W        W85188  25.763  13.243  11.985
19962W        W85189  42.026  19.203  12.939
19963W        W85190  38.089  27.853  13.402
19964W        W85191  11.362  36.904   3.616
19965W        W85192  24.222   6.999   3.240
19966W        W85193   7.858  37.620   4.166
19967W        W85194  15.213  43.908  12.411
19968W        W85195  39.905  13.163  11.250
19969W        W85196   2.358  12.208   1.715
19970W        W85197   8.361  17.248  12.027
19971W        W85198  35.619  32.550   0.413
19972W        W85199  30.517   4.991   3.744
19973W        W85200  12.257  35.554  11.144
19974W        W85201   8.846  33.591   0.711
19975W        W85202  12.830  14.685   2.361
19976W        W85203   8.833  43.394   0.395
19977W        W85204   4.327  34.014   1.855
19978W        W85205  34.848  14.588  10.256
19979W        W85206  16.607  19.323  11.158
19980W        W85207   8.202  13.855  11.677
19981W        W85208  23.821  35.802  13.372
19982W        W85209   7.216   5.612   0.008
19983W        W85210   3.056  44.396   2.788
19984W        W85211  40.510  33.937   3.026
19985W        W85212  37.612  41.273   4.152
19986W        W85213  33.839   2.458   1.320
19987W        W85214  33.429  42.998  12.873
19988W        W85215  41.006  40.813  13.797
19989W        W85216   1.464  27.533   3.760
19990W        W85217  14.441  10.406   0.894
19991W        W85218  28.113   1.949  11.956
19992W        W85219  25.632  26.022   0.936
19993W        W85220  24.428  40.258   3.076
19994W        W85221  35.909  21.261   1.876
19995W        W85222  39.044  37.524  10.485
19996W        W85223  21.245  19.933  13.627
19997W        W85224  38.948  36.103   4.673
19998W        W85225  12.300   1.321  14.817
19999W        W85226   8.223   9.765  11.717
20000W        W85227  30.367  29.703   1.198
20001W        W85228  16.209  20.754  11.470
20002W        W85229  35.001  13.279   4.529
20003W        W85230  15.645  39.559  11.415
20004W        W85231  14.507  24.121  11.382
20005W        W85232  36.820  37.269   0.960
20006W        W85233  19.790   2.409   1.501
20007W        W85234   8.890  36.292  11.667
20008W        W85235  36.127  30.663   0.220
20009W        W85236   8.240  23.234  14.086
20010W        W85237  13.766   4.445   1.208
20011W        W85238  18.695  25.559   2.742
20012W        W85239  32.994  17.835   2.325
20013W        W85240   3.476  19.924  11.067
20014W        W85241  12.584  20.265  13.740
20015W        W85242  21.579  18.306  14.700
20016W        W85243  41.864  16.741  10.490
20017W        W85244  13.168  32.796  12.518
20018W        W85245  36.538  44.536  11.612
20019W        W85246  28.571  10.162  11.052
20020W        W85247  23.960  43.307  12.112
20021W        W85248  13.513  24.200   0.709
20022W        W85249  27.638  15.181   0.317
20023W        W85250   3.418  37.414   2.356
20024W        W85251  17.744  18.003  12.778
20025W        W85252  14.271  14.864   0.218
20026W        W85253   9.841  24.722  13.077
20027W        W85254  32.870  38.912   0.984
20028W        W85255   8.868  33.138   4.263
20029W        W85256  17.202  42.152   1.404
20030W        W85257  15.729  29.471   2.406
20031W        W85258  15.414  28.732  13.378
20032W        W85259  17.735   3.857  14.825
20033W        W85260  21.285  21.237   3.586
20034W        W85261  43.252  27.723   9.933
20035W        W85262  19.584  25.707   4.875
20036W        W85263  39.942  41.788  11.247
20037W        W85264   3.499  34.472   0.831
20038W        W85265  35.402  27.160  10.894
20039W        W85266  35.890  40.584   1.818
20040W        W85267   4.682  30.516   1.348
20041W        W85268   7.831   5.078  10.780
20042W        W85269  35.012  36.602   3.421
20043W        W85270  39.897   1.040  13.057
20044W        W85271   3.671  22.081  12.951
20045W        W85272  22.532   7.570  10.772
20046W        W85273  33.687  14.566  10.666
20047W        W85274  23.117   5.529   1.709
20048W        W85275  26.752  29.404  13.659
20049W        W85276  39.739  15.207  13.923
20050W        W85277  25.996  14.229   0.230
20051W        W85278  36.569  33.590   3.315
20052W        W85279  39.285   5.103   1.180
20053W        W85280   1.706  13.534  11.203
20054W        W85281  10.836  12.225  11.178
20055W        W85282  34.591  32.611   3.283
20056W        W85283  41.887  43.388   4.186
20057W        W85284  13.880   9.554  13.556
20058W        W85285  27.499   6.415   0.483
20059W        W85286  16.029  41.564  14.048
20060W        W85287  34.122  13.077  11.036
20061W        W85288   0.197   6.255   3.240
20062W        W85289  40.906   0.607   2.386
20063W        W85290   3.710  16.875  12.947
20064W        W85291  21.621  32.399  13.499
20065W        W85292  20.211  18.497   0.831
20066W        W85293   8.746  20.532  13.003
20067W        W85294  33.824  44.783  12.804
20068W        W85295  25.534  27.624  10.738
20069W        W85296  14.763   6.414  11.647
20070W        W85297  31.029  43.748  12.039
20071W        W85298  27.302  39.639  14.984
20072W        W85299  22.911  11.680   4.421
20073W        W85300  26.563   6.182  11.043
20074W        W85301  44.850  33.462  12.063
20075W        W85302  31.959  42.244  14.338
20076W        W85303  23.611  36.971  11.546
20077W        W85304  34.794  14.659   2.231
20078W        W85305  40.283  36.362  10.730
20079W        W85306  13.306  20.263  14.543
20080W        W85307  19.716   3.107   4.581
20081W        W85308  14.226  15.045   3.693
20082W        W85309   1.519  12.088  11.564
20083W        W85310  29.503  17.225   1.872
20084W        W85311  25.264  26.578  11.173
20085W        W85312  36.522  37.792   3.697
20086W        W85313   8.942  20.109   2.765
20087W        W85314  44.163  43.964  10.567
20088W        W85315  16.193   4.733   0.433
20089W        W85316  29.528  23.911   1.339
20090W        W85317   7.843   0.891  13.364
20091W        W85318   7.770  32.590  13.882
20092W        W85319  26.307  40.761  11.225
20093W        W85320   7.189  21.175  13.026
20094W        W85321  19.613  28.571  12.402
20095W        W85322  11.470  37.626   3.355
20096W        W85323  34.601  12.822  13.104
20097W        W85324  28.452  27.157   0.392
20098W        W85325  14.945  22.125  11.176
20099W        W85326   5.861  21.307  12.036
20100W        W85327  20.261  18.090   3.541
20101W        W85328  11.957  26.876   0.718
20102W        W85329  31.680  40.403   3.751
20103W        W85330  37.165  13.663  10.704
20104W        W85331  44.020   4.560  14.947
20105W        W85332  37.605  35.580  13.014
20106W        W85333  24.124   5.941   1.319
20107W        W85334  31.929  17.180  11.046
20108W        W85335   8.382   5.716   0.854
20109W        W85336  43.411  22.374   2.577
20110W        W85337  30.184  21.271  14.034
20111W        W85338  17.949  39.972  13.970
20112W        W85339  16.943  24.613  14.987
20113W        W85340  33.095   2.885  11.558
20114W        W85341  24.704  38.171  13.036
20115W        W85342   5.230  43.097  11.615
20116W        W85343  43.729  26.217  10.914
20117W        W85344  14.343  44.268   0.514
20118W        W85345  21.240  17.075   1.272
20119W        W85346  42.266  10.578   3.164
20120W        W85347  14.780  42.317   3.750
20121W        W85348  32.384  24.185  14.977
20122W        W85349   0.765  23.964  11.008
20123W        W85350  13.839  24.044   2.214
20124W        W85351  32.622  13.154   0.339
20125W        W85352  34.407  28.935  12.481
20126W        W85353   2.254  42.071   0.063
20127W        W85354  19.554  36.297  13.289
20128W        W85355   5.525  29.327   2.335
20129W        W85356   6.663   1.309   1.780
20130W        W85357  32.463   0.514  10.271
20131W        W85358  10.426  32.786  14.519
20132W        W85359  43.825   0.415   0.876
20133W        W85360  41.017  18.483  12.449
20134W        W85361  28.858  42.783  12.393
20135W        W85362  30.654  40.917  13.146
20136W        W85363  39.885  38.109  14.791
20137W        W85364  12.436  42.287  12.592
20138W        W85365  37.511   6.703   0.468
20139W        W85366  16.246  14.340  12.419
20140W        W85367   5.122  30.977  12.577
20141W        W85368  25.160   8.833   4.629
20142W        W85369  15.855   3.814  13.800
20143W        W85370  43.496  16.151  12.077
20144W        W85371   1.311  17.149  13.520
20145W        W85372   4.024  30.008   1.322
20146W        W85373  36.340  20.725  12.049
20147W        W85374  39.534  29.188  11.993
20148W        W85375  42.539  34.152  12.564
20149W        W85376  44.946  26.789  11.344
20150W        W85377  32.807   2.198  14.687
20151W        W85378  24.230  36.124   9.708
20152W        W85379   6.321   5.353   3.156
20153W        W85380  27.549  31.402   1.724
20154W        W85381  32.704  11.721   1.818
20155W        W85382  11.537  16.651  12.445
20156W        W85383  42.063  29.154   1.292
20157W        W85384  22.408   3.902   1.033
20158W        W85385  23.508  19.735  14.029
20159W        W85386  24.104  25.428   2.468
20160W        W85387  30.733  34.601  12.731
20161W        W85388  15.762  15.675   3.653
20162W        W85389  18.110   7.619   1.856
20163W        W85390   3.021   6.351   1.914
20164W        W85391   7.271   7.223  12.058
20165W        W85392  44.667  41.888   2.063
20166W        W85393  37.502   5.528   5.330
20167W        W85394  24.998  32.058  13.912
20168W        W85395  11.160  36.010   1.765
20169W        W85396  31.390  29.195   0.946
20170W        W85397  38.345  36.412  14.028
20171W        W85398  11.379   4.825   3.227
20172W        W85399  40.805  10.676   0.665
20173W        W85400  31.021  28.339  10.113
20174W        W85401  20.545  31.658  11.073
20175W        W85402  32.916  38.535   1.466
20176W        W85403   8.274  21.144   0.182
20177W        W85404  38.470   8.203   1.152
20178W        W85405  13.137  10.996   0.084
20179W        W85406  37.298  39.927   0.277
20180W        W85407  25.900  38.346  14.761
20181W        W85408  42.007  15.042   4.849
20182W        W85409  16.107  36.474  13.645
20183W        W85410  31.088  18.209   3.369
20184W        W85411  31.947  32.360   3.186
20185W        W85412  44.003   6.797   3.298
20186W        W85413  41.394  16.821  13.835
20187W        W85414  36.416  22.039  11.589
20188W        W85415  42.014   3.534  14.510
20189W        W85416  30.090  44.276  14.893
20190W        W85417  39.160  35.279   3.500
20191W        W85418  18.373  20.174  10.657
20192W        W85419  19.549  40.432   2.703
20193W        W85420   4.910  11.153  11.575
20194W        W85421  12.008  39.322   1.309
20195W        W85422   4.407  25.541   3.606
20196W        W85423  39.313  19.484   0.411
20197W        W85424  21.642  18.156   3.597
20198W        W85425  14.067  44.096   1.935
20199W        W85426  35.674  34.503   0.362
20200W        W85427   6.547  20.571   3.813
20201W        W85428  39.416  29.342   1.261
20202W        W85429  37.336  24.524  12.079
20203W        W85430  10.936  14.025   2.741
20204W        W85431  38.450  34.481  10.567
20205W        W85432  21.398  26.255  12.915
20206W        W85433  34.546  22.233  12.935
20207W        W85434  41.974  18.558  13.963
20208W        W85435  38.449  36.881  14.271
20209W        W85436  41.989  33.426  11.598
20210W        W85437  22.974   2.379   5.010
20211W        W85438  29.470  23.281   3.257
20212W        W85439  32.655  22.517  11.742
20213W        W85440  30.674   4.369  14.584
20214W        W85441   4.486  35.892   0.299
20215W        W85442  44.244  43.335   4.581
20216W        W85443   8.233  38.555  10.723
20217W        W85444  40.984  39.004   4.096
20218W        W85445  30.878  28.479   2.738
20219W        W85446  33.196  15.742   1.411
20220W        W85447   5.470  21.931   3.231
20221W        W85448  27.257  34.409   2.610
20222W        W85449  13.623  13.096   3.622
20223W        W85450   6.230  22.744   2.556
20224W        W85451  12.702   9.445  13.940
20225W        W85452  29.391  44.088   3.979
20226W        W85453  16.139  43.451   0.250
20227W        W85454  30.714   2.860   4.115
20228W        W85455  41.966  38.514   1.414
20229W        W85456   1.799   9.207   1.810
20230W        W85457   7.234  38.971  10.643
20231W        W85458  39.640  17.801  13.876
20232W        W85459  12.474  43.007  12.981
20233W        W85460  13.149  20.742  14.463
20234W        W85461   6.854  27.680   4.629
20235W        W85462  19.407  12.090   4.182
20236W        W85463  18.096   3.122   1.835
20237W        W85464  35.168  38.130  12.426
20238W        W85465  26.056  35.755  10.702
20239W        W85466  21.045  30.717   1.749
20240W        W85467  30.556  16.134   2.621
20241W        W85468  34.094  23.086   3.053
20242W        W85469  37.314   8.654  11.064
20243W        W85470  31.148  33.911   4.018
20244W        W85471  16.705  28.111   4.197
20245W        W85472   7.666   8.167   0.432
20246W        W85473  24.566  33.142   2.178
20247W        W85474  42.280   5.250   2.581
20248W        W85475  29.679  29.238   2.741
20249W        W85476  33.070  28.174  12.458
20250W        W85477   4.669  19.186  11.023
20251W        W85478  18.563  12.376   2.668
20252W        W85479  10.871  14.885  10.662
20253W        W85480   8.190  34.231   0.826
20254W        W85481  17.681   1.367  12.998
20255W        W85482  25.091  24.303  14.314
20256W        W85483  12.701  11.556   0.351
20257W        W85484  23.202  30.994  14.107
20258W        W85485  32.033  24.022   1.295
20259W        W85486  40.292  13.582   3.813
20260W        W85487  27.291  20.521   0.209
20261W        W85488  10.314  35.890   1.904
20262W        W85489  16.023  11.114  14.229
20263W        W85490  30.927  25.930   4.168
20264W        W85491  20.304  43.266  12.049
20265W        W85492  29.069  13.840  12.496
20266W        W85493  30.862  24.095   1.706
20267W        W85494  15.756  38.074   3.371
20268W        W85495  42.329  17.169  14.931
20269W        W85496  18.794  41.298  13.860
20270W        W85497  35.441   2.277   3.907
20271W        W85498  39.379  11.890  11.982
20272W        W85499  15.300  12.408  14.057
20273W        W85500   5.008  28.600  10.018
20274W        W85501  15.420  28.073   5.089
20275W        W85502  31.516  38.959  13.130
20276W        W85503  24.411   5.798   1.921
20277W        W85504  14.389  30.443   1.799
20278W        W85505  26.292  32.031  13.425
20279W        W85506  13.259  22.032   3.743
20280W        W85507  22.630  25.199   0.800
20281W        W85508  38.935  44.158   3.551
20282W        W85509  44.356  28.883  12.376
20283W        W85510   2.338   4.388  11.411
20284W        W85511  30.541  38.827   1.296
20285W        W85512   6.887  20.701   2.934
20286W        W85513  18.792   4.698   3.754
20287W        W85514  16.800  10.260   0.882
20288W        W85515  23.430  34.562   0.372
20289W        W85516  34.549   5.350  10.691
20290W        W85517  25.597  44.912  13.828
20291W        W85518  12.420  11.771   2.156
20292W        W85519   5.950   0.465   2.380
20293W        W85520  37.673   9.806  12.983
20294W        W85521   3.894  26.565   0.453
20295W        W85522  30.374  33.400   1.092
20296W        W85523   6.468  32.617   4.723
20297W        W85524   5.341  23.526   3.257
20298W        W85525  42.557  38.281   2.777
20299W        W85526  12.369  14.257   4.515
20300W        W85527  31.955  16.537  14.611
20301W        W85528  19.307  30.541   4.611
20302W        W85529  40.782   9.600   1.680
20303W        W85530  21.115  29.992  13.496
20304W        W85531  23.032  29.464  10.980
20305W        W85532  29.371  31.068   3.846
20306W        W85533   8.383  39.859  11.146
20307W        W85534  12.233  31.835  14.388
20308W        W85535  36.281  15.232  13.989
20309W        W85536  27.753  20.790   2.719
20310W        W85537   1.751   6.806   4.533
20311W        W85538  14.746  35.861  13.112
20312W        W85539   5.145  37.432   0.383
20313W        W85540  15.974  44.437  11.970
20314W        W85541  12.006  21.623   1.982
20315W        W85542   2.607  20.474  10.226
20316W        W85543   8.564  43.399   3.662
20317W        W85544   1.144  20.601  10.681
20318W        W85545  39.786  16.813  13.144
20319W        W85546  30.107  16.305   2.839
20320W        W85547  43.963  40.631  10.526
20321W        W85548  35.598  44.533  14.021
20322W        W85549  31.554  20.971   4.105
20323W        W85550   0.296  24.902  13.324
20324W        W85551  33.358   4.531  11.087
20325W        W85552  33.682  32.185   3.899
20326W        W85553  20.434  24.900  12.189
20327W        W85554  15.191  44.447   4.423
20328W        W85555   1.159  36.728  11.213
20329W        W85556  25.456   4.261   1.876
20330W        W85557  36.100  16.290   4.048
20331W        W85558  35.172  25.220   2.416
20332W        W85559   5.674  21.076  14.007
20333W        W85560  42.242  13.466  13.114
20334W        W85561   4.317  40.253   4.519
20335W        W85562  27.174   4.513   3.515
20336W        W85563  44.462   0.946  10.258
20337W        W85564  18.194   3.730   4.374
20338W        W85565  40.089  38.700   1.352
20339W        W85566  24.562   6.174  11.205
20340W        W85567  39.499  30.371   1.278
20341W        W85568  42.541  23.710   4.678
20342W        W85569   1.998  14.231  14.374
20343W        W85570  33.746  27.257   3.858
20344W        W85571  35.738  16.515   3.678
20345W        W85572  44.605  43.497  13.521
20346W        W85573  44.599   3.345   2.557
20347W        W85574   5.817  33.988   3.427
20348W        W85575  19.198  24.980   2.793
20349W        W85576  26.564  23.062   0.252
20350W        W85577   2.150   8.480   3.129
20351W        W85578   2.286   1.131  14.067
20352W        W85579   8.080  21.322  14.341
20353W        W85580  34.975  22.983   1.500
20354W        W85581  36.127  24.967  11.457
20355W        W85582   0.014  33.483  13.414
20356W        W85583   4.631  43.248   2.230
20357W        W85584   5.895  37.900   1.748
20358W        W85585  14.996  10.808   3.224
20359W        W85586  42.501  26.397   1.255
20360W        W85587  18.979  20.815  11.551
20361W        W85588  30.061  10.420  11.945
20362W        W85589  35.768  38.636   5.501
20363W        W85590  21.058  26.232  13.558
20364W        W85591  11.196  29.513   3.129
20365W        W85592   4.007   0.264  14.420
20366W        W85593   8.235   3.287   1.384
20367W        W85594  19.347  35.126  11.947
20368W        W85595   9.745  23.115  14.132
20369W        W85596   1.312   6.078  10.641
20370W        W85597  25.200   1.972  14.387
20371W        W85598  26.021  14.722   4.559
20372W        W85599  11.608  20.065   0.921
20373W        W85600  35.661   3.190  12.416
20374W        W85601  42.108   4.814   2.918
20375W        W85602  21.477  18.778  13.933
20376W        W85603  44.327   5.352   3.086
20377W        W85604  31.085  33.015  13.039
20378W        W85605   2.293   4.511  10.608
20379W        W85606  41.927  11.385   3.269
20380W        W85607   7.170  32.842  12.229
20381W        W85608  43.465  43.603  13.904
20382W        W85609   7.947  37.932   1.784
20383W        W85610   4.911  28.273  13.323
20384W        W85611  24.582  27.147   2.571
20385W        W85612  10.391  22.722  13.958
20386W        W85613  19.875  26.487  12.151
20387W        W85614  43.013  25.508   5.171
20388W        W85615  29.187  12.594  11.209
20389W        W85616  44.149  25.724  13.474
20390W        W85617  15.847  28.383   3.728
20391W        W85618  25.843  19.845   1.780
20392W        W85619  36.371  15.817  12.102
20393W        W85620  24.003  40.367  11.542
20394W        W85621  25.050  10.939   0.812
20395W        W85622  22.601  37.049  13.338
20396W        W85623  25.343  36.981  10.667
20397W        W85624   9.354  21.105   5.053
20398W        W85625  22.129  36.403  13.919
20399W        W85626  39.387  16.815  12.410
20400W        W85627  20.621  26.100  12.226
20401W        W85628  13.334  44.494   0.409
20402W        W85629   9.628  13.121  13.380
20403W        W85630  28.385   3.297  14.304
20404W        W85631  31.420   8.264  12.371
20405W        W85632   4.403  14.886  13.384
20406W        W85633  27.013  44.953   1.854
20407W        W85634  44.842  20.891   4.945
20408W        W85635  27.170  33.419   0.792
20409W        W85636   8.992  37.981   0.901
20410W        W85637   2.156   5.784  14.772
20411W        W85638   5.720  33.428  10.897
20412W        W85639  39.445  33.095   0.372
20413W        W85640   4.457  15.692  13.115
20414W        W85641  38.421  32.500   0.984
20415W        W85642  28.042  36.014  14.834
20416W        W85643  19.352  15.089  11.525
20417W        W85644  31.828  42.071  12.204
20418W        W85645   3.571  27.954   5.273
20419W        W85646  44.461  38.117  10.294
20420W        W85647  20.291  41.705   2.879
20421W        W85648   7.643  12.149   0.901
20422W        W85649  37.589  23.601  10.663
20423W        W85650   5.502  34.941  12.551
20424W        W85651   8.871   0.990  12.812
20425W        W85652  24.426  29.606   4.185
20426W        W85653  25.231  13.642  14.797
20427W        W85654  23.934   1.805  12.322
20428W        W85655  15.198  24.469  13.956
20429W        W85656  20.784  36.073   4.676
20430W        W85657  36.151   2.949   0.340
20431W        W85658  22.542  40.521  14.420
20432W        W85659  18.771  37.661  12.298
20433W        W85660   8.738  23.071  10.950
20434W        W85661  26.181  28.586  14.830
20435W        W85662  17.291  19.534   4.964
20436W        W85663  12.034  20.095   0.611
20437W        W85664  29.071  13.524   1.740
20438W        W85665   3.883  35.071   1.201
20439W        W85666  41.978  30.447   4.561
20440W        W85667  41.743   6.749  13.549
20441W        W85668   3.422  39.785   3.223
20442W        W85669  25.166  36.795   1.799
20443W        W85670  33.983  38.651  11.638
20444W        W85671   2.818  41.268  12.927
20445W        W85672  26.696  39.306   3.619
20446W        W85673  21.136  23.089   3.141
20447W        W85674  13.883   8.883  11.399
20448W        W85675   0.835   2.131  10.639
20449W        W85676   0.967  18.272   1.233
20450W        W85677   3.730  10.862   1.322
20451W        W85678   7.037  40.526  14.012
20452W        W85679   9.690  44.846   2.460
20453W        W85680  35.587  44.875  14.947
20454W        W85681  21.634  38.140  12.063
20455W        W85682  20.684  10.942  14.839
20456W        W85683  29.382   9.586  12.483
20457W        W85684   5.774  25.044   3.859
20458W        W85685   0.699  27.002  13.384
20459W        W85686  18.460  25.423   1.372
20460W        W85687  43.314   3.681  14.782
20461W        W85688   2.613  22.876   2.939
20462W        W85689  42.760   8.553  11.731
20463W        W85690  40.358  15.663  10.687
20464W        W85691  15.214   0.948   0.267
20465W        W85692   3.050  43.390   0.903
20466W        W85693  24.284  10.168  10.174
20467W        W85694  21.085   5.940  13.872
20468W        W85695   8.815  33.900   2.670
20469W        W85696  33.014  22.726  11.005
20470W        W85697  22.130  15.172   0.460
20471W        W85698  29.403   2.842  12.230
20472W        W85699  32.364  43.382   3.787
20473W        W85700  38.860  14.517   2.802
20474W        W85701  38.786   6.290  14.802
20475W        W85702  23.241  38.200   4.008
20476W        W85703   2.970  35.411   0.852
20477W        W85704   6.694  12.325  11.186
20478W        W85705  22.039  36.402   1.560
20479W        W85706  37.906  25.748  14.243
20480W        W85707  35.600  18.084   1.009
20481W        W85708   9.306  19.173   4.490
20482W        W85709  23.923  17.665  12.910
20483W        W85710   4.905  12.293  12.929
20484W        W85711  22.027  37.447  13.358
20485W        W85712   5.849  31.164   4.249
20486W        W85713  26.644  17.251   5.005
20487W        W85714  39.995  17.772  14.272
20488W        W85715  34.290  25.664   1.315
20489W        W85716  22.422  20.624  13.114
20490W        W85717  28.659  35.617  13.277
20491W        W85718  38.638  18.067  13.853
20492W        W85719  27.523   6.807   3.186
20493W        W85720  13.704  30.916  11.111
20494W        W85721   0.963   0.745  11.766
20495W        W85722  25.627  43.562  13.799
20496W        W85723  43.910  21.797  11.166
20497W        W85724  16.739  10.426  10.823
20498W        W85725  20.233  40.187   3.641
20499W        W85726   2.641  28.674  14.797
20500W        W85727  12.261  41.866   3.763
20501W        W85728   4.193  16.236  11.952
20502W        W85729   5.698  43.122   2.579
20503W        W85730   9.777  12.648  14.118
20504W        W85731   6.360  20.738   2.965
20505W        W85732  33.692  28.181   4.004
20506W        W85733  15.771  30.725  12.989
20507W        W85734   2.408  16.612  11.098
20508W        W85735  15.234  26.274   4.628
20509W        W85736   9.755   7.228   3.858
20510W        W85737  25.766  41.469  11.778
20511W        W85738   2.172   2.647  11.145
20512W        W85739  32.180  34.053   3.740
20513W        W85740  40.200   4.681  12.000
20514W        W85741  10.318  22.594  11.486
20515W        W85742  27.244   0.379   5.604
20516W        W85743  19.361  35.115  11.109
20517W        W85744  31.593  31.060   0.403
20518W        W85745  28.203  19.746  14.919
20519W        W85746  10.813   5.360   1.469
20520W        W85747  10.454  13.381  13.440
20521W        W85748  16.275  19.876  10.804
20522W        W85749  42.399  19.183   0.773
20523W        W85750  43.828  33.782   1.510
20524W        W85751  41.821  21.686   4.082
20525W        W85752  17.990   7.756  12.088
20526W        W85753  41.784  40.361  11.241
20527W        W85754  30.086  34.564   4.003
20528W        W85755  20.659   8.398   3.047
20529W        W85756  30.250   0.738  14.879
20530W        W85757  11.355  25.508   0.957
20531W        W85758  30.593  38.631   4.464
20532W        W85759   7.553  30.230  12.989
20533W        W85760  33.765  26.688  10.752
20534W        W85761  38.591  30.887   2.693
20535W        W85762  23.557   8.364   3.602
20536W        W85763   0.358  16.079   1.382
20537W        W85764  41.038   0.337  11.530
20538W        W85765   4.528  31.288  11.184
20539W        W85766  30.009  17.997   4.355
20540W        W85767   5.937  30.687  13.690
20541W        W85768  16.528   3.938  12.437
20542W        W85769  25.347   7.060  13.764
20543W        W85770  13.317  20.578   2.626
20544W        W85771  36.021  14.611   4.400
20545W        W85772   8.242  19.222   4.021
20546W        W85773  24.495  17.331  12.101
20547W        W85774  17.280   2.351   3.904
20548W        W85775  17.552  18.133  14.463
20549W        W85776  34.397  21.728  13.031
20550W        W85777  21.516  41.735   3.168
20551W        W85778  32.891  42.070   0.885
20552W        W85779  34.205   9.805   1.337
20553W        W85780  13.287   7.887   2.301
20554W        W85781   3.015  30.905   3.783
20555W        W85782   7.952   1.203  12.707
20556W        W85783  10.283   7.511   5.022
20557W        W85784  43.277  22.707  12.216
20558W        W85785  26.985  22.895  12.563
20559W        W85786  19.751   5.346  13.907
20560W        W85787   8.718  23.050   0.451
20561W        W85788  39.791  37.438   4.167
20562W        W85789   0.802   5.959  10.023
20563W        W85790  42.874  11.569  11.850
20564W        W85791  37.640  26.910   4.061
20565W        W85792  33.956   9.173  10.533
20566W        W85793  27.674  40.808   3.363
20567W        W85794  10.165  39.238   2.805
20568W        W85795  38.019  36.575  11.262
20569W        W85796  43.789  30.034  12.083
20570W        W85797  26.791   6.907   1.247
20571W        W85798  32.852  38.312   2.433
20572W        W85799   5.218  34.265   1.651
20573W        W85800   8.293  42.519   2.889
20574W        W85801   4.772  30.664   0.861
20575W        W85802  32.876  21.451   1.927
20576W        W85803  12.745  17.059  11.474
20577W        W85804   0.438   6.184   2.782
20578W        W85805  43.970  20.274  13.443
20579W        W85806   7.319   3.879  10.688
20580W        W85807   0.197   4.558  11.638
20581W        W85808   2.190  28.069  10.992
20582W        W85809   8.647  40.008   2.894
20583W        W85810  12.753  10.748   2.403
20584W        W85811  44.931  12.989   3.873
20585W        W85812  44.001  23.904  10.711
20586W        W85813  13.724  24.730   0.493
20587W        W85814  30.854   3.916  12.561
20588W        W85815   7.563  11.145  14.008
20589W        W85816  22.658  15.108  11.780
20590W        W85817  35.654   6.378  12.619
20591W        W85818  35.556  31.443   4.556
20592W        W85819  20.576  19.611  12.495
20593W        W85820  32.594  41.411   4.905
20594W        W85821  24.665  12.228  13.847
20595W        W85822  40.667  12.997   5.064
20596W        W85823  33.633  36.050  14.803
20597W        W85824   8.493  17.120  10.396
20598W        W85825  13.135   1.212   4.488
20599W        W85826  18.879  24.575  14.632
20600W        W85827  25.512   1.891   1.788
20601W        W85828  18.948  12.523  11.196
20602W        W85829  30.439  15.696  12.526
20603W        W85830  32.415   8.458  13.948
20604W        W85831  40.310  33.537  11.094
20605W        W85832   9.702  18.618  13.190
20606W        W85833  35.813   2.533  11.580
20607W        W85834  40.332  37.957   4.876
20608W        W85835  24.815  24.090   2.754
20609W        W85836  43.894  22.569  12.590
20610W        W85837  27.204  31.408  11.485
20611W        W85838  30.151   7.939   1.208
20612W        W85839  43.304  33.536   0.324
20613W        W85840  23.381   5.117  14.185
20614W        W85841  42.783  37.580  12.156
20615W        W85842   6.631  28.973  13.367
20616W        W85843  30.511  23.271   2.458
20617W        W85844  18.698  25.800  14.571
20618W        W85845  40.772  12.743  13.716
20619W        W85846   6.066   2.258   0.257
20620W        W85847   4.877  10.859   0.767
20621W        W85848  21.688  16.851   4.335
20622W        W85849  34.463  40.466  14.771
20623W        W85850   5.542   1.342  11.359
20624W        W85851  37.615   9.294   3.627
20625W        W85852  16.604  13.516   3.725
20626W        W85853  15.817  23.776  12.434
20627W        W85854  39.007  31.566   1.250
20628W        W85855  31.766  29.455  12.271
20629W        W85856  43.401  13.587   0.474
20630W        W85857  15.829  34.667   1.211
20631W        W85858   5.941  30.139   1.336
20632W        W85859  39.269  18.306   2.804
20633W        W85860  44.772  10.656   4.659
20634W        W85861   7.751  39.816   1.647
20635W        W85862   8.234  22.716  14.547
20636W        W85863  30.764  39.611  13.390
20637W        W85864  15.926   2.799   3.285
20638W        W85865  17.335  20.289   3.753
20639W        W85866  33.605  15.828   3.567
20640W        W85867  40.355   1.446   2.214
20641W        W85868  29.455  42.939  12.008
20642W        W85869  11.786  27.393  14.762
20643W        W85870  22.480  15.139  13.982
20644W        W85871  36.983  23.633  14.793
20645W        W85872   3.680  36.301   0.747
20646W        W85873  27.295  25.466   1.700
20647W        W85874  39.399   1.796   4.832
20648W        W85875  36.073  20.544   4.623
20649W        W85876  40.728  32.604  14.632
20650W        W85877  12.750  16.665   3.453
20651W        W85878   4.905   1.749  13.414
20652W        W85879  12.638  18.105  12.919
20653W        W85880   8.198   3.686   4.314
20654W        W85881  21.389   3.820  13.868
20655W        W85882  21.715   2.318   1.937
20656W        W85883  34.783   3.298   2.685
20657W        W85884   4.605  22.950   2.660
20658W        W85885  10.150  18.439   2.342
20659W        W85886  23.943  33.868  11.082
20660W        W85887  15.915  23.744  10.867
20661W        W85888   1.850  42.829   1.980
20662W        W85889   5.577  42.854  13.345
20663W        W85890   4.725   2.688   3.373
20664W        W85891  37.023  28.906   0.715
20665W        W85892  24.772   0.074   3.262
20666W        W85893  25.918  31.965  13.030
20667W        W85894  29.018  35.083   0.881
20668W        W85895   3.866  38.112   0.728
20669W        W85896  20.780  24.270   4.207
20670W        W85897  26.824  26.618  11.155
20671W        W85898   3.282  15.611   3.337
20672W        W85899  24.547  22.781  10.592
20673W        W85900   5.787  32.598  12.798
20674W        W85901  12.173  44.169   1.931
20675W        W85902  43.880  34.111  12.531
20676W        W85903   5.415  23.060   1.040
20677W        W85904  21.754  35.548   2.154
20678W        W85905  12.516   2.720  14.303
20679W        W85906  32.514  38.333   3.651
20680W        W85907   4.364  15.757  10.815
20681W        W85908  23.632   4.381   1.767
20682W        W85909  31.854  24.760  11.202
20683W        W85910  12.984  37.551   3.584
20684W        W85911   9.999  36.054  12.034
20685W        W85912  23.002  34.519  11.672
20686W        W85913  38.949  41.439   4.587
20687W        W85914  32.235  42.827   4.053
20688W        W85915  17.766   2.845  10.777
20689W        W85916  21.192  31.069   2.671
20690W        W85917  24.403  27.116   3.618
20691W        W85918  36.409  32.880  12.097
20692W        W85919  43.952  24.356   0.919
20693W        W85920  21.088   4.667  14.258
20694W        W85921  43.293  26.326  10.667
20695W        W85922  28.468   5.655  12.604
20696W        W85923   9.896   7.702   2.066
20697W        W85924  41.152   4.933  10.308
20698W        W85925  30.003  24.677  10.312
20699W        W85926   3.017  36.099  14.003
20700W        W85927   5.842  28.144  10.964
20701W        W85928   6.640  19.052   3.580
20702W        W85929  33.544  39.594  14.278
20703W        W85930   8.458  14.638   3.336
20704W        W85931  21.073  38.898  11.830
20705W        W85932  11.480  34.739   4.343
20706W        W85933   6.249  27.000   1.764
20707W        W85934  13.945  21.986  11.360
20708W        W85935  13.498  23.551  12.228
20709W        W85936  23.230  42.164   3.692
20710W        W85937  36.890  31.585  11.002
20711W        W85938  19.142  27.926   1.787
20712W        W85939  31.209  32.287  12.554
20713W        W85940  10.483  13.705  12.435
20714W        W85941  35.108   0.653  14.354
20715W        W85942   5.365   0.279   1.284
20716W        W85943  36.130  20.125   0.028
20717W        W85944  35.575   7.211   4.483
20718W        W85945  34.925  41.027   4.792
20719W        W85946  26.550  22.977   5.146
20720W        W85947  17.916  23.052  14.307
20721W        W85948  30.654   5.268   4.150
20722W        W85949  28.233  33.056   2.321
20723W        W85950  10.494  20.981   0.464
20724W        W85951  29.511  34.522  11.632
20725W        W85952  38.966  14.050  13.589
20726W        W85953   4.215  23.505  11.895
20727W        W85954   2.858  28.643   4.365
20728W        W85955  23.556  26.716  12.839
20729W        W85956  18.271   8.560   4.543
20730W        W85957   3.846   1.828   5.778
20731W        W85958   6.938  26.538  11.995
20732W        W85959   7.965  34.915   0.712
20733W        W85960  22.005   2.365  13.471
20734W        W85961  43.120  32.943   0.809
20735W        W85962   0.235  42.345   3.181
20736W        W85963  16.168  12.782   1.899
20737W        W85964  21.029  41.863  10.497
20738W        W85965  26.868   4.755   4.909
20739W        W85966   1.701  13.050  13.349
20740W        W85967  28.936  37.115  14.960
20741W        W85968  32.200  18.521  11.660
20742W        W85969   1.007  30.985  13.366
20743W        W85970  39.999  29.088   4.879
20744W        W85971  20.988   2.833  13.459
20745W        W85972   9.772  27.499  11.611
20746W        W85973  31.608   7.394  12.050
20747W        W85974  44.828  35.385   2.685
20748W        W85975  13.306  12.281   1.879
20749W        W85976   8.530  21.547  14.918
20750W        W85977  42.777  30.096  13.604
20751W        W85978  34.958  37.051   1.145
20752W        W85979  32.730   2.218   3.255
20753W        W85980  16.780  21.225   1.953
20754W        W85981   6.960  41.563   0.598
20755W        W85982  32.625  17.213  11.437
20756W        W85983   0.311   5.412  13.494
20757W        W85984  19.479  30.942   2.388
20758W        W85985  29.582  26.462  12.491
20759W        W85986   5.760   5.304   0.842
20760W        W85987  20.766  17.837   1.889
20761W        W85988  25.963  25.061   3.195
20762W        W85989  17.328  31.141   1.329
20763W        W85990  19.562  32.418  13.789
20764W        W85991  41.029  18.419  13.553
20765W        W85992  32.395  24.252   4.202
20766W        W85993  24.234  13.112  14.001
20767W        W85994   8.886  34.638   2.300
20768W        W85995  28.533   8.136   1.571
20769W        W85996  44.280   6.924  14.815
20770W        W85997  21.211  44.476  14.904
20771W        W85998  14.751  36.313  12.863
20772W        W85999   8.689  13.250  11.192
20773W        W86000   3.774  44.995   2.790
20774W        W86001  38.054  17.351   0.769
20775W        W86002  14.841   2.379  11.258
20776W        W86003  43.422   8.334  10.980
20777W        W86004   9.894  17.065   1.314
20778W        W86005  10.937  32.473  12.452
20779W        W86006  21.588  39.949   4.833
20780W        W86007  33.821  19.914   3.211
20781W        W86008  33.702  33.029  11.874
20782W        W86009  40.102  35.092   4.664
20783W        W86010   4.471   8.761   0.013
20784W        W86011   9.618  33.149  14.852
20785W        W86012   0.610  40.384   4.595
20786W        W86013  41.311  36.018   4.914
20787W        W86014  35.914   0.022   1.250
20788W        W86015  31.521  27.484  14.437
20789W        W86016  36.797   7.900  11.487
20790W        W86017  27.454  44.956  12.949
20791W        W86018  44.309  42.316   1.479
20792W        W86019  28.724  18.986  14.261
20793W        W86020  35.569  39.252   2.800
20794W        W86021  15.123  25.454  11.952
20795W        W86022  22.938  30.405  10.946
20796W        W86023  30.853  26.664   2.144
20797W        W86024  40.192  28.572  14.316
20798W        W86025  41.754   2.268   4.738
20799W        W86026  25.966  29.046  13.903
20800W        W86027   2.888  10.764  14.398
20801W        W86028  17.455   1.494   0.019
20802W        W86029   4.678  30.127   4.068
20803W        W86030  44.299  25.949   3.806
20804W        W86031  38.439  42.949  11.617
20805W        W86032   9.103  32.579  13.654
20806W        W86033  31.813  40.545  14.911
20807W        W86034  24.100  34.157  14.927
20808W        W86035  26.318  41.545   2.106
20809W        W86036  44.030   6.275   3.172
20810W        W86037  22.204  12.842  14.372
20811W        W86038  16.720  28.338  14.064
20812W        W86039  19.836  27.119   0.176
20813W        W86040  14.355   4.248   0.370
20814W        W86041  10.116   1.351   1.743
20815W        W86042  23.146  11.427  14.081
20816W        W86043  14.126  22.083  13.492
20817W        W86044  30.154  28.461  13.894
20818W        W86045  19.050  24.650  11.846
20819W        W86046  13.166   5.966   3.807
20820W        W86047  16.110  41.260  12.075
20821W        W86048  14.423  23.754   4.011
20822W        W86049  33.498   3.469   1.888
20823W        W86050  16.548  39.524   2.286
20824W        W86051   8.285   2.177   4.575
20825W        W86052  33.113   6.210  14.830
20826W        W86053  11.910  21.214   5.170
20827W        W86054  32.379  35.815  12.991
20828W        W86055  24.501   0.494   3.404
20829W        W86056  14.843   3.900  10.765
20830W        W86057  44.397  18.675   4.455
20831W        W86058  34.361  36.380   2.213
20832W        W86059  10.775  42.574   4.300
20833W        W86060  25.582  15.416  13.450
20834W        W86061   3.771   3.411   4.521
20835W        W86062   2.147  18.759   2.495
20836W        W86063   1.075  25.930  14.443
20837W        W86064  36.158   0.034  14.259
20838W        W86065  37.789  41.916  13.248
20839W        W86066  39.014  33.891   2.131
20840W        W86067  26.989  32.102   4.527
20841W        W86068  35.424  29.953  12.591
20842W        W86069  20.975  18.926   0.585
20843W        W86070   2.379  44.755  13.361
20844W        W86071  30.589  44.989   1.699
20845W        W86072  30.460  20.678   4.211
20846W        W86073  34.651  29.620  13.058
20847W        W86074  17.294  20.879  10.696
20848W        W86075  34.861   9.385  10.977
20849W        W86076  32.813   2.100  11.916
20850W        W86077  24.731  26.546  11.156
20851W        W86078   3.774  22.029   3.262
20852W        W86079  34.513  19.538   3.507
20853W        W86080  23.135  32.419   0.443
20854W        W86081  22.147  27.388  12.541
20855W        W86082   9.048  12.464  12.023
20856W        W86083  39.300   1.347   0.443
20857W        W86084  27.647  20.275  11.116
20858W        W86085  15.947  19.760   1.689
20859W        W86086  35.091  31.393   1.679
20860W        W86087  19.991  32.245  14.002
20861W        W86088  17.193   7.689   2.354
20862W        W86089   2.852  20.184   3.718
20863W        W86090   9.896  43.715   0.843
20864W        W86091  22.152  35.387   0.867
20865W        W86092  17.734  28.610   3.406
20866W        W86093  20.172  36.337   3.156
20867W        W86094  34.954  22.355  14.882
20868W        W86095  10.408  26.389   0.479
20869W        W86096   8.159   2.794   1.462
20870W        W86097  25.370  40.109  11.851
20871W        W86098  17.494  15.780  11.199
20872W        W86099  33.852   4.345   2.284
20873W        W86100  28.737   6.160  13.951
20874W        W86101  18.757  43.428  13.325
20875W        W86102   1.263  29.500  12.086
20876W        W86103  38.572  39.529  12.675
20877W        W86104  10.160  41.338   4.856
20878W        W86105  13.628   9.327  13.961
20879W        W86106  42.822  22.030  14.938
20880W        W86107  16.825  44.973   4.484
20881W        W86108  42.897  24.321   1.432
20882W        W86109   0.313   9.094   2.842
20883W        W86110   0.712  36.939  11.045
20884W        W86111   5.206  44.981   3.712
20885W        W86112  10.214  10.101   2.624
20886W        W86113   9.736  35.965   1.391
20887W        W86114  13.666  22.208   4.611
20888W        W86115  43.335  27.359  10.577
20889W        W86116  29.151   9.822  13.763
20890W        W86117  15.737  31.939  11.070
20891W        W86118  12.792  37.333   0.314
20892W        W86119  18.745  24.771   4.147
20893W        W86120   1.492   4.625  11.696
20894W        W86121  10.628   2.286   1.770
20895W        W86122  32.644   6.787   4.785
20896W        W86123  17.135  31.627  11.773
20897W        W86124   3.266  20.031  10.614
20898W        W86125  28.346  22.643  11.626
20899W        W86126  12.345  26.578  14.490
20900W        W86127   3.577  22.389   2.038
20901W        W86128  42.641  33.689  12.134
20902W        W86129  19.644  37.242  12.905
20903W        W86130  33.528  21.261  13.000
20904W        W86131  34.081  41.389   2.909
20905W        W86132  39.749  31.633   1.778
20906W        W86133  27.599  21.695   1.465
20907W        W86134   2.381  24.642  10.686
20908W        W86135  16.116  44.335  13.148
20909W        W86136  27.622  13.088   3.770
20910W        W86137  13.026   1.375  12.105
20911W        W86138  43.332  40.524  13.179
20912W        W86139  16.750  40.561  13.882
20913W        W86140  10.949   7.251  13.043
20914W        W86141  16.879  37.430   0.388
20915W        W86142  32.313  44.548   0.878
20916W        W86143  44.002  21.186   2.803
20917W        W86144  12.169  27.617   0.057
20918W        W86145  44.458  32.533   3.795
20919W        W86146  38.491   9.498  10.540
20920W        W86147  39.920  27.493   4.015
20921W        W86148  16.585  16.928   2.290
20922W        W86149  16.713  28.487   3.510
20923W        W86150  42.856  17.558   0.871
20924W        W86151  22.487   6.428  12.002
20925W        W86152  37.864  34.433  11.005
20926W        W86153  21.295   1.751  11.640
20927W        W86154  25.476  32.314   3.719
20928W        W86155  35.551  27.133  12.458
20929W        W86156  42.789   5.800   3.603
20930W        W86157  23.728  44.342  14.540
20931W        W86158  16.874  39.000   4.472
20932W        W86159   1.984  44.853  12.081
20933W        W86160  18.588   9.587   4.226
20934W        W86161  13.698  29.469   1.596
20935W        W86162  14.749  25.731  12.145
20936W        W86163  35.265  27.881  10.741
20937W        W86164  44.355  24.451  11.876
20938W        W86165  22.481  37.752   3.757
20939W        W86166   3.975  27.909   9.972
20940W        W86167  43.737  41.906  13.154
20941W        W86168  39.909  25.687   0.725
20942W        W86169  23.575   6.983  13.882
20943W        W86170  29.026  26.611  14.282
20944W        W86171  13.603  19.357  13.436
20945W        W86172   7.897  10.309  14.256
20946W        W86173  22.756  23.850   0.578
20947W        W86174   9.583  39.983  10.792
20948W        W86175  18.470  14.784  14.272
20949W        W86176  14.762  22.322  11.629
20950W        W86177  28.874  40.402  11.118
20951W        W86178   7.044  25.129   1.053
20952W        W86179  36.318  12.666  11.222
20953W        W86180  34.441  19.781  12.056
20954W        W86181  30.526  17.784  10.492
20955W        W86182  30.407  15.367  12.075
20956W        W86183  11.238  39.998  12.032
20957W        W86184  43.581  32.044  12.094
20958W        W86185  20.836  18.578  11.988
20959W        W86186  43.741   1.409  14.842
20960W        W86187  22.011   0.667   0.378
20961W        W86188  34.954  10.818   3.810
20962W        W86189  17.058  20.279  13.461
20963W        W86190  37.971   9.460  10.182
20964W        W86191  31.070   4.462   3.278
20965W        W86192   8.830  44.459  13.090
20966W        W86193  33.493  24.893  10.698
20967W        W86194  39.654  11.243  11.221
20968W        W86195  17.688  36.296  13.382
20969W        W86196   3.004   4.190  13.001
20970W        W86197   4.410  22.227   0.320
20971W        W86198  44.746   7.903  11.491
20972W        W86199  29.257   2.467  13.908
20973W        W86200   8.708   7.033  11.550
20974W        W86201  40.045  28.325   2.751
20975W        W86202   7.139  14.484   0.892
20976W        W86203  38.497   9.748  13.827
20977W        W86204  43.345  20.028   1.893
20978W        W86205  11.468  33.922   0.473
20979W        W86206   0.284  24.050   4.946
20980W        W86207  39.428   3.742  11.031
20981W        W86208  11.200   7.862  11.398
20982W        W86209  42.414   5.814  12.727
20983W        W86210  37.829  36.501  14.017
20984W        W86211  12.903  36.367  12.491
20985W        W86212  13.911   9.741   0.260
20986W        W86213  22.015   9.397  14.038
20987W        W86214   2.462  37.772   3.175
20988W        W86215   7.481  37.857   3.302
20989W        W86216  38.288   6.983  10.547
20990W        W86217  14.515  14.221  13.122
20991W        W86218  20.461  42.421  14.419
20992W        W86219  12.504  25.605  12.087
20993W        W86220  33.554  29.637   2.155
20994W        W86221  30.925   5.261  10.601
20995W        W86222  32.546  38.064   3.209
20996W        W86223   5.947  29.533  12.625
20997W        W86224   6.592  19.775  13.075
20998W        W86225  20.073  37.053   1.103
20999W        W86226  25.678  33.203  13.623
21000W        W86227  29.626  22.704   2.341
21001W        W86228  37.636  13.880   4.627
21002W        W86229  19.287   9.328  11.202
21003W        W86230   4.718  27.396   3.641
21004W        W86231   3.405  10.430  13.981
21005W        W86232   1.216  26.961   3.100
21006W        W86233  35.061  36.232   5.190
21007W        W86234  44.390  15.945   4.587
21008W        W86235  21.537  42.009  13.873
21009W        W86236   4.907  26.784   2.276
21010W        W86237  38.920  15.821   0.990
21011W        W86238  32.813   2.377   1.411
21012W        W86239   3.863  15.914  13.843
21013W        W86240  23.822  17.416  14.471
21014W        W86241   4.571  36.125   4.260
21015W        W86242  21.909   2.236  13.968
21016W        W86243   4.274  20.045  12.618
21017W        W86244   7.227   7.825  10.730
21018W        W86245   9.228   0.510  13.368
21019W        W86246  10.696  38.073  13.417
21020W        W86247  39.701  22.254  14.371
21021W        W86248  11.367  26.648  12.988
21022W        W86249  39.837  40.763  11.174
21023W        W86250  36.920  19.980   4.148
21024W        W86251   2.876   1.716   3.574
21025W        W86252  39.787  18.645  14.826
21026W        W86253  39.633   8.683  14.304
21027W        W86254  13.633  11.797   2.665
21028W        W86255  14.965   8.548  14.951
21029W        W86256  34.262  23.215  13.962
21030W        W86257  18.557  10.082  14.255
21031W        W86258   5.838  30.933  12.032
21032W        W86259  35.937  22.254  10.701
21033W        W86260  44.223   7.888   0.856
21034W        W86261  39.029   2.868   0.350
21035W        W86262  31.266  18.229  13.311
21036W        W86263   7.699  31.039   3.268
21037W        W86264  14.485  12.541  11.246
21038W        W86265  38.025  32.020   2.508
21039W        W86266  19.710  20.584   1.644
21040W        W86267   3.815  15.042  12.866
21041W        W86268  42.794   4.864   3.782
21042W        W86269  30.902  32.972  14.383
21043W        W86270  32.189  42.290  11.621
21044W        W86271  28.435  36.041  14.498
21045W        W86272  43.460  28.434  12.443
21046W        W86273  41.825   3.749  11.643
21047W        W86274  29.017   5.804  10.910
21048W        W86275  13.320  28.461   3.296
21049W        W86276  41.059  12.903  11.534
21050W        W86277  44.927  14.786   3.278
21051W        W86278   3.254  20.326   0.823
21052W        W86279  10.063   9.698   3.598
21053W        W86280  20.706  17.489   1.043
21054W        W86281  38.117  22.496   3.786
21055W        W86282   8.335  33.091  14.405
21056W        W86283   9.152  42.081   0.861
21057W        W86284  29.054   1.314   0.217
21058W        W86285  26.127  36.289   0.335
21059W        W86286  23.632  42.278   3.339
21060W        W86287  32.188  15.293   3.733
21061W        W86288  27.301  12.047   9.759
21062W        W86289  14.172  43.326   3.684
21063W        W86290  11.397   2.773  12.434
21064W        W86291  23.719   1.404   1.817
21065W        W86292   7.028  36.319  12.607
21066W        W86293  14.845  13.775   4.493
21067W        W86294  42.086  41.830   3.120
21068W        W86295  27.864  18.106   5.037
21069W        W86296   9.023   7.369  10.377
21070W        W86297  21.000  34.963   0.135
21071W        W86298   7.163  39.379   4.068
21072W        W86299   4.032   8.095   3.864
21073W        W86300  21.716  40.797   1.213
21074W        W86301   8.250  42.100   1.341
21075W        W86302   8.163  26.194   2.701
21076W        W86303  33.386  25.192  14.477
21077W        W86304  30.206  30.396   3.123
21078W        W86305  31.305  26.452   1.152
21079W        W86306  43.255   8.943  14.362
21080W        W86307   9.907  31.916  10.651
21081W        W86308   8.786  21.826   3.754
21082W        W86309  37.841  34.482   2.417
21083W        W86310   6.478  14.538   3.226
21084W        W86311  31.906  22.267   4.053
21085W        W86312  37.966  21.162  13.034
21086W        W86313   8.852  25.732   1.522
21087W        W86314  31.375  32.983   1.446
21088W        W86315   7.302  15.836   1.852
21089W        W86316  28.584  39.814   3.864
21090W        W86317  17.590   7.849  13.137
21091W        W86318  22.752  29.112  14.359
21092W        W86319   3.962  23.108  11.720
21093W        W86320  24.731   3.320   0.780
21094W        W86321  32.995  15.774   2.923
21095W        W86322   7.987  25.924  11.190
21096W        W86323  22.158  24.925  14.588
21097W        W86324  18.777  18.257  13.064
21098W        W86325   2.571  38.587   1.384
21099W        W86326  27.286  29.198  14.522
21100W        W86327  40.099  32.496   2.940
21101W        W86328  12.086  44.800   2.570
21102W        W86329  44.465  20.285  13.245
21103W        W86330  39.821  35.316   2.239
21104W        W86331   5.888   4.934   1.233
21105W        W86332   3.884  19.077  14.336
21106W        W86333   7.375  12.548  13.785
21107W        W86334  39.992  18.303   0.554
21108W        W86335  25.045   3.471   0.367
21109W        W86336  31.184  25.052  14.509
21110W        W86337  14.472  23.742   0.939
21111W        W86338   1.672  30.595  11.225
21112W        W86339   6.335  42.709   9.778
21113W        W86340  29.124  23.137  10.514
21114W        W86341  29.572  39.762   1.205
21115W        W86342   4.136   2.334  11.134
21116W        W86343   4.786  39.387  10.627
21117W        W86344  22.454  30.519   3.035
21118W        W86345  19.330  15.318   4.907
21119W        W86346  17.897  15.199  11.956
21120W        W86347  34.497  42.887  13.970
21121W        W86348  12.694  35.086  11.674
21122W        W86349  27.658  19.462   2.406
21123W        W86350  11.547   2.281  11.208
21124W        W86351  22.722   1.887   0.390
21125W        W86352  44.531  32.384  11.167
21126W        W86353  42.867  34.598   4.552
21127W        W86354  24.617   6.277   0.061
21128W        W86355  33.445  11.681   1.201
21129W        W86356  19.599  26.594   3.748
21130W        W86357  17.610   0.891   0.244
21131W        W86358  21.508  29.713   0.231
21132W        W86359  35.327  39.970  13.365
21133W        W86360   2.428  36.889  13.657
21134W        W86361  16.619  42.692   4.604
21135W        W86362  28.551   6.746   0.615
21136W        W86363  27.558  30.615   3.252
21137W        W86364  16.220  29.722   2.355
21138W        W86365  27.347  14.088   1.200
21139W        W86366   9.427  24.657   3.344
21140W        W86367  33.928   4.729  14.751
21141W        W86368   7.334  28.426   0.418
21142W        W86369  22.650   1.089  12.647
21143W        W86370  23.368  42.078  13.181
21144W        W86371  28.957  43.312   0.692
21145W        W86372  28.150   4.549   1.257
21146W        W86373   4.972   3.555  13.960
21147W        W86374   4.195  19.723  12.013
21148W        W86375   1.015  14.416   4.806
21149W        W86376   2.955  13.255  11.507
21150W        W86377  15.798  11.245   2.662
21151W        W86378   0.506  30.636   3.547
21152W        W86379   5.196  26.551  14.941
21153W        W86380  17.642  30.062  12.114
21154W        W86381   7.309  17.557  11.664
21155W        W86382  22.453   5.074   3.231
21156W        W86383   0.588   8.482   2.334
21157W        W86384   3.879  37.785   1.977
21158W        W86385  40.138  37.530  11.808
21159W        W86386   3.275  41.455   3.384
21160W        W86387  40.791   2.422   2.485
21161W        W86388  25.440  11.278   0.790
21162W        W86389   9.797  35.086   2.252
21163W        W86390  33.505  35.430  14.244
21164W        W86391  30.950  33.011   4.431
21165W        W86392  16.735  27.004  12.887
21166W        W86393  39.854  35.986  14.092
21167W        W86394  27.557  28.735  13.762
21168W        W86395  31.103  42.971  14.385
21169W        W86396  13.720  34.238   4.557
21170W        W86397  29.434  39.084  13.406
21171W        W86398  16.582   7.839  13.536
21172W        W86399  11.123  10.834   3.242
21173W        W86400  31.015   8.347  14.954
21174W        W86401  43.580   8.205  14.818
21175W        W86402  11.794  19.782   2.302
21176W        W86403   3.027  14.272   3.207
21177W        W86404  27.564   0.529  10.739
21178W        W86405  35.451  29.670  14.797
21179W        W86406  12.282  14.525   5.447
21180W        W86407  25.959  17.617   4.202
21181W        W86408  22.007  25.565   2.488
21182W        W86409  14.196   8.907   1.422
21183W        W86410  16.645  37.004  14.506
21184W        W86411   9.676   0.439  12.053
21185W        W86412   0.380  22.810  10.221
21186W        W86413   9.547  36.375  13.933
21187W        W86414  20.581  16.031   3.703
21188W        W86415  26.906  12.200  13.617
21189W        W86416   4.909  34.893   2.719
21190W        W86417  35.352   7.605   2.764
21191W        W86418  27.999  26.195   3.985
21192W        W86419  36.972  18.115  10.446
21193W        W86420  16.580  41.738  10.772
21194W        W86421   0.513  23.622   5.664
21195W        W86422  11.214  39.838   4.464
21196W        W86423  14.021  27.925  12.046
21197W        W86424  17.124   3.878  13.285
21198W        W86425  29.183  29.499  13.331
21199W        W86426  14.500  13.881  14.831
21200W        W86427  32.619   3.740  13.785
21201W        W86428  12.640  14.260   0.826
21202W        W86429  32.058  11.266   4.011
21203W        W86430  28.297  41.953   3.166
21204W        W86431  42.422   7.292   2.861
21205W        W86432  41.258  10.762  13.293
21206W        W86433  18.574  24.978   1.621
21207W        W86434  13.590  24.888   0.950
21208W        W86435  39.909  36.256   1.879
21209W        W86436   5.388  39.609  11.738
21210W        W86437  31.564   2.856   4.823
21211W        W86438  33.991   1.756   4.818
21212W        W86439  11.852   4.917   3.067
21213W        W86440  33.737  36.690  12.543
21214W        W86441  35.975  12.955  14.160
21215W        W86442  13.646  24.060  11.097
21216W        W86443  25.022  18.368   5.184
21217W        W86444  14.638  16.128   2.589
21218W        W86445  44.034  15.262   0.425
21219W        W86446   9.756  18.936  10.687
21220W        W86447   1.697   1.853   1.490
21221W        W86448  14.811  33.521  11.460
21222W        W86449  27.652  43.328   1.639
21223W        W86450  16.876  41.920  14.850
21224W        W86451  11.591  23.506  10.799
21225W        W86452   9.434  35.363   1.987
21226W        W86453   6.621   9.492   0.869
21227W        W86454  27.022  16.596   1.918
21228W        W86455  28.767  33.572   3.902
21229W        W86456  13.705  41.821  14.015
21230W        W86457  26.923  38.321  11.330
21231W        W86458   8.750  22.056  13.004
21232W        W86459  18.259  24.414  12.527
21233W        W86460  29.734  40.981  14.989
21234W        W86461  38.140   8.418  11.181
21235W        W86462  14.594   3.061  13.838
21236W        W86463   9.701   4.555   3.895
21237W        W86464  12.327  29.058   2.700
21238W        W86465  31.656   2.651   2.387
21239W        W86466  30.324  14.170  12.635
21240W        W86467  31.335  43.494  12.989
21241W        W86468   1.336  30.894   3.362
21242W        W86469  42.004  35.523  12.457
21243W        W86470  31.701  23.700   5.434
21244W        W86471   2.322  35.989   0.621
21245W        W86472  30.701  44.186  14.014
21246W        W86473  32.091  36.034   0.368
21247W        W86474  15.192  44.492   3.917
21248W        W86475   2.430  14.180   4.513
21249W        W86476  31.493  24.542   2.842
21250W        W86477   8.349  13.805   2.790
21251W        W86478  10.253  33.679  12.064
21252W        W86479  39.474  14.837   1.181
21253W        W86480   5.304  14.242  11.534
21254W        W86481  23.603  27.166  13.159
21255W        W86482   0.476  24.179   3.641
21256W        W86483  43.863  42.080   3.768
21257W        W86484  31.374  19.741  11.605
21258W        W86485  19.115  11.688   2.743
21259W        W86486  39.038  19.062   0.231
21260W        W86487  44.083  22.491   1.472
21261W        W86488  11.419   2.204  13.658
21262W        W86489  22.530  13.383  12.111
21263W        W86490  38.566  33.031   4.438
21264W        W86491  15.702  41.243   0.156
21265W        W86492  26.119  28.022   1.786
21266W        W86493   3.834  34.501  14.487
21267W        W86494  15.994  23.420  12.898
21268W        W86495  41.349  13.559   2.855
21269W        W86496  36.474  44.384   1.242
21270W        W86497   9.080  12.867   4.032
21271W        W86498   4.429  20.199  11.683
21272W        W86499  35.782  22.028  14.906
21273W        W86500  35.345  12.863  12.531
21274W        W86501  20.679   0.923  10.697
21275W        W86502  41.876  25.846   0.418
21276W        W86503  14.751  44.465   1.762
21277W        W86504  18.934  43.695   0.016
21278W        W86505  25.168  30.086   4.331
21279W        W86506   0.839   2.963   0.722
21280W        W86507  29.360  35.276   3.156
21281W        W86508  16.699  16.177   1.729
21282W        W86509  26.829  20.723   2.899
21283W        W86510  15.649  28.089   0.662
21284W        W86511   3.663  39.808   3.668
21285W        W86512  26.731   0.975   1.821
21286W        W86513  11.861  27.209   3.602
21287W        W86514  30.211  36.067   0.820
21288W        W86515  13.236  13.851  14.354
21289W        W86516  24.074  16.552   4.928
21290W        W86517   1.256  10.240  10.701
21291W        W86518  29.539  18.275  14.780
21292W        W86519  27.382  38.234  11.567
21293W        W86520   5.351  20.579   1.286
21294W        W86521  36.409   7.560  12.844
21295W        W86522  25.567  12.231  12.955
21296W        W86523   2.710  44.513  13.754
21297W        W86524  12.338  35.155  10.781
21298W        W86525  11.107  25.492  12.563
21299W        W86526  13.219  14.937  14.253
21300W        W86527   2.635  26.281   1.456
21301W        W86528  31.496  37.968   2.654
21302W        W86529  24.757  10.016   4.676
21303W        W86530  16.017  17.787   4.195
21304W        W86531  10.620  44.062   1.462
21305W        W86532  23.068  36.926   4.157
21306W        W86533  20.586  31.636   3.357
21307W        W86534  39.841  33.488  12.020
21308W        W86535   7.126  38.825   1.388
21309W        W86536  40.243  35.979  12.664
21310W        W86537  39.579  18.391  12.302
21311W        W86538   6.664  18.854   4.404
21312W        W86539  21.476  41.066   4.057
21313W        W86540  28.216   0.324   2.236
21314W        W86541  17.778  17.230  11.956
21315W        W86542  19.897  27.028   0.690
21316W        W86543  15.994   0.702  13.631
21317W        W86544  37.230  19.925   4.565
21318W        W86545  30.333   5.344   4.581
21319W        W86546  40.557  42.885  12.988
21320W        W86547  32.798  40.404   1.885
21321W        W86548  26.615  13.648   2.947
21322W        W86549  27.574  31.550  13.064
21323W        W86550  11.030   8.307   1.456
21324W        W86551  38.100  27.131   3.806
21325W        W86552  32.461  13.836  11.162
21326W        W86553  18.772  41.024  11.037
21327W        W86554  31.923  20.682   4.507
21328W        W86555  28.482   1.913   3.508
21329W        W86556   9.596  29.462   0.734
21330W        W86557  32.654   3.065   4.160
21331W        W86558   9.820  23.761   1.432
21332W        W86559   5.968  41.312  10.635
21333W        W86560  16.216   6.637  12.113
21334W        W86561  36.812  12.173   3.085
21335W        W86562  28.711  17.397   0.221
21336W        W86563  22.287  22.057   4.123
21337W        W86564  31.028  41.695  11.632
21338W        W86565  43.080   7.144   4.484
21339W        W86566  19.604  20.708  14.426
21340W        W86567  13.563  44.474   3.789
21341W        W86568   9.074  13.810   4.913
21342W        W86569  16.346   2.841   0.248
21343W        W86570  24.296  43.090   1.712
21344W        W86571   3.004  43.000  14.393
21345W        W86572  22.241  31.388   4.608
21346W        W86573  18.716  20.523  12.367
21347W        W86574   6.296  32.936  11.925
21348W        W86575  16.630  20.067  11.617
21349W        W86576   4.764  15.619   4.019
21350W        W86577  14.881  35.522  12.324
21351W        W86578   3.705  43.793   2.326
21352W        W86579  30.476  18.193   4.078
21353W        W86580   4.723  24.584   3.503
21354W        W86581  19.982  14.616  12.029
21355W        W86582  40.694   8.733  12.032
21356W        W86583  11.794  27.949  12.585
21357W        W86584  21.775  31.510   2.883
21358W        W86585  26.115  33.148  11.080
21359W        W86586  16.156   1.801  12.053
21360W        W86587  25.912  43.016   4.222
21361W        W86588   8.116   3.184  11.622
21362W        W86589   3.818  21.908   1.943
21363W        W86590  36.878  40.536  11.079
21364W        W86591  39.350  36.841  13.303
21365W        W86592  29.875  19.748   4.080
21366W        W86593  41.403  27.255  12.848
21367W        W86594  44.848   1.480  12.842
21368W        W86595  28.711   4.829   3.693
21369W        W86596   4.306  15.522  14.003
21370W        W86597  35.434  15.620  14.417
21371W        W86598  11.047  17.545  10.745
21372W        W86599  38.821  12.108   4.172
21373W        W86600  40.584   4.288  14.433
21374W        W86601   1.388  31.165  11.128
21375W        W86602   3.284  14.816   1.975
21376W        W86603  29.926  19.862  14.582
21377W        W86604  43.746  38.572  14.446
21378W        W86605  16.020  39.008  10.018
21379W        W86606  17.497  41.997   1.831
21380W        W86607  31.528  20.075  14.505
21381W        W86608   7.895  12.926   2.852
21382W        W86609  30.884   6.433   0.943
21383W        W86610  16.333  40.802  12.094
21384W        W86611  32.923   1.389   1.149
21385W        W86612  23.750   6.074  13.428
21386W        W86613   1.025  29.674   4.119
21387W        W86614  38.204  15.849   3.349
21388W        W86615   5.445  29.991  10.727
21389W        W86616  13.237  19.675   2.658
21390W        W86617   5.134  26.097  10.608
21391W        W86618  11.187  36.472  14.056
21392W        W86619  22.709   9.769   0.718
21393W        W86620  35.102  33.941   1.850
21394W        W86621  16.003   6.727   0.914
21395W        W86622  32.471   2.817  13.352
21396W        W86623  20.819   6.702  14.706
21397W        W86624  19.470   0.371  10.781
21398W        W86625  24.684  34.458   0.703
21399W        W86626  33.448  42.551  12.517
21400W        W86627  38.758  23.136   4.282
21401W        W86628  10.145   1.448   3.151
21402W        W86629  32.196  24.123  14.272
21403W        W86630  38.787  24.268   0.382
21404W        W86631  28.891   2.448   4.037
21405W        W86632  32.336  17.526  13.161
21406W        W86633  43.552  23.734   0.382
21407W        W86634  31.051  35.122  10.745
21408W        W86635  24.674  38.307   0.945
21409W        W86636  38.716  21.118   1.355
21410W        W86637   9.813   4.076  10.791
21411W        W86638  32.167  37.915  12.583
21412W        W86639  23.761  33.963   0.886
21413W        W86640  41.680  27.059  13.728
21414W        W86641  41.933   5.747  10.685
21415W        W86642  14.452  38.631  10.773
21416W        W86643  21.921  16.821  11.535
21417W        W86644  26.987   8.421  14.419
21418W        W86645  38.520  43.785   0.788
21419W        W86646  17.066  15.644   1.232
21420W        W86647  34.940  14.061   5.227
21421W        W86648   0.474  17.717  12.649
21422W        W86649  18.347  43.444  12.521
21423W        W86650  15.649  30.180  10.801
21424W        W86651   1.431  31.144   4.859
21425W        W86652  18.567  31.539   2.747
21426W        W86653  35.501   1.835  14.924
21427W        W86654  10.568   0.369  13.026
21428W        W86655  14.422  43.809  11.119
21429W        W86656   8.677  39.695   0.581
21430W        W86657  33.878  22.925   4.950
21431W        W86658  11.635  23.702   4.387
21432W        W86659   8.239   8.169  13.875
21433W        W86660  22.947  18.880   4.003
21434W        W86661  29.250   9.175  11.611
21435W        W86662  41.278  26.658  12.130
21436W        W86663  40.842  39.979  13.767
21437W        W86664   2.734  43.421  12.129
21438W        W86665  30.635  18.322   3.576
21439W        W86666  14.298  23.603   0.473
21440W        W86667  40.275  19.377  12.424
21441W        W86668  36.454  35.538  13.686
21442W        W86669   2.125   2.798   4.933
21443W        W86670  30.826  20.272  13.121
21444W        W86671   3.507  18.630   4.064
21445W        W86672  25.170  15.814   4.502
21446W        W86673  44.947  34.640  14.541
21447W        W86674  35.496  41.720  12.591
21448W        W86675  13.817   4.160  14.496
21449W        W86676   3.414   5.921  12.085
21450W        W86677  15.685  15.079   2.392
21451W        W86678  29.546  12.212  11.202
21452W        W86679  19.693  43.779   1.884
21453W        W86680  11.194  16.614   3.580
21454W        W86681  23.539  29.558  14.696
21455W        W86682  20.016  17.484  13.080
21456W        W86683  35.528  44.487   4.636
21457W        W86684  23.019  11.030  14.935
21458W        W86685  18.864   1.170   3.557
21459W        W86686  24.548  20.394  12.044
21460W        W86687  22.379   9.423   4.627
21461W        W86688  20.716  38.253  14.922
21462W        W86689  23.215  43.375  10.719
21463W        W86690  37.150  23.279  13.483
21464W        W86691  43.065  33.396   1.261
21465W        W86692  28.809  34.996  10.294
21466W        W86693  41.095  13.796  11.905
21467W        W86694  27.925  40.074  13.883
21468W        W86695  31.577   6.740  10.825
21469W        W86696  12.418   9.415   3.743
21470W        W86697  36.558  15.746   0.764
21471W        W86698  41.185  15.436   1.710
21472W        W86699  15.349  32.948   1.762
21473W        W86700  40.065  13.092   3.657
21474W        W86701   1.565  30.556  14.524
21475W        W86702   7.628  30.579  14.742
21476W        W86703  13.925  39.460  11.697
21477W        W86704  13.483  18.083  14.389
21478W        W86705  38.090  44.873  12.333
21479W        W86706  44.215  36.803  13.077
21480W        W86707  14.577  15.873  12.521
21481W        W86708   9.956  20.886  13.833
21482W        W86709  23.771  33.380   5.161
21483W        W86710   5.233  11.808   4.794
21484W        W86711  27.520  26.581  12.502
21485W        W86712  10.776  26.922   0.612
21486W        W86713   2.989  17.277  10.506
21487W        W86714  19.339  36.470   0.855
21488W        W86715   8.391   6.298   3.223
21489W        W86716  43.768   0.380   4.278
21490W        W86717   1.722   7.306  10.695
21491W        W86718  36.145   6.279   0.070
21492W        W86719  26.229  13.365  14.027
21493W        W86720  38.305  26.545   2.994
21494W        W86721  39.891  44.532   2.396
21495W        W86722   5.126  44.993   2.892
21496W        W86723   5.937  22.508  13.998
21497W        W86724   4.419   1.910  10.968
21498W        W86725  41.418   6.842  11.879
21499W        W86726  41.805  25.343   0.234
21500W        W86727  36.967  29.890  13.488
21501W        W86728   1.981  23.878  11.182
21502W        W86729  22.089  29.965   3.108
21503W        W86730  11.463  12.834  12.540
21504W        W86731  16.538  16.178   4.000
21505W        W86732  34.324   0.944  13.101
21506W        W86733  39.397   8.105  13.795
21507W        W86734  32.162  15.292   1.925
21508W        W86735  41.297   8.938   4.201
21509W        W86736  24.141  20.965   0.461
21510W        W86737  44.091  18.144   4.960
21511W        W86738  41.403  23.315   4.439
21512W        W86739  18.974   5.845  12.951
21513W        W86740  14.115   3.438   4.619
21514W        W86741  13.777  28.015   3.897
21515W        W86742   3.063  16.103  11.153
21516W        W86743  15.282   3.297   3.200
21517W        W86744  10.962   6.892   4.096
21518W        W86745  42.760  22.669   0.938
21519W        W86746  31.650   2.803   4.307
21520W        W86747  23.201  19.636  14.487
21521W        W86748  27.585   6.309   3.307
21522W        W86749  21.815  31.316   4.040
21523W        W86750  29.146  18.174   3.300
21524W        W86751  44.238  26.965  13.568
21525W        W86752   4.741  42.016  11.611
21526W        W86753  12.346  30.038   3.692
21527W        W86754  26.454  44.764   2.362
21528W        W86755  15.036  44.554  12.115
21529W        W86756  11.726  39.912   4.437
21530W        W86757  17.687  10.271  13.787
21531W        W86758  37.338  20.239  11.179
21532W        W86759  41.266  10.825  11.620
21533W        W86760   6.969  38.689  14.312
21534W        W86761  20.202  13.302   2.700
21535W        W86762   3.227  39.018   1.802
21536W        W86763  23.454  29.621   1.767
21537W        W86764  40.538  37.911   1.834
21538W        W86765   0.019  43.810  13.473
21539W        W86766   7.855  19.391   2.889
21540W        W86767  15.301  20.790  13.492
21541W        W86768  17.571  26.731   2.144
21542W        W86769   3.600   8.643   4.220
21543W        W86770   0.509   9.239   1.252
21544W        W86771   3.329   2.480   3.339
21545W        W86772   0.073   9.423  13.912
21546W        W86773  41.336  10.111  14.104
21547W        W86774  29.818   7.329   3.856
21548W        W86775  24.646  40.425   1.781
21549W        W86776  41.568  25.095  12.973
21550W        W86777  32.020   7.642   2.669
21551W        W86778   6.831  30.351  13.516
21552W        W86779  26.483   2.476   0.165
21553W        W86780  13.762  20.042   0.520
21554W        W86781  36.873  16.037   3.219
21555W        W86782  33.838  37.954  11.138
21556W        W86783  41.945  37.180  14.913
21557W        W86784  14.800  44.723  13.409
21558W        W86785  33.405  17.733   4.081
21559W        W86786  28.763  29.698  10.991
21560W        W86787  23.637  11.072   1.905
21561W        W86788   1.091  21.269   3.998
21562W        W86789  15.667  29.664  10.775
21563W        W86790   6.839  39.579   3.379
21564W        W86791  42.302  37.540  10.910
21565W        W86792   7.622   8.156   1.292
21566W        W86793  31.158  35.269   4.047
21567W        W86794  29.265  41.994   0.456
21568W        W86795  18.193  18.274   2.002
21569W        W86796  13.892  30.064  11.965
21570W        W86797  13.534  23.980   2.795
21571W        W86798  28.476  20.830   2.816
21572W        W86799   1.717  28.371  12.609
21573W        W86800  42.015  36.076   2.102
21574W        W86801  33.781  17.759   2.811
21575W        W86802  26.021  22.936   3.438
21576W        W86803  19.255  11.477  11.703
21577W        W86804  39.287  35.023   4.126
21578W        W86805  38.461  21.989   1.718
21579W        W86806  41.464   2.017   4.285
21580W        W86807   2.013  44.912  11.050
21581W        W86808   6.575  44.289   0.903
21582W        W86809   7.527   1.339   0.342
21583W        W86810  34.672  16.141   4.235
21584W        W86811  20.510  31.391  11.988
21585W        W86812  21.520  10.175   1.858
21586W        W86813   2.192  31.687   4.604
21587W        W86814  28.606   3.173   4.328
21588W        W86815  34.820  40.542  10.057
21589W        W86816  36.379  24.628   0.305
21590W        W86817  21.059  42.862   4.532
21591W        W86818   8.612   7.391   3.352
21592W        W86819  42.047  37.103  11.665
21593W        W86820   4.846  23.557   5.334
21594W        W86821   4.181  16.684   9.746
21595W        W86822  35.867   2.910  14.393
21596W        W86823  15.144  36.507   2.522
21597W        W86824  16.904  43.003   1.445
21598W        W86825   4.412  35.580   1.113
21599W        W86826  29.384  10.674  13.179
21600W        W86827  10.603  23.845  13.753
21601W        W86828  43.890  40.462   0.766
21602W        W86829  19.698  39.615   0.410
21603W        W86830  27.387  28.605  11.094
21604W        W86831  21.670  27.584   2.485
21605W        W86832  13.692  12.477   0.461
21606W        W86833  16.097  18.243  13.813
21607W        W86834  12.066   6.786  14.484
21608W        W86835   9.880  36.997   3.339
21609W        W86836   9.087  44.373   4.575
21610W        W86837  25.261  36.514  10.902
21611W        W86838   8.864   2.429   1.305
21612W        W86839   0.172  38.597  12.990
21613W        W86840   0.416   7.291   1.475
21614W        W86841  43.744   5.763   3.857
21615W        W86842  41.717  12.367   4.163
21616W        W86843   7.282  20.282  13.645
21617W        W86844   3.224  27.345  11.959
21618W        W86845  39.792  41.912   3.715
21619W        W86846  20.822  32.016   4.503
21620W        W86847  23.002  38.110   0.443
21621W        W86848   3.374  27.927  13.828
21622W        W86849  13.179   0.733  14.513
21623W        W86850  11.451  36.729  14.479
21624W        W86851  30.794  17.732   2.568
21625W        W86852  39.741  28.170   0.926
21626W        W86853   3.688  21.297  11.508
21627W        W86854  34.296   8.359   4.630
21628W        W86855  16.057  41.348  12.605
21629W        W86856  24.300   5.693   2.719
21630W        W86857  31.082  17.269   1.426
21631W        W86858  37.475   8.939   1.161
21632W        W86859  26.535  14.458  12.808
21633W        W86860  30.237  20.034  10.755
21634W        W86861  21.711  27.245   0.242
21635W        W86862   8.188   3.464  14.064
21636W        W86863  22.315  28.635   4.252
21637W        W86864  17.357  23.600   0.931
21638W        W86865  29.229  10.188   1.217
21639W        W86866  15.151  40.542   4.102
21640W        W86867   1.044  30.676   2.647
21641W        W86868  44.959  13.548  14.887
21642W        W86869   8.024   0.460   9.777
21643W        W86870   8.786   2.954  13.626
21644W        W86871  39.391  28.791   4.078
21645W        W86872  12.305  44.323   3.272
21646W        W86873  38.425  38.746  14.905
21647W        W86874  33.691   9.680   1.332
21648W        W86875  23.218  43.757  12.959
21649W        W86876  37.843   2.647   1.886
21650W        W86877  36.803   1.349  14.724
21651W        W86878  43.180  16.729   0.738
21652W        W86879  22.821   6.709  10.888
21653W        W86880  29.119   9.445  12.032
21654W        W86881  25.583  29.742   2.595
21655W        W86882   3.311  13.021  10.686
21656W        W86883  20.142  35.073   3.799
21657W        W86884  18.847  43.905   3.734
21658W        W86885  10.825  33.481   1.427
21659W        W86886  18.446  24.219   2.375
21660W        W86887  18.329  15.358  13.101
21661W        W86888   1.157  40.272   2.970
21662W        W86889  42.505   2.217   0.435
21663W        W86890  15.199  40.761   0.982
21664W        W86891  41.709  44.723  12.961
21665W        W86892  27.720  22.966   2.700
21666W        W86893   0.196   5.753  14.234
21667W        W86894  20.310   1.286  10.875
21668W        W86895  12.087   0.827   2.720
21669W        W86896   2.851  13.804  14.925
21670W        W86897  27.140   6.903   3.967
21671W        W86898  25.173  23.480   1.181
21672W        W86899  41.829  29.595   0.051
21673W        W86900   9.863  34.930   1.307
21674W        W86901   3.730  36.749  14.878
21675W        W86902   5.848  18.446   3.520
21676W        W86903  14.366  42.771  13.503
21677W        W86904  18.039  31.158  10.692
21678W        W86905  39.885  38.224   1.461
21679W        W86906  18.256  28.917  14.970
21680W        W86907  14.806  23.570   2.405
21681W        W86908  10.697  35.012   4.048
21682W        W86909  37.497  34.419  13.277
21683W        W86910  37.917  29.921  10.597
21684W        W86911  31.392  17.747  13.395
21685W        W86912  26.617  37.108   2.840
21686W        W86913  21.539  30.971  10.728
21687W        W86914   9.006  31.543  14.355
21688W        W86915   8.849   5.670  12.863
21689W        W86916  25.970   7.281   2.247
21690W        W86917  43.151  15.926  14.383
21691W        W86918   2.805  18.234   4.606
21692W        W86919  12.287  32.347  14.466
21693W        W86920  23.278   6.340   4.422
21694W        W86921  11.587  40.579   0.615
21695W        W86922   0.853   2.713  10.652
21696W        W86923  28.051  43.400   1.968
21697W        W86924  22.259  18.782   3.291
21698W        W86925   3.226   4.666  13.370
21699W        W86926  30.115  33.593  13.352
21700W        W86927  12.732   7.731   3.701
21701W        W86928   6.476  43.393  12.093
21702W        W86929  38.577  13.278  11.420
21703W        W86930  26.520  31.597  11.977
21704W        W86931  22.096  25.053   4.061
21705W        W86932  12.333  36.494  14.991
21706W        W86933  32.943  12.841   3.230
21707W        W86934  19.135  42.821  13.838
21708W        W86935  11.228  39.888   0.823
21709W        W86936   8.402   1.217  14.058
21710W        W86937   6.740   1.100  10.070
21711W        W86938  28.168  44.451   2.773
21712W        W86939  41.470  18.856   2.724
21713W        W86940   3.926  14.153  13.074
21714W        W86941   4.677  44.501  10.659
21715W        W86942  27.009  32.628   4.540
21716W        W86943  27.937  40.483   4.257
21717W        W86944  10.230  23.205   1.342
21718W        W86945  25.141  13.639  10.633
21719W        W86946  11.657   5.469   4.280
21720W        W86947   3.460  21.549  12.167
21721W        W86948  33.633  11.230   0.324
21722W        W86949   3.412  30.185   3.539
21723W        W86950  39.506   8.630   3.110
21724W        W86951  29.451   9.236   2.774
21725W        W86952  21.175   8.499   2.241
21726W        W86953  25.503  18.250   3.666
21727W        W86954  18.805  38.953   4.620
21728W        W86955  14.150  17.102   4.043
21729W        W86956   5.421  15.311  12.880
21730W        W86957  26.328  23.817  11.614
21731W        W86958  35.492   1.873  12.072
21732W        W86959  11.506   4.502  10.493
21733W        W86960  32.539   7.721  14.373
21734W        W86961  14.259  29.403  10.650
21735W        W86962   0.789  11.001   0.224
21736W        W86963   0.978  35.880   2.137
21737W        W86964  12.096  25.906  12.916
21738W        W86965  41.316  33.307  12.035
21739W        W86966  32.489  19.317  14.389
21740W        W86967   7.112  35.178  11.148
21741W        W86968   4.867  39.396  13.829
21742W        W86969   1.676  30.361  12.275
21743W        W86970   1.344  26.263   4.496
21744W        W86971  24.975   1.981   1.758
21745W        W86972   6.763  23.652  13.095
21746W        W86973  37.056  39.468   1.890
21747W        W86974  13.909  13.753   0.769
21748W        W86975   2.907  36.865  14.889
21749W        W86976  30.894  26.436  13.942
21750W        W86977  18.261  18.083  13.578
21751W        W86978  28.636  36.021  14.028
21752W        W86979  22.836  11.698  13.405
21753W        W86980  38.283  15.313   1.689
21754W        W86981  15.346  17.094   1.861
21755W        W86982  40.998  33.942   1.387
21756W        W86983  15.193  12.505  13.540
21757W        W86984  11.300  18.913  11.028
21758W        W86985  39.657  19.744  11.114
21759W        W86986  29.507   6.825  12.842
21760W        W86987   7.407   8.652  12.862
21761W        W86988  33.460  34.468  13.923
21762W        W86989  36.863  17.815   1.761
21763W        W86990   9.074  21.043   4.079
21764W        W86991  13.772  36.576  11.954
21765W        W86992   6.807   8.600   1.223
21766W        W86993  29.176   7.897   1.310
21767W        W86994  19.270  31.931   3.308
21768W        W86995  44.424  36.727   2.418
21769W        W86996   3.320  26.446   0.974
21770W        W86997  28.650  23.140   1.286
21771W        W86998  17.298  19.955   3.358
21772W        W86999  17.748  43.258   2.274
21773W        W87000  39.087  22.692  11.183
21774W        W87001  35.818   7.253   1.947
21775W        W87002  30.980  24.791   0.331
21776W        W87003  28.721   9.746   1.722
21777W        W87004  23.601  24.631   4.126
21778W        W87005  29.222   5.031   3.187
21779W        W87006  10.109  23.251   2.204
21780W        W87007  36.258   0.833   4.482
21781W        W87008  25.126  34.629  14.963
21782W        W87009  15.768  34.143  13.847
21783W        W87010  27.110  17.236  14.612
21784W        W87011  41.523  30.117   4.665
21785W        W87012  15.205  36.145  13.093
21786W        W87013  28.894  31.201  13.614
21787W        W87014   2.973  38.354   0.994
21788W        W87015   7.857   6.353   3.648
21789W        W87016  32.673  26.657  12.504
21790W        W87017  35.515  17.084  12.718
21791W        W87018   6.550  30.608   0.390
21792W        W87019  25.561   0.340   9.802
21793W        W87020  31.458  10.963  14.906
21794W        W87021  32.899   3.975   3.256
21795W        W87022  27.326  21.149   4.737
21796W        W87023  42.752  44.819   2.282
21797W        W87024  31.834   7.649   5.047
21798W        W87025  16.492  16.326   0.262
21799W        W87026  27.488   7.349   1.504
21800W        W87027  44.240  40.243  10.741
21801W        W87028   7.502   0.966   3.188
21802W        W87029  23.944  30.458  11.224
21803W        W87030  13.732  13.999  14.378
21804W        W87031  32.387  16.046   0.087
21805W        W87032   9.638   1.742  14.846
21806W        W87033  30.543  29.060   2.566
21807W        W87034   3.815  14.196   3.725
21808W        W87035  26.910  22.721   0.452
21809W        W87036  27.889  34.053  12.009
21810W        W87037  40.925   8.062   2.368
21811W        W87038   7.298  13.835  11.559
21812W        W87039  23.821  16.628  13.787
21813W        W87040  39.892  39.011   2.597
21814W        W87041  30.697   8.358  12.164
21815W        W87042  36.511  27.094  13.997
21816W        W87043  27.960  13.331   9.418
21817W        W87044   0.264   2.699  12.648
21818W        W87045  18.114  19.739  12.070
21819W        W87046  14.395  14.161   3.794
21820W        W87047  19.744  19.071  11.567
21821W        W87048   7.627  15.402   2.729
21822W        W87049  31.007   2.943  13.156
21823W        W87050   7.275  29.629  11.609
21824W        W87051   2.342  21.202  13.532
21825W        W87052  12.723  21.775  12.890
21826W        W87053  14.322  28.906  12.082
21827W        W87054  44.033  29.239   0.316
21828W        W87055   7.501   1.998   1.329
21829W        W87056   2.522  43.828   0.353
21830W        W87057  13.073  21.795  11.672
21831W        W87058  30.446  22.094   4.263
21832W        W87059  30.643  10.783  13.470
21833W        W87060  32.403  23.743   0.386
21834W        W87061   6.472   7.909  14.705
21835W        W87062  21.456  23.678  13.003
21836W        W87063   2.911  33.264   1.245
21837W        W87064  19.974   3.200  14.295
21838W        W87065  35.244  29.044   3.843
21839W        W87066   0.244  31.967   1.795
21840W        W87067  44.344   1.851   4.652
21841W        W87068   5.813  41.860   1.200
21842W        W87069   0.822  15.609   0.889
21843W        W87070  36.131  18.960   3.728
21844W        W87071  14.672   2.422   3.402
21845W        W87072  13.729  41.497   2.400
21846W        W87073  25.945  37.417  12.968
21847W        W87074  19.517  19.627  14.004
21848W        W87075   7.205  40.548  12.826
21849W        W87076  11.906  25.290   1.233
21850W        W87077  22.514   6.874  11.271
21851W        W87078  18.606  17.167   0.517
21852W        W87079  23.762   0.257  12.429
21853W        W87080  40.809  43.344   0.819
21854W        W87081  18.235  44.418   0.405
21855W        W87082  28.256   1.513   3.220
21856W        W87083  35.540  10.880   1.954
21857W        W87084  29.143  10.625   0.305
21858W        W87085  17.293  27.597  11.224
21859W        W87086   7.414  42.530  12.056
21860W        W87087   3.124  28.170   5.488
21861W        W87088  32.031  36.187  12.799
21862W        W87089  43.074  41.584   3.637
21863W        W87090  35.847   6.860   0.796
21864W        W87091  25.745  32.257  10.834
21865W        W87092  13.809   7.312  13.009
21866W        W87093  10.120   1.234  10.246
21867W        W87094  24.582  12.868   2.842
21868W        W87095  23.009  18.576  13.827
21869W        W87096  30.447  31.603   0.972
21870W        W87097  44.259  29.527  11.539
21871W        W87098   8.869  41.946  11.152
21872W        W87099   6.216  25.196  12.168
21873W        W87100  39.014  12.586   4.121
21874W        W87101  23.811  12.599   1.160
21875W        W87102  23.945   9.629  14.396
21876W        W87103  43.861   2.275  11.978
21877W        W87104  33.996  42.869   3.793
21878W        W87105  41.803  17.549  13.991
21879W        W87106  28.363  12.230  14.173
21880W        W87107  44.291  43.421   3.772
21881W        W87108  21.139  37.624  11.365
21882W        W87109  33.889  11.353   4.148
21883W        W87110  34.965  15.445   3.650
21884W        W87111  38.634  12.405   3.183
21885W        W87112  31.529   5.234  14.055
21886W        W87113   1.557  20.520   0.022
21887W        W87114  38.967  27.306  13.444
21888W        W87115  32.482  25.152   2.952
21889W        W87116   6.999  28.252   2.591
21890W        W87117  30.152  15.019  14.653
21891W        W87118   4.973   3.105   9.860
21892W        W87119   7.036  44.400   1.096
21893W        W87120  14.721  40.027   1.022
21894W        W87121  40.914  18.831  10.496
21895W        W87122   5.208   4.038  13.894
21896W        W87123  29.468  14.058   0.911
21897W        W87124   5.698   9.171   2.968
21898W        W87125  12.064   1.429   0.771
21899W        W87126  24.241   3.290   2.759
21900W        W87127   2.230  22.053  13.717
21901W        W87128  15.024  17.987   1.279
21902W        W87129  11.159  14.637  13.976
21903W        W87130   2.169  32.627  10.845
21904W        W87131  33.681  24.442  14.918
21905W        W87132  39.975  43.845  11.845
21906W        W87133  16.684  21.760   1.961
21907W        W87134  27.507   3.906  11.156
21908W        W87135  23.732   8.843  14.039
21909W        W87136  13.062  25.386  13.834
21910W        W87137  39.293   8.381   1.742
21911W        W87138  13.518  28.590   1.895
21912W        W87139   5.413  22.452   3.166
21913W        W87140  31.572  37.814  14.329
21914W        W87141  19.128   7.132  12.567
21915W        W87142  25.164  26.367  11.903
21916W        W87143  13.888  14.079   3.754
21917W        W87144  34.594  24.041  11.439
21918W        W87145   2.806  33.641   4.479
21919W        W87146  24.137  20.291  13.256
21920W        W87147   1.825  34.194  13.343
21921W        W87148  30.302  33.399  10.646
21922W        W87149  35.451  21.925   1.648
21923W        W87150  38.418  19.591  13.166
21924W        W87151  44.748  12.284   1.809
21925W        W87152  38.313   8.390  14.453
21926W        W87153  27.821  39.277  12.553
21927W        W87154  32.443  43.967  13.722
21928W        W87155  10.223  35.881  14.252
21929W        W87156  21.720  11.792   2.097
21930W        W87157  33.541  30.056   2.840
21931W        W87158  39.601  26.373   2.893
21932W        W87159   8.019  40.731   3.896
21933W        W87160  23.352  43.583  13.849
21934W        W87161   2.670  23.654  12.637
21935W        W87162  39.408  32.056   3.434
21936W        W87163  38.759   3.836   3.133
21937W        W87164  19.503  24.670   1.352
21938W        W87165  39.489  33.000  12.523
21939W        W87166  17.794  35.455   1.320
21940W        W87167  41.559  23.135   1.191
21941W        W87168  14.707  32.132  14.228
21942W        W87169  20.789  32.373  11.548
21943W        W87170  37.806   4.400  13.297
21944W        W87171  36.203  43.896   5.098
21945W        W87172  21.206  11.912  14.340
21946W        W87173  44.368  11.741  13.612
21947W        W87174   3.374  40.489  12.687
21948W        W87175  41.109  42.327  12.484
21949W        W87176  39.483  42.859   2.129
21950W        W87177  10.196  12.472  13.880
21951W        W87178   2.888   7.238   3.445
21952W        W87179  33.991  26.216  10.688
21953W        W87180   0.045  30.204   0.745
21954W        W87181  21.822  39.653  11.124
21955W        W87182   5.718  29.762  11.129
21956W        W87183  26.175   0.103  11.201
21957W        W87184  37.307  28.509   0.540
21958W        W87185   6.717  11.506   0.401
21959W        W87186  34.368  40.156   1.083
21960W        W87187   1.938  26.682   1.096
21961W        W87188   7.455  38.913  12.101
21962W        W87189   8.782  41.500   3.842
21963W        W87190   8.774  27.496   0.248
21964W        W87191   0.133  30.175   2.747
21965W        W87192  13.151  18.670   0.050
21966W        W87193   0.549  21.565   3.972
21967W        W87194  17.607   0.076  12.136
21968W        W87195   9.885  13.283   4.200
21969W        W87196  33.477  25.656  12.943
21970W        W87197   6.130  14.420   2.830
21971W        W87198  23.494  35.752  12.586
21972W        W87199  14.256  42.440   2.602
21973W        W87200   1.771  16.179  12.580
21974W        W87201  23.835  17.670   3.047
21975W        W87202  35.369  22.310   0.307
21976W        W87203  31.338  34.611   0.378
21977W        W87204  21.852  22.461   3.281
21978W        W87205  25.147  44.675  12.784
21979W        W87206  12.480   3.222   2.857
21980W        W87207  26.542  16.079   4.840
21981W        W87208  11.131  15.271  10.961
21982W        W87209  37.792  43.336   0.491
21983W        W87210  41.540  32.387   3.793
21984W        W87211   7.869  38.361  12.542
21985W        W87212  27.452  26.761   3.675
21986W        W87213  11.490   1.992   0.951
21987W        W87214  29.593  42.741  13.321
21988W        W87215  22.879  36.091  11.989
21989W        W87216  14.409   9.335  12.764
21990W        W87217  42.388   8.467   4.963
21991W        W87218  11.228  14.126   1.697
21992W        W87219  22.720  24.373   0.493
21993W        W87220  44.939  39.693  11.835
21994W        W87221   2.978  24.655   3.577
21995W        W87222   6.972  40.297   2.355
21996W        W87223  20.258  11.022   1.244
21997W        W87224  19.224  39.411   0.397
21998W        W87225  10.787   5.242   4.492
21999W        W87226  42.016  36.723   1.280
22000W        W87227  42.305  33.422   4.348
22001W        W87228  37.430  32.069   1.304
22002W        W87229   5.061  30.532   4.135
22003W        W87230  24.656  25.038   0.437
22004W        W87231   8.206  36.182  14.389
22005W        W87232   7.635  10.917   1.907
22006W        W87233  43.940  36.867   3.916
22007W        W87234   0.896  39.289   4.946
22008W        W87235   4.220   5.671  11.675
22009W        W87236   7.206  21.689   3.217
22010W        W87237   8.421  16.533   5.679
22011W        W87238  20.565  24.811   2.547
22012W        W87239  29.887   6.325  13.823
22013W        W87240  10.580  14.444   2.866
22014W        W87241   1.805  17.270   4.115
22015W        W87242  32.772  26.483   0.276
22016W        W87243  27.899  28.581  11.056
22017W        W87244  16.297   6.292   1.032
22018W        W87245  12.739  11.131  11.029
22019W        W87246  23.559   6.492  13.704
22020W        W87247  12.649  14.800   0.461
22021W        W87248   8.919   8.610  14.998
22022W        W87249   7.802  19.717   5.069
22023W        W87250   1.744   2.655  13.379
22024W        W87251  20.810  44.967   3.725
22025W        W87252  34.463  38.804  14.874
22026W        W87253  17.116   8.332   0.893
22027W        W87254  30.600  34.516   5.097
22028W        W87255  41.108  30.036   2.985
22029W        W87256  20.612  30.249   3.403
22030W        W87257   9.423  32.442   5.536
22031W        W87258  30.146   1.779  14.943
22032W        W87259  43.226  29.371  12.989
22033W        W87260  21.809  42.933   5.006
22034W        W87261  31.611  18.752  12.517
22035W        W87262  21.242  23.429  13.414
22036W        W87263  37.893  43.283  13.991
22037W        W87264  38.768   4.372   3.238
22038W        W87265  41.913  43.682   4.658
22039W        W87266   9.078   5.591  11.341
22040W        W87267  14.140  22.495   4.508
22041W        W87268   0.741   4.120   2.758
22042W        W87269  39.394  26.014  13.076
22043W        W87270  40.508  11.374   3.509
22044W        W87271  18.147   1.733  13.886
22045W        W87272   3.214  28.680   2.616
22046W        W87273   1.225  42.291  14.005
22047W        W87274  40.623  30.438  11.553
22048W        W87275  21.260  36.000   4.458
22049W        W87276  21.498  18.118   0.712
22050W        W87277   5.205   9.445   1.837
22051W        W87278  28.639   5.300   4.017
22052W        W87279  27.014  16.613  11.504
22053W        W87280   4.353  14.089   3.542
22054W        W87281  21.279  40.738  13.595
22055W        W87282  32.045  37.446  13.458
22056W        W87283  10.151   0.510  12.777
22057W        W87284  36.892  18.085  11.944
22058W        W87285  26.496  11.042  10.731
22059W        W87286   2.782  15.099   4.057
22060W        W87287  10.082   2.360  11.629
22061W        W87288  30.987  17.218   2.413
22062W        W87289  25.058  38.823   4.029
22063W        W87290   3.774  11.608  11.648
22064W        W87291  23.670  42.848  12.455
22065W        W87292   4.813  27.692  11.648
22066W        W87293  25.497  15.328   0.777
22067W        W87294  27.958  32.502  12.894
22068W        W87295  20.886  18.582   1.499
22069W        W87296  23.555  32.690  12.755
22070W        W87297  13.276  42.120   0.801
22071W        W87298  30.120  14.908  12.432
22072W        W87299  26.897  16.748  13.299
22073W        W87300  38.535   5.001   9.740
22074W        W87301  26.616  30.994   4.312
22075W        W87302  12.073  29.249  12.423
22076W        W87303  14.104  15.816  11.667
22077W        W87304  44.251  42.798  11.254
22078W        W87305   5.789  37.920   4.306
22079W        W87306  24.736   9.885  11.289
22080W        W87307  32.121  25.735   1.842
22081W        W87308   7.859  27.617  13.233
22082W        W87309  10.240  29.161   2.857
22083W        W87310  44.298  30.051  13.855
22084W        W87311  31.427  15.900   1.758
22085W        W87312  21.650  38.321  14.368
22086W        W87313   3.515   9.729  10.997
22087W        W87314  24.422  12.199  14.301
22088W        W87315  16.303   9.166  12.279
22089W        W87316   8.731   4.263  14.165
22090W        W87317   9.084  11.922   5.096
22091W        W87318   4.407  20.632   4.587
22092W        W87319  28.811  16.707  14.451
22093W        W87320  33.914  36.348   5.867
22094W        W87321  30.366  10.961   3.260
22095W        W87322  26.641  18.796   3.586
22096W        W87323   4.333  29.030  14.713
22097W        W87324  14.786  20.815   4.192
22098W        W87325  14.279  32.654   2.374
22099W        W87326  30.782  17.984   5.183
22100W        W87327  44.701  34.514  14.981
22101W        W87328  11.120  42.968   4.197
22102W        W87329  17.721  39.617  14.617
22103W        W87330  19.760  12.329   2.791
22104W        W87331  30.605   7.755   4.575
22105W        W87332  41.591   7.217  11.546
22106W        W87333  14.394  26.541   4.149
22107W        W87334  33.700  15.571   1.332
22108W        W87335  16.484  28.031  12.116
22109W        W87336  43.468   0.975  14.830
22110W        W87337  28.038  28.133  11.278
22111W        W87338  41.106  22.880   3.672
22112W        W87339  35.554  16.735   3.197
22113W        W87340  33.564   4.122  12.120
22114W        W87341  21.968  13.153  11.201
22115W        W87342  21.755  14.783  11.460
22116W        W87343  26.564  42.761  11.042
22117W        W87344  39.588  17.692   3.380
22118W        W87345   0.376  17.997  12.021
22119W        W87346  14.184   2.320  14.408
22120W        W87347  35.855   8.333   1.873
22121W        W87348  41.883  32.309   4.695
22122W        W87349  27.530  37.592  13.083
22123W        W87350  30.680  12.118   1.915
22124W        W87351  25.343  42.195   4.201
22125W        W87352  20.168  13.880  14.007
22126W        W87353   1.473  39.494   2.228
22127W        W87354  35.842   8.379   2.784
22128W        W87355  19.642  28.680   0.365
22129W        W87356  26.442  30.037  13.372
22130W        W87357  15.595   8.070   0.402
22131W        W87358  38.778   3.997   5.379
22132W        W87359  17.243  16.689   0.518
22133W        W87360  38.270  19.917   0.322
22134W        W87361  38.225  36.436  12.525
22135W        W87362  21.226  21.556  11.099
22136W        W87363  32.366  13.253   0.787
22137W        W87364  13.719   8.673   4.829
22138W        W87365  16.265  13.970   3.695
22139W        W87366  32.919  41.905  11.160
22140W        W87367  28.033  27.961   0.422
22141W        W87368   1.273  34.930   2.123
22142W        W87369   4.323  17.081   4.995
22143W        W87370  30.810  15.815  12.955
22144W        W87371  23.600  14.598   2.548
22145W        W87372  21.254   5.352  12.935
22146W        W87373  14.742  15.609   4.658
22147W        W87374  26.042  14.157   1.910
22148W        W87375  34.767  40.739  13.810
22149W        W87376  41.178  14.713   0.894
22150W        W87377  10.279  19.675   1.881
22151W        W87378  42.828  13.428  12.019
22152W        W87379  30.101  44.711   4.261
22153W        W87380   2.533  11.375   1.349
22154W        W87381   4.857   5.377  13.187
22155W        W87382  33.640   6.364  12.148
22156W        W87383  25.233  29.488  10.656
22157W        W87384  42.491  36.384  14.963
22158W        W87385   9.403  17.298  12.056
22159W        W87386   2.096  14.458   4.831
22160W        W87387  28.011  10.348   4.522
22161W        W87388  44.395  24.360   1.842
22162W        W87389  27.083   8.342  12.035
22163W        W87390  36.291  15.088   1.458
22164W        W87391  23.395  20.563   2.481
22165W        W87392  11.413  31.415   5.438
22166W        W87393   7.734  10.057   3.992
22167W        W87394  32.059  19.902  11.158
22168W        W87395  20.780  29.189   1.254
22169W        W87396  18.606   0.302  13.375
22170W        W87397  11.563  28.965   3.219
22171W        W87398  35.445  30.899  14.480
22172W        W87399  23.613  28.069   3.055
22173W        W87400  22.843  24.235   2.382
22174W        W87401  29.004  26.025   1.540
22175W        W87402   8.317   3.939   3.875
22176W        W87403  23.497  24.522   0.249
22177W        W87404  19.637   7.433   1.735
22178W        W87405  37.002  14.814   1.830
22179W        W87406  28.965   1.957  13.010
22180W        W87407  37.814  39.555   1.459
22181W        W87408   3.013  22.238   3.677
22182W        W87409  15.019  40.455  13.136
22183W        W87410   4.462  33.175   2.830
22184W        W87411   4.002  27.238   5.521
22185W        W87412  34.620  31.055  14.724
22186W        W87413  11.284  24.148   3.167
22187W        W87414  34.579  24.435  13.880
22188W        W87415  17.975  35.065  11.996
22189W        W87416   9.400  23.975   4.191
22190W        W87417  23.497  42.530   0.739
22191W        W87418  12.631  28.600   0.302
22192W        W87419  22.139  40.738  11.810
22193W        W87420  37.679  38.808  13.258
22194W        W87421  40.485  18.350   3.292
22195W        W87422  25.102  11.748   4.111
22196W        W87423  18.948  10.245   3.749
22197W        W87424   1.992  28.222  14.497
22198W        W87425  26.470  34.448   2.142
22199W        W87426  24.992  12.815   3.817
22200W        W87427  18.088  10.986   1.013
22201W        W87428  17.046  41.986   3.577
22202W        W87429  41.448  11.183  12.009
22203W        W87430  16.345   8.758  13.969
22204W        W87431  35.308   9.168  11.287
22205W        W87432   6.515  24.504  10.419
22206W        W87433  17.249  18.669  12.979
22207W        W87434  33.404  29.296   3.735
22208W        W87435  25.192  41.563  13.126
22209W        W87436  37.611   0.200  13.013
22210W        W87437  26.239   4.769   1.513
22211W        W87438  36.403  34.080  12.838
22212W        W87439  30.723  27.236  11.659
22213W        W87440  17.310  18.070  13.576
22214W        W87441  27.232   2.927   3.627
22215W        W87442  10.457   6.455  10.782
22216W        W87443  19.149   4.863  10.816
22217W        W87444  26.374  18.321   3.605
22218W        W87445  34.547  11.127   9.692
22219W        W87446  35.596  37.181  12.377
22220W        W87447   1.119  28.650  11.697
22221W        W87448   6.957  44.277  11.727
22222W        W87449  37.474   2.000  12.425
22223W        W87450  15.109   1.625   3.732
22224W        W87451  21.360   8.687   4.154
22225W        W87452   4.245  33.926  13.059
22226W        W87453  34.915   2.265   4.637
22227W        W87454  34.775  28.103  12.951
22228W        W87455  24.674   8.336   3.652
22229W        W87456  10.052   7.864  11.587
22230W        W87457  21.909   2.065   4.011
22231W        W87458  26.090  40.819   0.320
22232W        W87459  30.585   1.999   1.383
22233W        W87460   6.713  39.119  13.010
22234W        W87461  34.219  28.028   0.269
22235W        W87462  42.363  23.518  11.612
22236W        W87463  17.004  43.013  14.759
22237W        W87464  43.493  43.384  11.505
22238W        W87465  18.092   5.402   1.251
22239W        W87466  24.631  16.510   4.177
22240W        W87467   4.856  37.354  14.070
22241W        W87468  44.762  42.384   1.250
22242W        W87469  28.940  28.222   2.196
22243W        W87470  24.440   4.868  14.977
22244W        W87471   6.210   0.206  11.085
22245W        W87472  43.269  19.741  14.336
22246W        W87473  20.329  11.411   0.807
22247W        W87474  38.916  39.778  12.977
22248W        W87475  31.231  35.258   2.819
22249W        W87476   0.437  13.769   1.793
22250W        W87477  34.547  24.447   0.254
22251W        W87478  32.819  39.124   4.012
22252W        W87479  44.302  14.226   3.651
22253W        W87480   7.451  14.090  13.075
22254W        W87481   1.793  23.266   1.285
22255W        W87482  44.217  14.012  12.074
22256W        W87483  31.421  19.972   2.158
22257W        W87484  40.291  18.480  14.849
22258W        W87485  43.230  21.050   0.790
22259W        W87486   7.243  23.099  11.117
22260W        W87487  27.630  31.239   2.251
22261W        W87488   3.847   3.844  10.818
22262W        W87489  11.278  30.118  10.329
22263W        W87490  21.682  12.401  14.848
22264W        W87491  25.639  39.566   3.799
22265W        W87492  14.644  13.526   1.455
22266W        W87493  29.029   9.368  13.975
22267W        W87494   6.774   5.303   0.009
22268W        W87495  21.643   3.519   2.197
22269W        W87496   7.825  12.292  12.645
22270W        W87497  29.522  12.230   3.600
22271W        W87498  42.493  31.105  12.507
22272W        W87499  29.424  30.855  12.922
22273W        W87500   2.263  11.127   3.278
22274W        W87501   6.908  33.506   3.666
22275W        W87502   5.447  15.656  14.789
22276W        W87503  27.933   7.640   0.802
22277W        W87504  20.971  11.904  13.886
22278W        W87505  15.002  44.226   0.005
22279W        W87506   1.558  31.003  10.675
22280W        W87507  14.897  15.786   2.253
22281W        W87508  29.150   1.254   3.566
22282W        W87509  36.593  44.934  14.505
22283W        W87510  32.355  14.113   1.558
22284W        W87511  31.892   7.140  13.409
22285W        W87512  22.574  23.031   3.398
22286W        W87513  15.699  44.793  14.804
22287W        W87514   4.994  10.475   2.971
22288W        W87515  27.087  24.067   3.074
22289W        W87516  14.109  35.101   2.134
22290W        W87517  10.868  13.899  12.104
22291W        W87518   3.135   5.469  12.058
22292W        W87519  35.607  39.988   1.195
22293W        W87520  17.053  35.883  11.589
22294W        W87521  12.703  14.065   1.327
22295W        W87522  20.508  16.587   1.739
22296W        W87523  31.854  29.066  13.411
22297W        W87524  43.511  16.754  13.078
22298W        W87525  18.169   9.055   4.754
22299W        W87526  34.369  27.262  14.909
22300W        W87527  39.253  34.519   0.562
22301W        W87528  32.244  12.151  12.369
22302W        W87529  18.907  38.704   2.346
22303W        W87530  30.956  43.986  11.586
22304W        W87531  36.380  43.555   0.213
22305W        W87532  11.162  44.782  13.968
22306W        W87533  32.666  12.375  10.946
22307W        W87534  22.601  14.385   4.636
22308W        W87535  41.021   5.238  14.287
22309W        W87536  11.749  15.833  14.769
22310W        W87537  32.297  18.150   9.973
22311W        W87538  12.685  16.619   1.111
22312W        W87539  18.481  29.138   3.501
22313W        W87540  30.903  40.756   0.293
22314W        W87541   6.158  16.308  11.152
22315W        W87542  18.761  42.303  13.620
22316W        W87543  35.221  41.796   1.035
22317W        W87544  24.747  15.154  13.103
22318W        W87545  27.712   0.638   5.573
22319W        W87546  32.434   6.923  14.966
22320W        W87547  27.932   0.265   2.666
22321W        W87548  42.323  24.999  14.429
22322W        W87549  38.480   2.634   3.645
22323W        W87550  14.321  22.812   4.921
22324W        W87551  30.051  17.961   3.822
22325W        W87552  37.158   9.913  13.226
22326W        W87553  38.719  22.634  13.455
22327W        W87554  22.585  31.269  13.911
22328W        W87555   7.854  30.310   2.364
22329W        W87556  43.268  31.248   2.177
22330W        W87557  42.696   6.750  13.990
22331W        W87558  16.127  26.076  10.995
22332W        W87559  42.265  25.195   3.176
22333W        W87560  40.468  10.577  11.214
22334W        W87561  10.903  16.240   4.893
22335W        W87562  19.321  10.454   2.325
22336W        W87563  44.749  29.673   3.696
22337W        W87564  28.608  43.775   3.788
22338W        W87565  24.319  22.104   2.200
22339W        W87566  35.465  40.064  13.880
22340W        W87567  38.358  37.518   1.357
22341W        W87568  21.134  18.800   1.959
22342W        W87569   6.719  41.989   2.058
22343W        W87570  25.856   2.943   4.248
22344W        W87571  15.997  26.087   3.363
22345W        W87572  36.402  25.345   1.932
22346W        W87573   0.929   0.816   0.137
22347W        W87574   6.174  24.146  11.145
22348W        W87575  15.468  28.781   3.060
22349W        W87576  25.102  33.625  13.896
22350W        W87577   2.270  19.646  11.832
22351W        W87578  25.555  28.866   0.999
22352W        W87579  27.128  33.598  13.496
22353W        W87580  19.078  15.125  14.037
22354W        W87581  39.035   2.314   0.288
22355W        W87582  13.867  27.478   2.562
22356W        W87583  39.878  34.788   3.331
22357W        W87584  24.208  23.268   3.706
22358W        W87585  23.494  31.088   4.737
22359W        W87586  23.719  24.649   3.117
22360W        W87587  29.624  11.303  11.200
22361W        W87588  16.500  20.299   1.168
22362W        W87589  40.323   0.060  11.565
22363W        W87590  19.848  11.946  14.544
22364W        W87591   8.789  37.299  11.569
22365W        W87592   1.949   6.668   1.297
22366W        W87593  34.192  20.533  11.032
22367W        W87594  15.860  35.520  13.938
22368W        W87595  28.842  40.077  12.014
22369W        W87596  36.370  12.401   2.344
22370W        W87597  24.076  36.074   0.866
22371W        W87598   3.465  44.005   0.363
22372W        W87599  43.405  15.836   3.747
22373W        W87600   4.117  34.572   2.965
22374W        W87601  38.831  44.390  13.886
22375W        W87602  33.374  42.766  11.155
22376W        W87603  13.541   6.508  13.485
22377W        W87604   4.697  42.508  11.646
22378W        W87605  22.072  15.254  14.562
22379W        W87606   7.149   6.195  14.369
22380W        W87607  13.391  37.309  11.628
22381W        W87608  20.322   3.238   1.568
22382W        W87609  28.693  42.301  11.175
22383W        W87610  43.884  44.570   3.140
22384W        W87611   8.857  38.285   2.731
22385W        W87612  42.757  42.206  14.395
22386W        W87613  29.944  40.273   3.013
22387W        W87614   7.492   3.120   0.327
22388W        W87615  21.094  39.775   0.265
22389W        W87616  31.198   7.688  11.504
22390W        W87617  19.263  12.814  14.659
22391W        W87618   7.166  28.119  14.884
22392W        W87619  20.904  32.175  12.432
22393W        W87620  11.523   9.651  12.459
22394W        W87621   6.525   8.786   0.814
22395W        W87622   4.006  44.070  12.631
22396W        W87623  37.296  26.191  12.337
22397W        W87624   2.879  33.905  14.773
22398W        W87625  41.385  11.361   1.820
22399W        W87626  27.521   3.100  10.752
22400W        W87627  29.150  42.923  13.565
22401W        W87628  24.263  28.526   3.193
22402W        W87629  32.627  24.811   3.333
22403W        W87630  37.924  20.262   4.131
22404W        W87631  42.195   8.136   0.203
22405W        W87632  44.250  37.595  14.806
22406W        W87633  12.474  13.631  11.596
22407W        W87634  31.817  37.652   3.680
22408W        W87635  43.959  29.653  10.703
22409W        W87636  14.954   0.574  14.439
22410W        W87637  19.856  31.099   3.689
22411W        W87638  18.223  14.472  14.593
22412W        W87639  29.060  41.957   4.582
22413W        W87640   0.384  12.984   1.358
22414W        W87641  19.221  30.057  11.192
22415W        W87642  38.744  37.097  10.556
22416W        W87643  28.478  32.628  12.771
22417W        W87644  34.228   5.494  14.890
22418W        W87645  35.644   1.722   3.756
22419W        W87646  19.324  19.663  13.479
22420W        W87647   3.319  36.155  10.611
22421W        W87648   0.667  13.743   0.389
22422W        W87649  24.355  18.967   3.739
22423W        W87650   4.638  26.937  12.880
22424W        W87651  14.318  38.387  11.207
22425W        W87652  12.305  34.216  12.486
22426W        W87653  21.022  21.198  14.309
22427W        W87654  27.023  35.125  12.991
22428W        W87655  14.057  41.208   1.547
22429W        W87656   5.193   6.873  11.026
22430W        W87657   5.419  18.349  14.119
22431W        W87658  38.855  32.755   1.238
22432W        W87659  10.127  34.891  13.552
22433W        W87660  17.226  42.975  10.288
22434W        W87661  16.642  34.548  14.457
22435W        W87662   8.329  24.330   4.924
22436W        W87663   0.264   7.011  12.372
22437W        W87664   3.134  41.007  14.659
22438W        W87665   3.348   3.233  13.480
22439W        W87666   8.759  15.881  12.184
22440W        W87667  43.907   6.257  14.590
22441W        W87668   8.219   8.723   2.937
22442W        W87669  32.411  24.081  11.621
22443W        W87670  14.411  36.237  14.399
22444W        W87671  18.744  27.415   3.122
22445W        W87672  13.239  34.590   1.815
22446W        W87673   1.981  39.471   0.857
22447W        W87674  34.604  38.159   9.891
22448W        W87675  42.032  10.384   1.897
22449W        W87676  40.485  32.442   4.696
22450W        W87677  34.509   4.269   2.862
22451W        W87678  17.430   1.036   4.113
22452W        W87679   1.815  25.318   3.652
22453W        W87680  17.610   0.097   3.216
22454W        W87681  35.938  13.086  14.742
22455W        W87682  28.355  28.769  11.314
22456W        W87683   1.837  11.874   4.275
22457W        W87684  43.565   9.979  14.454
22458W        W87685  11.220  20.809  14.783
22459W        W87686  13.435  16.125  10.559
22460W        W87687  36.526  14.081   3.732
22461W        W87688  41.155   1.945  13.939
22462W        W87689   0.902  33.146  14.911
22463W        W87690  25.834  32.888  10.719
22464W        W87691  32.309   2.285  14.487
22465W        W87692  14.480  29.465   2.800
22466W        W87693  11.765  38.113   4.904
22467W        W87694  15.220  10.428   2.949
22468W        W87695  11.323  18.178  14.960
22469W        W87696   2.759  11.110   3.398
22470W        W87697  13.600  21.959   1.883
22471W        W87698  30.120  38.874   1.812
22472W        W87699   4.136   1.833   0.413
22473W        W87700  44.474  16.320  14.909
22474W        W87701  30.987  32.734  10.640
22475W        W87702  43.309   8.329   0.256
22476W        W87703  20.566   4.686   0.391
22477W        W87704  23.696  21.733  10.649
22478W        W87705  29.483   6.727  11.428
22479W        W87706  22.181  41.790  13.442
22480W        W87707  28.470  30.626   2.189
22481W        W87708  37.116  31.569  10.496
22482W        W87709   3.181  21.192  11.585
22483W        W87710  23.421  21.982   1.867
22484W        W87711  26.032  12.214   3.228
22485W        W87712   3.443  39.550  14.404
22486W        W87713  15.597  27.088   0.302
22487W        W87714  34.493  37.462  13.550
22488W        W87715   8.588   6.803  11.129
22489W        W87716  18.051  20.812   4.389
22490W        W87717  39.883  43.326  12.679
22491W        W87718  35.450  27.157  11.958
22492W        W87719  15.504  39.364   3.590
22493W        W87720  37.579  19.131   2.824
22494W        W87721  26.053  22.974   3.946
22495W        W87722  42.497  25.151   0.687
22496W        W87723  27.151  30.732   3.561
22497W        W87724   0.366  23.196   5.436
22498W        W87725  41.358  34.357   1.385
22499W        W87726  25.505  30.231  13.375
22500W        W87727  24.616  39.330   2.808
22501W        W87728  38.219  24.061  11.996
22502W        W87729  25.334  25.714   0.061
22503W        W87730  27.511   9.847  10.664
22504W        W87731   2.096  43.046   2.827
22505W        W87732  18.590  10.262  12.962
22506W        W87733   1.501  14.768   3.716
22507W        W87734  22.562  32.798   1.638
22508W        W87735  30.012  33.048   0.679
22509W        W87736  38.055  13.227   2.384
22510W        W87737  39.509   9.651  12.501
22511W        W87738  29.220   8.461   4.067
22512W        W87739  25.534   6.838   1.814
22513W        W87740   7.775  26.447  13.357
22514W        W87741  12.942  44.884   2.169
22515W        W87742  20.445  41.422   1.005
22516W        W87743  25.166   3.912  11.733
22517W        W87744  37.061   5.439   2.770
22518W        W87745  11.746  33.538  12.008
22519W        W87746  10.653  32.693   3.112
22520W        W87747  43.962  29.004   3.687
22521W        W87748  31.817  20.673  11.684
22522W        W87749   8.378  41.951  11.012
22523W        W87750  31.932  21.072   2.680
22524W        W87751  35.584  24.276   1.239
22525W        W87752  32.846  23.453  14.464
22526W        W87753  26.056   2.545  13.519
22527W        W87754  26.806  15.228   0.569
22528W        W87755  42.353  29.840   0.491
22529W        W87756  13.015  30.864   0.236
22530W        W87757  27.795  40.309  13.393
22531W        W87758  28.685  36.570  11.722
22532W        W87759   2.840  15.722  13.385
22533W        W87760  19.281   6.403   3.707
22534W        W87761  21.234  15.734  12.906
22535W        W87762   0.779  23.244  10.614
22536W        W87763  33.051  11.975   3.733
22537W        W87764   5.292   5.297   0.038
22538W        W87765  20.666  10.183   2.101
22539W        W87766  37.962  33.691  14.881
22540W        W87767  29.153   6.726  11.854
22541W        W87768  24.478  27.024  11.144
22542W        W87769  42.985  21.324  13.301
22543W        W87770  22.722  36.004   0.389
22544W        W87771  21.251   0.900  13.799
22545W        W87772  39.981  10.727  12.860
22546W        W87773   7.319  34.629   3.305
22547W        W87774  19.671  41.848   3.302
22548W        W87775   0.875  24.959   5.370
22549W        W87776  44.924  24.084   0.732
22550W        W87777  41.771  16.736   4.161
22551W        W87778  23.485  34.490  11.523
22552W        W87779  16.962  40.799   0.351
22553W        W87780  31.364  15.244   3.171
22554W        W87781  20.246  19.569   2.652
22555W        W87782  19.556  25.021  14.360
22556W        W87783   4.806  22.506   2.804
22557W        W87784  43.826  24.721   3.607
22558W        W87785  41.928   7.248  14.428
22559W        W87786  31.531  25.976   3.497
22560W        W87787   2.225  21.690   1.880
22561W        W87788  15.790  15.154  13.894
22562W        W87789  31.000  11.102   5.078
22563W        W87790   9.906  44.782  12.482
22564W        W87791  29.741  17.307  11.562
22565W        W87792   9.154   6.224   4.203
22566W        W87793  39.408   2.127  12.526
22567W        W87794  15.636   9.786   5.214
22568W        W87795  17.095  37.919   4.095
22569W        W87796  21.470  17.831  12.259
22570W        W87797  37.845  17.017  10.503
22571W        W87798  21.652  15.373   2.248
22572W        W87799  21.639  33.786  14.963
22573W        W87800  25.777  41.142  13.605
22574W        W87801  24.187  13.622  14.109
22575W        W87802  15.203   9.492   3.222
22576W        W87803  19.454  34.493  13.771
22577W        W87804  27.988  19.341   4.164
22578W        W87805  38.200   8.586   3.474
22579W        W87806   5.161  27.052  14.277
22580W        W87807  33.123  43.078   2.670
22581W        W87808   5.522   1.424   0.469
22582W        W87809   2.177   1.326   0.961
22583W        W87810  25.027  42.879   0.352
22584W        W87811  39.492  26.114   4.272
22585W        W87812  33.627  36.214   4.495
22586W        W87813  31.915  25.698  10.963
22587W        W87814  33.078  29.478  11.183
22588W        W87815  21.019  30.653  11.640
22589W        W87816  13.824   0.314  11.577
22590W        W87817  22.947   7.685   3.247
22591W        W87818  10.689  43.759  12.944
22592W        W87819  17.767   6.786  11.755
22593W        W87820  25.730   9.627   4.795
22594W        W87821   5.236  26.555  13.087
22595W        W87822  43.597  35.605  13.932
22596W        W87823  21.534  41.555  14.887
22597W        W87824  17.906   6.778   1.425
22598W        W87825  44.096  14.154  12.681
22599W        W87826  21.268  35.599  14.459
22600W        W87827  36.536   9.454  12.327
22601W        W87828  16.749  21.882   1.437
22602W        W87829  43.831  28.184  14.542
22603W        W87830  19.588   0.482  11.690
22604W        W87831   8.191  14.819  14.220
22605W        W87832  40.439  41.804  14.389
22606W        W87833  14.289  24.085  13.764
22607W        W87834  26.838  30.375  14.973
22608W        W87835  41.608  27.672   1.659
22609W        W87836   8.737  37.005   0.732
22610W        W87837  44.224  13.644   0.437
22611W        W87838   1.593   3.520   2.659
22612W        W87839   5.687  32.865  14.501
22613W        W87840  39.874  33.549   4.514
22614W        W87841  11.309   3.513   0.824
22615W        W87842  42.027  21.543   2.271
22616W        W87843  42.836  29.155   3.754
22617W        W87844   4.468  15.750   0.028
22618W        W87845  29.064  13.859  13.911
22619W        W87846  42.746  26.933   2.745
22620W        W87847  13.427  41.107  11.025
22621W        W87848  29.618  38.788   0.762
22622W        W87849  28.657  15.508  11.586
22623W        W87850  40.739  23.515  14.877
22624W        W87851  11.694   2.191  12.037
22625W        W87852  42.977  37.504   1.087
22626W        W87853  18.271  12.189   2.024
22627W        W87854   5.387  21.382   0.355
22628W        W87855  15.305  22.733  12.482
22629W        W87856  15.618   1.790  13.319
22630W        W87857  10.702  10.407  11.596
22631W        W87858  34.464  37.955  11.281
22632W        W87859  28.823  15.167  11.256
22633W        W87860  43.084  15.649  13.306
22634W        W87861  30.413   3.776   3.744
22635W        W87862  40.776  43.730  12.431
22636W        W87863  13.768   8.884  14.689
22637W        W87864  20.395  14.294   5.078
22638W        W87865  10.907  28.155   4.679
22639W        W87866  28.306   0.608   5.058
22640W        W87867  17.039  33.944  11.314
22641W        W87868  38.045  24.595   0.919
22642W        W87869   6.944  29.366  13.405
22643W        W87870  24.802   8.500  14.948
22644W        W87871  28.116  30.982  14.179
22645W        W87872  28.032  12.832   1.108
22646W        W87873  25.229  30.820   3.740
22647W        W87874  31.561   3.932  14.527
22648W        W87875  44.229  20.946  12.001
22649W        W87876  39.996  11.681   5.127
22650W        W87877  14.605  42.821  14.520
22651W        W87878   5.355   3.949   1.707
22652W        W87879  23.503   9.413   0.837
22653W        W87880  13.551  43.053  11.651
22654W        W87881  13.299  16.794  13.974
22655W        W87882  31.409  22.691   2.367
22656W        W87883   2.731  40.567   3.809
22657W        W87884  37.610  43.074   3.217
22658W        W87885  43.779   6.739  14.778
22659W        W87886  14.281   3.641  13.919
22660W        W87887  28.932  18.624  13.432
22661W        W87888   6.733  14.566   1.948
22662W        W87889  25.776  10.393   5.108
22663W        W87890  22.509   0.052   2.758
22664W        W87891  33.028  15.771   2.419
22665W        W87892  41.986  35.309  10.741
22666W        W87893  40.359  40.271   2.473
22667W        W87894  24.480  25.141  12.515
22668W        W87895   9.743  24.274   0.296
22669W        W87896  41.660  29.024  13.477
22670W        W87897  44.426  36.367  10.608
22671W        W87898  25.600  31.407   4.231
22672W        W87899  10.388  37.594  14.542
22673W        W87900  39.356   7.555   4.663
22674W        W87901   1.755  24.579  11.622
22675W        W87902   5.245  16.910  12.028
22676W        W87903  29.701   5.912   0.631
22677W        W87904  26.059   7.458   3.289
22678W        W87905   2.014  18.298  14.351
22679W        W87906  38.113  12.781   2.656
22680W        W87907  19.207  36.555  12.386
22681W        W87908   4.776  23.129   1.708
22682W        W87909  30.172   9.755   2.827
22683W        W87910  21.972  35.061  14.366
22684W        W87911  11.911  12.816  12.884
22685W        W87912  21.558  11.621   0.340
22686W        W87913  14.270  39.242  10.836
22687W        W87914  31.308   8.946  12.979
22688W        W87915  28.323   4.475   0.787
22689W        W87916  44.306  28.656   3.544
22690W        W87917  24.445  39.403  11.561
22691W        W87918  22.136   7.579   2.233
22692W        W87919  42.308  36.629   4.573
22693W        W87920   3.740  17.633   4.665
22694W        W87921  35.951   7.804  12.941
22695W        W87922  10.805   8.728  13.968
22696W        W87923  41.828  28.380  14.062
22697W        W87924  32.722  28.349   3.146
22698W        W87925  33.504  14.764   1.012
22699W        W87926  31.020  33.014   2.694
22700W        W87927  33.108  44.914   4.372
22701W        W87928  11.589  25.596   4.606
22702W        W87929  14.709  37.924  13.910
22703W        W87930   1.692  18.737  11.655
22704W        W87931  21.949   8.334   0.904
22705W        W87932  25.848   2.448  11.671
22706W        W87933  20.637  32.524  14.288
22707W        W87934   8.805  25.923  14.684
22708W        W87935  36.891   0.833   0.420
22709W        W87936  32.049  10.433  12.099
22710W        W87937  42.219  41.474  11.558
22711W        W87938  34.904  26.957  14.483
22712W        W87939   9.485  42.344  14.275
22713W        W87940  11.177  29.594   3.638
22714W        W87941  40.528  33.070  11.364
22715W        W87942  29.030  11.708  14.435
22716W        W87943  39.280  15.970   0.174
22717W        W87944   6.762   3.243   1.061
22718W        W87945  23.154  31.264   4.200
22719W        W87946  40.903  22.799  13.526
22720W        W87947  37.061  27.190   0.089
22721W        W87948  30.391  42.394  10.579
22722W        W87949  10.097  41.761   1.247
22723W        W87950  44.281  35.926  10.893
22724W        W87951   1.650  40.363   2.809
22725W        W87952  22.913  19.544   3.765
22726W        W87953  28.066   8.882   5.030
22727W        W87954  41.441  20.597  11.178
22728W        W87955  44.873   7.693  13.307
22729W        W87956   0.111  32.231   1.351
22730W        W87957  32.817  43.817   3.293
22731W        W87958   1.278  13.364  13.060
22732W        W87959  32.965  26.247   1.568
22733W        W87960  39.317  18.754  12.519
22734W        W87961  28.421  16.786   3.658
22735W        W87962  41.432  23.614   2.671
22736W        W87963  33.691  42.060   0.260
22737W        W87964  15.809  17.346   1.814
22738W        W87965  37.708  33.672   5.053
22739W        W87966  41.495  16.915  14.577
22740W        W87967   8.397  14.748  11.540
22741W        W87968  17.807  34.618   0.487
22742W        W87969  36.651   2.275  12.035
22743W        W87970   9.811  27.699   1.985
22744W        W87971  19.703  29.694   1.781
22745W        W87972  10.730  17.656   1.442
22746W        W87973  10.882  27.314  14.418
22747W        W87974  27.814  15.228  14.404
22748W        W87975  32.339  10.923  13.160
22749W        W87976  13.521   2.534  11.705
22750W        W87977  13.535  29.180  11.583
22751W        W87978  31.456  25.569   1.327
22752W        W87979  35.122  18.810   1.503
22753W        W87980  11.112  42.745   1.288
22754W        W87981  14.698  30.231  13.094
22755W        W87982  27.121  41.648  11.919
22756W        W87983  26.600  20.770   1.649
22757W        W87984  33.440  17.321   1.836
22758W        W87985  27.018  28.211  11.718
22759W        W87986  42.277  43.892   2.843
22760W        W87987  26.405  31.729   2.239
22761W        W87988  44.370  42.219   0.954
22762W        W87989  24.238  38.031   2.660
22763W        W87990  38.481  31.468  10.756
22764W        W87991  38.814  10.687  12.489
22765W        W87992  21.557  23.163   4.085
22766W        W87993  27.947  22.035   1.050
22767W        W87994  12.513  36.287   3.638
22768W        W87995  24.114  24.236   1.777
22769W        W87996  42.366  29.369   3.817
22770W        W87997  43.522  10.838  12.365
22771W        W87998   9.301  31.950  14.378
22772W        W87999  16.071   0.936   2.408
22773W        W88000   4.382  17.035  12.516
22774W        W88001  22.796  23.643  14.689
22775W        W88002   1.824  31.181   4.053
22776W        W88003  29.639  25.033   0.198
22777W        W88004  22.071  38.001  14.441
22778W        W88005  23.665   1.011  12.117
22779W        W88006  29.521  15.777  11.413
22780W        W88007  43.396  35.141   1.227
22781W        W88008  28.112  44.517  11.651
22782W        W88009  23.198   6.716  11.254
22783W        W88010  31.258  29.244  10.229
22784W        W88011  42.333   9.202  11.843
22785W        W88012  33.912   3.425   1.141
22786W        W88013  10.341  18.018  13.332
22787W        W88014  26.259   8.280   0.049
22788W        W88015   0.495  19.187   1.141
22789W        W88016   6.817  19.641   2.817
22790W        W88017  41.042   4.302  12.857
22791W        W88018  35.589   8.069  13.876
22792W        W88019  21.946  37.989   2.354
22793W        W88020  41.240  24.478  14.771
22794W        W88021  28.848  26.134  10.288
22795W        W88022  38.464   0.341  12.492
22796W        W88023  11.673  21.185   3.326
22797W        W88024  18.178  11.846   1.634
22798W        W88025  38.340  32.965   1.233
22799W        W88026  41.846  28.648   3.281
22800W        W88027  23.538   7.386  13.578
22801W        W88028  34.275   3.912   3.739
22802W        W88029  22.389  23.314   0.491
22803W        W88030  41.504  39.037  13.583
22804W        W88031   7.795  21.176   0.520
22805W        W88032   1.222  40.500   3.767
22806W        W88033  19.743   0.316  11.215
22807W        W88034  23.928  29.764  12.489
22808W        W88035  44.759  19.955  14.410
22809W        W88036  16.754   8.786  13.104
22810W        W88037  34.248  41.836   4.622
22811W        W88038  35.033  26.467   3.678
22812W        W88039  22.176   7.306  11.920
22813W        W88040  21.259  40.679   0.929
22814W        W88041   9.456  13.624  12.561
22815W        W88042   2.501  30.970   1.256
22816W        W88043  20.618   1.938   0.031
22817W        W88044  19.382   1.417   2.790
22818W        W88045  27.827  21.151   1.314
22819W        W88046  19.196  44.458   2.328
22820W        W88047   7.680   4.230  14.854
22821W        W88048  43.303  11.961  11.568
22822W        W88049  27.529  27.722  10.792
22823W        W88050  25.193  42.878  11.158
22824W        W88051   6.943   7.293   0.750
22825W        W88052  43.345   6.310  10.939
22826W        W88053  21.167  15.223  12.551
22827W        W88054  33.911  42.003   4.093
22828W        W88055  43.289  31.786  12.511
22829W        W88056  41.392  14.562   0.427
22830W        W88057  34.171  38.943   2.901
22831W        W88058  37.157  44.230   3.995
22832W        W88059   2.437  37.412  10.407
22833W        W88060  18.531  18.657  12.514
22834W        W88061  33.715  28.501  12.892
22835W        W88062  38.705  20.517   4.158
22836W        W88063  33.060  15.309  14.777
22837W        W88064  17.352  33.142  13.022
22838W        W88065  41.279  39.403  10.965
22839W        W88066  42.522  34.857  13.069
22840W        W88067  29.646  42.961   4.563
22841W        W88068  23.162  31.037   1.936
22842W        W88069  38.032  19.302  12.938
22843W        W88070   6.602  10.342   1.673
22844W        W88071  40.766  36.822   1.958
22845W        W88072  10.112  20.606  11.991
22846W        W88073  25.619  20.395   2.684
22847W        W88074  11.070  25.278   0.559
22848W        W88075   1.873  24.001   3.393
22849W        W88076  44.846  12.286   1.279
22850W        W88077  16.774  29.592  13.600
22851W        W88078  43.669  23.603  12.605
22852W        W88079  38.478  16.755   3.648
22853W        W88080  10.583  12.961  10.575
22854W        W88081  18.111  19.361  12.414
22855W        W88082  33.352   2.404  12.567
22856W        W88083   7.269  36.495   4.082
22857W        W88084   5.387   5.006   1.868
22858W        W88085  14.305  22.286  14.795
22859W        W88086  13.342  32.112  13.449
22860W        W88087   0.987  30.457   3.663
22861W        W88088  25.048  19.203   0.806
22862W        W88089   9.381  27.918   3.615
22863W        W88090  16.722  21.518  12.490
22864W        W88091  33.672  26.377  12.450
22865W        W88092  34.481  40.059   1.825
22866W        W88093  16.590  10.229   1.888
22867W        W88094   9.543  25.857  14.801
22868W        W88095  10.816  18.391   4.470
22869W        W88096  31.641  21.027   3.109
22870W        W88097  18.697  29.186  14.798
22871W        W88098   7.685  19.269   0.323
22872W        W88099   5.033   3.681   3.168
22873W        W88100  36.244   4.359   4.743
22874W        W88101   3.204  10.811  14.853
22875W        W88102   3.795  17.326  10.398
22876W        W88103  24.691  24.350  12.188
22877W        W88104   4.409   6.700   3.375
22878W        W88105  40.311   3.414  10.799
22879W        W88106  22.124  15.110  11.056
22880W        W88107  43.822  21.978  12.664
22881W        W88108   7.251  40.265   4.508
22882W        W88109  14.655  28.096   4.005
22883W        W88110  32.806  22.159  14.297
22884W        W88111   9.586  33.706   4.439
22885W        W88112  18.542  32.396   3.602
22886W        W88113  28.461  10.422  14.009
22887W        W88114  43.145  33.618  14.854
22888W        W88115  34.572  38.258   5.729
22889W        W88116  30.032  34.630  11.468
22890W        W88117  14.060   4.498  11.432
22891W        W88118  31.634  22.185   3.534
22892W        W88119   0.090  28.335   4.396
22893W        W88120  39.400  31.902  14.686
22894W        W88121  39.643   9.251   4.229
22895W        W88122  25.937  17.558   2.462
22896W        W88123   9.860  20.140   1.288
22897W        W88124  23.493   5.553   5.055
22898W        W88125   9.792  28.197   2.141
22899W        W88126   1.028  28.609   2.086
22900W        W88127   3.885  37.577  14.044
22901W        W88128  38.969   0.660   3.631
22902W        W88129   0.916  13.666  11.487
22903W        W88130  28.386  29.443   1.782
22904W        W88131   4.114  28.075   1.720
22905W        W88132   1.767  14.665   4.502
22906W        W88133  21.836  28.934   3.227
22907W        W88134  24.747  19.435  14.472
22908W        W88135  13.113   2.331  13.125
22909W        W88136  42.017  34.644   4.020
22910W        W88137  27.618  37.337  10.683
22911W        W88138  30.199  32.199  12.453
22912W        W88139  25.898  22.708  10.693
22913W        W88140   0.819  36.610  11.591
22914W        W88141  30.280  20.997  13.575
22915W        W88142   7.502   2.258  11.169
22916W        W88143  40.338  13.545  13.121
22917W        W88144  36.048  34.532  12.167
22918W        W88145   5.330  18.656   3.170
22919W        W88146  17.227  14.546   2.390
22920W        W88147  25.922   4.904   0.592
22921W        W88148   9.813  32.622   1.449
22922W        W88149  24.403   5.815  13.104
22923W        W88150  14.311  25.714  12.513
22924W        W88151   1.232  30.641  10.543
22925W        W88152  13.686  16.032  12.056
22926W        W88153   2.864  20.853   0.437
22927W        W88154  15.358  13.869   4.371
22928W        W88155   9.215  19.967   0.234
22929W        W88156  35.409  38.532  11.648
22930W        W88157   7.657  42.509  12.514
22931W        W88158   8.856  36.345   0.998
22932W        W88159  36.034  26.580   1.042
22933W        W88160   7.355  40.474   1.081
22934W        W88161  42.820  37.427  10.095
22935W        W88162  27.996   7.257   0.458
22936W        W88163   0.781  43.391  14.253
22937W        W88164   6.899  35.913  14.535
22938W        W88165  22.580  24.700  11.114
22939W        W88166   9.180  24.461   4.273
22940W        W88167   1.881  22.226  10.670
22941W        W88168  23.508  13.109  13.450
22942W        W88169   1.939  42.785  12.950
22943W        W88170   1.297   2.810   0.500
22944W        W88171  34.701   5.858  14.190
22945W        W88172   7.854  43.948   1.816
22946W        W88173   9.224  28.236  11.991
22947W        W88174  15.087   0.582  11.168
22948W        W88175  16.470  10.981   4.188
22949W        W88176  28.701  42.241   3.050
22950W        W88177   6.384  13.084   0.807
22951W        W88178  19.513  12.899  11.151
22952W        W88179  26.982   0.552   1.618
22953W        W88180  34.106  13.163  12.438
22954W        W88181  24.208  21.142  12.054
22955W        W88182  16.180  35.896   3.158
22956W        W88183  41.615  27.248   3.244
22957W        W88184  11.274  29.585  13.544
22958W        W88185  31.822  19.133  14.042
22959W        W88186  38.044   8.823  14.482
22960W        W88187  43.506  36.376  11.171
22961W        W88188  13.061   6.985   4.682
22962W        W88189   5.406   1.410  13.163
22963W        W88190  22.821  16.381  14.388
22964W        W88191  38.953   1.030   4.499
22965W        W88192  31.697  16.794   4.504
22966W        W88193   1.441  44.118   3.458
22967W        W88194   0.623  21.137   1.762
22968W        W88195  15.679  11.858   4.899
22969W        W88196   7.754  11.602  10.304
22970W        W88197   0.499  34.085  12.955
22971W        W88198  39.816  13.964  13.968
22972W        W88199   0.849  15.935  10.673
22973W        W88200  25.955  27.617   3.242
22974W        W88201  24.836   9.804  14.710
22975W        W88202  33.908  42.703  11.158
22976W        W88203  15.382  33.635  11.545
22977W        W88204   5.434  39.813   3.205
22978W        W88205  35.014  17.526   2.156
22979W        W88206  14.397  24.954  12.453
22980W        W88207  41.802  40.051   0.918
22981W        W88208  16.579  20.304  10.781
22982W        W88209  42.770  16.528  11.082
22983W        W88210  25.390   1.037   0.695
22984W        W88211  24.636   3.412   3.496
22985W        W88212  25.069   5.505   0.677
22986W        W88213   3.853  26.966   9.856
22987W        W88214  31.880   7.613   1.813
22988W        W88215   5.901  27.218   0.409
22989W        W88216  11.794  28.497   5.052
22990W        W88217   6.227  39.574   2.083
22991W        W88218  34.501  16.445   1.817
22992W        W88219   9.791  41.920   4.150
22993W        W88220  21.103   8.447  13.939
22994W        W88221  13.668  35.839   2.864
22995W        W88222  43.131   9.798   1.327
22996W        W88223  11.643   7.823  10.094
22997W        W88224  28.986  14.076   0.535
22998W        W88225  41.005   5.217  10.737
22999W        W88226  44.746  33.779  14.268
23000W        W88227   4.510  21.250  11.124
23001W        W88228  23.692  26.801   4.977
23002W        W88229  20.677  20.468   3.126
23003W        W88230  32.388  16.921   0.317
23004W        W88231   2.347  20.185   2.692
23005W        W88232  42.579  20.926  11.142
23006W        W88233  44.068   7.629  10.862
23007W        W88234  44.023  38.606  11.866
23008W        W88235  42.041  32.966  13.036
23009W        W88236  27.015  39.707  11.316
23010W        W88237  26.303  27.550   1.906
23011W        W88238  10.737   2.386  12.396
23012W        W88239  11.144  21.948   4.266
23013W        W88240  25.494  35.753   4.056
23014W        W88241  21.674  40.967  11.728
23015W        W88242  17.273  39.437  14.784
23016W        W88243  43.591  22.574  13.949
23017W        W88244  14.714   2.420   3.926
23018W        W88245  42.551  17.050  10.798
23019W        W88246  44.367  13.304   2.680
23020W        W88247  27.534  31.367  13.544
23021W        W88248  18.029  16.679  14.388
23022W        W88249  15.092   7.275   4.649
23023W        W88250  24.596  31.325  12.508
23024W        W88251  20.073  13.817   2.665
23025W        W88252  33.621  43.956   2.700
23026W        W88253  42.943  37.011   0.355
23027W        W88254   7.555  24.105   0.981
23028W        W88255  39.610  16.289  11.638
23029W        W88256  15.532   1.186  12.461
23030W        W88257  42.028  10.392  11.258
23031W        W88258  10.379  31.506  14.101
23032W        W88259   8.890  24.050  11.783
23033W        W88260  41.365  13.334   3.311
23034W        W88261  16.155  16.657   2.343
23035W        W88262  34.846  41.844   1.409
23036W        W88263   4.779  29.572  10.723
23037W        W88264  13.702  33.292   1.396
23038W        W88265  21.564   6.813   1.707
23039W        W88266  30.729  32.653  11.200
23040W        W88267   0.052  24.345  10.170
23041W        W88268  25.680  28.431   4.869
23042W        W88269  38.544  15.326   1.231
23043W        W88270  28.934  30.756   2.011
23044W        W88271  30.154   6.175  12.982
23045W        W88272  44.042  15.789   1.192
23046W        W88273  20.122  42.383  11.231
23047W        W88274   8.678  25.599   2.001
23048W        W88275  42.982  12.229   3.764
23049W        W88276  28.471  30.360   1.716
23050W        W88277   7.863  31.779  12.027
23051W        W88278  29.298  40.569   2.262
23052W        W88279  30.931  36.001  14.174
23053W        W88280  22.757  33.475  11.999
23054W        W88281  28.375  26.087   0.413
23055W        W88282  22.990  33.682  11.553
23056W        W88283   8.728  32.129   4.521
23057W        W88284   6.149  19.452  14.001
23058W        W88285   2.256  42.375  13.197
23059W        W88286   2.388  35.559  12.095
23060W        W88287   6.656   9.410   2.800
23061W        W88288  32.018  41.585   1.742
23062W        W88289  35.500   0.353  12.190
23063W        W88290  42.925  14.562  12.253
23064W        W88291  37.857  16.563   4.425
23065W        W88292   8.759   7.304   0.363
23066W        W88293  41.102  19.628   0.509
23067W        W88294  34.797  39.891   0.827
23068W        W88295  14.321  40.587  10.541
23069W        W88296  15.234   8.182   0.816
23070W        W88297  22.977   4.999   3.159
23071W        W88298  39.546  26.981  14.688
23072W        W88299   3.914  27.266   0.926
23073W        W88300  18.760  21.043   0.410
23074W        W88301  25.088  41.525  10.783
23075W        W88302   7.163  10.812   0.841
23076W        W88303  35.420  14.300   0.762
23077W        W88304  38.774  40.775   0.901
23078W        W88305  17.688  13.261  10.721
23079W        W88306  24.369  35.512   3.173
23080W        W88307   8.460  32.165   4.950
23081W        W88308  40.910   8.628  12.488
23082W        W88309  37.744  33.963  13.570
23083W        W88310  44.930  20.286  10.217
23084W        W88311   2.311  39.269  14.047
23085W        W88312  11.550  44.324  12.037
23086W        W88313   0.734   2.132   2.152
23087W        W88314   5.118  38.344   1.831
23088W        W88315  44.773  28.491   0.990
23089W        W88316   8.836  18.551  12.525
23090W        W88317  12.331   2.349  12.426
23091W        W88318  44.512  30.806   1.796
23092W        W88319  20.188  19.288  14.334
23093W        W88320  12.869  22.885  14.867
23094W        W88321  14.323  28.579  11.054
23095W        W88322   5.271  25.802   3.754
23096W        W88323  15.844  23.809   5.060
23097W        W88324  22.302  26.556   3.231
23098W        W88325  43.764   2.249   1.318
23099W        W88326  21.381   2.185   2.340
23100W        W88327  32.597  41.469   1.245
23101W        W88328   7.040  13.591  10.663
23102W        W88329   1.441   5.593  11.553
23103W        W88330   8.283  23.925  11.148
23104W        W88331  41.888  37.562  12.521
23105W        W88332  18.546   7.226  11.434
23106W        W88333   6.732   1.759   0.425
23107W        W88334  14.819  19.806   1.240
23108W        W88335  22.625  30.106   2.230
23109W        W88336  27.693  32.664  12.105
23110W        W88337  24.478  19.201  11.138
23111W        W88338  23.599  14.881  13.668
23112W        W88339  31.551  33.923   1.117
23113W        W88340  37.328  25.250   3.307
23114W        W88341  44.512  23.048   0.539
23115W        W88342  17.081   9.467   1.163
23116W        W88343  11.992  18.388  12.193
23117W        W88344  44.090  10.032  11.122
23118W        W88345  14.562  44.462   9.833
23119W        W88346   4.404  18.818  11.964
23120W        W88347   7.643  33.122  11.567
23121W        W88348  24.730   7.458  13.456
23122W        W88349  14.018  15.063   4.743
23123W        W88350  23.559  41.836   4.279
23124W        W88351  10.721   2.909  12.220
23125W        W88352  22.825  14.135  13.725
23126W        W88353  28.331  15.118   3.755
23127W        W88354   5.329  20.590  11.933
23128W        W88355  24.497  44.164  10.219
23129W        W88356   8.296  13.245   5.031
23130W        W88357  41.181  43.482  12.267
23131W        W88358  27.235  10.184   3.854
23132W        W88359  10.790  18.061  11.575
23133W        W88360  18.789   1.992  12.695
23134W        W88361  10.116  15.054   0.961
23135W        W88362  27.257  25.125  11.655
23136W        W88363  29.716  28.095  13.361
23137W        W88364  40.449  28.319   5.272
23138W        W88365  36.986   2.500  11.250
23139W        W88366  17.896  15.998  10.467
23140W        W88367  32.408  34.539   1.202
23141W        W88368   1.415  32.542  11.014
23142W        W88369  35.206  19.040   0.698
23143W        W88370  19.789  13.659   1.854
23144W        W88371  37.127  39.055   3.623
23145W        W88372  13.302  25.914  14.484
23146W        W88373   5.217   6.833   2.210
23147W        W88374  10.576   8.776   4.234
23148W        W88375  16.954  37.662   1.782
23149W        W88376  43.936  41.314   2.627
23150W        W88377  40.103  32.964   1.771
23151W        W88378   7.466  10.707   2.751
23152W        W88379   0.354   1.049  12.114
23153W        W88380  23.529  14.268   4.245
23154W        W88381  34.926  38.697  11.508
23155W        W88382   8.430   1.488  10.596
23156W        W88383  26.590   0.663  11.482
23157W        W88384  14.406  24.050  14.687
23158W        W88385  24.813  21.556   0.470
23159W        W88386  31.039  27.028  14.600
23160W        W88387  14.292  18.209  10.773
23161W        W88388   9.961  11.196  12.483
23162W        W88389  17.521  20.781   3.080
23163W        W88390  29.980  15.093  11.962
23164W        W88391  38.388   3.137   3.541
23165W        W88392  36.943  28.057   1.310
23166W        W88393  25.856  38.077   4.122
23167W        W88394  36.822  42.393  13.788
23168W        W88395   3.711   8.597   0.217
23169W        W88396   9.362  13.800   1.284
23170W        W88397   0.876  33.159  14.392
23171W        W88398   9.318  19.970  12.426
23172W        W88399   2.292  41.234  13.590
23173W        W88400  28.448   0.261   1.758
23174W        W88401   4.813  12.089  14.338
23175W        W88402  28.506  25.713  10.329
23176W        W88403  15.758   4.442  12.541
23177W        W88404   9.710  38.958   4.205
23178W        W88405   4.590  13.826   4.183
23179W        W88406   8.570   5.790   3.629
23180W        W88407  14.110   3.038  12.869
23181W        W88408  24.583  20.104   4.048
23182W        W88409  14.738   0.173   4.331
23183W        W88410   4.391  16.231  11.039
23184W        W88411  21.168  19.371   3.778
23185W        W88412  15.204   3.476   2.726
23186W        W88413  19.165  26.903  14.884
23187W        W88414  42.430  28.933   4.740
23188W        W88415  33.465   0.470  11.112
23189W        W88416   6.208  12.747   3.714
23190W        W88417  35.061   4.928   3.490
23191W        W88418  26.489  43.119  12.793
23192W        W88419   8.081   6.826   2.394
23193W        W88420  21.551  40.469   2.682
23194W        W88421  18.112   4.570  14.333
23195W        W88422  14.686  14.335   4.183
23196W        W88423  13.067  24.981   1.805
23197W        W88424  15.968  29.011  10.335
23198W        W88425  19.142  28.927  13.524
23199W        W88426  33.607  18.289   2.823
23200W        W88427  23.570  38.138   4.416
23201W        W88428   7.335  14.836   2.611
23202W        W88429   3.008  10.741  13.849
23203W        W88430  18.149  33.608   2.209
23204W        W88431   9.899  42.309   3.227
23205W        W88432  10.422  28.189  11.909
23206W        W88433   9.342  38.279  14.813
23207W        W88434  41.020  23.388  12.767
23208W        W88435  26.521  37.641   5.095
23209W        W88436  44.598   8.369  11.617
23210W        W88437  22.958  24.652   2.654
23211W        W88438   8.442  31.244  11.077
23212W        W88439  23.087  11.416  14.586
23213W        W88440  44.428  17.107   4.599
23214W        W88441   8.111  17.105  14.498
23215W        W88442   0.786  31.130   2.651
23216W        W88443  32.990  38.811   2.410
23217W        W88444  10.440   6.728  11.223
23218W        W88445  27.722  38.986   5.020
23219W        W88446  21.520   9.346  12.839
23220W        W88447  28.391   6.662  12.477
23221W        W88448  31.144  34.022   0.804
23222W        W88449  20.221  44.281  13.006
23223W        W88450  40.794  30.860   0.986
23224W        W88451  22.539  19.052  13.170
23225W        W88452  26.116  12.740   3.720
23226W        W88453  10.168  28.637  13.874
23227W        W88454  25.744  22.226  14.941
23228W        W88455  25.916  29.458  11.412
23229W        W88456  12.747  41.018  12.191
23230W        W88457  13.038  11.373   3.224
23231W        W88458  33.575  17.122   1.379
23232W        W88459  19.666   6.447   4.602
23233W        W88460  33.845  10.231  14.622
23234W        W88461  41.567  33.530  10.655
23235W        W88462  37.841  17.480   2.820
23236W        W88463   7.783  14.605   2.765
23237W        W88464  41.561   9.511   2.814
23238W        W88465  22.449   1.188  14.936
23239W        W88466  37.888  32.592   3.817
23240W        W88467  42.927   3.231  10.588
23241W        W88468  40.804  10.590   4.645
23242W        W88469   5.326  42.201  13.141
23243W        W88470  18.478  32.028  10.746
23244W        W88471   9.418  11.346   3.725
23245W        W88472   9.572  19.928  14.023
23246W        W88473  43.418  35.574  14.774
23247W        W88474   6.249  23.506   3.657
23248W        W88475   1.708  34.091  14.226
23249W        W88476  37.444  11.939   2.161
23250W        W88477   5.283  34.810  13.876
23251W        W88478  37.919   1.513   3.752
23252W        W88479   1.840  39.988   0.909
23253W        W88480  32.812  41.777  14.488
23254W        W88481  39.599  21.163   4.272
23255W        W88482  27.920  36.484  11.497
23256W        W88483  15.194  41.435   3.634
23257W        W88484  44.490  36.835   1.411
23258W        W88485   8.340   6.385  10.584
23259W        W88486  33.093  33.814   0.460
23260W        W88487  10.002  35.094  11.222
23261W        W88488  22.020  40.450   2.375
23262W        W88489   7.804  18.360   1.919
23263W        W88490   9.711  15.061  12.521
23264W        W88491  27.120   0.153   3.093
23265W        W88492  31.382  19.612  13.551
23266W        W88493   6.496  40.065  14.491
23267W        W88494  24.159  22.449  14.709
23268W        W88495  13.219  11.244  13.529
23269W        W88496  26.122  32.854  11.503
23270W        W88497   3.502  37.220  12.372
23271W        W88498  31.727   5.285   2.274
23272W        W88499  34.614  13.290  12.457
23273W        W88500  29.387  34.945  11.898
23274W        W88501   9.043  12.426  13.019
23275W        W88502  36.652   1.203   1.644
23276W        W88503  43.876  36.614   2.388
23277W        W88504  12.118  27.224   4.491
23278W        W88505  13.649   2.987   2.183
23279W        W88506  17.527  26.650   4.900
23280W        W88507   6.297  10.685   4.306
23281W        W88508  38.429  19.979   2.347
23282W        W88509  20.757   7.457   2.907
23283W        W88510  38.425  35.049   0.976
23284W        W88511  42.292  32.503   0.698
23285W        W88512  24.600  33.896   0.470
23286W        W88513  27.202  10.583  12.416
23287W        W88514  21.629  17.497  14.009
23288W        W88515  28.179   8.836  12.128
23289W        W88516  21.794  28.466   3.402
23290W        W88517  22.192  38.323  13.482
23291W        W88518   2.428   3.466  14.960
23292W        W88519  28.709   1.727   3.105
23293W        W88520  43.239  16.876  12.665
23294W        W88521  27.233  15.414   2.249
23295W        W88522  17.070   8.430  12.932
23296W        W88523  23.771  39.853   1.748
23297W        W88524  37.927   3.587   2.572
23298W        W88525   1.673  28.109  11.020
23299W        W88526   2.433  13.352  14.454
23300W        W88527   2.221  44.640  13.845
23301W        W88528  42.252  23.492  13.419
23302W        W88529  41.062  24.634   3.635
23303W        W88530  21.692  23.240  13.274
23304W        W88531   6.566  32.188  11.648
23305W        W88532  42.835   6.453  13.225
23306W        W88533   8.699  24.628   4.148
23307W        W88534  21.103  43.889  14.054
23308W        W88535  17.585  32.074   2.922
23309W        W88536  35.366  29.736   4.297
23310W        W88537  38.357   8.931  14.908
23311W        W88538  16.777  44.408   1.610
23312W        W88539  37.235  30.485  10.673
23313W        W88540  39.239  26.096   1.681
23314W        W88541  32.226  12.336  10.215
23315W        W88542  38.478  29.817   1.607
23316W        W88543  33.468  20.378  14.858
23317W        W88544   3.408  34.566  11.896
23318W        W88545  19.381   1.544  13.751
23319W        W88546   4.119  35.869  14.338
23320W        W88547   2.729  25.742   3.189
23321W        W88548  32.127  42.702  12.619
23322W        W88549  14.374   4.746  12.077
23323W        W88550  31.290  25.520   3.426
23324W        W88551  33.474  26.385  14.745
23325W        W88552  17.778  18.959  12.900
23326W        W88553  22.127  35.807  11.831
23327W        W88554   5.315  44.489   4.021
23328W        W88555  30.143  41.864   4.541
23329W        W88556   6.474  30.656  11.512
23330W        W88557  13.261  14.715  10.486
23331W        W88558  31.126  21.766  13.995
23332W        W88559  42.158  20.633  11.156
23333W        W88560  16.362  16.591   1.835
23334W        W88561   5.579  18.802  11.208
23335W        W88562  26.351  21.968  11.144
23336W        W88563  17.078  16.432   2.860
23337W        W88564  42.445  36.816  14.018
23338W        W88565  42.971  19.685   0.410
23339W        W88566   3.120   2.361  14.895
23340W        W88567  20.587  14.196   1.934
23341W        W88568  23.484   3.400  11.709
23342W        W88569  44.535  14.677   3.596
23343W        W88570  41.771  12.647  10.695
23344W        W88571  14.522  12.725  14.426
23345W        W88572  27.151   4.690   1.328
23346W        W88573  42.059  15.131   4.307
23347W        W88574  17.607  17.727  12.036
23348W        W88575   5.757  20.983   3.719
23349W        W88576   1.766  20.053  13.492
23350W        W88577  29.987  35.904  10.977
23351W        W88578   0.297   3.350  10.904
23352W        W88579  26.076  22.135   0.979
23353W        W88580  44.722  28.979  12.014
23354W        W88581  27.276  35.484  12.014
23355W        W88582  10.564  18.102   1.629
23356W        W88583  43.780   2.031   2.976
23357W        W88584  21.289  34.920  11.958
23358W        W88585  36.372  21.611  11.936
23359W        W88586  40.829  43.246   3.288
23360W        W88587  11.866  24.146  13.735
23361W        W88588  38.524  16.812  12.515
23362W        W88589   1.797  14.300   2.422
23363W        W88590  25.650  16.171  11.490
23364W        W88591   2.452  44.394   3.594
23365W        W88592  42.625  14.611  11.830
23366W        W88593  24.642  23.761   0.450
23367W        W88594  24.557  11.161  12.988
23368W        W88595   9.606  34.877  13.521
23369W        W88596   5.423  18.817   4.456
23370W        W88597   3.040  44.337   1.921
23371W        W88598  38.800  39.086  14.798
23372W        W88599  15.791  24.063   0.004
23373W        W88600  35.609  14.119  14.441
23374W        W88601   7.656  39.750   3.698
23375W        W88602   1.198   6.755  13.397
23376W        W88603   3.294  17.144   3.248
23377W        W88604  27.978  36.285  14.366
23378W        W88605  14.348  20.134   4.817
23379W        W88606  13.522  31.631  13.065
23380W        W88607  29.052  32.889  14.278
23381W        W88608  14.622  21.684   2.202
23382W        W88609   1.421   4.147   1.797
23383W        W88610  30.861  23.522  10.704
23384W        W88611  32.985   5.320   3.262
23385W        W88612  11.609  27.656   3.709
23386W        W88613  18.085  42.072   3.198
23387W        W88614  44.119  19.789  14.899
23388W        W88615   9.821  17.632   0.472
23389W        W88616  36.466  22.720  12.679
23390W        W88617   0.302   9.466   0.835
23391W        W88618  19.603  19.507  10.714
23392W        W88619  30.257  22.558   0.573
23393W        W88620   4.127  34.782   3.453
23394W        W88621  22.767  37.107   4.970
23395W        W88622  39.836  25.292   3.134
23396W        W88623  41.884  18.216   3.585
23397W        W88624  13.799  42.000   3.676
23398W        W88625   0.363  44.575   4.941
23399W        W88626  19.999  16.195  12.501
23400W        W88627   8.401  29.266   3.629
23401W        W88628  36.387  41.961   4.759
23402W        W88629  44.295  35.317  11.559
23403W        W88630  20.182  38.261   0.547
23404W        W88631   1.428  32.084   5.041
23405W        W88632  31.468  25.594  12.890
23406W        W88633  19.219  37.206   2.287
23407W        W88634  18.373  37.987   1.768
23408W        W88635   6.189  29.632   4.542
23409W        W88636   1.356  12.131  14.778
23410W        W88637  35.503  36.356   4.092
23411W        W88638   2.477  12.858  14.414
23412W        W88639  20.608   3.023   2.686
23413W        W88640   2.825  28.905   0.250
23414W        W88641  12.192  10.126   3.211
23415W        W88642   2.167  20.684  14.280
23416W        W88643  35.639  22.166  11.116
23417W        W88644  43.299  16.464  13.525
23418W        W88645  30.548   3.760  12.030
23419W        W88646  21.652  22.731   4.343
23420W        W88647  25.755   5.675  13.730
23421W        W88648  35.181   3.385  13.496
23422W        W88649  30.869  31.836   3.178
23423W        W88650   8.107  35.713  12.124
23424W        W88651   7.667  35.385   0.186
23425W        W88652  27.700   2.156  13.832
23426W        W88653   0.019  14.765   4.695
23427W        W88654  38.235  37.653  10.031
23428W        W88655   1.304  23.660  11.946
23429W        W88656  42.278  41.455   3.423
23430W        W88657  44.590  21.943   4.083
23431W        W88658  27.676  14.722  13.608
23432W        W88659  26.208  27.441   4.574
23433W        W88660  30.614   2.820   2.292
23434W        W88661  11.597   6.415  12.796
23435W        W88662  22.290  32.360   1.676
23436W        W88663  15.347   6.625  14.069
23437W        W88664  41.880  30.222  13.066
23438W        W88665   0.841  35.117   0.781
23439W        W88666   7.698  22.014   2.202
23440W        W88667  39.814  13.105  12.171
23441W        W88668  34.913  28.966   3.405
23442W        W88669   3.480  43.087   0.856
23443W        W88670  26.912  36.259  11.561
23444W        W88671   5.532  24.929   4.708
23445W        W88672  37.481   0.109   4.677
23446W        W88673  17.588  41.881   0.297
23447W        W88674  15.601  24.566  14.957
23448W        W88675   2.138  12.349  14.032
23449W        W88676  16.137  28.914  13.154
23450W        W88677  31.934   4.038   1.650
23451W        W88678  34.016  11.086   9.693
23452W        W88679  21.526   0.484  10.628
23453W        W88680  34.936  38.956   3.291
23454W        W88681  26.872  40.291   4.099
23455W        W88682  21.962   9.658  14.514
23456W        W88683  41.802  41.518  13.844
23457W        W88684  11.021   0.317   1.055
23458W        W88685  30.875  34.403   0.223
23459W        W88686   0.428  31.888   3.598
23460W        W88687  42.529  23.730   0.430
23461W        W88688   1.357   7.937   1.420
23462W        W88689  42.236  41.131   1.233
23463W        W88690  26.040  20.354  10.393
23464W        W88691   0.837  39.901  13.423
23465W        W88692  38.798  19.537   0.351
23466W        W88693  42.268  39.112   0.846
23467W        W88694  28.477  44.445   3.739
23468W        W88695  16.602  38.286  11.708
23469W        W88696  14.769  21.102   0.484
23470W        W88697  30.579  24.490   0.084
23471W        W88698  43.643   5.589  12.985
23472W        W88699  43.336  23.262   4.579
23473W        W88700  18.970  23.298   2.284
23474W        W88701   2.926   8.536   2.826
23475W        W88702  28.125  39.200   2.768
23476W        W88703  10.868  24.884   2.224
23477W        W88704  42.952  15.097   0.456
23478W        W88705  17.159  12.556  12.300
23479W        W88706  25.052  33.356   2.113
23480W        W88707  34.192  30.438  11.136
23481W        W88708  27.608   9.712  14.088
23482W        W88709  42.266  10.161  13.727
23483W        W88710   4.648   3.804   2.802
23484W        W88711  18.241  35.489  13.468
23485W        W88712  15.661  18.661  12.319
23486W        W88713  20.555  30.842   0.827
23487W        W88714  34.452  14.370   1.326
23488W        W88715  19.013  24.931  13.495
23489W        W88716  15.738  34.475   0.274
23490W        W88717  37.559   1.647  11.144
23491W        W88718  40.850  28.997  14.662
23492W        W88719  36.729   7.434   2.331
23493W        W88720   8.857  28.582  12.588
23494W        W88721  10.373  43.762  13.381
23495W        W88722  35.068  26.008  13.612
23496W        W88723   3.336  12.621   0.383
23497W        W88724  13.548  16.780  12.429
23498W        W88725  36.072  20.854  14.511
23499W        W88726  26.831   4.931  10.809
23500W        W88727  18.087  34.556  11.160
23501W        W88728  35.894  23.805  12.492
23502W        W88729  27.626  25.087   1.777
23503W        W88730  22.222  35.909   0.314
23504W        W88731  11.914  19.649   0.430
23505W        W88732  14.747  30.575  14.085
23506W        W88733  10.347   8.281   4.537
23507W        W88734  43.966  35.122  14.479
23508W        W88735  34.054  20.194   1.933
23509W        W88736  37.371  42.244  12.570
23510W        W88737  17.098   7.179   9.904
23511W        W88738  10.123  27.459   2.321
23512W        W88739  16.372   5.469  12.532
23513W        W88740  28.768   0.516   0.848
23514W        W88741  44.672  42.968  13.522
23515W        W88742  13.102  22.258   2.754
23516W        W88743  37.946  25.020  12.361
23517W        W88744  30.750  35.897  12.485
23518W        W88745  35.175  15.856   0.333
23519W        W88746  11.579  27.905  14.752
23520W        W88747  30.419  41.099  11.248
23521W        W88748   7.471  16.321  12.132
23522W        W88749  37.848  44.422  13.756
23523W        W88750  22.435  29.178   2.104
23524W        W88751  34.299  14.197  12.595
23525W        W88752  42.435  11.623  11.103
23526W        W88753  39.767  31.989  12.982
23527W        W88754  11.862  30.856   2.847
23528W        W88755  11.387  29.747  14.839
23529W        W88756  29.473  24.140   2.893
23530W        W88757  30.246  28.824  12.923
23531W        W88758   3.856  10.380   1.195
23532W        W88759  39.245  42.359   0.966
23533W        W88760   0.887   2.902   1.728
23534W        W88761   9.306  12.881  12.950
23535W        W88762  38.901  42.982   0.301
23536W        W88763  40.466  18.518   4.651
23537W        W88764   2.717  30.556  14.004
23538W        W88765  22.103  27.169   1.996
23539W        W88766  29.434   1.193   4.293
23540W        W88767  19.933  27.508   2.809
23541W        W88768   2.765  44.851   2.785
23542W        W88769  17.505  26.792  14.453
23543W        W88770  31.638  15.672   3.262
23544W        W88771  13.649  44.528  11.195
23545W        W88772  23.000   8.631   1.464
23546W        W88773  33.869  40.894   4.633
23547W        W88774  19.389  13.447  12.960
23548W        W88775  41.215  24.310  11.215
23549W        W88776  15.237  38.803   3.178
23550W        W88777  25.017  39.529  14.626
23551W        W88778  25.931  44.946   1.729
23552W        W88779  44.047  30.992   1.912
23553W        W88780  27.307   4.969  12.489
23554W        W88781  24.962   0.239  13.954
23555W        W88782  10.916  35.674   3.878
23556W        W88783   4.801  28.904  12.587
23557W        W88784  14.342  14.690  12.982
23558W        W88785  21.799  35.949   2.741
23559W        W88786  26.683  24.017  10.702
23560W        W88787  17.271  33.203  11.151
23561W        W88788  26.087  24.258   3.663
23562W        W88789   2.680  34.425   2.830
23563W        W88790  34.404   2.942   2.776
23564W        W88791  10.499  15.927   4.780
23565W        W88792  15.466  37.442  14.870
23566W        W88793  11.703  26.566   2.439
23567W        W88794  20.399  35.992  10.981
23568W        W88795  41.814   8.940   2.443
23569W        W88796  30.508  12.889  11.541
23570W        W88797  37.321  10.415   0.011
23571W        W88798   0.895  34.954   3.792
23572W        W88799  39.591  27.519  11.579
23573W        W88800   2.135  17.623  12.388
23574W        W88801  20.987  37.523  14.406
23575W        W88802  12.271  39.095  12.617
23576W        W88803  21.256  44.329   2.175
23577W        W88804  22.057  23.263  11.448
23578W        W88805  10.182  17.031   0.839
23579W        W88806  32.512  28.305   3.623
23580W        W88807  40.649  19.520  14.041
23581W        W88808  24.545  11.575  12.135
23582W        W88809  22.122  27.019   1.500
23583W        W88810   9.455  44.921  12.209
23584W        W88811   2.421  22.511  13.310
23585W        W88812  28.952  22.099   4.056
23586W        W88813   0.812  10.300   2.766
23587W        W88814  37.578  29.633  12.997
23588W        W88815  24.365  39.942   3.642
23589W        W88816  31.657  21.585  11.344
23590W        W88817  30.417   5.138   3.269
23591W        W88818  41.476  36.551  14.297
23592W        W88819   7.470   9.909   1.393
23593W        W88820  32.409   1.402   1.032
23594W        W88821   1.399  40.411  11.749
23595W        W88822  37.328  12.239  13.898
23596W        W88823  24.483  35.539   0.740
23597W        W88824   2.369  19.029  12.865
23598W        W88825  22.540   0.186  12.541
23599W        W88826   5.116  24.588   2.641
23600W        W88827  36.393  25.934   3.649
23601W        W88828  15.434  14.302   3.662
23602W        W88829   6.263  39.625   0.890
23603W        W88830  37.360   7.801  14.831
23604W        W88831  29.436  33.338  13.104
23605W        W88832  44.515  21.344  11.696
23606W        W88833  18.177  28.061  14.462
23607W        W88834  37.358  16.440   4.349
23608W        W88835   7.239  15.807  14.551
23609W        W88836  16.166  11.187  10.712
23610W        W88837  33.897  15.076  11.519
23611W        W88838   5.094  37.975   1.441
23612W        W88839  36.001  25.826  13.028
23613W        W88840  12.552  16.922   0.715
23614W        W88841  34.548  44.334  13.084
23615W        W88842   4.738  24.638  13.064
23616W        W88843  19.168  37.357  10.572
23617W        W88844   7.825  43.749  13.907
23618W        W88845  14.309  20.286   2.725
23619W        W88846  21.171  22.997  10.946
23620W        W88847   0.131   0.174   4.135
23621W        W88848  29.899  29.641  11.780
23622W        W88849  10.360  29.455  11.127
23623W        W88850  30.550  16.702  14.498
23624W        W88851  32.960   2.758   4.428
23625W        W88852  38.361  40.708  14.868
23626W        W88853  38.470  21.539   3.093
23627W        W88854  23.137  13.794   3.076
23628W        W88855   4.982   3.927   2.104
23629W        W88856   8.010   1.871   1.424
23630W        W88857  13.452  44.677  12.057
23631W        W88858  33.237  24.965  13.036
23632W        W88859  32.593  16.020   2.548
23633W        W88860  41.127  34.548   1.877
23634W        W88861  39.462  43.499  12.941
23635W        W88862  39.804   8.883   3.806
23636W        W88863  26.468  22.581   2.417
23637W        W88864  19.867   3.302   5.466
23638W        W88865  22.684  27.918   9.987
23639W        W88866   0.801  30.459  12.205
23640W        W88867  19.672  29.447   3.870
23641W        W88868   2.766  34.638   1.844
23642W        W88869  21.032  23.829   3.634
23643W        W88870  14.643  32.780   2.763
23644W        W88871  17.714  10.504   3.421
23645W        W88872  34.389  11.370  10.980
23646W        W88873  31.936  19.266   1.869
23647W        W88874  40.770  34.063  11.603
23648W        W88875   6.687   1.359   4.288
23649W        W88876  15.147  25.289   4.353
23650W        W88877  44.891  13.164   1.322
23651W        W88878  10.957  17.316  14.717
23652W        W88879  27.790  20.765  11.941
23653W        W88880  32.861   4.953  10.508
23654W        W88881  15.690  38.093   3.877
23655W        W88882  43.742  29.681   0.245
23656W        W88883  34.160  12.764   3.555
23657W        W88884   9.041  29.562  13.063
23658W        W88885  15.994  22.172   4.711
23659W        W88886   3.823   7.379   2.395
23660W        W88887   9.433  21.320   3.079
23661W        W88888  44.799  27.729   2.009
23662W        W88889   2.225  10.317   2.784
23663W        W88890  30.837   6.905   4.158
23664W        W88891   5.747  27.764  13.268
23665W        W88892   0.628  36.730   1.710
23666W        W88893   1.291   1.430  13.333
23667W        W88894  27.803  18.004   4.474
23668W        W88895  12.035  25.040  11.355
23669W        W88896  30.037  34.387   4.477
23670W        W88897  11.720  29.467  10.711
23671W        W88898   4.137  15.734  11.710
23672W        W88899  15.808   7.501  14.593
23673W        W88900  22.325  42.546   4.367
23674W        W88901  30.732  29.142  10.173
23675W        W88902  24.636  16.081  11.630
23676W        W88903  11.329  36.904  11.152
23677W        W88904   0.949   0.512   0.837
23678W        W88905  28.557  32.937   1.763
23679W        W88906  16.976  35.105   4.459
23680W        W88907  25.718  36.345   3.289
23681W        W88908  28.167  19.317  13.591
23682W        W88909  23.408   8.798   2.322
23683W        W88910  42.860  38.032   1.244
23684W        W88911  18.762  24.009   3.896
23685W        W88912   4.502   7.973  12.843
23686W        W88913   9.151   0.480  10.639
23687W        W88914  20.246  14.099  13.075
23688W        W88915   4.171  11.264  10.672
23689W        W88916  40.498   9.779  13.381
23690W        W88917  11.464  20.612  11.618
23691W        W88918  11.282  24.813   3.667
23692W        W88919  33.288  26.110   2.414
23693W        W88920   1.756  17.326  11.996
23694W        W88921  24.435  19.487   0.293
23695W        W88922  15.562  38.252   2.886
23696W        W88923  41.558  37.323  13.355
23697W        W88924  32.578   0.834  13.395
23698W        W88925  30.111  45.000  10.711
23699W        W88926  18.674  31.408  13.630
23700W        W88927  35.942  13.521   0.727
23701W        W88928   1.288  12.674   4.485
23702W        W88929  43.479  18.972   3.037
23703W        W88930  27.400  21.709   3.134
23704W        W88931  15.865   6.259  14.872
23705W        W88932  14.274  17.197   4.944
23706W        W88933  11.793  25.082   2.657
23707W        W88934  28.040   5.989   4.763
23708W        W88935   4.762  10.195  14.104
23709W        W88936  39.484  10.689   3.381
23710W        W88937   2.450  29.047  14.477
23711W        W88938  41.842   7.409   2.670
23712W        W88939  42.076  42.249  11.159
23713W        W88940  28.653  24.452   3.792
23714W        W88941  33.374  35.897  14.378
23715W        W88942  24.889  32.706  11.240
23716W        W88943   6.295  44.600   4.292
23717W        W88944  29.913  12.136  13.021
23718W        W88945  38.960  39.114   1.629
23719W        W88946  17.798  42.751   2.979
23720W        W88947  21.996  25.110  13.584
23721W        W88948  31.208  39.036   3.158
23722W        W88949  34.634  31.204  10.840
23723W        W88950  26.258  19.519   0.451
23724W        W88951  23.508  40.065   2.142
23725W        W88952  24.667   1.456   0.229
23726W        W88953  40.014   2.349   4.534
23727W        W88954   7.963   0.379  14.045
23728W        W88955  43.321  29.882   2.736
23729W        W88956  21.879  33.360  11.952
23730W        W88957  17.361  19.660  12.745
23731W        W88958  32.444  33.683   0.850
23732W        W88959  27.721  32.036   3.478
23733W        W88960  11.696  33.491  13.878
23734W        W88961  16.211  43.834  11.825
23735W        W88962  19.958  39.247  12.067
23736W        W88963  39.841  20.469  12.086
23737W        W88964  33.522  27.057   4.958
23738W        W88965  43.250  11.041   3.297
23739W        W88966  27.011  30.589   0.415
23740W        W88967  17.494   7.722   0.684
23741W        W88968  43.742  29.554   3.639
23742W        W88969  29.628  34.601  11.141
23743W        W88970   3.424  12.645   2.675
23744W        W88971  20.774  12.605  11.550
23745W        W88972  24.630  20.981  12.891
23746W        W88973  33.436  44.949  10.974
23747W        W88974  27.079   1.704   9.983
23748W        W88975  15.851  29.496   4.619
23749W        W88976  18.416   4.767  12.938
23750W        W88977  38.391  17.258  13.855
23751W        W88978  44.897   6.305   0.139
23752W        W88979   1.455  36.776   1.213
23753W        W88980  35.469  10.364  13.601
23754W        W88981  37.135   3.025  14.052
23755W        W88982  11.871   0.339  14.427
23756W        W88983  26.227  17.327  14.711
23757W        W88984  28.069  17.187  14.836
23758W        W88985  21.783  26.575  10.651
23759W        W88986   5.440  37.843  13.254
23760W        W88987  34.429   4.880  10.426
23761W        W88988   5.417  16.734   1.838
23762W        W88989  16.777  31.219  14.382
23763W        W88990  20.143   3.632  11.077
23764W        W88991  28.038  22.765   0.842
23765W        W88992  15.109  14.084  12.106
23766W        W88993  44.420  43.017   0.350
23767W        W88994  32.950  28.956   2.302
23768W        W88995  19.128  16.826  11.137
23769W        W88996   2.996  25.295   3.187
23770W        W88997  12.719  25.191  13.089
23771W        W88998   9.772  18.777  11.692
23772W        W88999  32.395   0.338   4.701
23773W        W89000   6.897  44.748   2.694
23774W        W89001  37.643  11.691  11.432
23775W        W89002  29.819  21.445   2.210
23776W        W89003  15.228  44.007   4.658
23777W        W89004  11.965  14.200   9.755
23778W        W89005  23.488   3.697   0.420
23779W        W89006  24.955   5.418  10.798
23780W        W89007   4.597  10.271  13.090
23781W        W89008  16.658   1.100  14.841
23782W        W89009   4.622  12.680  11.230
23783W        W89010  27.635   3.964   2.899
23784W        W89011  23.448   5.299   4.015
23785W        W89012  34.040   8.298  14.842
23786W        W89013  33.695  33.350  10.356
23787W        W89014  38.399  11.436  12.843
23788W        W89015  13.292  19.757  14.432
23789W        W89016  38.494  37.219   0.899
23790W        W89017  29.993   3.314   0.015
23791W        W89018  28.422  16.032   3.353
23792W        W89019  29.370  21.843  11.179
23793W        W89020   2.593  29.921   2.355
23794W        W89021  30.223  30.966   4.332
23795W        W89022  35.204  22.338   2.326
23796W        W89023  14.375   7.305  11.582
23797W        W89024  31.181  18.646  11.648
23798W        W89025   9.859  43.927  11.260
23799W        W89026   8.282  41.614  10.622
23800W        W89027  30.933  33.929  14.285
23801W        W89028  42.441  13.128   2.258
23802W        W89029  10.909  42.977  14.881
23803W        W89030   4.430  39.348   2.707
23804W        W89031  36.984   0.349   4.588
23805W        W89032  22.945  20.624  13.068
23806W        W89033  18.717  32.827   3.931
23807W        W89034   5.959  21.413  13.781
23808W        W89035  10.109  20.154   2.017
23809W        W89036  44.262  30.066  10.644
23810W        W89037   2.456  10.416   5.079
23811W        W89038  29.481  16.195  12.278
23812W        W89039  11.662  17.872  14.322
23813W        W89040  37.605  15.767  12.564
23814W        W89041   8.836   2.164   0.859
23815W        W89042  44.453   8.405  13.414
23816W        W89043  19.786  21.298  11.653
23817W        W89044   7.518  28.977  13.803
23818W        W89045  20.122  40.045  10.912
23819W        W89046  12.209  31.139   0.163
23820W        W89047  33.819  10.186  12.475
23821W        W89048  36.476   0.508   3.734
23822W        W89049  15.768  31.098  10.822
23823W        W89050  31.143   2.031  13.502
23824W        W89051   4.577  18.962  12.931
23825W        W89052  11.413  33.387   2.234
23826W        W89053  31.680  26.963   0.314
23827W        W89054   1.021  28.616  13.087
23828W        W89055  23.691  27.675   3.369
23829W        W89056  39.725   7.427   5.026
23830W        W89057  12.808   4.974   0.324
23831W        W89058  11.618  12.105   3.707
23832W        W89059  41.243  39.877  14.133
23833W        W89060  31.074  18.528   0.956
23834W        W89061  16.694   4.588  14.405
23835W        W89062   8.385  29.686   0.231
23836W        W89063   3.415  18.976   2.580
23837W        W89064   7.883  43.819   3.674
23838W        W89065  27.533   6.442  14.447
23839W        W89066   8.142  17.758   0.861
23840W        W89067  16.613   8.138  12.947
23841W        W89068  15.135  41.013  13.342
23842W        W89069  29.978  20.331  14.335
23843W        W89070  15.002   9.267  11.651
23844W        W89071   3.874  16.502  10.980
23845W        W89072  32.626  19.215   3.264
23846W        W89073  43.119  39.797   0.485
23847W        W89074  24.904  34.910   1.946
23848W        W89075  24.505  12.843   0.311
23849W        W89076   3.764  22.656  11.606
23850W        W89077   9.675  41.492   1.388
23851W        W89078  18.146  16.240   3.184
23852W        W89079   1.551  16.248  14.666
23853W        W89080  18.003  40.305   5.072
23854W        W89081  27.508  28.254   3.930
23855W        W89082  29.242  37.645  11.673
23856W        W89083   6.796  10.123   4.385
23857W        W89084  24.191   8.754  13.809
23858W        W89085   6.451  25.070   4.026
23859W        W89086  10.748  39.934   3.288
23860W        W89087  16.944  29.713   2.795
23861W        W89088  35.514  11.478  11.442
23862W        W89089  41.704   8.949  10.829
23863W        W89090   9.106   3.275   1.866
23864W        W89091  34.985  22.456   1.477
23865W        W89092  39.039  41.527  13.456
23866W        W89093  15.080  32.563   4.091
23867W        W89094   7.866  15.764  14.704
23868W        W89095  38.261  11.024  11.883
23869W        W89096  13.242  36.794   1.809
23870W        W89097  32.838  10.292  14.816
23871W        W89098  27.684  41.068  10.642
23872W        W89099   4.405  10.230   0.346
23873W        W89100   1.253  23.996  10.259
23874W        W89101  11.527  24.861  11.233
23875W        W89102  19.632  42.887   3.200
23876W        W89103  23.497  11.613  13.723
23877W        W89104   8.696  38.062   4.200
23878W        W89105  17.917   1.485   3.743
23879W        W89106  36.550  36.829  13.950
23880W        W89107  20.225  35.975  12.554
23881W        W89108   7.020  24.127  14.330
23882W        W89109   1.868  13.908   4.030
23883W        W89110  16.065   0.326  12.949
23884W        W89111  34.390  26.285  12.949
23885W        W89112  32.118  38.024  11.724
23886W        W89113  34.985  10.202   5.146
23887W        W89114   9.604  21.279   0.727
23888W        W89115  25.680  12.744  12.090
23889W        W89116  40.584  33.128   1.884
23890W        W89117   3.865  40.704   3.809
23891W        W89118  27.544  25.997   4.182
23892W        W89119  44.739   5.965  10.380
23893W        W89120  19.595  23.823  11.178
23894W        W89121  41.690  19.009   0.246
23895W        W89122  21.188  43.347  13.950
23896W        W89123  31.862   5.296  13.101
23897W        W89124  13.677   2.270  10.507
23898W        W89125  29.854  10.980   3.274
23899W        W89126   5.817   9.820  13.873
23900W        W89127  18.350  32.521   2.330
23901W        W89128  44.972   0.797   4.118
23902W        W89129  36.594   9.037  10.610
23903W        W89130  12.094  42.936   4.400
23904W        W89131  10.407  15.192  13.793
23905W        W89132  23.977  32.535  12.513
23906W        W89133  15.822  17.682   2.226
23907W        W89134  14.179   0.889   3.010
23908W        W89135   4.448   6.817   1.135
23909W        W89136  14.293  36.898  14.475
23910W        W89137  29.347  31.392   1.489
23911W        W89138  39.292  39.054  14.925
23912W        W89139  25.047   9.084  12.398
23913W        W89140   1.192  37.994   4.522
23914W        W89141   6.823  17.629  11.090
23915W        W89142  30.951  25.670   1.430
23916W        W89143  12.129  26.281   3.230
23917W        W89144  43.474  42.004   2.243
23918W        W89145  37.369  38.534  12.879
23919W        W89146  17.750  36.970   0.320
23920W        W89147  18.610  14.288  14.911
23921W        W89148  18.722  10.854  13.844
23922W        W89149  25.352  31.881   1.185
23923W        W89150  21.652  17.173   2.862
23924W        W89151  18.860  31.916   3.712
23925W        W89152  30.359   1.007   4.216
23926W        W89153  39.736  42.560   2.889
23927W        W89154  38.795  33.316   2.716
23928W        W89155  44.838   9.560  11.360
23929W        W89156  33.479   8.778  12.374
23930W        W89157  27.832   4.695  10.824
23931W        W89158  30.325  23.691  10.455
23932W        W89159  37.518  32.123  13.533
23933W        W89160  35.396  32.287   1.825
23934W        W89161  10.664  36.077  14.466
23935W        W89162  18.264  35.864  13.054
23936W        W89163  31.962  24.224   3.129
23937W        W89164  12.419  10.178   1.803
23938W        W89165  30.428  41.859   2.795
23939W        W89166   3.924   4.206   1.497
23940W        W89167  29.063   5.012   1.432
23941W        W89168   9.712   2.529  13.657
23942W        W89169   2.511  24.919   2.292
23943W        W89170  27.912  26.653   1.810
23944W        W89171  25.006  34.383   1.831
23945W        W89172   4.650   1.234   0.756
23946W        W89173  36.126  11.307  13.171
23947W        W89174  22.436  37.432   4.755
23948W        W89175  29.430  29.024   1.804
23949W        W89176  23.193  44.786   1.270
23950W        W89177  35.416  14.147  12.061
23951W        W89178  37.255  10.523   4.552
23952W        W89179   3.174  38.746  10.127
23953W        W89180  30.037  24.887   3.698
23954W        W89181  13.585   8.261  13.914
23955W        W89182   8.489  20.147  11.634
23956W        W89183  36.337   4.772  11.938
23957W        W89184  25.609  18.816  11.215
23958W        W89185   2.212  17.123  12.581
23959W        W89186  24.984  33.085   0.823
23960W        W89187  20.088  14.385   0.792
23961W        W89188  14.100   3.153  13.961
23962W        W89189   9.664  24.961   3.676
23963W        W89190  12.605  42.633  13.792
23964W        W89191  38.052  23.097  12.026
23965W        W89192  34.556  12.378   4.151
23966W        W89193   6.427  14.569  11.269
23967W        W89194   3.714   6.139  12.460
23968W        W89195  43.899  41.885  14.164
23969W        W89196  26.483  39.880  12.875
23970W        W89197  17.053  27.470   3.363
23971W        W89198  39.119  30.120  10.615
23972W        W89199  22.121  27.931  12.537
23973W        W89200  15.867  43.494   3.195
23974W        W89201   7.345   4.381  10.516
23975W        W89202  36.934  19.264  11.054
23976W        W89203  29.620  31.488   4.019
23977W        W89204  34.105  26.721   4.553
23978W        W89205  12.980  21.618   4.983
23979W        W89206  19.939  31.208   2.356
23980W        W89207   8.630  32.038   1.023
23981W        W89208  10.125  29.081   4.657
23982W        W89209  17.128   2.178  11.668
23983W        W89210  40.077   4.467   2.601
23984W        W89211  40.301  15.806  13.437
23985W        W89212  32.050  39.453  10.124
23986W        W89213   8.264  24.643  12.515
23987W        W89214   0.612  37.744   1.695
23988W        W89215  35.265   2.841   0.736
23989W        W89216   1.896  39.310   4.138
23990W        W89217  17.296  27.408   0.816
23991W        W89218  24.556  41.796   0.427
23992W        W89219   0.951  20.831  11.725
23993W        W89220  27.229  20.800   4.365
23994W        W89221   6.138  34.970  13.840
23995W        W89222  31.541   6.683  11.622
23996W        W89223  24.564  37.936   4.124
23997W        W89224  17.430  32.007  14.671
23998W        W89225  16.677  22.462   3.587
23999W        W89226  20.600  36.896   3.586
24000W        W89227  36.989  38.110  14.298
24001W        W89228  32.945  30.967   4.153
24002W        W89229  10.148  13.124  12.635
24003W        W89230  24.442  27.068  11.970
24004W        W89231   7.443  30.488  13.841
24005W        W89232  13.862  34.019  12.377
24006W        W89233  39.013  38.087   4.300
24007W        W89234  39.052   3.012  10.545
24008W        W89235  18.330   8.932   0.751
24009W        W89236  38.839  29.686   3.282
24010W        W89237  10.894  10.204  12.873
24011W        W89238  19.113  26.446  13.585
24012W        W89239  42.519  11.586  14.847
24013W        W89240  43.906  17.059   4.034
24014W        W89241   1.385  31.054   4.356
24015W        W89242  34.328  36.975  14.435
24016W        W89243  12.888  13.117   2.985
24017W        W89244  44.714  38.492  11.197
24018W        W89245   5.107   5.536   3.151
24019W        W89246  27.645  11.676  14.277
24020W        W89247   2.942   1.512   2.215
24021W        W89248  22.267  38.953   2.269
24022W        W89249   4.682  20.640   3.423
24023W        W89250  15.561  24.753  11.542
24024W        W89251   3.993  42.571   2.747
24025W        W89252   1.326  13.830   2.179
24026W        W89253  29.436  16.206  12.793
24027W        W89254  17.618  22.250   3.623
24028W        W89255   3.379  20.467  10.898
24029W        W89256   9.985  40.283  12.476
24030W        W89257  36.442   9.096   3.142
24031W        W89258   4.910   4.145  12.049
24032W        W89259  14.570  29.883  14.943
24033W        W89260  38.451   0.995   4.614
24034W        W89261   5.695  40.157  12.266
24035W        W89262   8.731  14.214   4.915
24036W        W89263  22.572  13.343   0.352
24037W        W89264  14.183  41.509  10.959
24038W        W89265   4.374  19.552  13.494
24039W        W89266  10.046   6.731   1.430
24040W        W89267  43.558  16.819  13.961
24041W        W89268  30.530  24.816  11.020
24042W        W89269  10.762  44.035  12.510
24043W        W89270  22.175  35.585   3.640
24044W        W89271   0.363   1.672  11.229
24045W        W89272   1.270   3.753   3.643
24046W        W89273  41.598   3.225  12.484
24047W        W89274  43.062  15.739   1.199
24048W        W89275  12.751   5.655   4.658
24049W        W89276  30.902   4.681  11.753
24050W        W89277  20.257  36.845   4.008
24051W        W89278  10.553  34.003   1.668
24052W        W89279  25.946  39.444   3.189
24053W        W89280  43.445  44.490   4.502
24054W        W89281   2.156  35.552   4.159
24055W        W89282  12.151  28.219  11.816
24056W        W89283  11.693  24.170   1.335
24057W        W89284  41.019   7.501   4.654
24058W        W89285   5.184   5.473   1.790
24059W        W89286  20.276  20.072  10.782
24060W        W89287  15.410  41.993   1.241
24061W        W89288  30.252  36.019   1.769
24062W        W89289   9.429   4.414  14.796
24063W        W89290  43.548  14.385   2.682
24064W        W89291  10.875   2.307   2.281
24065W        W89292  10.997   2.495  10.528
24066W        W89293  42.579  13.365   2.744
24067W        W89294   4.386  14.722  10.358
24068W        W89295   8.994  19.378   4.844
24069W        W89296  19.594   5.383   4.201
24070W        W89297  21.774   0.906  13.822
24071W        W89298   0.486  17.341   0.038
24072W        W89299   5.884  21.583   0.862
24073W        W89300  26.673  15.245   2.091
24074W        W89301  15.766  34.028  11.532
24075W        W89302  44.924   3.845   0.406
24076W        W89303  22.211  24.655  13.516
24077W        W89304  19.963   0.860  14.797
24078W        W89305  38.004  14.112  14.469
24079W        W89306  16.316  40.830  13.565
24080W        W89307  20.178  40.858  11.241
24081W        W89308  40.988  20.810   1.643
24082W        W89309  39.309  34.682  14.333
24083W        W89310  39.074  14.815  13.953
24084W        W89311   5.079   6.197  12.533
24085W        W89312  22.024  41.827   1.941
24086W        W89313  17.237  44.346   4.233
24087W        W89314   7.268  19.599   1.328
24088W        W89315  14.095   2.802  11.063
24089W        W89316  24.506  25.466  11.054
24090W        W89317   6.217  40.007  13.424
24091W        W89318   5.496  24.558  12.107
24092W        W89319  38.074  23.958  14.853
24093W        W89320  43.737  20.891   3.169
24094W        W89321  18.487  38.974   1.414
24095W        W89322  40.767  10.436  11.606
24096W        W89323  44.039  15.550  13.737
24097W        W89324   1.660  15.722  11.108
24098W        W89325  33.286  16.187   1.729
24099W        W89326  32.632  23.134   3.586
24100W        W89327  18.250  13.245   1.921
24101W        W89328  40.496  13.867   2.377
24102W        W89329  44.665  30.292  13.532
24103W        W89330   5.777  33.938  11.036
24104W        W89331  19.853  43.978  11.586
24105W        W89332  41.383   5.706  11.648
24106W        W89333  33.548   7.464  14.967
24107W        W89334  30.584   5.149  12.028
24108W        W89335  40.292  28.892   1.313
24109W        W89336  17.270  33.908   1.690
24110W        W89337   9.631  37.354  13.293
24111W        W89338  25.044  30.453   2.943
24112W        W89339  17.606  36.955  12.525
24113W        W89340  41.555   2.347   3.444
24114W        W89341  18.124  31.812   1.882
24115W        W89342  35.731  35.124  13.757
24116W        W89343  22.040  27.541   1.649
24117W        W89344  28.076   7.304  10.111
24118W        W89345   1.017  28.537  10.767
24119W        W89346  14.233  36.842  12.001
24120W        W89347  19.602  27.215  13.159
24121W        W89348  43.127  42.956  14.726
24122W        W89349  10.052  10.808   3.274
24123W        W89350  19.978  29.044  11.887
24124W        W89351   1.065  18.605   3.574
24125W        W89352   8.357   1.211  11.597
24126W        W89353  30.362   7.379  10.526
24127W        W89354  36.872   6.083   4.821
24128W        W89355  11.328  43.348   3.284
24129W        W89356  39.418  15.729   2.214
24130W        W89357  27.006  34.969   4.408
24131W        W89358  14.865  40.384  14.196
24132W        W89359  31.039  43.875   1.021
24133W        W89360  16.775  31.720  14.007
24134W        W89361   2.534  22.954  14.101
24135W        W89362   7.638   4.760  13.333
24136W        W89363  31.306   5.215  14.527
24137W        W89364  44.895  42.433  14.777
24138W        W89365   3.426  43.291   3.169
24139W        W89366   9.536  31.986   0.866
24140W        W89367  21.788  41.016   3.630
24141W        W89368  14.246   2.859   0.626
24142W        W89369  37.561  30.861   5.273
24143W        W89370  38.347  44.323  11.647
24144W        W89371  16.709  35.064  11.571
24145W        W89372  17.167  12.651  10.631
24146W        W89373   6.276  21.241   2.205
24147W        W89374  36.884  12.193   2.072
24148W        W89375  23.224  14.522  13.619
24149W        W89376  36.978  21.225  14.720
24150W        W89377  34.158  12.797   9.893
24151W        W89378  11.192  11.671   1.792
24152W        W89379  28.709   0.985  14.925
24153W        W89380  20.984  33.955   2.746
24154W        W89381  19.100  12.485   4.092
24155W        W89382  30.701  33.379   0.314
24156W        W89383  13.620  12.567   1.292
24157W        W89384  29.637  39.083  13.875
24158W        W89385  43.749   8.945   2.163
24159W        W89386  16.245   6.925  11.589
24160W        W89387   3.181  31.813  14.551
24161W        W89388   0.317  32.647  10.648
24162W        W89389  39.990  28.604   0.798
24163W        W89390   7.811  37.427  11.210
24164W        W89391  21.743  13.375  10.775
24165W        W89392  20.869  33.042   4.929
24166W        W89393  30.964  38.667  11.278
24167W        W89394   2.837  38.597  13.641
24168W        W89395  13.236   1.250  11.196
24169W        W89396  36.791   6.710  14.331
24170W        W89397  19.993  31.222   4.168
24171W        W89398  26.554  23.304  14.803
24172W        W89399   2.953   0.682   3.192
24173W        W89400  13.619  39.097   2.683
24174W        W89401  33.386  21.941   1.256
24175W        W89402  30.884  44.519  11.565
24176W        W89403  31.802   6.524   0.960
24177W        W89404  22.428   6.807   0.379
24178W        W89405  36.374   9.585  13.100
24179W        W89406   0.495   3.459   1.409
24180W        W89407  11.170  16.256   4.092
24181W        W89408   9.732  18.866   1.731
24182W        W89409   1.703  13.803   1.379
24183W        W89410  20.559   1.775  11.950
24184W        W89411  23.934  32.539  12.002
24185W        W89412  27.191  41.329   0.918
24186W        W89413   6.796  33.388  13.296
24187W        W89414   9.811  25.070   3.172
24188W        W89415  44.201  39.870  12.294
24189W        W89416  29.235  27.780   2.247
24190W        W89417  41.411  37.354   3.236
24191W        W89418  15.910  44.684  12.434
24192W        W89419  34.102  12.789   5.470
24193W        W89420  40.384  18.798   4.185
24194W        W89421   8.102  22.196   4.321
24195W        W89422  18.110  28.591   1.847
24196W        W89423  31.393  41.037  14.054
24197W        W89424  31.000  43.760  13.876
24198W        W89425  42.542  21.593   2.433
24199W        W89426  43.297  23.026  10.822
24200W        W89427  13.436  36.355  10.821
24201W        W89428   5.484   2.976  13.107
24202W        W89429   3.407  19.099  10.483
24203W        W89430  35.053  11.808  11.945
24204W        W89431   7.610  31.592   1.677
24205W        W89432  42.505   4.450   2.668
24206W        W89433   1.666   0.031  14.957
24207W        W89434  37.650  33.821   3.183
24208W        W89435  33.345  18.281   1.454
24209W        W89436  38.424  20.267  14.985
24210W        W89437  39.077  35.370  11.674
24211W        W89438  32.173  20.540  12.543
24212W        W89439  23.771  14.033  10.291
24213W        W89440  40.370  25.234  13.516
24214W        W89441  38.496  25.986   0.860
24215W        W89442   1.875   8.972  11.805
24216W        W89443  37.107  21.963  12.116
24217W        W89444  15.739  18.640  13.773
24218W        W89445  11.271  18.489  13.258
24219W        W89446  15.204  44.174  14.101
24220W        W89447  34.868   3.676  11.233
24221W        W89448  17.157  15.707   2.333
24222W        W89449  25.094  29.985  14.831
24223W        W89450   8.236  39.322   1.758
24224W        W89451  11.645   5.729  13.386
24225W        W89452  13.841  39.390   4.020
24226W        W89453  15.846   3.216  12.214
24227W        W89454  34.887   1.757   4.567
24228W        W89455   7.609  11.415  13.565
24229W        W89456  33.587  20.463  12.585
24230W        W89457  38.972  41.906   0.240
24231W        W89458  15.531  41.270  12.526
24232W        W89459  19.333   3.821   0.189
24233W        W89460  40.561  12.360  14.043
24234W        W89461  39.139   4.273   0.678
24235W        W89462  13.737  33.645  11.610
24236W        W89463  43.412  32.538   2.734
24237W        W89464  43.056  11.267  13.601
24238W        W89465  10.888  20.284   2.371
24239W        W89466  40.850  33.699  14.389
24240W        W89467   6.838  25.710   4.778
24241W        W89468  18.614  17.544  11.935
24242W        W89469  29.715  26.075   3.270
24243W        W89470  13.743  24.064   1.592
24244W        W89471  41.849  42.427  10.724
24245W        W89472  11.258  19.106  11.509
24246W        W89473  19.994   3.349   0.139
24247W        W89474  14.509  30.669  11.389
24248W        W89475  43.854  17.902   4.560
24249W        W89476   0.725  28.950  13.361
24250W        W89477   3.121  29.986  13.250
24251W        W89478  23.116   4.756   2.255
24252W        W89479   4.343  11.049  12.092
24253W        W89480  22.668  44.339  14.601
24254W        W89481  16.964  38.555  11.493
24255W        W89482  18.807  16.759   1.339
24256W        W89483   8.710  39.592   0.076
24257W        W89484  12.327   9.335  11.287
24258W        W89485  32.548   3.383   2.930
24259W        W89486   9.845   1.979   0.319
24260W        W89487  12.298  24.123   2.985
24261W        W89488   2.977  14.960   4.509
24262W        W89489   9.506  36.164   0.959
24263W        W89490  33.879  22.178   3.865
24264W        W89491  22.347  36.611   2.348
24265W        W89492  15.805  16.114  11.741
24266W        W89493   8.397  27.994  12.436
24267W        W89494   6.868  34.862  13.419
24268W        W89495  10.172  43.562  11.113
24269W        W89496  11.767   3.309  13.571
24270W        W89497  20.353  41.613   1.512
24271W        W89498  38.387  38.791   4.210
24272W        W89499  29.061  36.319  12.924
24273W        W89500  14.235  29.547   1.635
24274W        W89501  33.436  24.259  13.379
24275W        W89502  43.489  17.025   4.325
24276W        W89503  43.924  38.490  12.390
24277W        W89504  24.098  11.812   2.971
24278W        W89505   8.722  41.496   2.285
24279W        W89506   1.776  14.785   1.348
24280W        W89507  38.597  27.930  13.600
24281W        W89508   2.783  23.765  13.955
24282W        W89509  34.448  19.789  14.091
24283W        W89510  27.658   6.779  10.440
24284W        W89511   4.342   9.253   0.709
24285W        W89512  26.051  28.896  12.979
24286W        W89513  32.582   6.459  12.867
24287W        W89514  34.530  18.139   3.619
24288W        W89515  37.766  10.896  13.501
24289W        W89516   7.338  43.777  14.913
24290W        W89517   1.268   3.137   3.378
24291W        W89518  35.700   3.576  13.212
24292W        W89519   8.136   6.589  14.011
24293W        W89520   0.895  32.503  13.968
24294W        W89521  12.049  32.159  12.957
24295W        W89522  32.412  19.071   2.806
24296W        W89523  13.462  27.561   3.257
24297W        W89524  34.913   1.928  10.711
24298W        W89525  37.330  12.855   0.983
24299W        W89526  25.315  12.413  10.335
24300W        W89527  18.199  26.408   1.649
24301W        W89528  43.493  15.653   2.264
24302W        W89529   2.081  19.198  11.478
24303W        W89530  14.302  33.384  10.214
24304W        W89531  16.318  17.891  12.422
24305W        W89532  41.690   2.807   4.585
24306W        W89533  44.355  22.503  14.655
24307W        W89534   4.134   8.153  14.734
24308W        W89535  36.026   9.779  11.606
24309W        W89536  42.233   0.771   5.017
24310W        W89537  39.433  32.419  11.791
24311W        W89538  32.106  20.869  14.906
24312W        W89539  36.860  29.915   1.147
24313W        W89540  14.350   0.859   3.674
24314W        W89541  14.796   7.257  14.400
24315W        W89542  15.760  18.287   3.055
24316W        W89543  27.508  24.301  14.412
24317W        W89544  39.319  20.200   3.108
24318W        W89545  10.374  19.913   2.381
24319W        W89546  40.851  41.260  14.005
24320W        W89547  28.622  31.228  11.044
24321W        W89548  41.816  28.715  13.096
24322W        W89549  29.918  29.829  13.850
24323W        W89550  17.809  22.566   4.435
24324W        W89551  18.298  13.070   0.284
24325W        W89552   6.486   9.885  11.586
24326W        W89553  40.543  13.639   0.120
24327W        W89554  19.756   6.888  11.596
24328W        W89555  44.368  39.775  12.772
24329W        W89556  32.668  31.067  13.874
24330W        W89557   9.134  21.888  11.114
24331W        W89558  40.091   6.543  13.056
24332W        W89559  21.033   3.279   9.907
24333W        W89560   1.939   0.329  10.745
24334W        W89561  12.089  28.113   2.554
24335W        W89562  32.732  41.454  10.970
24336W        W89563  29.644   9.797   4.066
24337W        W89564  35.931  39.574   2.547
24338W        W89565  26.949   3.552   0.320
24339W        W89566   5.198  10.721   2.461
24340W        W89567  18.868  40.814   3.426
24341W        W89568  29.993  15.618  13.309
24342W        W89569  37.092  32.970  13.539
24343W        W89570   7.299   4.370   1.273
24344W        W89571  37.191   0.953   2.268
24345W        W89572  14.620  11.643   2.720
24346W        W89573   5.238  43.692  13.077
24347W        W89574   0.518  38.873  13.736
24348W        W89575  23.726  28.540  12.970
24349W        W89576  11.974  16.660   4.172
24350W        W89577  41.234  26.148   5.003
24351W        W89578   9.865  43.798   1.947
24352W        W89579  35.925  18.772   5.012
24353W        W89580  34.840  36.510  14.945
24354W        W89581  24.615  36.836  11.691
24355W        W89582  20.890   4.995  12.899
24356W        W89583  30.250  18.767   4.145
24357W        W89584  38.969  27.588   3.765
24358W        W89585   4.291   1.292  14.856
24359W        W89586  44.003  41.992   1.222
24360W        W89587  26.040  44.688  14.301
24361W        W89588  18.722  34.453  12.541
24362W        W89589  36.392  29.611   3.392
24363W        W89590  15.845  37.401   0.292
24364W        W89591  34.947  38.496   3.878
24365W        W89592  33.724  13.669   4.817
24366W        W89593   4.970   2.719  14.951
24367W        W89594  21.178  13.295   1.844
24368W        W89595   2.453  28.766   4.029
24369W        W89596  36.976   7.847  14.010
24370W        W89597   8.015   4.816   4.853
24371W        W89598  36.675   2.619   5.104
24372W        W89599  27.019  42.753   2.564
24373W        W89600  19.899  23.408  11.162
24374W        W89601   1.376  34.482   1.879
24375W        W89602  16.725  41.639   1.312
24376W        W89603  31.943  33.764  11.956
24377W        W89604   0.750   8.797   1.919
24378W        W89605  33.124  11.251   0.449
24379W        W89606   7.495  12.720   3.631
24380W        W89607  44.894  20.519   2.725
24381W        W89608   8.679  32.360   0.480
24382W        W89609  34.486  30.088   0.765
24383W        W89610  30.778  12.674   4.481
24384W        W89611  12.173   6.892   2.923
24385W        W89612  34.910  17.188  10.568
24386W        W89613   5.178  43.795   1.269
24387W        W89614  15.859  27.126  14.863
24388W        W89615  38.388  15.181   4.635
24389W        W89616  35.926  11.832  14.951
24390W        W89617  38.883  20.649   9.883
24391W        W89618  35.095  25.674   3.234
24392W        W89619   8.867  36.803  14.218
24393W        W89620  28.829  13.265   0.725
24394W        W89621  38.820  41.005   1.801
24395W        W89622  33.444   8.296   1.022
24396W        W89623  43.462  36.051   1.106
24397W        W89624  40.778  27.598   0.530
24398W        W89625   5.899  25.836  10.973
24399W        W89626  44.487  30.724   2.627
24400W        W89627  21.527  40.315   1.178
24401W        W89628  13.053  10.556  14.800
24402W        W89629  10.848  11.444   4.191
24403W        W89630  18.060  17.830   1.722
24404W        W89631  40.863  34.566  11.650
24405W        W89632  12.645  34.351   3.773
24406W        W89633  28.316  12.778   3.216
24407W        W89634   8.328  25.637  13.493
24408W        W89635   8.593  29.645   1.417
24409W        W89636  30.617  30.932  12.216
24410W        W89637  29.430  23.141  12.171
24411W        W89638  14.163  21.867   0.717
24412W        W89639  21.155  18.367   3.692
24413W        W89640  14.564  12.723  12.092
24414W        W89641  22.516  33.443   3.164
24415W        W89642  31.111   6.461   4.422
24416W        W89643  37.705   4.909   4.267
24417W        W89644  34.876  16.345  12.600
24418W        W89645  19.159  30.409   1.931
24419W        W89646   8.339  38.451   4.097
24420W        W89647  43.355   3.461   1.324
24421W        W89648  15.849  22.021   4.069
24422W        W89649  21.853  18.633  11.867
24423W        W89650  26.457  21.621  14.810
24424W        W89651  36.463   4.767   1.355
24425W        W89652  21.232  44.207   1.658
24426W        W89653  33.337  12.075  13.046
24427W        W89654  44.486  44.670  14.089
24428W        W89655  26.895  23.377   3.872
24429W        W89656   6.227   8.259   1.882
24430W        W89657  21.757  36.296  12.500
24431W        W89658  12.103   3.641   0.413
24432W        W89659  11.906  29.874  14.534
24433W        W89660  44.722  34.947   3.271
24434W        W89661   0.833  31.478  13.415
24435W        W89662  27.290   8.643   4.437
24436W        W89663  40.498  36.549   3.396
24437W        W89664  39.309  14.065  14.857
24438W        W89665  16.775  44.515   3.257
24439W        W89666   4.145  30.099   4.032
24440W        W89667  29.767  29.268  14.976
24441W        W89668  27.119  36.349   0.919
24442W        W89669   7.778  16.414   2.676
24443W        W89670  22.604  39.063   1.530
24444W        W89671  39.496  35.826   0.897
24445W        W89672  35.808  35.825  11.612
24446W        W89673  13.662  17.310  13.302
24447W        W89674  10.215  12.378   0.243
24448W        W89675  44.623  16.891  14.008
24449W        W89676  10.955  15.114   3.320
24450W        W89677  14.329   6.304   4.112
24451W        W89678  22.505  38.839  10.800
24452W        W89679   4.678  34.034  13.769
24453W        W89680  28.505   7.136   1.348
24454W        W89681  15.446   8.133   2.616
24455W        W89682  42.652  23.285   4.951
24456W        W89683  39.922  41.041  10.752
24457W        W89684  23.249  22.308  14.990
24458W        W89685  13.209  42.847  10.753
24459W        W89686  23.150  37.925  13.432
24460W        W89687   5.136  25.408   0.485
24461W        W89688  32.065   5.820  10.174
24462W        W89689  17.296   2.567   2.174
24463W        W89690  27.501  28.333  11.534
24464W        W89691  19.724  39.386  10.921
24465W        W89692  38.650  15.235  11.923
24466W        W89693  10.913  42.282  11.646
24467W        W89694  19.051  10.326   1.027
24468W        W89695  28.175  37.898  12.055
24469W        W89696  17.543  11.704   4.042
24470W        W89697  10.192  13.363  12.159
24471W        W89698  29.121  32.363   1.306
24472W        W89699  35.458   5.649  14.830
24473W        W89700  44.369   5.980   3.457
24474W        W89701  29.706   5.775   2.160
24475W        W89702   0.903  23.125  11.590
24476W        W89703   1.906  38.578   2.996
24477W        W89704  35.147  14.372  14.433
24478W        W89705  23.246  39.471  12.434
24479W        W89706  12.892  30.066  12.803
24480W        W89707  27.922  31.598  13.853
24481W        W89708  14.044  26.142   3.287
24482W        W89709  19.175  40.082   0.684
24483W        W89710  25.995  40.848   1.735
24484W        W89711   8.811   2.919  11.653
24485W        W89712  33.050  32.058  13.236
24486W        W89713  17.738  12.132  11.998
24487W        W89714  31.326   9.773   4.135
24488W        W89715  41.258  41.985   2.748
24489W        W89716  17.803  23.703   1.185
24490W        W89717  26.803  10.224  12.325
24491W        W89718   1.645  41.546   0.782
24492W        W89719  25.920  14.606   5.043
24493W        W89720  14.155  10.662   2.814
24494W        W89721  16.565  11.854  13.193
24495W        W89722  40.804   7.033   0.260
24496W        W89723   0.243  21.148   4.646
24497W        W89724  23.439  41.958   2.979
24498W        W89725  40.318  34.897  11.159
24499W        W89726  34.861  10.648   3.237
24500W        W89727  43.813  37.472  13.456
24501W        W89728  44.982  27.273  12.498
24502W        W89729  19.229  17.215  13.612
24503W        W89730  24.547  26.552   2.959
24504W        W89731  15.115  17.477  13.931
24505W        W89732  29.532  16.848   3.190
24506W        W89733  18.550  42.112   0.270
24507W        W89734  35.714   8.907   3.531
24508W        W89735  16.874  19.972   2.119
24509W        W89736   0.217  34.443  14.939
24510W        W89737  25.164  34.482   4.206
24511W        W89738  33.010  39.696   2.757
24512W        W89739   4.248  17.546  11.765
24513W        W89740  37.531  31.364   0.153
24514W        W89741   3.822  17.400  13.070
24515W        W89742  11.894   8.723   2.104
24516W        W89743   1.824  37.334   0.403
24517W        W89744  35.852  37.539  12.079
24518W        W89745  19.270   8.932   3.871
24519W        W89746  44.717  14.296  11.491
24520W        W89747  25.989  18.709  14.497
24521W        W89748  44.252   0.400  12.549
24522W        W89749  26.522  31.188   1.435
24523W        W89750  13.990  24.808   3.309
24524W        W89751   5.358  22.143   4.569
24525W        W89752  27.921  44.352   3.214
24526W        W89753  40.607  13.673  12.036
24527W        W89754  27.140   9.313   2.901
24528W        W89755  20.343  21.330  12.581
24529W        W89756  16.763  27.035  13.791
24530W        W89757  15.777  20.841   1.385
24531W        W89758  15.691  42.010   3.111
24532W        W89759  43.067   8.146  14.088
24533W        W89760  42.264   4.094   1.269
24534W        W89761  41.514  28.535   2.801
24535W        W89762  11.757  21.259  14.035
24536W        W89763  15.733  32.124   2.725
24537W        W89764   0.839  14.860  14.452
24538W        W89765   2.811  44.186   3.215
24539W        W89766  13.772  39.496  10.821
24540W        W89767  43.251  20.757   3.309
24541W        W89768   8.160  24.173   2.741
24542W        W89769  11.295  21.549  13.934
24543W        W89770   9.170  41.211   2.254
24544W        W89771   3.866  28.440  14.339
24545W        W89772  34.525  25.198   3.993
24546W        W89773   7.996  13.218   5.465
24547W        W89774  14.628  16.685   1.417
24548W        W89775  35.686  32.878   2.510
24549W        W89776  38.147  37.452   4.996
24550W        W89777  43.603   7.220   0.033
24551W        W89778  43.423  14.511   3.917
24552W        W89779  32.893  12.331   3.366
24553W        W89780  40.415  10.090  14.067
24554W        W89781  40.467  39.862  14.725
24555W        W89782  33.902  44.904   1.135
24556W        W89783  23.279   4.967  13.593
24557W        W89784  24.994   3.849   4.103
24558W        W89785  25.097  26.133   0.770
24559W        W89786  34.365  31.635   2.430
24560W        W89787  35.994   2.902   1.926
24561W        W89788   7.484   6.388  12.159
24562W        W89789  19.987  28.265   4.077
24563W        W89790  29.650  37.456  14.067
24564W        W89791  44.857  36.999   4.886
24565W        W89792  19.216  29.514   0.323
24566W        W89793  15.524  23.284  13.021
24567W        W89794  39.383  19.222   3.098
24568W        W89795  33.684  41.995  10.747
24569W        W89796  43.246  19.889   2.798
24570W        W89797  40.272   0.697  12.912
24571W        W89798  33.326   9.503   1.725
24572W        W89799  35.398   8.107   2.878
24573W        W89800   8.653  38.781  12.809
24574W        W89801  23.123   5.981  13.961
24575W        W89802  10.105   3.441  14.212
24576W        W89803  22.639  35.642  12.961
24577W        W89804  42.930   9.431   3.154
24578W        W89805  12.673  34.556  12.317
24579W        W89806  24.094  34.168   4.637
24580W        W89807   2.923  22.542  14.093
24581W        W89808  34.151   0.407   0.831
24582W        W89809  23.158  28.222   2.869
24583W        W89810  34.855  11.268   2.469
24584W        W89811  16.379  41.409   3.349
24585W        W89812   5.737  41.779  11.523
24586W        W89813  12.761  29.342   4.988
24587W        W89814  31.562  28.240   4.832
24588W        W89815   5.046  34.313   3.808
24589W        W89816  24.522   9.194  11.999
24590W        W89817  36.373  41.362  12.156
24591W        W89818  32.560  10.261   3.169
24592W        W89819  37.100  14.605   2.767
24593W        W89820  27.407  32.445   3.311
24594W        W89821  34.121   4.361   4.029
24595W        W89822   3.367  25.815  14.792
24596W        W89823  14.696  11.460   4.078
24597W        W89824  41.146  31.376   1.921
24598W        W89825  40.995  11.641   3.640
24599W        W89826  11.789  19.489  12.668
24600W        W89827  21.215  37.041  14.454
24601W        W89828  44.955  24.576  11.189
24602W        W89829  15.799  31.565   0.826
24603W        W89830  15.569   9.922  14.647
24604W        W89831  28.472   5.668   4.795
24605W        W89832  20.319  27.926   0.334
24606W        W89833  31.148   2.891  13.648
24607W        W89834   0.211  29.430   0.471
24608W        W89835   5.732  10.825  12.696
24609W        W89836  43.328  40.736   4.270
24610W        W89837  28.604  24.732  12.929
24611W        W89838   4.231   4.885  13.842
24612W        W89839  11.031  17.039   3.133
24613W        W89840  43.687  32.416  10.844
24614W        W89841  19.300   1.099   2.269
24615W        W89842   8.626  13.883   4.074
24616W        W89843   4.175  25.561   4.726
24617W        W89844  20.943  29.439  12.212
24618W        W89845  30.185  38.591  10.751
24619W        W89846   3.406   6.954  12.162
24620W        W89847  38.130   4.480   0.868
24621W        W89848   3.563  42.795   3.144
24622W        W89849  19.048   2.178   1.685
24623W        W89850   2.378  34.868  11.674
24624W        W89851  17.792  44.658   0.576
24625W        W89852   1.500  26.836  10.858
24626W        W89853  44.523  36.075  11.931
24627W        W89854   5.812  19.358   0.421
24628W        W89855  33.517   7.295   0.992
24629W        W89856  13.396  33.550  10.309
24630W        W89857  38.770  17.571  14.066
24631W        W89858   2.324  37.319   0.490
24632W        W89859  18.482  44.466   2.709
24633W        W89860  30.736  23.568  12.935
24634W        W89861  42.087  11.676  12.892
24635W        W89862  14.478   3.704   3.223
24636W        W89863  37.601  27.124   2.601
24637W        W89864  30.551  26.624  11.669
24638W        W89865  26.041  22.344   1.463
24639W        W89866  41.768  38.477  14.568
24640W        W89867  15.549  26.617  11.142
24641W        W89868   2.615   6.573  12.688
24642W        W89869  24.200   5.924  12.615
24643W        W89870  43.856  19.557  13.023
24644W        W89871   2.936  24.294   3.190
24645W        W89872  33.910  42.409   1.802
24646W        W89873  32.549   2.478   0.500
24647W        W89874  26.853  12.173   3.641
24648W        W89875  35.954  34.157   3.281
24649W        W89876  31.197  28.059   4.485
24650W        W89877  32.530  24.334   2.351
24651W        W89878  32.549  39.278   4.415
24652W        W89879   5.865  12.779  12.569
24653W        W89880  43.500  42.583   0.968
24654W        W89881  26.599  14.457  13.974
24655W        W89882   1.855  34.034  12.425
24656W        W89883   5.374  36.638   1.471
24657W        W89884  10.989   4.355   0.775
24658W        W89885  28.550   1.365  12.331
24659W        W89886  31.887  11.235   4.499
24660W        W89887  35.992  17.575   1.243
24661W        W89888   5.317  29.015  11.155
24662W        W89889   5.815  22.295  13.521
24663W        W89890  27.423   4.159  11.598
24664W        W89891   6.739  29.882   1.145
24665W        W89892  15.106   8.998   1.260
24666W        W89893  37.813  27.647  12.525
24667W        W89894  27.821   8.888   1.805
24668W        W89895  30.198   5.679   2.289
24669W        W89896  27.402  42.526   3.260
24670W        W89897   7.438  33.264  12.087
24671W        W89898  25.535  37.324   4.280
24672W        W89899   6.393   1.974  11.526
24673W        W89900  29.394  12.182   3.114
24674W        W89901  38.402   2.596  12.087
24675W        W89902   9.691  12.142   2.303
24676W        W89903   7.324  16.160   2.451
24677W        W89904  38.933   0.661   1.570
24678W        W89905   5.924   8.447  11.455
24679W        W89906   8.197  40.369  11.170
24680W        W89907  42.826  37.912  10.299
24681W        W89908   3.348  31.090   1.738
24682W        W89909  22.209  42.251  12.796
24683W        W89910  40.300  25.959  13.002
24684W        W89911  38.288  44.379   2.409
24685W        W89912  22.988  35.975  12.769
24686W        W89913  30.013  26.121  14.994
24687W        W89914  32.389  38.800  13.496
24688W        W89915  12.772  29.417   0.737
24689W        W89916  17.159  18.270   0.633
24690W        W89917  33.800  36.389   0.847
24691W        W89918  27.957   6.332   0.914
24692W        W89919  39.550  31.088   1.713
24693W        W89920  11.739   8.844   5.049
24694W        W89921  44.193  27.789  14.359
24695W        W89922  12.687  39.420  11.104
24696W        W89923  39.480  21.343   0.045
24697W        W89924  27.027  30.607  11.117
24698W        W89925  25.448  14.421   1.345
24699W        W89926  11.321  16.015  10.474
24700W        W89927  38.570   8.623  11.672
24701W        W89928  12.006  44.090  11.939
24702W        W89929   4.476  13.637   2.151
24703W        W89930   0.487  34.138   2.398
24704W        W89931  13.106  23.555   3.225
24705W        W89932  19.412  35.085   4.869
24706W        W89933  44.744   1.750   4.335
24707W        W89934  10.858   0.978  12.118
24708W        W89935  41.712  13.608   1.842
24709W        W89936   4.243  42.742  11.541
24710W        W89937  31.010   9.890  14.458
24711W        W89938  40.373  24.960   3.996
24712W        W89939  24.078  42.733  14.626
24713W        W89940  31.311  40.329   0.165
24714W        W89941  35.862   7.068  11.616
24715W        W89942  39.176  38.525   1.559
24716W        W89943  33.301   8.686   1.345
24717W        W89944  30.488  14.091  13.877
24718W        W89945  44.400  23.231   2.787
24719W        W89946  29.272  22.452  12.919
24720W        W89947  29.543   6.246   3.357
24721W        W89948  43.015  23.866   1.755
24722W        W89949   1.286  21.506  13.904
24723W        W89950  23.631  37.453  14.700
24724W        W89951   1.056  14.847   0.194
24725W        W89952  14.119  23.457  14.825
24726W        W89953  21.068  20.773   0.263
24727W        W89954  41.056   3.400  13.374
24728W        W89955   4.616  30.431  11.153
24729W        W89956   3.291  33.964  12.514
24730W        W89957  10.658  25.737  12.424
24731W        W89958  11.185  28.721  11.452
24732W        W89959  14.691  27.081  11.708
24733W        W89960  30.451  27.123  13.445
24734W        W89961   0.902  23.000   3.293
24735W        W89962  29.254  24.125  14.916
24736W        W89963   8.617   8.408  13.548
24737W        W89964   7.804   8.892   0.133
24738W        W89965  25.634  29.970   4.786
24739W        W89966   6.941  10.192  12.451
24740W        W89967   6.644  13.316  11.304
24741W        W89968  38.591  13.040   1.490
24742W        W89969   8.358   7.383  14.243
24743W        W89970  33.738  29.157   0.777
24744W        W89971  23.996   9.654  13.480
24745W        W89972  24.329  24.147   3.685
24746W        W89973  27.705  37.580   0.517
24747W        W89974  31.411  43.760  12.537
24748W        W89975  39.561  26.187   3.368
24749W        W89976  23.509  10.240  13.738
24750W        W89977  25.413  17.322  12.063
24751W        W89978  30.408   9.791  14.497
24752W        W89979  19.762  12.744   2.447
24753W        W89980  28.285  19.190   4.595
24754W        W89981  29.516  15.562   1.874
24755W        W89982  11.583  41.735   0.333
24756W        W89983  23.138  26.825   4.732
24757W        W89984  34.204   6.088   0.516
24758W        W89985  14.058  21.140  10.953
24759W        W89986   7.356  34.941  10.753
24760W        W89987  13.723  12.777   0.030
24761W        W89988  33.563   4.903   0.552
24762W        W89989  40.339  18.864  12.535
24763W        W89990  34.740  28.652   1.625
24764W        W89991  21.579  36.112   3.171
24765W        W89992  20.915  16.140  11.810
24766W        W89993   2.417  39.276   1.953
24767W        W89994  32.806  21.286   0.254
24768W        W89995  31.981  35.453   3.741
24769W        W89996  12.851  20.646   2.355
24770W        W89997  41.050  21.747  10.814
24771W        W89998  39.415  34.111   3.699
24772W        W89999   2.029   4.768  11.586
24773W        W90000  21.506  44.350  12.861
24774W        W90001  21.495  20.194  11.102
24775W        W90002  44.359  36.755   4.195
24776W        W90003   0.975  30.306   4.597
24777W        W90004  12.975  36.962  13.900
24778W        W90005  41.281  37.798   4.225
24779W        W90006  36.105  18.142  14.439
24780W        W90007  36.316   1.038   3.637
24781W        W90008   7.825  10.895   1.424
24782W        W90009  25.525  20.953   0.401
24783W        W90010   0.440  10.623   3.076
24784W        W90011  36.014  18.483  10.666
24785W        W90012  18.550  16.029   2.917
24786W        W90013   8.178  14.486  11.953
24787W        W90014  42.216  14.764  10.465
24788W        W90015  32.291  14.766  13.570
24789W        W90016   9.333   3.195   3.188
24790W        W90017  11.628  32.048   3.606
24791W        W90018  34.271  35.053   0.910
24792W        W90019  29.673  32.752  14.797
24793W        W90020   4.593  42.448   0.274
24794W        W90021  19.659  24.560  10.756
24795W        W90022  28.028   4.821  11.852
24796W        W90023  22.328  40.289   1.741
24797W        W90024  40.043  24.031   2.372
24798W        W90025   6.611  19.264  13.839
24799W        W90026  33.330   9.451   0.011
24800W        W90027   2.319   0.440   3.543
24801W        W90028  29.192   9.569   4.145
24802W        W90029  34.857  35.318   1.963
24803W        W90030  35.010   5.370  12.508
24804W        W90031  16.122  42.259   3.215
24805W        W90032  28.559  40.775  12.883
24806W        W90033  10.670  11.950  11.594
24807W        W90034  40.598  40.881   3.266
24808W        W90035   1.336  43.889  14.804
24809W        W90036  31.997  18.287  12.061
24810W        W90037  24.680   7.835  13.794
24811W        W90038  27.103  30.552  13.135
24812W        W90039  41.340   8.931  12.557
24813W        W90040  43.544  17.745  13.904
24814W        W90041  19.200  22.601   1.560
24815W        W90042  32.903   6.176  13.875
24816W        W90043   0.597  14.349   1.837
24817W        W90044  22.636  23.981   1.926
24818W        W90045  11.243   7.620   4.929
24819W        W90046   7.834   3.680   1.689
24820W        W90047  44.657   4.862   4.421
24821W        W90048  24.649  23.457   0.894
24822W        W90049   6.226  18.534  13.856
24823W        W90050   1.002  34.016  13.861
24824W        W90051  34.782   4.410   0.198
24825W        W90052   8.598  36.542  10.715
24826W        W90053  28.086   2.012  11.428
24827W        W90054   8.905  16.252  11.690
24828W        W90055  20.297   0.452  14.927
24829W        W90056  39.319   4.312   4.508
24830W        W90057  32.428  15.251   4.496
24831W        W90058  32.393  40.837   0.464
24832W        W90059  39.877  43.922  13.597
24833W        W90060  26.202  36.982   3.590
24834W        W90061   3.803  36.245  14.758
24835W        W90062  32.388  39.421  14.704
24836W        W90063   7.928  35.494  11.073
24837W        W90064  10.740  22.051   1.412
24838W        W90065  25.231   5.744  11.435
24839W        W90066  11.621  24.080   2.218
24840W        W90067   5.177  19.230  13.969
24841W        W90068  37.278   9.722  11.105
24842W        W90069   6.916  21.786  11.382
24843W        W90070  43.174   7.007  13.878
24844W        W90071  27.230   1.425  10.412
24845W        W90072  15.636   3.895  14.500
24846W        W90073   3.365  17.818  11.510
24847W        W90074   3.911  23.271  13.599
24848W        W90075  13.867   1.771  12.230
24849W        W90076  41.506  14.538  14.413
24850W        W90077  34.878  40.383  10.904
24851W        W90078   5.483  14.700  14.874
24852W        W90079   9.855  31.822   1.798
24853W        W90080  44.530  43.127   1.359
24854W        W90081   5.496  26.077   5.501
24855W        W90082  26.282  23.056   2.519
24856W        W90083  19.543  28.673  11.888
24857W        W90084   4.633  42.830  13.510
24858W        W90085  34.649   9.627  14.379
24859W        W90086   3.331   1.208  14.923
24860W        W90087   8.778  22.871   2.764
24861W        W90088  10.763  28.378  14.532
24862W        W90089   1.546  36.343   3.713
24863W        W90090   4.479  16.608   2.260
24864W        W90091  12.873   1.148   2.780
24865W        W90092   7.750  23.237  12.002
24866W        W90093  19.142   8.766   4.868
24867W        W90094  35.775  42.956   0.936
24868W        W90095  23.423  14.921  10.482
24869W        W90096   2.489  20.501  13.869
24870W        W90097  11.327  31.003   9.873
24871W        W90098  15.141   9.672  14.881
24872W        W90099  29.503   2.686   4.564
24873W        W90100  23.462  43.880  12.495
24874W        W90101   8.942   6.119   3.745
24875W        W90102  11.208  11.220   2.042
24876W        W90103   8.678   9.191  13.193
24877W        W90104  38.832  11.439   2.329
24878W        W90105   7.028  30.659   0.897
24879W        W90106  35.450  40.579  12.024
24880W        W90107   6.266  32.130   3.546
24881W        W90108   9.320  33.319  11.959
24882W        W90109   1.200  13.655  10.747
24883W        W90110  13.839  19.086   4.071
24884W        W90111   0.388   8.264   3.383
24885W        W90112   5.846  18.719  14.634
24886W        W90113  27.529  29.856   1.901
24887W        W90114  26.212  12.853   0.765
24888W        W90115  23.944  28.960   3.938
24889W        W90116   3.731   4.845  13.742
24890W        W90117   5.820  34.828   4.921
24891W        W90118  37.456  19.226   4.906
24892W        W90119   4.399   2.923   1.918
24893W        W90120  26.924   7.644  13.576
24894W        W90121   0.763   9.223  12.117
24895W        W90122  13.738  21.706   1.033
24896W        W90123  31.518   0.299   4.453
24897W        W90124  33.161  12.991  12.011
24898W        W90125   8.433  17.339   0.780
24899W        W90126  35.870   9.828  13.065
24900W        W90127   2.970  18.024  11.244
24901W        W90128  20.804   1.910  11.510
24902W        W90129  30.980  18.390  12.056
24903W        W90130  12.739  34.697  14.068
24904W        W90131   2.203   1.656  11.190
24905W        W90132  27.565  10.824   3.274
24906W        W90133  29.632  29.721   2.935
24907W        W90134  31.469  15.785   0.861
24908W        W90135   0.360  38.438   0.531
24909W        W90136   8.262  14.197   9.858
24910W        W90137  34.376   0.480   4.686
24911W        W90138  32.629  21.518   4.635
24912W        W90139  29.784  13.630  13.205
24913W        W90140   3.278   0.743   1.108
24914W        W90141  18.808  43.587   1.427
24915W        W90142  16.578  32.143  10.749
24916W        W90143  15.951  30.885  12.498
24917W        W90144  38.415  18.691  14.035
24918W        W90145  12.346  32.998  12.045
24919W        W90146  27.659  40.727   3.881
24920W        W90147  25.837  25.567   0.800
24921W        W90148  35.822   0.001  13.867
24922W        W90149  41.080  19.235  11.999
24923W        W90150  41.255  33.614   1.728
24924W        W90151  44.797  19.458  14.269
24925W        W90152  32.876  28.429  12.050
24926W        W90153  36.567  36.061  13.211
24927W        W90154  22.761  28.452   3.134
24928W        W90155  24.543  29.982   2.260
24929W        W90156   8.678  43.356   2.790
24930W        W90157  19.978  37.520  14.576
24931W        W90158  11.889  12.586  12.400
24932W        W90159  44.488  19.112   0.971
24933W        W90160  33.313   3.879   4.062
24934W        W90161  31.064   3.155   4.935
24935W        W90162  30.822  42.747   2.838
24936W        W90163  32.450  17.012  11.948
24937W        W90164   3.430   8.000  14.308
24938W        W90165  27.503   8.811  14.864
24939W        W90166  22.164  21.470  11.472
24940W        W90167  10.051  44.563   3.624
24941W        W90168  33.485  16.826  10.705
24942W        W90169   0.816  31.235   1.771
24943W        W90170  28.321  14.105  13.537
24944W        W90171  11.249  39.541   2.264
24945W        W90172  20.319   9.680   1.849
24946W        W90173  25.098  16.095  10.694
24947W        W90174  14.212  41.486  14.585
24948W        W90175  13.305   9.044  14.848
24949W        W90176  32.889  25.212  14.319
24950W        W90177  37.672  25.977   4.171
24951W        W90178   5.843  30.373   3.865
24952W        W90179  31.537  26.591  13.042
24953W        W90180   5.225  25.894  10.158
24954W        W90181   7.643  13.835  14.794
24955W        W90182  44.228  43.019  12.696
24956W        W90183   9.593   2.612  10.706
24957W        W90184  30.674  11.551   0.773
24958W        W90185  15.879  31.148   4.052
24959W        W90186  27.630  26.983  12.837
24960W        W90187  19.847  39.321  10.403
24961W        W90188  22.793  31.237   1.155
24962W        W90189  18.958   9.754  14.333
24963W        W90190  10.731  29.904   3.793
24964W        W90191  28.138  12.658   2.373
24965W        W90192  33.651   0.863   0.217
24966W        W90193  35.793  36.001   3.545
24967W        W90194  25.162  15.816   3.645
24968W        W90195  14.465  41.083  11.109
24969W        W90196  42.482  10.779   3.613
24970W        W90197  12.424  11.724  13.866
24971W        W90198   3.458  44.941   1.420
24972W        W90199  21.554   4.753   2.881
24973W        W90200   4.774  16.141   3.901
24974W        W90201   7.607  31.428  13.360
24975W        W90202  41.465   2.362   2.950
24976W        W90203  24.289  21.103  10.220
24977W        W90204  17.608  38.814   3.252
24978W        W90205   8.250   7.248  11.617
24979W        W90206   8.972  41.616   4.850
24980W        W90207  25.988  13.645  14.387
24981W        W90208   2.763  38.798   2.757
24982W        W90209  11.825   6.481  10.998
24983W        W90210  34.825  28.974   2.767
24984W        W90211   1.906  20.113   4.927
24985W        W90212  20.765   6.660   1.302
24986W        W90213  37.443  37.586  13.963
24987W        W90214  17.676  39.375  11.599
24988W        W90215  22.569  14.852  10.441
24989W        W90216   1.489  33.542   1.449
24990W        W90217  16.580   0.881   1.181
24991W        W90218  22.026  33.849  13.818
24992W        W90219  15.906  25.555   0.739
24993W        W90220  28.994  37.266   4.306
24994W        W90221   3.715   2.260   3.627
24995W        W90222  37.771  15.572  14.483
24996W        W90223  10.932   3.868  11.606
24997W        W90224   0.206   0.419   3.281
24998W        W90225   4.856  10.375   0.565
24999W        W90226  26.723  35.975   3.701
25000W        W90227  21.250  34.628  13.389
25001W        W90228  44.129   5.467   1.252
25002W        W90229   1.383  28.039   3.593
25003W        W90230  30.966  21.143  12.690
25004W        W90231  22.701   2.999  11.160
25005W        W90232   9.729   8.193   1.934
25006W        W90233  27.711  41.868  14.959
25007W        W90234  30.048  15.910  11.477
25008W        W90235  19.886  44.018  10.689
25009W        W90236   1.938   5.028  13.813
25010W        W90237  23.641  38.421  14.271
25011W        W90238  34.380   6.578   0.388
25012W        W90239   2.809  16.771  14.020
25013W        W90240  28.605  40.174  14.947
25014W        W90241   3.966  12.281   0.400
25015W        W90242  34.825  41.460   1.775
25016W        W90243  43.043  32.247  12.390
25017W        W90244  44.412  40.707   4.600
25018W        W90245   4.031   1.470  12.114
25019W        W90246   6.843   2.435   4.117
25020W        W90247   0.699  11.007  12.531
25021W        W90248  31.134  34.569   5.121
25022W        W90249  41.985  41.511  10.815
25023W        W90250  30.373  32.952   0.262
25024W        W90251  33.480  31.187   1.673
25025W        W90252  14.604  13.791  11.151
25026W        W90253  30.152  30.201   1.408
25027W        W90254   2.434   6.221   4.664
25028W        W90255  31.961   8.849   0.512
25029W        W90256  10.776   5.546   4.088
25030W        W90257  38.311  12.298  12.937
25031W        W90258  24.759  19.181  14.025
25032W        W90259  34.422  24.930   1.026
25033W        W90260  30.395  25.917   1.914
25034W        W90261  22.197  42.839   1.790
25035W        W90262  43.640   6.938   1.813
25036W        W90263  11.786  28.901   1.685
25037W        W90264   8.149  40.029   2.848
25038W        W90265  41.805   0.963   0.416
25039W        W90266   0.273  23.845  10.200
25040W        W90267   8.603  22.697   1.301
25041W        W90268  28.834  43.266  14.354
25042W        W90269  29.169  17.121  13.370
25043W        W90270  29.159  37.889  11.187
25044W        W90271   3.650  13.770  11.135
25045W        W90272  20.442  41.905  12.743
25046W        W90273   6.267  10.328   5.121
25047W        W90274   9.317  19.736   1.772
25048W        W90275   1.763  10.816  12.318
25049W        W90276  32.979  15.283   1.676
25050W        W90277  22.754  43.531   0.225
25051W        W90278   4.015  27.551   0.374
25052W        W90279  19.546  18.629   1.926
25053W        W90280  33.156  12.213   4.614
25054W        W90281  44.914  44.977  11.260
25055W        W90282  42.343  15.530  13.924
25056W        W90283  23.173   8.196  13.393
25057W        W90284  14.506   6.389   0.879
25058W        W90285   5.646  37.977  12.809
25059W        W90286   7.979  40.415  12.474
25060W        W90287  44.386  28.245  11.192
25061W        W90288  12.697  27.975  13.439
25062W        W90289   5.099  21.612  13.535
25063W        W90290   9.853   7.178   1.238
25064W        W90291  32.670   1.741  14.934
25065W        W90292  27.543   2.195  14.334
25066W        W90293  27.142  10.944  12.908
25067W        W90294  13.214  19.308  12.446
25068W        W90295  44.505  42.244  14.068
25069W        W90296  44.933   4.261   1.673
25070W        W90297  36.305   4.981   4.193
25071W        W90298  44.373  39.375  12.441
25072W        W90299   8.119  37.508  13.329
25073W        W90300  25.675   8.735  14.097
25074W        W90301  36.489  10.839   4.106
25075W        W90302  25.262  39.315   0.309
25076W        W90303  18.508   7.434   1.461
25077W        W90304  39.204   9.690  11.252
25078W        W90305  34.494   2.887   0.465
25079W        W90306   4.358  32.357  13.977
25080W        W90307  12.049  42.435  11.269
25081W        W90308  37.493  41.476  13.190
25082W        W90309  38.799  14.268   3.296
25083W        W90310   6.515  36.560  11.660
25084W        W90311  20.219   8.506   4.366
25085W        W90312  38.548  14.028   2.376
25086W        W90313  13.073  23.731   2.744
25087W        W90314  16.755   7.965   5.021
25088W        W90315  23.182  17.134   3.615
25089W        W90316  10.126   5.630  10.434
25090W        W90317  40.982  41.998  12.848
25091W        W90318   6.045  19.576  10.792
25092W        W90319   1.896   2.279   3.615
25093W        W90320  12.716  24.350   0.077
25094W        W90321  32.797  35.246   3.511
25095W        W90322  16.240   4.667  14.161
25096W        W90323   7.842  25.075  10.785
25097W        W90324  27.738  33.057   1.358
25098W        W90325  20.662  23.795   0.784
25099W        W90326   6.897   6.716  10.755
25100W        W90327   0.349   2.201  12.631
25101W        W90328  19.679  16.736   2.284
25102W        W90329  22.416  27.148  14.117
25103W        W90330   8.356  21.049   3.848
25104W        W90331  25.070  23.761  13.435
25105W        W90332  22.172  23.742  13.631
25106W        W90333  36.339  37.428  12.018
25107W        W90334  44.288  26.814  14.370
25108W        W90335   9.518  21.027   1.538
25109W        W90336  17.415  24.193  11.610
25110W        W90337  43.736  40.472   4.925
25111W        W90338   1.507  41.371  11.301
25112W        W90339  27.550  20.249   1.308
25113W        W90340   5.369  20.256  11.122
25114W        W90341  11.154  14.675   4.543
25115W        W90342  28.691  16.989   2.323
25116W        W90343  14.371   6.481   2.775
25117W        W90344   5.479  41.798  12.450
25118W        W90345  25.762   7.484   2.700
25119W        W90346  41.248  15.194   3.864
25120W        W90347  44.470  31.183   4.302
25121W        W90348   3.549  28.194   4.581
25122W        W90349  43.642  41.350  12.552
25123W        W90350  23.554  20.083   2.408
25124W        W90351   4.989  16.960  11.501
25125W        W90352  10.965  13.284  13.475
25126W        W90353  14.674  16.294  12.011
25127W        W90354   4.740  32.412   2.306
25128W        W90355  43.975  24.331   4.256
25129W        W90356  10.224  20.395  12.685
25130W        W90357  24.156   5.311   0.817
25131W        W90358   4.947  21.148  13.409
25132W        W90359  42.545  23.506  10.607
25133W        W90360  28.170  11.455   1.238
25134W        W90361   9.015  41.408  14.101
25135W        W90362  10.196  24.083   4.531
25136W        W90363  36.047  33.690   3.501
25137W        W90364   5.796  28.609  14.056
25138W        W90365  16.224  26.304  14.719
25139W        W90366   1.853  29.404   1.939
25140W        W90367  37.981  42.665  11.580
25141W        W90368   7.734  35.065   5.261
25142W        W90369  20.474  37.138  13.052
25143W        W90370  25.319  19.652   0.116
25144W        W90371  14.193  35.100   3.660
25145W        W90372  41.231   8.076  12.922
25146W        W90373  17.256  31.863  14.142
25147W        W90374  14.393  15.554   5.015
25148W        W90375  40.395  39.935   0.468
25149W        W90376  44.194   5.838  14.621
25150W        W90377  36.108  34.138   1.911
25151W        W90378  25.440   3.043  13.888
25152W        W90379  44.335  36.446   0.665
25153W        W90380  13.311  15.707  12.011
25154W        W90381  36.721  26.085   4.011
25155W        W90382  43.537  41.601  14.456
25156W        W90383  13.532   2.077   1.404
25157W        W90384  31.124  34.864  12.972
25158W        W90385   5.426  37.527   3.214
25159W        W90386  10.904  39.286   4.467
25160W        W90387   0.775  33.651  12.942
25161W        W90388  41.612  24.606  11.989
25162W        W90389  36.022   1.033   4.068
25163W        W90390   6.423  10.772   3.811
25164W        W90391   0.069  16.946   1.199
25165W        W90392  36.665   0.478  14.597
25166W        W90393  31.859  10.293  12.593
25167W        W90394  34.680   9.083  14.397
25168W        W90395  40.393  16.924   4.658
25169W        W90396  32.168  27.087   2.139
25170W        W90397  34.623   4.454  12.341
25171W        W90398   0.346  32.913   3.431
25172W        W90399  18.809  25.083   3.743
25173W        W90400  27.197  15.179   0.887
25174W        W90401   5.237   8.124   2.786
25175W        W90402   4.366  15.570  12.637
25176W        W90403   8.589  23.234  11.410
25177W        W90404  40.547  30.000  14.647
25178W        W90405  36.054  40.424  13.372
25179W        W90406  32.862   1.353   3.062
25180W        W90407  36.337   0.258   3.101
25181W        W90408  26.062  32.667   3.592
25182W        W90409  31.065   4.835   2.920
25183W        W90410   3.562  38.678   2.854
25184W        W90411  44.922  11.780   1.684
25185W        W90412  26.899  26.042   2.275
25186W        W90413  38.929  14.755   0.877
25187W        W90414  44.328  16.679   4.964
25188W        W90415  25.769  44.542  14.968
25189W        W90416  17.932   2.274  12.471
25190W        W90417  38.788  35.116   5.041
25191W        W90418  38.842  15.015  10.914
25192W        W90419  42.501   1.211  13.044
25193W        W90420   5.667  39.429   3.521
25194W        W90421   8.294  28.563  13.468
25195W        W90422  35.002  20.486  11.582
25196W        W90423  41.915  26.753   0.019
25197W        W90424  37.041  42.860   0.254
25198W        W90425  24.474  27.179  13.347
25199W        W90426  43.374  28.295   3.916
25200W        W90427  21.963  25.171   0.005
25201W        W90428  26.392  11.255   4.960
25202W        W90429  32.647   6.952  13.010
25203W        W90430   5.548  25.596   2.357
25204W        W90431   5.826   4.744  11.941
25205W        W90432  34.625   4.248  13.500
25206W        W90433  32.478  22.184   3.243
25207W        W90434  39.766  30.952   0.772
25208W        W90435   3.614   9.438   1.032
25209W        W90436  12.736   8.627   2.226
25210W        W90437  11.523  11.355   3.284
25211W        W90438   5.733  44.213   3.485
25212W        W90439  24.640  28.458   3.755
25213W        W90440  29.588  42.258  11.194
25214W        W90441  33.130  26.699   1.766
25215W        W90442  26.017   4.291   1.445
25216W        W90443   7.669   3.392   3.631
25217W        W90444  21.291   1.920  13.804
25218W        W90445  43.424  27.364  13.753
25219W        W90446  27.010  12.655   0.997
25220W        W90447  20.706   9.186   2.922
25221W        W90448  12.481  35.006   4.525
25222W        W90449  27.657   0.624   3.068
25223W        W90450  14.204   7.457  13.791
25224W        W90451   5.814  18.457   4.526
25225W        W90452  22.966   8.793   2.608
25226W        W90453  28.338  35.598   0.758
25227W        W90454  23.257  32.899  13.146
25228W        W90455  12.832  16.716   2.916
25229W        W90456  21.760  16.846  13.476
25230W        W90457  27.602   1.770   1.351
25231W        W90458  29.925  35.896  11.480
25232W        W90459  44.504   9.361   5.025
25233W        W90460   6.277  17.427   0.276
25234W        W90461  17.775  41.961   2.751
25235W        W90462  10.236  24.587   4.627
25236W        W90463   7.769  37.886   3.732
25237W        W90464  25.443  34.943  12.297
25238W        W90465  41.063   2.447   3.290
25239W        W90466  20.657  30.861  10.687
25240W        W90467   5.643   3.276  13.501
25241W        W90468  41.422   2.374   1.268
25242W        W90469  21.305  26.551   3.615
25243W        W90470  42.912  31.329   4.592
25244W        W90471  18.874  20.977   2.605
25245W        W90472  24.098   5.039   0.374
25246W        W90473   8.702   2.185   3.839
25247W        W90474  12.656  24.612  14.021
25248W        W90475  14.652  19.875  13.946
25249W        W90476  14.330   1.859  13.130
25250W        W90477   1.329  36.043   0.631
25251W        W90478  43.392  13.675   4.934
25252W        W90479  12.813   3.435   2.507
25253W        W90480  38.928  42.926   4.323
25254W        W90481  33.819  42.447   3.324
25255W        W90482  18.285   4.236   4.518
25256W        W90483  19.797  17.668  10.604
25257W        W90484  40.248  40.998  13.338
25258W        W90485   2.509  14.718  14.950
25259W        W90486  10.205   4.710  11.054
25260W        W90487  20.015   0.693   0.285
25261W        W90488   6.880  38.010  11.760
25262W        W90489  14.765  24.513   4.757
25263W        W90490   4.995  43.208  13.407
25264W        W90491   3.059  34.341  14.526
25265W        W90492  15.876   8.742   2.877
25266W        W90493  10.833  30.717   0.865
25267W        W90494  12.259   7.497  12.405
25268W        W90495  35.836  22.738   1.944
25269W        W90496  38.536  12.220   1.121
25270W        W90497   7.753  21.951  12.155
25271W        W90498  23.467   6.456   0.775
25272W        W90499  19.126  31.938  11.219
25273W        W90500  34.891   5.842  10.632
25274W        W90501  36.402  33.696  10.275
25275W        W90502   8.695  39.232  13.624
25276W        W90503  31.974   0.213  14.541
25277W        W90504  22.573  43.484   3.647
25278W        W90505  11.925  30.493   2.235
25279W        W90506  33.829   2.257  12.019
25280W        W90507  12.673   5.608   1.322
25281W        W90508  20.601  42.440  11.941
25282W        W90509   7.899   7.147  13.311
25283W        W90510  17.820  10.263  12.005
25284W        W90511  41.446  12.593   2.820
25285W        W90512   4.917  19.714  12.343
25286W        W90513  41.194   5.448  10.293
25287W        W90514  25.991  14.204   4.689
25288W        W90515  15.798  18.195  11.096
25289W        W90516   6.990   6.317   0.239
25290W        W90517  36.077   0.773   0.854
25291W        W90518   3.118  24.253   4.949
25292W        W90519  18.803  33.999  13.347
25293W        W90520  22.006   4.849  10.899
25294W        W90521   0.276  39.035   3.879
25295W        W90522  12.797   9.805   0.800
25296W        W90523  30.102   1.945   3.178
25297W        W90524  39.031  29.438   2.840
25298W        W90525  40.878   0.303   3.051
25299W        W90526  26.880  10.691  13.306
25300W        W90527  11.039  24.292   0.189
25301W        W90528  25.535  23.566  10.465
25302W        W90529  40.565   9.493   2.148
25303W        W90530  27.190  40.566  14.776
25304W        W90531  33.271  43.419   1.297
25305W        W90532  21.574  31.187  12.649
25306W        W90533  10.686  40.953  11.406
25307W        W90534   4.656  13.744  10.956
25308W        W90535  15.330  43.108   2.327
25309W        W90536  12.443  43.826  14.890
25310W        W90537  28.517   3.466   2.818
25311W        W90538  38.897  10.774  14.407
25312W        W90539   1.376  31.005   3.852
25313W        W90540  41.404  38.405  13.340
25314W        W90541  17.348  18.544   2.101
25315W        W90542  28.257  25.466  13.210
25316W        W90543  18.222  13.736  14.003
25317W        W90544  34.453  28.405  12.504
25318W        W90545  24.763  27.626  13.963
25319W        W90546  17.469  44.257   3.783
25320W        W90547  35.507  13.244  13.914
25321W        W90548   4.227  27.129  14.314
25322W        W90549  28.896  31.404   3.831
25323W        W90550  17.200  13.856   2.621
25324W        W90551  35.901   0.055  12.030
25325W        W90552  18.904  19.773   4.621
25326W        W90553   2.326  42.727  14.568
25327W        W90554  33.519  16.922  14.332
25328W        W90555  30.529  39.574  12.406
25329W        W90556  34.918   7.139  14.378
25330W        W90557  22.187  30.740   2.634
25331W        W90558  42.987  14.774   4.048
25332W        W90559  36.700   7.113   0.945
25333W        W90560  24.028  40.443  14.405
25334W        W90561  33.722  17.936  14.618
25335W        W90562  25.910  42.893  11.684
25336W        W90563   5.136  43.070   2.249
25337W        W90564  19.537  19.626  12.546
25338W        W90565  14.479  17.803   3.393
25339W        W90566  39.538   2.383  14.504
25340W        W90567  10.489   9.454  12.343
25341W        W90568  43.247   5.878  14.357
25342W        W90569  43.986   9.797   1.120
25343W        W90570  12.134  33.373  14.129
25344W        W90571  18.585   3.829  14.525
25345W        W90572  42.558  19.940  14.520
25346W        W90573  14.342  17.276  10.791
25347W        W90574   6.667  18.613  12.442
25348W        W90575  43.545  26.816   0.356
25349W        W90576  18.960  25.433   1.612
25350W        W90577  42.951  24.961  14.830
25351W        W90578  39.590  38.598   1.268
25352W        W90579  24.722  13.282  13.944
25353W        W90580  31.095  11.202   1.461
25354W        W90581  24.218  21.354   4.040
25355W        W90582  31.775  23.254  11.100
25356W        W90583  11.307  41.982   0.805
25357W        W90584  33.037  27.853  14.154
25358W        W90585  19.298  10.121  11.828
25359W        W90586  38.155  29.023  11.945
25360W        W90587  13.817  31.004  12.433
25361W        W90588  34.691  13.677   0.090
25362W        W90589   0.734   6.165  13.434
25363W        W90590  27.213  20.625  13.401
25364W        W90591   3.242  42.474  14.729
25365W        W90592  10.711  11.857  13.677
25366W        W90593  15.232  10.951   4.585
25367W        W90594  27.809  10.743  11.227
25368W        W90595  36.229  39.571   3.448
25369W        W90596  22.637  14.279  14.272
25370W        W90597  11.207  20.268   0.199
25371W        W90598  42.788   8.799   2.239
25372W        W90599  12.204  27.052  10.953
25373W        W90600  19.050  21.794  13.441
25374W        W90601   9.838  32.316  10.334
25375W        W90602  36.384  24.065   4.614
25376W        W90603  11.272  30.734  14.923
25377W        W90604  15.519  39.743   1.262
25378W        W90605  35.847  42.922  10.716
25379W        W90606  33.117  22.167  11.104
25380W        W90607  15.715  31.837   1.714
25381W        W90608   1.425  20.500   3.565
25382W        W90609  27.043  17.745   2.726
25383W        W90610  19.888   9.409   1.873
25384W        W90611  24.023  17.174   3.187
25385W        W90612  28.606  18.721   2.909
25386W        W90613  33.768  27.906  14.482
25387W        W90614  13.344  14.406  14.296
25388W        W90615  10.301  28.850   4.216
25389W        W90616  12.775  43.104   1.795
25390W        W90617  12.176  16.332  13.536
25391W        W90618  41.536  25.744   3.295
25392W        W90619   0.980  20.227   3.557
25393W        W90620  29.153  16.689  11.096
25394W        W90621  14.155   5.943  13.011
25395W        W90622  15.965  23.556   3.597
25396W        W90623  20.420  14.729  14.577
25397W        W90624  23.886  32.011   4.527
25398W        W90625  39.905   2.056  10.921
25399W        W90626  36.773  36.381  14.782
25400W        W90627  28.678  15.613   3.170
25401W        W90628  28.576  38.334  13.418
25402W        W90629   9.010  44.109   2.429
25403W        W90630  25.465  36.665   3.680
25404W        W90631   4.762  36.078   2.251
25405W        W90632   9.864   5.965   0.321
25406W        W90633  16.688   4.995  11.696
25407W        W90634   9.740   4.522   0.321
25408W        W90635  37.313  18.220   3.418
25409W        W90636  29.862  31.587   5.007
25410W        W90637  26.224  29.206   2.741
25411W        W90638  25.545  11.685  12.926
25412W        W90639  15.102  44.788  14.973
25413W        W90640  17.506  15.363  12.229
25414W        W90641  11.766  19.297  10.265
25415W        W90642  41.503  15.245   4.797
25416W        W90643  32.810  12.739  11.730
25417W        W90644  40.953   0.694  14.963
25418W        W90645  33.742  41.704   4.471
25419W        W90646  19.677   7.718   3.644
25420W        W90647  22.479  12.273  10.893
25421W        W90648  29.671  42.182   1.412
25422W        W90649  43.027  27.367   0.743
25423W        W90650  40.009  34.538  11.564
25424W        W90651  10.320  40.919   3.752
25425W        W90652  26.032   3.164  11.006
25426W        W90653  40.015  37.011  11.143
25427W        W90654  23.026  31.043   0.439
25428W        W90655  43.392  28.629   2.954
25429W        W90656  40.860  38.826   2.565
25430W        W90657  20.402  26.958   0.851
25431W        W90658  19.950  23.626  12.996
25432W        W90659  36.878  35.541   0.021
25433W        W90660  26.545   8.679   3.069
25434W        W90661  37.360  20.279   4.125
25435W        W90662  15.576  20.716   3.260
25436W        W90663  40.237  25.288  11.624
25437W        W90664  24.701   9.432  11.525
25438W        W90665   5.404  19.764   3.415
25439W        W90666  26.497   5.193  12.453
25440W        W90667  19.276  38.347   3.945
25441W        W90668  40.833   5.486  12.587
25442W        W90669  23.746  15.187  14.121
25443W        W90670  26.060  28.685   3.539
25444W        W90671  30.195  21.754  13.878
25445W        W90672   6.187  42.147  14.019
25446W        W90673  26.942  31.007   1.206
25447W        W90674  16.824  28.410  11.180
25448W        W90675  38.486  21.678  11.907
25449W        W90676  40.472  41.938   2.013
25450W        W90677  19.349  33.442  11.715
25451W        W90678  26.240  29.668   3.679
25452W        W90679  37.210  29.685   0.152
25453W        W90680  29.334  20.624   3.129
25454W        W90681  15.282   8.410  14.509
25455W        W90682  43.011   7.945  10.118
25456W        W90683  36.796  44.227  12.533
25457W        W90684  23.974   5.245  11.643
25458W        W90685  10.384  32.995   0.384
25459W        W90686   9.270  37.951   2.835
25460W        W90687  17.571  23.279   1.382
25461W        W90688  15.396  42.630   4.025
25462W        W90689  26.142  31.191  10.272
25463W        W90690   5.153  35.078   2.281
25464W        W90691  19.770  24.930  11.734
25465W        W90692  20.090  33.484  13.115
25466W        W90693  27.943   2.179  12.409
25467W        W90694  43.591  33.426  13.568
25468W        W90695   0.944  38.748   0.749
25469W        W90696  12.298  41.479  11.472
25470W        W90697   0.101  40.556   2.257
25471W        W90698  23.243  16.573   3.756
25472W        W90699  44.985  17.062   2.296
25473W        W90700  33.494  19.044  10.653
25474W        W90701  34.490   1.543   4.843
25475W        W90702   0.894  38.284  13.547
25476W        W90703  21.736  30.214   2.081
25477W        W90704  30.371  15.210   1.414
25478W        W90705  19.952  39.706  11.846
25479W        W90706   7.827  20.629   3.562
25480W        W90707  25.504   1.056  12.036
25481W        W90708   8.325   1.907   0.144
25482W        W90709   4.653  21.076   2.748
25483W        W90710  29.559  14.529   1.698
25484W        W90711   7.049  31.514  11.494
25485W        W90712   0.884  39.343  12.907
25486W        W90713  15.894  26.715   4.068
25487W        W90714  28.973   9.889  14.807
25488W        W90715   1.971  18.144   2.699
25489W        W90716  11.719   6.335   3.339
25490W        W90717  34.537  22.721   1.426
25491W        W90718  34.623  20.996   4.070
25492W        W90719  44.456   3.236  10.238
25493W        W90720  10.316  16.593  12.930
25494W        W90721  38.550  38.417   4.553
25495W        W90722  31.666  41.123  13.378
25496W        W90723  39.277  34.510   0.012
25497W        W90724  41.937  20.585  12.035
25498W        W90725  24.611  17.826  14.404
25499W        W90726  24.467  13.563  11.157
25500W        W90727  36.052  15.403  12.029
25501W        W90728  39.523  11.482   2.027
25502W        W90729  36.147  14.645   3.215
25503W        W90730   5.416   3.786  10.453
25504W        W90731   1.042   9.755   4.376
25505W        W90732  12.134  15.714   1.861
25506W        W90733  39.380   9.173   1.293
25507W        W90734  13.831   7.045   0.433
25508W        W90735  39.683   4.196  10.824
25509W        W90736   0.414  12.304  13.243
25510W        W90737  33.659  12.715   3.604
25511W        W90738  12.388  22.952  12.013
25512W        W90739   0.821  36.982   3.672
25513W        W90740  14.903   9.926   3.252
25514W        W90741  10.872  10.669  12.014
25515W        W90742  15.779  15.666   4.160
25516W        W90743  20.803  17.576   3.810
25517W        W90744  22.656  23.449   1.968
25518W        W90745  14.655  39.986  14.446
25519W        W90746  27.024  19.143   1.966
25520W        W90747   7.777   0.603  14.513
25521W        W90748  13.678  35.565  11.963
25522W        W90749  43.279   7.857   3.345
25523W        W90750  37.026  21.276  13.352
25524W        W90751  17.037  15.274  14.493
25525W        W90752  31.535   1.425  14.976
25526W        W90753  19.040  31.424   2.573
25527W        W90754   7.307  18.963   0.509
25528W        W90755   0.957  32.684  12.928
25529W        W90756  17.157  11.711  13.342
25530W        W90757  32.394  31.167  12.888
25531W        W90758  26.085  12.261  14.052
25532W        W90759  10.141  17.735  14.701
25533W        W90760  35.327  32.962   4.762
25534W        W90761  16.739  39.520   2.795
25535W        W90762  29.916  29.057  13.238
25536W        W90763  22.797  30.912  11.094
25537W        W90764  33.159   2.962   0.234
25538W        W90765   7.521  25.662  11.157
25539W        W90766  29.056  28.233   0.333
25540W        W90767  20.571  17.203  13.883
25541W        W90768  14.837  28.509  14.887
25542W        W90769  10.228  29.657  11.571
25543W        W90770  32.178  42.896   0.098
25544W        W90771  26.186   8.695   3.808
25545W        W90772  38.214  25.018   0.675
25546W        W90773  19.742  44.994  11.614
25547W        W90774  34.281  37.547  14.054
25548W        W90775  24.717  29.026  14.945
25549W        W90776  30.970   6.361   2.359
25550W        W90777   6.225  27.922  12.996
25551W        W90778  28.520  30.916  13.389
25552W        W90779  33.340  18.341  14.644
25553W        W90780  29.417  27.005   1.350
25554W        W90781  26.082  19.848   4.793
25555W        W90782  24.713  42.426   1.038
25556W        W90783  27.935  30.300   3.404
25557W        W90784  38.300  24.243  12.545
25558W        W90785  28.215  39.436   0.496
25559W        W90786   3.753  27.530   2.124
25560W        W90787   9.195  32.107  13.408
25561W        W90788  25.269  31.911  13.484
25562W        W90789  12.164   0.028  11.204
25563W        W90790  44.835  13.619   1.674
25564W        W90791  17.300  21.689  11.702
25565W        W90792  37.438  40.297   2.933
25566W        W90793  18.327  25.745  11.088
25567W        W90794  18.274  22.936  10.690
25568W        W90795  18.173  35.790   0.845
25569W        W90796   3.129  18.493  10.329
25570W        W90797  19.310  24.945   3.775
25571W        W90798  17.874  38.476  13.451
25572W        W90799   2.625  13.492  12.858
25573W        W90800  37.748  43.535  11.674
25574W        W90801   1.812  42.364   1.719
25575W        W90802  28.468  40.391  12.162
25576W        W90803  29.750  33.123  12.304
25577W        W90804  24.603  10.430   1.977
25578W        W90805  11.744  41.219  13.140
25579W        W90806   9.808  14.658   3.232
25580W        W90807  37.702  30.089  12.770
25581W        W90808  35.629  35.781  13.907
25582W        W90809  19.316   7.068  14.903
25583W        W90810  24.813  26.132  12.223
25584W        W90811  22.985  34.860  13.591
25585W        W90812  19.736  24.086  12.832
25586W        W90813  32.442  12.590   3.304
25587W        W90814  22.582  36.526   3.253
25588W        W90815  39.728  25.664   4.163
25589W        W90816  44.098   6.718  12.878
25590W        W90817  36.549  10.000  12.279
25591W        W90818   9.228  34.057   0.027
25592W        W90819  13.783   9.458  10.997
25593W        W90820  42.913  26.718   2.299
25594W        W90821  19.117  20.488  12.987
25595W        W90822  17.674  10.124   3.023
25596W        W90823  37.132   1.253   1.837
25597W        W90824  28.413   9.087  11.085
25598W        W90825  25.967  11.076   2.407
25599W        W90826   5.909  17.424   1.665
25600W        W90827  39.056  41.387   3.601
25601W        W90828   1.326  25.416  10.252
25602W        W90829   1.507  14.202   4.781
25603W        W90830  33.038   8.372  11.546
25604W        W90831  37.336   0.409   3.298
25605W        W90832  30.012   8.484  11.132
25606W        W90833   7.237   5.886   0.471
25607W        W90834   3.311   0.120   5.005
25608W        W90835  41.646  23.477   1.586
25609W        W90836  33.105  40.178   2.929
25610W        W90837  15.263  19.520   1.356
25611W        W90838  40.649  39.835  11.870
25612W        W90839   0.820  42.607  10.285
25613W        W90840  23.527  25.028  11.623
25614W        W90841  16.357  24.678   1.869
25615W        W90842  28.995  18.136  13.642
25616W        W90843  29.962  16.316  12.702
25617W        W90844  34.427  22.507   0.984
25618W        W90845  30.443  10.496  11.284
25619W        W90846  23.321  44.184   5.388
25620W        W90847   4.888   9.911  11.100
25621W        W90848  42.570  27.968   4.305
25622W        W90849  38.293  14.566  14.348
25623W        W90850  34.592  21.085   1.096
25624W        W90851   3.626  34.420  12.576
25625W        W90852  32.414  44.799  13.383
25626W        W90853  24.902  15.720  12.486
25627W        W90854  11.871   6.072   5.118
25628W        W90855  20.528  37.275   1.895
25629W        W90856  28.638   6.435  14.368
25630W        W90857  39.406   0.529  13.914
25631W        W90858   4.269  31.418   0.229
25632W        W90859   5.312   3.506   1.969
25633W        W90860  37.019  44.716  11.644
25634W        W90861  21.039  26.465   1.271
25635W        W90862  12.803   9.731   4.089
25636W        W90863  32.643  35.128   1.914
25637W        W90864  11.732  22.166  11.971
25638W        W90865  10.369  26.423   2.865
25639W        W90866  17.878   3.644   0.894
25640W        W90867  15.085  38.483  13.506
25641W        W90868  22.431  11.588  12.469
25642W        W90869  44.096   8.733   4.516
25643W        W90870  15.178  39.477  12.187
25644W        W90871  31.060   6.652  13.105
25645W        W90872   0.762  27.010  12.103
25646W        W90873  15.799  39.833   2.657
25647W        W90874   2.971   7.965  12.931
25648W        W90875  14.018  14.122   1.843
25649W        W90876  23.228  31.494   0.258
25650W        W90877  26.563  30.885   0.315
25651W        W90878   8.263  39.304  13.940
25652W        W90879  42.491  34.134  11.258
25653W        W90880  36.865   3.884  14.897
25654W        W90881  22.513   8.140  13.059
25655W        W90882   0.408   0.521   1.938
25656W        W90883  35.409   4.616   1.786
25657W        W90884  34.962  34.817   1.928
25658W        W90885   4.881  25.456  13.479
25659W        W90886  21.512   2.766   1.781
25660W        W90887  10.036  18.327  11.645
25661W        W90888  32.405  44.119   3.370
25662W        W90889  12.798  34.501   0.947
25663W        W90890  44.292  20.769   4.008
25664W        W90891  21.962  27.999   4.079
25665W        W90892  42.681  39.921  12.191
25666W        W90893  20.461   1.808   3.246
25667W        W90894  43.324  37.829   1.330
25668W        W90895  15.723  30.676   0.576
25669W        W90896  11.807  29.639   0.761
25670W        W90897  14.557   3.682   4.745
25671W        W90898  24.174  19.626  12.468
25672W        W90899  32.258  39.981   4.948
25673W        W90900  40.537  36.924  14.644
25674W        W90901  29.970  33.464   2.243
25675W        W90902  25.757  23.596  11.487
25676W        W90903  13.127  18.881   3.598
25677W        W90904  26.853   0.077  12.027
25678W        W90905  39.007  42.288   2.201
25679W        W90906  19.979  12.203  13.098
25680W        W90907  23.214   1.466   1.649
25681W        W90908  20.566  12.176  12.435
25682W        W90909  20.274  34.885   2.558
25683W        W90910  12.419   3.480   3.755
25684W        W90911  17.581  11.967   0.416
25685W        W90912  25.671  32.881  11.203
25686W        W90913  13.781   3.546  12.899
25687W        W90914  39.281   2.353   2.091
25688W        W90915  33.460   9.921   3.397
25689W        W90916  11.620  22.820  12.870
25690W        W90917  41.000  43.858   1.865
25691W        W90918  37.336  28.524   0.033
25692W        W90919  32.888  12.383  13.919
25693W        W90920  25.269  27.465  10.302
25694W        W90921  23.736  23.406   1.762
25695W        W90922  30.829  28.363   3.674
25696W        W90923  25.032  39.031   2.946
25697W        W90924  36.413  32.715   0.989
25698W        W90925  25.645  11.616  10.548
25699W        W90926  41.372  33.694   4.536
25700W        W90927   5.299   0.436   3.136
25701W        W90928  12.718   9.702  13.062
25702W        W90929  26.215   3.402  12.508
25703W        W90930  10.353  18.344   0.284
25704W        W90931  17.990  37.583  13.531
25705W        W90932  39.805   0.407  12.214
25706W        W90933  42.376  43.613  13.102
25707W        W90934  38.055  11.847  11.691
25708W        W90935  22.403  34.324   3.878
25709W        W90936   0.254   4.705  10.741
25710W        W90937  35.350  41.386  12.209
25711W        W90938  38.203   3.029  10.773
25712W        W90939  34.955  32.024   3.242
25713W        W90940  12.203  21.875  11.243
25714W        W90941  17.816  44.726  13.652
25715W        W90942  12.003  16.521  11.582
25716W        W90943  35.481  12.509   0.377
25717W        W90944  32.032  15.824  11.276
25718W        W90945  38.768  33.483  11.053
25719W        W90946  28.067  17.585   4.615
25720W        W90947   3.630  11.820  11.198
25721W        W90948   5.055  15.916   1.727
25722W        W90949  12.751  34.855   0.443
25723W        W90950  39.096  43.975  14.023
25724W        W90951  19.566   0.249  13.445
25725W        W90952   2.121  34.393   3.457
25726W        W90953   3.627  18.467   2.524
25727W        W90954  15.949  15.533   5.096
25728W        W90955   7.899  20.683  13.257
25729W        W90956  28.465  35.818   3.240
25730W        W90957  11.594  36.989   2.361
25731W        W90958   7.505  30.504   0.786
25732W        W90959  27.081  15.409   4.485
25733W        W90960  12.323  14.033   2.710
25734W        W90961   0.752  22.352   2.213
25735W        W90962  41.396  31.215   3.203
25736W        W90963  20.610  13.302   2.335
25737W        W90964  15.593  30.628  13.460
25738W        W90965  14.869   6.623  12.130
25739W        W90966   4.217   6.073  13.422
25740W        W90967  33.879   9.263   0.518
25741W        W90968  37.496  23.246  14.713
25742W        W90969   3.598   6.397  12.907
25743W        W90970  33.875   6.179  11.175
25744W        W90971  15.396  36.897   4.233
25745W        W90972  21.250  20.213   1.817
25746W        W90973  38.629   7.646   0.290
25747W        W90974  18.772   8.490   2.449
25748W        W90975  14.791   7.575  12.003
25749W        W90976  39.099  13.598   0.233
25750W        W90977  28.386  35.459  11.525
25751W        W90978  23.024  17.215   4.542
25752W        W90979  12.915  29.573   4.541
25753W        W90980   9.171  41.734   3.321
25754W        W90981  36.169  40.292  12.886
25755W        W90982   3.505  29.985  11.901
25756W        W90983  43.292   3.761  14.110
25757W        W90984   5.914  10.825   3.998
25758W        W90985  44.999  29.148  12.840
25759W        W90986  35.980  14.792   4.899
25760W        W90987  23.657  21.997  11.809
25761W        W90988  33.894   8.662   2.258
25762W        W90989  33.832   8.742   1.346
25763W        W90990   5.491  35.820   2.741
25764W        W90991  33.405  32.658  14.343
25765W        W90992  15.129  33.952   2.713
25766W        W90993  14.604   9.129   1.175
25767W        W90994   9.960  26.648  12.979
25768W        W90995  20.261  31.916   0.949
25769W        W90996  34.952  29.697  12.630
25770W        W90997   1.436  35.499  11.087
25771W        W90998  41.416  14.872  11.070
25772W        W90999  16.784  11.170   0.941
25773W        W91000  36.369  16.257   4.481
25774W        W91001  15.543  39.254   1.453
25775W        W91002  26.487  29.009  14.811
25776W        W91003  33.542  16.509   2.286
25777W        W91004  21.700  31.455  13.370
25778W        W91005   3.798  36.309   3.198
25779W        W91006  27.081   4.875  14.494
25780W        W91007  40.887  18.536  11.488
25781W        W91008   8.235  15.070   0.405
25782W        W91009  17.068  44.092  13.462
25783W        W91010  29.425  31.681   0.960
25784W        W91011  16.906  22.216   1.790
25785W        W91012  34.490  40.888  11.123
25786W        W91013   5.309  18.327   0.447
25787W        W91014   2.301  30.041  13.391
25788W        W91015   7.680  33.830  14.756
25789W        W91016   0.719  26.963   0.129
25790W        W91017  16.391  44.242  14.830
25791W        W91018  44.814   7.911   2.492
25792W        W91019   8.900  35.017  14.784
25793W        W91020   1.189  39.524  13.429
25794W        W91021  14.312   0.228  14.040
25795W        W91022  24.645   4.416   0.860
25796W        W91023  26.930  14.384   4.458
25797W        W91024  26.199  30.660  12.615
25798W        W91025  21.714   1.275   5.387
25799W        W91026  22.257   4.892   3.738
25800W        W91027  21.146  39.783  12.172
25801W        W91028  16.857   4.650   4.327
25802W        W91029  43.538  17.166  14.446
25803W        W91030  31.523  18.237   2.765
25804W        W91031  34.949   6.182   4.273
25805W        W91032  20.676  12.388  11.086
25806W        W91033   4.393  37.665  10.973
25807W        W91034  20.690  29.208  14.852
25808W        W91035  20.308   7.179  14.084
25809W        W91036  24.498  42.928   3.902
25810W        W91037  30.590  31.104   1.189
25811W        W91038  12.232  28.108  10.902
25812W        W91039  26.068  43.789   1.366
25813W        W91040   1.495  27.395  12.562
25814W        W91041  42.610  14.816  10.853
25815W        W91042  10.715  21.295  11.622
25816W        W91043  16.623   5.115  11.185
25817W        W91044  36.400  43.496  11.610
25818W        W91045   5.546   2.924  11.436
25819W        W91046  44.896   1.352   1.904
25820W        W91047  39.377  35.313  10.787
25821W        W91048  11.574  22.242   0.406
25822W        W91049  22.233  44.639   1.014
25823W        W91050  24.290  26.236  13.950
25824W        W91051  41.601  28.947  11.251
25825W        W91052  41.023   8.868   1.224
25826W        W91053  16.309  40.403   3.272
25827W        W91054   2.818  16.618  13.043
25828W        W91055  11.859  17.296   3.568
25829W        W91056   3.879   8.751   1.660
25830W        W91057   5.527  31.963  10.671
25831W        W91058   5.704  24.426  12.611
25832W        W91059  31.626  21.097  12.046
25833W        W91060  37.960  28.966   0.039
25834W        W91061  12.779  19.143   4.276
25835W        W91062  31.915  33.342   0.773
25836W        W91063  16.894  24.598   0.889
25837W        W91064  25.664  14.940  12.142
25838W        W91065   2.060  24.307   5.033
25839W        W91066  22.189  37.854  13.674
25840W        W91067  42.923  35.000  14.967
25841W        W91068   2.791  35.607   0.405
25842W        W91069   0.842   2.394   0.013
25843W        W91070  18.679  16.056  11.912
25844W        W91071  33.600   6.610   3.093
25845W        W91072  32.613  40.410  11.536
25846W        W91073  27.043  10.159  11.461
25847W        W91074   3.438  28.131  11.542
25848W        W91075   2.725  17.314   0.746
25849W        W91076  31.830  29.153   4.869
25850W        W91077  37.254  14.797   1.381
25851W        W91078   1.001   9.382   1.294
25852W        W91079  37.072  31.123  10.794
25853W        W91080  27.599   8.082   3.635
25854W        W91081  33.278  16.322   4.022
25855W        W91082   3.946  16.647   2.202
25856W        W91083  40.457   1.658  13.518
25857W        W91084  10.564  41.456  13.569
25858W        W91085   8.057  33.294  10.866
25859W        W91086  24.093  44.308  10.516
25860W        W91087  34.273  44.278   3.161
25861W        W91088  23.710  20.338  14.792
25862W        W91089  25.777  39.067  12.027
25863W        W91090  40.360   9.290  10.861
25864W        W91091  19.957  30.973  13.367
25865W        W91092  34.025  28.931  13.799
25866W        W91093   9.440   5.868   0.682
25867W        W91094  17.016  25.322  13.775
25868W        W91095  16.575  39.094  12.147
25869W        W91096  17.380  20.151  12.139
25870W        W91097  37.503  19.603   0.922
25871W        W91098  41.723  31.514  11.172
25872W        W91099  35.534  15.214   3.345
25873W        W91100  15.841   5.939  14.461
25874W        W91101  25.110  33.089  13.890
25875W        W91102  41.712   1.335  13.476
25876W        W91103  24.965   9.576  10.939
25877W        W91104  28.654  27.776   2.138
25878W        W91105   6.241   9.760   1.138
25879W        W91106   3.621  20.686  13.394
25880W        W91107  23.807   1.667  13.274
25881W        W91108  12.216  17.003  11.558
25882W        W91109  20.592  42.922   1.753
25883W        W91110  31.132  41.665   0.350
25884W        W91111  41.645  11.159  10.986
25885W        W91112  28.963  26.292   4.417
25886W        W91113   3.518  22.762   1.672
25887W        W91114  30.504  32.547  12.040
25888W        W91115   4.653  36.772  14.902
25889W        W91116  33.381  30.226   3.941
25890W        W91117  14.603   9.868  10.720
25891W        W91118  31.222   3.436   1.396
25892W        W91119  33.063  30.491   1.391
25893W        W91120  22.931  13.625  13.537
25894W        W91121  38.035   0.665  11.358
25895W        W91122  34.445  27.203  14.390
25896W        W91123  13.684  42.790  14.297
25897W        W91124  42.850  30.590  13.792
25898W        W91125  20.979  26.716   1.779
25899W        W91126  42.479  25.601   2.943
25900W        W91127  18.839  11.156  11.997
25901W        W91128  16.875   5.325  13.480
25902W        W91129  34.052  24.672   1.304
25903W        W91130  28.918   2.954   4.694
25904W        W91131  30.489  17.574  13.471
25905W        W91132  37.305  26.643   2.182
25906W        W91133  16.274  41.438  11.579
25907W        W91134  20.106   8.815   1.349
25908W        W91135  27.645  40.306  14.774
25909W        W91136  30.517   2.369   2.601
25910W        W91137  37.505  31.422   2.680
25911W        W91138   5.479  26.089  13.171
25912W        W91139  35.005  43.798   1.069
25913W        W91140  42.195  36.020   9.867
25914W        W91141  10.223   1.366  13.878
25915W        W91142  14.198   7.380  14.824
25916W        W91143  22.738   7.884  13.450
25917W        W91144   0.277  41.228  12.037
25918W        W91145  30.990   5.112   0.519
25919W        W91146  10.417   1.737  12.072
25920W        W91147  43.380   0.201  14.067
25921W        W91148  38.946  11.091   4.071
25922W        W91149   2.971  18.715   1.327
25923W        W91150  44.247  10.554  11.230
25924W        W91151  13.189  22.180  10.696
25925W        W91152  13.698  21.016  14.780
25926W        W91153  36.435  35.471   0.811
25927W        W91154  12.772  12.309   0.810
25928W        W91155  24.904   8.078  12.493
25929W        W91156   2.281  20.197  14.295
25930W        W91157  30.586  23.269  12.226
25931W        W91158  38.867  35.293  10.806
25932W        W91159   7.968  18.728   1.552
25933W        W91160  21.550  20.621   1.168
25934W        W91161  30.768   7.086  14.104
25935W        W91162   4.753   8.962  14.470
25936W        W91163   3.365  14.958   1.372
25937W        W91164  32.543  40.906  12.963
25938W        W91165   7.675  27.543  12.722
25939W        W91166  16.318  22.789   1.581
25940W        W91167  32.046  12.263  13.689
25941W        W91168  42.276  43.919  11.432
25942W        W91169  27.172  11.145   0.697
25943W        W91170  11.653   8.700   1.082
25944W        W91171  24.112   8.847   9.742
25945W        W91172   9.143  19.824   2.265
25946W        W91173  43.356  11.694  11.129
25947W        W91174  37.839  30.066   4.541
25948W        W91175   7.002   9.670   1.237
25949W        W91176  21.099  30.443  12.555
25950W        W91177   8.663  28.783  13.755
25951W        W91178  44.395  23.641  14.393
25952W        W91179  34.125  40.132   3.720
25953W        W91180  20.647  11.090   2.680
25954W        W91181  20.205   2.811   0.407
25955W        W91182  36.422  38.433   2.814
25956W        W91183  40.990   7.597   3.646
25957W        W91184   6.813  35.416  11.508
25958W        W91185  40.876   2.881   0.408
25959W        W91186  38.035  39.889  13.474
25960W        W91187   7.480  24.395  12.084
25961W        W91188   4.904  43.196   3.147
25962W        W91189  44.771  16.700  10.324
25963W        W91190  24.370  37.036   2.829
25964W        W91191  44.740  21.313   4.673
25965W        W91192  34.840  39.372   3.570
25966W        W91193  36.849  22.159   0.771
25967W        W91194  15.302  24.680   3.715
25968W        W91195  35.166  13.403  10.890
25969W        W91196  35.429   0.787  14.729
25970W        W91197   7.299  17.999   3.141
25971W        W91198   4.851  44.260   3.309
25972W        W91199  27.660   8.125  13.936
25973W        W91200  32.273  29.531  12.071
25974W        W91201   2.010   9.786  13.450
25975W        W91202  11.265  26.717  11.606
25976W        W91203  16.800   3.336  12.153
25977W        W91204  18.156  35.035  12.876
25978W        W91205  27.997   9.155   0.654
25979W        W91206  39.292  42.076  14.283
25980W        W91207  27.301  30.979   3.985
25981W        W91208  21.687  42.806  10.770
25982W        W91209  16.555  10.680  11.222
25983W        W91210   8.089  37.061  14.499
25984W        W91211   6.793  23.655   1.199
25985W        W91212  25.084   8.563  11.629
25986W        W91213  31.147  28.509   1.286
25987W        W91214  25.371  25.883  10.611
25988W        W91215  37.979  21.750   0.469
25989W        W91216   5.828  41.683   0.415
25990W        W91217  13.805  33.556  12.561
25991W        W91218  36.290  43.438   2.177
25992W        W91219  23.111  31.056   3.733
25993W        W91220  13.290   8.905   4.061
25994W        W91221  41.079  37.578   3.692
25995W        W91222  19.138   5.324  13.629
25996W        W91223  32.949  19.915   3.995
25997W        W91224  37.485  39.905  13.428
25998W        W91225  31.108  27.067   0.570
25999W        W91226   7.877  27.005  11.275
26000W        W91227  28.503  38.098   3.366
26001W        W91228   6.319   2.493  11.559
26002W        W91229  40.334  42.520  12.235
26003W        W91230  21.407  28.221  13.736
26004W        W91231   8.442   5.337  11.600
26005W        W91232  31.130   1.710   3.725
26006W        W91233  24.652  32.926  12.165
26007W        W91234  40.057  17.149   0.780
26008W        W91235  12.304  17.794   4.732
26009W        W91236   2.626   0.995   0.034
26010W        W91237  22.547  26.959  11.662
26011W        W91238   4.650  41.457   1.820
26012W        W91239  24.832  25.496   4.790
26013W        W91240  13.037  31.534   1.236
26014W        W91241  28.562  25.785  12.069
26015W        W91242   6.221  18.105  13.551
26016W        W91243  31.620  14.192  10.284
26017W        W91244  31.690  36.555  14.805
26018W        W91245   7.329  12.120   1.749
26019W        W91246   8.853  38.987   3.751
26020W        W91247  35.620  23.539  12.150
26021W        W91248  40.271   9.968   2.282
26022W        W91249   2.055  21.411   4.163
26023W        W91250  34.115  33.194   1.748
26024W        W91251  32.476  15.117   1.546
26025W        W91252   0.487  18.090   1.914
26026W        W91253  38.990   4.738   9.836
26027W        W91254  13.215  24.886   1.278
26028W        W91255  14.966  39.495  14.971
26029W        W91256  25.423  40.278  14.065
26030W        W91257  23.222  15.144   0.324
26031W        W91258  37.473  33.860  12.526
26032W        W91259  30.047  38.995  13.454
26033W        W91260  35.950  25.852   1.502
26034W        W91261  14.599  24.083   4.471
26035W        W91262   8.778  25.465   3.000
26036W        W91263  39.798  37.241   1.125
26037W        W91264  34.996  14.402  11.739
26038W        W91265  24.946  18.927  14.513
26039W        W91266  35.395  21.858   2.236
26040W        W91267  29.684  29.943  14.600
26041W        W91268  32.255   5.783   0.751
26042W        W91269  25.449  43.050  14.521
26043W        W91270  31.960  29.502   3.074
26044W        W91271  41.230  34.501  13.112
26045W        W91272   8.223  13.883  10.719
26046W        W91273   2.026  20.808  13.775
26047W        W91274  21.063  30.412  13.892
26048W        W91275   9.729  12.809   1.439
26049W        W91276  31.653  14.046  14.450
26050W        W91277  38.361  21.094   3.561
26051W        W91278   4.596  42.611  11.162
26052W        W91279  19.166   3.601   3.601
26053W        W91280  15.553   6.148  12.008
26054W        W91281  41.541  12.612  13.266
26055W        W91282  23.457  28.148   0.702
26056W        W91283  24.020  44.437  12.895
26057W        W91284  18.083  25.069   1.526
26058W        W91285  33.568  42.504  13.011
26059W        W91286  43.028  23.153   3.120
26060W        W91287  11.687  23.234   2.881
26061W        W91288  40.624  34.600   0.291
26062W        W91289  10.370  31.425   4.827
26063W        W91290   1.270  13.726   3.838
26064W        W91291  21.117  29.133   0.844
26065W        W91292   8.057  24.355   0.775
26066W        W91293  44.384  33.258  12.065
26067W        W91294  21.814  15.070  13.137
26068W        W91295   8.188   5.946   0.435
26069W        W91296  24.461   5.921  14.471
26070W        W91297  41.331  17.830  14.749
26071W        W91298  29.061  18.059   4.221
26072W        W91299  20.700   6.743   2.735
26073W        W91300  39.758  22.945   1.693
26074W        W91301  35.836  20.614   2.044
26075W        W91302  26.167   2.869   3.806
26076W        W91303  10.333   8.418  12.913
26077W        W91304   1.749  25.947  14.916
26078W        W91305   9.595  22.969  10.423
26079W        W91306   5.323  13.059   0.722
26080W        W91307   5.863  15.683   0.101
26081W        W91308   1.862  23.951   0.943
26082W        W91309  21.762   0.775   3.649
26083W        W91310  16.777  14.631   1.571
26084W        W91311  40.407   3.796  12.082
26085W        W91312   6.189   0.282  13.454
26086W        W91313   7.708   0.101  14.409
26087W        W91314  44.781  34.070   4.671
26088W        W91315  43.972  43.983  12.798
26089W        W91316   9.089  19.380  10.228
26090W        W91317  39.863  12.712   0.445
26091W        W91318  33.020  21.288  10.725
26092W        W91319  28.920   0.456   1.837
26093W        W91320  21.305  27.316   0.943
26094W        W91321   8.573  13.716   4.969
26095W        W91322  20.845  41.558   3.680
26096W        W91323  36.692   5.707  11.114
26097W        W91324  14.707  12.258   2.346
26098W        W91325   5.879  39.575  12.560
26099W        W91326  33.847   6.233  11.698
26100W        W91327   3.911   0.687  11.131
26101W        W91328   5.733   3.674  10.846
26102W        W91329  25.772   8.230   1.257
26103W        W91330  34.090   7.851  11.072
26104W        W91331  35.853   8.853   1.706
26105W        W91332  34.668  11.457  12.941
26106W        W91333  21.180   9.342   3.626
26107W        W91334   1.006  16.678   5.568
26108W        W91335   9.191  13.814  11.641
26109W        W91336  18.359  18.564  14.289
26110W        W91337  39.292   2.896   4.649
26111W        W91338  14.123  23.801   1.846
26112W        W91339  29.973  38.370   0.797
26113W        W91340  11.934  42.313  12.559
26114W        W91341  34.038  24.976  10.798
26115W        W91342   4.358  31.886   3.404
26116W        W91343  19.348  35.713   2.687
26117W        W91344  32.604  20.565   4.660
26118W        W91345   1.672  30.097  10.995
26119W        W91346  19.247  32.633   2.509
26120W        W91347  26.544  16.534   0.430
26121W        W91348  13.667  43.735   2.658
26122W        W91349   1.003  23.963   0.212
26123W        W91350  38.075  42.634  12.123
26124W        W91351  10.849  34.786   3.613
26125W        W91352  33.115  35.078  13.280
26126W        W91353   7.292  36.653  10.924
26127W        W91354   7.455  13.434   2.118
26128W        W91355  20.317   6.458  11.657
26129W        W91356  15.483  42.885  13.499
26130W        W91357  24.840  44.243  12.887
26131W        W91358   9.175   3.922   4.105
26132W        W91359  14.427  22.476  10.800
26133W        W91360   4.917  28.212  11.500
26134W        W91361   4.318   6.282   4.193
26135W        W91362  21.531  24.264  14.950
26136W        W91363  37.417  35.907   3.377
26137W        W91364  23.651   9.386  10.504
26138W        W91365  21.192  42.298   3.842
26139W        W91366  19.903  10.310   1.611
26140W        W91367  14.353   7.288   4.226
26141W        W91368  29.651   7.719  13.338
26142W        W91369  27.380  40.272   1.686
26143W        W91370   4.445   4.891  11.847
26144W        W91371  44.411  34.260  12.244
26145W        W91372  29.618   0.372   2.675
26146W        W91373  35.277   0.359  11.713
26147W        W91374   5.324   7.395  14.582
26148W        W91375  33.279   4.869   2.311
26149W        W91376  37.039  25.803  14.218
26150W        W91377  43.262  29.393   3.620
26151W        W91378  23.031  22.266   4.510
26152W        W91379  38.886  35.715   1.385
26153W        W91380  23.500  26.312   0.811
26154W        W91381   7.877   7.463  14.430
26155W        W91382  26.889  25.659   3.105
26156W        W91383  27.619  16.280  13.581
26157W        W91384  34.076  23.300   1.710
26158W        W91385  12.645  40.223  13.363
26159W        W91386  35.326  33.481  13.461
26160W        W91387  30.412  29.006  13.894
26161W        W91388  18.167   2.513  12.889
26162W        W91389   3.659   8.331  11.218
26163W        W91390  21.047  39.500  10.445
26164W        W91391  39.048   1.444  14.424
26165W        W91392  40.466  30.109  14.146
26166W        W91393  33.459  18.250  10.460
26167W        W91394  20.785  26.028   2.619
26168W        W91395   0.559  17.568  13.706
26169W        W91396  25.850  28.973  14.678
26170W        W91397  34.106   5.853   4.020
26171W        W91398  36.551  10.725   0.722
26172W        W91399  20.333  20.176   1.958
26173W        W91400  42.036  28.774   4.159
26174W        W91401   9.408   8.194  11.049
26175W        W91402  22.108  42.407   1.194
26176W        W91403  26.534  26.713  12.506
26177W        W91404  37.440  42.067  14.950
26178W        W91405  24.792   0.469  12.424
26179W        W91406  38.485  20.256   2.837
26180W        W91407  28.093  24.827   1.805
26181W        W91408   6.348  40.962  12.415
26182W        W91409  20.061  41.835  14.401
26183W        W91410   4.826   7.321  14.399
26184W        W91411  20.720  28.642   1.281
26185W        W91412  27.967  35.302   2.767
26186W        W91413  14.171  34.145   3.130
26187W        W91414   4.533  12.683   1.961
26188W        W91415  27.369  23.211  14.212
26189W        W91416  28.575  32.995  13.159
26190W        W91417  30.691  18.746   1.843
26191W        W91418  11.338  14.195   0.200
26192W        W91419  38.017  28.397  10.998
26193W        W91420  38.525  14.285   0.218
26194W        W91421  27.500  27.230   1.342
26195W        W91422   8.642  25.614   4.951
26196W        W91423  41.874  19.622   3.209
26197W        W91424  12.962   7.690   1.363
26198W        W91425  29.911  39.047   1.361
26199W        W91426  23.697   4.319  12.086
26200W        W91427  10.230  39.393   2.305
26201W        W91428  17.732   1.521   4.216
26202W        W91429   0.919  13.274   0.220
26203W        W91430  21.039  35.610   0.863
26204W        W91431   1.874  43.185   2.347
26205W        W91432   0.744  15.145  14.878
26206W        W91433  31.135  16.447  13.545
26207W        W91434  29.996  38.407   3.690
26208W        W91435  25.583  42.314   0.850
26209W        W91436  23.822  37.679   2.702
26210W        W91437  34.778  16.831  14.568
26211W        W91438  21.919  44.510  10.262
26212W        W91439  29.674  32.552   2.432
26213W        W91440  21.661  12.035   2.880
26214W        W91441  15.982   5.023  13.898
26215W        W91442   5.300  41.270  11.228
26216W        W91443  39.653   4.652  11.149
26217W        W91444  37.307  29.085   4.705
26218W        W91445  23.515  28.288  11.185
26219W        W91446  38.910  28.735   4.625
26220W        W91447   2.332  38.072   1.406
26221W        W91448  39.135  21.049   0.378
26222W        W91449   7.921  13.624  13.480
26223W        W91450  41.983  36.293  12.006
26224W        W91451  19.188   7.568   2.849
26225W        W91452   4.883  43.160   0.970
26226W        W91453  19.359  31.120   1.289
26227W        W91454  19.664   3.542   3.676
26228W        W91455  27.876  28.462  14.707
26229W        W91456  12.274  24.601   3.186
26230W        W91457  21.577  42.751  10.252
26231W        W91458   4.377   1.898   1.865
26232W        W91459  26.535  44.000  12.457
26233W        W91460  11.711  37.272  11.073
26234W        W91461  26.030  21.464  12.038
26235W        W91462  33.921   0.596   1.822
26236W        W91463  33.862  20.186  12.225
26237W        W91464  18.848  10.902  12.438
26238W        W91465   3.302   4.653  11.641
26239W        W91466   3.129   8.870   4.132
26240W        W91467  31.619  33.650  11.594
26241W        W91468  44.830   6.948   0.771
26242W        W91469   0.871  20.021  10.309
26243W        W91470  38.654  30.678  14.885
26244W        W91471  23.990   1.628   3.982
26245W        W91472   2.909  23.204  12.483
26246W        W91473  18.078  29.876  13.045
26247W        W91474  41.025   3.834  13.069
26248W        W91475   5.305  29.466  14.468
26249W        W91476  44.894  42.251   0.775
26250W        W91477  12.403   5.782   2.347
26251W        W91478   9.595  38.014  14.474
26252W        W91479  30.442  17.655   4.117
26253W        W91480  26.518   9.815  12.117
26254W        W91481  38.495  34.532   0.892
26255W        W91482  28.459  37.986   1.420
26256W        W91483  30.365  40.280   2.711
26257W        W91484  17.240  43.355  11.624
26258W        W91485  13.784  37.965   3.861
26259W        W91486  39.069  22.216   4.037
26260W        W91487  11.367  20.017  14.324
26261W        W91488  24.929  30.731  11.529
26262W        W91489  22.956   9.509   3.890
26263W        W91490  12.295   3.211   4.177
26264W        W91491  20.153   0.816  10.611
26265W        W91492   5.406   1.891  10.739
26266W        W91493  26.529  24.135  12.483
26267W        W91494  29.157  38.880  13.887
26268W        W91495  33.743  16.608   1.487
26269W        W91496   7.867  44.584  13.502
26270W        W91497  41.519  36.054  10.616
26271W        W91498  34.055  14.432   3.945
26272W        W91499  16.283  18.310   0.894
26273W        W91500  36.892  38.933   3.178
26274W        W91501   4.681  22.610   4.285
26275W        W91502  19.048   1.424  14.536
26276W        W91503   7.322  43.500  12.138
26277W        W91504  42.852  38.011  12.415
26278W        W91505  40.872  30.661  12.417
26279W        W91506  42.476  38.034   3.241
26280W        W91507  10.401  21.607  10.779
26281W        W91508  33.264  13.830   2.608
26282W        W91509  33.790   5.401   4.619
26283W        W91510  19.107   3.376  14.139
26284W        W91511  10.718  13.402  12.021
26285W        W91512  17.687  17.320   3.814
26286W        W91513   0.819  19.184  12.559
26287W        W91514  25.799  40.258  10.690
26288W        W91515  21.750  44.714  11.558
26289W        W91516  13.812   0.720   4.152
26290W        W91517  29.407   0.724   0.300
26291W        W91518  19.823  28.637  13.381
26292W        W91519   6.290  28.452  11.565
26293W        W91520   3.252  15.846  14.844
26294W        W91521  40.871  17.088  11.179
26295W        W91522   6.638  36.860   3.190
26296W        W91523  44.441  20.277   2.854
26297W        W91524  11.883  13.753  12.183
26298W        W91525  24.248  10.658   0.152
26299W        W91526  34.510  33.501   0.348
26300W        W91527  28.081  22.214  11.508
26301W        W91528  23.693  20.110   0.739
26302W        W91529   6.933  44.757  12.494
26303W        W91530   2.797  39.476  14.864
26304W        W91531   8.668   4.653  10.929
26305W        W91532   3.398  20.824  10.498
26306W        W91533  20.356  40.009  12.515
26307W        W91534  19.196  11.251   4.586
26308W        W91535  33.442  14.463  10.208
26309W        W91536  13.817   4.672   3.625
26310W        W91537   7.917  35.558   4.194
26311W        W91538  39.624   5.841  11.852
26312W        W91539   4.634   5.791  10.780
26313W        W91540   5.762  35.780   0.330
26314W        W91541  36.107  18.168  13.062
26315W        W91542   9.504  12.921   4.353
26316W        W91543  21.818  42.541  11.946
26317W        W91544   8.501  18.688   2.826
26318W        W91545  21.486   7.418   3.794
26319W        W91546  37.506  40.938   2.263
26320W        W91547  26.627   8.942   3.717
26321W        W91548  34.383  15.253  14.167
26322W        W91549   9.005  13.146   4.451
26323W        W91550  19.011  43.193   0.787
26324W        W91551  34.923  23.669   2.180
26325W        W91552   6.858  28.959  11.246
26326W        W91553  19.600   9.644  11.557
26327W        W91554   7.379  34.887  12.898
26328W        W91555   0.548   8.310   1.830
26329W        W91556  39.341  12.636   1.719
26330W        W91557  35.458  19.675  14.502
26331W        W91558   5.279  30.368   3.197
26332W        W91559  22.802  30.915  11.987
26333W        W91560  23.200  24.633   3.117
26334W        W91561  43.293  14.293   2.257
26335W        W91562  14.750  18.353   2.004
26336W        W91563  12.892  33.921   4.986
26337W        W91564  13.769  40.045  14.573
26338W        W91565  21.766  26.051   2.773
26339W        W91566   2.402  22.525  11.050
26340W        W91567  31.113   0.395  12.533
26341W        W91568  33.820  15.646  14.821
26342W        W91569   6.721  29.476   3.184
26343W        W91570   7.688  18.864   4.525
26344W        W91571  12.216  25.024  14.899
26345W        W91572   2.549  21.335  12.107
26346W        W91573  15.713  15.248   3.385
26347W        W91574  13.663   9.864  14.070
26348W        W91575  29.908  44.844  12.610
26349W        W91576  22.080  39.465  14.254
26350W        W91577  27.395  17.709   2.298
26351W        W91578  18.680   0.177   2.077
26352W        W91579  28.918  36.867   0.489
26353W        W91580  19.747  24.623  13.527
26354W        W91581  42.370  10.457   1.494
26355W        W91582  16.531  12.752   4.204
26356W        W91583   5.299  34.826   4.905
26357W        W91584  16.664   2.269  12.887
26358W        W91585  23.169   6.135  14.945
26359W        W91586  42.212   1.889  12.555
26360W        W91587   7.068   0.803  14.228
26361W        W91588  32.914  19.168  14.621
26362W        W91589  27.727  39.584   1.289
26363W        W91590  15.645  41.041   0.894
26364W        W91591  25.472  34.045  13.561
26365W        W91592  31.933  40.067   0.794
26366W        W91593  11.656  16.771   0.021
26367W        W91594  38.055  30.460  12.010
26368W        W91595   4.410   1.385   2.595
26369W        W91596  12.644  38.904   4.525
26370W        W91597  42.829  27.026   3.619
26371W        W91598  17.608  18.377   3.728
26372W        W91599  34.026   5.319   3.271
26373W        W91600  42.466  26.989   2.332
26374W        W91601  34.750  36.958  14.733
26375W        W91602   1.910  15.940  11.665
26376W        W91603  26.009  12.988  13.250
26377W        W91604  43.290  14.250  13.075
26378W        W91605  24.530   8.871  12.418
26379W        W91606  23.628   3.276   4.964
26380W        W91607   3.326  38.654  13.495
26381W        W91608  13.925  18.592   2.892
26382W        W91609  37.433   9.822  14.102
26383W        W91610  38.558  42.361  12.419
26384W        W91611   8.805  26.084  10.863
26385W        W91612  19.669   7.188   2.184
26386W        W91613  25.660  41.073  12.075
26387W        W91614  30.997  10.180  10.656
26388W        W91615  15.771  12.948  12.632
26389W        W91616   6.894   2.218   3.180
26390W        W91617  19.101  13.363   4.669
26391W        W91618  17.021  19.273   2.511
26392W        W91619   4.828  42.450  13.931
26393W        W91620  16.735  34.348  11.138
26394W        W91621  21.806  18.495   2.372
26395W        W91622  14.535  26.141   3.108
26396W        W91623  27.963   7.071   2.411
26397W        W91624  10.648   3.788  12.046
26398W        W91625  22.025  33.662   0.818
26399W        W91626   1.346  42.244   1.887
26400W        W91627  28.591  40.442  11.624
26401W        W91628   4.849   1.258   2.372
26402W        W91629  31.823  36.596   2.107
26403W        W91630  21.757  27.163  12.306
26404W        W91631   4.917  39.062   4.658
26405W        W91632  35.815  28.432  13.812
26406W        W91633  39.647   4.095   3.278
26407W        W91634  27.232   8.243  12.541
26408W        W91635  15.836  16.319  13.151
26409W        W91636  19.092  37.043  10.116
26410W        W91637  12.776   7.325  10.584
26411W        W91638  28.880   1.739   0.516
26412W        W91639  44.035  17.894  12.245
26413W        W91640   4.411  38.830  14.542
26414W        W91641  41.052   9.737   1.259
26415W        W91642  24.228   2.950  14.414
26416W        W91643  43.878  40.029   4.633
26417W        W91644  35.743  28.004  14.542
26418W        W91645  13.851  31.481  12.109
26419W        W91646   6.911  24.479  14.785
26420W        W91647  22.848   5.735   0.734
26421W        W91648   3.280  43.766  12.933
26422W        W91649  44.098  38.372   2.559
26423W        W91650   3.786  36.480   0.291
26424W        W91651  38.924  18.472  14.849
26425W        W91652  11.342  39.225  11.104
26426W        W91653  32.639  34.651  14.434
26427W        W91654   8.452  37.389  11.141
26428W        W91655  38.666  19.961  12.392
26429W        W91656  13.733  11.359  12.084
26430W        W91657  13.358  20.144  13.095
26431W        W91658  10.034  30.031  12.915
26432W        W91659  18.192  38.812  13.188
26433W        W91660  15.553  18.795  14.245
26434W        W91661  11.209   4.939  13.060
26435W        W91662  25.487   6.276   1.226
26436W        W91663  23.673   0.101   3.445
26437W        W91664  20.483   3.396  13.517
26438W        W91665  40.655  20.443   0.063
26439W        W91666  11.748  10.961  13.849
26440W        W91667  25.480  15.615  11.466
26441W        W91668  22.005  41.786   1.437
26442W        W91669  23.505   8.845   3.378
26443W        W91670  16.333  35.673  11.891
26444W        W91671  13.167  42.896   4.544
26445W        W91672  23.287  30.531  13.857
26446W        W91673  15.102  29.014  14.958
26447W        W91674  21.546  26.169  10.937
26448W        W91675  33.712  34.359   0.953
26449W        W91676  29.879   0.770   3.575
26450W        W91677   3.910  24.177   3.242
26451W        W91678   1.109  13.471   4.805
26452W        W91679  35.544  13.129  12.122
26453W        W91680  25.709  28.927  13.424
26454W        W91681  23.161   3.123   2.564
26455W        W91682  35.934   1.264  14.038
26456W        W91683  17.221  28.174   1.847
26457W        W91684   8.669  44.260   2.795
26458W        W91685   2.009  44.878   3.151
26459W        W91686  23.948  19.523   0.138
26460W        W91687  44.300  22.275  11.473
26461W        W91688  15.163  22.137   3.483
26462W        W91689  19.804   7.717   2.189
26463W        W91690  43.884  12.557   2.750
26464W        W91691  14.794  31.545  11.703
26465W        W91692  42.972  15.615   2.136
26466W        W91693  12.111  10.125  11.673
26467W        W91694  35.162  33.132  12.116
26468W        W91695  32.144  43.996   4.493
26469W        W91696  30.699  36.802  13.380
26470W        W91697  12.480  14.650  10.250
26471W        W91698  12.424   4.740   3.696
26472W        W91699  37.515  21.765   0.251
26473W        W91700  16.498  10.781  12.070
26474W        W91701  20.382  21.523  13.064
26475W        W91702   0.329   7.941  13.343
26476W        W91703   2.797  40.034  14.896
26477W        W91704   3.711   3.200   0.448
26478W        W91705  29.443  41.153  11.222
26479W        W91706  29.461  22.998   3.715
26480W        W91707  33.003   3.860  13.444
26481W        W91708  19.953  39.356  12.561
26482W        W91709  37.886   2.988   3.757
26483W        W91710  31.048  31.038   4.429
26484W        W91711  25.720  33.415  12.305
26485W        W91712  14.090   8.891  12.715
26486W        W91713  23.282  35.003  11.516
26487W        W91714  27.510  11.653   2.802
26488W        W91715  29.978  30.397  14.475
26489W        W91716  15.963  25.300  12.963
26490W        W91717  24.474  16.726   2.679
26491W        W91718   2.889  21.140  14.287
26492W        W91719  42.969  21.314  13.838
26493W        W91720   2.650   1.657  10.187
26494W        W91721  14.356  20.703   0.297
26495W        W91722  28.073  28.721   2.227
26496W        W91723  37.638  15.142   1.312
26497W        W91724   5.733  14.182   3.782
26498W        W91725   4.884  36.960   3.782
26499W        W91726  41.368  12.296   3.264
26500W        W91727  33.991  12.649  12.494
26501W        W91728   8.085   2.365   4.125
26502W        W91729   4.355   8.250   2.587
26503W        W91730  29.339  16.118   0.163
26504W        W91731  31.587  42.300  12.595
26505W        W91732  14.921  30.623   3.049
26506W        W91733   1.473   9.194   3.537
26507W        W91734  18.487  41.222  12.526
26508W        W91735   6.302  20.701   1.499
26509W        W91736  24.438  15.412   4.306
26510W        W91737  37.046  14.122   3.287
26511W        W91738  18.256   8.175   0.275
26512W        W91739  16.268  20.332   3.647
26513W        W91740   0.706  27.971   1.863
26514W        W91741  32.156   0.515   2.604
26515W        W91742  29.915  44.450  14.395
26516W        W91743  28.272  13.142  14.380
26517W        W91744  42.444  40.974   0.780
26518W        W91745   1.012  24.998   2.362
26519W        W91746  26.228  32.100   1.766
26520W        W91747  24.658  23.145  12.074
26521W        W91748  18.835  36.061  12.994
26522W        W91749  19.150  11.618  13.031
26523W        W91750  22.118  10.261  10.835
26524W        W91751  41.404  37.340  11.108
26525W        W91752  34.882  12.837   4.767
26526W        W91753  21.713  35.104   0.443
26527W        W91754  32.727  24.158  13.891
26528W        W91755  20.039  12.794  10.349
26529W        W91756  40.569  14.660  12.640
26530W        W91757  20.616  25.263  11.203
26531W        W91758  15.685  16.904  14.433
26532W        W91759  42.248   6.325  14.083
26533W        W91760  22.248  39.391   3.129
26534W        W91761  32.034   2.816  14.685
26535W        W91762  34.011  10.138  10.654
26536W        W91763  43.566  24.199  10.713
26537W        W91764  32.147  42.610   1.726
26538W        W91765  43.398  44.468  13.257
26539W        W91766  42.718   9.259  10.962
26540W        W91767  17.113   5.480  12.082
26541W        W91768  32.681  39.811  14.281
26542W        W91769   2.368  26.275  14.326
26543W        W91770  16.629  10.515  13.074
26544W        W91771  16.842  31.379   1.912
26545W        W91772  33.614  12.295  13.480
26546W        W91773  29.063  42.295   2.669
26547W        W91774  30.990  38.745   2.774
26548W        W91775  38.985  30.738   0.285
26549W        W91776  44.844  34.231  11.036
26550W        W91777   5.664  37.568  14.995
26551W        W91778   6.917  20.968  13.472
26552W        W91779  11.301  32.864   2.167
26553W        W91780  40.050  26.928   1.392
26554W        W91781   1.241  32.667  10.555
26555W        W91782  40.816  37.533  13.764
26556W        W91783   1.620  11.317  12.180
26557W        W91784  29.728  37.257  12.499
26558W        W91785  14.836  42.187  14.873
26559W        W91786   7.202  22.762   2.229
26560W        W91787  19.145  35.644   1.299
26561W        W91788  36.034   8.884   0.292
26562W        W91789  32.617  39.890   1.843
26563W        W91790  23.611  23.610  14.812
26564W        W91791  44.473   0.867   2.310
26565W        W91792  19.580  14.238  14.799
26566W        W91793  33.523  30.132   0.392
26567W        W91794  29.086  41.970  11.954
26568W        W91795   0.778   4.906  13.860
26569W        W91796  18.739  43.783  13.695
26570W        W91797  19.738  32.660   1.774
26571W        W91798   9.280  41.759   3.832
26572W        W91799  44.420  33.179  10.724
26573W        W91800   4.870  10.772   0.212
26574W        W91801  36.079  38.072   4.527
26575W        W91802  13.597  25.511   3.651
26576W        W91803  27.556  12.311  12.046
26577W        W91804  41.844  20.121   2.371
26578W        W91805  28.145  18.466   2.800
26579W        W91806  19.992  23.882  10.388
26580W        W91807  13.401  31.481   0.865
26581W        W91808  36.367  35.500   2.335
26582W        W91809   1.663  28.011   3.130
26583W        W91810  25.632  19.696  12.848
26584W        W91811  42.868  40.095  13.575
26585W        W91812  25.635  15.598   3.768
26586W        W91813  37.504  30.527  12.037
26587W        W91814  17.043  13.251   4.482
26588W        W91815  15.342  19.255   0.044
26589W        W91816   4.849  15.161   4.422
26590W        W91817  34.520  30.395   4.990
26591W        W91818  21.514  43.436  11.954
26592W        W91819  22.560   1.611  12.722
26593W        W91820  35.832  16.132   0.697
26594W        W91821   7.681   2.613   0.016
26595W        W91822   8.953  24.475   0.729
26596W        W91823   9.083   9.359  12.474
26597W        W91824  31.055  41.009   2.743
26598W        W91825  12.838   7.196   4.236
26599W        W91826  29.599   2.950  10.905
26600W        W91827   7.753  19.744  12.010
26601W        W91828  23.116   1.972  14.326
26602W        W91829   6.770  12.768   4.608
26603W        W91830  29.527  33.229  11.196
26604W        W91831  29.465   4.352  12.849
26605W        W91832  38.466   0.750   1.829
26606W        W91833  29.388   3.652   3.591
26607W        W91834  20.732   2.812   4.650
26608W        W91835  26.503  34.070  12.441
26609W        W91836  13.148  12.812  11.510
26610W        W91837  35.833  18.600  14.517
26611W        W91838  35.471   5.746   0.335
26612W        W91839  28.869   0.939  12.189
26613W        W91840  38.424  15.282  10.692
26614W        W91841   6.346  29.883  12.746
26615W        W91842  11.490  18.243  12.111
26616W        W91843  29.790   1.788   1.750
26617W        W91844  21.273  14.743   5.056
26618W        W91845   8.178  24.482   1.304
26619W        W91846  12.259  25.750   3.198
26620W        W91847   4.922  33.145  10.682
26621W        W91848  30.224  44.457  13.412
26622W        W91849  37.114   6.366  11.623
26623W        W91850  38.391  35.887   4.835
26624W        W91851   8.188  25.765  14.785
26625W        W91852   5.302  21.328  14.322
26626W        W91853  13.342  34.849   2.674
26627W        W91854  15.204  18.828  12.119
26628W        W91855   4.263  42.382  14.330
26629W        W91856   3.204  15.698  11.448
26630W        W91857  22.121   0.692  14.350
26631W        W91858  19.807   4.643   1.290
26632W        W91859  42.485  33.512  11.659
26633W        W91860  38.978  40.709  11.223
26634W        W91861  17.815  19.935   4.577
26635W        W91862  38.603   8.497   0.717
26636W        W91863   3.756   5.971  10.491
26637W        W91864  42.891  20.307  14.762
26638W        W91865  40.077  29.227  11.059
26639W        W91866  27.295  18.748  14.900
26640W        W91867  27.284   6.858   4.450
26641W        W91868  26.528  39.395  11.691
26642W        W91869  35.923  11.902   1.332
26643W        W91870  20.305  26.074   4.169
26644W        W91871  35.782  35.300  11.588
26645W        W91872   9.685  23.263   1.327
26646W        W91873  31.107  26.565  12.142
26647W        W91874  11.500  14.937  10.052
26648W        W91875  15.696  42.091   1.675
26649W        W91876  27.906   1.856  13.050
26650W        W91877  20.316   7.992  13.062
26651W        W91878   0.137  17.783   0.153
26652W        W91879  27.150  20.798  11.654
26653W        W91880  14.606  33.161   1.365
26654W        W91881  19.917  17.904  11.050
26655W        W91882  38.922  29.846   0.493
26656W        W91883  38.210  24.334  13.518
26657W        W91884   9.379  23.836  13.040
26658W        W91885   4.373  24.968   2.365
26659W        W91886  27.515  26.741  13.409
26660W        W91887  39.432  29.047  10.658
26661W        W91888  39.201   6.696   1.714
26662W        W91889  15.886  38.509  10.157
26663W        W91890  39.364  27.147   0.756
26664W        W91891   8.200  42.515   1.006
26665W        W91892  13.254  34.445  11.787
26666W        W91893  23.802  24.760   1.410
26667W        W91894  17.067  20.180  10.820
26668W        W91895   7.157   5.145  11.997
26669W        W91896  38.360  43.665   0.274
26670W        W91897  18.054  17.372  12.392
26671W        W91898  11.364  14.897   2.310
26672W        W91899   4.204  37.718   3.308
26673W        W91900  44.379   0.953  11.164
26674W        W91901  22.725  43.892  12.842
26675W        W91902  44.039  21.975   9.729
26676W        W91903   9.218  28.434   3.773
26677W        W91904   6.932  41.615   1.778
26678W        W91905  18.628  22.787   4.575
26679W        W91906  28.665   8.706   1.662
26680W        W91907  24.456  30.502  11.357
26681W        W91908  19.795  19.151  12.440
26682W        W91909  31.471   2.194   1.250
26683W        W91910  10.257   0.369  14.510
26684W        W91911   2.983  31.107  10.791
26685W        W91912   9.108  13.556  11.212
26686W        W91913  25.643  22.027  12.094
26687W        W91914   0.968  40.796   1.682
26688W        W91915   6.208  33.292  10.505
26689W        W91916  29.695   4.220  13.425
26690W        W91917  33.281  14.261  10.663
26691W        W91918   6.118  37.046  12.069
26692W        W91919  16.758  28.706  11.599
26693W        W91920  15.113  12.342   4.696
26694W        W91921   8.727  41.298  14.594
26695W        W91922  41.525  15.063  13.366
26696W        W91923   3.336  36.185   1.142
26697W        W91924   3.772  28.190   3.276
26698W        W91925   1.127  37.880   3.619
26699W        W91926   2.711  38.936  14.041
26700W        W91927  24.037  26.323   1.697
26701W        W91928  18.364  34.120   2.394
26702W        W91929  16.787  20.196   0.747
26703W        W91930  11.076   8.248   3.650
26704W        W91931  42.332  24.661   4.051
26705W        W91932  34.980  44.511   2.819
26706W        W91933   5.164  27.559   2.429
26707W        W91934  18.107   0.967  11.612
26708W        W91935  23.807   4.777  10.825
26709W        W91936  14.143  40.162  10.296
26710W        W91937  12.061  42.924   1.349
26711W        W91938  40.294  15.568  11.706
26712W        W91939  13.595  24.552  12.284
26713W        W91940   1.022   7.490  13.899
26714W        W91941   0.352  24.094   2.695
26715W        W91942  22.733  33.876  12.715
26716W        W91943  34.738  18.047  14.840
26717W        W91944  27.536  33.470  13.891
26718W        W91945  10.142  32.096  12.381
26719W        W91946  12.254  25.184   2.321
26720W        W91947  22.591  27.423   4.604
26721W        W91948  43.850  30.370  10.780
26722W        W91949  31.089  43.066   3.751
26723W        W91950   6.813  36.480   4.330
26724W        W91951   5.036   8.757   0.749
26725W        W91952  17.811  22.274  14.935
26726W        W91953  26.645   7.310   0.951
26727W        W91954  14.616   6.664   3.194
26728W        W91955  43.927  36.000   4.225
26729W        W91956  40.861  30.209  12.790
26730W        W91957  18.499  17.375   5.024
26731W        W91958  40.542  23.036  13.882
26732W        W91959  35.101   3.920   3.859
26733W        W91960   2.967   0.748  11.747
26734W        W91961  40.102   1.161   0.952
26735W        W91962  14.130  34.559   2.768
26736W        W91963  29.691  24.555  14.994
26737W        W91964  31.977  36.325   1.669
26738W        W91965  14.851  21.176  14.388
26739W        W91966  29.390  28.056   1.402
26740W        W91967  23.841  37.163   2.796
26741W        W91968  40.032  15.848  14.980
26742W        W91969  30.526  11.870   3.281
26743W        W91970  32.936   3.130   0.675
26744W        W91971  14.050  23.625  13.849
26745W        W91972  22.728  12.554  11.245
26746W        W91973   0.429  13.562  12.093
26747W        W91974  41.583   0.439   0.684
26748W        W91975   1.941  17.837  10.751
26749W        W91976  26.969   2.715   0.857
26750W        W91977  44.378  36.014   0.959
26751W        W91978  40.310  15.272   4.840
26752W        W91979  31.497   7.634   4.307
26753W        W91980   9.760   6.292   3.861
26754W        W91981  16.255  36.452   3.927
26755W        W91982   4.441   9.129   1.218
26756W        W91983  22.226   3.145  11.916
26757W        W91984  34.037  24.553  13.832
26758W        W91985  24.484  14.134   3.839
26759W        W91986  11.903  27.092  13.771
26760W        W91987  32.442  34.371  14.051
26761W        W91988  14.675  39.535  12.379
26762W        W91989  35.607  11.259  13.851
26763W        W91990  26.177  39.386   1.226
26764W        W91991  20.728  11.879  11.070
26765W        W91992  20.914  44.511   3.516
26766W        W91993   7.694  36.557   2.354
26767W        W91994  38.430  21.758   0.177
26768W        W91995  32.056  42.543   4.419
26769W        W91996  40.290  13.690  12.439
26770W        W91997  15.280  43.501   0.743
26771W        W91998  16.223   0.364   0.474
26772W        W91999  43.827  41.431  13.924
26773W        W92000  40.461   2.936  10.701
26774W        W92001   9.087  30.512   1.776
26775W        W92002  29.513  25.973  13.838
26776W        W92003  40.574   7.188   1.716
26777W        W92004  12.264  34.374  10.298
26778W        W92005   5.292  12.810  12.435
26779W        W92006  28.835  17.850   2.388
26780W        W92007  17.199  16.523   3.712
26781W        W92008  21.257  34.382   2.987
26782W        W92009   0.033   3.172   3.598
26783W        W92010  19.607  15.054  12.014
26784W        W92011  16.638  32.202   2.209
26785W        W92012   9.982  36.558   2.272
26786W        W92013  15.732   2.885  13.465
26787W        W92014   2.897   2.193   3.318
26788W        W92015  23.674  21.810  13.876
26789W        W92016   4.628  15.225  11.581
26790W        W92017  43.019  14.723   2.110
26791W        W92018  24.614  25.885   3.568
26792W        W92019  23.844  20.681  11.543
26793W        W92020  33.566   1.786  14.290
26794W        W92021  40.401  18.331  12.636
26795W        W92022  42.070  41.568   1.018
26796W        W92023  37.489  44.311   1.380
26797W        W92024  20.679  31.384  14.967
26798W        W92025  13.090   8.210   1.353
26799W        W92026   0.410   2.940   1.511
26800W        W92027  23.595   2.813  10.662
26801W        W92028  17.985  12.266   3.431
26802W        W92029   4.665  30.663  13.379
26803W        W92030   4.242  40.521   1.797
26804W        W92031  25.883  34.262  13.891
26805W        W92032  13.064   1.344  13.459
26806W        W92033   6.206  36.525   2.514
26807W        W92034  38.614  33.482   2.267
26808W        W92035  44.513  43.348  14.856
26809W        W92036  22.195  39.862  10.833
26810W        W92037   5.240  38.067  10.471
26811W        W92038  35.325  41.588   3.585
26812W        W92039  33.543   1.503   3.298
26813W        W92040  43.911  42.862   0.355
26814W        W92041  15.008   1.807   2.026
26815W        W92042  15.581  33.123   0.348
26816W        W92043  40.220  28.040  14.881
26817W        W92044  44.782   3.751  12.673
26818W        W92045  35.487  41.533  10.503
26819W        W92046  26.525   5.470   4.547
26820W        W92047   7.337  33.684  11.193
26821W        W92048  26.547  19.582  12.936
26822W        W92049  37.295  27.218   1.600
26823W        W92050  35.193  11.864  11.435
26824W        W92051  43.458  41.249   4.466
26825W        W92052   6.687  32.957   3.162
26826W        W92053   0.930  27.353  13.079
26827W        W92054  15.659  11.267   3.671
26828W        W92055  42.930  19.588   1.742
26829W        W92056  26.403  43.107   4.038
26830W        W92057  44.871  42.573  13.785
26831W        W92058  17.139  17.742  14.917
26832W        W92059  26.750  43.525  12.494
26833W        W92060  38.109   3.516   3.231
26834W        W92061   4.413   7.831   0.913
26835W        W92062  38.400  40.958  11.974
26836W        W92063  11.219  18.382   4.803
26837W        W92064  23.027  25.114  13.906
26838W        W92065   4.837  13.328   4.111
26839W        W92066  23.093  26.010  14.877
26840W        W92067  44.347  35.298   4.508
26841W        W92068  19.221  40.002  11.268
26842W        W92069  23.998  17.107   1.793
26843W        W92070  34.544  41.520  10.495
26844W        W92071  26.950  21.754   2.851
26845W        W92072  27.499   0.585   4.384
26846W        W92073   7.790  16.555  13.752
26847W        W92074  17.222   7.297  13.286
26848W        W92075   9.025   7.305   5.191
26849W        W92076  31.172  21.126   0.768
26850W        W92077  34.971  18.465  10.355
26851W        W92078  19.850   3.020  14.749
26852W        W92079  23.570  32.585  10.679
26853W        W92080  13.968  22.893   0.823
26854W        W92081  18.647  28.742  12.392
26855W        W92082  43.480  22.284   0.216
26856W        W92083  22.031   8.335  12.994
26857W        W92084   1.808   4.378   4.086
26858W        W92085  13.765  22.477   2.718
26859W        W92086  24.089   2.642   2.173
26860W        W92087  14.904   9.575   3.654
26861W        W92088  29.263  45.000   4.816
26862W        W92089  40.190  23.109   2.560
26863W        W92090  35.712  20.511  14.384
26864W        W92091  26.666  31.496   4.158
26865W        W92092  13.678  26.041   3.659
26866W        W92093   8.454  25.414   3.380
26867W        W92094   9.435  44.253   0.351
26868W        W92095  36.062  33.484   3.977
26869W        W92096  27.365  39.882  11.882
26870W        W92097  16.069  13.587  13.539
26871W        W92098  33.972  17.070  10.507
26872W        W92099   7.667  26.502   0.180
26873W        W92100  16.255  35.943   4.543
26874W        W92101  41.410   3.527   0.035
26875W        W92102  10.743  33.849  14.885
26876W        W92103  34.502  20.655  12.441
26877W        W92104   8.378   5.930  12.226
26878W        W92105  31.129  42.749  12.286
26879W        W92106   0.454  27.499   0.493
26880W        W92107  36.446  44.012  11.653
26881W        W92108   7.791  19.718   9.735
26882W        W92109  35.519  28.818   0.350
26883W        W92110   0.327  42.899  13.724
26884W        W92111   0.887   7.180   1.261
26885W        W92112  21.176  11.278  11.721
26886W        W92113  31.541  22.267  14.156
26887W        W92114  14.807  39.875   1.812
26888W        W92115  13.058  19.748  12.230
26889W        W92116   5.403  26.322   0.898
26890W        W92117   5.397  25.116  14.345
26891W        W92118  18.537   1.928  12.244
26892W        W92119  22.237  31.192   3.786
26893W        W92120  15.479   2.761  13.036
26894W        W92121  32.935  42.041   4.189
26895W        W92122  17.008  40.409  11.944
26896W        W92123  25.548   5.493   3.634
26897W        W92124  36.984  28.859   0.185
26898W        W92125  22.996  37.064  10.165
26899W        W92126  31.968   3.752  14.265
26900W        W92127  27.527  17.874  14.962
26901W        W92128   9.939   9.817  14.194
26902W        W92129  13.135  20.758  12.500
26903W        W92130  14.631  21.471  14.755
26904W        W92131  15.529  31.184   0.619
26905W        W92132  17.225   8.107  14.362
26906W        W92133  44.955  25.687   1.061
26907W        W92134  43.137  15.406  14.514
26908W        W92135  11.032  41.788   2.334
26909W        W92136   2.486  28.971  11.922
26910W        W92137  25.870  38.454  13.878
26911W        W92138  40.890  33.422   4.568
26912W        W92139   7.703  23.609   0.861
26913W        W92140  19.774  28.653   3.764
26914W        W92141   1.759  31.234  12.607
26915W        W92142  31.531   0.494  12.254
26916W        W92143  30.183  10.108   1.417
26917W        W92144  17.768  34.599   2.856
26918W        W92145   5.993  25.105   1.751
26919W        W92146  44.257  35.076   1.767
26920W        W92147   3.936  37.433   1.565
26921W        W92148  31.106   5.368  13.612
26922W        W92149  23.650  24.125   2.822
26923W        W92150  17.030  37.288  13.640
26924W        W92151  19.932  21.672  12.580
26925W        W92152  18.836  19.051  12.531
26926W        W92153  41.320  30.875  12.093
26927W        W92154  27.229  12.600   1.463
26928W        W92155  20.596  16.574   1.218
26929W        W92156  37.837  41.025   0.860
26930W        W92157  36.590  10.491   1.561
26931W        W92158  18.609  13.162   1.143
26932W        W92159   8.937  23.919  10.204
26933W        W92160  26.751   3.773  14.659
26934W        W92161  19.877   9.352   0.536
26935W        W92162   8.165  16.022   0.459
26936W        W92163  32.016   8.414  11.517
26937W        W92164  27.017  43.009  11.169
26938W        W92165  40.429  15.445   2.225
26939W        W92166  16.374  22.726   1.058
26940W        W92167  28.273  25.088  11.596
26941W        W92168  15.374  17.876   3.585
26942W        W92169  37.552  36.892   1.928
26943W        W92170   8.977  30.490  13.827
26944W        W92171  37.881  16.006   3.734
26945W        W92172  37.645  11.018   3.244
26946W        W92173  18.329  40.449   3.680
26947W        W92174  39.978   4.638  10.744
26948W        W92175  27.317  13.242  11.075
26949W        W92176  29.695  34.845   1.047
26950W        W92177   8.539  12.745  11.314
26951W        W92178  29.096  18.898  13.850
26952W        W92179  19.669  10.085   2.304
26953W        W92180  41.350  29.045  14.762
26954W        W92181   3.172  20.694  13.699
26955W        W92182  44.889   5.268  14.842
26956W        W92183   4.898  13.309   2.245
26957W        W92184  37.885  32.760  13.977
26958W        W92185  34.553  10.792  13.533
26959W        W92186  37.563   9.968   2.825
26960W        W92187  26.507   3.664  11.683
26961W        W92188  28.437  36.069   2.787
26962W        W92189  36.342  11.217   1.985
26963W        W92190  13.750   6.960   1.962
26964W        W92191  37.106  37.662  13.310
26965W        W92192  41.798  16.745  13.264
26966W        W92193  38.258  40.084  13.981
26967W        W92194  22.064  36.031   5.022
26968W        W92195   5.309  41.204   4.647
26969W        W92196  25.567   8.210   4.647
26970W        W92197  25.423  19.339   4.621
26971W        W92198  30.773  28.074  11.620
26972W        W92199   3.229  19.953   1.811
26973W        W92200  43.405   6.372  14.576
26974W        W92201  40.893  39.570   2.059
26975W        W92202  26.929  34.508   0.431
26976W        W92203  30.868   1.289  12.927
26977W        W92204  14.235   5.803   2.426
26978W        W92205  38.029  28.682  11.443
26979W        W92206   0.089  37.770   1.847
26980W        W92207  16.747  15.746   9.938
26981W        W92208   0.142   1.483  10.806
26982W        W92209  32.942  33.125   1.262
26983W        W92210   2.693  16.963  11.342
26984W        W92211  40.579   9.439   3.861
26985W        W92212  28.932   9.337   2.818
26986W        W92213  40.271  30.667  14.282
26987W        W92214  22.399  22.639   4.911
26988W        W92215   2.787  15.492  14.507
26989W        W92216  41.032  41.490   2.691
26990W        W92217  16.617  37.168  12.481
26991W        W92218  23.670  19.266   3.663
26992W        W92219  35.548  43.466   0.441
26993W        W92220  18.693  29.165   3.978
26994W        W92221  25.607  41.059   0.313
26995W        W92222  40.523  31.061  14.491
26996W        W92223   1.576  37.322  11.907
26997W        W92224  24.127  34.088   1.222
26998W        W92225  36.821  26.428   0.220
26999W        W92226  39.462  44.449   2.722
27000W        W92227   6.538  30.472   4.313
27001W        W92228  21.137  12.624  12.164
27002W        W92229   2.112  14.419   3.161
27003W        W92230  29.952  32.557  14.387
27004W        W92231  25.139  44.818  10.627
27005W        W92232  13.878  23.943  10.643
27006W        W92233  24.477  27.651  10.736
27007W        W92234  33.753  18.630   3.661
27008W        W92235  23.628  19.034   2.344
27009W        W92236  20.014  35.290  12.918
27010W        W92237  40.365  42.638  13.425
27011W        W92238   9.858  28.906  12.931
27012W        W92239  41.609   2.975   2.149
27013W        W92240  37.596  31.322  10.499
27014W        W92241  31.175  31.863   0.316
27015W        W92242  28.810  34.923   4.557
27016W        W92243  26.118  15.773   3.918
27017W        W92244  32.667  20.538   1.935
27018W        W92245   5.263  10.814  14.531
27019W        W92246  34.326  13.734   2.227
27020W        W92247  11.620   7.448   4.504
27021W        W92248  10.274  27.958  10.932
27022W        W92249  16.054  13.661   2.385
27023W        W92250   8.671  42.292   1.033
27024W        W92251  22.712  26.163   2.287
27025W        W92252  21.204  40.672  14.096
27026W        W92253  18.185  43.069  13.919
27027W        W92254  21.412  30.617  13.468
27028W        W92255  25.555  21.229   3.143
27029W        W92256  27.929   1.690   2.854
27030W        W92257   7.841  29.904  10.762
27031W        W92258  30.935  20.951   1.179
27032W        W92259  24.593  20.453  13.491
27033W        W92260   8.246  16.337   4.685
27034W        W92261   4.229  23.399   0.876
27035W        W92262  16.734  38.783  14.989
27036W        W92263   4.186  35.148  13.049
27037W        W92264   1.250  14.868   1.380
27038W        W92265  14.824  26.601  11.503
27039W        W92266  22.013  19.945  14.818
27040W        W92267  27.778  22.207  14.772
27041W        W92268  14.181  43.796   0.251
27042W        W92269   6.539  28.723   4.135
27043W        W92270  42.101  25.055  11.155
27044W        W92271  40.415  32.955  11.837
27045W        W92272  30.668  29.089   4.136
27046W        W92273   9.734  18.149   2.171
27047W        W92274  37.034   0.205  14.365
27048W        W92275   4.882  38.143  12.443
27049W        W92276  39.220  12.814   1.231
27050W        W92277  21.071   0.344  11.569
27051W        W92278  25.616  23.983  10.767
27052W        W92279   6.850  29.440   3.725
27053W        W92280  18.988  32.023   4.192
27054W        W92281  33.524   8.687   4.026
27055W        W92282  30.002   8.315   3.274
27056W        W92283  32.629  42.649  12.975
27057W        W92284   1.305  17.710   3.647
27058W        W92285  28.623  12.831   3.630
27059W        W92286  39.759  24.583  13.179
27060W        W92287  16.273  10.750   3.775
27061W        W92288   7.056  37.948   4.600
27062W        W92289  42.866   3.273  13.711
27063W        W92290  30.452  37.148  14.767
27064W        W92291  16.736  16.586  14.878
27065W        W92292  28.161  39.286  14.968
27066W        W92293  40.159  12.005   1.680
27067W        W92294  29.106   1.404   3.076
27068W        W92295  11.077  21.697  14.423
27069W        W92296  35.518  39.051  14.374
27070W        W92297  38.990   1.982  11.943
27071W        W92298  10.739  23.055   3.349
27072W        W92299  28.707   9.765   3.576
27073W        W92300  13.833  26.931  14.961
27074W        W92301   0.884  22.120   3.493
27075W        W92302  35.303  20.528   0.282
27076W        W92303  17.495  44.726   4.023
27077W        W92304   2.315  39.973  10.671
27078W        W92305  37.914  18.746   2.881
27079W        W92306  33.788  35.468   3.502
27080W        W92307   4.748  23.231  13.966
27081W        W92308  29.098  31.945  13.030
27082W        W92309   1.922  19.974   2.201
27083W        W92310   5.646  16.594  12.053
27084W        W92311  38.030   4.400  12.337
27085W        W92312  44.729  36.048  14.287
27086W        W92313  13.771  40.083  13.496
27087W        W92314  20.223  27.961   2.821
27088W        W92315  34.227  12.783   4.122
27089W        W92316  25.231  20.167   1.805
27090W        W92317  26.620  33.882   4.621
27091W        W92318  41.059   3.722   0.368
27092W        W92319  43.781  11.405  11.136
27093W        W92320   4.285  29.548   1.402
27094W        W92321  43.449  18.470  14.984
27095W        W92322   6.062  39.349  13.947
27096W        W92323  10.618  11.072  14.935
27097W        W92324  16.283  10.353   2.848
27098W        W92325  12.033  20.336  12.705
27099W        W92326  28.363  13.433  11.101
27100W        W92327  29.054   0.481  11.327
27101W        W92328   0.527  29.769   4.088
27102W        W92329  21.987  22.689  12.829
27103W        W92330  28.522   2.420   3.619
27104W        W92331  12.171  22.995  12.688
27105W        W92332  43.145  42.594   3.685
27106W        W92333  23.124  42.418  14.374
27107W        W92334  16.125  28.940   0.097
27108W        W92335   7.772  31.094  14.017
27109W        W92336  39.384  40.911   0.048
27110W        W92337  20.032  36.930  10.715
27111W        W92338  17.066   4.164   4.352
27112W        W92339  30.880  41.110  14.859
27113W        W92340  21.670  19.430   3.743
27114W        W92341  29.045  17.330  10.444
27115W        W92342  26.187  36.565  14.882
27116W        W92343  14.196  33.441   0.420
27117W        W92344  39.102  44.505  11.154
27118W        W92345  42.900  25.635  11.106
27119W        W92346  42.835  38.531   1.828
27120W        W92347  15.144  31.495  10.918
27121W        W92348  34.893  16.765  13.418
27122W        W92349  12.536   0.689  12.373
27123W        W92350  23.257  13.092   1.861
27124W        W92351  21.776  21.437  13.998
27125W        W92352  11.179   9.086   3.669
27126W        W92353  14.570  13.922   3.381
27127W        W92354  44.569  38.394   2.326
27128W        W92355   2.938   7.002  12.450
27129W        W92356   9.648   9.081   9.779
27130W        W92357  15.056   9.710  10.962
27131W        W92358  24.856  35.074  12.272
27132W        W92359  33.545  31.619   1.953
27133W        W92360   6.310  16.709  12.882
27134W        W92361  12.635   6.876   2.708
27135W        W92362   5.301   9.725   3.667
27136W        W92363  26.488  39.644   0.883
27137W        W92364  26.434  29.224   0.298
27138W        W92365   6.530  11.572  14.529
27139W        W92366  38.604  32.853   2.741
27140W        W92367  41.283  31.095   0.928
27141W        W92368  41.854  14.161  12.038
27142W        W92369  29.883  13.907   3.595
27143W        W92370   4.390  36.948  12.310
27144W        W92371  10.903  21.075  11.181
27145W        W92372  19.762  33.861   2.449
27146W        W92373   6.473  17.698  13.780
27147W        W92374  19.638   3.364  12.400
27148W        W92375   7.325  38.061  11.489
27149W        W92376  21.885  17.258  11.013
27150W        W92377  37.195  29.680  12.500
27151W        W92378  36.072  27.442   3.573
27152W        W92379  44.297  32.101  11.528
27153W        W92380  34.977  15.160  11.112
27154W        W92381  35.372   7.330  11.686
27155W        W92382  26.084  43.408  13.615
27156W        W92383  15.915  31.017   1.578
27157W        W92384  12.224  41.575  10.404
27158W        W92385  34.494  23.569   1.874
27159W        W92386  32.605  34.157  10.321
27160W        W92387  37.441  21.014  13.080
27161W        W92388  32.513  38.035   0.479
27162W        W92389  22.290   0.189  10.765
27163W        W92390  36.362  29.382   1.844
27164W        W92391   3.538   7.040   0.307
27165W        W92392   8.502  27.975   0.862
27166W        W92393  28.265  12.307  12.452
27167W        W92394  38.519   0.436   3.398
27168W        W92395  35.179  29.448  11.271
27169W        W92396  15.332   5.871  12.505
27170W        W92397  39.826  29.208  11.555
27171W        W92398  39.882   5.247   0.429
27172W        W92399  15.566  37.370  13.419
27173W        W92400  20.126  18.132  11.882
27174W        W92401  30.368  21.601   1.470
27175W        W92402  27.874  24.697   4.058
27176W        W92403   7.539  38.465  13.906
27177W        W92404  38.780  34.614   4.713
27178W        W92405  21.445  25.672  10.675
27179W        W92406   9.438  11.777   2.781
27180W        W92407   5.269  23.657  10.832
27181W        W92408  30.416   1.209  11.617
27182W        W92409   2.958  30.426   0.793
27183W        W92410   8.234  41.268   3.230
27184W        W92411  27.658  15.103  12.558
27185W        W92412   2.417  19.261   1.195
27186W        W92413   0.209  44.499   1.176
27187W        W92414  21.738  16.585  11.100
27188W        W92415   7.882  22.998  12.457
27189W        W92416  16.764  43.049  14.027
27190W        W92417  23.454  36.126  13.513
27191W        W92418  33.124  23.727  12.031
27192W        W92419   5.377   8.359   0.979
27193W        W92420  16.789  31.999  11.209
27194W        W92421  29.503   3.512  14.950
27195W        W92422  34.550  41.574  12.607
27196W        W92423  44.252  22.471   0.973
27197W        W92424  13.399  21.233  12.465
27198W        W92425  20.301  21.829   2.707
27199W        W92426   6.729   0.958   1.398
27200W        W92427   1.763  11.819   0.485
27201W        W92428  35.014   1.794  14.711
27202W        W92429  44.880  37.287   2.734
27203W        W92430  23.909  41.746  11.221
27204W        W92431  16.687   9.825  11.626
27205W        W92432  23.621  42.244   0.315
27206W        W92433  41.568  18.746  10.225
27207W        W92434  28.164  38.975  12.893
27208W        W92435   2.343  22.747  14.872
27209W        W92436  37.995  42.150  11.088
27210W        W92437  19.322  42.279   2.586
27211W        W92438  12.642  31.205   1.020
27212W        W92439  35.958   5.854  13.426
27213W        W92440  14.686  12.443   4.430
27214W        W92441  44.375   2.031   4.127
27215W        W92442  10.104  17.429  11.644
27216W        W92443  29.593  44.503  14.784
27217W        W92444  44.542   4.197   2.553
27218W        W92445  17.202   2.418  11.229
27219W        W92446  13.720  13.508   1.282
27220W        W92447  21.772   3.718  11.313
27221W        W92448  24.728   7.594  11.224
27222W        W92449  12.571   1.353   4.230
27223W        W92450   6.519  40.602  13.851
27224W        W92451  30.979  28.106  11.146
27225W        W92452  12.738  13.038   4.072
27226W        W92453  14.378  29.602  14.084
27227W        W92454  33.515  23.627  13.814
27228W        W92455   2.007  28.948   1.768
27229W        W92456  42.545  13.655   2.323
27230W        W92457  32.536  11.538   4.045
27231W        W92458  13.595  31.523   0.375
27232W        W92459  39.123   4.463  11.946
27233W        W92460  32.306  37.093   0.735
27234W        W92461  22.288  18.691  12.108
27235W        W92462   6.971  16.165  12.056
27236W        W92463  30.683  19.367  11.184
27237W        W92464   7.943  24.574  10.760
27238W        W92465  33.750  26.005   2.195
27239W        W92466   6.664  36.251  11.274
27240W        W92467  25.871  33.350   1.408
27241W        W92468  40.546  15.901   1.339
27242W        W92469   9.823  25.636   3.040
27243W        W92470  24.983  19.755   3.729
27244W        W92471  19.082  26.434   2.383
27245W        W92472  21.536  33.614  10.575
27246W        W92473   5.661  43.529   3.955
27247W        W92474  24.614  18.674   3.389
27248W        W92475  40.870  15.412  12.568
27249W        W92476  13.871  15.581   1.423
27250W        W92477  27.305  43.898  14.891
27251W        W92478  16.761  19.955   4.855
27252W        W92479  15.124   6.642   3.207
27253W        W92480  35.047  29.750   0.579
27254W        W92481  38.599  33.146  11.982
27255W        W92482   7.391  42.910   2.871
27256W        W92483  10.767  41.794  11.633
27257W        W92484  13.153   7.655   0.864
27258W        W92485  26.094  34.422   4.301
27259W        W92486   8.263  16.691  10.711
27260W        W92487  35.622  17.845  12.097
27261W        W92488  22.570  24.806   2.340
27262W        W92489  16.774  15.083  12.518
27263W        W92490   8.346   3.869   1.760
27264W        W92491  29.988  29.474  14.554
27265W        W92492  38.300  21.840   4.464
27266W        W92493  16.606   1.507   1.230
27267W        W92494   1.326   5.454  12.542
27268W        W92495  37.685  23.931  10.257
27269W        W92496  13.545  13.860   1.665
27270W        W92497  37.442  19.178   3.313
27271W        W92498  38.497  39.840   1.742
27272W        W92499  32.278  31.358  14.844
27273W        W92500  12.370  39.788  13.526
27274W        W92501   4.220  19.341  11.197
27275W        W92502   1.113  33.340  11.562
27276W        W92503   5.961  17.528  14.853
27277W        W92504  34.068  16.998   1.225
27278W        W92505  20.080  12.238  14.905
27279W        W92506  10.710  44.371   2.326
27280W        W92507  19.743   2.608  10.264
27281W        W92508  28.383   1.974  10.860
27282W        W92509  20.804   3.257   1.801
27283W        W92510  43.865  35.585  12.327
27284W        W92511  43.604  42.818  10.599
27285W        W92512  41.912  23.179   4.213
27286W        W92513   0.798  12.747  13.960
27287W        W92514  24.508  33.324   4.206
27288W        W92515  29.541  38.076   4.428
27289W        W92516  40.253  27.758  12.841
27290W        W92517  24.381  30.836  12.623
27291W        W92518  34.401  36.766   1.243
27292W        W92519  12.223  41.470   2.691
27293W        W92520  30.750  41.336   1.438
27294W        W92521  39.640  18.587   4.567
27295W        W92522  39.031  36.645  11.165
27296W        W92523   7.444  15.164  11.820
27297W        W92524  14.464  36.649   5.137
27298W        W92525  16.793  38.062  14.105
27299W        W92526  43.419  25.594   2.818
27300W        W92527   3.921   1.049  10.699
27301W        W92528  15.118  11.246   1.905
27302W        W92529  29.355  26.154   3.643
27303W        W92530  16.709   2.815  12.084
27304W        W92531  12.881   0.084   0.838
27305W        W92532  10.058  28.202  14.757
27306W        W92533  20.666  35.146   3.894
27307W        W92534  42.753  32.011   2.242
27308W        W92535  43.347  23.454   1.743
27309W        W92536  21.708  33.092   3.201
27310W        W92537   7.772  33.072   3.350
27311W        W92538  34.868   7.068   4.956
27312W        W92539  42.037  44.171  10.395
27313W        W92540  42.342  20.837  10.691
27314W        W92541  13.959   7.963   1.113
27315W        W92542  28.435  27.452  13.794
27316W        W92543  21.197  40.377   0.490
27317W        W92544  24.378  36.834   2.347
27318W        W92545  26.598  15.622   5.078
27319W        W92546  36.526   4.323   0.712
27320W        W92547   0.073  21.722   3.297
27321W        W92548   3.186  17.118   2.324
27322W        W92549   6.888   1.683  13.960
27323W        W92550  36.359  36.242   4.149
27324W        W92551  14.852   8.714  13.878
27325W        W92552  29.124  28.396  11.629
27326W        W92553  28.919  34.046   3.676
27327W        W92554  25.697  30.902   3.516
27328W        W92555  28.489  29.747  13.908
27329W        W92556  28.102  24.003   2.211
27330W        W92557  26.529  39.904  11.063
27331W        W92558  36.658  28.254  12.124
27332W        W92559  25.012  40.048  11.049
27333W        W92560  28.495  16.324  11.895
27334W        W92561  21.552   7.602  10.816
27335W        W92562  13.294  33.558   2.288
27336W        W92563  36.916  38.567   3.580
27337W        W92564  14.193  31.168  13.489
27338W        W92565  34.476  25.847  11.729
27339W        W92566  27.628  24.336   0.596
27340W        W92567  29.913   4.874   1.155
27341W        W92568  26.166  26.181   0.945
27342W        W92569  13.640  15.199   0.855
27343W        W92570  42.589  29.690  12.376
27344W        W92571   9.091  19.311   9.689
27345W        W92572   6.768  33.881  13.194
27346W        W92573   5.656  13.780   3.484
27347W        W92574  22.504  12.630   2.770
27348W        W92575  44.955  27.668   0.467
27349W        W92576  37.420  39.071  14.060
27350W        W92577  18.768   9.289  12.075
27351W        W92578  17.190  10.400  11.144
27352W        W92579  34.284  10.505  13.061
27353W        W92580  11.822   8.269   1.855
27354W        W92581  10.582  11.942  10.261
27355W        W92582  20.612  18.161   4.537
27356W        W92583  25.508  19.972   1.360
27357W        W92584  28.422  10.178   1.682
27358W        W92585  13.955  25.563   2.788
27359W        W92586  25.625  18.106  13.809
27360W        W92587  36.546  37.094  11.546
27361W        W92588   4.168  32.103   4.678
27362W        W92589   7.483  14.482  13.899
27363W        W92590  15.610  29.369   1.356
27364W        W92591  28.615  13.803   1.948
27365W        W92592  34.259  11.950  14.416
27366W        W92593  10.228   3.211  10.779
27367W        W92594  15.730  33.179   4.072
27368W        W92595   3.965  33.500   4.548
27369W        W92596   2.856  33.333  13.463
27370W        W92597  11.327  37.957   4.660
27371W        W92598   3.258  25.785  14.290
27372W        W92599  19.659  24.264   1.795
27373W        W92600  26.059   3.915  13.262
27374W        W92601  32.196  24.738   3.572
27375W        W92602  43.262   5.317  11.147
27376W        W92603  19.576  28.450  10.679
27377W        W92604  44.750   1.840   1.918
27378W        W92605  44.012  43.983  14.302
27379W        W92606  16.926  23.687   0.623
27380W        W92607  34.491  39.337   4.538
27381W        W92608  10.958  24.543  10.706
27382W        W92609  15.856  11.941  10.734
27383W        W92610   0.937  39.968   1.274
27384W        W92611   8.879  17.612   5.009
27385W        W92612  23.136   9.418   1.742
27386W        W92613   8.867  19.519   0.797
27387W        W92614  10.606  15.754   0.821
27388W        W92615  36.290   5.189  10.141
27389W        W92616  43.787   3.145  11.681
27390W        W92617  26.494   2.950   2.890
27391W        W92618   1.132  35.598   3.313
27392W        W92619  40.098  12.257  12.647
27393W        W92620  43.869  36.355  14.872
27394W        W92621  33.923  13.803  13.313
27395W        W92622  14.024  44.819   2.786
27396W        W92623  42.856  29.236   4.550
27397W        W92624  34.523   7.995  12.154
27398W        W92625  19.898  24.468   0.045
27399W        W92626  34.935  11.322   1.955
27400W        W92627  20.268   4.233   3.072
27401W        W92628   5.779  32.500   1.448
27402W        W92629  11.234  28.091  10.597
27403W        W92630  28.680  12.949  11.118
27404W        W92631  32.979   3.327   2.167
27405W        W92632  34.900   6.946  11.611
27406W        W92633  26.561  25.645  11.496
27407W        W92634  44.411  18.368  12.628
27408W        W92635  19.023   0.630   3.115
27409W        W92636   0.061  33.921   4.202
27410W        W92637  44.308  37.844  10.710
27411W        W92638  10.498  43.917  10.878
27412W        W92639  16.949   8.449   0.259
27413W        W92640  30.362  15.109  14.009
27414W        W92641  43.482  44.315  10.988
27415W        W92642  22.477  18.536  10.070
27416W        W92643   4.995  17.835  12.388
27417W        W92644  29.348  29.650  11.069
27418W        W92645  12.654  29.933  14.859
27419W        W92646   8.333   4.716   3.227
27420W        W92647  26.703  13.235   2.669
27421W        W92648  18.481  41.234  11.658
27422W        W92649  18.534  32.508   3.042
27423W        W92650   3.005  10.110   2.275
27424W        W92651  15.425  34.517   1.491
27425W        W92652  40.500  18.278   4.205
27426W        W92653  35.842  38.425  11.894
27427W        W92654   2.251  25.602  10.168
27428W        W92655   2.767   3.541  14.535
27429W        W92656  40.305  16.193   3.910
27430W        W92657  27.011  20.081   4.634
27431W        W92658  27.659   5.822   3.113
27432W        W92659   7.832  28.222   3.172
27433W        W92660   8.763  18.348   2.269
27434W        W92661  33.867   7.417   2.893
27435W        W92662  36.381  17.370   2.388
27436W        W92663  36.808  23.969  10.749
27437W        W92664  37.357  12.347   4.939
27438W        W92665  16.103  12.776   3.409
27439W        W92666  30.081  32.047   4.912
27440W        W92667   4.354  12.941  12.460
27441W        W92668  12.210  19.214  11.918
27442W        W92669  32.564   2.677  14.750
27443W        W92670  38.840  11.714  13.093
27444W        W92671  19.663  34.693   4.628
27445W        W92672  37.431  34.025   1.429
27446W        W92673  24.489  41.839   1.415
27447W        W92674  36.465  18.873   1.356
27448W        W92675  17.564  22.996   2.754
27449W        W92676   7.810  44.331  10.757
27450W        W92677  39.297   8.286  14.262
27451W        W92678  22.126  14.652   3.754
27452W        W92679   2.745  19.750   1.216
27453W        W92680  35.612  24.279  14.000
27454W        W92681  44.776  36.786  13.003
27455W        W92682  20.099  19.326  13.801
27456W        W92683  28.652  31.497  10.608
27457W        W92684  18.591  14.633   1.239
27458W        W92685  44.232  25.196   2.802
27459W        W92686   0.736  44.389   1.286
27460W        W92687  38.112  34.689   3.256
27461W        W92688  26.964  28.084   2.160
27462W        W92689  26.181  16.151  10.435
27463W        W92690   0.199   1.127  11.174
27464W        W92691  36.349  26.364  12.485
27465W        W92692  39.507  13.025  12.900
27466W        W92693  27.318  27.962  12.474
27467W        W92694  42.509  10.601  11.158
27468W        W92695  19.318  39.968   4.471
27469W        W92696  30.725  29.434  14.065
27470W        W92697  15.091  30.970   0.429
27471W        W92698  28.639  19.241  13.803
27472W        W92699  21.936  33.729  11.591
27473W        W92700  42.441  39.532   2.420
27474W        W92701   7.844  42.610   3.298
27475W        W92702  27.537   3.565  14.786
27476W        W92703  33.671   6.052   0.525
27477W        W92704  18.992  14.920   4.204
27478W        W92705   9.105  41.413  10.149
27479W        W92706  14.606  32.638  11.336
27480W        W92707   8.723   0.032   4.316
27481W        W92708  29.454  18.450   0.754
27482W        W92709  10.473  30.512  14.366
27483W        W92710  13.648   4.409   3.209
27484W        W92711  41.076   1.261   1.801
27485W        W92712  14.279  16.058  14.546
27486W        W92713  43.990   1.653  12.311
27487W        W92714   3.230  31.389   2.174
27488W        W92715  44.778  27.716   3.282
27489W        W92716  27.272  32.207  13.563
27490W        W92717  33.865  13.899  11.975
27491W        W92718  16.328  34.470   3.058
27492W        W92719  42.466  30.717  10.686
27493W        W92720  18.967   3.889   3.186
27494W        W92721   8.984  34.428   2.789
27495W        W92722   2.270  39.790  14.041
27496W        W92723   6.837   5.169   3.339
27497W        W92724  27.037  41.887  14.301
27498W        W92725  28.057  28.002   3.240
27499W        W92726   0.504   5.793  11.595
27500W        W92727  30.360   1.527   4.139
27501W        W92728  20.009  35.291   2.782
27502W        W92729  23.215  10.806   2.105
27503W        W92730  18.491  20.155   1.545
27504W        W92731  34.993   6.826  14.802
27505W        W92732   5.447  13.112  10.892
27506W        W92733  26.718   5.301   0.783
27507W        W92734  23.767  19.092  10.624
27508W        W92735  19.824  33.948   4.711
27509W        W92736  43.295   6.880  14.746
27510W        W92737  16.148  16.613   1.334
27511W        W92738  16.514   1.459  12.439
27512W        W92739  23.154   4.205   2.294
27513W        W92740  38.782  13.132  13.439
27514W        W92741  13.226  13.243  12.487
27515W        W92742  40.925  23.334   1.862
27516W        W92743  33.529   6.964   4.928
27517W        W92744  43.053  13.424  14.186
27518W        W92745   3.114  21.624   4.330
27519W        W92746  28.860  14.655  12.493
27520W        W92747  34.423  26.170  10.978
27521W        W92748  24.462  13.857  13.162
27522W        W92749   3.205  14.508   1.569
27523W        W92750  33.008  36.920   1.608
27524W        W92751  44.277   0.962   0.328
27525W        W92752  10.982  18.544   1.283
27526W        W92753   2.828   6.095   4.283
27527W        W92754  30.016  33.747   1.257
27528W        W92755   9.908  42.578   2.764
27529W        W92756   3.101  14.144  12.485
27530W        W92757  23.058  36.516  10.862
27531W        W92758  25.980   1.894   0.879
27532W        W92759  44.230  21.830  13.928
27533W        W92760  13.464  37.859  13.178
27534W        W92761  14.190  12.904   3.134
27535W        W92762   8.682  13.738  11.470
27536W        W92763   3.859  23.386  11.142
27537W        W92764   6.803   2.494   4.629
27538W        W92765   5.372  20.720  10.357
27539W        W92766   6.819  12.288   4.797
27540W        W92767  20.093  39.605  11.228
27541W        W92768   2.322  32.522   1.311
27542W        W92769  22.818   5.645  12.526
27543W        W92770  31.098   5.035   4.193
27544W        W92771  37.019   6.789   1.248
27545W        W92772  34.592  10.035  13.053
27546W        W92773  38.993   8.275  12.502
27547W        W92774  44.820  19.902   1.460
27548W        W92775  15.682  38.282   1.849
27549W        W92776   8.473  30.472  12.351
27550W        W92777  32.939  38.596   0.575
27551W        W92778  36.720  42.923  11.010
27552W        W92779  15.345  28.249   0.288
27553W        W92780  18.630   7.751   2.672
27554W        W92781  26.126   1.230   2.364
27555W        W92782  17.659  37.647  13.135
27556W        W92783  42.353  28.743   2.984
27557W        W92784   3.718  33.459   3.378
27558W        W92785  26.644   2.345   0.657
27559W        W92786  20.696  32.941   3.889
27560W        W92787  13.350  14.240   3.706
27561W        W92788  38.385  23.045  14.704
27562W        W92789  34.126  32.577  12.408
27563W        W92790  28.870  10.929   4.485
27564W        W92791  43.795  40.946   4.175
27565W        W92792  43.269  42.808  12.668
27566W        W92793  25.817   5.277  14.049
27567W        W92794  17.640  29.606   4.631
27568W        W92795   0.585  21.466   2.190
27569W        W92796  33.041  39.970   3.405
27570W        W92797  14.056  25.589  13.551
27571W        W92798  18.978  35.167   1.534
27572W        W92799  24.778  10.897  11.196
27573W        W92800  22.038  16.114   0.486
27574W        W92801  38.484  25.486   2.645
27575W        W92802  14.177   0.715  13.861
27576W        W92803  38.752  12.624   0.402
27577W        W92804  16.034  16.467   4.603
27578W        W92805   4.880  29.403   3.381
27579W        W92806  39.722   9.004  12.907
27580W        W92807  22.535  10.798  13.108
27581W        W92808  42.797   6.673   1.910
27582W        W92809   5.938   8.321   3.369
27583W        W92810  43.494  42.085   1.290
27584W        W92811   5.856   3.234  14.879
27585W        W92812  40.337  39.086  12.937
27586W        W92813  36.419  11.811   1.466
27587W        W92814  17.340   4.335  13.451
27588W        W92815  36.982  13.183  12.678
27589W        W92816  17.079  37.655  11.181
27590W        W92817  21.744  17.857  13.652
27591W        W92818  29.747   3.480  10.432
27592W        W92819  23.699  25.933   1.661
27593W        W92820  28.562  41.253  13.054
27594W        W92821  33.003  40.405  10.366
27595W        W92822  28.980  34.569   3.768
27596W        W92823  25.192  30.849   4.784
27597W        W92824   4.353  37.007  11.799
27598W        W92825  25.011   4.508   0.466
27599W        W92826  13.915  27.420   4.206
27600W        W92827  43.337  27.919   4.525
27601W        W92828  20.890  42.250   1.393
27602W        W92829  12.938   6.631  11.629
27603W        W92830  17.458  40.062  13.576
27604W        W92831   5.126  40.244  11.192
27605W        W92832   6.174  18.317   0.456
27606W        W92833  35.713  11.597  14.510
27607W        W92834  25.133  24.030  13.869
27608W        W92835  30.214  10.599   1.186
27609W        W92836  13.775  29.501   4.862
27610W        W92837  21.075  29.691  14.485
27611W        W92838  24.542  36.087  11.068
27612W        W92839  36.819  41.870  12.887
27613W        W92840  35.059  38.342  11.939
27614W        W92841   3.934  17.037  14.395
27615W        W92842  23.029   9.625  13.244
27616W        W92843  31.035  15.325   2.779
27617W        W92844  18.836  21.751   0.781
27618W        W92845  32.540  25.210   4.366
27619W        W92846  37.285  27.954   2.289
27620W        W92847   3.802   5.637   2.738
27621W        W92848  21.259  43.147   2.809
27622W        W92849   7.191  34.757   0.517
27623W        W92850  27.189  33.223  14.414
27624W        W92851   2.968  23.721   3.619
27625W        W92852  36.673  40.445   0.458
27626W        W92853  40.099  33.502  11.565
27627W        W92854  25.427  29.568  13.867
27628W        W92855   8.840  28.640   3.074
27629W        W92856  13.836  14.721   3.273
27630W        W92857  11.795  16.818  12.847
27631W        W92858  11.356   2.664   2.090
27632W        W92859  40.218   8.757  12.908
27633W        W92860  20.239   9.234   2.660
27634W        W92861   2.809  42.276  14.976
27635W        W92862  34.502  16.811   4.776
27636W        W92863   9.005   0.491   3.357
27637W        W92864   5.682   2.287  13.585
27638W        W92865   1.579   3.318  13.857
27639W        W92866  32.564   4.485   0.010
27640W        W92867   8.322  41.122  10.778
27641W        W92868   1.076  22.636  12.497
27642W        W92869  14.702  11.178  13.034
27643W        W92870  38.837   1.186  11.675
27644W        W92871  18.694   5.911  11.448
27645W        W92872  17.259  15.841  12.576
27646W        W92873  32.479  44.114  14.262
27647W        W92874  42.601  26.164  12.267
27648W        W92875  23.685  41.489   4.653
27649W        W92876  40.041  36.505  11.173
27650W        W92877  22.431  29.090  14.759
27651W        W92878  21.123   0.115  12.069
27652W        W92879  30.709  32.100   0.398
27653W        W92880  32.497  35.167  14.466
27654W        W92881  39.086   6.841   2.188
27655W        W92882  31.913   4.842  14.941
27656W        W92883  34.151  28.479  12.043
27657W        W92884  15.733  42.533  13.839
27658W        W92885  40.934  32.698  11.488
27659W        W92886   1.850  26.973  12.833
27660W        W92887  24.615   8.434  14.477
27661W        W92888  15.697  14.345  13.641
27662W        W92889   2.701   1.343  14.347
27663W        W92890  41.377  38.785   4.375
27664W        W92891  28.207   7.754  13.586
27665W        W92892   8.622   8.561  11.600
27666W        W92893  38.403  15.985   3.824
27667W        W92894  18.419   1.438   3.635
27668W        W92895  30.362  26.420  13.998
27669W        W92896   5.855  15.903  11.567
27670W        W92897   0.017  38.902   2.829
27671W        W92898  23.501  32.400  12.264
27672W        W92899  28.992  26.396  12.423
27673W        W92900  24.929  38.607  12.942
27674W        W92901   8.219   3.968   0.827
27675W        W92902   4.732   0.826   2.668
27676W        W92903  26.928  14.295   2.062
27677W        W92904  40.869   2.487  13.180
27678W        W92905  26.407   0.902  10.024
27679W        W92906  35.522  33.863   3.361
27680W        W92907  30.641   8.950  14.309
27681W        W92908  14.693  19.022   4.194
27682W        W92909  44.827   0.502   0.951
27683W        W92910  19.524   7.325  14.497
27684W        W92911  22.080  44.747  11.965
27685W        W92912  32.405   1.972  11.069
27686W        W92913  36.418   6.124  13.306
27687W        W92914   9.869  24.006  13.008
27688W        W92915   3.457  33.008   1.883
27689W        W92916  20.661  25.211  14.067
27690W        W92917  31.521  39.844   4.534
27691W        W92918   2.892  41.253   3.084
27692W        W92919  14.851  11.698   0.438
27693W        W92920  32.620  34.978  10.626
27694W        W92921  15.200  39.570   4.095
27695W        W92922  44.736  43.631   3.109
27696W        W92923  27.230  25.806   1.308
27697W        W92924   0.278   4.332  14.285
27698W        W92925  33.596  43.712   3.966
27699W        W92926   4.694  39.441   1.308
27700W        W92927   7.229  41.870  10.681
27701W        W92928  32.003  39.809  12.912
27702W        W92929  11.799  25.551   1.911
27703W        W92930  37.408  32.073   4.313
27704W        W92931  29.817  14.353  10.551
27705W        W92932   8.415  40.654  14.419
27706W        W92933  23.974  43.044   4.029
27707W        W92934  39.541  29.927  14.388
27708W        W92935  28.922  17.470   1.654
27709W        W92936  43.684  23.573   2.533
27710W        W92937  27.511  14.610   1.282
27711W        W92938  42.473  15.803   3.328
27712W        W92939  27.726  29.408   2.892
27713W        W92940  13.376  11.759   1.927
27714W        W92941  26.615  30.666   1.416
27715W        W92942  39.631  20.014  14.547
27716W        W92943  28.078   6.529  10.601
27717W        W92944  16.529  17.783   4.207
27718W        W92945  40.045  44.897  12.004
27719W        W92946  23.154  29.134  13.064
27720W        W92947   9.338  41.556   0.822
27721W        W92948  21.109   5.501   1.283
27722W        W92949  43.820  41.865  13.653
27723W        W92950  23.449  30.478  11.128
27724W        W92951  26.423   2.116   4.178
27725W        W92952   9.518  14.718   1.312
27726W        W92953   2.857  42.764   4.164
27727W        W92954   6.367  38.388   1.211
27728W        W92955  13.586  38.981  13.990
27729W        W92956  21.135   1.327  12.586
27730W        W92957   4.286  13.400  10.984
27731W        W92958  19.173  16.365  13.577
27732W        W92959  36.870  40.442  14.584
27733W        W92960  11.935  16.378   2.903
27734W        W92961  41.936  20.172   1.414
27735W        W92962   2.935  13.056  14.301
27736W        W92963  14.594  28.156  10.759
27737W        W92964  39.506   4.630   4.887
27738W        W92965  22.595  41.764   4.287
27739W        W92966   6.562  23.925  13.989
27740W        W92967  36.966  34.058  11.690
27741W        W92968  25.770  16.655  14.035
27742W        W92969  44.345  39.685   0.985
27743W        W92970  26.523  27.069  11.067
27744W        W92971  44.985  37.683  12.985
27745W        W92972  39.543  32.494   3.754
27746W        W92973  14.885  35.475  13.892
27747W        W92974  36.479   9.438   1.252
27748W        W92975  40.990   7.403   4.150
27749W        W92976  42.898  29.649  11.292
27750W        W92977  11.809  35.869  10.310
27751W        W92978  37.946   0.979   2.868
27752W        W92979  23.985  16.124  13.995
27753W        W92980  21.260  16.990   4.060
27754W        W92981   9.399   7.135   0.997
27755W        W92982  38.836  29.185  14.504
27756W        W92983  30.902  34.996  11.726
27757W        W92984  20.307  34.157   1.227
27758W        W92985  18.878   3.905  14.945
27759W        W92986  18.312   1.821  11.813
27760W        W92987  17.782   6.227   0.313
27761W        W92988   1.138  22.582  13.858
27762W        W92989  23.737  39.058  11.105
27763W        W92990  13.761  17.311   1.863
27764W        W92991   4.914   0.794   0.802
27765W        W92992   9.453  32.633   3.795
27766W        W92993  23.547  33.848   3.325
27767W        W92994   4.835  13.930  10.516
27768W        W92995  21.768  41.944   4.091
27769W        W92996  34.652  34.521   4.374
27770W        W92997  12.369   2.847   1.863
27771W        W92998   2.508  29.279  12.747
27772W        W92999  32.894   9.119  12.098
27773W        W93000   7.344   5.673  11.299
27774W        W93001  23.480  10.628  14.074
27775W        W93002   4.481  40.072   4.060
27776W        W93003  18.438  22.914   0.070
27777W        W93004   6.221  14.160  10.778
27778W        W93005  20.742  11.921  14.576
27779W        W93006  26.705  22.123   2.269
27780W        W93007   6.843  24.651   1.241
27781W        W93008  13.408  11.769   4.602
27782W        W93009  43.085  33.118   4.081
27783W        W93010   6.394  33.623  12.943
27784W        W93011  41.710  35.982  11.101
27785W        W93012  42.470  24.676   3.543
27786W        W93013  13.467   1.984  11.672
27787W        W93014  43.125  35.421  14.012
27788W        W93015  19.020  11.560   5.324
27789W        W93016  40.607  22.782  10.373
27790W        W93017  27.905  24.750  12.514
27791W        W93018   7.835  44.106   4.143
27792W        W93019  13.769  38.117   2.821
27793W        W93020   5.655  20.606   3.362
27794W        W93021   6.084  42.901  13.339
27795W        W93022  19.481  31.884   4.279
27796W        W93023  17.164  44.673  11.725
27797W        W93024  18.622  13.442   4.484
27798W        W93025  12.461  12.632  13.883
27799W        W93026  13.846   7.236   2.812
27800W        W93027  21.830  23.704   2.567
27801W        W93028  39.012  20.635  12.405
27802W        W93029  12.649  31.020   2.457
27803W        W93030   3.840  31.303   1.796
27804W        W93031  12.607  10.958  12.930
27805W        W93032   5.970  39.288   1.620
27806W        W93033  14.524  34.822  14.663
27807W        W93034  12.941  39.976  11.136
27808W        W93035  32.529  29.288   3.137
27809W        W93036  29.948  30.043   3.394
27810W        W93037   7.181  36.885   2.705
27811W        W93038  15.629  16.552   1.298
27812W        W93039  19.698  17.211   1.233
27813W        W93040  24.284  12.604  13.907
27814W        W93041  40.286  40.856  12.477
27815W        W93042   0.911   9.198  13.716
27816W        W93043   2.834   4.374  11.554
27817W        W93044   5.820  19.624  13.640
27818W        W93045   2.093  23.676   1.341
27819W        W93046  34.835  44.797   0.640
27820W        W93047  11.602  29.629   0.281
27821W        W93048  18.541  16.636  13.421
27822W        W93049  18.943  27.189  13.546
27823W        W93050   4.405  16.858  14.451
27824W        W93051  42.317  32.448  14.433
27825W        W93052  44.343  22.185  10.485
27826W        W93053  38.534  26.415  11.647
27827W        W93054  41.981  27.939  12.599
27828W        W93055  17.251   3.345   3.679
27829W        W93056  36.980   9.703   4.569
27830W        W93057   5.185  20.662  10.843
27831W        W93058   6.028  43.423  11.198
27832W        W93059  13.279  36.520  14.041
27833W        W93060  19.982   0.347  10.752
27834W        W93061  26.603  25.069   5.092
27835W        W93062  39.938  31.117  12.932
27836W        W93063  25.111  17.983  14.838
27837W        W93064   5.242  34.442  12.523
27838W        W93065  21.010  10.698  13.047
27839W        W93066   7.156   9.784  13.548
27840W        W93067  37.956  17.029  14.381
27841W        W93068  15.896  21.124   4.933
27842W        W93069  11.638  36.948   0.899
27843W        W93070  25.670  33.347  10.962
27844W        W93071  41.324  40.360   2.288
27845W        W93072  31.450   2.658   1.017
27846W        W93073  23.118  30.875  13.170
27847W        W93074  26.103  29.423   3.237
27848W        W93075  30.908  24.433  10.517
27849W        W93076  41.322  35.349  13.042
27850W        W93077  38.659  14.026  10.479
27851W        W93078  29.687  43.465   3.209
27852W        W93079   3.992  10.685  11.708
27853W        W93080  17.883  34.485   1.384
27854W        W93081  12.774  21.154   0.803
27855W        W93082  14.898  15.543  10.349
27856W        W93083  43.124   6.222   3.323
27857W        W93084  31.626  39.419  11.049
27858W        W93085  25.522  37.060  11.134
27859W        W93086   7.559  40.561  10.044
27860W        W93087  33.251  29.598  12.062
27861W        W93088   3.518  14.080   0.424
27862W        W93089  44.944  15.166   5.021
27863W        W93090  41.972  42.788  14.267
27864W        W93091  32.966   4.872   0.362
27865W        W93092   2.670   7.422  12.292
27866W        W93093  23.904  43.046  11.303
27867W        W93094  34.660   3.796  13.034
27868W        W93095   7.727  20.653  12.458
27869W        W93096   0.357   2.811   3.447
27870W        W93097   1.983   9.279   3.627
27871W        W93098  13.791  12.402   4.342
27872W        W93099  15.501   2.799   3.816
27873W        W93100  34.953  13.254  13.792
27874W        W93101  34.433  21.158  10.546
27875W        W93102   5.380   2.982   4.050
27876W        W93103  16.295  10.307   9.700
27877W        W93104   2.992  22.154  12.395
27878W        W93105   3.273  32.655   3.232
27879W        W93106  11.039   8.574   2.216
27880W        W93107   3.382   6.926   3.896
27881W        W93108   2.471  22.684   1.789
27882W        W93109  13.846   1.885  10.853
27883W        W93110  29.222  35.590  14.932
27884W        W93111  16.027  40.834  12.509
27885W        W93112  22.143  43.442   2.351
27886W        W93113   5.226  34.878  12.135
27887W        W93114   8.894  26.856  11.353
27888W        W93115  39.332  30.070  11.624
27889W        W93116  11.612  12.353  13.844
27890W        W93117  37.993  16.509  12.650
27891W        W93118   0.035  32.116  12.511
27892W        W93119  17.985   3.604   2.007
27893W        W93120   4.757  23.461   2.386
27894W        W93121  12.532  38.508   4.128
27895W        W93122  15.541  16.399   4.799
27896W        W93123   5.222  30.872  14.423
27897W        W93124   9.347   1.868   4.093
27898W        W93125   9.722   0.698  14.841
27899W        W93126  28.988  33.632  12.510
27900W        W93127  21.509  17.138  14.762
27901W        W93128  37.954  35.102  11.238
27902W        W93129  31.491  32.015   2.503
27903W        W93130  44.853   5.137  13.499
27904W        W93131  17.666   7.001  12.736
27905W        W93132  41.555   9.909  11.505
27906W        W93133   0.397  32.320   3.100
27907W        W93134  27.341  29.503  10.123
27908W        W93135  37.865  35.944  13.323
27909W        W93136   6.805  29.698  12.590
27910W        W93137  13.595  41.994   2.404
27911W        W93138  44.667   0.084  13.844
27912W        W93139   3.825  30.164   0.858
27913W        W93140  34.112  28.811   4.523
27914W        W93141  44.107   0.017   1.731
27915W        W93142  40.943  28.485  11.936
27916W        W93143   4.685  24.042   0.435
27917W        W93144  18.483  34.620  13.940
27918W        W93145  13.914   8.957  14.201
27919W        W93146  19.514  25.576  12.512
27920W        W93147  43.771   5.839  14.284
27921W        W93148  33.853   9.837  14.142
27922W        W93149  42.430   6.786  11.545
27923W        W93150  30.498  10.252  10.829
27924W        W93151  44.937  31.048   4.595
27925W        W93152   2.781  44.284  14.857
27926W        W93153   1.247  24.117  12.150
27927W        W93154   2.286  44.638  12.448
27928W        W93155  23.369   2.675   0.360
27929W        W93156  28.062  14.065  14.856
27930W        W93157  28.436  25.727  12.775
27931W        W93158  44.514  10.748  14.236
27932W        W93159  29.751   1.333  14.621
27933W        W93160  34.602  20.249   2.875
27934W        W93161  44.092  20.007  13.024
27935W        W93162   6.190   0.446   3.811
27936W        W93163  33.850  16.289   0.869
27937W        W93164  44.214  17.234  13.165
27938W        W93165  41.115   4.449   2.887
27939W        W93166  39.389  25.761   2.864
27940W        W93167  13.374  23.989  13.140
27941W        W93168  22.614  35.305   3.576
27942W        W93169  28.988  38.495   1.908
27943W        W93170  41.114  27.918   1.580
27944W        W93171   2.382  29.019   3.547
27945W        W93172  18.810  11.325  14.891
27946W        W93173  32.397  12.695   0.394
27947W        W93174  35.511   4.231   3.260
27948W        W93175  43.770  23.969  11.950
27949W        W93176  13.066  23.211   2.705
27950W        W93177   5.662  29.526  13.032
27951W        W93178  39.132  18.137   0.207
27952W        W93179  18.471   7.976   0.860
27953W        W93180  16.749  22.548   0.728
27954W        W93181   5.376  11.582   0.862
27955W        W93182  12.790   6.929  14.075
27956W        W93183  13.789  18.531   1.493
27957W        W93184   0.794  40.815   4.342
27958W        W93185   1.964  24.160   4.190
27959W        W93186  34.941  28.672   4.735
27960W        W93187   4.834  34.026  10.837
27961W        W93188  14.646  19.978   3.934
27962W        W93189  15.805  28.936   2.450
27963W        W93190  25.232  28.690  14.728
27964W        W93191  30.507   6.893   1.811
27965W        W93192  24.701  12.342  14.756
27966W        W93193  17.251  40.862   2.792
27967W        W93194   3.075  24.529  14.992
27968W        W93195   7.427   3.784   3.385
27969W        W93196   5.555  15.879   1.837
27970W        W93197  31.632   2.843   1.897
27971W        W93198  29.911  18.641   2.215
27972W        W93199  26.505  25.221  11.212
27973W        W93200  15.830  39.305   2.755
27974W        W93201  41.823  31.018   4.315
27975W        W93202  34.864  32.053  10.747
27976W        W93203  44.527   4.206  13.761
27977W        W93204  43.934  21.497  12.893
27978W        W93205  30.642   8.921  10.510
27979W        W93206  15.050   6.146  12.009
27980W        W93207  34.117  28.854  12.915
27981W        W93208  11.830  24.850   3.119
27982W        W93209  17.813  14.248  11.807
27983W        W93210   4.882  24.401   4.455
27984W        W93211  27.695  14.743  11.732
27985W        W93212  43.455  27.100  13.201
27986W        W93213   8.257   2.194   3.164
27987W        W93214   2.680  42.940   2.164
27988W        W93215   4.092  27.422  13.331
27989W        W93216   2.913   1.227   3.284
27990W        W93217   2.601  33.481   0.449
27991W        W93218  37.077  24.034  14.090
27992W        W93219  13.004  18.237  10.040
27993W        W93220  41.363  29.804   0.294
27994W        W93221  39.067   5.951   2.323
27995W        W93222  13.764   2.421  13.585
27996W        W93223  29.372  17.457   2.795
27997W        W93224  10.413   7.226  13.025
27998W        W93225  17.046  12.571   3.347
27999W        W93226  17.714  13.761  11.961
28000W        W93227  15.368  26.165  14.768
28001W        W93228  38.065  29.592   4.363
28002W        W93229   8.371  24.209   4.135
28003W        W93230  33.045  33.764   4.218
28004W        W93231  27.042   8.431  11.085
28005W        W93232  12.362  27.440  12.928
28006W        W93233   9.983  33.212   3.318
28007W        W93234  17.803   3.425   4.522
28008W        W93235  34.549  38.050   5.242
28009W        W93236  31.954  36.597  11.933
28010W        W93237   8.256  12.289   4.470
28011W        W93238  31.182  27.865  10.271
28012W        W93239   2.419  10.608  12.905
28013W        W93240   5.601  37.077   1.269
28014W        W93241  35.755   8.323  14.294
28015W        W93242  39.951  39.772  10.946
28016W        W93243  43.536  44.029  13.053
28017W        W93244   6.270  39.794   3.746
28018W        W93245  15.280  10.497   0.230
28019W        W93246  17.179  14.080   4.139
28020W        W93247  43.536  35.377  11.478
28021W        W93248  36.354   9.797   2.445
28022W        W93249  36.086   1.805  11.220
28023W        W93250  44.353  11.624   1.942
28024W        W93251  21.965  34.440  13.055
28025W        W93252   1.514  44.454   1.760
28026W        W93253  29.748  42.041   2.259
28027W        W93254  26.000   5.192  12.679
28028W        W93255  44.338   8.889   4.933
28029W        W93256   8.919  11.175  14.383
28030W        W93257  36.595  43.069   3.326
28031W        W93258  34.795   5.855   3.377
28032W        W93259  20.636  26.536   2.536
28033W        W93260  44.271  21.753  12.498
28034W        W93261  37.829   7.947   1.835
28035W        W93262  40.596  11.762   1.659
28036W        W93263  19.241   0.114  11.660
28037W        W93264   3.583  17.569   2.291
28038W        W93265  39.009  23.376  14.083
28039W        W93266  34.423  14.499  14.907
28040W        W93267  29.475   6.783  10.683
28041W        W93268   9.604  31.856  10.216
28042W        W93269  13.253  18.960  14.641
28043W        W93270  27.687   4.162  10.742
28044W        W93271   0.269  11.777  12.506
28045W        W93272   0.334  40.967  14.609
28046W        W93273  40.533  12.293   3.480
28047W        W93274  44.757  11.884  11.248
28048W        W93275  44.715  20.202   1.899
28049W        W93276  16.652  10.326   4.624
28050W        W93277   4.325  21.440  12.442
28051W        W93278  23.721  32.985   3.101
28052W        W93279   1.289   3.668  14.824
28053W        W93280  30.396   5.430  14.332
28054W        W93281   0.979   3.768   4.152
28055W        W93282  38.572  19.208  12.877
28056W        W93283  27.769  34.095   3.312
28057W        W93284  33.529  10.703   0.230
28058W        W93285   1.196  37.884  12.474
28059W        W93286  11.160   1.709   0.656
28060W        W93287  10.054  15.178  14.852
28061W        W93288   0.935   0.903   1.206
28062W        W93289   6.266  12.870   4.625
28063W        W93290  10.617  17.661  14.931
28064W        W93291   5.238  43.551  12.557
28065W        W93292  40.300  34.169  12.950
28066W        W93293  38.347  22.758  12.467
28067W        W93294   1.561  44.238   2.967
28068W        W93295   7.395  27.180  11.241
28069W        W93296  28.607  20.805   0.514
28070W        W93297  13.524   2.712   3.434
28071W        W93298  39.821  18.156   0.076
28072W        W93299  41.777  13.235  11.953
28073W        W93300  22.485  35.615   4.221
28074W        W93301   1.106  42.220  14.540
28075W        W93302  24.197  29.555   4.702
28076W        W93303  34.479   7.168  14.643
28077W        W93304  18.879  44.352   1.930
28078W        W93305  36.166   6.640  11.108
28079W        W93306  10.371  15.614   2.218
28080W        W93307  11.281   0.697  14.016
28081W        W93308  34.039  27.234  11.572
28082W        W93309  33.990  28.237  11.585
28083W        W93310  33.121  42.331   1.965
28084W        W93311   7.918   9.832  11.298
28085W        W93312  33.708  15.247   2.719
28086W        W93313  11.734  35.370  14.860
28087W        W93314   2.813  14.792   2.258
28088W        W93315  44.413  43.241  11.039
28089W        W93316  28.256  19.743   4.758
28090W        W93317  38.109  25.095  14.674
28091W        W93318  12.614  16.605   0.307
28092W        W93319   9.290  41.943  12.882
28093W        W93320  20.309   3.259  14.726
28094W        W93321  10.587  38.000   4.046
28095W        W93322   4.098  12.386   1.320
28096W        W93323  20.257  30.016  13.411
28097W        W93324   9.567  23.664  11.225
28098W        W93325  38.067  43.306   2.400
28099W        W93326   9.770   7.775  12.564
28100W        W93327  21.122  28.955   0.360
28101W        W93328   8.576  44.344  14.954
28102W        W93329  37.094  20.881  11.386
28103W        W93330  12.861  41.451   3.410
28104W        W93331  30.727  40.827  12.643
28105W        W93332  23.802  24.122   4.221
28106W        W93333   5.221  24.499   4.858
28107W        W93334  24.699  16.593  13.869
28108W        W93335   5.781  27.663  11.149
28109W        W93336   6.350  18.244   0.937
28110W        W93337   8.246  37.486  10.680
28111W        W93338  11.181  38.766  10.911
28112W        W93339   8.271  25.366   4.704
28113W        W93340  17.323  24.372   1.719
28114W        W93341  28.551  38.585  12.385
28115W        W93342   1.281  31.011  14.410
28116W        W93343  21.758  40.914  12.953
28117W        W93344   2.687  24.184   3.649
28118W        W93345  16.699  20.732   1.369
28119W        W93346  44.502  29.938   4.086
28120W        W93347  32.653  19.982  13.836
28121W        W93348  16.517  33.526   4.871
28122W        W93349  38.775  44.623  10.765
28123W        W93350  20.804  44.385   1.884
28124W        W93351  33.999  42.126   1.142
28125W        W93352  24.677  44.791  13.933
28126W        W93353  14.145  23.503  13.300
28127W        W93354   9.960  22.210  12.704
28128W        W93355  43.343   5.759   4.760
28129W        W93356  24.675  21.176   4.127
28130W        W93357  28.631   9.634  11.906
28131W        W93358  36.023  11.788  12.549
28132W        W93359   6.290  29.860   0.339
28133W        W93360  39.568  31.779   0.957
28134W        W93361   0.877  37.754   0.805
28135W        W93362  39.924  39.536   1.800
28136W        W93363   6.679  25.438   1.848
28137W        W93364  35.724  31.996   2.703
28138W        W93365  14.149  34.565   2.204
28139W        W93366   2.977  11.460   3.713
28140W        W93367  16.146  16.884  12.637
28141W        W93368  30.716  42.872  12.002
28142W        W93369  30.501  37.874   3.147
28143W        W93370  26.446  33.504   4.037
28144W        W93371  44.918  40.057  14.894
28145W        W93372   4.557  30.559   4.307
28146W        W93373   6.905  33.247  13.790
28147W        W93374  42.823   5.363  12.375
28148W        W93375  16.566  21.538  13.951
28149W        W93376  43.246  21.534  11.137
28150W        W93377  34.264  43.388   3.151
28151W        W93378  27.251   1.432   4.615
28152W        W93379  43.799  30.468   3.143
28153W        W93380   3.410   9.584   3.695
28154W        W93381  34.378  43.324  11.780
28155W        W93382  34.613  20.437  13.366
28156W        W93383  29.704  10.950  14.461
28157W        W93384  43.943  21.506   3.635
28158W        W93385  21.680  31.504   2.379
28159W        W93386   1.464  38.502   0.889
28160W        W93387  40.734  14.756   2.639
28161W        W93388  35.862   3.613  13.708
28162W        W93389   9.779   1.183   0.647
28163W        W93390  22.480  31.360  12.175
28164W        W93391  19.553  11.856   1.690
28165W        W93392  18.487  17.176  10.834
28166W        W93393  28.693  22.508  14.578
28167W        W93394  27.594  10.161  13.117
28168W        W93395  30.692   8.143   2.374
28169W        W93396  37.818  34.329   1.634
28170W        W93397  18.091  14.934  12.842
28171W        W93398  13.897  23.772   0.202
28172W        W93399   7.145  21.197  14.934
28173W        W93400   4.132   3.922   0.411
28174W        W93401  39.098  28.832   1.971
28175W        W93402  43.880  26.989  12.659
28176W        W93403  44.403   3.873   0.959
28177W        W93404  15.116  16.455   1.325
28178W        W93405  23.445  32.014   1.357
28179W        W93406  14.248  33.857  12.819
28180W        W93407  31.274   4.881  13.466
28181W        W93408  20.161  42.240   2.855
28182W        W93409  41.936  15.326  11.810
28183W        W93410  44.852  27.542  14.581
28184W        W93411   3.838  19.029  11.299
28185W        W93412  29.099  14.322   9.782
28186W        W93413  28.942  17.674   3.390
28187W        W93414  39.129  20.151  11.479
28188W        W93415  30.408   1.511   1.461
28189W        W93416  33.529  26.702  13.878
28190W        W93417  32.909  41.150   4.554
28191W        W93418   8.953  10.466  11.153
28192W        W93419   2.638  12.487  12.082
28193W        W93420  44.412  15.887  13.919
28194W        W93421  11.823  13.136  14.627
28195W        W93422   0.475  19.024  12.174
28196W        W93423  12.272  32.948  14.374
28197W        W93424  19.860  20.269  11.990
28198W        W93425  24.122   5.044  12.478
28199W        W93426  13.785  38.103  12.805
28200W        W93427  12.562  18.045  14.818
28201W        W93428  20.719  22.150  10.717
28202W        W93429  25.175  28.026   0.299
28203W        W93430   1.057  18.529  10.420
28204W        W93431   4.613  18.502   1.794
28205W        W93432   4.589   6.640  13.885
28206W        W93433  25.497  24.715   1.665
28207W        W93434   2.036   9.342  12.241
28208W        W93435   8.702  21.612   0.459
28209W        W93436  17.245  40.967   0.776
28210W        W93437  19.121   9.820  14.838
28211W        W93438  36.168  36.813   2.177
28212W        W93439   2.076  15.825   0.221
28213W        W93440  40.950  27.870   2.264
28214W        W93441  26.509  27.037   4.506
28215W        W93442  34.087  28.999   2.209
28216W        W93443  24.184  17.655   3.444
28217W        W93444  12.885  12.505  11.169
28218W        W93445  24.493  13.072   0.804
28219W        W93446  33.480  41.773  13.496
28220W        W93447  39.415  33.516   0.873
28221W        W93448  43.304   5.834   0.314
28222W        W93449  37.354   5.285   0.302
28223W        W93450   8.700  42.062   0.588
28224W        W93451  15.935  19.496   4.705
28225W        W93452  36.183  30.679   2.809
28226W        W93453  36.159  44.232  13.445
28227W        W93454   4.175  38.512  11.930
28228W        W93455  12.843   8.742  13.119
28229W        W93456  11.777   4.429   3.223
28230W        W93457  11.746   0.599   3.647
28231W        W93458  21.062   7.113   2.645
28232W        W93459  28.546  44.046   4.262
28233W        W93460  32.887  42.866  11.163
28234W        W93461   0.465   7.344  11.851
28235W        W93462  21.382  14.799  12.318
28236W        W93463   0.751  15.439   3.636
28237W        W93464  38.294   4.367  10.987
28238W        W93465   2.837  34.755  14.811
28239W        W93466  11.587  19.599  10.790
28240W        W93467  24.534  32.619   2.099
28241W        W93468  26.570  30.643  14.499
28242W        W93469   4.760  35.924   1.289
28243W        W93470  20.636  34.179   3.671
28244W        W93471  19.129   9.863   1.816
28245W        W93472  40.547  38.883   4.895
28246W        W93473  13.640  44.779   1.186
28247W        W93474  40.336  18.256  10.879
28248W        W93475  10.367   5.224   4.074
28249W        W93476   8.735  28.414   3.525
28250W        W93477  20.504  23.957  13.344
28251W        W93478  22.510  39.853  14.982
28252W        W93479  20.213  32.065  14.857
28253W        W93480  33.613  44.712   4.312
28254W        W93481  36.113  38.908  12.128
28255W        W93482  22.994  15.518  11.881
28256W        W93483  12.265  22.105  14.826
28257W        W93484  30.810  35.841  11.995
28258W        W93485  12.669  27.977   1.967
28259W        W93486   5.222  39.029   4.133
28260W        W93487  37.788  22.431  10.563
28261W        W93488  33.142  39.819   2.269
28262W        W93489  42.969   1.177  13.254
28263W        W93490  33.966  34.892   4.900
28264W        W93491  18.010  43.154   2.704
28265W        W93492  22.020  41.492   3.234
28266W        W93493  32.911   0.099   4.822
28267W        W93494  28.346   0.830  14.466
28268W        W93495  11.629  29.454  12.612
28269W        W93496   5.301  39.325   3.150
28270W        W93497  26.430   4.782   0.005
28271W        W93498  24.665   6.429   1.937
28272W        W93499  42.205  21.107   3.699
28273W        W93500   4.745  32.065  10.625
28274W        W93501   0.810  24.878   4.443
28275W        W93502  30.865  26.149  13.505
28276W        W93503   0.915  24.476   3.246
28277W        W93504  19.688  20.227  11.514
28278W        W93505   2.193  43.679   1.139
28279W        W93506  44.452  28.682  13.542
28280W        W93507  11.558  23.686  13.872
28281W        W93508  34.492  36.945   0.766
28282W        W93509  25.467  28.661  11.553
28283W        W93510  41.485  34.151  12.473
28284W        W93511  10.695  24.168  12.529
28285W        W93512  12.546  17.503  11.660
28286W        W93513  43.272   2.403  13.381
28287W        W93514  13.831  41.088   0.749
28288W        W93515  20.706  13.574   1.889
28289W        W93516  20.314   7.341  14.974
28290W        W93517  38.493   5.774   1.412
28291W        W93518  10.998   4.399  10.429
28292W        W93519  31.185  36.632  13.388
28293W        W93520  12.677  11.627  10.909
28294W        W93521  18.682  26.624  12.631
28295W        W93522  13.896  30.942   2.261
28296W        W93523  15.312   9.994   4.360
28297W        W93524   7.379   1.281   0.827
28298W        W93525  27.100  35.073  11.261
28299W        W93526  21.649  32.923  13.382
28300W        W93527  19.310  25.662  13.005
28301W        W93528  15.285  34.914   2.277
28302W        W93529  40.489  16.766  12.179
28303W        W93530  38.680  25.588  13.462
28304W        W93531  33.103  42.745   2.282
28305W        W93532  11.233   3.919  11.154
28306W        W93533  20.617   8.450  10.691
28307W        W93534   3.117  41.148   3.776
28308W        W93535  31.960  34.509  10.265
28309W        W93536   3.335   4.935  11.214
28310W        W93537  36.754   8.159  10.391
28311W        W93538  43.604  39.842  11.229
28312W        W93539  36.578  16.611  11.052
28313W        W93540  25.458   7.340   2.277
28314W        W93541  39.017  38.675   2.308
28315W        W93542  44.493  35.703  13.861
28316W        W93543   5.134  24.238   1.329
28317W        W93544   3.733   4.374  11.638
28318W        W93545  12.610  42.778   0.481
28319W        W93546  23.146  11.929   3.117
28320W        W93547   5.483  30.657   4.977
28321W        W93548   4.260   4.746   3.224
28322W        W93549  24.259  26.150   3.845
28323W        W93550  25.639   3.840  11.569
28324W        W93551   8.188   1.498  13.686
28325W        W93552  25.088  22.938   1.964
28326W        W93553  11.412  43.980   1.706
28327W        W93554  12.620  37.819   0.381
28328W        W93555   7.620  28.768   4.226
28329W        W93556  41.798  27.071  12.375
28330W        W93557  19.171  21.288   4.689
28331W        W93558  15.828  11.782   0.138
28332W        W93559  27.588  21.554  11.575
28333W        W93560  44.245  11.267   0.960
28334W        W93561   2.205   7.638   4.181
28335W        W93562  40.475  27.548  14.061
28336W        W93563  28.445  30.790   4.531
28337W        W93564  32.650   4.224   2.853
28338W        W93565   2.137   2.609  14.951
28339W        W93566  38.494  21.782  12.491
28340W        W93567   8.715  16.720   3.608
28341W        W93568  10.778  43.866   2.391
28342W        W93569  12.769  43.612   0.908
28343W        W93570  37.513  11.152   1.661
28344W        W93571  36.312  15.629   3.665
28345W        W93572  21.090  29.172  10.595
28346W        W93573  27.664  39.573  12.148
28347W        W93574  17.895  17.528  14.436
28348W        W93575  19.083  14.624   0.935
28349W        W93576   0.453  36.398  13.488
28350W        W93577  44.986  31.342  13.717
28351W        W93578  27.049   3.830   2.282
28352W        W93579  17.028  10.693  14.264
28353W        W93580  30.051  22.604  12.022
28354W        W93581  19.269   7.702  11.664
28355W        W93582   1.499  36.478  13.527
28356W        W93583  14.323   2.083   3.260
28357W        W93584  21.206   9.217   3.111
28358W        W93585  21.848   2.516  13.003
28359W        W93586  18.058  40.604   3.250
28360W        W93587  14.159  34.548   3.721
28361W        W93588  16.123  23.137  10.524
28362W        W93589  28.000  25.108   1.370
28363W        W93590  26.633   3.897  11.230
28364W        W93591  25.041  31.606   0.873
28365W        W93592  21.400  37.919  11.664
28366W        W93593  15.841  30.662  11.612
28367W        W93594   7.495  20.998   3.712
28368W        W93595   3.215  37.608  14.904
28369W        W93596  23.046  39.166   3.098
28370W        W93597  32.110  17.796   2.194
28371W        W93598  16.314  19.289   1.848
28372W        W93599  25.459  34.039   1.004
28373W        W93600  36.218  28.458  11.995
28374W        W93601  11.177   6.856  14.567
28375W        W93602  11.886   5.595  11.408
28376W        W93603   7.317  21.513   2.751
28377W        W93604   4.074  42.727   3.296
28378W        W93605  33.902  36.335  12.080
28379W        W93606  21.956  11.379   4.684
28380W        W93607  44.370  22.399   4.171
28381W        W93608   1.292  36.542   3.315
28382W        W93609   5.845  17.491   3.327
28383W        W93610   3.722  17.721  12.159
28384W        W93611  31.793  37.119  13.877
28385W        W93612   2.769  28.454   2.684
28386W        W93613  24.496   8.894  14.699
28387W        W93614  16.262   5.426   4.092
28388W        W93615   4.853  22.130   3.145
28389W        W93616  41.767  16.084  14.533
28390W        W93617  33.515   9.415   0.925
28391W        W93618  14.916  38.444  14.027
28392W        W93619  30.531   6.157   0.700
28393W        W93620  36.252  35.076  11.586
28394W        W93621  36.848  42.961   1.190
28395W        W93622  37.568   7.113   0.777
28396W        W93623  10.815   8.675   0.414
28397W        W93624   1.592  12.188  12.553
28398W        W93625  32.451  19.629   4.188
28399W        W93626  40.566   0.768  12.000
28400W        W93627  17.551  13.675   4.099
28401W        W93628   7.575  19.782   0.282
28402W        W93629  26.950  19.104  11.288
28403W        W93630   0.291  43.371  10.433
28404W        W93631  39.997   9.106   0.168
28405W        W93632   9.117  18.282   1.453
28406W        W93633   7.856  34.874  14.787
28407W        W93634   5.319  38.614   2.222
28408W        W93635   1.687  25.459  13.475
28409W        W93636  31.298   1.580   0.426
28410W        W93637   7.478  27.631  14.045
28411W        W93638   4.751  18.669  11.056
28412W        W93639   4.873  28.718   1.806
28413W        W93640  10.937  24.436   3.441
28414W        W93641  44.798   9.509   2.750
28415W        W93642  23.438  33.800  12.262
28416W        W93643   6.871  23.356   3.996
28417W        W93644  17.256  39.598  13.782
28418W        W93645  44.745  36.864   3.874
28419W        W93646  38.400  43.255  13.821
28420W        W93647  40.492  43.031   4.107
28421W        W93648   3.950   3.599  11.255
28422W        W93649  12.252  16.380  11.093
28423W        W93650  22.629   2.400   3.123
28424W        W93651  31.430  25.911   4.000
28425W        W93652  27.919  30.784  10.551
28426W        W93653  34.660  15.674   1.224
28427W        W93654   7.923  10.887   3.645
28428W        W93655  23.673  43.800  10.070
28429W        W93656  24.653  15.050   1.297
28430W        W93657  42.032   8.448  11.264
28431W        W93658  44.235  44.560   0.808
28432W        W93659  41.927  14.766   0.347
28433W        W93660   2.295  22.318  11.864
28434W        W93661  18.459  26.940   3.325
28435W        W93662  24.102  15.107  11.064
28436W        W93663  30.003  43.981   0.557
28437W        W93664  40.027  29.478  12.958
28438W        W93665  22.605  37.606   0.994
28439W        W93666  11.257  16.992   1.386
28440W        W93667  39.559  36.788  11.079
28441W        W93668   3.291  20.455  14.960
28442W        W93669  19.281  17.505   1.427
28443W        W93670  32.447   2.966   0.670
28444W        W93671  44.828  24.175   2.630
28445W        W93672  20.924  15.572  11.102
28446W        W93673  18.869  15.515   5.036
28447W        W93674  42.396  29.144  14.845
28448W        W93675  17.136   1.722   4.605
28449W        W93676  37.685  17.393  13.378
28450W        W93677  37.268  25.257   0.553
28451W        W93678  20.332  10.583   2.200
28452W        W93679  21.856  39.293  13.768
28453W        W93680  32.662  13.645  12.484
28454W        W93681   5.378  10.096   1.274
28455W        W93682  26.738  42.056  13.885
28456W        W93683   1.189  30.473   1.436
28457W        W93684  29.525  25.957   2.234
28458W        W93685   9.675  42.047   1.419
28459W        W93686  20.302  17.698   3.913
28460W        W93687  36.131  23.109  11.010
28461W        W93688  36.645  17.534  14.123
28462W        W93689   2.788  10.674  12.492
28463W        W93690  11.557  30.090   0.512
28464W        W93691  13.073   2.371   1.437
28465W        W93692  34.635  41.637  13.544
28466W        W93693  10.911  37.525   0.782
28467W        W93694  15.297  25.197  11.551
28468W        W93695  24.744  31.917   1.794
28469W        W93696  42.800  39.378   0.427
28470W        W93697   3.880   1.392   9.847
28471W        W93698  31.465   2.427  13.379
28472W        W93699  37.516   8.849   1.671
28473W        W93700  38.811  41.937  14.758
28474W        W93701  18.744  30.661   4.070
28475W        W93702   0.699  29.985  12.379
28476W        W93703  22.637   8.547  10.836
28477W        W93704  29.054  15.912  12.997
28478W        W93705  21.163   2.776  11.076
28479W        W93706  43.397  37.944  12.872
28480W        W93707  37.029   2.975   2.322
28481W        W93708  11.633  36.457   3.995
28482W        W93709  41.519  24.113   2.721
28483W        W93710  34.354   5.838  13.799
28484W        W93711   7.031  40.250   0.266
28485W        W93712   1.776  33.063   3.190
28486W        W93713  11.556  29.029  11.618
28487W        W93714  22.269   2.962   3.674
28488W        W93715  39.741  17.110  10.682
28489W        W93716  25.752   8.748  12.850
28490W        W93717  38.328   6.734  14.332
28491W        W93718   8.768  22.274  11.201
28492W        W93719  30.986  30.444   0.965
28493W        W93720   4.819  36.853   0.900
28494W        W93721   4.086   8.323  13.611
28495W        W93722  32.866  11.484   3.588
28496W        W93723  23.988  10.338   2.284
28497W        W93724  30.550   9.647  11.658
28498W        W93725   2.017  29.199  14.726
28499W        W93726  43.086  44.903   0.765
28500W        W93727  29.049   6.233  13.547
28501W        W93728  38.882  23.233   1.944
28502W        W93729  19.802  26.602  11.456
28503W        W93730  27.554  27.014  10.038
28504W        W93731  44.410  35.980   1.473
28505W        W93732  11.616  13.358   2.881
28506W        W93733  27.064  43.902  13.371
28507W        W93734  22.195  14.813  14.883
28508W        W93735  34.477   6.299   4.548
28509W        W93736  37.103  17.662  10.690
28510W        W93737  41.902  22.773  10.700
28511W        W93738  27.330  27.614  13.615
28512W        W93739  26.124  14.794  12.842
28513W        W93740  21.677  24.761  14.850
28514W        W93741  32.064   8.493   0.936
28515W        W93742   9.502  30.985  13.105
28516W        W93743  39.774   1.365   2.805
28517W        W93744  28.524  32.792   3.820
28518W        W93745  44.917  24.603   0.842
28519W        W93746   6.600   4.820  10.606
28520W        W93747   0.490  39.520  14.355
28521W        W93748  23.068  36.245   4.821
28522W        W93749  16.186  13.749   4.200
28523W        W93750  25.223  23.641  14.844
28524W        W93751   5.739  31.783  12.871
28525W        W93752  35.948  26.537  10.760
28526W        W93753  39.917  17.711  14.798
28527W        W93754   1.408  19.711  12.786
28528W        W93755   5.345  22.557  11.576
28529W        W93756  34.621  32.727  14.901
28530W        W93757  43.282  33.871   2.707
28531W        W93758  11.786  10.861   2.665
28532W        W93759   7.257  33.395   2.262
28533W        W93760  37.723  44.904  10.939
28534W        W93761  29.137  16.108   2.313
28535W        W93762   9.855  29.471   1.188
28536W        W93763  21.805  40.926   2.315
28537W        W93764  30.673  25.576   2.695
28538W        W93765  28.206   0.236  12.370
28539W        W93766   9.121  19.977  14.324
28540W        W93767  35.451  15.719   3.237
28541W        W93768  33.076  21.928   4.503
28542W        W93769  11.308  10.844   2.389
28543W        W93770  36.158  36.374   0.496
28544W        W93771  17.004  13.657   1.370
28545W        W93772  16.245  15.675  13.498
28546W        W93773   5.862  14.853  11.177
28547W        W93774  15.742  11.094   0.880
28548W        W93775  25.209   0.393  14.376
28549W        W93776  27.471  37.326  14.598
28550W        W93777  44.439  35.010   1.288
28551W        W93778   3.734   1.048  12.086
28552W        W93779  38.051  31.997  10.373
28553W        W93780   7.008  34.593   3.713
28554W        W93781  16.040  19.618   2.172
28555W        W93782  31.174  15.991   3.667
28556W        W93783  24.271   8.299   1.278
28557W        W93784   5.125  26.815  11.127
28558W        W93785  25.079  38.516   2.191
28559W        W93786  10.572  20.346   5.158
28560W        W93787  10.842  15.321  10.332
28561W        W93788  11.849   2.537  12.368
28562W        W93789  17.849  23.638  12.690
28563W        W93790  18.062  29.171   0.378
28564W        W93791  14.740  25.628   4.281
28565W        W93792  26.269  16.033  14.521
28566W        W93793  13.126   0.329   1.829
28567W        W93794  43.523   9.231   2.565
28568W        W93795  25.262   6.633  11.509
28569W        W93796  15.194  40.292   3.195
28570W        W93797  20.734  38.517  12.632
28571W        W93798   3.093  34.704   1.446
28572W        W93799   6.659   7.195   1.180
28573W        W93800  27.583   8.447  13.499
28574W        W93801  32.633   6.708   0.893
28575W        W93802  18.178  10.287   0.487
28576W        W93803  39.797  13.670  12.350
28577W        W93804  39.486   9.728  13.458
28578W        W93805  32.947   9.471   0.425
28579W        W93806  19.549   3.695  14.163
28580W        W93807   8.272  16.638  13.887
28581W        W93808  24.263  28.146  10.742
28582W        W93809  15.676  24.265  11.574
28583W        W93810   2.452  41.363  14.723
28584W        W93811  34.642  28.926  14.322
28585W        W93812  36.976  18.478  12.275
28586W        W93813  30.151  25.776  11.723
28587W        W93814   2.276  18.971   5.131
28588W        W93815  36.604   0.297   1.105
28589W        W93816  28.579  41.490  11.546
28590W        W93817  10.601  44.636   1.438
28591W        W93818  25.670  40.808  11.635
28592W        W93819  34.210  42.166   0.336
28593W        W93820   4.040  11.914  12.894
28594W        W93821  30.896  22.459   3.180
28595W        W93822  20.094  38.555  12.688
28596W        W93823  27.181   2.332   2.011
28597W        W93824  35.217  15.739  13.495
28598W        W93825  32.906  44.242   5.155
28599W        W93826  21.774  43.397   1.313
28600W        W93827  18.020  30.077   0.912
28601W        W93828  24.528   9.941   1.879
28602W        W93829  13.692   3.427  13.420
28603W        W93830   1.798   3.991   1.442
28604W        W93831  15.022  31.936  13.810
28605W        W93832  11.637   6.926   4.614
28606W        W93833  12.873  12.231  14.562
28607W        W93834  32.568  14.572   1.347
28608W        W93835  20.372   1.832  12.427
28609W        W93836  42.155  16.024   4.145
28610W        W93837  19.834  21.057   0.430
28611W        W93838  35.791  32.456  11.468
28612W        W93839   7.929  20.132   3.727
28613W        W93840  19.251  21.659   1.120
28614W        W93841  42.529  21.536   3.668
28615W        W93842  34.215  25.431  13.460
28616W        W93843   5.654  27.974  12.077
28617W        W93844  32.761  36.398   2.231
28618W        W93845  28.079   7.057  10.605
28619W        W93846  22.510  28.983   0.266
28620W        W93847  19.117  28.743  12.177
28621W        W93848   8.617  18.833   2.311
28622W        W93849  39.945  39.800  13.195
28623W        W93850  19.577  34.013  11.759
28624W        W93851  33.792  11.820  12.127
28625W        W93852   2.243  37.836   4.477
28626W        W93853  39.889  12.750  14.478
28627W        W93854   1.203  22.669  11.082
28628W        W93855   9.709  20.459  12.950
28629W        W93856  13.280   2.039   1.857
28630W        W93857  13.623   1.369  12.417
28631W        W93858  24.621  33.350  14.800
28632W        W93859   9.845  43.354  10.673
28633W        W93860  16.262  21.467  14.380
28634W        W93861  20.493  25.314  12.670
28635W        W93862  33.074  35.653  14.026
28636W        W93863  27.133   6.648   2.422
28637W        W93864  35.405  21.546  14.415
28638W        W93865   5.395  43.654   1.719
28639W        W93866   6.721  31.670  12.890
28640W        W93867  15.950  36.068  13.266
28641W        W93868   3.425  15.352  10.283
28642W        W93869  32.414   0.715   2.176
28643W        W93870  19.988   6.766  14.386
28644W        W93871   1.566  38.419  12.782
28645W        W93872   5.288  25.809  13.586
28646W        W93873   4.816  43.544   0.203
28647W        W93874  22.094  15.026  10.553
28648W        W93875  16.999  11.553   5.415
28649W        W93876  27.982   3.256  13.001
28650W        W93877  16.261  18.683  11.572
28651W        W93878  13.055  20.212   0.839
28652W        W93879  27.536  13.628   3.922
28653W        W93880   3.701  14.103   2.810
28654W        W93881  44.504  44.437   3.831
28655W        W93882  23.168  40.061  10.677
28656W        W93883  34.810  36.897  14.225
28657W        W93884  11.336  31.500   4.528
28658W        W93885   6.875  22.736   0.412
28659W        W93886   7.375  39.876   1.213
28660W        W93887  13.704  20.818  11.472
28661W        W93888  20.028  32.304  11.236
28662W        W93889   8.216  15.180  11.285
28663W        W93890   3.814  28.941   1.197
28664W        W93891  42.901  30.121   1.916
28665W        W93892  37.610   1.694   3.362
28666W        W93893  10.788  18.957   3.631
28667W        W93894   7.417   7.900   4.150
28668W        W93895  33.822  14.160  12.410
28669W        W93896  19.695   0.396  12.566
28670W        W93897  12.350  40.921   2.662
28671W        W93898   1.122  37.723   1.564
28672W        W93899  25.177   7.209  10.955
28673W        W93900  33.441  35.477  13.717
28674W        W93901   4.329  34.589  11.409
28675W        W93902  39.419   8.139  12.786
28676W        W93903  39.038  13.709   2.205
28677W        W93904  13.603  22.229  13.519
28678W        W93905  24.606  16.042  10.816
28679W        W93906  43.373  24.621  13.604
28680W        W93907  39.111  24.349  13.741
28681W        W93908  42.082  41.505   2.698
28682W        W93909  14.090   6.058   2.859
28683W        W93910   5.171  17.897  11.131
28684W        W93911   7.401  28.589  14.914
28685W        W93912  30.193  12.635  11.900
28686W        W93913  34.710   9.808   1.223
28687W        W93914   5.600  41.314   1.873
28688W        W93915  25.034  43.715   2.877
28689W        W93916   2.222  17.786   1.784
28690W        W93917   8.310  15.180  11.805
28691W        W93918  33.410  34.770   1.018
28692W        W93919   5.240  13.210   4.446
28693W        W93920  35.034  29.192  14.127
28694W        W93921  43.683  35.576   1.270
28695W        W93922  16.892  37.986   2.751
28696W        W93923   7.615  22.509   0.058
28697W        W93924  27.003  20.237  10.376
28698W        W93925  40.863   4.279  13.912
28699W        W93926   6.729  16.866  11.494
28700W        W93927   3.103  26.032  12.588
28701W        W93928  37.928  22.094   4.162
28702W        W93929   8.285   0.655   3.088
28703W        W93930  23.597  15.539  14.524
28704W        W93931  25.051  10.904  12.981
28705W        W93932  27.390  10.982  11.430
28706W        W93933   6.764  24.784  12.991
28707W        W93934  37.045  37.864  13.786
28708W        W93935  13.150  42.905  14.247
28709W        W93936  27.243   7.273  14.964
28710W        W93937  16.229  18.015   3.792
28711W        W93938  39.163  16.703   3.409
28712W        W93939  18.874  42.202   1.539
28713W        W93940  42.972  20.337   1.173
28714W        W93941   1.742   8.213  11.141
28715W        W93942  38.640  35.824  14.655
28716W        W93943  37.781  18.941   4.081
28717W        W93944  30.539  18.796   3.723
28718W        W93945  32.930  33.588   3.483
28719W        W93946   3.170  37.621  12.530
28720W        W93947   8.418  17.059   2.279
28721W        W93948  14.883   7.640   1.307
28722W        W93949   0.633  44.044   2.715
28723W        W93950  38.605  28.320  14.454
28724W        W93951  26.774  19.804   3.664
28725W        W93952  36.011  23.090   4.617
28726W        W93953  29.163   5.886   1.845
28727W        W93954  13.796   0.367  14.048
28728W        W93955  36.601   3.970   1.792
28729W        W93956   8.913  29.062  13.357
28730W        W93957  38.024   9.360  10.769
28731W        W93958   4.438   0.540  14.460
28732W        W93959   3.675  22.043   2.412
28733W        W93960  23.415  14.606  12.705
28734W        W93961  15.605  42.008  12.560
28735W        W93962  13.221   9.451   4.079
28736W        W93963  43.557  43.412   2.580
28737W        W93964  29.459   5.336   2.338
28738W        W93965  19.017   7.337   4.631
28739W        W93966  20.510  26.049   0.724
28740W        W93967  22.155  25.128  11.585
28741W        W93968  26.937  35.457  13.395
28742W        W93969  42.996  25.630   4.680
28743W        W93970  17.302  30.086  11.663
28744W        W93971  26.205   0.426  12.086
28745W        W93972  36.183  12.281  14.889
28746W        W93973  33.097   1.197   2.591
28747W        W93974  19.619  18.071   1.818
28748W        W93975   2.676   8.143   1.829
28749W        W93976  32.476  21.912   4.269
28750W        W93977  19.186  35.827   4.597
28751W        W93978  40.065  41.306  14.470
28752W        W93979  20.733   2.879   3.582
28753W        W93980  20.184  22.273  12.068
28754W        W93981   2.929  33.589   0.837
28755W        W93982  37.824  39.345  14.983
28756W        W93983  39.412   5.141  12.545
28757W        W93984  17.396   5.388   0.563
28758W        W93985   4.028  30.931  13.934
28759W        W93986  39.316  14.544   4.220
28760W        W93987  28.407  23.640   2.502
28761W        W93988  17.117  24.737   1.377
28762W        W93989  15.581  20.379   1.251
28763W        W93990   6.449  42.546  11.293
28764W        W93991  12.293  16.986   3.450
28765W        W93992  44.170  16.357  14.387
28766W        W93993  35.703  16.286   1.885
28767W        W93994  43.919  16.333  10.640
28768W        W93995  40.814  38.478   3.340
28769W        W93996  22.221  44.031  13.452
28770W        W93997   1.139  25.650   1.685
28771W        W93998  38.993  25.679   3.672
28772W        W93999  24.351  36.514   0.754
28773W        W94000  23.684  17.264   2.777
28774W        W94001  43.796  14.287   3.647
28775W        W94002   3.692  19.520   0.878
28776W        W94003  11.496  21.055   2.829
28777W        W94004  30.628  11.392   4.135
28778W        W94005   1.751   1.199  14.645
28779W        W94006  35.370  39.295  13.925
28780W        W94007  23.652  23.513   4.950
28781W        W94008   7.434  16.820   1.412
28782W        W94009  31.712   9.661  13.430
28783W        W94010  27.647  33.918  12.507
28784W        W94011  25.973  12.655   0.341
28785W        W94012  27.175  14.237  12.863
28786W        W94013  32.968  33.524   0.905
28787W        W94014  26.089  18.981   0.527
28788W        W94015  14.703  16.553  12.843
28789W        W94016  40.409  31.899   1.489
28790W        W94017   2.556  16.131  11.077
28791W        W94018   8.707  17.570  12.378
28792W        W94019  29.467   1.698  10.556
28793W        W94020  31.922   9.365  13.855
28794W        W94021  19.074  28.288   1.050
28795W        W94022  11.243  44.296   2.319
28796W        W94023   3.511  44.756  14.730
28797W        W94024  29.686   3.793   4.011
28798W        W94025  19.563  14.720  14.591
28799W        W94026  36.402  39.332   1.352
28800W        W94027  35.092  23.937   1.066
28801W        W94028  40.646  29.553  11.608
28802W        W94029  31.944  27.938  13.008
28803W        W94030  16.360  29.157   3.277
28804W        W94031  31.030  39.414  13.810
28805W        W94032  31.744  39.380  12.977
28806W        W94033  16.575   3.800   0.586
28807W        W94034   8.240   2.924   0.954
28808W        W94035  36.964  33.913   3.350
28809W        W94036  38.577  44.236   4.184
28810W        W94037  34.847   8.386   4.521
28811W        W94038   2.442  19.457   5.201
28812W        W94039  14.101   5.510  11.612
28813W        W94040  25.271  13.201  13.117
28814W        W94041  20.604  24.471  13.911
28815W        W94042  14.200   9.124   3.253
28816W        W94043   0.862   7.668  11.059
28817W        W94044  14.633  29.136  13.996
28818W        W94045   2.462  18.635  12.116
28819W        W94046  39.910   4.429  13.525
28820W        W94047  21.138   9.662   0.719
28821W        W94048  23.419  31.913  13.974
28822W        W94049  40.539  38.918   3.806
28823W        W94050  44.161  28.771   2.601
28824W        W94051  33.937  10.610   4.559
28825W        W94052  31.364  42.398  10.877
28826W        W94053   0.787  32.108  11.491
28827W        W94054  41.189  15.684   3.565
28828W        W94055  31.608  31.430   1.736
28829W        W94056  27.438   3.396  11.176
28830W        W94057  24.913  39.642   0.132
28831W        W94058  22.724  15.786   3.539
28832W        W94059  38.534  38.666  13.175
28833W        W94060  18.958  37.930  12.718
28834W        W94061  33.032  38.901  11.118
28835W        W94062  11.871  34.320   0.465
28836W        W94063  35.358  19.612  12.567
28837W        W94064  10.681   6.439   2.729
28838W        W94065  35.488  39.059  10.389
28839W        W94066  26.662  38.199  10.423
28840W        W94067  25.604  15.590   0.350
28841W        W94068   4.411  30.587   4.804
28842W        W94069   5.917  13.339  12.806
28843W        W94070  38.888  24.886  10.419
28844W        W94071   2.372  11.086  13.911
28845W        W94072  26.090  14.441   3.289
28846W        W94073   8.166   7.969   0.434
28847W        W94074  16.981   1.353   2.551
28848W        W94075   4.895  35.474   0.996
28849W        W94076  33.831   0.136  11.299
28850W        W94077  14.599  40.416   0.244
28851W        W94078  26.240  38.433   4.161
28852W        W94079  33.071  37.170  13.667
28853W        W94080  10.541  23.230   0.267
28854W        W94081  44.730  22.665   0.873
28855W        W94082  32.502   5.138  12.279
28856W        W94083  35.026  11.324  12.574
28857W        W94084  35.668  35.520   4.716
28858W        W94085  34.330  41.258  12.245
28859W        W94086  32.472   1.464  11.208
28860W        W94087   6.094  10.510   1.807
28861W        W94088  23.182  35.015  14.491
28862W        W94089  12.309  37.246  14.603
28863W        W94090  25.360  16.362  14.876
28864W        W94091   5.274   4.915  13.775
28865W        W94092  36.996  18.557   2.888
28866W        W94093  35.055   1.430  10.785
28867W        W94094   7.667  31.608  13.840
28868W        W94095   9.955  21.525   4.167
28869W        W94096  29.610  10.323   0.324
28870W        W94097  15.633   5.665   2.411
28871W        W94098   7.077  33.369   1.295
28872W        W94099  21.099  36.387  14.037
28873W        W94100  34.859  44.320  14.770
28874W        W94101   2.451  35.553   2.197
28875W        W94102  12.303  39.359  14.762
28876W        W94103  32.444  17.683   4.130
28877W        W94104  35.139  43.388  13.729
28878W        W94105   4.311  37.449   1.934
28879W        W94106  18.639  11.774   1.907
28880W        W94107  20.876   9.343   0.409
28881W        W94108  28.217  37.603   0.493
28882W        W94109  23.551  40.302   2.634
28883W        W94110   0.643  31.633  12.945
28884W        W94111   8.650  31.307   0.245
28885W        W94112   9.769  26.536  11.615
28886W        W94113   3.656  41.339   0.634
28887W        W94114  18.108  43.759  11.106
28888W        W94115  13.810  30.069  14.319
28889W        W94116  26.193   5.267   0.869
28890W        W94117  23.220   2.244  12.403
28891W        W94118  37.062  24.510  14.297
28892W        W94119  42.801  30.488  11.477
28893W        W94120  38.341  26.658  10.005
28894W        W94121  44.666  26.138   4.135
28895W        W94122  27.608  14.173  10.975
28896W        W94123  24.363   3.691  12.181
28897W        W94124  22.770  39.987   2.878
28898W        W94125   6.171   8.548  12.806
28899W        W94126  42.361  38.352  12.928
28900W        W94127  31.844  10.780   1.744
28901W        W94128  44.665  21.518   2.289
28902W        W94129   6.491   5.703   2.216
28903W        W94130   8.662   7.799   0.500
28904W        W94131   1.303  15.783  13.450
28905W        W94132  40.856  36.914   3.741
28906W        W94133  18.827  41.140   0.494
28907W        W94134  45.000   1.809   3.290
28908W        W94135  17.012  12.613  14.481
28909W        W94136  44.972  36.459   3.641
28910W        W94137  25.600  20.462  13.669
28911W        W94138  29.630  34.823   3.146
28912W        W94139  19.807   5.252   0.435
28913W        W94140  16.328   5.132   3.663
28914W        W94141  42.366  36.313  14.069
28915W        W94142  17.491   3.216  13.551
28916W        W94143  27.579  24.086  10.951
28917W        W94144  38.847  41.829  12.090
28918W        W94145  10.833  41.745   0.831
28919W        W94146  21.691  36.108   0.896
28920W        W94147   6.203  11.185  13.753
28921W        W94148  37.999  17.655   4.395
28922W        W94149   6.351  23.834   5.121
28923W        W94150   9.081  39.374   0.388
28924W        W94151  42.362  37.303   2.811
28925W        W94152  33.127  29.922   3.136
28926W        W94153  37.383  27.249  13.827
28927W        W94154  43.389  11.123   4.573
28928W        W94155   6.730  10.393   0.761
28929W        W94156  11.913  28.073   3.036
28930W        W94157  23.967   9.751  10.720
28931W        W94158  35.992  13.234   0.270
28932W        W94159  33.683   5.930   3.706
28933W        W94160  25.517  14.612  13.044
28934W        W94161  32.065   7.380  13.863
28935W        W94162  16.315  26.477   0.498
28936W        W94163  44.525  40.265  12.642
28937W        W94164  18.515  17.545   4.030
28938W        W94165  26.906  11.828   4.116
28939W        W94166   4.207  37.301   4.508
28940W        W94167  34.076  26.397   1.856
28941W        W94168  43.074   3.711   0.240
28942W        W94169  22.589  10.417   3.775
28943W        W94170   5.734  40.041  11.754
28944W        W94171  41.993  33.054   4.186
28945W        W94172  38.596   7.344  10.300
28946W        W94173  26.014   8.925   0.784
28947W        W94174   9.968  39.519  11.901
28948W        W94175  15.123  20.323  12.602
28949W        W94176  40.585  35.963   2.114
28950W        W94177  36.135  39.600   0.348
28951W        W94178   5.757   5.578   4.215
28952W        W94179  17.037   3.617  14.480
28953W        W94180  27.710  31.468   4.746
28954W        W94181   2.266  12.821   4.621
28955W        W94182  23.909  18.963   2.844
28956W        W94183  36.999   7.543  11.167
28957W        W94184  31.091  28.949   2.417
28958W        W94185   8.803   5.552   1.347
28959W        W94186  33.871  39.290  11.899
28960W        W94187  22.639  26.979  13.679
28961W        W94188   2.700  35.515   3.173
28962W        W94189  43.476  28.796  11.022
28963W        W94190  34.912  42.646  10.980
28964W        W94191  19.803   2.024   0.265
28965W        W94192  32.624  21.370  12.036
28966W        W94193   4.767  32.142   2.734
28967W        W94194  36.359  42.202  13.479
28968W        W94195  39.981   1.549  13.024
28969W        W94196   9.881   6.842  13.438
28970W        W94197  26.034  31.482  13.056
28971W        W94198  39.096  12.679   2.307
28972W        W94199  14.356  13.012  14.032
28973W        W94200   0.960   5.837   1.092
28974W        W94201  24.243   6.829  12.521
28975W        W94202  30.462  26.498  13.041
28976W        W94203  30.410  40.526   0.352
28977W        W94204  22.825   0.219   2.374
28978W        W94205  34.373  28.099   2.351
28979W        W94206   5.421   9.576   1.370
28980W        W94207  11.363  38.116   3.405
28981W        W94208  20.462   6.346   4.580
28982W        W94209  11.740  42.513   1.405
28983W        W94210  35.620  23.122  10.945
28984W        W94211  15.336  33.725   3.230
28985W        W94212  11.671  35.973   3.848
28986W        W94213  20.493   1.486  11.350
28987W        W94214  15.107  29.648  12.343
28988W        W94215   3.377  34.649  14.234
28989W        W94216  21.739  38.877   2.228
28990W        W94217  13.651  37.537  11.134
28991W        W94218   5.860  35.575   4.596
28992W        W94219  14.376  17.614  12.039
28993W        W94220  31.172   8.735  12.537
28994W        W94221  11.173  41.306  12.508
28995W        W94222  18.335  40.672  12.867
28996W        W94223  20.894  38.586  13.127
28997W        W94224  10.859  16.717  10.763
28998W        W94225  22.620  11.141   4.268
28999W        W94226  22.982  34.321  13.038
29000W        W94227  23.917   3.482  10.348
29001W        W94228  36.450  41.808   3.806
29002W        W94229   8.407  14.862   1.362
29003W        W94230  12.579   2.454   3.863
29004W        W94231  24.316  41.464   2.840
29005W        W94232   5.138   6.672  12.730
29006W        W94233   9.152  37.002   2.597
29007W        W94234  41.290   9.832   4.145
29008W        W94235  17.085  39.457   4.594
29009W        W94236   1.104   4.455  12.078
29010W        W94237   8.297  32.206  11.205
29011W        W94238  30.028   1.839  11.150
29012W        W94239   3.030  17.108   3.698
29013W        W94240   2.037  23.305  14.020
29014W        W94241  32.477  23.320   4.486
29015W        W94242   0.418  32.582   2.629
29016W        W94243  43.204  44.913  12.826
29017W        W94244  30.451  17.083  13.682
29018W        W94245  13.253  43.398   0.259
29019W        W94246  28.565  41.597   2.113
29020W        W94247   5.397  17.304   2.725
29021W        W94248  16.935   3.354  14.941
29022W        W94249   4.321  29.045   1.218
29023W        W94250  11.682  37.904   1.411
29024W        W94251  22.665  22.792   1.249
29025W        W94252  21.351  31.969  14.444
29026W        W94253   0.499   0.299   0.710
29027W        W94254  27.517  16.543  14.386
29028W        W94255  29.630  18.330  13.051
29029W        W94256  16.985  26.301   2.921
29030W        W94257  31.931   5.314   2.788
29031W        W94258   3.772  20.030  12.670
29032W        W94259  15.880  23.231  13.399
29033W        W94260  31.923  23.742  14.459
29034W        W94261   5.879   7.168   3.689
29035W        W94262  35.527  38.907   0.654
29036W        W94263  24.001  26.964  12.850
29037W        W94264  16.526  28.282   0.333
29038W        W94265  42.923   0.822   4.598
29039W        W94266  28.496  10.991  14.954
29040W        W94267  25.918  12.485  12.480
29041W        W94268  43.106  17.499   2.168
29042W        W94269  32.787  42.615   3.326
29043W        W94270  39.635  37.045   3.026
29044W        W94271  25.834  17.074   4.184
29045W        W94272  24.799  42.047   2.985
29046W        W94273  18.674  43.262   3.295
29047W        W94274  27.194   9.140   1.487
29048W        W94275  37.344  33.534   2.663
29049W        W94276   7.433  37.536   2.171
29050W        W94277  16.790  27.587  13.406
29051W        W94278  26.689  24.940   1.323
29052W        W94279  15.544  23.968  11.191
29053W        W94280  13.665  23.135  10.503
29054W        W94281  43.835  25.717   2.084
29055W        W94282  25.689  20.033   0.062
29056W        W94283  31.824  19.885  14.894
29057W        W94284  44.472  10.807  13.306
29058W        W94285  39.702  26.083  11.632
29059W        W94286   2.211   4.186   2.805
29060W        W94287   0.872  17.897  14.008
29061W        W94288  23.925  44.671   3.549
29062W        W94289  34.010  41.489   3.428
29063W        W94290  14.370  44.873  12.459
29064W        W94291  27.885  30.652   0.841
29065W        W94292   6.994  20.957  14.490
29066W        W94293   1.245  32.563   3.644
29067W        W94294  20.688  25.578  13.115
29068W        W94295  16.127  39.388  12.097
29069W        W94296  20.730  36.084  13.018
29070W        W94297  31.696  38.136   0.702
29071W        W94298  11.081  30.126  11.086
29072W        W94299  42.765   3.049  14.486
29073W        W94300  25.124  25.352  11.712
29074W        W94301   3.084   2.824   4.719
29075W        W94302  40.408  34.901   3.324
29076W        W94303  17.984  39.386   3.671
29077W        W94304  20.967  27.289   3.219
29078W        W94305  23.207   2.029  13.790
29079W        W94306  37.803  24.067  13.412
29080W        W94307  34.487  14.628  12.403
29081W        W94308  18.446  41.848   3.598
29082W        W94309  15.950  30.537   2.804
29083W        W94310  13.750  26.677  12.883
29084W        W94311  13.394  39.831  13.246
29085W        W94312  28.418  20.238  14.936
29086W        W94313  23.727  28.034   1.571
29087W        W94314  27.517  36.967  13.522
29088W        W94315   2.904   0.117  11.117
29089W        W94316  42.103  11.136   3.684
29090W        W94317  26.069  24.757   4.540
29091W        W94318  31.999  17.830  12.927
29092W        W94319  25.687  14.338  13.458
29093W        W94320  33.011  23.443   4.462
29094W        W94321  20.272  29.187   2.345
29095W        W94322  11.556  38.820  14.935
29096W        W94323  29.248  24.742  11.523
29097W        W94324  41.829  10.871   3.124
29098W        W94325  42.577  29.126   1.263
29099W        W94326   9.920  12.198  11.067
29100W        W94327   5.835  29.153   2.724
29101W        W94328   5.393  37.194  14.224
29102W        W94329  11.115  33.786   9.598
29103W        W94330  43.396  31.106  10.697
29104W        W94331  44.997  23.937   0.241
29105W        W94332   3.349  34.297  10.504
29106W        W94333  39.605  31.525  12.792
29107W        W94334  31.428   8.410   1.875
29108W        W94335  27.999  29.427  13.969
29109W        W94336  37.586   8.601   2.226
29110W        W94337   1.475  38.948  10.738
29111W        W94338  13.078   8.293   3.219
29112W        W94339  23.595   7.708   1.367
29113W        W94340  17.206  18.996   1.311
29114W        W94341  24.457  13.832  11.615
29115W        W94342  37.099   0.520  13.914
29116W        W94343  20.147  22.859   2.863
29117W        W94344  18.571  32.574   4.846
29118W        W94345  37.328  26.681   1.672
29119W        W94346  40.888   2.412  13.693
29120W        W94347  40.285  27.590   3.377
29121W        W94348  28.280  20.653   3.262
29122W        W94349  35.384  19.792   4.850
29123W        W94350  41.834  31.289   0.924
29124W        W94351  39.984  39.710  13.730
29125W        W94352   4.838  24.841   3.073
29126W        W94353  25.179  23.227   4.537
29127W        W94354  34.662  44.294  13.941
29128W        W94355  27.406  18.209   4.761
29129W        W94356  17.691  14.960  11.563
29130W        W94357  33.929  20.705   4.170
29131W        W94358  44.985  34.728  11.127
29132W        W94359  29.114  40.541  13.309
29133W        W94360  22.689  17.970   2.366
29134W        W94361   5.089  29.596   2.395
29135W        W94362  33.096  37.105  14.177
29136W        W94363  16.547  26.403  11.067
29137W        W94364  23.287  12.505   1.205
29138W        W94365  34.024  35.954   4.690
29139W        W94366   4.527  24.841  12.316
29140W        W94367  13.825  17.551  11.236
29141W        W94368   1.880  21.970   0.867
29142W        W94369  33.819  10.075   5.064
29143W        W94370   2.719  44.117   2.259
29144W        W94371  22.651  44.765  11.920
29145W        W94372  33.084  18.200   2.726
29146W        W94373   4.599  35.008  10.901
29147W        W94374  20.587   4.050   2.671
29148W        W94375  19.174  14.437   4.323
29149W        W94376  16.520  13.539  12.590
29150W        W94377  17.568  16.197   2.843
29151W        W94378  23.064  38.907   1.734
29152W        W94379  15.791   3.770  12.973
29153W        W94380  42.259  16.126  11.697
29154W        W94381  41.585  24.997  14.887
29155W        W94382  11.748  15.737   0.274
29156W        W94383  23.043  17.123  14.084
29157W        W94384  44.001  12.179  13.332
29158W        W94385   4.611  16.065   1.532
29159W        W94386  32.015  17.151  13.322
29160W        W94387  43.154  14.994  12.499
29161W        W94388  23.773  22.403  12.524
29162W        W94389  26.289  30.348   2.162
29163W        W94390  14.326  31.910   5.065
29164W        W94391  21.242  14.680   4.541
29165W        W94392  23.078  27.733   4.603
29166W        W94393  37.263   5.173   5.002
29167W        W94394   1.275  26.984   4.030
29168W        W94395  35.609  10.246   0.874
29169W        W94396   6.227  10.766   4.811
29170W        W94397  33.066   3.916  12.418
29171W        W94398  25.328  44.065   0.776
29172W        W94399  23.078  42.880  11.306
29173W        W94400   2.483  16.335  14.436
29174W        W94401  12.173  17.193  12.915
29175W        W94402  14.884   0.315   1.446
29176W        W94403  29.297   2.411   3.163
29177W        W94404  14.869  41.825   3.657
29178W        W94405  10.219   2.789  11.996
29179W        W94406  41.508  31.231  10.699
29180W        W94407  18.712  28.057  11.637
29181W        W94408   4.131  32.934  13.558
29182W        W94409  31.793  40.268   2.742
29183W        W94410  16.945  34.245  13.602
29184W        W94411   3.209  33.137  14.960
29185W        W94412  30.799   8.842  13.019
29186W        W94413  30.692  33.077   3.641
29187W        W94414   1.211   2.632   3.358
29188W        W94415  42.231  36.185   4.283
29189W        W94416  17.047  33.141  10.693
29190W        W94417  15.565  11.345  14.411
29191W        W94418  18.794  43.894  14.184
29192W        W94419   4.376  35.198   3.646
29193W        W94420  11.197  28.428  10.995
29194W        W94421  36.634   5.450   1.880
29195W        W94422   6.925  42.720   1.844
29196W        W94423  19.302  15.898  14.448
29197W        W94424  19.792  35.394  11.841
29198W        W94425  42.019  10.902  11.232
29199W        W94426  42.838  18.534   4.913
29200W        W94427   0.785  20.262  13.722
29201W        W94428  38.471  13.054  13.931
29202W        W94429   2.705   8.785  12.080
29203W        W94430  20.542  29.756  12.170
29204W        W94431  10.647  36.437   3.230
29205W        W94432  25.112   0.640   0.165
29206W        W94433  42.217  18.563   1.415
29207W        W94434  12.318  10.855   1.107
29208W        W94435  21.025  20.649  14.389
29209W        W94436  11.935  14.119  11.068
29210W        W94437  12.884  27.997   4.458
29211W        W94438  42.121  37.155  10.080
29212W        W94439  11.319  14.351   1.199
29213W        W94440   6.062  44.943  12.289
29214W        W94441  32.168  21.532  11.509
29215W        W94442  10.839  20.585   1.946
29216W        W94443  30.910  37.333  13.988
29217W        W94444  32.669   8.851  10.398
29218W        W94445  24.510  19.468  13.570
29219W        W94446  33.349   7.901   1.761
29220W        W94447  32.597  44.548  11.504
29221W        W94448   5.824  15.589  13.105
29222W        W94449  38.891  43.413   4.126
29223W        W94450   1.147  25.705  12.203
29224W        W94451  35.813  32.951  11.383
29225W        W94452   1.695   5.886  11.877
29226W        W94453  20.086  26.557  12.625
29227W        W94454  41.411  39.336   3.664
29228W        W94455   5.953  42.544   1.965
29229W        W94456  18.512  26.664   4.547
29230W        W94457   5.770  38.840  13.064
29231W        W94458  35.424  12.082   2.161
29232W        W94459  17.347  17.674   2.401
29233W        W94460   9.053  34.121  14.502
29234W        W94461   7.040   0.010   4.064
29235W        W94462  37.448   6.559  13.366
29236W        W94463  11.373  13.838   1.264
29237W        W94464  38.730  13.378   0.686
29238W        W94465  28.283  34.824   4.576
29239W        W94466  12.125   9.113  11.746
29240W        W94467   1.776  25.767   0.824
29241W        W94468  23.996  26.166   0.729
29242W        W94469  10.651  18.234   4.006
29243W        W94470  15.701  33.630  13.922
29244W        W94471  34.537  16.804  11.647
29245W        W94472  25.069  37.903   3.928
29246W        W94473  26.724  32.473   0.740
29247W        W94474  10.907  26.243  11.037
29248W        W94475  35.959  21.879  12.659
29249W        W94476  30.112  25.572   4.018
29250W        W94477   0.823  18.301  13.669
29251W        W94478  39.495  34.018  13.126
29252W        W94479  37.182  39.551  14.282
29253W        W94480  23.589  25.363  13.117
29254W        W94481   4.959   5.195   4.423
29255W        W94482  35.032  11.390  11.617
29256W        W94483  30.925   0.775  12.864
29257W        W94484  20.040  43.363   4.740
29258W        W94485  30.434  21.568  14.886
29259W        W94486  26.708  22.263   2.784
29260W        W94487  29.071   9.390  13.013
29261W        W94488  28.015  22.232   4.146
29262W        W94489  23.433  31.441   1.674
29263W        W94490  36.066  16.648  14.921
29264W        W94491  21.688  14.391  13.201
29265W        W94492   5.836  12.790   3.336
29266W        W94493  36.896  22.560  13.144
29267W        W94494  27.946  27.071  11.935
29268W        W94495  20.610  24.210  11.160
29269W        W94496  30.989   8.878   3.288
29270W        W94497  27.471  31.612   2.632
29271W        W94498  28.978  10.720  12.864
29272W        W94499   8.939  28.914   2.649
29273W        W94500  19.221  22.956   1.938
29274W        W94501   3.049  25.414  13.213
29275W        W94502  36.303  23.891   3.753
29276W        W94503  27.973   8.606   4.135
29277W        W94504  42.752  15.933   0.285
29278W        W94505  21.345  17.364   3.711
29279W        W94506  16.267  41.002  14.476
29280W        W94507  28.171  15.134  12.528
29281W        W94508  20.142   5.924  12.428
29282W        W94509  31.552   1.409   3.625
29283W        W94510  13.691  19.024  13.077
29284W        W94511  20.091  27.990   0.840
29285W        W94512  15.559  14.378  13.129
29286W        W94513   9.989   7.739   0.012
29287W        W94514  27.254  11.849   0.855
29288W        W94515  41.579  34.511   4.271
29289W        W94516   8.474  30.170   3.544
29290W        W94517  21.164  36.440   3.168
29291W        W94518  10.777  11.171  12.908
29292W        W94519  26.884  14.754   0.287
29293W        W94520  19.329  11.283  14.956
29294W        W94521  26.703   1.350   3.758
29295W        W94522   4.811  24.640   1.005
29296W        W94523   7.076  44.882   3.211
29297W        W94524  38.361   5.637   1.878
29298W        W94525  16.631  42.253   0.171
29299W        W94526   6.417   9.970   0.698
29300W        W94527  44.072  15.848  11.562
29301W        W94528  18.182  19.155  10.760
29302W        W94529  38.328  31.655  13.512
29303W        W94530  35.526  19.936  10.693
29304W        W94531  16.652  30.545   2.247
29305W        W94532  18.835  30.345   4.491
29306W        W94533  41.392  21.381   4.135
29307W        W94534  41.449  34.515  14.068
29308W        W94535  24.608   9.317   2.594
29309W        W94536  29.480  38.317  12.828
29310W        W94537  44.045  17.461   1.757
29311W        W94538   4.071  15.196  12.426
29312W        W94539  14.313  30.493  12.891
29313W        W94540  36.605  43.044  13.903
29314W        W94541  43.016  32.052   4.044
29315W        W94542  19.247  42.882   1.373
29316W        W94543  43.940  44.410  12.511
29317W        W94544   2.889  43.442   2.571
29318W        W94545  31.119  38.452  13.813
29319W        W94546  39.573   6.635  13.061
29320W        W94547  10.820  43.380   3.148
29321W        W94548  16.013   3.480  12.619
29322W        W94549  33.165   2.391   4.730
29323W        W94550  34.514  36.294   2.710
29324W        W94551   8.144  24.139  14.308
29325W        W94552  32.055   1.253  10.944
29326W        W94553  27.681  40.545  10.645
29327W        W94554   7.790  32.903   0.890
29328W        W94555  27.948  37.393   0.955
29329W        W94556   6.211  28.935   1.791
29330W        W94557  28.292  17.933   2.289
29331W        W94558  13.621  27.576  10.839
29332W        W94559  32.127  29.074  13.877
29333W        W94560  11.368  15.777  13.533
29334W        W94561  21.622  43.094   0.887
29335W        W94562  26.913   7.287   2.762
29336W        W94563  44.403  24.610   0.887
29337W        W94564   2.448  34.217  10.823
29338W        W94565  41.614  20.599   0.281
29339W        W94566  33.641  19.856  14.914
29340W        W94567  31.852  30.929   0.821
29341W        W94568  15.366  23.689  10.784
29342W        W94569  14.982  26.997   3.140
29343W        W94570  16.551  29.662  11.561
29344W        W94571   9.749  37.953   2.617
29345W        W94572  34.007  31.448  11.271
29346W        W94573  39.405  11.399  12.988
29347W        W94574  41.583  14.216  11.606
29348W        W94575  19.972   8.271  14.964
29349W        W94576  13.984  40.166  11.213
29350W        W94577   7.798  18.186  14.900
29351W        W94578   3.688   2.094   1.221
29352W        W94579   5.347  10.791  11.987
29353W        W94580  28.212   4.655  10.412
29354W        W94581  21.393   3.546  10.202
29355W        W94582  44.495   2.603   3.449
29356W        W94583  17.309  34.760   4.189
29357W        W94584  26.035  42.391  14.987
29358W        W94585  38.937  41.542   4.080
29359W        W94586   8.665  38.830  13.308
29360W        W94587   7.598  32.451   4.045
29361W        W94588  10.013  29.959   1.015
29362W        W94589  44.226  35.951   0.457
29363W        W94590  10.135   7.267   0.271
29364W        W94591   2.499  10.620   1.799
29365W        W94592  24.322  12.908  12.051
29366W        W94593  26.664  41.141   1.118
29367W        W94594  23.743  25.585  11.320
29368W        W94595  34.570  37.106  11.555
29369W        W94596  20.678  15.262  13.542
29370W        W94597   3.478   0.527   3.056
29371W        W94598  35.102   1.700   0.237
29372W        W94599  15.241   3.396   3.697
29373W        W94600   1.957  16.989   4.576
29374W        W94601  36.254  23.074   1.467
29375W        W94602  42.627   2.405   4.397
29376W        W94603  23.819  16.679   0.116
29377W        W94604  12.148  24.147  14.385
29378W        W94605   1.390  40.357  13.977
29379W        W94606  41.540  31.730   4.906
29380W        W94607  32.403  42.421   0.219
29381W        W94608  25.103  33.592  14.817
29382W        W94609   1.072  31.685  13.863
29383W        W94610  14.733  14.921  14.979
29384W        W94611  37.051  18.998  13.538
29385W        W94612  27.988  39.945   1.037
29386W        W94613  24.670  13.838   1.903
29387W        W94614  26.154  22.474   3.262
29388W        W94615  42.340  15.619  11.711
29389W        W94616   1.364  42.467  12.999
29390W        W94617  15.235  33.430  13.740
29391W        W94618  13.965  16.039   3.575
29392W        W94619   3.029  41.779   4.947
29393W        W94620  15.751  21.516  10.910
29394W        W94621  24.308  27.736   0.594
29395W        W94622  17.038   1.450   4.168
29396W        W94623  33.909   5.170   0.849
29397W        W94624  17.552   2.801   2.558
29398W        W94625  22.781  11.695   1.213
29399W        W94626  29.273  36.739   5.334
29400W        W94627  43.706   0.858  12.905
29401W        W94628   1.547  29.674  12.490
29402W        W94629  20.241  22.563   4.848
29403W        W94630   0.363   4.444  11.168
29404W        W94631  17.794  18.565   1.843
29405W        W94632  37.977  38.463  10.523
29406W        W94633  30.103   8.692  12.506
29407W        W94634   4.029  26.318  14.107
29408W        W94635  36.180  24.269   4.182
29409W        W94636  12.066  17.666  13.448
29410W        W94637   1.814  13.772   2.393
29411W        W94638  37.426  30.521   0.779
29412W        W94639  24.738  17.640   0.767
29413W        W94640  32.529  35.043   2.861
29414W        W94641  29.010   1.795   3.553
29415W        W94642  42.241  31.941   3.631
29416W        W94643   0.970   6.200   2.760
29417W        W94644  11.126  38.269   0.351
29418W        W94645   9.919   8.802   3.757
29419W        W94646  41.259   6.582  13.947
29420W        W94647  19.590  29.096   2.599
29421W        W94648  22.303  13.424  12.581
29422W        W94649  36.746   4.008  12.259
29423W        W94650  39.285  36.618   3.769
29424W        W94651  37.327  22.289  12.454
29425W        W94652   1.708  31.922  10.439
29426W        W94653  21.817  36.791   2.446
29427W        W94654  42.900   6.281  14.514
29428W        W94655  25.198  35.668  14.822
29429W        W94656  23.347  11.172  12.165
29430W        W94657   5.891  13.244   1.562
29431W        W94658  20.762  14.594   3.840
29432W        W94659  32.082   6.452  12.066
29433W        W94660  29.493  40.525   2.998
29434W        W94661  21.618   6.310   2.353
29435W        W94662   1.956   7.873   0.160
29436W        W94663   8.847  38.901   0.949
29437W        W94664   0.089   3.510  14.845
29438W        W94665   4.674  22.554  12.151
29439W        W94666  15.085   5.516   4.583
29440W        W94667   8.274   3.477  12.255
29441W        W94668  37.823   7.227   3.129
29442W        W94669  44.428  39.938   3.179
29443W        W94670  18.384   7.244   2.453
29444W        W94671   8.127  10.909  12.654
29445W        W94672  25.883   7.342  12.629
29446W        W94673  16.615  41.709   1.835
29447W        W94674  29.071   0.952   4.569
29448W        W94675   1.562  25.698  14.425
29449W        W94676  36.297  20.814  11.164
29450W        W94677   6.900  31.214   2.119
29451W        W94678  25.245   0.916  14.301
29452W        W94679   2.764  12.210  10.705
29453W        W94680   1.679  13.617  13.294
29454W        W94681  23.943  32.648   1.377
29455W        W94682  11.827  25.567   0.217
29456W        W94683   6.176  35.930   1.272
29457W        W94684  29.042  34.287  11.621
29458W        W94685   6.712   2.285   2.065
29459W        W94686  29.682  31.554   3.221
29460W        W94687  40.409  21.916   3.316
29461W        W94688  23.106  35.459  12.816
29462W        W94689  36.645  32.976  11.259
29463W        W94690   0.806   4.911  12.147
29464W        W94691  42.353   9.847  13.303
29465W        W94692  35.522  23.601   1.024
29466W        W94693  25.150  44.288   4.586
29467W        W94694  44.980   0.496  14.290
29468W        W94695  27.165  40.179  11.499
29469W        W94696   1.203  31.771  11.630
29470W        W94697   8.415  27.577   1.620
29471W        W94698  28.950   6.259  11.143
29472W        W94699  11.178  20.098   1.226
29473W        W94700  25.026   1.012   1.426
29474W        W94701  20.282  32.041   3.825
29475W        W94702  11.915  17.777   4.383
29476W        W94703  25.529  41.851  10.908
29477W        W94704  40.340  25.176  10.743
29478W        W94705   0.715  21.642  12.383
29479W        W94706   7.547  40.281   1.505
29480W        W94707  38.992  43.521  14.449
29481W        W94708   2.346  44.546  14.629
29482W        W94709  27.077  13.720   3.194
29483W        W94710  21.758  23.259   3.634
29484W        W94711  34.012   9.164   1.041
29485W        W94712   9.134  30.129   2.243
29486W        W94713  28.593  42.091  10.714
29487W        W94714  14.385   8.188  12.898
29488W        W94715  22.163  16.054   4.711
29489W        W94716  30.331  19.594  13.291
29490W        W94717  29.759  27.241  14.306
29491W        W94718  34.364  24.061   0.526
29492W        W94719  11.230  26.233   2.421
29493W        W94720  44.946   5.258   3.295
29494W        W94721  13.809   6.979   3.399
29495W        W94722   5.879  22.176  14.430
29496W        W94723  26.988  12.095   3.147
29497W        W94724  39.363  27.631   0.973
29498W        W94725  10.158  33.930  11.592
29499W        W94726   3.833  38.620  14.324
29500W        W94727   3.233  32.333  14.515
29501W        W94728  10.273  15.544  12.994
29502W        W94729  13.345  19.762   3.922
29503W        W94730  42.872  10.310   4.601
29504W        W94731  30.588   3.179  12.929
29505W        W94732  10.869   9.114  12.185
29506W        W94733  16.779  23.428   3.196
29507W        W94734   9.201  11.502   4.197
29508W        W94735   7.731  39.296   1.771
29509W        W94736  11.424  22.647  10.690
29510W        W94737  20.511   0.721   1.401
29511W        W94738  11.507  43.823  11.992
29512W        W94739  25.326  21.448   0.483
29513W        W94740  33.502   9.659   0.475
29514W        W94741   1.349   1.321  11.631
29515W        W94742  34.513  42.689  10.668
29516W        W94743   0.957  34.932   2.547
29517W        W94744   6.763  22.716  14.567
29518W        W94745  37.971   6.238  12.894
29519W        W94746  28.005  40.417   0.283
29520W        W94747  41.499  43.435  11.527
29521W        W94748  22.298   3.756   1.527
29522W        W94749   4.009  18.320   2.853
29523W        W94750  25.189  39.862   4.143
29524W        W94751  34.275  15.963  13.596
29525W        W94752  17.808  36.547  13.834
29526W        W94753  26.919  23.292  11.633
29527W        W94754  23.904  21.408  12.369
29528W        W94755  20.561   1.504  10.478
29529W        W94756  37.385   8.749   4.451
29530W        W94757   7.476  25.672   3.308
29531W        W94758   9.682   9.196  13.490
29532W        W94759   5.833  36.665   2.833
29533W        W94760  42.374   5.523  10.757
29534W        W94761  36.945  36.473   1.408
29535W        W94762  36.919  10.389  10.646
29536W        W94763  34.931  13.383  10.204
29537W        W94764   0.870  10.987  10.614
29538W        W94765   0.242  29.941   3.202
29539W        W94766  14.379  41.565   3.211
29540W        W94767   9.326  10.865  13.697
29541W        W94768  36.227  19.741  13.327
29542W        W94769   2.465  37.767  12.121
29543W        W94770   1.130  44.146   2.674
29544W        W94771  34.190  36.461  12.919
29545W        W94772  21.961  10.787  10.787
29546W        W94773  20.490  36.012   2.335
29547W        W94774  40.364  33.115  10.363
29548W        W94775  33.440  25.124   2.698
29549W        W94776  14.268  44.058   9.958
29550W        W94777  43.916  31.114   3.694
29551W        W94778  11.793  31.743   5.293
29552W        W94779  21.471  36.176  13.479
29553W        W94780  38.360  30.637   4.167
29554W        W94781   3.164  31.938   2.874
29555W        W94782   6.003  11.063   3.558
29556W        W94783  24.078  37.408  14.977
29557W        W94784  39.044  18.451   3.366
29558W        W94785  33.142  22.172   2.729
29559W        W94786  39.852  22.060   0.370
29560W        W94787  11.154  43.273   2.257
29561W        W94788  37.942   7.686   1.395
29562W        W94789   3.735  29.820   3.335
29563W        W94790  22.560   4.729  14.409
29564W        W94791  38.422  28.196   1.482
29565W        W94792  40.890  38.810  11.996
29566W        W94793  41.098  40.803  11.222
29567W        W94794  15.622  28.806  11.110
29568W        W94795  38.826  33.820  11.477
29569W        W94796   6.604   0.728  14.022
29570W        W94797  41.606  12.918   0.827
29571W        W94798   3.023   9.260   3.787
29572W        W94799  21.457   3.352  14.382
29573W        W94800  16.020  38.550   1.327
29574W        W94801  26.176  35.870   3.150
29575W        W94802  27.380   4.599  13.460
29576W        W94803  42.529  14.112   1.777
29577W        W94804  24.823  41.238   4.090
29578W        W94805  17.511  41.513  14.865
29579W        W94806  21.263   6.376  10.662
29580W        W94807  16.312  30.457   4.485
29581W        W94808  23.494  10.201   0.462
29582W        W94809  20.336  21.143  13.418
29583W        W94810  17.559   3.401   3.237
29584W        W94811  32.246  13.675  13.769
29585W        W94812  27.132  39.809   0.468
29586W        W94813  38.750  16.813   2.227
29587W        W94814  31.125  40.365   3.797
29588W        W94815  14.371  37.866   3.380
29589W        W94816  32.308  30.026  12.170
29590W        W94817  10.701  23.998   2.253
29591W        W94818  36.795  10.124  12.888
29592W        W94819  25.974  40.694  12.189
29593W        W94820  43.357  37.962  12.016
29594W        W94821  24.142  33.390   2.444
29595W        W94822   2.912  44.535  10.239
29596W        W94823  25.615  25.765  11.921
29597W        W94824  27.632   0.057   3.052
29598W        W94825  35.062  11.042   0.515
29599W        W94826   2.684  27.754  12.059
29600W        W94827  35.029  16.838   3.119
29601W        W94828  18.830  10.068  13.388
29602W        W94829  25.683  23.977   4.419
29603W        W94830   6.922  13.742  13.416
29604W        W94831   8.754  39.022  10.961
29605W        W94832  33.931  33.586  13.620
29606W        W94833   5.341  40.284  13.063
29607W        W94834   0.711  27.236   0.850
29608W        W94835   6.445  40.050   1.328
29609W        W94836  39.069  29.478   4.138
29610W        W94837   0.735  13.210   1.654
29611W        W94838   1.554  11.652  11.809
29612W        W94839  13.364  34.774   4.091
29613W        W94840  30.558  10.416   1.610
29614W        W94841  15.978  37.026  11.680
29615W        W94842  43.421  36.100  14.775
29616W        W94843  24.773  37.071   2.014
29617W        W94844   8.659  26.544   1.924
29618W        W94845  28.958   7.222  11.428
29619W        W94846  42.063  13.316  14.425
29620W        W94847  39.461  19.371  13.998
29621W        W94848  13.149  26.587  12.640
29622W        W94849  12.839  44.895   1.673
29623W        W94850  31.060  12.663  12.195
29624W        W94851  21.643  38.701  12.940
29625W        W94852  29.927  26.866   1.317
29626W        W94853  33.509  38.168  10.801
29627W        W94854  33.413  14.252   2.891
29628W        W94855  27.878   4.642  13.373
29629W        W94856  15.034  21.268   3.359
29630W        W94857   0.951  42.840   0.430
29631W        W94858  12.578  34.969   3.271
29632W        W94859  20.085  29.040  14.569
29633W        W94860  13.915  11.348  14.044
29634W        W94861  38.929   2.410   1.728
29635W        W94862  16.107   9.556   1.441
29636W        W94863  42.685  40.673   4.863
29637W        W94864  28.053  38.680  10.922
29638W        W94865  13.730   2.799   0.884
29639W        W94866  30.532  23.637   1.754
29640W        W94867  43.766  11.801  12.360
29641W        W94868   6.885   4.363  13.040
29642W        W94869  16.343  36.254   1.776
29643W        W94870  37.336  44.222  12.889
29644W        W94871  38.041   8.448  14.899
29645W        W94872  24.579  11.829   4.811
29646W        W94873  39.456   4.194  12.557
29647W        W94874  42.471  41.993   1.316
29648W        W94875  10.633  30.037   2.449
29649W        W94876  18.445   6.425  13.442
29650W        W94877  18.054   4.835  10.748
29651W        W94878  38.131  37.907  13.046
29652W        W94879  14.016  18.599   0.406
29653W        W94880  35.149   6.361  12.468
29654W        W94881  24.155  33.660   4.788
29655W        W94882  25.032  10.668   1.276
29656W        W94883   3.759  28.593  10.648
29657W        W94884  42.718  26.413   2.820
29658W        W94885  22.673   3.890  14.975
29659W        W94886  39.834  34.631  14.360
29660W        W94887  18.353  31.885   3.593
29661W        W94888  43.901  29.944  12.968
29662W        W94889  28.475  36.431   1.831
29663W        W94890  25.043  38.759   3.371
29664W        W94891  37.452  24.606  13.000
29665W        W94892  23.001  14.591   1.690
29666W        W94893  41.776  38.371   3.781
29667W        W94894  33.424   4.363  13.980
29668W        W94895  14.763  43.013  10.803
29669W        W94896  36.564  16.086   3.650
29670W        W94897  22.702  38.392  12.902
29671W        W94898   1.872   9.715  14.506
29672W        W94899  29.093  25.609   1.848
29673W        W94900   9.246  31.720  13.905
29674W        W94901  41.629   1.825  11.367
29675W        W94902  15.642  21.616   0.823
29676W        W94903  39.169  11.182   4.844
29677W        W94904   4.501   4.329  13.372
29678W        W94905  11.670   0.827   4.999
29679W        W94906  39.576   7.240  11.657
29680W        W94907  30.730  31.709  11.982
29681W        W94908  14.994  20.317   4.226
29682W        W94909  41.750  14.192   1.306
29683W        W94910  41.939  17.242   3.182
29684W        W94911  38.215  25.351  13.361
29685W        W94912  36.356  38.159  13.348
29686W        W94913  30.230  36.515  12.534
29687W        W94914   9.284  19.063  11.589
29688W        W94915  21.051  17.933   4.377
29689W        W94916  34.508   8.671  13.973
29690W        W94917   0.019   6.556  11.915
29691W        W94918  36.130  44.450   5.172
29692W        W94919  23.579  17.236   3.940
29693W        W94920  42.513  41.084  12.999
29694W        W94921  19.662   7.817   4.160
29695W        W94922  16.066   6.754   3.215
29696W        W94923  16.297  32.940  11.119
29697W        W94924  28.209  44.865   1.205
29698W        W94925  30.023  35.115   2.392
29699W        W94926  28.010  23.484   2.170
29700W        W94927  12.615  34.640   1.439
29701W        W94928  19.467  26.793   2.238
29702W        W94929  12.919  35.126   4.755
29703W        W94930  39.846  37.352  13.749
29704W        W94931  14.331  28.359  11.551
29705W        W94932  35.586  10.965  12.965
29706W        W94933  43.381  30.792   3.011
29707W        W94934  37.553   8.188  10.832
29708W        W94935  41.579  20.144   1.801
29709W        W94936  10.127  38.140  11.268
29710W        W94937  32.853   7.902   4.111
29711W        W94938  24.340  30.889  10.571
29712W        W94939  29.407  31.101   1.939
29713W        W94940   6.160  18.322  10.266
29714W        W94941  32.124  16.845   2.934
29715W        W94942  40.086  20.565   3.245
29716W        W94943  23.707  28.128  14.502
29717W        W94944   0.312   6.958   4.021
29718W        W94945  40.251  32.879   0.892
29719W        W94946   2.410  12.548   4.167
29720W        W94947  18.652  42.809  13.510
29721W        W94948   4.214  11.280  11.625
29722W        W94949   5.233  28.090  14.617
29723W        W94950  28.242  29.681   2.241
29724W        W94951  37.507  44.834  13.494
29725W        W94952   2.294  34.833   4.632
29726W        W94953   0.524   4.913  14.985
29727W        W94954  26.434  35.077   0.086
29728W        W94955  15.543  44.925   0.293
29729W        W94956   4.314  13.646  13.963
29730W        W94957  14.424  14.851  12.488
29731W        W94958  23.242  12.700  12.824
29732W        W94959  24.184  24.939   2.321
29733W        W94960  38.706  22.111   0.961
29734W        W94961  25.569   6.439  14.386
29735W        W94962   5.261  31.732   1.943
29736W        W94963  38.877   1.840  14.721
29737W        W94964  19.386  35.538  14.376
29738W        W94965  11.102  22.176   1.066
29739W        W94966  16.586   0.247  12.109
29740W        W94967  39.300  30.646  13.330
29741W        W94968  41.921  18.073   3.094
29742W        W94969  11.219   9.624   4.569
29743W        W94970  16.517   7.582   0.423
29744W        W94971  23.916  32.560  11.493
29745W        W94972  13.833   9.630   2.351
29746W        W94973   5.144  16.116   4.733
29747W        W94974  27.074  25.858  12.484
29748W        W94975  44.872  43.520  13.074
29749W        W94976  17.810  27.231  12.670
29750W        W94977  15.392  21.748   2.686
29751W        W94978  43.821   4.895  14.426
29752W        W94979  26.935  24.726  11.513
29753W        W94980  35.451  40.058  12.046
29754W        W94981  25.342  15.339  12.214
29755W        W94982  15.235  26.996  10.993
29756W        W94983   6.866  19.264   4.132
29757W        W94984  26.183  40.410   3.691
29758W        W94985  22.357  10.515  14.382
29759W        W94986  32.932   6.389   2.363
29760W        W94987   8.684  14.564  14.911
29761W        W94988  32.906  13.295   0.761
29762W        W94989  19.098  16.639   4.636
29763W        W94990  22.625  44.250   3.284
29764W        W94991   7.765  34.948   1.191
29765W        W94992  43.462   0.086  14.565
29766W        W94993  24.029  41.966   1.245
29767W        W94994   1.869  29.950   0.196
29768W        W94995  34.497  43.355   4.695
29769W        W94996  15.804  37.824  13.138
29770W        W94997  24.469   3.202  12.144
29771W        W94998  28.397  25.598   0.196
29772W        W94999   5.251  22.071  13.745
29773W        W95000  28.782  13.362   2.163
29774W        W95001  27.551   7.849  12.374
29775W        W95002  14.871  23.470  10.845
29776W        W95003  21.789   3.774   1.759
29777W        W95004  38.590   1.839  11.114
29778W        W95005   6.899  20.151  13.974
29779W        W95006  15.636   3.090   0.103
29780W        W95007  27.614  16.775   1.321
29781W        W95008  42.298   3.383   0.332
29782W        W95009   4.397  34.352   3.343
29783W        W95010   2.832  18.116  13.952
29784W        W95011  11.697   4.106   2.833
29785W        W95012  41.137  44.289  13.526
29786W        W95013   4.832  25.994  13.351
29787W        W95014   4.189  38.015  13.899
29788W        W95015  32.173   1.822  14.818
29789W        W95016  20.518  10.751  13.897
29790W        W95017  39.483  21.783   2.104
29791W        W95018  34.884  32.990   2.145
29792W        W95019  34.989  40.001  12.408
29793W        W95020  20.553  28.404   0.372
29794W        W95021  28.483  16.268  10.622
29795W        W95022  43.623  41.993   3.059
29796W        W95023  40.515   4.389   4.987
29797W        W95024  43.703  12.631  12.576
29798W        W95025  20.519   7.174   0.490
29799W        W95026  39.132  43.842  12.274
29800W        W95027  33.112   6.410   4.364
29801W        W95028  25.557  21.706   2.248
29802W        W95029   4.208  21.401  11.582
29803W        W95030  16.597  12.072  14.021
29804W        W95031  11.454  18.403  13.724
29805W        W95032  40.065  41.440   3.740
29806W        W95033  38.917  20.270  10.235
29807W        W95034  14.951  23.863  10.511
29808W        W95035  44.040   6.186  13.512
29809W        W95036  23.214  17.818  12.248
29810W        W95037  25.621  12.318   4.427
29811W        W95038  19.664  35.598   1.392
29812W        W95039   9.018  14.333   0.655
29813W        W95040   6.238  23.473   3.146
29814W        W95041  19.226  27.379   2.847
29815W        W95042  44.430  25.126   0.800
29816W        W95043  36.542  29.585   1.405
29817W        W95044  11.102  35.028   0.009
29818W        W95045  24.512   2.417  14.841
29819W        W95046  26.583  36.054  14.918
29820W        W95047  14.302  10.382  13.872
29821W        W95048  16.838   5.066   1.154
29822W        W95049  24.178  33.076   3.369
29823W        W95050  20.823  16.359  10.762
29824W        W95051  31.251  39.045   2.446
29825W        W95052  38.019   7.457   1.845
29826W        W95053   5.430   1.988   2.601
29827W        W95054  20.056   5.111  11.270
29828W        W95055  32.990  14.361  12.980
29829W        W95056  33.432  21.816   2.985
29830W        W95057  23.189  43.844   2.551
29831W        W95058  41.973  14.051  13.884
29832W        W95059  22.300   8.192   1.255
29833W        W95060  16.784  13.388   0.442
29834W        W95061  32.798   8.786  10.887
29835W        W95062  40.525  43.545   4.120
29836W        W95063  14.982  13.813  13.810
29837W        W95064  43.394  44.218   3.244
29838W        W95065  16.149  42.257   4.048
29839W        W95066  13.201  41.465   2.370
29840W        W95067  26.111  43.480  14.993
29841W        W95068   3.362  41.021   1.232
29842W        W95069  37.108  20.702   4.584
29843W        W95070  21.370  32.158   4.500
29844W        W95071  25.733  27.216  13.867
29845W        W95072  28.818  26.692   9.526
29846W        W95073  22.670  10.168  13.999
29847W        W95074  31.977   0.472  14.988
29848W        W95075   3.973  25.232  13.334
29849W        W95076  24.720  31.740  10.715
29850W        W95077  27.654   1.318  11.894
29851W        W95078  36.827  24.142   1.285
29852W        W95079  16.020  31.937   3.414
29853W        W95080   3.280  15.167  13.604
29854W        W95081  13.803  25.767  12.516
29855W        W95082  20.355  16.955  13.152
29856W        W95083  13.236   7.039  12.061
29857W        W95084   6.513  19.661   4.647
29858W        W95085  22.156  37.434  12.866
29859W        W95086  39.995  10.653   3.556
29860W        W95087  16.008  16.629  13.608
29861W        W95088  30.832  33.612   0.882
29862W        W95089   9.365  17.801   2.196
29863W        W95090  13.878   3.713  14.267
29864W        W95091   4.350  28.486   4.163
29865W        W95092  32.798  23.007  11.676
29866W        W95093  16.525  11.878   3.920
29867W        W95094  25.579  10.293  11.163
29868W        W95095  30.930   0.662   0.460
29869W        W95096  11.341  35.142   2.783
29870W        W95097  39.480  29.699   2.844
29871W        W95098   5.202  40.855   0.212
29872W        W95099  17.066  38.118   4.559
29873W        W95100  18.081  11.377  11.622
29874W        W95101  29.500   9.215  13.812
29875W        W95102  24.706   4.430   3.781
29876W        W95103   7.996  14.165   5.436
29877W        W95104  24.897   1.384   2.218
29878W        W95105  30.872  35.183  14.718
29879W        W95106  16.841  11.710  14.931
29880W        W95107  28.798  38.844   2.453
29881W        W95108  11.790  35.661   0.396
29882W        W95109  31.424   2.086  14.383
29883W        W95110  19.130   0.514  12.090
29884W        W95111  31.311  37.732  14.764
29885W        W95112  36.966  34.504  14.386
29886W        W95113  27.498  13.297   0.318
29887W        W95114   9.699  43.946   4.104
29888W        W95115   8.847  36.966   4.634
29889W        W95116  40.276   1.568  12.604
29890W        W95117  19.538  30.764  13.624
29891W        W95118  41.486  34.922   2.934
29892W        W95119  17.491  37.986   0.223
29893W        W95120  36.468  40.979  11.727
29894W        W95121  35.868   1.194   4.546
29895W        W95122  20.070  43.543  13.697
29896W        W95123   3.356  19.250   1.637
29897W        W95124  41.210  26.290  12.512
29898W        W95125  30.351  11.813  10.289
29899W        W95126   1.722  24.811  10.311
29900W        W95127   2.927   1.289   0.338
29901W        W95128  13.882  21.998  14.387
29902W        W95129  39.757   8.302   1.514
29903W        W95130   1.615  14.272  14.739
29904W        W95131  14.753  43.314   4.446
29905W        W95132  12.188  37.989   2.333
29906W        W95133  19.967  28.803   4.233
29907W        W95134   7.908  28.536   1.450
29908W        W95135  38.636  43.663  12.928
29909W        W95136   9.351   6.214   4.664
29910W        W95137   4.175   4.427   0.615
29911W        W95138   8.775  43.932  11.946
29912W        W95139   5.129  26.354   1.829
29913W        W95140  28.580  34.023   0.870
29914W        W95141   7.874  30.486   3.739
29915W        W95142  18.432  37.085   3.243
29916W        W95143  21.702  39.146  11.091
29917W        W95144  41.797  24.835   0.354
29918W        W95145   9.402   4.396   4.289
29919W        W95146  19.331  36.500  11.901
29920W        W95147  27.912  26.238  12.440
29921W        W95148  39.605  17.760  11.128
29922W        W95149   4.539  40.761  10.716
29923W        W95150  11.996  15.720   2.735
29924W        W95151  40.977  27.125   0.335
29925W        W95152   6.775  11.738  10.298
29926W        W95153  18.817  43.737  10.708
29927W        W95154  40.120  27.793   1.816
29928W        W95155   2.472   7.708   2.002
29929W        W95156  30.978  14.302   2.897
29930W        W95157  44.485  35.787  12.933
29931W        W95158  24.077   2.197  12.706
29932W        W95159  44.484  30.552  12.423
29933W        W95160  17.155  26.602   0.201
29934W        W95161   3.217   3.630  11.825
29935W        W95162  36.999  27.046  14.067
29936W        W95163  27.816  43.747   0.728
29937W        W95164  30.056  40.615  13.646
29938W        W95165  20.778  35.896   1.776
29939W        W95166  15.095  32.912  14.415
29940W        W95167  43.950  36.925   1.294
29941W        W95168   4.804  31.432   3.914
29942W        W95169   9.060  18.950   4.094
29943W        W95170   6.442   3.524   1.439
29944W        W95171  23.701  19.568  14.493
29945W        W95172   4.705  13.585   1.363
29946W        W95173  32.396  14.320  12.316
29947W        W95174  23.036   5.240   2.668
29948W        W95175   1.374  23.464  13.919
29949W        W95176  20.590   2.506  13.903
29950W        W95177  21.308  21.257  13.867
29951W        W95178  32.822   4.796  13.501
29952W        W95179  11.762  42.274   1.873
29953W        W95180   1.743   3.691   3.434
29954W        W95181   0.239   9.429  12.126
29955W        W95182  25.490  32.222  13.166
29956W        W95183   9.361  14.789  13.571
29957W        W95184  19.968  25.575   1.884
29958W        W95185   4.214  41.761   1.166
29959W        W95186  19.679  39.046   1.306
29960W        W95187   9.745  18.352   2.662
29961W        W95188   7.923   0.892  13.900
29962W        W95189   4.430  36.510   0.880
29963W        W95190  30.190  25.078   4.937
29964W        W95191  35.190  41.702  13.889
29965W        W95192  34.954  29.519   4.047
29966W        W95193  30.624   9.691  12.176
29967W        W95194  25.148  38.498   4.472
29968W        W95195   7.533  24.583   3.251
29969W        W95196   1.156   0.253   2.279
29970W        W95197  32.928  32.803  11.553
29971W        W95198  33.176  14.872  12.570
29972W        W95199  23.303  17.128  13.609
29973W        W95200  19.223   7.148   4.187
29974W        W95201  32.315  25.955  11.937
29975W        W95202  42.913  33.943   1.371
29976W        W95203   6.150   6.332   1.460
29977W        W95204  14.368  24.100   3.120
29978W        W95205  40.017  42.103   0.684
29979W        W95206  24.538  26.619   4.307
29980W        W95207  43.087  31.897  10.214
29981W        W95208  16.276  16.822  14.001
29982W        W95209   8.454  19.662   3.826
29983W        W95210  25.169  33.593   4.515
29984W        W95211  30.375  32.308  12.927
29985W        W95212  15.145  41.788  14.936
29986W        W95213  38.168   4.058  10.591
29987W        W95214  25.150  26.589  14.990
29988W        W95215  34.898  35.818  11.432
29989W        W95216   4.382  17.252   3.301
29990W        W95217  18.986  40.067  14.307
29991W        W95218  40.438   6.445  10.477
29992W        W95219  14.553   0.455   3.932
29993W        W95220  39.002  18.350  13.019
29994W        W95221   2.162  30.539  13.115
29995W        W95222  23.277  15.958  11.938
29996W        W95223  42.466   8.277   3.959
29997W        W95224  33.404  12.180  14.360
29998W        W95225  15.143  37.005  14.458
29999W        W95226  36.977   3.129   1.781
30000W        W95227  17.481  23.851  14.923
30001W        W95228  22.158  40.858   0.423
30002W        W95229   5.681  42.978  10.467
30003W        W95230  31.544  15.278  12.596
30004W        W95231  30.455   2.909   1.814
30005W        W95232  28.563  29.513  11.453
30006W        W95233  19.794  10.810   4.502
30007W        W95234  26.429  28.005  14.817
30008W        W95235  15.464  35.490   0.227
30009W        W95236  21.464  27.865  11.622
30010W        W95237  17.234  34.508   3.738
30011W        W95238  22.654  40.709   0.384
30012W        W95239  19.434  16.638   2.731
30013W        W95240   6.792   4.406   4.893
30014W        W95241  36.321  32.640  13.091
30015W        W95242   7.638   0.515  13.659
30016W        W95243  41.308  30.528  11.006
30017W        W95244   9.724  26.005  11.580
30018W        W95245  23.164  36.859  14.581
30019W        W95246   4.409   4.763   1.912
30020W        W95247  21.097  25.968  14.430
30021W        W95248  14.291   7.141  14.254
30022W        W95249  38.205  41.544   0.205
30023W        W95250  25.884  42.524   2.300
30024W        W95251  33.458  41.289  14.905
30025W        W95252  31.527   0.491  11.277
30026W        W95253   4.167  14.552   3.614
30027W        W95254   9.356  43.040   1.861
30028W        W95255  25.210  21.520   1.414
30029W        W95256  31.916   7.839   4.042
30030W        W95257  13.616  41.502   1.559
30031W        W95258  31.691  24.228  14.355
30032W        W95259  30.102  40.298  14.046
30033W        W95260   2.350  22.058   1.115
30034W        W95261   1.794  44.409   0.533
30035W        W95262   8.090  12.142  13.067
30036W        W95263  14.600  13.992   1.236
30037W        W95264  36.952  30.515  14.837
30038W        W95265   1.350  33.361   3.326
30039W        W95266   4.890  15.300  12.029
30040W        W95267  39.949  37.128   2.480
30041W        W95268   0.267   5.968   3.669
30042W        W95269   0.925  40.335   4.173
30043W        W95270  22.779  26.110  13.847
30044W        W95271   5.251  32.079   0.322
30045W        W95272  22.324   6.502  10.763
30046W        W95273  19.482  13.786   0.451
30047W        W95274  18.000   9.400  14.283
30048W        W95275   5.350  18.198  11.540
30049W        W95276  14.635  17.528  12.510
30050W        W95277  14.376   3.090   3.224
30051W        W95278  10.088  30.666   2.837
30052W        W95279  26.277  27.520  11.198
30053W        W95280  21.027   7.419   4.564
30054W        W95281  30.046  41.961   1.827
30055W        W95282  24.672  34.472  13.341
30056W        W95283  44.466  26.934   2.321
30057W        W95284  38.449  15.227  12.421
30058W        W95285  28.889  27.236  12.049
30059W        W95286  30.632  26.081   3.369
30060W        W95287  40.033  33.751   2.271
30061W        W95288  34.256  35.860  11.166
30062W        W95289   1.795  36.132   2.366
30063W        W95290  32.052  11.418  11.147
30064W        W95291  43.638  12.934  13.869
30065W        W95292  14.787   3.807  12.140
30066W        W95293  17.018  10.774  12.076
30067W        W95294  31.947  34.812  13.948
30068W        W95295  16.141  19.066   3.917
30069W        W95296  20.541   5.327   0.715
30070W        W95297  29.092  24.742   2.645
30071W        W95298  23.162   0.518   0.768
30072W        W95299  39.507  40.580   1.273
30073W        W95300  42.945   6.349   2.849
30074W        W95301  26.601  27.952  11.148
30075W        W95302  37.026   1.246  12.588
30076W        W95303   9.287   5.775  13.089
30077W        W95304   6.173  29.069  12.460
30078W        W95305  22.676  32.649   0.331
30079W        W95306  33.506  12.967  13.935
30080W        W95307  27.677  38.284  12.427
30081W        W95308  23.546  37.049   2.373
30082W        W95309   0.233  39.853  12.243
30083W        W95310  43.530  41.298   1.849
30084W        W95311  12.764   1.810   4.050
30085W        W95312  40.844  17.557   1.618
30086W        W95313  39.096   4.826  13.670
30087W        W95314  19.763  31.175   0.449
30088W        W95315   3.370  13.874   4.457
30089W        W95316  34.984  29.497   1.879
30090W        W95317  15.215  34.337   0.497
30091W        W95318  36.908  25.299   2.099
30092W        W95319   6.709  23.645  10.623
30093W        W95320  41.407  40.892   4.593
30094W        W95321  36.285   5.794   4.557
30095W        W95322  43.736  42.926  11.407
30096W        W95323  44.787  41.127  11.671
30097W        W95324  14.706  31.160   1.232
30098W        W95325  44.430  29.065  13.992
30099W        W95326   5.312   2.358   0.908
30100W        W95327   1.207  16.061  10.354
30101W        W95328   1.335   8.593  13.668
30102W        W95329  29.272  22.157  13.367
30103W        W95330  23.701  33.074   2.591
30104W        W95331  19.309  18.238   3.040
30105W        W95332  21.960   6.634  14.479
30106W        W95333  18.304  34.897  12.415
30107W        W95334  18.213   5.352   3.662
30108W        W95335  44.556   4.994   0.114
30109W        W95336   0.448  29.157  12.009
30110W        W95337  38.484  33.866   1.949
30111W        W95338  31.394  30.157   2.852
30112W        W95339  12.363  23.035  10.671
30113W        W95340   4.386  36.269   3.748
30114W        W95341  44.228   1.914   0.793
30115W        W95342  37.964  36.638   3.295
30116W        W95343  27.724   7.139   4.465
30117W        W95344  22.781  39.115  11.143
30118W        W95345  36.170  27.226  11.295
30119W        W95346  14.715  13.819   2.902
30120W        W95347  11.777  23.604   3.879
30121W        W95348  40.493  13.845   3.372
30122W        W95349  32.893  18.651   0.421
30123W        W95350  28.661  37.958  11.109
30124W        W95351  23.006  22.751   2.263
30125W        W95352  27.471   7.073   3.616
30126W        W95353  41.346   9.165  11.167
30127W        W95354   1.199  24.698   3.682
30128W        W95355   6.985   9.258  12.648
30129W        W95356   1.747  17.491  14.407
30130W        W95357  27.679  33.003   3.985
30131W        W95358  24.675  33.874  14.105
30132W        W95359   1.700  30.956   0.790
30133W        W95360  28.189   7.294   2.802
30134W        W95361  11.253  38.826  11.429
30135W        W95362  30.908   9.738   4.776
30136W        W95363  17.729  42.786   0.324
30137W        W95364  39.303   2.742   3.168
30138W        W95365  21.125  11.900   4.730
30139W        W95366  26.973  34.286  12.418
30140W        W95367   4.442  31.405  14.730
30141W        W95368  38.310  25.002   3.272
30142W        W95369   7.980  15.640  13.906
30143W        W95370  44.776  41.008   0.780
30144W        W95371   5.259  32.404  10.798
30145W        W95372   3.130   8.833  12.425
30146W        W95373   4.270  35.018   0.816
30147W        W95374  10.733   7.393  10.451
30148W        W95375  16.786   5.354   0.705
30149W        W95376  26.085  12.277   4.109
30150W        W95377   8.428  41.339  11.443
30151W        W95378  23.997  29.424  13.815
30152W        W95379  40.780  13.520   3.679
30153W        W95380   4.715  23.907   4.482
30154W        W95381  28.220  36.447   1.379
30155W        W95382  35.533  43.375   3.590
30156W        W95383  22.690  28.908  13.030
30157W        W95384  37.846  25.488  11.143
30158W        W95385  26.283  37.722   2.211
30159W        W95386   3.354   6.233  14.858
30160W        W95387  10.197  14.815   2.946
30161W        W95388  23.016  25.115  14.892
30162W        W95389  26.767  25.208  10.399
30163W        W95390  35.452   1.798   4.224
30164W        W95391  25.767  30.940   1.891
30165W        W95392  25.653  25.409   2.249
30166W        W95393  14.894  34.595  14.316
30167W        W95394  33.515   6.754   0.920
30168W        W95395  21.773  43.021  14.863
30169W        W95396  40.928  38.336   0.543
30170W        W95397  34.395  24.079  10.952
30171W        W95398  28.842  37.524   1.691
30172W        W95399  33.768  35.536   2.206
30173W        W95400   4.496  25.966  11.056
30174W        W95401  34.030  41.772   2.529
30175W        W95402  32.477  16.515  10.714
30176W        W95403  14.203  33.701  13.467
30177W        W95404  41.967  15.562  11.345
30178W        W95405   4.901  28.266   2.156
30179W        W95406  22.927   9.910  12.044
30180W        W95407  23.658  35.317  11.148
30181W        W95408  19.516  35.951   3.364
30182W        W95409  18.063  21.668   1.687
30183W        W95410  32.213   3.968  12.876
30184W        W95411  27.215  29.973  12.406
30185W        W95412   6.733  27.190   1.886
30186W        W95413  33.613  26.383  10.367
30187W        W95414  27.807  23.537   4.346
30188W        W95415  32.464  28.276   4.474
30189W        W95416  27.456   4.905   0.930
30190W        W95417  20.970  21.959  12.508
30191W        W95418  27.698  32.284   2.082
30192W        W95419  30.173  40.878   0.927
30193W        W95420  43.979  26.168   4.798
30194W        W95421  31.039  29.539   0.710
30195W        W95422  17.595   7.534  13.571
30196W        W95423  12.382  14.638  13.982
30197W        W95424  20.983  28.117  14.852
30198W        W95425  23.499  12.195  14.454
30199W        W95426   5.538   6.627   2.861
30200W        W95427   2.144  27.207  12.022
30201W        W95428  29.946  10.228   1.888
30202W        W95429  21.276  37.444  12.923
30203W        W95430  15.129  43.186   1.137
30204W        W95431  21.982  10.955   2.323
30205W        W95432   1.788  34.126   1.225
30206W        W95433  44.464  13.811   4.852
30207W        W95434  16.107  32.516   1.686
30208W        W95435   2.451  34.511   0.984
30209W        W95436  43.897  22.981  14.763
30210W        W95437  14.786   7.790   3.781
30211W        W95438  21.781   2.079  14.489
30212W        W95439  16.849  21.144   4.043
30213W        W95440   2.491  25.097   0.692
30214W        W95441   8.853  35.015  12.154
30215W        W95442  18.302  37.827   2.683
30216W        W95443  25.101  10.405   0.831
30217W        W95444  32.939  34.287   2.767
30218W        W95445  33.607  41.313   3.689
30219W        W95446  39.828   8.829  13.842
30220W        W95447  39.279   9.381  12.102
30221W        W95448  43.365  17.694   2.807
30222W        W95449  44.614  33.998  11.418
30223W        W95450   9.890  13.822   2.792
30224W        W95451  30.187  37.792   0.232
30225W        W95452  24.506  32.170   1.073
30226W        W95453  21.839  40.487   3.687
30227W        W95454  22.767  10.634   4.260
30228W        W95455  23.273   7.201   4.819
30229W        W95456  30.625  22.013  14.008
30230W        W95457  24.055  20.170   2.286
30231W        W95458  14.684  38.232   2.776
30232W        W95459  12.172  33.946   4.561
30233W        W95460   9.934  29.147   1.878
30234W        W95461  22.541  42.572  11.545
30235W        W95462  12.516  38.412  11.982
30236W        W95463   4.954  12.134  14.924
30237W        W95464  42.301  37.011  13.043
30238W        W95465  17.852  25.163   2.726
30239W        W95466   2.331   3.278   4.910
30240W        W95467  11.315  39.841  12.561
30241W        W95468  43.770  26.049  13.491
30242W        W95469  32.889  20.498  12.984
30243W        W95470  21.383  20.437   5.043
30244W        W95471   1.797   5.072   4.770
30245W        W95472   9.259   5.653  13.574
30246W        W95473   4.232   9.735   0.907
30247W        W95474  44.498   4.978   4.918
30248W        W95475  36.976  37.947  11.223
30249W        W95476   5.853  43.850  12.486
30250W        W95477  29.989  40.866   4.220
30251W        W95478  10.649  41.069  14.481
30252W        W95479  43.251   7.202   2.716
30253W        W95480  33.433  10.003  12.914
30254W        W95481   9.832  42.786   1.834
30255W        W95482  35.272  33.472   0.988
30256W        W95483  11.391  40.791  13.536
30257W        W95484  19.226  37.484  13.946
30258W        W95485  18.741  13.801  10.864
30259W        W95486  36.542  20.578  13.967
30260W        W95487  40.533  32.577  11.166
30261W        W95488   9.431  37.770  14.912
30262W        W95489   4.728   1.015   1.258
30263W        W95490  14.382   5.663  11.166
30264W        W95491  23.669  29.056  13.057
30265W        W95492  11.014  10.676   1.394
30266W        W95493   6.237  42.564   0.393
30267W        W95494  38.563  27.515  14.722
30268W        W95495  44.237  37.049  11.178
30269W        W95496  17.558   9.237  10.527
30270W        W95497  34.855  30.511  10.518
30271W        W95498   0.867  23.367   4.575
30272W        W95499  23.156   1.378   2.671
30273W        W95500   2.531  39.111  14.499
30274W        W95501  15.851  40.855   2.648
30275W        W95502  41.868   6.255  11.675
30276W        W95503  32.245  38.967  14.507
30277W        W95504  22.294  20.279  12.582
30278W        W95505  25.600  24.496  12.629
30279W        W95506   0.708  42.775  12.446
30280W        W95507  11.152  34.310   2.551
30281W        W95508   7.523   3.952  13.600
30282W        W95509  24.248  38.940   4.494
30283W        W95510  41.901  10.451   0.547
30284W        W95511  27.743  31.162  12.807
30285W        W95512   7.853  29.269   4.582
30286W        W95513  36.743  29.872   3.771
30287W        W95514  10.518   8.874   5.106
30288W        W95515  27.687  16.015   4.084
30289W        W95516  12.682   0.929   4.539
30290W        W95517   6.966  11.677  12.342
30291W        W95518   1.765  21.821  13.929
30292W        W95519   5.866   5.205   2.867
30293W        W95520   1.255  20.333   3.119
30294W        W95521  11.115  28.686   1.221
30295W        W95522   4.722   6.959   0.535
30296W        W95523  21.217  17.809  14.030
30297W        W95524   5.831  38.379   2.374
30298W        W95525   5.502  35.395   4.204
30299W        W95526  12.623  24.568   4.261
30300W        W95527  44.320  13.253  13.074
30301W        W95528  21.023  29.178   1.723
30302W        W95529  25.006  38.542   0.645
30303W        W95530  26.023  23.225  10.646
30304W        W95531  34.064  18.892  13.511
30305W        W95532  29.102  44.876  12.113
30306W        W95533  15.669  14.079   0.528
30307W        W95534  20.619   4.522  12.057
30308W        W95535  32.516   3.491   3.917
30309W        W95536  37.759  16.273  13.933
30310W        W95537  34.051  37.618   1.236
30311W        W95538  20.280  24.139   0.219
30312W        W95539   6.565  19.735  11.591
30313W        W95540  40.223  14.685   2.580
30314W        W95541   8.278  20.081  14.912
30315W        W95542   2.477  28.949   4.980
30316W        W95543  34.037   2.681   0.312
30317W        W95544  15.855  17.121   3.806
30318W        W95545  40.691  15.663   2.628
30319W        W95546   0.894  39.274   0.768
30320W        W95547   0.164  20.572  12.120
30321W        W95548  44.525   9.301   2.365
30322W        W95549  29.056  24.922  11.983
30323W        W95550  22.404  25.076  13.236
30324W        W95551   5.309  44.558   0.013
30325W        W95552   5.650  18.104  11.131
30326W        W95553  25.136  19.746  11.102
30327W        W95554  12.192  15.868  14.486
30328W        W95555  43.104  11.579   2.120
30329W        W95556  40.314  38.386  14.976
30330W        W95557  10.619  23.123   2.314
30331W        W95558   0.929  26.609   2.607
30332W        W95559  18.252   7.807  14.366
30333W        W95560  25.030  27.421   0.254
30334W        W95561  15.279   1.987   2.922
30335W        W95562   9.836  39.094   1.333
30336W        W95563   0.723  11.082   4.128
30337W        W95564  29.101  17.138   0.475
30338W        W95565  12.044  20.373  14.750
30339W        W95566  10.224  35.134  12.183
30340W        W95567  26.100  29.707   2.769
30341W        W95568  42.071  39.330   3.522
30342W        W95569  42.840  39.718  10.848
30343W        W95570  20.947  34.674  11.665
30344W        W95571  22.524  25.969   1.765
30345W        W95572  18.679   5.459   3.912
30346W        W95573  25.591  37.248   4.795
30347W        W95574  19.985   1.973   4.021
30348W        W95575  26.825  11.141  11.953
30349W        W95576  20.127  11.111   4.203
30350W        W95577   7.297  27.955   4.409
30351W        W95578   9.821  19.869   2.849
30352W        W95579   8.098   2.237  13.562
30353W        W95580  35.684  37.812  12.950
30354W        W95581  41.636  12.350  14.008
30355W        W95582   4.358  25.583  13.338
30356W        W95583   9.390  17.706   4.121
30357W        W95584  14.873  14.166   0.753
30358W        W95585  37.803   2.854   2.792
30359W        W95586  12.199  18.064  10.568
30360W        W95587   3.783  23.505   2.612
30361W        W95588  32.053  31.243   0.281
30362W        W95589  44.397   7.163  12.864
30363W        W95590  35.430  22.641  12.093
30364W        W95591   0.362   8.008  14.916
30365W        W95592   8.193  12.653  10.442
30366W        W95593  18.847  27.712   2.692
30367W        W95594  20.771  43.398   0.911
30368W        W95595  42.874  44.785  11.997
30369W        W95596  37.462   6.984   1.438
30370W        W95597   3.053  18.082  14.485
30371W        W95598   4.893  32.634  13.781
30372W        W95599  18.789  11.836  14.843
30373W        W95600  22.840   3.367  14.826
30374W        W95601   1.283  30.988  13.844
30375W        W95602  18.235  21.128  12.211
30376W        W95603  24.027  27.939  13.596
30377W        W95604  15.825  14.339   2.784
30378W        W95605  16.507  17.216   0.405
30379W        W95606  11.866   5.966  11.000
30380W        W95607  39.809  25.601   2.217
30381W        W95608  30.016  24.006  10.830
30382W        W95609  11.611  36.878  10.721
30383W        W95610   1.715  30.581  11.791
30384W        W95611  24.314  14.756   2.199
30385W        W95612  12.320  13.745   4.446
30386W        W95613  18.710  43.717   2.457
30387W        W95614  14.866  40.924   0.580
30388W        W95615  32.011  19.113   0.906
30389W        W95616  24.435  38.661  13.870
30390W        W95617   0.608  22.827   4.125
30391W        W95618  12.767  41.588  13.909
30392W        W95619  43.337   1.756  14.400
30393W        W95620   3.793  19.531   4.582
30394W        W95621  23.962  28.392   1.882
30395W        W95622  19.636  37.230  13.761
30396W        W95623  17.075  35.869   1.004
30397W        W95624  24.400  32.497  11.312
30398W        W95625  42.348  29.070   2.154
30399W        W95626  10.989  22.435  13.326
30400W        W95627  28.301  34.390   1.644
30401W        W95628  37.442  19.304  13.590
30402W        W95629   7.670  24.469  13.437
30403W        W95630  28.989  38.386  11.190
30404W        W95631   1.018  37.268   0.917
30405W        W95632  34.172   9.004  14.292
30406W        W95633  30.860  20.495  14.785
30407W        W95634  41.738  41.326  11.720
30408W        W95635  28.381  28.383  11.000
30409W        W95636  38.569  37.806   1.759
30410W        W95637  42.294   9.216   4.523
30411W        W95638   2.708   1.406   4.540
30412W        W95639  15.813  27.472   1.816
30413W        W95640  11.192  15.752   3.741
30414W        W95641  16.338   9.487   3.118
30415W        W95642   8.128  13.391  13.966
30416W        W95643  38.498  29.700   4.611
30417W        W95644  13.505  10.660  10.763
30418W        W95645   8.738  34.562  13.674
30419W        W95646  42.492  14.464  12.905
30420W        W95647   0.046  38.863   4.309
30421W        W95648   5.796   9.435  10.696
30422W        W95649  38.950  37.546  13.243
30423W        W95650  10.733  31.436   2.749
30424W        W95651  39.957  35.533  14.325
30425W        W95652  11.748  12.842  10.587
30426W        W95653  31.290   8.800   3.747
30427W        W95654  15.604  40.359  12.066
30428W        W95655  10.214  20.167   3.697
30429W        W95656  39.466  14.342   1.437
30430W        W95657  10.089  37.018   5.141
30431W        W95658  13.144  15.175  13.267
30432W        W95659  36.050  10.541   0.841
30433W        W95660  24.671  33.861  14.959
30434W        W95661  33.697  29.645   0.108
30435W        W95662  13.593   0.261   0.937
30436W        W95663  32.682  33.842   2.887
30437W        W95664  17.654  42.933  13.125
30438W        W95665   3.804   0.078  12.852
30439W        W95666  20.804  40.380   0.894
30440W        W95667   2.640  17.611  12.592
30441W        W95668  26.983  27.457   2.796
30442W        W95669  20.351  31.409   2.668
30443W        W95670  21.543  29.770  14.719
30444W        W95671  26.249  44.911   4.061
30445W        W95672  22.277  43.106   2.720
30446W        W95673  40.024  33.390  12.974
30447W        W95674  38.578  12.693   2.271
30448W        W95675  19.696  39.368   2.719
30449W        W95676  15.216  18.220  14.884
30450W        W95677  17.299  23.891  12.507
30451W        W95678  29.224  44.209   1.927
30452W        W95679  28.789   1.078  14.358
30453W        W95680  38.319   0.202   0.305
30454W        W95681  15.066  36.380   3.930
30455W        W95682  10.535  37.583  12.560
30456W        W95683  41.685  42.386   0.915
30457W        W95684  10.558   1.235   4.846
30458W        W95685  30.695   8.258   4.803
30459W        W95686  33.591  17.252   2.750
30460W        W95687  33.535  11.744  14.880
30461W        W95688  36.795  15.525  14.760
30462W        W95689  28.812  11.242   0.319
30463W        W95690   7.751  12.442   2.835
30464W        W95691  27.441   4.378   2.632
30465W        W95692  19.277  21.224  11.634
30466W        W95693   7.664   4.191  12.078
30467W        W95694  42.753  40.420   2.030
30468W        W95695   4.813   9.195  14.944
30469W        W95696   9.980  21.347  11.101
30470W        W95697   3.493  30.570   0.828
30471W        W95698  23.233  27.495  13.902
30472W        W95699  13.401   9.558   3.267
30473W        W95700  34.507   3.137  12.077
30474W        W95701  33.952  10.421  13.481
30475W        W95702  22.798  16.961  12.380
30476W        W95703  34.623  38.195   2.314
30477W        W95704   2.004  29.176   3.176
30478W        W95705  13.118  41.071   1.421
30479W        W95706  21.996  15.731   2.132
30480W        W95707   8.706  18.615   1.823
30481W        W95708  20.076  28.521   0.134
30482W        W95709  28.093   8.670  11.323
30483W        W95710   7.083  31.413   1.676
30484W        W95711  39.003  10.759  12.958
30485W        W95712  16.774  10.743   3.650
30486W        W95713  26.280  44.319  13.361
30487W        W95714  40.306   7.728  12.670
30488W        W95715  26.120  31.478   4.184
30489W        W95716  40.266  35.393  11.031
30490W        W95717  18.210  38.184  11.196
30491W        W95718  22.183  21.480  12.960
30492W        W95719  41.763  28.463  10.828
30493W        W95720   3.293  22.169  11.055
30494W        W95721   3.070  40.442   3.269
30495W        W95722  26.280   1.332  12.395
30496W        W95723   5.836  17.065   2.549
30497W        W95724   0.601  39.078   2.283
30498W        W95725   3.678   0.866  10.260
30499W        W95726   8.153  29.966   0.696
30500W        W95727  17.679  30.085  13.953
30501W        W95728  31.984  36.312   4.029
30502W        W95729   6.897   1.722   3.340
30503W        W95730   8.852  12.692  14.948
30504W        W95731  42.767  32.071   4.827
30505W        W95732  29.291  32.088   0.305
30506W        W95733  22.462   2.772  11.636
30507W        W95734  15.674  35.814   2.265
30508W        W95735  20.780  40.824   2.292
30509W        W95736  25.721  27.164   1.386
30510W        W95737   7.764  40.072  13.997
30511W        W95738  42.421   3.883  13.140
30512W        W95739  33.234  30.183  13.349
30513W        W95740  20.551  42.382  12.495
30514W        W95741  12.169  28.589   1.414
30515W        W95742  10.728   6.681   3.196
30516W        W95743  41.767  17.834  13.071
30517W        W95744   8.106   3.777  11.059
30518W        W95745  29.135   1.458  13.075
30519W        W95746  35.457  32.846   1.744
30520W        W95747  29.751  41.837   0.266
30521W        W95748  24.942  30.591   4.405
30522W        W95749  14.133  20.082  11.944
30523W        W95750  11.821  10.673  13.412
30524W        W95751  21.036  29.172  14.354
30525W        W95752  30.397  24.407  10.103
30526W        W95753  26.251  16.583   2.366
30527W        W95754   6.300   8.370   4.665
30528W        W95755  33.119  23.041  14.330
30529W        W95756   1.234  41.820   2.687
30530W        W95757   5.843  22.952  14.938
30531W        W95758  26.001  37.248   4.009
30532W        W95759   6.118  40.422   2.152
30533W        W95760  33.798  12.583  11.661
30534W        W95761  10.346   4.468  12.415
30535W        W95762  12.586   4.205   3.851
30536W        W95763   9.781   5.453  11.982
30537W        W95764  39.798  20.148   0.407
30538W        W95765  25.586  30.451   3.773
30539W        W95766   6.771  38.030  13.166
30540W        W95767   5.062   7.053   4.227
30541W        W95768  19.031  43.230  10.746
30542W        W95769  25.247  28.357   3.069
30543W        W95770   8.675  42.404  11.016
30544W        W95771  44.436  22.911  14.995
30545W        W95772  34.539  16.306  13.310
30546W        W95773  21.224  36.844   1.856
30547W        W95774  39.451  29.553  11.506
30548W        W95775  31.043  43.248  12.108
30549W        W95776  36.504  27.788   0.612
30550W        W95777  30.164  17.548   4.567
30551W        W95778  33.780  10.458  14.161
30552W        W95779  18.634  29.056  11.345
30553W        W95780  23.249  22.489  12.622
30554W        W95781  44.144  14.589   4.873
30555W        W95782  33.449  34.398  13.394
30556W        W95783  34.894   3.312  13.026
30557W        W95784  23.288  12.229  13.544
30558W        W95785  24.010  37.609   0.918
30559W        W95786  27.644  43.673  12.485
30560W        W95787  43.010  34.033  12.377
30561W        W95788  37.765   4.834  12.094
30562W        W95789  24.271  17.832   2.129
30563W        W95790  20.110  27.104  14.452
30564W        W95791  23.859  30.717  12.502
30565W        W95792  29.186  20.045  12.500
30566W        W95793   0.013   2.986  14.743
30567W        W95794  40.029  14.385  11.514
30568W        W95795  35.904  36.276  13.852
30569W        W95796  10.704  22.704  12.973
30570W        W95797  43.016   7.424   3.572
30571W        W95798  37.485  42.795   1.897
30572W        W95799   3.800  28.778  13.418
30573W        W95800   1.889   4.479  11.179
30574W        W95801  30.901   4.238   2.322
30575W        W95802  22.976   7.923   2.795
30576W        W95803  18.638  30.365   0.117
30577W        W95804  22.992   2.883  11.578
30578W        W95805   9.864  34.484   1.913
30579W        W95806  35.053   4.467   2.147
30580W        W95807  31.938   2.399  14.122
30581W        W95808  37.879  10.166   2.063
30582W        W95809  36.697  37.116   4.118
30583W        W95810  28.953  14.531   4.129
30584W        W95811  28.662  37.035  11.395
30585W        W95812   2.467   9.536   0.257
30586W        W95813   1.471  43.401  14.997
30587W        W95814   1.467  22.335   4.074
30588W        W95815  35.574  23.120   3.250
30589W        W95816  26.015  28.517  13.385
30590W        W95817  44.869  32.225   3.628
30591W        W95818  25.600  11.591   3.849
30592W        W95819  13.681  33.314   2.603
30593W        W95820  37.208  32.122  13.092
30594W        W95821  14.165  15.829  10.754
30595W        W95822   1.509  21.621  13.432
30596W        W95823  23.642  22.787   4.233
30597W        W95824  15.975  10.205   5.163
30598W        W95825  35.555   1.744  11.077
30599W        W95826   0.571  33.620   4.472
30600W        W95827  14.833   0.328  10.726
30601W        W95828   4.726  16.195   4.430
30602W        W95829  43.946  37.997  11.098
30603W        W95830  38.382  15.754   2.868
30604W        W95831  22.706   9.138   4.327
30605W        W95832  36.281  43.922   1.398
30606W        W95833  24.822  21.417  12.115
30607W        W95834  36.965  39.897  14.850
30608W        W95835  19.997  39.355  13.640
30609W        W95836  11.116  31.069  11.010
30610W        W95837  18.504  37.614   3.238
30611W        W95838  14.078  38.276   3.581
30612W        W95839  39.471  41.567  11.226
30613W        W95840  32.693  29.738   3.380
30614W        W95841  17.132  26.488   0.691
30615W        W95842  35.078   3.008  13.885
30616W        W95843  31.150  28.573   0.769
30617W        W95844  16.292  41.534  14.476
30618W        W95845  44.522   5.381  13.856
30619W        W95846  35.534  26.190  13.897
30620W        W95847  13.224  37.314   3.962
30621W        W95848  21.747  26.745  12.029
30622W        W95849  32.443   9.641   0.381
30623W        W95850   6.044  28.665   4.273
30624W        W95851  14.177  39.334  13.083
30625W        W95852  44.253  32.970   2.957
30626W        W95853  40.635   1.135   5.078
30627W        W95854  26.696   2.925   3.768
30628W        W95855   7.850  21.589   4.660
30629W        W95856   3.402  14.195  14.512
30630W        W95857  19.962  30.534   0.806
30631W        W95858  37.257  22.228   1.112
30632W        W95859  28.442  29.933  14.940
30633W        W95860  37.343  10.103   2.363
30634W        W95861  33.038  26.101   3.272
30635W        W95862  44.740  22.309  11.760
30636W        W95863  12.708  25.698   3.656
30637W        W95864   2.319  13.745   4.258
30638W        W95865  15.734  39.713   0.374
30639W        W95866  14.319  12.176   1.776
30640W        W95867   9.158  24.450  11.137
30641W        W95868   5.658  15.150  13.324
30642W        W95869  34.902  10.152   0.513
30643W        W95870  30.949  36.361  13.784
30644W        W95871  38.344  36.188   0.873
30645W        W95872  35.870  29.242   1.842
30646W        W95873  17.757   0.140   1.429
30647W        W95874  24.133  40.854  12.441
30648W        W95875  35.868  24.725   0.369
30649W        W95876  26.733  16.708  14.000
30650W        W95877  32.000  32.297  14.220
30651W        W95878  21.628  44.816  13.501
30652W        W95879  27.600   7.291  13.054
30653W        W95880  39.887  40.288   2.263
30654W        W95881  35.024  37.113   3.590
30655W        W95882  39.604   1.559  13.433
30656W        W95883  41.686  22.529   0.261
30657W        W95884   5.878  41.287  12.533
30658W        W95885  27.112   4.678   4.459
30659W        W95886  21.534   9.867   1.270
30660W        W95887  42.337  44.206   3.249
30661W        W95888   2.380   7.744   5.098
30662W        W95889  22.951  39.569   0.293
30663W        W95890  37.606  21.255   9.940
30664W        W95891  26.203  33.624   0.549
30665W        W95892   9.389   7.115  14.534
30666W        W95893  38.553  33.399  11.502
30667W        W95894  43.851  21.762  11.964
30668W        W95895  26.071  18.169  13.219
30669W        W95896  15.204  44.433  12.574
30670W        W95897  11.661  26.586  10.780
30671W        W95898  30.357   9.715   9.811
30672W        W95899   3.226  40.325  14.098
30673W        W95900  21.624   9.897  13.558
30674W        W95901  23.084  12.393   1.676
30675W        W95902   5.034  34.649   1.956
30676W        W95903   9.832  20.453   1.697
30677W        W95904  39.220  36.001   0.445
30678W        W95905  12.830  24.621  11.102
30679W        W95906  44.995  10.578  13.346
30680W        W95907  35.666  20.292   1.672
30681W        W95908  39.440  44.273   3.553
30682W        W95909  38.823  23.739  11.271
30683W        W95910  16.214  35.530  14.427
30684W        W95911  29.063  16.826  10.601
30685W        W95912  39.277   6.949  11.320
30686W        W95913  15.780  18.544  12.807
30687W        W95914  20.632  40.923  11.041
30688W        W95915  30.483  43.477   4.735
30689W        W95916  39.984  31.522   3.734
30690W        W95917   5.427  41.710   3.711
30691W        W95918   1.264  38.337  14.073
30692W        W95919  16.345  26.907   0.800
30693W        W95920   4.784  14.962   0.389
30694W        W95921   7.130  26.873  14.536
30695W        W95922  12.354  35.514  13.019
30696W        W95923  30.733  13.671   0.475
30697W        W95924  26.569   4.927  14.528
30698W        W95925  34.018  25.078   0.133
30699W        W95926   8.166  27.040   2.322
30700W        W95927   0.179   7.646  11.572
30701W        W95928  18.499  11.079   0.244
30702W        W95929  44.390  30.107   2.334
30703W        W95930  30.905   4.930   3.385
30704W        W95931  32.102   5.896  12.948
30705W        W95932  42.634  12.230   4.671
30706W        W95933  22.708   3.305   3.748
30707W        W95934  12.128   4.856   0.274
30708W        W95935  17.432  40.012  14.079
30709W        W95936  17.161   6.737  10.663
30710W        W95937  18.820  11.361  13.896
30711W        W95938  15.422  16.977  11.049
30712W        W95939   2.795  20.644  14.981
30713W        W95940  27.003  24.082   2.088
30714W        W95941  42.809   0.927  10.840
30715W        W95942  30.661   8.459   1.698
30716W        W95943  33.561   9.903  10.766
30717W        W95944  30.852  24.671  14.365
30718W        W95945  35.480  13.381   1.200
30719W        W95946  27.184  42.890  11.630
30720W        W95947  29.659  44.385  12.636
30721W        W95948   7.272   2.942  14.897
30722W        W95949  22.485  22.687  12.987
30723W        W95950  18.092  23.293   1.382
30724W        W95951  14.213  29.596  12.011
30725W        W95952   2.400   6.071  11.320
30726W        W95953  42.713   7.270  13.923
30727W        W95954  28.234  10.251  11.558
30728W        W95955  23.028   2.864  12.959
30729W        W95956  38.031  21.094  10.768
30730W        W95957  21.978  20.227  10.941
30731W        W95958  38.922  14.905   4.202
30732W        W95959  17.446   0.122  14.375
30733W        W95960  39.930  21.586  14.926
30734W        W95961   2.376  12.281   2.726
30735W        W95962  31.413  11.282  13.097
30736W        W95963  23.679  33.896   4.785
30737W        W95964  21.597  29.287  14.921
30738W        W95965   7.897  27.078  13.487
30739W        W95966  19.552  21.608  10.783
30740W        W95967  12.780  17.188  10.934
30741W        W95968  32.522  16.109  12.622
30742W        W95969  30.710  28.665  13.557
30743W        W95970   5.406   2.972  14.914
30744W        W95971  19.666   4.224  13.375
30745W        W95972  20.364  36.084   3.638
30746W        W95973  24.007  31.090   4.599
30747W        W95974  18.504  36.282   0.288
30748W        W95975  16.096   7.279   3.322
30749W        W95976   2.860  23.702  14.489
30750W        W95977  20.317  36.911  11.154
30751W        W95978  20.899   6.431  13.929
30752W        W95979  21.996  39.248  12.475
30753W        W95980  11.787  43.445  14.935
30754W        W95981  37.082  27.924   0.796
30755W        W95982  35.344  24.678   3.605
30756W        W95983  43.961   0.389   1.368
30757W        W95984  20.144  25.376   3.651
30758W        W95985   7.143  31.092   4.829
30759W        W95986  28.352   1.985   1.781
30760W        W95987  37.438  16.266   3.742
30761W        W95988   4.830  35.990   4.698
30762W        W95989  16.986  25.206   4.965
30763W        W95990  32.152  38.969   0.335
30764W        W95991  27.652  36.196   3.769
30765W        W95992   5.916   8.227  14.061
30766W        W95993  27.371  21.058  14.061
30767W        W95994  14.744  32.336  13.620
30768W        W95995  25.493  29.021   0.075
30769W        W95996   8.216  41.570   3.672
30770W        W95997  32.404   5.376   4.577
30771W        W95998   9.243   9.924   0.273
30772W        W95999  36.277  43.764   3.925
30773W        W96000  30.236  13.271   2.333
30774W        W96001  36.125  14.128   1.449
30775W        W96002  43.254   9.800   3.349
30776W        W96003  14.753  10.416   0.157
30777W        W96004  28.722  10.821   1.864
30778W        W96005   1.620  34.609   1.392
30779W        W96006   6.364  33.578   2.126
30780W        W96007  19.180   9.186   2.926
30781W        W96008  35.551  40.290  11.566
30782W        W96009  17.514  26.692  11.646
30783W        W96010  29.865  41.289   0.848
30784W        W96011   0.789   0.351   1.317
30785W        W96012  36.995  33.478   3.054
30786W        W96013  31.988  25.007  11.675
30787W        W96014  34.486  34.024   4.473
30788W        W96015  33.613  36.449   3.181
30789W        W96016  29.443  34.836  12.893
30790W        W96017  39.372  19.563  14.511
30791W        W96018  43.813  30.282  13.906
30792W        W96019  34.523  44.896   1.914
30793W        W96020  21.272  31.886   4.903
30794W        W96021   6.331   2.814  12.815
30795W        W96022  39.814  36.760   1.952
30796W        W96023  31.047  32.698   0.734
30797W        W96024  41.840  17.623   2.859
30798W        W96025  30.824  17.380  13.896
30799W        W96026  31.589  41.781   1.950
30800W        W96027  23.729   6.799   3.220
30801W        W96028   4.393  27.593   5.449
30802W        W96029  17.142  18.119   3.749
30803W        W96030  10.598  11.301   2.701
30804W        W96031  38.348  21.665  13.357
30805W        W96032  31.212   6.263  13.604
30806W        W96033  17.614  31.468   2.664
30807W        W96034  29.697  14.506  11.030
30808W        W96035  19.843  38.470  13.283
30809W        W96036  23.695  29.083   2.592
30810W        W96037  15.008   4.150  13.819
30811W        W96038   8.438  16.377  12.246
30812W        W96039   0.127   4.814   2.291
30813W        W96040  38.033  16.536  13.548
30814W        W96041  12.741  35.765  11.140
30815W        W96042  12.054  39.980   2.434
30816W        W96043  14.877   4.728  12.048
30817W        W96044  34.586  41.995   3.333
30818W        W96045  41.365  20.303   3.204
30819W        W96046  13.848   4.797  13.376
30820W        W96047  24.705  35.426   1.201
30821W        W96048  31.011  33.702  12.304
30822W        W96049  44.557  13.524   2.189
30823W        W96050   5.812  29.462   0.187
30824W        W96051  11.290   2.660   2.583
30825W        W96052  32.525  41.963  13.407
30826W        W96053  31.908  20.364  10.977
30827W        W96054   2.212  12.781  12.018
30828W        W96055   0.558  43.856   0.272
30829W        W96056  31.679  13.952  13.863
30830W        W96057  34.163  10.206  13.925
30831W        W96058  14.822   1.968   3.159
30832W        W96059  15.269  20.987  10.700
30833W        W96060  42.715  12.720  12.613
30834W        W96061   4.432   9.883  11.398
30835W        W96062  35.825  43.106  13.012
30836W        W96063  24.226  42.136  13.084
30837W        W96064  43.762   0.386  12.659
30838W        W96065  22.309  40.946   2.357
30839W        W96066   2.334  12.135  10.990
30840W        W96067   1.844  10.857   0.167
30841W        W96068   4.744  43.540   1.384
30842W        W96069  16.105  20.615   4.061
30843W        W96070  25.909  22.517   3.767
30844W        W96071  28.167  33.197   0.018
30845W        W96072  10.755  22.074  12.324
30846W        W96073  25.891  10.598  12.118
30847W        W96074  23.626  40.919  12.376
30848W        W96075  27.884  39.290  11.756
30849W        W96076  44.866   8.319  12.218
30850W        W96077  10.165  23.037   4.746
30851W        W96078  16.350  12.818  10.972
30852W        W96079   8.494   8.644  13.996
30853W        W96080  35.935   4.022   1.232
30854W        W96081   4.466  19.012   3.792
30855W        W96082  36.819  18.190  13.883
30856W        W96083  24.645  36.964   0.926
30857W        W96084  31.922  24.049  10.699
30858W        W96085  44.817  24.666   2.767
30859W        W96086  42.988  43.348  11.701
30860W        W96087   6.947   4.217  11.257
30861W        W96088   8.905  11.977   2.841
30862W        W96089   5.169  11.298   3.272
30863W        W96090  10.394  24.461  14.685
30864W        W96091   0.968  20.752   3.216
30865W        W96092  13.254  30.110   4.067
30866W        W96093   1.893  24.153  13.017
30867W        W96094   4.186  29.447  14.438
30868W        W96095  43.047  34.438  12.062
30869W        W96096  39.537  19.099   4.504
30870W        W96097  38.343  20.826  12.829
30871W        W96098  43.938   2.104   2.039
30872W        W96099  17.692  16.855   3.580
30873W        W96100  44.459   5.415  13.324
30874W        W96101  26.258  37.979  10.702
30875W        W96102  15.179  29.155  14.047
30876W        W96103  38.951  32.062  11.231
30877W        W96104  17.682   8.648  11.681
30878W        W96105  19.062  41.976  12.894
30879W        W96106  28.916  34.620  14.789
30880W        W96107  13.792  12.367  14.666
30881W        W96108  25.353   5.337  11.120
30882W        W96109  35.561   3.709  10.974
30883W        W96110   3.868  19.832   0.028
30884W        W96111  22.700  35.418  12.505
30885W        W96112  20.622  22.180   1.301
30886W        W96113  41.952   1.611  12.236
30887W        W96114  12.831  16.519  11.057
30888W        W96115  34.994  28.980   1.968
30889W        W96116  27.415  36.328  12.373
30890W        W96117  10.201   6.216   4.094
30891W        W96118  28.700  15.440   2.150
30892W        W96119  11.733   9.370   4.338
30893W        W96120  42.409  24.096   2.862
30894W        W96121  28.516  38.257   0.929
30895W        W96122  42.561  17.289   4.489
30896W        W96123  20.729  37.033   4.053
30897W        W96124  41.291  15.362  11.060
30898W        W96125  13.083  42.229   4.108
30899W        W96126   0.484   3.921   4.142
30900W        W96127  36.287   7.368  11.563
30901W        W96128  44.961   5.307   4.326
30902W        W96129   7.785  34.818   4.664
30903W        W96130  43.087  43.780   3.127
30904W        W96131  25.335  20.189   3.666
30905W        W96132   0.843  44.132   3.554
30906W        W96133   6.496   4.411  13.758
30907W        W96134  21.769  43.769  13.585
30908W        W96135  27.177  22.228   2.056
30909W        W96136  43.243  30.233   2.337
30910W        W96137   5.804  19.171  14.360
30911W        W96138  29.623  15.068  12.505
30912W        W96139  43.304   0.994  11.961
30913W        W96140  31.605  33.682   3.219
30914W        W96141  39.893  24.680   4.136
30915W        W96142   7.239  27.149  14.086
30916W        W96143  32.378   9.367   1.259
30917W        W96144  12.496   2.305   4.353
30918W        W96145  41.110  27.058   3.242
30919W        W96146  31.228  39.796   2.790
30920W        W96147  34.077  40.814  12.035
30921W        W96148  15.814  21.978  11.137
30922W        W96149  17.733  15.786  12.006
30923W        W96150  39.053  37.612   4.543
30924W        W96151  42.876  26.000   0.968
30925W        W96152   8.907  16.512   2.291
30926W        W96153  12.260  21.449   2.901
30927W        W96154  35.853  13.241   1.676
30928W        W96155  31.867  36.479   0.309
30929W        W96156  27.198   7.893   3.354
30930W        W96157  42.374  39.513   3.970
30931W        W96158  40.437  33.045  10.863
30932W        W96159  19.145  23.120   4.150
30933W        W96160  34.292  38.855  14.374
30934W        W96161  30.976  30.680  10.658
30935W        W96162   3.987  33.039   2.144
30936W        W96163  12.489  34.726   4.093
30937W        W96164  30.137   7.435   1.192
30938W        W96165  15.079  28.684   0.355
30939W        W96166  10.789  30.254  13.756
30940W        W96167  11.640  34.132   2.691
30941W        W96168  42.345  42.821  10.356
30942W        W96169  42.059  44.858  10.905
30943W        W96170  36.157  21.101  11.583
30944W        W96171   9.965  43.544  13.023
30945W        W96172  36.627  25.069  11.541
30946W        W96173   6.219  43.708   2.826
30947W        W96174  19.288   8.123   1.337
30948W        W96175   7.129  25.373   1.543
30949W        W96176  10.763   3.426   4.663
30950W        W96177  29.079  33.366  13.505
30951W        W96178  41.552  10.223  11.105
30952W        W96179  40.745  17.136  14.930
30953W        W96180  33.631  13.073   0.299
30954W        W96181  36.115  15.202   2.130
30955W        W96182  13.276  28.873   3.584
30956W        W96183   0.045   4.311  13.838
30957W        W96184  17.585  23.501  12.273
30958W        W96185   7.275  25.727  12.481
30959W        W96186  42.528  36.917  12.572
30960W        W96187   5.455   1.567  11.822
30961W        W96188  37.851  27.504   3.285
30962W        W96189  20.928   4.326   3.599
30963W        W96190  35.982  27.259   1.979
30964W        W96191  33.617   2.252   4.534
30965W        W96192  27.506  26.556   9.737
30966W        W96193  17.395  30.283   5.167
30967W        W96194   0.265  35.882  12.471
30968W        W96195  37.445  18.356  10.487
30969W        W96196  18.538  15.895  12.937
30970W        W96197  29.397   5.537   4.502
30971W        W96198   0.355   9.998   0.785
30972W        W96199  33.551  24.147   2.751
30973W        W96200  44.475   1.500  12.482
30974W        W96201  36.866   4.885  12.471
30975W        W96202  27.630   4.123  12.593
30976W        W96203  34.594  20.205   1.963
30977W        W96204  11.353  31.624   2.827
30978W        W96205  11.493  10.631   3.611
30979W        W96206   8.869  25.786  11.269
30980W        W96207   9.364   0.952   4.575
30981W        W96208  36.719  28.028  14.992
30982W        W96209  29.280  18.480   4.049
30983W        W96210   4.104  33.364  13.955
30984W        W96211  33.182   5.395   4.193
30985W        W96212  21.310   6.180  14.254
30986W        W96213  34.656  11.894   3.861
30987W        W96214  38.904  15.656  12.094
30988W        W96215  43.128   9.790  11.619
30989W        W96216  38.242  19.534   3.726
30990W        W96217  27.696   9.186   2.223
30991W        W96218   5.980  11.184  12.990
30992W        W96219  37.333  18.232   3.931
30993W        W96220  19.982  26.906  11.884
30994W        W96221  26.031  19.629   3.779
30995W        W96222   2.964  13.389   2.171
30996W        W96223  34.452  22.098   4.534
30997W        W96224  14.178   8.292   2.344
30998W        W96225   1.276  14.266   0.856
30999W        W96226   3.962  44.899  13.306
31000W        W96227   6.673  13.824  12.060
31001W        W96228  24.675  15.571   1.322
31002W        W96229  21.328  41.363   1.496
31003W        W96230  35.545  21.210  12.920
31004W        W96231  27.549   9.642   4.628
31005W        W96232  35.873  39.337   2.005
31006W        W96233   9.254   8.116   1.249
31007W        W96234  13.440  10.608   0.380
31008W        W96235  34.198  30.766   3.753
31009W        W96236  40.079  25.506   0.256
31010W        W96237   4.904  26.465   0.363
31011W        W96238   9.086  15.236  13.452
31012W        W96239  44.738  42.839  10.986
31013W        W96240   1.958  19.641   1.759
31014W        W96241  35.467  39.232   9.895
31015W        W96242  35.433  36.926   4.878
31016W        W96243  28.877  36.787   4.509
31017W        W96244  17.991  23.313   2.745
31018W        W96245   0.251  21.319   3.601
31019W        W96246  28.508  29.906  10.127
31020W        W96247  10.788   2.760  14.535
31021W        W96248  18.645  17.311   3.083
31022W        W96249  17.183  28.416  11.646
31023W        W96250   2.092   1.694   0.615
31024W        W96251  12.834   7.230  14.505
31025W        W96252  15.071  41.509  14.477
31026W        W96253  38.595  25.642  13.970
31027W        W96254  35.731  33.464  11.468
31028W        W96255  38.873  42.930   9.828
31029W        W96256  20.911  36.933   0.352
31030W        W96257  41.809  40.595   1.826
31031W        W96258  13.632  13.865  13.022
31032W        W96259  11.293  42.870  14.051
31033W        W96260   8.778  28.456   0.690
31034W        W96261  39.597   2.782  10.921
31035W        W96262  36.886  26.899   1.476
31036W        W96263  39.360  33.283  12.042
31037W        W96264  43.160  10.096   4.213
31038W        W96265  24.138  44.646   0.795
31039W        W96266  12.860   7.607   2.309
31040W        W96267  38.339  42.310  10.712
31041W        W96268  36.352   8.063  10.771
31042W        W96269  34.741  19.639   0.875
31043W        W96270  24.701  24.856  12.108
31044W        W96271  13.980  40.303  12.861
31045W        W96272  37.617  36.025  14.705
31046W        W96273  30.932  19.033  14.929
31047W        W96274  28.127  19.650  10.832
31048W        W96275  18.218  40.104   3.291
31049W        W96276   0.192   2.128   5.025
31050W        W96277   2.723   0.830   3.626
31051W        W96278   6.408  22.332   1.118
31052W        W96279  12.149  27.643   3.758
31053W        W96280  24.003  41.454   2.435
31054W        W96281  32.494  13.177   1.692
31055W        W96282  35.316  29.579  13.912
31056W        W96283  24.660  17.058  14.101
31057W        W96284  26.726  26.137   0.683
31058W        W96285  26.571   8.191  11.083
31059W        W96286  42.904  10.759  13.507
31060W        W96287  19.175  15.630  14.916
31061W        W96288  32.465  24.536  12.916
31062W        W96289  32.550  28.399  11.648
31063W        W96290  13.649  22.826   0.419
31064W        W96291  16.126  29.455   1.327
31065W        W96292  29.241  35.352  14.445
31066W        W96293  31.101   4.371  13.454
31067W        W96294  16.703  14.609   4.627
31068W        W96295   6.716  10.140   4.900
31069W        W96296  21.721  29.521   3.741
31070W        W96297  36.775   4.016   1.305
31071W        W96298   0.268  29.711   3.661
31072W        W96299  21.767   1.790   5.394
31073W        W96300   8.497  39.822  13.025
31074W        W96301   9.765   3.530   2.217
31075W        W96302   1.453  37.398  10.513
31076W        W96303  10.204  35.270   2.547
31077W        W96304   7.886  21.623  13.300
31078W        W96305  31.793  36.156  11.169
31079W        W96306  22.687  19.050   3.315
31080W        W96307   8.123  39.103   1.279
31081W        W96308  15.621  42.785  10.996
31082W        W96309  26.063  19.559   5.378
31083W        W96310  15.654  40.238  14.388
31084W        W96311  21.783  14.344   1.397
31085W        W96312  21.432  21.126   0.970
31086W        W96313  23.790  19.302  12.577
31087W        W96314   5.723   8.679   0.337
31088W        W96315   9.602  42.477  13.241
31089W        W96316  32.865  44.131   0.903
31090W        W96317   2.555  10.675   3.200
31091W        W96318   7.367   2.934  14.072
31092W        W96319  30.170   1.273   2.405
31093W        W96320  12.834   0.391   2.274
31094W        W96321  18.426  12.327  11.130
31095W        W96322   9.079  29.917  12.588
31096W        W96323  21.733  30.458   3.768
31097W        W96324  27.088   2.945  13.416
31098W        W96325   8.859  17.610   1.651
31099W        W96326  13.899  34.808  12.451
31100W        W96327  35.187   1.814  12.523
31101W        W96328   5.769  26.671   3.858
31102W        W96329   5.317   2.206   3.897
31103W        W96330  15.786   3.017  12.692
31104W        W96331  16.826   1.814   3.214
31105W        W96332  14.608  28.484  12.197
31106W        W96333  27.962  14.316  12.869
31107W        W96334  40.026   4.970   2.352
31108W        W96335  44.325   2.875  14.034
31109W        W96336  40.405   0.708   2.574
31110W        W96337  44.059  32.655  11.123
31111W        W96338  20.522  23.274   0.842
31112W        W96339  17.619  17.900   2.815
31113W        W96340  42.873  44.455  14.979
31114W        W96341  15.278   6.203  10.666
31115W        W96342  31.633  22.570  11.130
31116W        W96343   0.802  35.527  13.130
31117W        W96344  41.034  44.449  10.387
31118W        W96345  12.804  17.608  11.224
31119W        W96346   9.161  28.611   4.702
31120W        W96347  13.709   4.701  10.879
31121W        W96348  26.477   0.810  12.366
31122W        W96349   9.126  22.079  14.086
31123W        W96350  18.547  16.215   0.502
31124W        W96351   9.699  23.133   0.748
31125W        W96352  12.806   7.864  12.194
31126W        W96353  23.258  41.320  10.703
31127W        W96354  24.720  32.472  14.078
31128W        W96355  14.646  12.205   4.891
31129W        W96356   7.750  20.608  11.929
31130W        W96357   6.806  23.976   2.679
31131W        W96358  30.989  44.485  10.716
31132W        W96359  13.240   5.840  12.790
31133W        W96360  18.767  17.736   2.475
31134W        W96361  34.024  39.334   4.270
31135W        W96362  19.772  37.537   2.759
31136W        W96363  17.565  42.992  12.596
31137W        W96364  44.010  28.773   1.208
31138W        W96365  15.499  18.130   4.650
31139W        W96366  29.056   8.404  11.230
31140W        W96367   7.643  39.995  11.600
31141W        W96368   5.791  21.742  10.501
31142W        W96369   9.268   0.984  10.418
31143W        W96370   6.000   5.491   4.911
31144W        W96371  21.204  37.332   4.119
31145W        W96372  19.748  16.071  11.124
31146W        W96373  16.577   4.329  12.049
31147W        W96374  44.832  21.184   0.908
31148W        W96375  31.958  43.573  12.095
31149W        W96376  18.074  13.923   1.455
31150W        W96377  26.555  43.632   0.255
31151W        W96378  25.524  42.791   1.065
31152W        W96379  33.369   8.255  12.486
31153W        W96380  41.900   2.195   3.799
31154W        W96381  10.884  37.591  14.383
31155W        W96382   4.244  27.645   0.850
31156W        W96383  17.813   7.239   0.779
31157W        W96384  23.557   3.365   9.931
31158W        W96385  17.755  29.115  14.957
31159W        W96386  27.763  18.381  11.078
31160W        W96387   7.975  33.458  11.754
31161W        W96388  37.327  28.818   2.941
31162W        W96389  26.568   3.023  12.158
31163W        W96390  30.108   1.333   0.844
31164W        W96391  30.528  10.262   4.068
31165W        W96392   1.912  12.337  10.710
31166W        W96393  19.676  34.983  11.534
31167W        W96394  35.909  16.756  11.977
31168W        W96395   4.963  31.929   2.315
31169W        W96396  29.405  14.914  10.914
31170W        W96397   8.323   1.520  12.474
31171W        W96398  11.426  31.153   1.905
31172W        W96399   9.206   3.309  10.694
31173W        W96400  35.824  25.389  11.692
31174W        W96401  12.701  23.231  12.907
31175W        W96402  24.604  33.305   2.673
31176W        W96403  41.840  26.935   0.956
31177W        W96404  18.295  43.458  13.582
31178W        W96405  33.109  39.975   0.038
31179W        W96406   4.179  14.086   2.582
31180W        W96407  26.601  19.473  10.625
31181W        W96408   4.506  25.935   4.910
31182W        W96409  14.291   9.403  10.826
31183W        W96410  42.410  30.575   1.448
31184W        W96411  29.364  36.055   2.729
31185W        W96412  29.508  44.365   4.718
31186W        W96413  41.523  40.704  13.807
31187W        W96414  41.604  11.695   4.052
31188W        W96415  26.030  16.725   0.435
31189W        W96416  32.488  27.233  12.944
31190W        W96417  43.142  31.807   4.506
31191W        W96418   4.166  41.950  12.033
31192W        W96419  24.983  17.009  12.133
31193W        W96420  23.419  23.197   1.437
31194W        W96421  36.327   8.055  12.642
31195W        W96422  26.493  43.342   3.575
31196W        W96423  18.148  38.712  11.089
31197W        W96424  27.253  24.033  12.129
31198W        W96425  11.404  17.084   3.688
31199W        W96426   7.282  43.403   3.642
31200W        W96427   6.672  33.070  12.904
31201W        W96428  42.007  28.465   4.580
31202W        W96429   5.308  10.295   2.194
31203W        W96430  33.358  43.271   3.810
31204W        W96431   6.601  28.280  12.860
31205W        W96432  26.971  12.626  10.674
31206W        W96433   1.395  39.260   4.799
31207W        W96434  39.561  21.332   2.370
31208W        W96435  43.131  19.609   0.898
31209W        W96436  13.896  37.327   0.858
31210W        W96437  25.696  40.279   0.911
31211W        W96438  20.066  11.740  13.542
31212W        W96439  22.095  18.206  10.913
31213W        W96440   9.987  31.689   0.891
31214W        W96441   1.839   1.441  14.193
31215W        W96442  37.280  19.752  12.420
31216W        W96443   7.906  41.891   2.851
31217W        W96444  14.311  40.932   4.096
31218W        W96445  14.692  19.866  10.384
31219W        W96446  42.122  21.555   0.270
31220W        W96447  23.921   0.937   1.777
31221W        W96448   4.869  24.747  14.743
31222W        W96449   1.283  25.007   4.999
31223W        W96450  28.778   5.309  13.507
31224W        W96451  18.234  13.077   2.393
31225W        W96452  27.639   9.654  13.151
31226W        W96453  25.978  24.176  13.300
31227W        W96454  15.233  23.979  14.370
31228W        W96455  44.879  22.627   2.238
31229W        W96456  27.645   6.151  14.012
31230W        W96457   6.370  24.078   2.931
31231W        W96458  24.532  13.052   3.882
31232W        W96459  42.548   1.400   1.855
31233W        W96460   6.923   5.575   1.338
31234W        W96461   3.468  26.636   1.434
31235W        W96462  32.242  35.820  14.049
31236W        W96463  25.180  29.223  11.579
31237W        W96464   6.971  17.084  13.350
31238W        W96465  18.323  41.469   4.465
31239W        W96466   2.273  19.732  13.360
31240W        W96467  25.537  29.906  10.704
31241W        W96468  17.069  31.617  14.542
31242W        W96469  18.311  19.239   0.805
31243W        W96470  25.102   0.809  12.664
31244W        W96471  36.963  16.420  14.400
31245W        W96472  34.138  14.339  10.825
31246W        W96473   7.839  32.457  14.857
31247W        W96474   3.795  21.785   3.721
31248W        W96475   3.411   6.510   0.327
31249W        W96476  16.161  22.461  14.448
31250W        W96477  25.657  25.232  11.976
31251W        W96478  38.728   2.932   5.477
31252W        W96479  20.967   5.753   2.476
31253W        W96480  13.116  39.596  12.850
31254W        W96481  21.884  35.322   3.269
31255W        W96482  27.586  27.949   4.401
31256W        W96483   1.801  25.630  13.952
31257W        W96484   5.706  21.110  10.649
31258W        W96485   8.366  28.507  12.455
31259W        W96486   7.618  25.239  14.791
31260W        W96487   2.874   4.404   4.626
31261W        W96488  37.993  20.308   3.596
31262W        W96489  43.560   9.443  12.118
31263W        W96490  41.252   1.797   4.714
31264W        W96491  34.145  33.606   2.432
31265W        W96492  19.669  42.262  10.673
31266W        W96493  35.730  20.872  11.799
31267W        W96494  32.669  42.580  14.785
31268W        W96495  29.077  36.332  12.102
31269W        W96496  38.818  35.522  14.268
31270W        W96497  15.079  29.865   1.732
31271W        W96498  15.544  36.864   1.346
31272W        W96499   4.223  29.930  14.263
31273W        W96500  20.658  20.461   0.265
31274W        W96501  42.324  21.309  10.877
31275W        W96502  39.960   7.809  14.772
31276W        W96503   4.368  40.905   1.348
31277W        W96504  20.740  10.674   1.857
31278W        W96505  39.135  39.268   3.632
31279W        W96506   6.274   3.908  13.598
31280W        W96507  41.361   2.477  12.225
31281W        W96508  23.284  32.428   2.012
31282W        W96509   1.481   6.838   3.184
31283W        W96510  35.648   8.455   1.383
31284W        W96511  24.536  43.885  10.666
31285W        W96512  34.962   9.406   1.874
31286W        W96513  20.600  16.789   2.258
31287W        W96514   3.187  15.089  10.709
31288W        W96515  28.017   3.575   1.514
31289W        W96516  34.578  18.564  13.526
31290W        W96517  31.913  10.707  14.917
31291W        W96518  43.031  13.182  12.484
31292W        W96519   4.313  13.648   0.421
31293W        W96520  35.416   5.415   2.321
31294W        W96521  26.645  26.593   1.611
31295W        W96522  40.386   6.953  10.362
31296W        W96523  19.315  44.633  11.525
31297W        W96524  43.323  17.051   1.116
31298W        W96525  21.260  23.668   2.377
31299W        W96526  15.904  37.967  14.065
31300W        W96527  36.314  33.187   1.318
31301W        W96528  22.670  27.823   0.929
31302W        W96529  44.794  21.433   0.277
31303W        W96530  25.472  29.652   4.252
31304W        W96531  22.045  35.903  13.991
31305W        W96532  44.060  30.915   4.143
31306W        W96533  12.111  23.006   2.655
31307W        W96534  11.206   5.687  14.511
31308W        W96535  27.458  10.984  13.939
31309W        W96536  14.561   5.179  11.157
31310W        W96537  15.724  42.801   3.649
31311W        W96538   5.652  10.315  12.983
31312W        W96539  22.250  22.622   0.355
31313W        W96540  37.516  42.711   4.047
31314W        W96541  17.499  38.576   2.821
31315W        W96542  43.737  21.266  13.323
31316W        W96543  32.320  29.493   2.702
31317W        W96544  31.418   0.627   3.188
31318W        W96545  11.162   9.061  13.036
31319W        W96546  18.782   7.250   2.802
31320W        W96547  23.164   6.608  10.490
31321W        W96548  38.406   4.706   3.705
31322W        W96549  21.872  44.457   0.694
31323W        W96550  37.180  10.739   3.180
31324W        W96551  26.489   3.896   3.598
31325W        W96552  13.611   1.010   4.530
31326W        W96553  31.207  36.153  12.464
31327W        W96554  36.035  35.156   2.568
31328W        W96555  12.595  15.772   3.703
31329W        W96556  39.911   2.560   1.265
31330W        W96557  17.528   6.277   2.337
31331W        W96558  18.703  38.436  12.567
31332W        W96559  43.568  20.282   2.707
31333W        W96560  18.965  36.377   0.503
31334W        W96561  43.894  24.532  13.552
31335W        W96562  19.615  25.215   0.276
31336W        W96563   2.350   4.727   9.821
31337W        W96564   5.287  34.050   0.125
31338W        W96565  23.656   2.035   3.802
31339W        W96566  23.047  18.052   3.612
31340W        W96567   0.790  31.622   3.334
31341W        W96568  44.738  37.709   0.067
31342W        W96569  32.933  30.589   4.981
31343W        W96570  35.342  14.276  13.440
31344W        W96571  31.381  41.438  12.484
31345W        W96572  11.134  26.978  13.295
31346W        W96573  37.035  33.843   1.723
31347W        W96574  43.861   7.171  13.133
31348W        W96575  13.779  14.851   0.482
31349W        W96576  37.779   0.696  11.804
31350W        W96577  35.792   6.045  10.087
31351W        W96578  11.900  23.043  12.049
31352W        W96579  29.742  22.407   1.284
31353W        W96580  22.882  24.226   3.276
31354W        W96581   1.873   1.900  13.825
31355W        W96582  21.788  34.995   4.357
31356W        W96583  31.681  41.405  14.334
31357W        W96584  27.587  35.870  11.664
31358W        W96585  14.698  21.093   1.024
31359W        W96586  28.062  26.950   2.225
31360W        W96587   1.211  18.114   4.212
31361W        W96588   1.965  42.316   4.680
31362W        W96589  31.436  40.626   2.860
31363W        W96590  21.551  16.886   2.426
31364W        W96591  11.674  28.718  13.026
31365W        W96592  20.266   5.409  13.912
31366W        W96593  26.144  27.624  13.892
31367W        W96594  19.718  27.539  12.453
31368W        W96595  37.832  10.768   0.880
31369W        W96596  14.288  23.738  12.828
31370W        W96597  17.859   5.349   0.244
31371W        W96598  19.707  43.389  13.323
31372W        W96599  40.202   4.870   1.347
31373W        W96600  25.178  11.501  14.047
31374W        W96601   5.328   0.363  12.324
31375W        W96602  28.362  34.768   3.239
31376W        W96603  15.270   2.014   3.436
31377W        W96604  12.734  31.649  13.107
31378W        W96605  34.975  18.027   2.245
31379W        W96606   7.691  31.424  14.847
31380W        W96607   1.321   0.852  13.123
31381W        W96608  41.358  16.323   2.835
31382W        W96609  24.709  27.822   0.280
31383W        W96610  41.583   6.871   4.595
31384W        W96611   9.748  13.125  13.888
31385W        W96612  44.466  43.159   0.839
31386W        W96613   5.868  44.440   2.175
31387W        W96614  40.389  28.668  13.823
31388W        W96615   0.846  34.162  12.045
31389W        W96616  42.442  37.133   0.416
31390W        W96617  14.715  31.696  10.723
31391W        W96618  14.771  19.297   1.254
31392W        W96619  10.103  11.292   4.189
31393W        W96620  11.262  15.480  12.944
31394W        W96621  18.612   3.444   0.843
31395W        W96622  43.447  43.070  13.136
31396W        W96623  31.692  14.744   3.150
31397W        W96624  10.203  21.869   2.135
31398W        W96625  14.940  29.505   4.107
31399W        W96626  43.459  27.630  13.299
31400W        W96627  19.008   7.028   0.322
31401W        W96628  31.115  17.823   2.112
31402W        W96629   8.212  26.144  10.787
31403W        W96630  20.470   3.052   5.041
31404W        W96631  19.317  13.475   4.211
31405W        W96632  36.860   3.925   3.158
31406W        W96633  12.075  29.497   2.881
31407W        W96634   7.738  31.566   4.293
31408W        W96635  31.092  11.320  12.242
31409W        W96636   6.891  34.347   1.271
31410W        W96637  44.002   6.903   0.272
31411W        W96638  19.564  19.165   4.982
31412W        W96639   7.795  38.531   2.407
31413W        W96640  21.647  42.053  14.834
31414W        W96641  42.491  27.374   1.602
31415W        W96642  34.548  21.924   1.825
31416W        W96643  24.744  10.313   2.768
31417W        W96644  40.811  18.776   2.791
31418W        W96645  19.549   5.693   2.390
31419W        W96646  35.382   4.812  10.421
31420W        W96647  24.636  13.324   1.775
31421W        W96648  36.726  32.356   0.764
31422W        W96649   0.033   5.344  13.929
31423W        W96650  32.996  19.565  13.988
31424W        W96651  32.847  37.569  12.227
31425W        W96652  16.580   4.380  13.897
31426W        W96653  13.840  21.457  11.914
31427W        W96654   9.777  12.299   1.449
31428W        W96655   9.152   4.464   1.749
31429W        W96656  13.330   8.477  11.816
31430W        W96657  37.420  18.688  12.121
31431W        W96658  16.262  17.698   0.491
31432W        W96659  11.666  33.994   4.578
31433W        W96660   8.617  23.160  11.950
31434W        W96661  24.199  28.566   4.813
31435W        W96662  44.770  34.099   2.930
31436W        W96663  43.185  37.957  13.809
31437W        W96664  42.057  12.285   0.019
31438W        W96665  32.125  12.279   0.483
31439W        W96666   4.178   4.811  11.008
31440W        W96667  35.317   0.955  13.980
31441W        W96668  30.910  34.496  13.911
31442W        W96669   8.118  28.107  13.317
31443W        W96670   7.715   6.157   5.181
31444W        W96671   3.694  44.062  13.031
31445W        W96672   7.237  33.451  11.651
31446W        W96673   5.102  36.835   1.916
31447W        W96674  22.023  14.338   0.944
31448W        W96675   5.920  32.013   0.874
31449W        W96676   2.915  17.273  13.853
31450W        W96677  23.888   1.201  13.000
31451W        W96678  23.602  30.937  13.787
31452W        W96679  18.091  11.885  14.276
31453W        W96680  24.299   2.528   4.952
31454W        W96681  15.085  15.233   0.195
31455W        W96682  15.739  43.524  13.943
31456W        W96683  24.531  43.241   2.155
31457W        W96684  29.113  15.523  13.310
31458W        W96685  13.572   8.940  12.326
31459W        W96686  17.701  34.177  13.122
31460W        W96687  21.284  32.961  14.272
31461W        W96688  42.272  28.535  13.767
31462W        W96689   6.869  41.410   4.905
31463W        W96690  10.366  21.897  14.924
31464W        W96691  39.501  41.355  10.763
31465W        W96692  34.812  24.218   4.562
31466W        W96693  38.328   5.895   3.368
31467W        W96694  37.407  20.937  14.800
31468W        W96695  29.822  23.475  12.879
31469W        W96696  23.393  36.579   2.241
31470W        W96697   9.936  43.210  11.422
31471W        W96698  34.754  30.035   3.617
31472W        W96699  35.797  22.794   4.991
31473W        W96700  20.316  25.974   2.819
31474W        W96701   7.659  39.924  10.711
31475W        W96702  35.888  21.069   4.613
31476W        W96703  13.405  23.591   2.365
31477W        W96704   2.764  24.884   1.417
31478W        W96705   0.455  36.962   4.113
31479W        W96706   1.001   7.423   3.726
31480W        W96707  43.802   0.425   1.878
31481W        W96708  27.406  23.608  10.825
31482W        W96709  16.610  20.489  13.323
31483W        W96710  12.216  19.909  14.871
31484W        W96711   0.174   3.873  13.022
31485W        W96712   9.285  12.548   1.669
31486W        W96713  13.867  25.903   2.350
31487W        W96714  29.995   3.015  14.033
31488W        W96715   1.374  35.448  14.899
31489W        W96716  39.396  24.909  12.918
31490W        W96717   6.109  22.960  11.636
31491W        W96718  40.427  10.903   4.393
31492W        W96719  33.608  10.740   3.673
31493W        W96720  19.308  36.322   4.539
31494W        W96721  36.444  30.571  14.799
31495W        W96722  27.383  41.029   2.319
31496W        W96723  25.959  37.515  11.083
31497W        W96724  12.840  32.677   3.431
31498W        W96725  25.555   5.256   1.999
31499W        W96726  32.253  40.028   4.029
31500W        W96727  25.092   5.295   1.687
31501W        W96728  16.464  23.690   3.523
31502W        W96729  31.058  27.947  12.489
31503W        W96730   7.201  25.883   2.911
31504W        W96731  23.613  43.853  14.706
31505W        W96732   9.351  37.057   4.531
31506W        W96733  20.752   2.164   2.923
31507W        W96734  20.944   3.228   4.394
31508W        W96735  18.219  22.008   2.460
31509W        W96736  42.195  24.501   2.027
31510W        W96737  33.896  22.819  11.190
31511W        W96738   0.164  19.500  13.886
31512W        W96739  25.971   0.285  11.634
31513W        W96740   1.814  11.766  14.067
31514W        W96741  43.474  31.077  11.570
31515W        W96742  19.253   1.850   0.213
31516W        W96743  41.434  14.283   2.278
31517W        W96744   3.831  10.630  13.532
31518W        W96745  34.599  19.066  13.437
31519W        W96746  18.387  10.586   3.027
31520W        W96747  41.653  29.509  11.560
31521W        W96748  35.789  11.116   3.594
31522W        W96749  44.845  37.072  10.570
31523W        W96750  19.968   7.590  10.465
31524W        W96751  32.611  34.501   4.564
31525W        W96752  34.326  24.742  13.447
31526W        W96753  12.715   1.995   2.349
31527W        W96754  29.853  44.260   1.880
31528W        W96755  24.922  19.583   1.628
31529W        W96756   9.132  21.536   0.773
31530W        W96757  18.581  34.523  11.225
31531W        W96758   6.830   5.316   2.412
31532W        W96759  29.036  17.643  13.432
31533W        W96760  14.475  39.184   2.579
31534W        W96761  22.264   0.539  13.443
31535W        W96762  30.165   0.469   4.606
31536W        W96763  41.176  32.970   4.919
31537W        W96764  44.285  44.973  12.898
31538W        W96765  15.254  32.662   3.184
31539W        W96766   8.926  15.747   0.270
31540W        W96767  24.690  35.470  11.977
31541W        W96768  21.638  43.525   3.686
31542W        W96769  24.871  32.076   0.695
31543W        W96770   5.678  40.631   0.365
31544W        W96771   4.745   0.283   2.665
31545W        W96772  40.603  34.548   1.928
31546W        W96773  10.838  26.619   4.273
31547W        W96774  17.704  17.865  14.056
31548W        W96775  44.646   3.159  11.481
31549W        W96776  34.202  11.421  13.552
31550W        W96777  19.977  12.036   1.343
31551W        W96778  32.543   8.601  11.305
31552W        W96779  24.042  24.027   4.689
31553W        W96780   8.319   8.630   4.673
31554W        W96781  19.477  24.706  12.168
31555W        W96782  39.287   0.021  13.895
31556W        W96783  29.430   5.874  13.278
31557W        W96784  30.457  27.673   2.513
31558W        W96785   3.674  20.763   2.721
31559W        W96786  41.097   6.782   2.582
31560W        W96787  24.191   9.895   0.710
31561W        W96788  25.967  37.621   4.359
31562W        W96789  21.618  37.651   3.284
31563W        W96790  21.589  41.831   0.321
31564W        W96791  21.913  14.762  12.471
31565W        W96792  24.674  18.607  11.563
31566W        W96793   4.528  36.322   2.694
31567W        W96794  42.890  13.785   0.459
31568W        W96795  34.839  39.479  14.971
31569W        W96796  12.433  31.098   5.511
31570W        W96797  41.591  37.289   4.825
31571W        W96798  33.652  20.870  14.859
31572W        W96799  23.137  43.479  12.524
31573W        W96800  25.081  12.952  12.712
31574W        W96801  22.805   5.847   0.225
31575W        W96802  44.795  17.195   0.800
31576W        W96803  43.477  38.542  13.414
31577W        W96804   6.212  33.384  11.028
31578W        W96805  40.323   2.475  13.076
31579W        W96806  44.199   1.691  13.362
31580W        W96807  30.842  17.639  14.828
31581W        W96808  42.743  37.593  14.333
31582W        W96809  37.567   8.043   2.314
31583W        W96810   5.273  14.854   1.682
31584W        W96811   3.907  12.160  13.335
31585W        W96812  17.271   3.775   3.989
31586W        W96813  24.413  25.010  13.490
31587W        W96814  23.254  16.160  13.397
31588W        W96815  11.733   8.227  14.911
31589W        W96816  36.669  30.231  14.445
31590W        W96817  41.656  27.583  14.067
31591W        W96818  44.246  25.668   0.743
31592W        W96819   3.299  22.145   1.134
31593W        W96820  19.348  30.277   3.679
31594W        W96821  19.846   9.606  12.506
31595W        W96822  41.067  25.040  13.031
31596W        W96823  24.520  44.744   1.515
31597W        W96824  14.078   3.328   5.129
31598W        W96825   3.503  39.365   2.285
31599W        W96826  39.945  40.538  14.939
31600W        W96827  34.693  31.975   4.203
31601W        W96828  30.428  17.006  11.078
31602W        W96829  12.278  20.308   0.205
31603W        W96830  36.970  13.074   3.927
31604W        W96831  24.999  14.868   1.649
31605W        W96832  14.226  14.960   2.219
31606W        W96833   1.757  43.230   0.523
31607W        W96834  41.817  36.257   1.185
31608W        W96835  31.205  12.807   4.154
31609W        W96836   7.677  28.141   0.015
31610W        W96837  39.475  13.889   3.642
31611W        W96838  15.857  29.452  13.968
31612W        W96839  33.763  10.763  12.259
31613W        W96840  19.095  24.252   0.962
31614W        W96841  38.410  34.047  14.053
31615W        W96842  42.566   5.356   4.545
31616W        W96843  13.486  43.206  10.507
31617W        W96844   2.888  38.503  10.566
31618W        W96845  42.338   7.914  13.590
31619W        W96846  10.836  25.520   0.974
31620W        W96847  22.586  15.371  12.204
31621W        W96848   7.590  35.139   4.271
31622W        W96849  41.931  17.353  13.173
31623W        W96850  40.928  31.972   1.296
31624W        W96851  11.863  44.472  11.637
31625W        W96852  28.124  11.781  12.501
31626W        W96853  23.212  34.264  10.841
31627W        W96854  34.704  19.745  11.379
31628W        W96855  20.133  43.948  11.138
31629W        W96856  28.493  38.351   1.799
31630W        W96857  27.722   9.911  13.605
31631W        W96858  29.145  16.513  14.859
31632W        W96859  36.841  14.104  11.213
31633W        W96860  43.049  32.319   4.481
31634W        W96861   9.440  34.940  14.799
31635W        W96862  38.324  25.175  13.841
31636W        W96863   9.232  27.606  10.789
31637W        W96864  13.265  42.436  11.526
31638W        W96865  44.727  30.659   4.854
31639W        W96866  32.786   7.404  12.838
31640W        W96867  32.663  29.521   4.135
31641W        W96868  35.740   5.929  13.884
31642W        W96869   6.444   2.710  11.125
31643W        W96870  34.567   0.052  12.471
31644W        W96871  20.052  10.972  13.978
31645W        W96872  39.032  33.911  13.336
31646W        W96873   2.444   4.887  11.295
31647W        W96874  15.666  37.843  13.626
31648W        W96875  20.019  31.216  13.832
31649W        W96876  24.115  42.077   0.384
31650W        W96877  42.250  39.229   4.806
31651W        W96878   8.567  28.142   3.993
31652W        W96879   6.838  42.513  13.048
31653W        W96880  33.752  40.152  11.694
31654W        W96881  11.799  19.419  12.145
31655W        W96882  12.825  34.501   3.321
31656W        W96883  32.696  30.532   1.873
31657W        W96884   9.586  32.337  10.791
31658W        W96885   9.516  18.804   3.402
31659W        W96886  15.661  26.028   2.786
31660W        W96887  37.291   2.826   2.750
31661W        W96888   4.774  18.042   2.333
31662W        W96889  40.047  18.522  12.109
31663W        W96890  17.784   3.096   4.926
31664W        W96891  16.310  16.982   2.747
31665W        W96892   4.156  38.658  10.971
31666W        W96893  43.571  13.129  11.320
31667W        W96894   5.886  37.034  13.488
31668W        W96895   0.381  32.919   3.942
31669W        W96896   3.970  16.711  12.512
31670W        W96897  26.654   2.768  13.149
31671W        W96898  38.318  34.349   4.560
31672W        W96899  38.567  37.871  13.409
31673W        W96900  20.208  29.941   4.613
31674W        W96901  28.582   3.068   0.942
31675W        W96902  22.588  14.860   3.959
31676W        W96903  12.713  28.539   4.584
31677W        W96904   0.011   1.014  14.342
31678W        W96905  10.821  37.296  10.925
31679W        W96906  13.277   7.115  14.248
31680W        W96907   8.452  35.826   2.781
31681W        W96908  38.327  12.065  12.078
31682W        W96909  26.824  32.913  10.255
31683W        W96910  17.388  41.915  10.743
31684W        W96911  18.261  11.544  10.796
31685W        W96912  32.570  15.566   2.276
31686W        W96913  38.373  42.789   3.642
31687W        W96914  31.808  33.437   1.714
31688W        W96915  21.110   6.788   3.724
31689W        W96916  42.880   9.120   1.776
31690W        W96917  29.478   4.332  10.905
31691W        W96918  22.403   9.738  11.704
31692W        W96919   7.945   0.235  14.862
31693W        W96920  10.220  10.955   2.618
31694W        W96921   0.713  35.334  14.662
31695W        W96922  39.056  24.138  14.951
31696W        W96923   8.825  14.295   1.779
31697W        W96924  12.125   6.745   4.889
31698W        W96925  24.104  11.881   2.382
31699W        W96926  21.535  32.125   1.354
31700W        W96927   3.190  19.730  14.421
31701W        W96928  22.812   8.188   1.177
31702W        W96929   2.786  27.512  14.885
31703W        W96930   6.100  37.690  10.653
31704W        W96931  38.002  31.920  14.825
31705W        W96932  43.918  25.570   3.058
31706W        W96933  40.763  32.609   4.259
31707W        W96934  21.922  15.264   0.959
31708W        W96935   3.071  28.509   0.437
31709W        W96936  43.324   7.640   9.801
31710W        W96937  39.305  11.781  10.485
31711W        W96938  21.968  42.525   3.194
31712W        W96939   2.929  44.849   1.428
31713W        W96940  17.240  41.707   1.132
31714W        W96941  26.935  25.513  12.923
31715W        W96942  35.333  38.370  14.965
31716W        W96943   0.178  21.912  10.722
31717W        W96944  34.440   1.954  14.278
31718W        W96945  22.634  43.821   2.332
31719W        W96946   8.760  12.084  13.572
31720W        W96947  41.486  20.568   4.665
31721W        W96948  38.714  16.697   3.183
31722W        W96949  16.816  14.590   1.055
31723W        W96950  34.456   2.744  10.715
31724W        W96951   9.929   6.419  11.502
31725W        W96952   6.954  43.315   3.255
31726W        W96953  21.514  24.626   1.264
31727W        W96954  17.341  24.437  12.513
31728W        W96955  43.382  44.994   4.545
31729W        W96956   0.128  21.783  11.224
31730W        W96957  12.172  26.461  10.833
31731W        W96958  19.302  37.012   3.219
31732W        W96959  32.842   4.071   2.405
31733W        W96960  28.741  32.990   3.169
31734W        W96961  31.712   6.847  12.066
31735W        W96962  39.800   1.376   2.277
31736W        W96963  17.230  18.289  14.814
31737W        W96964  42.868  17.022   2.200
31738W        W96965  12.708  44.933  12.848
31739W        W96966  22.590  27.430  11.858
31740W        W96967   5.818  13.847  10.753
31741W        W96968  16.689  13.354  14.293
31742W        W96969   3.789   1.971  12.135
31743W        W96970  21.670   2.178   2.778
31744W        W96971  40.029  17.504  11.015
31745W        W96972  26.181  16.385  14.886
31746W        W96973  28.527  34.975  10.733
31747W        W96974   4.328  40.400  12.536
31748W        W96975   2.679   9.755   1.468
31749W        W96976  10.882  43.018  13.354
31750W        W96977  38.933  36.896  12.001
31751W        W96978  26.005  42.489  12.368
31752W        W96979   9.731  20.202   3.892
31753W        W96980  17.809  12.345  11.053
31754W        W96981  34.055   5.028   2.845
31755W        W96982  34.860  28.036   2.258
31756W        W96983  16.336  25.661   1.476
31757W        W96984   8.111  36.651   3.084
31758W        W96985  34.389  22.210   4.034
31759W        W96986  44.004   5.979   0.073
31760W        W96987  10.569  32.168  10.158
31761W        W96988  16.581   3.515  11.707
31762W        W96989  28.021  26.986  13.144
31763W        W96990  22.053  16.166  14.090
31764W        W96991  26.574  20.068  13.121
31765W        W96992  43.851  37.452  12.560
31766W        W96993  35.909  14.116  14.867
31767W        W96994   0.433   8.930   3.315
31768W        W96995  27.659  40.701  12.995
31769W        W96996  27.303   0.930   1.812
31770W        W96997  14.677  33.514  13.632
31771W        W96998  42.569  31.054   3.641
31772W        W96999  17.669   4.509  13.825
31773W        W97000  29.263   4.077   1.585
31774W        W97001  33.539  42.861   4.034
31775W        W97002  30.161  25.244  13.240
31776W        W97003  34.440  31.171   0.716
31777W        W97004  20.240  26.417   4.559
31778W        W97005  22.367  33.882  11.174
31779W        W97006  42.704  13.792   0.946
31780W        W97007   7.963   4.464  12.454
31781W        W97008   3.016  37.190  11.628
31782W        W97009  38.945  15.584  13.636
31783W        W97010  34.457  15.393  13.674
31784W        W97011  34.945  19.464  10.049
31785W        W97012   6.889  28.622  13.129
31786W        W97013  34.830  18.065  13.842
31787W        W97014  39.457   8.184   0.208
31788W        W97015  43.402  22.168   3.482
31789W        W97016  24.498  38.444  12.611
31790W        W97017  33.539  44.071   3.603
31791W        W97018  23.454  34.893  13.011
31792W        W97019   3.858  31.422  13.978
31793W        W97020  17.766  35.434  10.637
31794W        W97021  21.129  27.626  14.981
31795W        W97022  22.395  27.638  14.277
31796W        W97023  43.890  15.322  11.968
31797W        W97024  32.569   8.793  14.928
31798W        W97025  42.078  44.775  11.398
31799W        W97026  27.694  16.205  11.084
31800W        W97027  22.293  44.861   3.664
31801W        W97028   6.615  31.416  14.958
31802W        W97029  16.358  14.591   3.352
31803W        W97030  19.936  30.711   2.440
31804W        W97031   6.129  35.454  13.601
31805W        W97032   0.950  22.382  12.972
31806W        W97033  31.897  36.312   0.791
31807W        W97034  32.660  42.354   1.703
31808W        W97035  37.532  13.134  12.863
31809W        W97036  23.956  13.119   0.997
31810W        W97037  24.036   1.828   4.486
31811W        W97038  10.217  25.561   1.581
31812W        W97039  25.203  39.361   1.116
31813W        W97040  12.097   3.988  14.364
31814W        W97041  16.780   1.939  14.597
31815W        W97042  21.138  33.446  11.204
31816W        W97043  13.707  38.002  14.820
31817W        W97044  34.888  27.483   4.510
31818W        W97045  21.554  39.426  10.672
31819W        W97046  36.859  31.875  14.849
31820W        W97047   3.459   6.168  13.763
31821W        W97048  17.827   2.021  12.948
31822W        W97049  25.494  41.069   1.739
31823W        W97050  35.327  42.403  13.441
31824W        W97051  34.126   3.231   0.150
31825W        W97052  42.300  23.696  13.934
31826W        W97053  18.898  30.026  14.855
31827W        W97054  39.484  33.578   3.679
31828W        W97055  22.589  17.545   0.751
31829W        W97056  27.150  22.023   0.264
31830W        W97057  35.971  12.261   4.501
31831W        W97058  40.911   2.957  11.060
31832W        W97059  13.858  13.134  11.062
31833W        W97060  32.520  28.668  14.409
31834W        W97061  10.310   2.740  10.991
31835W        W97062  10.870  28.551   0.755
31836W        W97063  31.874  33.209   0.256
31837W        W97064  19.885  12.257   4.889
31838W        W97065  29.543  40.550  10.596
31839W        W97066   9.938  22.528  13.334
31840W        W97067  29.003  26.042  11.211
31841W        W97068   3.644  35.818  14.489
31842W        W97069   7.325  26.126   4.245
31843W        W97070  37.023  16.824  14.736
31844W        W97071  27.098   3.192   3.107
31845W        W97072  35.939  11.644   2.703
31846W        W97073  22.609  23.098  10.316
31847W        W97074  27.527   6.860   0.725
31848W        W97075  31.145  28.328  14.353
31849W        W97076  21.969  21.657  10.398
31850W        W97077   3.642  42.244  14.996
31851W        W97078  42.425   3.369   1.469
31852W        W97079  27.460   1.875   1.864
31853W        W97080  37.241  21.625  11.720
31854W        W97081  39.382  42.757   5.077
31855W        W97082  39.327  15.286  10.618
31856W        W97083  12.843   1.935   4.560
31857W        W97084  12.477  37.222  12.485
31858W        W97085  32.480  43.793  11.009
31859W        W97086  44.403  34.764   2.269
31860W        W97087   4.225  23.087  14.901
31861W        W97088  32.918  30.270   0.859
31862W        W97089  23.494  10.791  10.891
31863W        W97090  41.395  22.625  13.386
31864W        W97091  27.722   5.979   1.700
31865W        W97092  24.739  24.304   1.343
31866W        W97093  38.662   8.787   0.300
31867W        W97094  20.689   0.419   2.350
31868W        W97095  40.502  31.904   0.990
31869W        W97096  29.231  28.562   1.176
31870W        W97097  22.735  16.685   3.541
31871W        W97098   9.975  16.080   0.982
31872W        W97099  13.869  24.565   4.249
31873W        W97100  14.881  41.413  11.233
31874W        W97101  14.626  42.445   0.727
31875W        W97102  19.791   9.055  13.865
31876W        W97103   1.451   5.072   0.048
31877W        W97104  34.471  27.110  11.852
31878W        W97105  33.379  11.806  12.568
31879W        W97106  32.115  19.011  11.578
31880W        W97107  23.641  26.531   4.520
31881W        W97108  16.794  10.690   2.207
31882W        W97109  12.645  33.099  14.041
31883W        W97110   5.971  30.899   4.715
31884W        W97111   7.147  38.355   3.089
31885W        W97112  11.663  10.362   2.478
31886W        W97113  27.439  23.498   2.649
31887W        W97114  23.702  17.830  14.796
31888W        W97115  42.613  37.764   2.838
31889W        W97116  30.626  23.343   2.954
31890W        W97117  43.102  25.159  10.444
31891W        W97118  44.343  14.744   0.762
31892W        W97119  38.687  16.313   2.359
31893W        W97120   5.263  36.775   4.602
31894W        W97121  43.103  34.790   2.723
31895W        W97122  28.378  13.720   4.062
31896W        W97123  17.212  39.932   2.728
31897W        W97124  18.820  35.162  12.055
31898W        W97125  22.119  36.977  13.593
31899W        W97126   2.741   2.847  12.020
31900W        W97127  32.471  12.763  12.296
31901W        W97128   8.849  11.929  13.109
31902W        W97129  42.346  44.732   4.095
31903W        W97130   9.214  29.750   2.865
31904W        W97131  35.891  13.931  12.145
31905W        W97132  11.858  35.962   1.249
31906W        W97133  29.742  28.439   1.260
31907W        W97134  22.078  40.467   1.030
31908W        W97135   3.860  38.763  12.265
31909W        W97136   3.880   8.571   4.659
31910W        W97137  37.922   5.883   1.885
31911W        W97138  39.525  22.076   4.224
31912W        W97139  11.359  16.161   1.744
31913W        W97140   5.661  18.920   1.827
31914W        W97141  44.142  11.262  12.050
31915W        W97142  32.728  13.006  14.472
31916W        W97143   5.248  17.326  12.348
31917W        W97144  10.849   0.035   1.747
31918W        W97145  18.488  25.475  14.958
31919W        W97146  35.402  25.001   0.399
31920W        W97147  43.288  38.909  11.979
31921W        W97148  42.901   1.405   4.724
31922W        W97149  11.877  31.961   0.431
31923W        W97150   4.846  36.314  11.728
31924W        W97151   2.974  41.976   3.525
31925W        W97152   8.818  28.398   2.617
31926W        W97153  11.163  37.829  12.491
31927W        W97154  10.793  26.484  11.616
31928W        W97155  32.544  29.731  13.462
31929W        W97156  16.280  16.218  13.437
31930W        W97157  36.581  10.058   2.902
31931W        W97158  13.656  23.697   0.654
31932W        W97159  34.809   1.262  13.306
31933W        W97160   5.334  35.513   0.241
31934W        W97161   0.973  41.774  12.330
31935W        W97162  23.074   1.027   0.700
31936W        W97163  26.470  13.131   3.776
31937W        W97164  24.123  23.721   3.475
31938W        W97165  28.460   7.904  14.983
31939W        W97166  25.789  16.089  14.176
31940W        W97167  33.443  40.370  14.891
31941W        W97168  32.733  15.512   1.279
31942W        W97169  33.572   8.421  10.716
31943W        W97170  10.209   8.348   2.138
31944W        W97171  28.977  43.502  12.383
31945W        W97172  11.619  24.686  12.525
31946W        W97173  16.540   9.817   0.607
31947W        W97174  11.033   1.528   4.672
31948W        W97175  28.059  29.446   3.293
31949W        W97176  44.412  43.291  10.110
31950W        W97177  41.019  37.515  12.192
31951W        W97178  41.858  39.944  12.608
31952W        W97179  30.862  42.979   1.088
31953W        W97180  35.789  10.462   1.771
31954W        W97181  25.504  20.939  13.829
31955W        W97182  23.200  29.095   0.802
31956W        W97183   2.991   0.163   3.188
31957W        W97184  41.201  44.772  12.962
31958W        W97185  31.474  25.558  10.727
31959W        W97186  23.599   1.286  14.282
31960W        W97187  29.176   7.309   0.230
31961W        W97188  36.059  31.730   3.672
31962W        W97189   7.996  13.117   1.298
31963W        W97190  10.725  25.540  11.523
31964W        W97191  16.924  28.814   1.206
31965W        W97192  13.522  17.103  14.650
31966W        W97193  39.329   1.897   2.822
31967W        W97194  22.753  16.385   1.970
31968W        W97195  24.125   8.761  10.961
31969W        W97196  43.532  13.245   0.016
31970W        W97197  22.325  17.580   2.362
31971W        W97198  12.448  20.962   2.778
31972W        W97199  16.582  22.173  12.562
31973W        W97200  32.401  19.156  14.899
31974W        W97201   7.714  19.560   3.365
31975W        W97202  23.092  26.794   0.254
31976W        W97203  32.511  42.849   2.030
31977W        W97204  21.115   5.931   4.411
31978W        W97205   5.785  44.021   3.014
31979W        W97206   3.559  22.266   4.531
31980W        W97207  19.826  28.377   2.194
31981W        W97208  43.022  37.883  11.002
31982W        W97209  39.967  21.424   2.670
31983W        W97210  36.520  34.641  14.155
31984W        W97211   6.878   7.421  12.509
31985W        W97212  28.060  29.611   0.816
31986W        W97213  13.716  36.136  13.762
31987W        W97214  32.133   3.960  11.575
31988W        W97215  15.022   8.220   3.631
31989W        W97216  43.166  41.894  10.668
31990W        W97217  38.569  13.374  12.447
31991W        W97218  30.030  40.920   4.753
31992W        W97219  24.100  21.753   4.318
31993W        W97220   6.215  37.513  14.839
31994W        W97221   2.172  11.412  14.273
31995W        W97222  43.379   9.512  14.293
31996W        W97223   3.793  26.241   0.849
31997W        W97224   3.513  32.492  11.307
31998W        W97225   8.829  29.539  14.996
31999W        W97226  21.735  14.781  10.915
32000W        W97227  18.351   4.288  14.706
32001W        W97228  36.043  20.118   1.984
32002W        W97229  42.400  30.547  11.163
32003W        W97230  16.638  40.319  10.696
32004W        W97231  17.211  42.980   1.867
32005W        W97232  27.114  18.207  14.881
32006W        W97233  31.181  34.213  11.104
32007W        W97234  17.904  40.016  14.970
32008W        W97235  11.529  20.374  14.730
32009W        W97236  17.755   6.327  11.543
32010W        W97237  44.794   8.246  11.125
32011W        W97238  39.759  24.503   1.433
32012W        W97239  35.568  10.865   2.493
32013W        W97240  11.853  26.449   1.683
32014W        W97241  12.948   2.544   3.018
32015W        W97242  20.588  13.179   4.488
32016W        W97243   7.479  27.955  11.717
32017W        W97244  30.191  26.363   3.187
32018W        W97245  42.089  21.802   3.657
32019W        W97246   9.377   2.497  13.253
32020W        W97247  14.372  44.798  14.359
32021W        W97248  44.879  14.147  13.283
32022W        W97249  16.518  11.702  11.968
32023W        W97250  26.436  34.154  12.943
32024W        W97251   3.501  21.101  13.019
32025W        W97252  11.478  18.818   4.151
32026W        W97253  40.120  30.849  14.794
32027W        W97254   9.660  28.573   3.095
32028W        W97255  40.093  28.558  14.823
32029W        W97256  35.828   3.048   4.337
32030W        W97257   0.257  27.633  13.806
32031W        W97258  36.984  40.895   0.462
32032W        W97259  24.226  17.224   0.348
32033W        W97260  34.397  43.820  13.986
32034W        W97261  32.957  16.814  12.507
32035W        W97262  10.643  19.207  13.873
32036W        W97263   6.307   0.994  14.886
32037W        W97264   0.950  19.156   5.178
32038W        W97265  33.711   6.062  10.226
32039W        W97266   6.715  20.638   1.860
32040W        W97267  17.075  15.233   1.734
32041W        W97268  22.231  32.594  11.489
32042W        W97269   8.493  29.022   3.164
32043W        W97270  16.089  39.720  11.679
32044W        W97271  25.224  29.578   2.945
32045W        W97272   6.833  35.028  10.695
32046W        W97273  18.224  22.553   1.193
32047W        W97274  12.136  21.330   3.881
32048W        W97275  30.553   9.674   3.181
32049W        W97276  25.258  43.950  13.849
32050W        W97277  32.077   3.232   4.987
32051W        W97278   1.428  19.979   3.537
32052W        W97279  16.183  36.459   5.053
32053W        W97280  24.055   8.193  10.781
32054W        W97281   3.827  38.217   0.206
32055W        W97282  10.715  15.474   3.026
32056W        W97283  33.056  42.272   3.727
32057W        W97284  41.898  12.221   0.981
32058W        W97285  19.180  42.030   3.374
32059W        W97286  19.114  36.836   0.281
32060W        W97287   2.385  24.520  12.328
32061W        W97288   7.590   7.647  12.133
32062W        W97289  18.165  18.153   4.508
32063W        W97290  39.783  42.456   4.667
32064W        W97291  17.081  39.079   4.961
32065W        W97292  26.551  10.311   3.201
32066W        W97293  44.069  17.879   0.499
32067W        W97294  24.144   1.940   2.663
32068W        W97295   4.229  38.870   2.836
32069W        W97296  27.977  20.149  10.724
32070W        W97297  12.101  41.885   0.477
32071W        W97298  26.551  35.265   1.204
32072W        W97299  36.810  19.271   1.423
32073W        W97300  22.145  37.924  13.143
32074W        W97301  41.477  20.903  13.390
32075W        W97302  37.567  36.300  11.188
32076W        W97303  15.474  11.771  11.054
32077W        W97304  12.850  22.067   2.315
32078W        W97305  12.379  29.452   2.326
32079W        W97306   0.800  17.631  14.517
32080W        W97307  16.595  20.077   4.365
32081W        W97308  19.841  27.523  14.680
32082W        W97309  10.065  16.127   2.848
32083W        W97310  33.706  25.051   5.083
32084W        W97311  15.091   9.178  13.979
32085W        W97312  12.246  41.078   1.706
32086W        W97313  40.563  13.076   3.750
32087W        W97314  23.752  13.725   4.040
32088W        W97315  18.112  16.491  11.227
32089W        W97316   3.508  32.151  13.361
32090W        W97317  19.792  12.197  11.416
32091W        W97318  32.231  28.154   3.192
32092W        W97319   1.190  18.347  14.013
32093W        W97320  36.499  15.981   1.228
32094W        W97321  13.196   0.784   0.030
32095W        W97322  35.537   4.914   4.341
32096W        W97323   3.700  13.748  14.507
32097W        W97324   2.054  26.187   0.948
32098W        W97325   7.172  10.293  11.964
32099W        W97326  21.016  23.212   0.925
32100W        W97327  26.467  42.124   0.398
32101W        W97328  14.682  13.190   1.013
32102W        W97329   0.885  14.179  11.265
32103W        W97330  39.071  42.292  13.052
32104W        W97331   6.732  39.751  11.631
32105W        W97332  42.340  11.796  10.635
32106W        W97333   4.916  42.956  14.047
32107W        W97334  18.640  23.158   3.168
32108W        W97335  14.381   0.353   0.414
32109W        W97336  26.647  37.285  14.037
32110W        W97337  14.285  42.305   3.617
32111W        W97338  16.519  33.895  11.206
32112W        W97339  13.707  12.128   2.211
32113W        W97340  36.813  23.203  11.517
32114W        W97341  18.199  33.986  14.822
32115W        W97342  40.713  41.361   0.344
32116W        W97343  38.848  22.006   0.431
32117W        W97344  44.226  33.008  12.486
32118W        W97345   4.685  25.486   0.242
32119W        W97346  30.830  30.930   0.716
32120W        W97347  38.263  21.380  12.244
32121W        W97348   1.199  11.585  11.436
32122W        W97349  16.286  24.941  10.691
32123W        W97350  39.128  16.103  14.664
32124W        W97351  16.791  14.556  12.446
32125W        W97352  19.670  29.711   4.728
32126W        W97353  24.361  41.166   4.304
32127W        W97354  41.436  37.845  12.437
32128W        W97355  27.000  13.050   3.774
32129W        W97356  20.337  29.274  12.789
32130W        W97357  16.985  40.052  13.786
32131W        W97358  29.090  24.523  13.951
32132W        W97359   8.423  13.394  10.738
32133W        W97360  39.963   9.210  11.165
32134W        W97361   1.671   5.447  11.131
32135W        W97362  41.262  25.458  12.028
32136W        W97363   8.320  15.647  11.970
32137W        W97364  20.263  12.075  11.189
32138W        W97365   2.769  18.989   0.789
32139W        W97366  27.755  10.177   3.685
32140W        W97367  32.358  13.431  14.969
32141W        W97368  39.641  17.219   2.744
32142W        W97369   5.155   3.429   4.371
32143W        W97370  12.148  14.599  10.665
32144W        W97371  29.627  39.445  11.883
32145W        W97372  37.774  42.460  14.043
32146W        W97373  32.548  35.423  11.304
32147W        W97374   9.387  28.372  14.770
32148W        W97375  36.009  14.595   2.731
32149W        W97376  22.884  33.815  11.066
32150W        W97377  27.195  36.503   4.543
32151W        W97378  38.864  38.619  12.325
32152W        W97379  17.221  17.566   3.718
32153W        W97380   5.951  28.250  13.291
32154W        W97381  29.406  21.318  11.319
32155W        W97382   4.075  27.447   1.378
32156W        W97383   7.528  43.089  14.424
32157W        W97384   2.408   5.398   0.006
32158W        W97385   6.860  28.711  10.814
32159W        W97386  14.840  13.293  12.790
32160W        W97387   1.843  24.544  13.565
32161W        W97388  41.088  31.018   0.398
32162W        W97389  29.543  27.852  10.624
32163W        W97390  30.041   7.212   0.619
32164W        W97391  40.338  37.907   0.282
32165W        W97392  31.293  43.533   3.832
32166W        W97393  39.204  26.064  11.521
32167W        W97394  30.625   8.208   1.245
32168W        W97395  17.648  31.013  14.008
32169W        W97396  14.482  33.119  11.539
32170W        W97397  18.642  24.092   1.911
32171W        W97398  38.941  38.273   1.155
32172W        W97399   0.448  15.095  12.061
32173W        W97400  18.143  22.469   0.710
32174W        W97401   9.375  16.077  13.959
32175W        W97402  22.625  10.413  12.456
32176W        W97403  20.219  21.131  10.354
32177W        W97404   3.076  18.755   1.853
32178W        W97405  41.941  31.518  10.707
32179W        W97406  23.575  36.672   1.733
32180W        W97407  40.324   1.772   3.079
32181W        W97408  10.783  24.066  10.654
32182W        W97409  33.023  22.687  12.983
32183W        W97410   3.884   0.855   0.786
32184W        W97411  35.366   8.900   1.382
32185W        W97412   7.752  20.008  14.856
32186W        W97413  29.512   1.297  12.369
32187W        W97414   1.877  43.861   3.111
32188W        W97415  12.111  40.594   1.285
32189W        W97416  12.892  32.988   1.939
32190W        W97417   1.358  37.558  11.499
32191W        W97418   9.779   1.056   3.334
32192W        W97419  40.821  13.725   1.991
32193W        W97420  24.416   4.766   3.213
32194W        W97421  25.007  12.671   0.241
32195W        W97422  32.592  14.737   2.694
32196W        W97423   1.191   7.322  14.806
32197W        W97424  26.911  33.211   0.395
32198W        W97425  20.067  15.557   4.994
32199W        W97426  19.561  20.713  10.667
32200W        W97427  15.235  37.838  12.455
32201W        W97428  32.734  39.105  14.472
32202W        W97429  41.253  13.351   4.234
32203W        W97430  21.700   4.919  13.435
32204W        W97431  10.225  10.140  10.746
32205W        W97432  42.153  43.991   3.711
32206W        W97433  22.952  32.561   2.854
32207W        W97434  28.069  18.007   1.398
32208W        W97435  28.178  20.920  14.354
32209W        W97436  40.691   3.442   3.736
32210W        W97437   7.897  13.516  10.911
32211W        W97438  36.578  21.606  13.976
32212W        W97439  22.599  12.399  12.059
32213W        W97440  40.019   0.821   4.374
32214W        W97441  42.532  25.866  10.815
32215W        W97442  19.815  10.517   2.097
32216W        W97443  20.156   9.869   0.671
32217W        W97444  10.390  36.373   4.939
32218W        W97445   4.160   4.623  11.482
32219W        W97446  20.412  26.584   4.109
32220W        W97447   9.989   3.024   0.098
32221W        W97448  44.385   9.133  11.991
32222W        W97449   3.873  40.881   1.971
32223W        W97450  18.730  19.149   1.722
32224W        W97451  24.034   2.236   0.744
32225W        W97452  23.256  10.880   0.776
32226W        W97453   5.783  28.496   3.415
32227W        W97454  43.260  10.598   0.031
32228W        W97455   2.771   5.466   1.452
32229W        W97456  35.875  19.332   4.085
32230W        W97457  34.307  20.660  10.554
32231W        W97458  20.788  39.913   2.209
32232W        W97459   2.359  40.837   3.320
32233W        W97460   2.264  20.465   3.338
32234W        W97461  25.489  29.733  13.116
32235W        W97462  10.112  21.911  11.064
32236W        W97463  12.209  22.489   1.424
32237W        W97464   0.712  42.727   4.560
32238W        W97465  20.555   4.033   9.757
32239W        W97466  15.582  28.994  11.577
32240W        W97467  24.011  35.464   2.177
32241W        W97468   9.837  39.036   3.668
32242W        W97469   2.401  11.594  10.747
32243W        W97470  42.356  18.063  12.549
32244W        W97471  18.459  27.884   2.364
32245W        W97472  18.291  23.643   4.732
32246W        W97473  21.036  32.076   2.088
32247W        W97474   0.912   1.497   0.474
32248W        W97475  37.484   9.433   1.320
32249W        W97476  10.216   0.820   3.562
32250W        W97477  20.451  16.125  14.299
32251W        W97478   4.287  11.000   3.195
32252W        W97479   3.009  41.452  13.832
32253W        W97480  35.824  36.879  10.343
32254W        W97481  20.603  26.062  14.917
32255W        W97482  12.104  27.992  13.860
32256W        W97483   4.244  34.554   4.201
32257W        W97484  35.315   0.030  13.003
32258W        W97485  17.259  26.466   3.354
32259W        W97486  42.417   1.572  12.043
32260W        W97487  40.788   7.696  12.864
32261W        W97488   4.430  21.696   4.509
32262W        W97489  11.718   8.890   9.966
32263W        W97490   5.930   8.628  14.867
32264W        W97491  40.577  44.834   3.032
32265W        W97492  17.576   8.791  11.175
32266W        W97493  11.176  25.715   2.394
32267W        W97494   8.391  29.429  12.592
32268W        W97495  24.968   0.723  14.690
32269W        W97496  37.223  25.154   1.090
32270W        W97497   8.715  17.847  12.837
32271W        W97498  38.544  24.953   1.865
32272W        W97499  30.818  26.632   1.259
32273W        W97500  25.963   4.598   0.147
32274W        W97501  13.164  11.477  14.455
32275W        W97502  29.239  16.928   2.711
32276W        W97503  44.418  30.896   0.531
32277W        W97504  36.351  13.323  13.425
32278W        W97505  25.419  14.804   1.958
32279W        W97506  22.711   5.908   1.737
32280W        W97507  35.904  27.401   0.267
32281W        W97508   4.246   7.140   3.606
32282W        W97509   9.154  39.720   4.541
32283W        W97510  11.181  18.776   1.695
32284W        W97511  39.877  33.463   1.803
32285W        W97512  12.071  15.821   3.557
32286W        W97513   7.878  18.824   4.044
32287W        W97514  16.544  39.887   0.947
32288W        W97515  42.976  25.607   4.177
32289W        W97516  32.685  24.704  13.936
32290W        W97517  33.140  23.218  12.022
32291W        W97518  12.582  15.361  14.820
32292W        W97519   8.489  23.562   0.371
32293W        W97520  16.091  16.537   2.874
32294W        W97521  24.499   6.951   2.788
32295W        W97522   8.359  31.072   4.067
32296W        W97523  17.682  44.252   0.915
32297W        W97524  22.698  31.476   4.368
32298W        W97525   8.700  39.620  13.961
32299W        W97526  36.169   0.839   0.316
32300W        W97527  35.602  36.576   1.786
32301W        W97528  29.410  25.707  12.898
32302W        W97529  24.043   7.663  10.713
32303W        W97530  24.715  25.471  10.583
32304W        W97531  42.487  26.148  13.316
32305W        W97532  43.041  38.819  11.513
32306W        W97533   3.228   1.925  13.899
32307W        W97534  27.181  26.113  14.357
32308W        W97535  31.830   7.923  12.213
32309W        W97536  23.216  28.624  14.899
32310W        W97537   7.598  27.071  14.483
32311W        W97538  23.175  35.138  11.033
32312W        W97539  37.555  20.857   4.853
32313W        W97540  21.009  16.626   1.534
32314W        W97541  19.565  20.804  12.789
32315W        W97542  31.463  27.206  13.890
32316W        W97543  12.244  10.600   4.098
32317W        W97544  15.715  43.843  12.032
32318W        W97545   0.101  11.654  11.594
32319W        W97546   2.059   9.695   3.891
32320W        W97547  33.895  34.852   1.715
32321W        W97548  15.385  38.504  10.318
32322W        W97549   8.905  29.997   1.783
32323W        W97550  10.066  41.806   0.518
32324W        W97551   6.840   6.136  13.940
32325W        W97552   0.742  44.581  10.937
32326W        W97553   6.364  40.964  14.761
32327W        W97554  41.892  28.958  10.772
32328W        W97555  36.144  15.635  12.526
32329W        W97556  21.050  11.078   3.111
32330W        W97557  40.474   1.626   0.907
32331W        W97558  43.457  30.526   4.467
32332W        W97559  15.368  26.669   4.171
32333W        W97560  10.518  31.884   4.634
32334W        W97561  42.595  27.711  14.862
32335W        W97562  42.281   7.336   2.371
32336W        W97563  14.717  22.712   2.859
32337W        W97564   5.919  32.489   3.436
32338W        W97565   4.892  19.742   3.034
32339W        W97566  23.577   4.278  10.383
32340W        W97567  42.334  14.186   3.189
32341W        W97568  42.512  12.122  12.963
32342W        W97569   5.937   3.486   1.291
32343W        W97570   2.620  40.999  14.393
32344W        W97571  16.335   0.316   3.241
32345W        W97572  16.302  13.665  14.008
32346W        W97573  14.730  41.037   1.065
32347W        W97574  14.492  31.548  13.008
32348W        W97575   6.222  34.056   1.972
32349W        W97576   2.907  12.635   2.554
32350W        W97577   8.005  40.866   2.991
32351W        W97578  25.106  26.985   0.533
32352W        W97579  11.367  42.505  10.858
32353W        W97580  36.369   6.710   3.691
32354W        W97581  10.159  18.974   1.435
32355W        W97582  22.974  12.357  14.505
32356W        W97583  25.508  37.152  12.026
32357W        W97584  23.820  14.568  11.530
32358W        W97585  34.869  41.879  11.598
32359W        W97586  20.032  24.073  12.404
32360W        W97587   7.209  29.551   3.367
32361W        W97588  20.104  28.293  11.552
32362W        W97589  25.663  37.517  10.182
32363W        W97590  38.081  38.596   1.590
32364W        W97591  39.481  31.979  12.519
32365W        W97592  26.559  27.623   4.187
32366W        W97593  28.630  10.174  14.441
32367W        W97594  36.503  18.307  11.684
32368W        W97595   5.147   6.195   0.424
32369W        W97596  21.711  38.768  14.952
32370W        W97597  12.904  31.936  11.702
32371W        W97598  31.021  34.609   1.241
32372W        W97599  44.836  39.344   4.194
32373W        W97600  16.280  13.601  13.052
32374W        W97601  26.080   2.782  14.376
32375W        W97602   4.407  23.406   4.508
32376W        W97603  12.048  22.322  11.066
32377W        W97604  13.057  43.423   1.311
32378W        W97605   2.539   1.326   3.636
32379W        W97606   3.860  25.743   2.896
32380W        W97607  26.481   7.131  12.980
32381W        W97608   5.139  14.827  12.037
32382W        W97609  24.945  18.956  12.984
32383W        W97610  26.669   9.890   4.603
32384W        W97611  27.443   1.087   3.192
32385W        W97612  39.669  20.216  11.369
32386W        W97613  20.615   4.853   0.892
32387W        W97614   6.654  18.054   1.309
32388W        W97615  25.314  19.491   1.228
32389W        W97616  19.289  31.981  13.603
32390W        W97617   2.926   2.122  12.135
32391W        W97618  31.910  12.601   1.969
32392W        W97619   7.600  38.797   4.658
32393W        W97620  25.001  21.473  11.560
32394W        W97621  14.704  27.518   0.859
32395W        W97622   4.189  44.445  10.846
32396W        W97623  13.765   5.665   2.791
32397W        W97624  43.276  35.529  13.017
32398W        W97625  41.254  20.487  14.413
32399W        W97626   2.961   3.240   3.212
32400W        W97627  12.556  14.914   3.719
32401W        W97628  40.121  11.753  12.085
32402W        W97629  31.394  11.022   4.633
32403W        W97630   5.500  10.842  10.698
32404W        W97631  13.945   1.753   3.191
32405W        W97632  29.598   7.832   4.557
32406W        W97633   9.167   4.873  14.018
32407W        W97634  37.882  17.094   4.483
32408W        W97635   4.880  43.054   3.637
32409W        W97636  23.695  37.474  11.410
32410W        W97637  25.627  28.530   1.401
32411W        W97638  32.966  18.206   1.796
32412W        W97639  41.239  40.096   2.736
32413W        W97640  33.638  20.834  13.434
32414W        W97641  22.991  42.584  12.510
32415W        W97642  34.303  44.934  12.033
32416W        W97643   9.521  42.408   0.946
32417W        W97644  40.943  35.393   3.796
32418W        W97645  43.413  44.678  14.224
32419W        W97646  38.396  44.943  13.409
32420W        W97647  12.752  43.751   3.191
32421W        W97648   7.597   2.822  14.535
32422W        W97649  14.886  36.844  12.474
32423W        W97650  37.410  40.914  12.375
32424W        W97651   0.191  11.479   1.225
32425W        W97652  37.312   6.623   2.703
32426W        W97653  35.498  10.724  13.999
32427W        W97654   8.466  13.650  12.498
32428W        W97655  31.066  26.162  11.823
32429W        W97656  36.945   5.946  14.866
32430W        W97657  19.583   4.518   4.563
32431W        W97658  19.580  16.320  11.545
32432W        W97659  44.743   2.174  10.734
32433W        W97660  25.583  23.197  14.039
32434W        W97661  32.289   6.413   4.925
32435W        W97662  33.001  25.919  12.971
32436W        W97663   4.365  13.747  10.004
32437W        W97664  41.253  34.261  14.483
32438W        W97665   7.669  38.877   0.447
32439W        W97666  16.915   6.395   3.341
32440W        W97667  24.783  14.230  14.340
32441W        W97668  25.942  44.277   4.541
32442W        W97669   1.228   6.372  12.414
32443W        W97670  35.161  30.983  11.536
32444W        W97671  24.597   0.026   4.688
32445W        W97672  11.870  14.101   4.529
32446W        W97673   7.099  24.172   4.439
32447W        W97674  13.254   6.494   4.677
32448W        W97675   2.835  23.039   1.930
32449W        W97676   9.781  32.536   0.504
32450W        W97677  14.653   5.088  13.353
32451W        W97678   5.393  41.863  13.522
32452W        W97679  21.583  20.507   3.135
32453W        W97680  29.566  36.463  12.053
32454W        W97681   6.414  29.418  13.446
32455W        W97682  31.096  13.681  14.584
32456W        W97683   1.723  20.569  13.400
32457W        W97684  21.392  12.614  10.563
32458W        W97685  19.276  25.479  14.362
32459W        W97686  36.205  20.228   1.507
32460W        W97687   8.761  41.043   0.503
32461W        W97688   8.214  44.156   2.115
32462W        W97689  19.722  44.319  12.941
32463W        W97690  32.305  29.573  13.934
32464W        W97691  19.125  13.710   0.065
32465W        W97692  27.110  16.896   4.845
32466W        W97693  37.131  16.227  13.083
32467W        W97694  17.576   0.133   3.753
32468W        W97695  33.675  26.874   2.629
32469W        W97696  36.365  33.500  10.759
32470W        W97697  24.221  33.725   0.792
32471W        W97698  38.460   8.473   2.138
32472W        W97699  14.593   4.724   4.616
32473W        W97700  11.877  10.444   2.961
32474W        W97701  39.441  15.067   4.239
32475W        W97702   9.216  22.297  12.942
32476W        W97703  16.282  37.104  13.022
32477W        W97704  24.061  42.085   1.762
32478W        W97705  15.129  16.132  14.274
32479W        W97706   5.433  37.298   3.701
32480W        W97707  39.491   2.624  12.472
32481W        W97708  37.149  38.612  13.343
32482W        W97709  39.387  23.564  14.664
32483W        W97710   7.753  35.926  14.492
32484W        W97711  31.930  39.125  14.879
32485W        W97712  36.043  35.640   4.371
32486W        W97713   3.022   2.418  13.556
32487W        W97714   7.693  19.256   5.354
32488W        W97715  39.797   1.945  14.350
32489W        W97716  42.058  23.488   0.365
32490W        W97717  10.448   2.481   3.248
32491W        W97718  21.163  11.223  14.891
32492W        W97719  37.115  36.314   3.254
32493W        W97720  33.057   1.898   1.285
32494W        W97721  21.304  16.187  11.433
32495W        W97722   5.290   8.180  13.012
32496W        W97723  18.311  38.967   4.808
32497W        W97724  37.281  41.671  10.810
32498W        W97725   8.106   4.906  14.714
32499W        W97726  22.464  13.604  14.866
32500W        W97727  29.947  17.548   4.094
32501W        W97728  11.128  31.502   0.684
32502W        W97729  22.260  42.191   2.867
32503W        W97730   8.647   3.834  12.198
32504W        W97731   6.369   8.408   3.746
32505W        W97732   9.087   7.694  12.015
32506W        W97733  19.145  14.578  14.890
32507W        W97734  11.926  38.437   4.122
32508W        W97735  40.041  29.545   0.667
32509W        W97736  14.687  23.996  10.926
32510W        W97737  40.393  26.012  12.129
32511W        W97738  41.331  12.579   0.358
32512W        W97739  44.501  31.879  14.818
32513W        W97740  20.973  41.310   2.358
32514W        W97741  36.019  23.450   0.845
32515W        W97742  27.683  31.610   4.231
32516W        W97743  40.836  15.098  11.179
32517W        W97744  26.528  35.621   0.838
32518W        W97745   6.205  18.741   0.791
32519W        W97746  30.322   3.336  12.211
32520W        W97747  28.520  23.970  10.558
32521W        W97748  10.409   2.866  12.985
32522W        W97749  36.486  42.834   4.597
32523W        W97750  39.303  18.791   1.648
32524W        W97751   0.225   4.832   0.956
32525W        W97752  20.613  12.347  14.857
32526W        W97753  21.330  18.657  10.668
32527W        W97754  14.003  32.925  13.177
32528W        W97755  20.894   4.790  13.790
32529W        W97756  40.731   3.375  13.777
32530W        W97757  20.013  30.613  14.993
32531W        W97758  37.690   2.706   4.579
32532W        W97759  23.905   6.637   3.702
32533W        W97760  31.554  21.298  12.968
32534W        W97761   4.435  16.667  14.951
32535W        W97762   7.794  18.765  11.729
32536W        W97763  38.576  11.616   3.672
32537W        W97764   5.779  38.918  13.932
32538W        W97765  23.607   7.319  13.082
32539W        W97766  37.059  21.161   3.145
32540W        W97767  17.602  29.695   1.285
32541W        W97768  26.334  23.753   0.537
32542W        W97769  32.577  22.620   3.658
32543W        W97770   3.455   6.003   4.177
32544W        W97771  28.077  35.287  11.039
32545W        W97772  32.457  29.872  11.692
32546W        W97773   4.952  13.604   1.825
32547W        W97774  12.804  32.449   1.156
32548W        W97775  29.880  28.941   3.111
32549W        W97776  12.970  23.908  14.959
32550W        W97777  11.305  23.653  11.656
32551W        W97778  23.229  21.976  14.577
32552W        W97779  11.364   1.526  14.425
32553W        W97780  15.203  27.605  10.651
32554W        W97781  37.635  12.379   1.382
32555W        W97782  27.162  27.827   1.761
32556W        W97783  41.298   4.552   1.955
32557W        W97784  35.696  17.624  10.730
32558W        W97785   3.254  24.745   1.212
32559W        W97786  19.680   0.678  12.141
32560W        W97787  30.121  19.754   3.584
32561W        W97788  38.558  42.782  13.927
32562W        W97789  40.073  12.161   3.787
32563W        W97790  20.695  38.954   4.414
32564W        W97791   2.911  20.498   1.681
32565W        W97792  37.394  11.444  10.649
32566W        W97793  15.769  22.614   0.366
32567W        W97794   1.808  21.295  13.856
32568W        W97795  32.162   9.920   2.560
32569W        W97796  31.853   4.392  11.606
32570W        W97797   2.839   0.103   4.087
32571W        W97798  14.369  34.453  14.983
32572W        W97799   9.718  37.835   1.235
32573W        W97800  27.881   6.153   4.300
32574W        W97801  39.370   2.651  14.949
32575W        W97802   6.912   7.973  12.537
32576W        W97803  43.331  12.873   1.422
32577W        W97804  15.307  13.334   4.548
32578W        W97805  28.030   4.739  14.256
32579W        W97806  20.543  22.173   2.387
32580W        W97807  25.335  14.486   4.193
32581W        W97808   0.167  21.161   3.093
32582W        W97809  11.077  12.155  12.977
32583W        W97810  27.129  13.284   2.168
32584W        W97811  42.230  27.935  12.119
32585W        W97812  41.756   5.207  12.467
32586W        W97813  34.954  30.142   0.264
32587W        W97814   3.970   4.900   4.511
32588W        W97815   3.734  39.256  10.430
32589W        W97816  11.765  40.839   3.179
32590W        W97817  19.579  32.580   4.610
32591W        W97818  28.983  30.877  13.182
32592W        W97819  11.733  33.471   1.381
32593W        W97820  42.647  10.699   0.814
32594W        W97821  40.590  18.754  14.288
32595W        W97822  43.561  34.878   0.441
32596W        W97823  30.841  17.878  10.080
32597W        W97824   3.421  40.402  13.191
32598W        W97825  19.502   8.829   2.693
32599W        W97826   2.964  15.256   1.266
32600W        W97827  26.228  19.104   3.629
32601W        W97828  22.827  34.876  12.521
32602W        W97829  26.997   2.892  14.442
32603W        W97830  27.375  14.146   3.254
32604W        W97831  25.660  25.947  14.731
32605W        W97832   3.005   6.993  13.411
32606W        W97833  20.327  20.021  12.114
32607W        W97834  42.772   2.220  13.476
32608W        W97835  35.412  44.980   2.443
32609W        W97836   0.183   9.205  14.385
32610W        W97837   7.703  42.256   2.310
32611W        W97838  19.127  10.672  12.016
32612W        W97839  43.594   5.854  14.764
32613W        W97840  27.912  30.921   1.378
32614W        W97841  27.022  25.047   0.462
32615W        W97842  14.988  33.424  10.934
32616W        W97843  11.166   8.722  10.915
32617W        W97844  14.345  44.938   4.068
32618W        W97845   9.124  16.535  13.930
32619W        W97846  32.045  17.237  12.305
32620W        W97847  17.013  20.633  12.637
32621W        W97848  24.254  15.043   0.573
32622W        W97849  29.719   6.350  12.414
32623W        W97850  15.534   4.849  14.123
32624W        W97851  19.959  23.708   3.911
32625W        W97852  22.179   5.320  10.769
32626W        W97853  18.139  11.600   2.715
32627W        W97854  44.274  36.247   2.266
32628W        W97855  39.802   2.451  12.955
32629W        W97856  37.697   8.438   3.518
32630W        W97857  11.553  14.729   2.776
32631W        W97858   7.670   7.711   3.340
32632W        W97859  11.340  18.938  13.695
32633W        W97860   8.183  33.942  13.079
32634W        W97861  41.000  33.843   4.878
32635W        W97862  25.925   9.229   1.623
32636W        W97863   2.239  14.403  13.779
32637W        W97864  10.858   1.439   3.700
32638W        W97865  20.535   5.752  12.718
32639W        W97866   3.300  23.545  12.462
32640W        W97867   6.173  14.824   2.267
32641W        W97868   5.230  31.175   4.191
32642W        W97869  33.200  34.378   0.743
32643W        W97870  43.325  11.652  12.579
32644W        W97871  37.745   8.408   2.670
32645W        W97872   4.305  10.553  14.959
32646W        W97873  38.449  22.202  13.448
32647W        W97874  32.254  43.343  13.958
32648W        W97875   6.772   1.863   2.840
32649W        W97876   3.406  22.509  13.303
32650W        W97877   7.622  35.593  11.929
32651W        W97878  36.844   6.890   3.570
32652W        W97879  32.570  32.203   0.937
32653W        W97880  23.756  20.448  10.692
32654W        W97881  30.478  35.059   1.795
32655W        W97882  42.772   1.001  14.023
32656W        W97883  23.230   7.021  10.814
32657W        W97884  12.782  17.652   1.945
32658W        W97885   8.622  35.557  14.866
32659W        W97886   5.896  30.039  12.515
32660W        W97887  30.143  22.674   1.088
32661W        W97888  26.481  38.157  14.371
32662W        W97889  31.979   8.152   2.669
32663W        W97890  27.683  35.665   3.828
32664W        W97891  44.447  14.753  11.579
32665W        W97892  33.084  28.454   2.294
32666W        W97893  40.464  10.627  14.903
32667W        W97894  26.543  18.285  14.017
32668W        W97895  36.556  27.765  12.075
32669W        W97896  36.934  33.393   4.089
32670W        W97897   1.194  15.163   0.872
32671W        W97898  22.218   0.192   0.242
32672W        W97899  27.083  40.466   3.305
32673W        W97900  31.621   4.197   0.971
32674W        W97901  15.737  44.110   2.445
32675W        W97902   4.666   0.053   3.725
32676W        W97903  11.221  33.193   2.649
32677W        W97904   2.290  23.821  13.044
32678W        W97905  27.277  31.416   1.247
32679W        W97906  29.993  15.432  12.372
32680W        W97907  22.236  34.321   3.193
32681W        W97908   5.348   6.422  10.829
32682W        W97909   5.756   5.468   0.300
32683W        W97910  37.871  23.062   4.595
32684W        W97911   1.769   9.147   0.752
32685W        W97912  12.362  14.087  13.893
32686W        W97913  39.873  13.194  10.716
32687W        W97914  37.018  10.758  12.067
32688W        W97915  17.572  30.563  13.281
32689W        W97916  37.621  24.264  14.791
32690W        W97917  21.762  21.017   1.969
32691W        W97918  27.950  34.019   0.793
32692W        W97919  37.193  26.112   1.751
32693W        W97920  35.374  35.922   5.468
32694W        W97921   8.776  12.941   2.754
32695W        W97922   6.253  18.574  12.802
32696W        W97923  11.159  11.813   3.257
32697W        W97924  44.821  24.076  13.468
32698W        W97925  39.293  19.596   0.933
32699W        W97926   8.265  30.635  11.865
32700W        W97927  43.903  21.026  12.391
32701W        W97928  11.710   5.583  12.506
32702W        W97929   7.211  44.095  12.173
32703W        W97930   0.402  21.248   2.615
32704W        W97931  31.658   8.857   0.953
32705W        W97932  10.219   7.898   3.214
32706W        W97933  39.956  44.510   0.935
32707W        W97934  44.450  38.478   0.278
32708W        W97935  30.917  42.379  11.148
32709W        W97936  16.021  35.984   4.062
32710W        W97937  21.137   8.348  10.733
32711W        W97938  28.050  41.554   4.383
32712W        W97939  31.580   4.366  14.242
32713W        W97940  11.587  16.652   1.835
32714W        W97941  18.283  23.912  12.556
32715W        W97942  21.739  10.182   0.789
32716W        W97943  22.138  23.420  12.387
32717W        W97944   1.444  17.054   4.565
32718W        W97945  21.144  28.189  13.282
32719W        W97946   4.298  38.559   4.125
32720W        W97947  15.603  26.489  12.055
32721W        W97948  29.996  37.814  13.985
32722W        W97949  37.305   0.152   1.132
32723W        W97950   1.918  39.777   1.413
32724W        W97951   8.356  33.914  10.625
32725W        W97952  28.485  32.152   4.303
32726W        W97953  36.665   3.866  13.110
32727W        W97954  37.827  40.321  14.249
32728W        W97955   4.615  26.884  11.140
32729W        W97956  11.303   1.351  12.233
32730W        W97957  27.059  10.580   3.354
32731W        W97958  31.379  30.354  10.748
32732W        W97959  16.729   4.874  13.937
32733W        W97960  19.563  42.347  12.507
32734W        W97961  30.120  26.552   0.296
32735W        W97962  11.621  34.496   1.302
32736W        W97963  23.015  38.574  14.062
32737W        W97964  23.952  13.306  11.992
32738W        W97965  40.230  17.173  12.401
32739W        W97966  39.905  13.624  11.511
32740W        W97967  29.821   6.233   0.192
32741W        W97968  21.010  14.897   1.015
32742W        W97969  28.694  44.836   0.400
32743W        W97970   8.115  27.450   2.027
32744W        W97971  36.348  32.543  12.556
32745W        W97972  25.614  13.709   1.841
32746W        W97973   8.711  12.123   3.723
32747W        W97974  22.972   6.830  12.014
32748W        W97975   5.207  34.086  11.631
32749W        W97976   0.638  38.458   3.364
32750W        W97977  41.091   3.137   3.845
32751W        W97978  17.031   3.912   0.886
32752W        W97979  30.844  10.473  11.609
32753W        W97980  30.646  32.855   2.302
32754W        W97981   1.614  18.486  13.419
32755W        W97982  35.719  41.700  13.050
32756W        W97983  15.599   6.783   4.050
32757W        W97984  37.408  18.020  12.008
32758W        W97985  37.460  22.071  11.619
32759W        W97986  31.509  18.737   2.680
32760W        W97987  22.951  20.018  13.896
32761W        W97988  42.874  44.510  14.068
32762W        W97989   3.833  23.075   4.593
32763W        W97990  28.961  44.390  10.609
32764W        W97991  24.636  24.014   1.762
32765W        W97992  18.758  12.773  14.892
32766W        W97993  21.048  14.207   4.739
32767W        W97994  10.119  42.533  13.216
32768W        W97995  11.285  40.239   1.367
32769W        W97996  10.766  12.139  12.054
32770W        W97997  24.099   7.251  12.897
32771W        W97998  37.375   3.025   3.623
32772W        W97999  41.546  10.533   2.794
32773W        W98000  42.869  37.811   4.054
32774W        W98001  27.281  13.251   4.158
32775W        W98002  42.311   8.580   2.239
32776W        W98003  35.871  14.708   1.351
32777W        W98004  18.062  10.807   0.518
32778W        W98005  44.316  19.887   4.129
32779W        W98006  18.315  24.133   0.052
32780W        W98007  18.779   1.785   4.353
32781W        W98008  20.705  40.554   0.399
32782W        W98009  29.085  18.520  14.951
32783W        W98010  15.824  22.764  14.188
32784W        W98011  18.489  14.770   4.205
32785W        W98012   1.559  11.128  14.819
32786W        W98013  24.979  21.414  10.683
32787W        W98014   1.366   2.189   1.229
32788W        W98015   6.359  33.975   3.344
32789W        W98016  20.028  12.805  14.028
32790W        W98017  41.345  33.783   3.238
32791W        W98018  20.591  25.652   4.177
32792W        W98019  42.637  27.043  11.916
32793W        W98020   4.432  43.817  14.425
32794W        W98021  40.293  15.740  12.506
32795W        W98022   4.170   1.347  11.575
32796W        W98023  16.824  29.646   4.218
32797W        W98024  17.263   7.045  11.058
32798W        W98025  22.017  41.024   4.084
32799W        W98026  42.308  30.797   4.348
32800W        W98027  37.102  13.610   3.345
32801W        W98028  20.352   7.613  13.712
32802W        W98029  19.705  30.885  14.111
32803W        W98030   4.010  32.055   0.726
32804W        W98031  25.969  39.024   0.840
32805W        W98032  10.716  22.262  14.842
32806W        W98033  41.259  24.314   3.129
32807W        W98034  10.203   6.970   1.907
32808W        W98035   3.189  43.693  12.118
32809W        W98036  35.835  10.678  12.567
32810W        W98037  15.066  32.413   2.758
32811W        W98038   9.222  24.404   2.058
32812W        W98039  40.046  11.578   1.943
32813W        W98040  28.677  16.724  13.914
32814W        W98041  18.060  42.385   2.747
32815W        W98042  27.666  15.212   1.916
32816W        W98043  37.227  30.932  14.988
32817W        W98044  33.081   0.273   2.730
32818W        W98045  10.006  12.097   1.870
32819W        W98046  42.498  17.718  13.794
32820W        W98047  11.299  15.013   0.230
32821W        W98048  30.501  20.684   1.035
32822W        W98049   0.444  35.717  11.974
32823W        W98050  37.989  43.495   1.488
32824W        W98051  16.645  21.482   2.401
32825W        W98052  22.576  28.447   0.230
32826W        W98053  22.528  20.061   3.086
32827W        W98054  11.391  18.400  10.275
32828W        W98055  19.609  38.271   0.859
32829W        W98056  33.325  10.180  11.149
32830W        W98057  35.286  15.001   4.393
32831W        W98058  23.314  16.702  13.878
32832W        W98059  21.495   7.656  11.320
32833W        W98060  40.594  20.693  13.663
32834W        W98061  43.161  28.632  14.035
32835W        W98062  20.757  40.370   4.584
32836W        W98063   5.559  16.097  12.440
32837W        W98064  21.476   1.704   4.585
32838W        W98065  18.011  44.641   1.463
32839W        W98066  13.663   7.696   2.631
32840W        W98067  36.478  10.355   1.081
32841W        W98068   9.402  40.814  13.041
32842W        W98069  21.149  11.586   4.217
32843W        W98070  21.117  23.650   1.517
32844W        W98071  39.091  30.035  14.094
32845W        W98072  39.153  28.303  14.395
32846W        W98073  14.333  21.517   0.227
32847W        W98074  30.674  29.024  11.052
32848W        W98075  21.513  20.568  10.732
32849W        W98076  43.799  37.518   4.208
32850W        W98077  21.022  32.938  14.730
32851W        W98078  17.237  35.771  11.119
32852W        W98079  37.124  44.036   0.900
32853W        W98080  24.134  26.639   4.729
32854W        W98081  36.481  21.705  12.444
32855W        W98082  21.045  22.151   2.047
32856W        W98083  33.893  24.546  11.589
32857W        W98084   0.286  36.874  10.744
32858W        W98085  24.010  22.496   2.347
32859W        W98086   8.237  26.234   0.690
32860W        W98087   3.447  36.650  10.636
32861W        W98088  22.765  11.047   2.852
32862W        W98089  19.084  32.443   3.341
32863W        W98090  29.679  44.851   3.943
32864W        W98091  42.534  39.470   3.307
32865W        W98092   3.975  31.158  12.044
32866W        W98093   4.361  15.320  12.011
32867W        W98094  10.636  27.403   1.422
32868W        W98095  29.528  22.431  11.116
32869W        W98096  43.215   2.848  13.065
32870W        W98097  14.864   7.732   4.785
32871W        W98098   1.900  20.392   4.082
32872W        W98099  29.500   1.501  10.035
32873W        W98100  22.539  26.938   1.866
32874W        W98101   1.501  38.517  14.515
32875W        W98102  15.348  26.502  13.573
32876W        W98103  15.271  39.627  13.618
32877W        W98104   0.442  41.299   4.497
32878W        W98105  28.409  37.324   5.046
32879W        W98106  30.380  34.342  11.239
32880W        W98107  43.645   4.914   5.031
32881W        W98108   2.927  36.044   3.393
32882W        W98109  44.574  41.402  12.565
32883W        W98110   9.759  30.379  11.660
32884W        W98111  26.895  29.830  11.443
32885W        W98112  26.163  15.669  12.706
32886W        W98113   5.892  19.686  11.269
32887W        W98114  29.246  42.027   2.245
32888W        W98115  16.970  20.749   1.829
32889W        W98116  24.487  10.623   2.443
32890W        W98117  37.645  21.971  13.087
32891W        W98118  20.119   2.938  10.075
32892W        W98119  14.100  24.611  11.651
32893W        W98120  36.272   7.883  11.591
32894W        W98121  41.747  13.990  11.157
32895W        W98122   6.269  25.267   2.193
32896W        W98123  22.843  42.413  13.808
32897W        W98124  14.215  18.193   0.687
32898W        W98125  30.669  28.436  14.009
32899W        W98126  22.747  22.499   0.431
32900W        W98127  39.762  34.781   2.252
32901W        W98128  30.571  40.685  14.878
32902W        W98129   3.612   4.245   2.854
32903W        W98130   7.447  31.224  11.717
32904W        W98131   3.432   8.306   4.658
32905W        W98132  38.574  33.049  13.752
32906W        W98133  39.252  22.509  14.329
32907W        W98134   8.396  16.050   3.334
32908W        W98135  12.658  35.268  11.190
32909W        W98136   0.243  43.465   5.103
32910W        W98137  10.416  14.640  14.419
32911W        W98138  28.138  30.963   2.835
32912W        W98139  23.525  28.151   2.049
32913W        W98140   8.395   7.239  13.069
32914W        W98141  18.237  12.616   0.005
32915W        W98142  15.831  38.500  12.136
32916W        W98143  14.501  38.577  12.412
32917W        W98144  21.801  33.294  14.904
32918W        W98145  42.876  38.491  12.600
32919W        W98146  24.237  22.592  12.407
32920W        W98147   4.713  30.176   0.099
32921W        W98148   6.102   3.408   3.847
32922W        W98149  11.787  42.722   0.927
32923W        W98150  17.294  42.243   3.950
32924W        W98151  32.375  15.577   0.354
32925W        W98152   8.758  42.503   0.339
32926W        W98153  39.459   1.353  12.986
32927W        W98154  18.629  30.522   2.631
32928W        W98155  23.519  29.657  13.798
32929W        W98156  39.000  44.110  10.740
32930W        W98157  40.978  42.166  13.976
32931W        W98158  17.075  11.582   3.109
32932W        W98159  26.712  43.140   0.204
32933W        W98160  34.787  14.282   4.251
32934W        W98161  36.372  33.411  13.657
32935W        W98162  42.140   0.874  12.931
32936W        W98163   2.846  24.588  13.534
32937W        W98164   4.385  38.814   4.588
32938W        W98165   2.613  30.094  11.883
32939W        W98166   7.215  34.678  11.185
32940W        W98167   8.800  14.002  14.258
32941W        W98168  12.177  30.931   9.913
32942W        W98169  13.928  19.614  12.073
32943W        W98170  36.088  10.011   0.929
32944W        W98171   5.659  43.436  14.560
32945W        W98172  43.325   7.770  13.835
32946W        W98173  12.514  29.628   0.316
32947W        W98174   7.751  21.711  12.809
32948W        W98175  15.242  30.691  14.787
32949W        W98176  25.561  42.904   2.084
32950W        W98177   2.163  16.090   2.058
32951W        W98178   8.291  20.774   4.375
32952W        W98179  19.339  38.613  14.441
32953W        W98180  32.313  11.799   0.552
32954W        W98181  15.720   9.812   4.684
32955W        W98182  22.986  27.486   1.173
32956W        W98183   0.704  13.268  14.170
32957W        W98184   3.626  44.027  13.899
32958W        W98185  29.233  24.219  13.136
32959W        W98186  27.539  35.093  14.873
32960W        W98187  42.363   1.169   1.185
32961W        W98188  41.538  42.930  14.881
32962W        W98189   5.697   4.259   3.506
32963W        W98190  36.954  42.292  14.847
32964W        W98191  32.807   8.121   1.635
32965W        W98192  13.219  13.871   4.924
32966W        W98193  29.727  24.969  11.605
32967W        W98194   8.416  41.901   1.823
32968W        W98195  35.815  36.345   0.108
32969W        W98196   4.596   3.636   2.307
32970W        W98197  17.656  40.603   3.766
32971W        W98198  32.926  28.128   0.594
32972W        W98199  15.056  24.162   0.769
32973W        W98200  36.249   4.334  13.084
32974W        W98201  27.471  38.537   3.289
32975W        W98202  43.363   1.511  11.997
32976W        W98203  14.690   0.493   0.840
32977W        W98204   2.282  39.290  14.982
32978W        W98205  41.495  38.932   3.336
32979W        W98206  42.496  30.951   1.800
32980W        W98207  20.879  31.643  14.191
32981W        W98208   3.343  39.891  13.044
32982W        W98209  14.560  11.856   0.853
32983W        W98210  34.075   8.952   1.872
32984W        W98211  43.318  25.026  11.631
32985W        W98212   8.688  14.800  11.992
32986W        W98213  39.959  30.301   1.568
32987W        W98214   7.942  22.727  12.937
32988W        W98215  34.896  27.468  14.340
32989W        W98216  30.112  13.744   1.838
32990W        W98217  16.384  24.889  13.926
32991W        W98218  40.288  23.016  10.720
32992W        W98219  26.953   3.941  11.635
32993W        W98220  27.103   2.785   2.301
32994W        W98221   3.277  10.629   2.202
32995W        W98222  20.086  41.811  11.234
32996W        W98223  20.216  18.203   4.029
32997W        W98224   9.226  42.937  14.525
32998W        W98225  14.206  37.423  14.597
32999W        W98226  20.067  24.416  10.457
33000W        W98227  26.374  10.035  10.907
33001W        W98228  20.762  38.042   3.830
33002W        W98229  43.616  34.008   0.206
33003W        W98230   6.293  31.080  11.256
33004W        W98231  10.596  29.052  12.664
33005W        W98232   1.768  14.153   1.001
33006W        W98233   9.687  31.912  13.617
33007W        W98234  32.636  39.974   3.053
33008W        W98235  11.554  42.257  11.306
33009W        W98236  14.275  13.798  10.734
33010W        W98237  20.949  25.528  10.545
33011W        W98238  38.475  32.018   4.494
33012W        W98239  21.560  10.785  12.996
33013W        W98240  20.299   3.072   3.781
33014W        W98241  41.807  29.955  13.535
33015W        W98242   3.416  33.312  10.855
33016W        W98243  39.435  28.677  13.987
33017W        W98244  40.687  26.037  11.687
33018W        W98245  19.534  29.716  13.594
33019W        W98246  26.026  16.771  13.528
33020W        W98247  13.479  25.695   4.895
33021W        W98248   8.762  40.897   1.429
33022W        W98249  15.453   8.756  14.934
33023W        W98250  22.256  32.991   3.194
33024W        W98251  33.071  20.562   3.390
33025W        W98252  25.630   9.325   3.415
33026W        W98253  27.673  23.929   4.688
33027W        W98254  24.505  28.213  13.464
33028W        W98255  31.977  44.256  14.411
33029W        W98256   4.847  27.631   1.710
33030W        W98257  44.296  33.847   3.781
33031W        W98258  37.686  18.468  13.900
33032W        W98259  37.443  27.297  14.728
33033W        W98260   2.471   7.450   0.980
33034W        W98261  40.811  27.462  13.662
33035W        W98262  24.008   6.836  10.100
33036W        W98263  17.541  35.918   1.274
33037W        W98264  24.305  40.593  11.220
33038W        W98265  38.861   7.887   1.320
33039W        W98266  17.391  24.020   3.304
33040W        W98267   6.255  38.978   5.038
33041W        W98268  30.471   0.321  14.619
33042W        W98269  31.665  21.131  11.107
33043W        W98270  20.982  42.345  10.673
33044W        W98271  27.712  17.093  11.543
33045W        W98272   5.635  26.735  11.146
33046W        W98273   0.459   9.312   3.677
33047W        W98274  12.594   1.488   3.114
33048W        W98275   2.611  40.283   0.321
33049W        W98276   5.435  24.642   1.466
33050W        W98277  13.905   8.707   2.233
33051W        W98278   8.676   2.487   3.374
33052W        W98279  40.808   8.418   0.103
33053W        W98280  39.876  14.324  13.597
33054W        W98281  38.550  15.226  13.620
33055W        W98282  11.217  10.747  14.434
33056W        W98283  14.479  35.524   0.252
33057W        W98284   3.668  41.292   2.263
33058W        W98285  27.316  20.087  11.580
33059W        W98286  30.170   5.429  11.281
33060W        W98287  44.350  17.703  12.653
33061W        W98288  22.655  41.052  13.548
33062W        W98289  24.524  17.191   3.344
33063W        W98290  22.625  13.240   0.909
33064W        W98291  22.424  32.715   1.100
33065W        W98292   6.792   3.428  11.394
33066W        W98293  33.313   4.727   4.983
33067W        W98294  28.025  29.209  12.654
33068W        W98295   2.139  44.532  12.934
33069W        W98296  17.454  23.168  10.875
33070W        W98297   0.294   4.815  13.510
33071W        W98298  15.456   5.530   3.843
33072W        W98299  40.735  14.176   1.241
33073W        W98300  25.031  14.723   0.242
33074W        W98301   4.328  44.984  11.616
33075W        W98302  25.230  21.201   0.969
33076W        W98303  18.886   1.478   0.439
33077W        W98304  28.200  38.888   0.364
33078W        W98305  17.189  29.857   3.243
33079W        W98306  15.643  30.390   1.038
33080W        W98307  25.663   8.383   2.243
33081W        W98308  32.607  23.584   0.836
33082W        W98309   8.142  24.160   3.630
33083W        W98310   6.133   4.495   3.336
33084W        W98311  17.754  39.434  10.035
33085W        W98312   1.164  30.168  11.014
33086W        W98313  15.676   3.816   0.504
33087W        W98314  32.395  33.141  13.354
33088W        W98315  31.402   3.305  14.966
33089W        W98316  26.272  27.128   3.134
33090W        W98317  37.426  10.981   2.786
33091W        W98318  25.567   6.407   4.837
33092W        W98319  31.463   4.154  13.802
33093W        W98320   2.461  16.677  12.696
33094W        W98321  23.470   3.192   2.105
33095W        W98322  13.601   4.036  14.937
33096W        W98323  26.121  41.548  13.494
33097W        W98324  18.899  22.755  13.192
33098W        W98325   7.699  21.231  13.020
33099W        W98326  23.946  27.691  10.752
33100W        W98327  35.831  39.318   0.682
33101W        W98328  13.886  20.569  12.943
33102W        W98329  27.545  38.465  10.621
33103W        W98330  23.029  20.158   0.632
33104W        W98331  30.095  32.423  14.871
33105W        W98332  24.285   5.437  12.778
33106W        W98333   6.995  32.568   4.727
33107W        W98334  24.958  25.258   1.646
33108W        W98335  22.008  22.292   3.741
33109W        W98336  30.131  25.477   1.832
33110W        W98337   1.509  32.163   0.293
33111W        W98338  18.809  21.115   1.710
33112W        W98339  36.472  23.248   4.790
33113W        W98340  11.430  19.085  14.504
33114W        W98341   0.397  41.023   4.052
33115W        W98342  16.561  19.086  12.620
33116W        W98343  25.479  13.959   1.063
33117W        W98344  29.989   8.926  12.062
33118W        W98345  27.752  33.088   3.117
33119W        W98346  20.114  41.408   4.144
33120W        W98347  28.917  40.512   0.512
33121W        W98348  30.890   1.519   4.155
33122W        W98349   8.969  12.816  11.015
33123W        W98350  26.949   0.459   3.589
33124W        W98351  38.749  20.751   3.609
33125W        W98352  11.549  19.607   3.339
33126W        W98353  39.904   8.958   1.120
33127W        W98354  21.259  14.682   4.027
33128W        W98355   9.620   8.372   3.906
33129W        W98356   9.774  37.162   1.938
33130W        W98357  11.944  11.739   1.662
33131W        W98358  26.344  43.924  14.851
33132W        W98359  20.379  12.248   0.334
33133W        W98360  37.978  15.625   4.616
33134W        W98361  37.410  15.099  11.545
33135W        W98362  36.065  36.908   3.071
33136W        W98363  28.557  43.279   1.929
33137W        W98364  20.663  40.029   0.436
33138W        W98365  27.006  41.319   0.311
33139W        W98366  38.280  23.788   4.712
33140W        W98367  22.717  29.411  13.077
33141W        W98368  39.107  14.593  10.999
33142W        W98369   8.846   3.096   4.871
33143W        W98370  23.450  27.252   3.205
33144W        W98371  19.526  43.281   0.754
33145W        W98372  37.931  23.279   1.977
33146W        W98373  26.527  32.823  13.740
33147W        W98374  30.102  38.464  14.371
33148W        W98375  19.186  20.293  13.726
33149W        W98376  14.857   5.744  14.825
33150W        W98377  33.618  20.629   2.225
33151W        W98378  20.207  42.906   0.398
33152W        W98379  35.428  40.521  10.692
33153W        W98380   9.135   2.226   3.212
33154W        W98381  11.781  20.091   0.110
33155W        W98382  28.095  32.360  11.958
33156W        W98383  30.077  33.128  11.608
33157W        W98384  11.714  22.641   2.129
33158W        W98385  43.925   0.797  12.410
33159W        W98386  22.050  24.038  14.494
33160W        W98387   1.373  20.109   1.345
33161W        W98388  22.515  31.893   1.706
33162W        W98389  30.931   7.621  13.436
33163W        W98390  32.554   4.246   0.941
33164W        W98391  34.018   6.275   4.310
33165W        W98392  24.646  21.433  11.135
33166W        W98393  34.613  31.977   0.928
33167W        W98394   8.622  11.578  13.526
33168W        W98395  43.951   6.812   4.345
33169W        W98396   7.177  15.585   1.036
33170W        W98397  25.280  23.416  11.606
33171W        W98398  26.548   1.944  14.280
33172W        W98399   3.395  25.322  14.456
33173W        W98400   5.151   3.856   1.209
33174W        W98401  13.240   5.868   0.630
33175W        W98402   5.407  20.114   2.477
33176W        W98403  14.885  38.202  14.902
33177W        W98404  38.035  25.148   5.185
33178W        W98405   2.080  41.789  10.154
33179W        W98406  16.722  37.474  12.886
33180W        W98407   6.391  41.022   0.462
33181W        W98408   4.220  14.548  12.086
33182W        W98409  39.501  22.617   2.012
33183W        W98410  42.345  11.652  14.194
33184W        W98411  16.609  31.165   4.630
33185W        W98412  14.396  38.906  11.229
33186W        W98413  43.638  18.694   0.395
33187W        W98414  10.233  44.002  12.889
33188W        W98415  11.732  37.872   3.829
33189W        W98416  24.797   9.695   2.268
33190W        W98417  27.130   6.227  11.450
33191W        W98418  39.365   6.631   3.529
33192W        W98419  42.854  30.369  14.746
33193W        W98420  37.958  43.534   4.064
33194W        W98421   7.720  42.523  13.223
33195W        W98422  41.603   3.119   0.766
33196W        W98423  35.532  34.385   3.443
33197W        W98424  34.468  15.615  11.687
33198W        W98425  31.189  14.686   3.207
33199W        W98426  44.558  30.056   0.582
33200W        W98427   6.880   3.860   4.211
33201W        W98428   9.310  25.694   3.164
33202W        W98429  44.217  20.132   2.044
33203W        W98430  38.569  39.580  11.761
33204W        W98431   3.012   3.406  13.892
33205W        W98432  23.557  14.363  14.983
33206W        W98433  29.130   3.008  11.191
33207W        W98434  30.650  25.971   2.356
33208W        W98435  29.151  15.897  14.248
33209W        W98436   6.673  14.101  12.541
33210W        W98437  13.652   0.663   1.230
33211W        W98438  20.342  19.782  14.461
33212W        W98439  10.801  35.576   0.834
33213W        W98440   0.064  24.034   1.220
33214W        W98441   5.816   1.862   0.464
33215W        W98442   6.360  33.950  11.997
33216W        W98443   0.899  22.395   0.384
33217W        W98444  15.542  15.238   1.693
33218W        W98445  13.089   9.168   4.496
33219W        W98446   1.065  25.024  11.621
33220W        W98447  17.495   6.882   1.842
33221W        W98448  31.654  37.546  12.970
33222W        W98449  34.018  36.388  14.753
33223W        W98450   9.101  32.439  10.909
33224W        W98451  42.248  44.341  12.570
33225W        W98452  25.703  16.600   4.051
33226W        W98453  16.688  12.430  10.399
33227W        W98454   3.386  44.306  10.176
33228W        W98455  26.549   1.040  11.871
33229W        W98456  15.094  33.301   0.408
33230W        W98457  36.310   2.540   1.702
33231W        W98458   9.847  34.618   0.492
33232W        W98459   7.843  13.813   2.958
33233W        W98460  21.455   1.854  10.665
33234W        W98461   7.432  31.825   0.107
33235W        W98462  14.608  33.965  11.368
33236W        W98463  14.618  38.159   4.165
33237W        W98464   8.144   6.057   2.833
33238W        W98465  10.272  10.806   0.272
33239W        W98466  11.816  44.410   1.492
33240W        W98467  19.725  13.287  10.846
33241W        W98468  11.611  21.290   0.028
33242W        W98469   7.457  27.434  13.549
33243W        W98470   0.629   0.434  13.827
33244W        W98471  40.563   9.834  14.495
33245W        W98472   8.678  35.301   4.703
33246W        W98473  32.766  43.700  14.026
33247W        W98474  42.170  32.610   3.151
33248W        W98475  17.128  30.964  10.530
33249W        W98476   6.955   4.230  13.570
33250W        W98477  29.126  15.238   1.939
33251W        W98478   0.291  13.269  14.584
33252W        W98479   6.084  22.991  14.480
33253W        W98480  30.323  37.584   2.727
33254W        W98481  22.705  17.165   1.549
33255W        W98482  12.343  43.358   4.239
33256W        W98483  37.443  22.985   1.853
33257W        W98484  19.369  26.539  11.185
33258W        W98485  31.722   0.328   0.402
33259W        W98486   2.957  22.298   0.050
33260W        W98487  30.773  26.942  12.073
33261W        W98488  32.678  31.830   3.122
33262W        W98489  39.978   5.458   3.665
33263W        W98490  40.541  38.412   1.461
33264W        W98491  33.946   9.341   2.249
33265W        W98492  12.697  42.898   2.276
33266W        W98493   0.484  43.761   5.483
33267W        W98494  41.903  33.172   0.117
33268W        W98495  28.721  17.080  11.596
33269W        W98496   7.378  42.143  12.848
33270W        W98497  16.708   7.941  14.438
33271W        W98498  37.577  25.843   1.502
33272W        W98499  30.400  25.516   2.261
33273W        W98500  39.527  12.767  12.465
33274W        W98501  23.416  25.456   4.520
33275W        W98502  10.267  34.683  11.408
33276W        W98503  39.617   4.349  12.086
33277W        W98504  11.914  42.852  11.008
33278W        W98505  33.400   0.881   4.439
33279W        W98506  24.855  24.598   0.902
33280W        W98507  32.623  31.659   0.852
33281W        W98508  17.356   3.706   1.696
33282W        W98509  22.871  44.838  12.387
33283W        W98510  30.962  43.701   2.779
33284W        W98511  38.237   4.813   4.213
33285W        W98512  14.904  30.088  12.591
33286W        W98513  43.733  28.500   9.772
33287W        W98514  43.937   9.546  11.360
33288W        W98515  24.350  37.809  10.706
33289W        W98516  15.610  27.929  10.747
33290W        W98517  38.846  21.399  13.004
33291W        W98518  30.162  19.671   4.495
33292W        W98519  31.141  24.076   4.716
33293W        W98520   5.155  38.439  13.537
33294W        W98521  35.795  24.658   1.787
33295W        W98522  15.053  23.726  14.978
33296W        W98523  30.056  28.513   0.827
33297W        W98524  35.853  27.879   3.385
33298W        W98525  43.795   3.679  13.043
33299W        W98526  29.919   5.219   2.115
33300W        W98527  33.345  33.806  14.976
33301W        W98528  14.581   3.386   4.316
33302W        W98529   9.720  25.479  11.578
33303W        W98530  29.768  14.886   4.056
33304W        W98531  34.947   4.732   4.419
33305W        W98532  26.681  38.509  12.255
33306W        W98533  44.223  17.592  14.958
33307W        W98534   7.305  44.899   1.848
33308W        W98535  23.834  23.589  14.353
33309W        W98536  23.962  39.399  10.769
33310W        W98537   0.808  11.504   0.294
33311W        W98538  24.566   5.262   0.326
33312W        W98539  40.258  35.037   1.443
33313W        W98540  16.877  43.372  10.203
33314W        W98541  15.086  39.871   2.226
33315W        W98542  25.178  28.905  13.370
33316W        W98543  15.742  30.967   2.497
33317W        W98544  11.355  30.920  10.601
33318W        W98545  39.488  13.953  13.504
33319W        W98546   1.738  33.813  11.187
33320W        W98547  37.639   6.896   2.393
33321W        W98548  24.555  10.317  14.564
33322W        W98549  12.247   1.865   3.224
33323W        W98550   4.683  27.205  14.014
33324W        W98551  39.005  32.062   3.080
33325W        W98552  29.934   1.142  11.740
33326W        W98553  19.951   1.024  13.062
33327W        W98554   6.448  34.664  10.815
33328W        W98555  36.934  17.729  13.715
33329W        W98556  22.173  22.869  12.373
33330W        W98557  32.462  34.844  13.131
33331W        W98558   3.483  29.111   2.507
33332W        W98559  35.156  28.409  12.837
33333W        W98560  17.977  14.089   3.655
33334W        W98561   2.484  26.399  12.434
33335W        W98562  22.744  30.800  13.951
33336W        W98563  19.299  34.425   0.019
33337W        W98564  30.840  20.663   3.311
33338W        W98565  12.104  16.126  10.629
33339W        W98566  36.823  39.244  11.494
33340W        W98567  36.567   6.578   4.134
33341W        W98568   6.812   6.392   4.618
33342W        W98569  18.604  34.989   4.508
33343W        W98570  29.414  44.939   2.447
33344W        W98571  38.856   0.902  11.234
33345W        W98572  12.954   9.261  10.751
33346W        W98573  33.140  15.239  10.876
33347W        W98574  35.850  10.180   3.110
33348W        W98575  13.128  28.970   5.101
33349W        W98576  18.832   5.387  14.091
33350W        W98577  25.956  13.831  14.894
33351W        W98578   5.688  30.961  10.591
33352W        W98579  31.383   0.912  14.076
33353W        W98580  25.723  40.255   2.422
33354W        W98581  20.620  18.536  13.926
33355W        W98582  22.032   9.344   3.181
33356W        W98583  43.300  21.775   3.164
33357W        W98584   2.091   8.048  13.312
33358W        W98585  21.549  43.871   1.371
33359W        W98586  15.723   2.403  11.849
33360W        W98587  26.464  22.079   1.331
33361W        W98588  41.354   9.750   3.222
33362W        W98589  39.276   1.949   3.838
33363W        W98590  30.448   6.784   3.785
33364W        W98591  11.804  40.291   2.117
33365W        W98592  34.158  39.332   2.173
33366W        W98593  38.020  35.836  12.837
33367W        W98594   0.544  40.527  12.670
33368W        W98595   7.847  19.196   2.234
33369W        W98596  19.668  42.526   1.290
33370W        W98597  35.200  43.925  14.597
33371W        W98598  44.999  39.751   0.324
33372W        W98599  36.050   9.932   4.917
33373W        W98600  17.021  21.481  12.075
33374W        W98601  27.756  13.181  14.283
33375W        W98602   8.866  10.194   2.234
33376W        W98603  21.792  41.466  13.622
33377W        W98604  37.087  42.661   0.751
33378W        W98605   9.780  13.091   0.072
33379W        W98606  15.292   7.178  10.611
33380W        W98607  20.625  22.573  12.920
33381W        W98608  33.617  19.996   4.586
33382W        W98609  16.224  37.310   3.249
33383W        W98610  16.939  22.730   1.651
33384W        W98611  27.170  23.439   1.365
33385W        W98612  36.407   2.469   2.241
33386W        W98613  39.900  25.568   3.608
33387W        W98614   4.351  10.219   2.752
33388W        W98615  26.247   1.796  12.154
33389W        W98616   3.415  22.744   0.793
33390W        W98617  12.830  19.447   2.883
33391W        W98618  20.665  37.779  11.207
33392W        W98619  39.825  27.690  14.719
33393W        W98620  13.251  37.467  13.881
33394W        W98621  13.514  19.337  10.733
33395W        W98622  21.781  32.186   0.883
33396W        W98623  15.916  39.299  14.885
33397W        W98624  21.183   4.167   4.033
33398W        W98625   3.341  24.448  11.609
33399W        W98626  19.446  21.693   2.474
33400W        W98627   8.437  28.338  11.564
33401W        W98628  23.625  43.699   2.209
33402W        W98629  31.103   5.852   2.328
33403W        W98630   1.884  31.919   0.013
33404W        W98631  29.487   2.240  14.372
33405W        W98632   9.967  18.200  12.995
33406W        W98633  24.696  17.894  12.043
33407W        W98634  13.287  25.339   1.493
33408W        W98635   6.839  43.232   1.833
33409W        W98636  20.424  22.747   4.374
33410W        W98637  21.138  42.903   1.837
33411W        W98638  37.026  14.640   3.266
33412W        W98639   1.827  13.134   3.852
33413W        W98640  14.225  34.357   4.453
33414W        W98641  41.936  21.141  10.579
33415W        W98642  23.139  11.169  10.851
33416W        W98643   7.208  31.680   3.729
33417W        W98644  26.684  27.645   2.333
33418W        W98645  20.164   9.123  14.387
33419W        W98646  13.264   7.123   1.722
33420W        W98647  43.184  17.172   2.570
33421W        W98648  15.868  33.086   0.812
33422W        W98649  22.896  16.348   4.721
33423W        W98650  38.409  24.666   4.403
33424W        W98651  18.636  42.912   4.528
33425W        W98652   3.326  34.398  11.016
33426W        W98653  16.117  33.165   0.351
33427W        W98654   6.967   7.078  13.373
33428W        W98655   5.920  22.261  11.040
33429W        W98656  14.649   3.958  14.118
33430W        W98657  32.253  17.365   9.743
33431W        W98658  37.820  37.571   3.246
33432W        W98659  20.162  35.612  10.203
33433W        W98660   4.231  14.685   4.114
33434W        W98661  14.342  31.677  14.884
33435W        W98662  23.460   1.488  12.902
33436W        W98663  17.075  34.026  10.349
33437W        W98664  17.084   3.936  12.408
33438W        W98665  43.949  19.807  10.845
33439W        W98666  21.294  43.529  13.458
33440W        W98667  15.737  15.655  13.769
33441W        W98668  36.434  35.502  14.734
33442W        W98669   6.862   4.898  12.887
33443W        W98670  32.296  30.486  14.738
33444W        W98671  25.687  24.429   4.733
33445W        W98672   6.499   3.637  12.534
33446W        W98673  10.666  14.779  12.080
33447W        W98674  10.606  18.528   0.810
33448W        W98675  10.846  31.852   9.831
33449W        W98676  43.326   9.596   2.880
33450W        W98677  18.516  27.905   0.319
33451W        W98678  24.063  16.988  14.303
33452W        W98679  15.203  38.331   3.855
33453W        W98680  14.455  30.905   4.413
33454W        W98681  41.499  11.572   3.527
33455W        W98682  31.178   6.569  12.013
33456W        W98683  11.233  27.224  11.547
33457W        W98684  13.896  38.509   3.141
33458W        W98685  15.812   7.721  12.182
33459W        W98686  38.847  25.240   2.290
33460W        W98687  39.002   2.446   4.685
33461W        W98688  44.675  31.253   0.809
33462W        W98689  26.299   6.502   1.771
33463W        W98690  25.607   6.320   1.740
33464W        W98691  11.300   5.319  14.860
33465W        W98692  10.170  29.065  14.151
33466W        W98693  43.832  21.684   2.755
33467W        W98694  24.666  23.604   2.878
33468W        W98695   1.223  29.923   1.413
33469W        W98696   4.953   0.472  14.404
33470W        W98697  36.603   9.936   1.493
33471W        W98698  27.128  15.668   0.429
33472W        W98699  10.062  33.625   4.213
33473W        W98700   7.228  34.078  14.975
33474W        W98701  40.999  33.372   3.099
33475W        W98702   3.329  36.966  11.959
33476W        W98703  15.132  26.187   0.228
33477W        W98704  37.598  40.409   4.923
33478W        W98705  12.351  35.743   4.941
33479W        W98706  27.926  29.054   3.613
33480W        W98707  39.391   4.521   0.227
33481W        W98708  18.016  26.620  14.432
33482W        W98709   0.123  24.596  12.544
33483W        W98710  34.512  32.595  12.045
33484W        W98711   6.839   7.414   4.648
33485W        W98712   8.333  34.253   4.718
33486W        W98713   7.945  28.240  14.254
33487W        W98714   8.406   7.242  12.106
33488W        W98715   5.791  34.419   3.125
33489W        W98716  36.520  30.910   4.531
33490W        W98717  14.148  11.136  14.450
33491W        W98718  21.191  27.033   1.416
33492W        W98719  28.556   1.660   2.220
33493W        W98720  16.666  44.166   4.241
33494W        W98721   3.766  38.014   2.466
33495W        W98722  42.387  30.162  12.471
33496W        W98723  43.320   7.260  13.084
33497W        W98724  43.267  10.939   4.108
33498W        W98725  15.581  11.597   4.064
33499W        W98726  39.537  20.101   2.670
33500W        W98727  14.338  22.936  12.358
33501W        W98728  30.031  37.099   3.111
33502W        W98729  26.096  29.926   1.864
33503W        W98730  24.876  13.505  12.929
33504W        W98731  17.525  11.675  12.010
33505W        W98732  31.511  44.372  11.723
33506W        W98733  41.961  24.516   0.727
33507W        W98734  28.639  18.913  11.159
33508W        W98735  11.253  38.789  12.430
33509W        W98736   7.593  44.267   4.589
33510W        W98737  39.597  30.151   3.116
33511W        W98738  39.522  30.194  12.099
33512W        W98739  34.460  27.558  11.601
33513W        W98740  43.707  42.897   3.285
33514W        W98741  14.044  13.825   3.285
33515W        W98742  40.799  33.488  12.522
33516W        W98743  32.028   7.322   4.521
33517W        W98744   8.971  26.906   2.704
33518W        W98745   8.950  32.808   0.416
33519W        W98746   1.884  35.275  10.992
33520W        W98747  33.904  29.999  14.402
33521W        W98748  26.135  37.435  14.903
33522W        W98749  39.458  32.047   1.940
33523W        W98750  24.890  10.480   4.465
33524W        W98751  12.573   8.051   1.432
33525W        W98752  38.035  41.419   3.851
33526W        W98753  34.969  37.590  13.486
33527W        W98754  34.119  11.408  12.088
33528W        W98755  16.967   6.815   4.974
33529W        W98756   6.780   5.705   0.830
33530W        W98757   3.027  11.792   0.746
33531W        W98758  26.075  23.513   2.357
33532W        W98759  19.820  16.667   0.479
33533W        W98760   4.261  16.523   3.586
33534W        W98761  37.960  26.950  12.945
33535W        W98762  25.755  42.963   2.549
33536W        W98763   9.211  10.447   3.628
33537W        W98764  13.306   2.985  13.953
33538W        W98765   3.791  20.604  12.029
33539W        W98766  44.315   1.628  11.011
33540W        W98767  42.950   4.051   3.266
33541W        W98768  25.925  30.027   3.864
33542W        W98769   8.801  11.874   4.171
33543W        W98770  11.861  32.628  14.370
33544W        W98771  43.243  35.401   3.799
33545W        W98772   3.860   7.361   1.869
33546W        W98773  37.561  11.799   0.856
33547W        W98774   5.965   0.944   3.169
33548W        W98775  26.958  42.272   1.040
33549W        W98776   7.917  22.160   0.834
33550W        W98777  11.368   4.088   1.661
33551W        W98778  37.565  12.263  12.552
33552W        W98779  14.937   0.216   3.011
33553W        W98780  41.480  40.421  10.842
33554W        W98781  42.811  41.364  13.865
33555W        W98782  39.976  33.579   0.946
33556W        W98783  39.318  23.501  12.491
33557W        W98784  32.412   7.181   1.810
33558W        W98785  32.821   0.311  14.043
33559W        W98786  35.492  28.545  10.458
33560W        W98787   7.557  17.155   2.163
33561W        W98788  13.172  38.547   0.292
33562W        W98789  38.096  17.630  13.565
33563W        W98790   7.883  26.386  10.413
33564W        W98791   7.027  24.211   0.953
33565W        W98792  30.461  35.563   1.685
33566W        W98793  19.615   1.486   0.962
33567W        W98794  33.834   8.403  12.672
33568W        W98795  21.190  11.390   1.192
33569W        W98796  12.152  28.607   4.693
33570W        W98797  31.797  30.552   3.876
33571W        W98798  43.667  15.272  14.001
33572W        W98799  35.012  15.305  14.335
33573W        W98800  14.689   2.191   1.825
33574W        W98801  20.249  12.778   2.713
33575W        W98802  15.218  13.753   2.786
33576W        W98803   1.566  28.529   4.803
33577W        W98804  40.832  20.581   2.682
33578W        W98805  25.726   7.412   4.959
33579W        W98806  20.167   4.355   4.061
33580W        W98807  20.815  38.366  12.136
33581W        W98808  40.086  43.707  11.347
33582W        W98809  35.142  11.297  12.096
33583W        W98810   4.707  39.851   3.656
33584W        W98811   4.566  41.176   0.826
33585W        W98812  31.881  39.479  12.489
33586W        W98813  26.337  20.127   3.650
33587W        W98814  13.609  44.306  14.147
33588W        W98815  18.251  30.105  11.546
33589W        W98816  37.851  13.283   3.814
33590W        W98817  21.226  12.346  14.004
33591W        W98818  10.777  26.813  14.355
33592W        W98819  39.080  34.458  12.477
33593W        W98820  17.119  33.956   3.285
33594W        W98821   9.759  24.390  10.680
33595W        W98822   9.251  32.732  14.127
33596W        W98823  20.614   3.859  12.816
33597W        W98824   2.223   1.737  12.659
33598W        W98825   3.860  35.953   3.629
33599W        W98826  26.555  14.215   5.435
33600W        W98827   0.552  29.976  13.465
33601W        W98828   2.169   5.552  11.119
33602W        W98829   3.368   8.348   0.505
33603W        W98830  14.279  28.866  10.625
33604W        W98831  44.956  32.611  12.661
33605W        W98832  26.615   2.454   2.931
33606W        W98833  37.644  34.811   1.506
33607W        W98834  27.237  21.288   3.585
33608W        W98835  15.969  41.901   5.004
33609W        W98836  17.362  30.234  11.173
33610W        W98837  36.357  30.158  13.579
33611W        W98838  15.684  26.140  13.411
33612W        W98839  40.990  20.847   1.129
33613W        W98840  15.406  36.829   2.224
33614W        W98841  35.145  31.950  10.326
33615W        W98842  16.128  32.973  13.465
33616W        W98843   7.466  40.904  10.422
33617W        W98844  10.240  13.448   2.828
33618W        W98845  22.495   4.618   0.642
33619W        W98846  25.292  35.791   4.518
33620W        W98847  23.929  41.068   4.875
33621W        W98848  36.018  17.968   0.333
33622W        W98849  29.648   8.849   0.034
33623W        W98850  27.898  35.706  10.715
33624W        W98851  11.065  38.890  14.761
33625W        W98852  39.343  37.710   2.218
33626W        W98853  16.221   4.876   4.122
33627W        W98854  18.153  20.084  13.289
33628W        W98855  39.725  21.435  10.862
33629W        W98856  13.148  38.866  11.690
33630W        W98857  32.962  18.855   2.362
33631W        W98858   1.052  31.799  10.049
33632W        W98859  40.595  21.337   0.443
33633W        W98860  29.500  32.550  10.421
33634W        W98861  38.697   8.875  13.055
33635W        W98862   6.937  38.356  11.374
33636W        W98863   5.452  39.459   2.677
33637W        W98864  35.554   3.814   0.340
33638W        W98865   4.996  24.128   0.841
33639W        W98866  27.024  37.494  11.890
33640W        W98867  36.055  40.822   2.246
33641W        W98868  38.832  17.794   0.756
33642W        W98869  22.621  27.121   1.389
33643W        W98870   8.199  42.983   1.216
33644W        W98871  39.222  31.610   3.244
33645W        W98872   9.240  20.768   3.256
33646W        W98873   5.492  19.412   3.787
33647W        W98874  28.408  13.624   1.506
33648W        W98875  33.160  24.410   4.545
33649W        W98876  31.536  10.265  13.012
33650W        W98877  19.991  38.404   1.528
33651W        W98878  43.966  20.008   3.683
33652W        W98879  20.231  42.288  13.935
33653W        W98880  11.186  21.002  10.748
33654W        W98881  39.459  13.099  11.030
33655W        W98882  35.374  27.389   0.059
33656W        W98883   5.725  17.398  13.038
33657W        W98884   6.854  40.955   3.605
33658W        W98885  29.377  33.758   4.179
33659W        W98886   1.941  28.539  11.018
33660W        W98887   2.705  30.198  13.091
33661W        W98888  43.128   7.165   9.689
33662W        W98889   1.494  17.289   1.386
33663W        W98890  19.767  26.191  10.660
33664W        W98891  37.505  14.642   1.818
33665W        W98892  31.117  42.902  10.071
33666W        W98893  13.412   8.372   0.957
33667W        W98894  44.787   3.208   3.133
33668W        W98895  13.256  43.390   4.180
33669W        W98896  34.125  29.411   3.405
33670W        W98897   2.133  28.562  11.889
33671W        W98898  31.588  13.105  13.061
33672W        W98899  20.076  27.384  12.057
33673W        W98900  17.513  37.830  10.545
33674W        W98901  31.846  30.376  11.561
33675W        W98902  16.971   9.267  11.669
33676W        W98903  25.517  23.969   4.956
33677W        W98904  32.055  43.067   0.781
33678W        W98905  28.713  14.340   1.476
33679W        W98906  27.508   6.281  14.966
33680W        W98907  44.946   2.832   1.767
33681W        W98908  38.601   2.119   3.718
33682W        W98909   9.895   4.665  12.548
33683W        W98910  14.594  13.408   4.229
33684W        W98911  18.077  10.750  11.142
33685W        W98912  19.237  23.933   2.752
33686W        W98913  17.218  24.963  12.498
33687W        W98914  20.698  30.026   1.858
33688W        W98915  18.572  13.378   4.992
33689W        W98916  19.409  13.170  13.864
33690W        W98917  20.289   4.909   1.332
33691W        W98918  38.329  15.914   2.263
33692W        W98919  29.717  44.251  11.061
33693W        W98920  21.538   6.877   4.039
33694W        W98921   5.227   8.954  14.253
33695W        W98922  22.212  37.019  11.247
33696W        W98923  38.310  37.106   0.403
33697W        W98924  37.803  23.230   3.311
33698W        W98925   2.409  36.839  12.498
33699W        W98926  32.344  39.582   3.218
33700W        W98927  41.721  25.117   4.904
33701W        W98928  23.600  26.212   4.059
33702W        W98929   6.786  10.602   4.141
33703W        W98930  35.562  10.631  12.121
33704W        W98931   4.900  16.862   3.196
33705W        W98932  34.502  14.594   2.649
33706W        W98933  20.426  30.089   1.387
33707W        W98934  28.725   7.621   1.304
33708W        W98935  31.060  10.859  11.296
33709W        W98936   0.485   2.168  11.301
33710W        W98937  42.450  14.725  11.369
33711W        W98938  33.956  13.398  11.989
33712W        W98939  15.870  20.265  12.946
33713W        W98940   9.604   5.835   1.188
33714W        W98941  33.088  42.577   2.818
33715W        W98942   8.198   8.657   1.822
33716W        W98943  37.479   3.494  12.411
33717W        W98944  25.016  42.945   3.755
33718W        W98945   9.112   7.272   3.362
33719W        W98946  10.818  41.333  14.010
33720W        W98947  10.547  20.963   1.449
33721W        W98948  41.019  30.867   4.523
33722W        W98949  10.734  19.253  10.893
33723W        W98950   3.163  16.122   1.161
33724W        W98951  41.454   8.853  13.591
33725W        W98952   4.623  20.653  13.572
33726W        W98953  29.166   5.741  12.012
33727W        W98954  22.177  22.312  14.055
33728W        W98955  25.801  24.183   2.908
33729W        W98956  22.049  18.219  13.409
33730W        W98957  39.639  34.287   0.320
33731W        W98958  27.760  42.437   4.672
33732W        W98959  37.488  22.122   0.647
33733W        W98960   0.473  31.560   0.974
33734W        W98961  11.770  19.574   0.937
33735W        W98962  41.436  12.426   0.861
33736W        W98963   3.425  19.041   2.089
33737W        W98964  18.149  43.441   4.373
33738W        W98965  22.994  38.805  13.121
33739W        W98966  32.003  31.117   3.721
33740W        W98967  16.752  28.631  10.704
33741W        W98968  33.618   5.770  10.912
33742W        W98969  17.529  43.378   3.612
33743W        W98970  37.209  39.048   4.855
33744W        W98971  24.756  25.301  13.933
33745W        W98972  30.468   8.509  10.865
33746W        W98973   2.318  28.494   2.324
33747W        W98974  41.387   2.807   4.147
33748W        W98975  25.125   5.095   4.675
33749W        W98976  18.602  21.632   1.685
33750W        W98977   2.327  25.000  13.962
33751W        W98978   1.760  32.379   4.352
33752W        W98979  43.232  16.751  14.393
33753W        W98980  10.541  32.251   1.760
33754W        W98981  36.527  19.253  10.721
33755W        W98982   5.278  37.351  13.346
33756W        W98983  27.567  16.676   4.654
33757W        W98984  31.196  19.703  14.407
33758W        W98985   0.791  37.437  13.864
33759W        W98986  16.114   3.771  11.514
33760W        W98987  28.481  15.929   4.029
33761W        W98988  40.788  10.925  11.459
33762W        W98989  20.651  27.991  14.421
33763W        W98990  28.922  12.609   4.043
33764W        W98991  29.818   8.723   4.618
33765W        W98992  16.561   1.899   1.864
33766W        W98993  16.151  19.895  12.574
33767W        W98994  14.667  28.728   3.172
33768W        W98995  10.051  34.281   0.138
33769W        W98996  27.436   4.956  14.945
33770W        W98997  24.646   7.194   4.265
33771W        W98998  16.063   6.080   3.653
33772W        W98999  35.136  31.203  12.836
33773W        W99000  33.314  33.441  13.302
33774W        W99001   8.631  21.771  11.210
33775W        W99002  40.859   8.987   3.864
33776W        W99003   4.721   3.346   0.251
33777W        W99004  35.848   6.827  12.458
33778W        W99005   6.536  18.908  10.318
33779W        W99006  14.607  33.670  11.910
33780W        W99007  41.107  30.982  10.911
33781W        W99008  32.946  20.954   2.688
33782W        W99009  40.599  44.334  13.456
33783W        W99010  14.095  26.640  13.324
33784W        W99011  38.341  42.225  14.739
33785W        W99012  40.960  17.018   3.245
33786W        W99013  34.964  20.941  13.941
33787W        W99014  40.541  22.274   2.956
33788W        W99015   1.068  31.461  12.059
33789W        W99016   1.928  28.974   0.746
33790W        W99017   8.115  17.594  12.945
33791W        W99018  34.836  42.781   4.608
33792W        W99019  16.038   3.369   3.987
33793W        W99020  42.245   3.482   2.847
33794W        W99021  29.202  10.475  11.978
33795W        W99022  29.719   9.343   0.172
33796W        W99023  27.105  30.063   0.391
33797W        W99024  23.004  33.865   2.515
33798W        W99025   6.715  23.696   3.144
33799W        W99026  43.787   8.383   3.587
33800W        W99027  23.333  35.904   4.447
33801W        W99028  17.647  35.592   0.834
33802W        W99029  12.257  18.343  14.022
33803W        W99030  38.969  29.808  12.609
33804W        W99031  18.515  12.765   1.922
33805W        W99032  29.884  30.328   2.718
33806W        W99033  37.086  22.575   2.265
33807W        W99034   1.405  11.974   4.009
33808W        W99035   7.215   1.011  11.884
33809W        W99036  17.942   2.679  11.697
33810W        W99037  42.124   6.729  10.295
33811W        W99038   0.423   0.135  13.443
33812W        W99039   3.382  37.883   2.142
33813W        W99040  21.606  12.158   4.330
33814W        W99041  41.258  28.447   0.385
33815W        W99042   6.871  13.345   4.187
33816W        W99043  33.654  13.356   0.747
33817W        W99044  39.532  12.218  14.018
33818W        W99045  43.287  13.611  11.243
33819W        W99046  40.739  26.720  12.098
33820W        W99047   0.454  39.926  13.788
33821W        W99048   6.984  30.623  10.741
33822W        W99049  26.171  27.148  13.602
33823W        W99050  30.172  14.412   1.267
33824W        W99051  32.835  23.062  14.804
33825W        W99052  34.269  24.514   1.748
33826W        W99053  42.496  17.225  14.445
33827W        W99054  38.120  12.601  12.547
33828W        W99055  34.610  23.457  13.471
33829W        W99056   4.618  11.610   4.144
33830W        W99057  44.811  33.590   2.191
33831W        W99058   9.320   8.827  11.814
33832W        W99059   1.891  35.231  13.357
33833W        W99060  21.560   5.410   4.088
33834W        W99061  38.037  36.108   4.473
33835W        W99062  27.218  34.416   1.699
33836W        W99063  31.953  19.488  13.695
33837W        W99064  22.228  44.189  14.389
33838W        W99065  16.600   9.351   0.853
33839W        W99066  36.734  33.874  12.110
33840W        W99067   2.274  19.072   0.199
33841W        W99068  27.675  37.969  11.223
33842W        W99069  10.710   0.764   3.167
33843W        W99070  36.431  37.228   4.549
33844W        W99071  15.661   3.222   2.811
33845W        W99072  28.135  42.591  11.985
33846W        W99073  26.572   3.160  11.660
33847W        W99074  34.932   5.696   4.707
33848W        W99075  10.257  33.623  13.833
33849W        W99076   7.742  29.745  13.056
33850W        W99077   7.921  12.156   3.231
33851W        W99078  35.843  42.575  13.819
33852W        W99079  23.120   7.888   1.916
33853W        W99080  23.712  33.410  13.950
33854W        W99081  18.310  36.441   0.772
33855W        W99082  26.764  31.719   3.211
33856W        W99083   9.457  41.488  11.206
33857W        W99084  31.195  31.128   3.947
33858W        W99085   7.881  14.312   0.751
33859W        W99086   3.423   9.249   0.537
33860W        W99087  19.365  30.387  12.659
33861W        W99088  22.257  22.239  11.646
33862W        W99089  16.317  31.443   4.085
33863W        W99090  26.065  33.058   4.559
33864W        W99091   3.765  26.269   0.041
33865W        W99092  39.780  26.538  13.399
33866W        W99093  14.624  19.501   4.670
33867W        W99094   8.854  43.527   4.115
33868W        W99095  33.175  18.607   3.717
33869W        W99096  20.719   6.169   4.168
33870W        W99097  40.057   5.915  11.572
33871W        W99098   7.603  28.266   4.103
33872W        W99099   5.588   6.463  12.080
33873W        W99100  30.142  38.429  11.656
33874W        W99101   7.349  20.979  11.171
33875W        W99102  19.743  43.184  11.122
33876W        W99103  30.862  44.986  12.715
33877W        W99104  24.617   2.217  12.011
33878W        W99105  15.072   9.398  14.454
33879W        W99106   5.739  44.547   1.233
33880W        W99107  34.081  14.778  12.104
33881W        W99108  28.450  40.741   0.631
33882W        W99109  42.844  20.744   0.599
33883W        W99110  31.486  31.523   4.183
33884W        W99111  10.699   1.401  10.660
33885W        W99112  36.057  32.816   3.335
33886W        W99113   4.875  26.612   4.091
33887W        W99114   4.525   8.747   0.841
33888W        W99115  13.724  23.234  13.549
33889W        W99116   3.936  26.078   4.758
33890W        W99117  28.697  35.501  11.128
33891W        W99118  19.371  19.697   4.839
33892W        W99119  31.444  29.747   3.786
33893W        W99120   8.843   5.457   3.183
33894W        W99121  42.251   9.740  11.998
33895W        W99122   4.583   6.390  12.584
33896W        W99123  17.333   4.253  10.751
33897W        W99124  39.870  30.416   2.569
33898W        W99125   6.296  32.515   2.135
33899W        W99126   6.209  15.273   2.528
33900W        W99127  38.417  10.107   2.775
33901W        W99128   2.214  42.842  13.400
33902W        W99129  12.632  39.312  13.347
33903W        W99130  32.616  13.830  14.748
33904W        W99131  33.416  39.070   3.291
33905W        W99132  44.048  43.104  10.438
33906W        W99133  25.896  24.943  11.448
33907W        W99134   6.760   8.973   4.606
33908W        W99135  30.645  25.173  10.640
33909W        W99136  44.492  12.774   3.492
33910W        W99137   8.872  29.017   1.846
33911W        W99138   2.194   4.282   3.680
33912W        W99139   1.033  39.265   1.704
33913W        W99140  40.919  16.613   3.574
33914W        W99141  21.588  23.168  11.269
33915W        W99142  12.714  38.375   4.632
33916W        W99143  11.839  39.825   3.019
33917W        W99144  18.733   6.470   0.728
33918W        W99145  44.257  18.590  14.380
33919W        W99146   7.758   4.411  12.930
33920W        W99147   9.418   6.385  11.685
33921W        W99148  29.528  43.934  12.867
33922W        W99149  35.796  36.835   1.346
33923W        W99150  13.490   6.013  12.103
33924W        W99151  28.427  27.131  11.718
33925W        W99152   4.365  42.686  10.698
33926W        W99153  41.132  44.260   2.139
33927W        W99154  43.519  39.776   4.385
33928W        W99155  16.721  43.909   1.275
33929W        W99156  33.114  32.561  13.502
33930W        W99157   8.298  37.917   3.924
33931W        W99158  16.321   9.416   3.632
33932W        W99159  28.747  11.007  11.616
33933W        W99160  20.148   8.834   4.761
33934W        W99161  25.326   6.426  14.870
33935W        W99162  16.139  43.047   4.487
33936W        W99163  13.674  26.629   1.265
33937W        W99164  23.830  14.187  11.090
33938W        W99165  31.867   5.299   4.634
33939W        W99166   8.691  33.889  11.955
33940W        W99167  29.561  44.825  13.014
33941W        W99168  21.117  34.139  12.488
33942W        W99169  25.920  32.099   3.078
33943W        W99170   3.528  24.774   4.825
33944W        W99171   0.512  14.581   4.765
33945W        W99172  30.352  31.427  13.355
33946W        W99173  24.580  18.094  14.863
33947W        W99174  26.199  20.606  10.837
33948W        W99175  11.249  38.581   3.197
33949W        W99176   6.495  21.795  13.298
33950W        W99177  17.882  21.506  12.436
33951W        W99178  32.020   9.644   3.005
33952W        W99179   5.820  37.175   2.974
33953W        W99180  44.031  13.569   2.193
33954W        W99181   6.281   7.378   0.879
33955W        W99182   0.061  19.474  13.023
33956W        W99183   6.625  15.096   3.199
33957W        W99184  35.660   6.935   3.252
33958W        W99185  26.161  12.588  11.995
33959W        W99186  32.472  33.891   4.798
33960W        W99187  35.039  34.082  13.430
33961W        W99188   3.964   2.931   0.848
33962W        W99189  30.085   9.716   1.769
33963W        W99190  42.253  43.951  14.196
33964W        W99191  35.292  24.100  10.418
33965W        W99192  28.553  34.770   2.346
33966W        W99193  39.157  15.248  11.867
33967W        W99194   1.106   6.112  13.044
33968W        W99195  21.951   1.512  13.234
33969W        W99196   1.309   1.083   4.245
33970W        W99197  13.124  37.238  10.316
33971W        W99198   6.488   3.454   0.023
33972W        W99199  31.061  22.692  11.893
33973W        W99200  16.470  19.786   0.539
33974W        W99201  28.463  36.448  13.529
33975W        W99202  16.014  41.367  13.586
33976W        W99203   9.342  21.712   1.673
33977W        W99204   5.418  30.614  12.338
33978W        W99205  16.305  22.593  12.439
33979W        W99206   3.745  39.262   1.713
33980W        W99207  36.632  43.877  14.354
33981W        W99208  42.459  17.256   1.254
33982W        W99209  14.266  28.635   3.552
33983W        W99210   1.778  31.501  11.199
33984W        W99211  31.514   2.931  13.269
33985W        W99212  33.905  25.960  12.886
33986W        W99213  25.619  23.603  12.761
33987W        W99214  39.358  28.243  10.327
33988W        W99215  42.212  44.509   3.657
33989W        W99216  24.137  42.917   3.538
33990W        W99217  34.061  11.670  14.852
33991W        W99218  34.824  26.651   3.245
33992W        W99219  20.070  10.080  12.955
33993W        W99220  13.537  39.484   3.011
33994W        W99221  14.484  29.129  12.537
33995W        W99222  31.462  16.718  10.690
33996W        W99223  39.335  12.153   4.194
33997W        W99224   1.490  44.893   3.188
33998W        W99225  10.674  33.388  12.030
33999W        W99226   4.460  29.408   0.460
34000W        W99227  38.081  25.574   4.873
34001W        W99228   5.705  16.738  14.325
34002W        W99229   0.172  26.041   5.001
34003W        W99230  11.942   1.473   1.288
34004W        W99231  18.116  30.709  12.585
34005W        W99232  23.886  23.565  11.295
34006W        W99233  23.974  17.629   2.540
34007W        W99234  22.996   2.323   0.270
34008W        W99235  21.010  23.512   0.006
34009W        W99236  43.148   7.710  12.862
34010W        W99237   2.829   9.591   4.556
34011W        W99238   9.760   8.078   3.442
34012W        W99239  38.481  40.520   3.193
34013W        W99240  18.325  12.830   2.834
34014W        W99241  44.006  37.149  14.507
34015W        W99242  40.874  24.232  11.907
34016W        W99243   1.457  18.557   1.317
34017W        W99244   6.204   4.715   2.018
34018W        W99245  32.613  20.096   0.693
34019W        W99246  44.202  40.532  13.522
34020W        W99247  11.800  41.756   1.792
34021W        W99248  38.870  27.587   2.758
34022W        W99249  24.253   4.378  13.772
34023W        W99250   7.889  43.012  11.074
34024W        W99251  16.645  15.256   2.936
34025W        W99252   0.997  29.549   3.261
34026W        W99253  35.571   5.910   3.732
34027W        W99254  32.692   3.751  12.798
34028W        W99255  23.105  27.247   0.502
34029W        W99256  16.375  24.963   4.209
34030W        W99257  24.216  44.387   0.363
34031W        W99258  14.616   5.202  12.027
34032W        W99259  27.561  18.046  13.591
34033W        W99260  25.231  36.613  13.885
34034W        W99261   2.247   7.446  14.281
34035W        W99262  42.898   6.206   1.625
34036W        W99263  42.465  39.730  12.624
34037W        W99264  37.066   0.142  12.500
34038W        W99265  16.206  33.937   1.330
34039W        W99266  44.266   0.354   4.516
34040W        W99267   1.299  25.895  10.409
34041W        W99268  28.137  22.677   5.001
34042W        W99269  42.391  24.763  11.507
34043W        W99270  11.669  15.995  10.838
34044W        W99271  20.792  36.479   2.383
34045W        W99272  33.148  33.889  12.023
34046W        W99273   2.917  29.474  12.448
34047W        W99274   6.536  34.369   3.642
34048W        W99275  28.583  28.539   1.804
34049W        W99276  23.819  24.185  13.844
34050W        W99277  38.595  38.004   3.083
34051W        W99278   6.629  20.237  11.671
34052W        W99279  16.524  34.125   0.360
34053W        W99280  18.186  12.413   4.412
34054W        W99281  37.274  39.048   2.101
34055W        W99282  13.798  17.235  12.436
34056W        W99283  13.356  36.545   4.529
34057W        W99284   7.554  30.548   0.255
34058W        W99285   5.282  18.770   2.675
34059W        W99286  43.712  36.572  12.050
34060W        W99287  22.583  27.187  12.350
34061W        W99288  18.694  30.444   0.621
34062W        W99289  34.923   4.907   0.820
34063W        W99290  31.662  41.870   1.455
34064W        W99291  17.057  30.897   4.617
34065W        W99292  27.531  12.841   2.284
34066W        W99293  30.967   8.136   1.961
34067W        W99294  29.548  13.731  13.682
34068W        W99295   2.205  22.031  11.034
34069W        W99296  36.376   7.331  14.998
34070W        W99297   0.827  43.882   1.223
34071W        W99298  33.856  18.708   0.920
34072W        W99299   9.974   8.643  11.995
34073W        W99300  33.908   0.786   4.613
34074W        W99301  21.156  13.417   4.973
34075W        W99302  42.165   7.811   4.111
34076W        W99303  20.517  34.346   0.796
34077W        W99304   7.799   8.320  12.916
34078W        W99305  22.158  11.577  14.911
34079W        W99306  28.178  22.115  10.939
34080W        W99307   6.240  38.454   0.706
34081W        W99308   7.758  10.362  10.169
34082W        W99309  27.641  31.124  13.981
34083W        W99310  20.077   3.368  10.633
34084W        W99311  27.533  37.490  12.067
34085W        W99312  17.716  44.354  11.514
34086W        W99313  19.410   5.665  14.156
34087W        W99314  14.272   6.295   3.270
34088W        W99315  22.540  35.022  13.372
34089W        W99316  39.489  22.517   3.301
34090W        W99317  21.256  14.509  10.218
34091W        W99318   3.389   9.954  13.786
34092W        W99319  21.683  20.330   4.630
34093W        W99320  15.154  41.262   0.903
34094W        W99321   7.376   9.615  14.048
34095W        W99322   3.592  15.364   5.062
34096W        W99323  19.585   5.197  12.429
34097W        W99324   8.103  19.256   3.531
34098W        W99325   2.639  32.798  11.058
34099W        W99326   3.666   0.328  13.450
34100W        W99327   6.197   2.400  13.500
34101W        W99328  12.766  17.846   4.371
34102W        W99329  13.100  42.830   3.245
34103W        W99330  27.943  37.806   2.749
34104W        W99331  35.138  22.736  10.720
34105W        W99332   8.339  32.432   5.364
34106W        W99333  17.101  35.395  11.769
34107W        W99334  36.887  15.693  12.046
34108W        W99335  41.429  23.068  11.585
34109W        W99336  33.906  21.000  10.458
34110W        W99337   6.884  20.146   2.695
34111W        W99338  38.902   6.956  12.253
34112W        W99339   7.445  11.447   3.615
34113W        W99340   0.249   0.776   3.679
34114W        W99341  35.332  24.430  12.629
34115W        W99342  27.667  10.385   4.142
34116W        W99343  41.321   7.768   2.209
34117W        W99344  39.140  40.906   2.211
34118W        W99345   3.975  13.644   0.917
34119W        W99346  18.691  21.043  12.452
34120W        W99347  12.119  30.446   0.481
34121W        W99348  20.005   1.432  12.594
34122W        W99349  12.766  13.587  14.453
34123W        W99350  30.930  10.786   4.675
34124W        W99351  16.020   6.164  10.143
34125W        W99352   0.796  27.626  14.055
34126W        W99353  36.098  38.021  14.206
34127W        W99354  38.463  43.181   0.171
34128W        W99355  38.538  21.846  13.835
34129W        W99356   5.386  27.382  11.843
34130W        W99357  32.333  25.655   3.127
34131W        W99358  25.569  33.857  14.028
34132W        W99359   6.760  28.209  10.787
34133W        W99360  31.066  43.448  11.595
34134W        W99361  27.136   8.920  14.493
34135W        W99362  19.971  16.348  11.986
34136W        W99363  18.338  42.384  13.352
34137W        W99364  40.020   6.150   3.123
34138W        W99365  44.303  25.228  11.548
34139W        W99366  16.522  44.697   0.052
34140W        W99367  22.742  38.418   0.965
34141W        W99368   5.347   3.962   0.301
34142W        W99369   4.314   2.889  12.708
34143W        W99370  36.907  43.541  10.430
34144W        W99371  32.497  10.201  11.962
34145W        W99372  37.660   8.845  11.394
34146W        W99373  17.206  27.453  14.930
34147W        W99374  18.586  29.069   2.617
34148W        W99375   1.360  20.155  10.507
34149W        W99376  44.305  37.135   2.731
34150W        W99377  41.375   6.817   2.158
34151W        W99378   6.802   1.133  11.536
34152W        W99379  20.476  19.195  14.799
34153W        W99380  39.204  29.400   0.399
34154W        W99381   5.311  25.391  11.681
34155W        W99382  22.542   7.946   0.385
34156W        W99383  41.434  15.310  13.840
34157W        W99384  29.806  39.481   4.199
34158W        W99385  14.565  26.661   1.059
34159W        W99386  36.483  44.030  14.991
34160W        W99387  36.358  10.845  12.542
34161W        W99388   0.370   8.875  12.071
34162W        W99389  15.989  39.430   1.223
34163W        W99390  42.929  30.661  11.012
34164W        W99391  40.957  28.412  14.027
34165W        W99392  39.486  10.577   0.251
34166W        W99393  13.512   5.760  11.633
34167W        W99394  40.010  12.838  14.975
34168W        W99395  38.956   2.930   0.855
34169W        W99396  22.842  33.265   1.713
34170W        W99397   6.162   8.702  11.836
34171W        W99398   0.818  26.574   2.085
34172W        W99399   5.344  43.305   3.616
34173W        W99400  25.994  11.055   4.696
34174W        W99401  42.552  36.208  12.616
34175W        W99402  30.592  40.346   3.782
34176W        W99403  39.236   5.005  11.971
34177W        W99404  43.034   9.476  13.006
34178W        W99405  37.356  43.864  11.670
34179W        W99406  34.105   4.377   4.584
34180W        W99407  19.848  37.633   3.649
34181W        W99408  38.468  31.845   2.808
34182W        W99409  30.098  31.372   3.453
34183W        W99410  35.840  33.210   3.594
34184W        W99411  19.463  32.691  12.910
34185W        W99412  15.173   6.820   0.421
34186W        W99413  35.694  43.720  10.938
34187W        W99414  18.271  26.937  12.589
34188W        W99415   1.892  14.853  11.126
34189W        W99416   9.097  19.734  11.103
34190W        W99417  21.176   8.786   5.003
34191W        W99418  38.241  11.174   3.063
34192W        W99419   8.537   6.781   2.152
34193W        W99420  22.945   7.354   2.823
34194W        W99421  42.508  25.651  13.898
34195W        W99422  15.077  32.610   0.919
34196W        W99423  10.916  10.865   2.749
34197W        W99424   7.237  22.543  14.431
34198W        W99425  19.878  28.042  14.013
34199W        W99426  15.073  32.320  10.249
34200W        W99427  15.203  26.939   1.274
34201W        W99428  28.564  16.012  12.818
34202W        W99429  21.534  16.694   1.470
34203W        W99430  18.210  37.589   2.234
34204W        W99431  31.548   1.881   3.358
34205W        W99432  20.766   1.974   3.651
34206W        W99433   0.346  35.400  13.338
34207W        W99434  31.674  27.669  14.934
34208W        W99435  15.979  17.255   0.447
34209W        W99436  17.753  38.347   0.995
34210W        W99437  32.929  32.458  14.005
34211W        W99438   0.157  25.001   2.564
34212W        W99439  26.124  15.927   1.548
34213W        W99440   6.683  12.030  10.747
34214W        W99441  39.612  22.941   4.613
34215W        W99442  44.327  34.154  11.026
34216W        W99443  37.791   9.417   3.168
34217W        W99444   6.036  43.002  10.101
34218W        W99445   3.784  27.418  14.490
34219W        W99446  23.700  28.631   4.909
34220W        W99447  37.192   1.162   4.355
34221W        W99448  44.766  39.021  11.304
34222W        W99449   3.613  42.261  13.797
34223W        W99450   6.804  31.374  13.314
34224W        W99451  29.471  24.074   1.883
34225W        W99452  34.650   4.895   1.250
34226W        W99453  42.745  25.740   0.004
34227W        W99454  10.728  21.640  12.033
34228W        W99455  27.415  16.721  13.341
34229W        W99456  20.272  18.228  12.388
34230W        W99457  18.607  11.339  11.582
34231W        W99458  32.608   9.863   1.311
34232W        W99459  30.329  24.805  13.543
34233W        W99460  40.372  14.300  11.008
34234W        W99461  13.847  36.113   2.026
34235W        W99462  16.156  14.185   0.658
34236W        W99463  20.611  20.944   3.306
34237W        W99464   3.799  12.643   4.363
34238W        W99465  36.195  30.073   3.593
34239W        W99466  26.935  41.211  13.995
34240W        W99467  15.387  14.506  12.311
34241W        W99468  10.333  20.044  11.240
34242W        W99469   6.418  13.843  13.381
34243W        W99470  19.072  38.344  14.067
34244W        W99471  37.833  16.363  11.521
34245W        W99472  36.854  30.735   3.120
34246W        W99473  26.181  13.603  12.117
34247W        W99474  29.822  15.188   2.284
34248W        W99475  20.022  34.417   4.312
34249W        W99476   0.519  37.602   2.177
34250W        W99477  27.469  36.823  12.510
34251W        W99478  41.277  33.882  13.454
34252W        W99479   1.035  13.740   3.043
34253W        W99480  36.609  36.473  12.877
34254W        W99481  22.609   3.833   3.664
34255W        W99482   2.715  32.657   3.998
34256W        W99483  27.469  16.427   2.210
34257W        W99484  30.432   7.274   4.688
34258W        W99485   3.433   5.363  14.949
34259W        W99486  26.067   2.035  13.436
34260W        W99487  25.743  27.269   4.106
34261W        W99488  31.619   7.806  10.706
34262W        W99489   2.222  22.037  13.196
34263W        W99490  21.128  26.621   0.219
34264W        W99491  29.583   5.910  13.799
34265W        W99492   1.570  38.025  14.349
34266W        W99493  13.861  27.880   3.402
34267W        W99494  12.473  21.057  10.700
34268W        W99495  42.572  33.631  13.478
34269W        W99496  38.152  38.329   4.169
34270W        W99497  23.173  17.128   1.348
34271W        W99498  10.158  26.211  11.778
34272W        W99499  12.248   1.683  11.651
34273W        W99500   4.996  44.883   4.167
34274W        W99501  26.177  25.040  13.114
34275W        W99502   9.385   8.927  13.828
34276W        W99503  21.617  28.146  14.203
34277W        W99504   6.811  21.566   2.638
34278W        W99505   1.985   9.169   2.295
34279W        W99506  13.132  39.862  10.673
34280W        W99507  17.611  20.756   4.110
34281W        W99508  23.186   5.250   2.137
34282W        W99509   4.783  23.992   2.231
34283W        W99510  33.634  20.776   3.236
34284W        W99511  37.606  11.717   1.721
34285W        W99512  39.038  15.201   3.306
34286W        W99513  17.961  40.908   0.353
34287W        W99514   9.911  28.633  13.401
34288W        W99515  33.549   0.886   3.455
34289W        W99516  30.461  41.438  14.744
34290W        W99517  26.572  29.974   0.196
34291W        W99518  34.431  40.405   4.069
34292W        W99519  44.046  40.069   4.128
34293W        W99520  38.668  39.718  14.903
34294W        W99521  38.366   4.791  13.969
34295W        W99522  41.058  33.082   1.529
34296W        W99523   8.348  27.443  14.059
34297W        W99524  44.367  44.252  12.968
34298W        W99525  19.330  38.768   3.215
34299W        W99526   3.355  26.265   0.369
34300W        W99527   6.485   3.355   5.011
34301W        W99528  11.698  26.478   4.640
34302W        W99529  10.675  42.527  14.787
34303W        W99530  30.192   4.545   4.394
34304W        W99531   9.884  10.162   4.793
34305W        W99532  25.205  36.401   5.180
34306W        W99533  25.594  38.320   1.897
34307W        W99534  40.758  19.686  12.073
34308W        W99535  16.705  39.352  11.392
34309W        W99536  31.472  18.173   3.756
34310W        W99537  33.080  25.620  11.875
34311W        W99538  15.261  42.370   2.860
34312W        W99539  30.523  10.683  11.940
34313W        W99540  11.687  39.538  11.967
34314W        W99541   1.264  29.404   1.384
34315W        W99542  20.536  14.817  12.817
34316W        W99543  21.237   2.342   3.116
34317W        W99544  36.393  20.711   1.241
34318W        W99545  15.195  37.797   2.208
34319W        W99546  27.241   5.976   2.829
34320W        W99547  22.558  36.454   0.541
34321W        W99548  34.976  23.760   4.734
34322W        W99549   8.319   4.935  11.867
34323W        W99550  18.204  18.756   2.655
34324W        W99551  17.308  33.538  11.528
34325W        W99552  31.229  25.946  10.505
34326W        W99553  44.870  27.868  14.987
34327W        W99554   8.095  32.783   1.303
34328W        W99555  25.916   7.086  14.773
34329W        W99556  27.151   3.890  14.967
34330W        W99557  38.418  15.600   4.305
34331W        W99558  37.435  22.448  12.922
34332W        W99559  12.120  18.166  13.014
34333W        W99560  37.965   4.537  10.584
34334W        W99561  28.709  18.568   3.392
34335W        W99562  26.998  40.704  13.800
34336W        W99563  39.279  17.612   0.500
34337W        W99564  14.798  10.124  10.284
34338W        W99565   5.827  31.011  11.505
34339W        W99566   4.311  23.925  14.317
34340W        W99567   6.670  25.683   0.287
34341W        W99568  43.092  40.147  11.430
34342W        W99569  39.858  12.596   3.551
34343W        W99570   6.676  15.464  14.000
34344W        W99571  25.591  32.884   3.635
34345W        W99572  28.013  14.149   0.373
34346W        W99573  17.629   0.933  11.488
34347W        W99574  38.371  11.508   0.355
34348W        W99575  11.785  12.205   4.227
34349W        W99576  32.453  26.104   9.830
34350W        W99577   6.773  29.595  10.853
34351W        W99578   5.748  11.098  14.545
34352W        W99579   4.283  41.989   2.131
34353W        W99580   2.480  27.969  12.491
34354W        W99581  24.623  32.960  13.996
34355W        W99582  27.004  43.327   3.368
34356W        W99583  41.742  17.328   1.707
34357W        W99584  23.188  34.459   0.853
34358W        W99585   0.400  38.242   0.063
34359W        W99586  25.969  30.708  14.545
34360W        W99587  34.555  10.553   4.052
34361W        W99588  31.741  21.969  14.547
34362W        W99589  30.898  36.177  13.316
34363W        W99590  19.771   8.935   3.779
34364W        W99591  25.679  17.236   2.817
34365W        W99592  33.045  12.342   1.916
34366W        W99593   0.907   1.903   2.620
34367W        W99594  43.915  26.151  12.266
34368W        W99595  26.174  33.882   1.455
34369W        W99596   2.457  21.644   2.737
34370W        W99597  22.986  37.929  10.750
34371W        W99598  15.781  40.572  13.772
34372W        W99599  21.506  30.192  13.771
34373W        W99600  31.503  38.556   0.950
34374W        W99601   5.693  18.753  12.424
34375W        W99602  33.570  31.166   0.254
34376W        W99603   0.815  34.354  10.256
34377W        W99604  36.513  21.162  12.369
34378W        W99605  17.151  44.169   1.227
34379W        W99606   5.493  21.228  13.490
34380W        W99607   7.814  44.703  12.576
34381W        W99608   2.340   2.692  14.011
34382W        W99609  33.936   5.817  12.682
34383W        W99610  42.599  34.167   3.347
34384W        W99611  38.457  25.843  10.644
34385W        W99612  43.516  23.944   1.703
34386W        W99613  39.323   8.140   1.256
34387W        W99614  32.285  24.047  12.927
34388W        W99615   9.679  21.602   0.331
34389W        W99616  38.045  14.264  14.974
34390W        W99617   8.943  18.315  14.029
34391W        W99618   1.826  20.743  14.661
34392W        W99619  44.024  34.097   4.170
34393W        W99620   8.640  30.406   2.753
34394W        W99621  38.939  44.283   0.779
34395W        W99622  14.166  42.587   0.944
34396W        W99623   7.952  37.527   2.251
34397W        W99624  44.300  22.115  10.985
34398W        W99625  17.984  39.109   2.282
34399W        W99626  30.242  21.622   2.457
34400W        W99627  12.594  23.220  14.510
34401W        W99628  24.575  25.749  12.486
34402W        W99629  27.201  34.581  12.072
34403W        W99630  44.379  32.139   3.464
34404W        W99631   9.537   4.919   2.579
34405W        W99632  34.308  11.891  12.136
34406W        W99633   0.983  43.477   0.933
34407W        W99634  27.314   0.789   1.274
34408W        W99635  19.358  24.546  14.486
34409W        W99636   9.342  25.442  12.089
34410W        W99637  19.514  20.218   0.298
34411W        W99638  22.255  38.854   3.132
34412W        W99639   7.186   9.410  13.135
34413W        W99640   5.007  35.167   4.197
34414W        W99641  27.949  39.365  14.465
34415W        W99642  30.073  41.879   3.161
34416W        W99643  33.297  21.399  13.977
34417W        W99644   4.948  27.123   2.657
34418W        W99645  23.628   0.507  14.955
34419W        W99646  44.358  30.739  10.095
34420W        W99647  40.110  31.909  13.373
34421W        W99648  14.063  27.413   0.029
34422W        W99649  21.214  10.348  11.520
34423W        W99650  31.690  30.342  14.400
34424W        W99651  38.449  36.171  10.768
34425W        W99652  39.080  44.052  14.942
34426W        W99653  33.066  15.758  10.983
34427W        W99654  22.262  28.771  12.136
34428W        W99655  36.743  20.541  13.507
34429W        W99656  23.547   2.260   1.660
34430W        W99657   6.244  38.002   2.733
34431W        W99658  34.096  43.067   0.335
34432W        W99659  43.728  18.565  14.540
34433W        W99660  35.859  43.482   3.961
34434W        W99661  42.830   0.281   0.981
34435W        W99662  15.386   7.286   4.201
34436W        W99663   8.898  15.086   2.379
34437W        W99664  36.978  23.545   2.581
34438W        W99665  19.936  26.617   0.365
34439W        W99666   3.258   7.644  13.314
34440W        W99667  33.362  22.534  12.365
34441W        W99668  25.679  19.555   2.447
34442W        W99669  13.848  38.442   0.716
34443W        W99670  41.995   1.392  12.937
34444W        W99671  32.284   8.685   4.536
34445W        W99672  41.577  34.914  10.807
34446W        W99673  20.175  37.598  12.331
34447W        W99674   5.925  14.715  10.382
34448W        W99675  37.515  24.000   1.778
34449W        W99676  35.649  41.372   4.539
34450W        W99677  35.457   7.697  10.910
34451W        W99678  19.108  33.900  11.583
34452W        W99679  19.456   3.884  14.687
34453W        W99680  30.405  39.961   2.306
34454W        W99681  44.301   2.871   0.460
34455W        W99682  34.073   9.283   2.755
34456W        W99683  43.482   8.160  10.072
34457W        W99684   6.787  20.607   0.818
34458W        W99685  20.298   1.648   3.727
34459W        W99686  35.162  22.775   0.111
34460W        W99687  34.126   2.947   3.713
34461W        W99688  34.854   2.716   3.347
34462W        W99689  19.709  15.556  14.381
34463W        W99690  36.167  25.583  14.983
34464W        W99691  35.457  27.510  14.566
34465W        W99692   2.196  20.120   1.702
34466W        W99693  21.289  20.188   2.328
34467W        W99694  41.647  36.040  14.278
34468W        W99695  18.559  18.994  14.923
34469W        W99696  26.191  25.720  12.552
34470W        W99697   7.784  25.903  10.531
34471W        W99698  15.546  20.620   0.788
34472W        W99699  23.446  11.293  11.251
34473W        W99700  28.628  39.590   3.144
34474W        W99701  21.315  42.464  14.805
34475W        W99702   1.281   2.947  10.811
34476W        W99703  16.092   9.184  13.769
34477W        W99704  16.810  34.569  11.604
34478W        W99705   6.450  16.271   2.738
34479W        W99706  17.024  33.085  14.419
34480W        W99707   4.363   7.921   1.942
34481W        W99708  41.418  34.804   2.419
34482W        W99709  21.941  30.008  13.971
34483W        W99710   6.946  34.732   4.754
34484W        W99711  10.000  44.358   0.230
34485W        W99712   0.520  22.801   3.550
34486W        W99713  28.396   3.936   3.626
34487W        W99714  38.661  40.426   3.809
34488W        W99715   0.278  41.784  14.321
34489W        W99716  31.201  27.176  11.815
34490W        W99717   0.723  41.374   0.246
34491W        W99718   1.390  20.063  11.815
34492W        W99719  15.819   8.778  13.937
34493W        W99720   0.276  20.442  11.229
34494W        W99721   0.753   4.215  12.396
34495W        W99722  44.863  12.830   4.749
34496W        W99723  40.031  39.437   2.339
34497W        W99724  13.008  43.699  12.699
34498W        W99725   0.872  33.610   2.272
34499W        W99726   1.656   9.275   4.017
34500W        W99727  30.109  16.946  11.472
34501W        W99728  35.562  42.783  11.701
34502W        W99729  26.719  16.477   4.103
34503W        W99730   3.316  28.393  11.959
34504W        W99731  21.287  28.888  13.978
34505W        W99732  20.175  26.635   5.032
34506W        W99733  14.746  42.483  11.845
34507W        W99734  44.451   6.132   3.933
34508W        W99735  20.783   4.182   3.122
34509W        W99736  35.297  12.671  12.018
34510W        W99737  13.882  30.936   3.714
34511W        W99738  34.256  38.332  11.974
34512W        W99739   1.401   8.330   2.418
34513W        W99740  10.291   8.895  12.704
34514W        W99741  16.831  24.983  10.728
34515W        W99742   4.083  31.472  12.433
34516W        W99743  42.216  25.695  11.873
34517W        W99744   0.853  42.800   5.301
34518W        W99745  24.083  36.793   3.178
34519W        W99746  33.932  35.386  12.120
34520W        W99747  22.532  33.822  10.690
34521W        W99748  23.205  38.594   0.341
34522W        W99749   9.280  21.115  14.966
34523W        W99750  19.322  39.120   4.079
34524W        W99751  19.681  38.577  11.058
34525W        W99752  11.979  16.811  11.140
34526W        W99753  34.410  19.041   4.106
34527W        W99754  43.832   5.924   4.844
34528W        W99755  32.844  40.661  13.776
34529W        W99756  18.410  23.703  11.104
34530W        W99757  21.130   7.609   3.232
34531W        W99758   5.090  40.508   2.335
34532W        W99759  38.844  27.394   4.259
34533W        W99760   0.681  15.560  12.818
34534W        W99761   9.334  44.876   2.076
34535W        W99762   6.140  21.045  11.603
34536W        W99763  22.064   1.447  12.734
34537W        W99764  44.979  30.399  13.950
34538W        W99765  16.520   0.141  13.803
34539W        W99766  43.365  44.307   1.861
34540W        W99767  32.299   3.950   4.098
34541W        W99768  30.140   4.788   2.855
34542W        W99769   3.457   0.700  14.769
34543W        W99770  35.332  17.371  11.640
34544W        W99771  28.161  32.413  14.836
34545W        W99772  36.525  40.473   1.883
34546W        W99773  24.552   1.592  10.319
34547W        W99774  20.877   3.186   3.129
34548W        W99775  36.518  17.809   0.412
34549W        W99776  27.620  10.913   0.691
34550W        W99777   5.642  33.591  11.409
34551W        W99778  13.348  44.827   4.094
34552W        W99779  44.046  24.765   1.782
34553W        W99780  15.058  40.274  11.182
34554W        W99781  34.815   0.781  13.056
34555W        W99782  28.776  43.507  11.143
34556W        W99783  21.079  42.489   3.348
34557W        W99784  31.113  30.167  14.296
34558W        W99785   8.976  44.684  11.490
34559W        W99786  12.763  11.048  13.419
34560W        W99787  23.532  19.029   3.213
34561W        W99788  12.400  36.795   3.692
34562W        W99789   3.001  15.613  10.993
34563W        W99790  19.269  23.209  11.943
34564W        W99791  43.565  42.447   0.488
34565W        W99792   8.178   0.718  11.145
34566W        W99793  33.847  20.523  11.840
34567W        W99794  32.628   5.653  11.566
34568W        W99795  20.808  30.898  14.796
34569W        W99796  32.985  17.188   3.653
34570W        W99797  30.561  43.663  11.589
34571W        W99798  14.871   0.877   3.744
34572W        W99799  13.674  35.051  12.028
34573W        W99800  41.348   8.268   1.596
34574W        W99801   3.992  31.911  13.927
34575W        W99802  18.254   6.688  11.590
34576W        W99803  14.708  37.954   1.672
34577W        W99804  34.509  39.397   4.023
34578W        W99805  12.229  31.934  10.758
34579W        W99806   5.654  28.226   1.719
34580W        W99807  34.388  33.057   1.312
34581W        W99808  17.634  26.667   3.037
34582W        W99809   8.227  29.563  10.810
34583W        W99810  38.272  43.540   3.642
34584W        W99811  39.241   3.994  12.087
34585W        W99812  35.122  20.234   0.720
34586W        W99813  23.148  40.086   1.193
34587W        W99814  43.769  35.393   0.449
34588W        W99815   7.384  14.709  14.781
34589W        W99816  42.860  12.885   0.458
34590W        W99817  32.112  13.128   0.301
34591W        W99818   6.526   8.939  13.570
34592W        W99819  39.301  14.982   1.663
34593W        W99820  27.421  15.634   1.744
34594W        W99821  36.653  16.552   1.014
34595W        W99822   8.768  25.505   0.340
34596W        W99823  36.574   4.287  14.780
34597W        W99824  32.936   1.262  14.816
34598W        W99825   5.429  28.098  10.659
34599W        W99826  28.144  32.329   2.807
34600W        W99827   9.296  36.998   2.105
34601W        W99828  13.418  14.888   0.097
34602W        W99829  23.238   9.914   1.736
34603W        W99830  18.242  44.299   3.158
34604W        W99831  24.669  30.109   4.153
34605W        W99832   7.412  13.674  11.054
34606W        W99833  24.018  32.367   4.166
34607W        W99834  11.616  42.786  14.523
34608W        W99835   4.645  34.510  10.705
34609W        W99836  34.787  29.104   4.965
34610W        W99837  12.804  40.533  12.426
34611W        W99838  16.118   3.731  11.013
34612W        W99839  44.483  44.701  12.016
34613W        W99840  26.534  36.029  10.387
34614W        W99841  32.341  38.859   0.896
34615W        W99842  36.476  20.126   0.764
34616W        W99843  30.893   9.331  10.721
34617W        W99844   8.806  25.375  13.525
34618W        W99845  13.244  19.290  14.239
34619W        W99846   6.987   3.378  11.862
34620W        W99847  24.977  42.223  14.757
34621W        W99848  43.009  39.070   3.628
34622W        W99849   5.663   9.307   0.916
34623W        W99850  40.444  13.721   4.305
34624W        W99851   7.936   4.997  14.249
34625W        W99852  17.556  36.007  14.762
34626W        W99853  33.639  28.469  10.632
34627W        W99854  44.019   7.143  13.607
34628W        W99855  25.245  24.428   5.060
34629W        W99856  38.168  39.734   0.001
34630W        W99857  28.553   2.671  11.570
34631W        W99858  24.407  44.036  14.838
34632W        W99859   0.046  41.075   2.186
34633W        W99860   5.165  35.946  12.532
34634W        W99861   2.804   9.231   3.289
34635W        W99862   0.528  13.092  13.705
34636W        W99863  28.034  38.062   1.737
34637W        W99864  33.426  36.294   2.719
34638W        W99865   1.585  23.075   0.848
34639W        W99866  37.117  39.817   3.885
34640W        W99867  41.461   7.802   3.620
34641W        W99868  33.498  30.222   3.360
34642W        W99869  44.494  37.620   4.423
34643W        W99870  22.009  18.793   0.545
34644W        W99871  24.223  31.292  13.258
34645W        W99872  43.366  28.171  14.779
34646W        W99873  14.842  16.820   1.871
34647W        W99874  15.116  36.877   3.336
34648W        W99875  35.091  16.753  14.977
34649W        W99876  38.388  39.401  12.215
34650W        W99877   2.259  21.127   1.129
34651W        W99878  29.410   4.860  11.542
34652W        W99879  42.040  26.197   1.393
34653W        W99880  34.682   7.139  11.183
34654W        W99881  19.664  23.260  13.275
34655W        W99882  39.843  40.531  10.706
34656W        W99883  43.940   9.934   0.247
34657W        W99884   4.807  41.949   0.273
34658W        W99885   2.632  42.254  12.879
34659W        W99886  21.806  31.558  10.694
34660W        W99887  24.823  18.582   1.893
34661W        W99888  22.013  32.659  14.699
34662W        W99889  28.193   0.851   2.383
34663W        W99890   3.696  26.166  10.448
34664W        W99891  37.301  37.559   0.916
34665W        W99892  44.305  40.434   2.286
34666W        W99893  41.483  33.173  12.995
34667W        W99894  42.518  25.655   3.947
34668W        W99895  39.776  31.135  10.811
34669W        W99896  13.080  18.066  10.760
34670W        W99897  37.842  42.387  13.514
34671W        W99898  16.095  16.786   4.138
34672W        W99899   7.082  23.372  14.038
34673W        W99900  10.660  37.086   3.859
34674W        W99901  35.088  40.488  14.990
34675W        W99902  35.305   1.962   4.830
34676W        W99903  43.769  36.057  12.558
34677W        W99904  24.966   6.952   4.599
34678W        W99905  33.919   8.488   4.292
34679W        W99906   9.757  15.530   1.634
34680W        W99907  20.683  11.366   4.292
34681W        W99908   6.310   0.709  11.159
34682W        W99909  26.097  41.445   2.569
34683W        W99910  23.695  32.687   2.215
34684W        W99911   9.722  30.460   9.766
34685W        W99912  17.491  23.202   2.264
34686W        W99913  12.892  17.291   0.736
34687W        W99914  44.487  30.283  11.961
34688W        W99915  29.073  24.250   3.554
34689W        W99916  37.525  18.218   0.429
34690W        W99917  15.627  19.117   0.501
34691W        W99918   3.936  32.543   0.900
34692W        W99919  11.872  24.917   0.856
34693W        W99920  25.943  34.482   2.145
34694W        W99921  11.193  19.708  13.435
34695W        W99922   2.942  17.058   4.545
34696W        W99923  23.561  37.804   4.020
34697W        W99924  29.916  11.404   2.878
34698W        W99925  28.794  36.004   3.592
34699W        W99926  16.124  11.744   2.877
34700W        W99927   7.760  36.307   2.856
34701W        W99928  10.760  15.335  12.920
34702W        W99929  19.755   6.673   2.217
34703W        W99930  38.232  29.626  12.321
34704W        W99931  36.971  12.638   3.294
34705W        W99932  12.053  23.638  12.858
34706W        W99933  41.738  31.588  12.496
34707W        W99934  27.018   3.395   3.598
34708W        W99935  18.037  39.571   1.944
34709W        W99936   7.411  33.232  14.507
34710W        W99937   8.717  29.370   4.579
34711W        W99938   7.923  42.335  14.718
34712W        W99939  28.656   9.186   4.277
34713W        W99940  26.010   9.240  14.975
34714W        W99941  26.446  18.969  10.716
34715W        W99942   8.991   1.387   0.386
34716W        W99943  18.365  18.174  12.557
34717W        W99944  15.583  21.334   1.372
34718W        W99945   1.752  36.457  13.061
34719W        W99946  15.366   9.382  10.725
34720W        W99947  12.394  43.199  12.399
34721W        W99948  12.218  34.652  10.724
34722W        W99949  27.852   8.701  13.894
34723W        W99950   6.915  20.742  11.256
34724W        W99951  36.687  34.028   2.919
34725W        W99952   4.482  21.328   1.850
34726W        W99953  25.134  44.108   1.257
34727W        W99954  36.476  42.990   0.342
34728W        W99955  44.402  42.275   3.414
34729W        W99956   5.587  24.741   2.451
34730W        W99957  25.787  25.131  10.763
34731W        W99958  40.857  28.497   3.272
34732W        W99959  21.387   0.365   4.496
34733W        W99960  15.157  28.610  12.400
34734W        W99961  33.924   1.024  11.602
34735W        W99962  36.251  30.720  10.812
34736W        W99963  15.803  17.841  11.752
34737W        W99964  17.740  14.180   1.173
34738W        W99965  26.736  16.345  12.596
34739W        W99966  26.931  39.385   1.781
34740W        W99967  12.714   8.123  14.592
34741W        W99968  33.951  10.642  10.808
34742W        W99969  26.835  27.926   4.908
34743W        W99970  13.187  35.545   1.408
34744W        W99971  10.739  38.049   1.699
34745W        W99972  21.574  11.788  10.799
34746W        W99973   7.088  11.269  13.561
34747W        W99974  17.885  25.843   3.361
34748W        W99975  24.957   8.265  13.831
34749W        W99976  14.530  27.474  13.650
34750W        W99977  30.381  35.899  11.719
34751W        W99978   4.590  39.031   0.474
34752W        W99979  34.375   0.010   2.444
34753W        W99980  44.636   4.270   1.205
34754W        W99981  30.861  26.449  12.595
34755W        W99982   4.387   9.375  12.587
34756W        W99983  24.508  37.741   4.601
34757W        W99984  26.504  21.254   1.442
34758W        W99985   7.743   6.298   2.609
34759W        W99986  32.066  20.801  11.246
34760W        W99987  26.786  32.082   1.057
34761W        W99988  39.283   8.622   2.194
34762W        W99989  37.946   7.397   4.105
34763W        W99990  20.048  26.907   3.709
34764W        W99991  39.270  15.973  13.425
34765W        W99992   4.722  23.765  14.032
34766W        W99993  22.337  29.346  10.300
34767W        W99994   4.506  28.652  13.957
34768W        W99995  24.012  13.736  11.275
34769W        W99996  21.661  17.760   0.353
34770W        W99997  19.074  16.137   0.347
34771W        W99998  16.179  12.151  12.473
34772W        W99999  38.724  36.022   0.518
34773W        W    0   6.125  26.487   1.798
34774W        W    1   4.007  30.642   3.044
34775W        W    2  32.666  40.497   1.389
34776W        W    3   4.199  39.038  12.000
34777W        W    4  28.481  21.101   2.378
34778W        W    5  13.901  41.708   1.961
34779W        W    6  20.725   7.944  10.744
34780W        W    7  29.435   9.636   1.040
34781W        W    8   5.154  19.829  14.030
34782W        W    9   3.936  34.254  13.328
34783W        W   10   6.217  32.442  11.970
34784W        W   11  39.580  32.496  11.309
34785W        W   12  26.079  21.784  11.557
34786W        W   13  21.633  37.445  10.653
34787W        W   14  42.837  17.975  11.621
34788W        W   15   2.582  42.337  13.919
34789W        W   16  38.839  25.194  13.927
34790W        W   17   4.990   1.454   0.367
34791W        W   18  12.254  23.767   3.793
34792W        W   19  39.583   4.966   0.785
34793W        W   20   1.028  38.418   4.863
34794W        W   21  14.552  43.991   1.748
34795W        W   22   0.599   6.786  12.694
34796W        W   23   8.445  17.116   4.844
34797W        W   24   0.925  10.322  11.177
34798W        W   25  38.009  32.097  10.870
34799W        W   26  31.467  24.442  12.971
34800W        W   27  32.130  44.796  14.213
34801W        W   28  36.512  39.486   2.745
34802W        W   29   7.304   6.690  11.187
34803W        W   30   9.710   2.709  11.657
34804W        W   31   3.034  25.630   4.547
34805W        W   32  28.673   3.914   4.046
34806W        W   33  28.259   6.887   0.195
34807W        W   34   6.337  37.455   0.966
34808W        W   35  37.118  21.117   4.893
34809W        W   36  37.326   0.058  13.930
34810W        W   37   2.462  42.843  10.862
34811W        W   38  28.069  18.303  11.693
34812W        W   39  17.303   6.364  14.046
34813W        W   40  14.568  14.627   3.695
34814W        W   41  18.008   5.656  10.859
34815W        W   42   9.380   8.754  12.783
34816W        W   43  15.684   1.563  11.072
34817W        W   44  33.423  21.743  13.217
34818W        W   45  31.131  42.121   0.606
34819W        W   46  39.539  42.867   1.090
34820W        W   47  14.910  25.404   0.872
34821W        W   48  21.904  26.645  14.017
34822W        W   49   8.311   1.462   2.695
34823W        W   50  44.978  33.925  10.665
34824W        W   51  40.236  31.690  11.121
34825W        W   52   3.951  40.984   3.382
34826W        W   53   2.155   5.871  12.100
34827W        W   54  24.517  26.659   2.435
34828W        W   55  27.395   6.462   2.833
34829W        W   56  18.133  14.733   4.574
34830W        W   57  33.967  13.907  11.134
34831W        W   58  23.529  18.778   3.665
34832W        W   59  34.955   2.118   3.268
34833W        W   60  40.927  17.434   0.749
34834W        W   61   4.790  35.971   3.827
34835W        W   62  25.499  18.091   1.673
34836W        W   63  14.781   2.489  12.237
34837W        W   64  13.146  26.151   1.430
34838W        W   65  19.825  33.426  14.817
34839W        W   66  10.848  22.984  12.091
34840W        W   67   4.456  18.173   1.447
34841W        W   68   2.837   2.546  14.023
34842W        W   69  30.246  23.707  13.065
34843W        W   70  19.092  34.639  12.913
34844W        W   71  43.866  39.621   2.192
34845W        W   72   3.940  39.048  14.587
34846W        W   73  24.439   9.651  10.938
34847W        W   74  35.628   8.491   0.359
34848W        W   75  32.616  43.354   2.761
34849W        W   76  30.993  37.316  14.833
34850W        W   77  34.885   2.364   3.741
34851W        W   78  22.083  40.710   1.935
34852W        W   79  12.760  29.024  13.456
34853W        W   80  32.404  11.869   1.402
34854W        W   81  20.774  31.668  12.412
34855W        W   82  24.024  16.285   3.287
34856W        W   83  32.242  12.548  10.693
34857W        W   84  17.955   9.288   4.307
34858W        W   85  20.320  23.630   4.252
34859W        W   86  23.555   6.938  14.747
34860W        W   87  30.156  33.307  13.795
34861W        W   88  40.125   4.136  13.151
34862W        W   89  17.231  20.481  13.891
34863W        W   90   9.039  32.019   0.688
34864W        W   91  23.522   2.856  12.854
34865W        W   92   9.351  41.322   3.605
34866W        W   93  24.951  28.904   4.595
34867W        W   94  31.769  15.657  14.282
34868W        W   95  35.128  30.099   1.496
34869W        W   96  35.963   8.975   4.533
34870W        W   97  44.136   0.848   3.614
34871W        W   98  10.086  15.176  11.856
34872W        W   99  34.368  33.197   2.215
34873W        W  100  26.043  12.262  11.637
34874W        W  101  40.266  42.357   1.285
34875W        W  102  21.177  25.260  12.064
34876W        W  103  39.082  41.478  10.465
34877W        W  104  37.548  44.083   4.527
34878W        W  105  17.051  35.515   2.753
34879W        W  106  32.046  35.203   9.932
34880W        W  107  28.996   1.945   2.257
34881W        W  108  17.926   4.824   3.342
34882W        W  109   4.465  27.445  12.975
34883W        W  110  27.943   5.205   9.942
34884W        W  111  12.685   9.296   0.859
34885W        W  112   6.486  30.873  14.004
34886W        W  113  15.571   3.300  13.092
34887W        W  114  28.487  14.722   4.042
34888W        W  115  31.635  43.115  10.863
34889W        W  116   1.164  40.685   3.291
34890W        W  117   3.953  36.094  13.544
34891W        W  118  28.567   4.286   4.394
34892W        W  119   2.828  14.892  11.635
34893W        W  120  43.876  36.561   0.358
34894W        W  121  22.936  40.719  14.958
34895W        W  122   9.735  19.489   4.568
34896W        W  123   2.458  15.619   2.184
34897W        W  124  38.777   8.168  14.432
34898W        W  125  40.581  40.576   4.328
34899W        W  126   1.212  24.521   2.255
34900W        W  127  15.842  40.802   3.606
34901W        W  128  13.315   5.893   2.651
34902W        W  129  32.132  17.456  10.566
34903W        W  130   0.857  43.947   0.694
34904W        W  131  42.801  24.675   4.954
34905W        W  132  31.355  33.924  14.598
34906W        W  133  40.367  11.931   0.362
34907W        W  134  37.283  35.504  11.647
34908W        W  135  14.697  21.914   3.507
34909W        W  136  19.156  41.960   4.199
34910W        W  137  12.664  15.092   1.378
34911W        W  138   6.644  13.767   2.844
34912W        W  139  20.192  41.122  11.679
34913W        W  140  39.856  18.091  10.773
34914W        W  141  11.319  13.735  13.485
34915W        W  142  19.278  10.733   4.382
34916W        W  143  27.080  21.171   3.098
34917W        W  144  19.252  39.287   3.041
34918W        W  145  11.084  38.001  11.535
34919W        W  146   7.617  35.035  12.454
34920W        W  147   9.626  22.141  14.171
34921W        W  148  23.032  22.180  11.159
34922W        W  149  40.421   6.673  11.943
34923W        W  150  42.497  11.759  12.589
34924W        W  151  36.783   8.051   3.966
34925W        W  152   0.763  14.891   1.634
34926W        W  153  23.180   9.124  12.423
34927W        W  154  15.227   3.289   0.958
34928W        W  155  38.906  22.836  10.051
34929W        W  156  21.994   8.664  14.520
34930W        W  157   3.199  11.278  10.513
34931W        W  158   9.891  24.641   1.280
34932W        W  159  30.922  29.649  10.219
34933W        W  160  36.813  43.713  12.537
34934W        W  161  20.449  38.929  14.340
34935W        W  162  38.811  21.807   4.286
34936W        W  163  40.437  23.767  12.577
34937W        W  164  11.413  30.000   1.909
34938W        W  165  32.119   8.211   3.681
34939W        W  166  16.644  42.791   3.693
34940W        W  167  20.481  33.955   2.757
34941W        W  168  22.620  11.797   3.607
34942W        W  169  30.646  18.570  14.478
34943W        W  170  41.954   3.168  11.668
34944W        W  171  32.152   5.917  13.814
34945W        W  172  25.173  28.686   4.150
34946W        W  173  28.931  44.395   3.396
34947W        W  174  13.359  44.360   1.370
34948W        W  175  24.758  10.895  13.414
34949W        W  176  42.594  39.874   0.410
34950W        W  177  18.010  11.035   4.332
34951W        W  178  42.725   4.490   3.126
34952W        W  179  10.487  33.169   3.073
34953W        W  180   2.372  44.633   1.467
34954W        W  181  30.208  15.198   0.148
34955W        W  182  31.140   6.141  13.083
34956W        W  183   9.723  44.500   2.050
34957W        W  184  13.135   8.601  14.644
34958W        W  185  28.820  12.341  12.504
34959W        W  186   7.362  16.248  13.751
34960W        W  187  12.357   7.856   0.035
34961W        W  188  16.576   9.021   3.299
34962W        W  189  12.612  44.819   1.217
34963W        W  190  20.926   1.689   4.050
34964W        W  191  27.692  40.891  13.489
34965W        W  192  18.717  42.821   2.123
34966W        W  193  21.233   9.611  14.690
34967W        W  194  27.520  32.387  13.142
34968W        W  195  23.509  36.009  14.929
34969W        W  196   5.012  16.788   9.889
34970W        W  197   9.157  40.626  10.801
34971W        W  198  17.993   9.517   0.816
34972W        W  199  33.531  17.518  13.419
34973W        W  200   6.406  35.073  13.392
34974W        W  201  38.290  40.365  12.636
34975W        W  202  13.804  22.251   3.192
34976W        W  203  44.875  14.346   4.297
34977W        W  204  31.847  20.170   4.701
34978W        W  205  38.858  18.643   1.007
34979W        W  206  18.083   8.959  12.490
34980W        W  207  32.100   9.828  13.757
34981W        W  208  14.503  41.036  12.523
34982W        W  209  39.097  39.867   3.067
34983W        W  210  39.294  21.373  11.295
34984W        W  211  23.920  18.071   1.814
34985W        W  212  38.561  19.061   0.446
34986W        W  213  36.463  22.835  13.185
34987W        W  214   8.032  28.973  13.659
34988W        W  215   5.891  25.912   4.573
34989W        W  216  12.606  24.756   1.722
34990W        W  217  29.553  40.410   1.825
34991W        W  218   0.758  29.832   4.543
34992W        W  219  16.607  38.075   4.254
34993W        W  220  37.872  24.390  13.939
34994W        W  221  44.779  31.868  11.564
34995W        W  222  28.346  38.687  13.755
34996W        W  223   3.761   9.933   0.941
34997W        W  224  34.337  42.237   1.538
34998W        W  225  39.484   1.899  12.079
34999W        W  226  30.856  39.443   3.318
35000W        W  227  12.807  14.596   1.477
35001W        W  228  10.859   0.800  13.084
35002W        W  229  10.686  17.203   4.085
35003W        W  230  24.084  25.292   1.940
35004W        W  231  10.289   4.572   3.407
35005W        W  232  41.298   2.439   4.559
35006W        W  233  43.394  33.842   0.725
35007W        W  234   1.475   6.579  10.639
35008W        W  235  33.942  16.425   0.323
35009W        W  236  38.884  32.118   3.564
35010W        W  237  32.625  15.287  14.505
35011W        W  238  31.119  23.288   2.794
35012W        W  239   7.388  41.261  13.229
35013W        W  240  17.801   8.234   1.304
35014W        W  241  25.081  14.486   2.786
35015W        W  242  11.229   4.295   2.123
35016W        W  243  17.121  42.184  14.416
35017W        W  244  29.761  28.610  14.402
35018W        W  245  24.804  29.035  10.790
35019W        W  246  29.178   1.241  10.659
35020W        W  247  31.339  38.974   0.682
35021W        W  248  31.461  37.909  12.057
35022W        W  249  26.790  10.231  13.796
35023W        W  250  16.912   2.766   2.486
35024W        W  251  17.036   4.308  13.006
35025W        W  252  11.062  12.938  10.809
35026W        W  253  33.120  17.618   0.318
35027W        W  254   1.252  16.282  13.337
35028W        W  255  24.978  29.328   3.333
35029W        W  256  28.372   3.489   3.374
35030W        W  257  27.347   0.230  13.361
35031W        W  258  43.931  13.691  12.520
35032W        W  259  37.486   1.267  12.887
35033W        W  260  27.502  30.360   2.790
35034W        W  261   1.708  13.452   4.227
35035W        W  262  31.177  11.313   3.320
35036W        W  263  19.252  41.510   3.288
35037W        W  264  28.551  19.511  12.437
35038W        W  265   0.720  28.609   1.666
35039W        W  266  25.570  42.714   0.490
35040W        W  267  32.975   6.856   2.608
35041W        W  268   2.937  29.252   1.787
35042W        W  269  17.165  44.595   2.344
35043W        W  270   0.062  32.364   4.616
35044W        W  271  11.781  42.193  13.046
35045W        W  272   2.322  18.493   2.890
35046W        W  273  16.270  22.974   2.105
35047W        W  274  34.549  33.582   3.697
35048W        W  275  43.836  33.965  10.738
35049W        W  276  21.020  26.612  12.842
35050W        W  277  19.386  12.472   4.536
35051W        W  278  26.046  36.239  10.470
35052W        W  279  38.481   0.075  12.038
35053W        W  280  21.205  40.265   4.967
35054W        W  281  14.680   6.850   4.964
35055W        W  282  35.096  10.393  14.041
35056W        W  283  14.277  43.572  13.975
35057W        W  284  19.175  33.069   0.752
35058W        W  285  36.212  31.875  14.915
35059W        W  286  29.573   3.971   0.744
35060W        W  287  42.467   8.362   4.456
35061W        W  288  13.688  26.614   2.727
35062W        W  289  24.473  26.061   1.588
35063W        W  290  18.856   0.963   1.694
35064W        W  291  26.610  34.351  11.001
35065W        W  292  36.898  42.341   0.363
35066W        W  293   9.858  23.455   3.122
35067W        W  294   5.081  42.755  11.251
35068W        W  295  10.576   0.443   1.945
35069W        W  296   6.582  29.911  11.198
35070W        W  297  11.218  26.566  13.560
35071W        W  298   8.483  22.607  10.930
35072W        W  299   5.163   4.800   0.547
35073W        W  300   1.115   3.295   2.691
35074W        W  301  27.005   4.967  12.945
35075W        W  302   3.987   9.729  12.152
35076W        W  303  39.044  44.984  12.968
35077W        W  304   8.406  42.284  12.672
35078W        W  305   5.763   0.300  12.035
35079W        W  306  17.805   5.354   2.838
35080W        W  307  31.575  17.482  12.973
35081W        W  308  15.930  10.410  11.612
35082W        W  309  11.354  41.517   1.637
35083W        W  310  42.960   3.790   4.928
35084W        W  311  12.287  14.347   1.217
35085W        W  312  30.830   3.775   1.297
35086W        W  313  17.072  11.523   0.332
35087W        W  314  15.986  34.304   1.700
35088W        W  315  13.648  34.907  14.227
35089W        W  316  13.093  18.753   4.156
35090W        W  317  33.934  42.982   4.375
35091W        W  318  29.018   1.459  12.163
35092W        W  319  41.817  12.273  13.510
35093W        W  320  17.024  23.108  14.992
35094W        W  321   5.078  44.888  14.294
35095W        W  322   7.133  10.088   1.973
35096W        W  323  33.188   7.323  11.165
35097W        W  324  36.087   8.651  14.724
35098W        W  325   2.548  32.338  12.499
35099W        W  326  36.771  26.198  14.052
35100W        W  327  13.261  37.919  12.560
35101W        W  328  24.485   3.830   2.638
35102W        W  329  17.149  33.274   3.079
35103W        W  330  33.852  41.798  14.825
35104W        W  331  25.055  30.670  12.049
35105W        W  332  20.804  17.114  14.329
35106W        W  333  33.318   2.368  14.772
35107W        W  334  22.595   8.401   4.553
35108W        W  335  13.530  19.717   3.427
35109W        W  336   5.480   7.412  12.416
35110W        W  337  16.852   1.936  14.059
35111W        W  338  31.217   0.967  14.952
35112W        W  339   9.370  20.548   0.205
35113W        W  340  28.458  26.216   4.590
35114W        W  341  21.506  35.998  10.723
35115W        W  342  26.579   5.429   1.281
35116W        W  343  36.835  29.029   3.075
35117W        W  344   6.492   5.708  14.823
35118W        W  345  13.602  44.829  12.951
35119W        W  346  34.644  22.173   3.174
35120W        W  347  16.948  35.546  13.831
35121W        W  348   0.040  26.760  12.573
35122W        W  349   2.841  32.278  13.395
35123W        W  350   7.085  16.298   3.322
35124W        W  351  29.624  25.605   1.854
35125W        W  352  25.090  14.286   3.749
35126W        W  353  12.669  23.894   0.842
35127W        W  354  25.170  24.183   0.834
35128W        W  355  13.329  38.081  12.074
35129W        W  356   9.276  10.071   1.283
35130W        W  357  13.696  42.889   4.623
35131W        W  358  13.167  17.571   4.595
35132W        W  359  23.523  40.968  11.096
35133W        W  360  23.415   9.747   3.874
35134W        W  361  29.711   8.916   0.554
35135W        W  362  39.079  15.768  14.117
35136W        W  363  12.855  29.238  12.964
35137W        W  364  20.785  37.536  13.902
35138W        W  365   5.179  26.037  11.866
35139W        W  366  38.117  37.368  12.888
35140W        W  367  18.764   6.180  10.452
35141W        W  368  22.742  18.575   4.473
35142W        W  369  25.086  18.601   1.425
35143W        W  370  11.065   4.378  10.947
35144W        W  371  14.030  38.605  12.605
35145W        W  372  40.778   4.167   0.319
35146W        W  373  42.388  37.904  12.652
35147W        W  374   8.883  44.263   0.370
35148W        W  375  41.846  12.439   2.470
35149W        W  376   0.331  40.735  13.114
35150W        W  377  42.005  30.459   1.742
35151W        W  378  35.372  44.116   4.318
35152W        W  379  43.020  17.733   3.623
35153W        W  380   4.680  18.267  10.126
35154W        W  381  44.394  27.695  13.378
35155W        W  382  44.902  18.782  12.058
35156W        W  383  35.074  21.029  12.085
35157W        W  384  40.097  23.295   3.078
35158W        W  385   2.037  37.820   0.383
35159W        W  386  16.642  26.427   0.869
35160W        W  387   2.151   9.726  12.954
35161W        W  388   2.693   9.111  14.538
35162W        W  389  16.226  44.313  11.551
35163W        W  390  34.107  17.131  13.000
35164W        W  391  17.847  16.103  10.972
35165W        W  392  30.574  34.407   1.464
35166W        W  393   2.429  18.271   4.987
35167W        W  394  33.916   6.483   2.396
35168W        W  395  26.957  23.741   3.473
35169W        W  396   4.384  11.713  10.472
35170W        W  397   1.147  27.927   3.147
35171W        W  398  19.701  26.516  14.915
35172W        W  399  23.756   8.222   1.376
35173W        W  400  22.560  35.133   0.344
35174W        W  401   3.005   2.872  13.296
35175W        W  402  18.015   6.273  12.517
35176W        W  403  19.155  11.778   4.518
35177W        W  404  22.334  17.237  14.258
35178W        W  405  38.294  17.852  12.386
35179W        W  406   2.944   5.034   3.504
35180W        W  407  24.605  22.867   1.761
35181W        W  408  13.495  13.776  14.782
35182W        W  409   9.820  39.785  13.151
35183W        W  410   2.222  40.674   3.789
35184W        W  411  33.667  26.262   3.733
35185W        W  412   4.313  36.839  14.493
35186W        W  413  30.493   4.451   2.621
35187W        W  414  21.669  27.967   3.553
35188W        W  415  23.051  19.305   3.062
35189W        W  416  29.443  37.778  10.771
35190W        W  417  41.156  26.635   0.464
35191W        W  418   7.385  16.768   4.479
35192W        W  419  25.981  20.947  11.172
35193W        W  420  42.091  41.327   5.217
35194W        W  421  22.758  10.904   4.713
35195W        W  422  22.804  21.665   2.985
35196W        W  423  18.366  37.484  12.598
35197W        W  424  39.893  34.850  12.491
35198W        W  425  44.084   1.435   0.227
35199W        W  426  18.024  32.307   2.708
35200W        W  427  39.552  37.546   4.598
35201W        W  428  18.239  10.514   0.961
35202W        W  429  34.573  26.326  13.953
35203W        W  430  42.980   8.626  14.973
35204W        W  431  19.137   7.970   3.801
35205W        W  432  31.412   5.688  14.282
35206W        W  433   1.719  32.721  12.087
35207W        W  434   0.221  10.116   4.261
35208W        W  435  28.517  20.332   1.965
35209W        W  436   8.434  20.069   2.782
35210W        W  437  42.911  40.224  14.563
35211W        W  438   4.379  30.942  14.983
35212W        W  439  26.727  30.957   2.771
35213W        W  440   7.457  18.725   1.455
35214W        W  441  13.334  43.321  12.889
35215W        W  442  21.284  32.615  12.487
35216W        W  443  38.104  38.447  13.014
35217W        W  444  10.827  32.150   2.301
35218W        W  445  22.682  25.400   3.632
35219W        W  446  32.568   3.403   0.368
35220W        W  447   0.298  17.205  13.455
35221W        W  448  28.037  18.440   4.646
35222W        W  449  21.055   7.899  11.507
35223W        W  450  24.592  22.419  11.558
35224W        W  451  20.800  44.231  11.022
35225W        W  452  36.037  21.327  10.598
35226W        W  453  41.362  16.231   4.624
35227W        W  454  29.110   5.471   0.034
35228W        W  455   1.363  17.808  13.782
35229W        W  456  19.546  12.424  12.864
35230W        W  457  34.193  33.389   4.754
35231W        W  458  12.877  23.096   3.233
35232W        W  459  33.802  43.614   3.058
35233W        W  460   9.686   6.299   2.863
35234W        W  461  35.155  13.187   5.053
35235W        W  462  43.310   6.707  12.436
35236W        W  463  12.334  33.013   0.853
35237W        W  464  17.166   0.267   3.493
35238W        W  465   1.512   2.379   0.745
35239W        W  466  37.583  43.492  14.793
35240W        W  467  25.556  24.073  13.570
35241W        W  468  37.598  25.648  10.684
35242W        W  469  35.811  33.068   4.669
35243W        W  470  43.288  41.315   2.318
35244W        W  471  40.787   9.856   4.101
35245W        W  472  17.828  26.269  11.525
35246W        W  473   1.430  39.066  13.543
35247W        W  474  28.934  25.230   1.419
35248W        W  475  22.747  14.157   1.351
35249W        W  476  21.172  41.440  10.759
35250W        W  477  37.003   5.416   3.702
35251W        W  478  14.763  32.733   5.330
35252W        W  479  19.480  38.289   1.771
35253W        W  480   6.275  40.072  14.962
35254W        W  481  12.278   6.563   0.793
35255W        W  482  16.650  13.989  13.797
35256W        W  483  14.586  20.116   0.906
35257W        W  484  33.510   2.841   1.166
35258W        W  485  12.624  42.772  14.309
35259W        W  486   8.842   3.750  12.670
35260W        W  487  15.434  31.933   0.205
35261W        W  488   1.713  22.981  13.112
35262W        W  489  42.351  13.468   0.697
35263W        W  490  28.627  38.425   4.228
35264W        W  491  43.526   8.897   3.661
35265W        W  492  32.679  18.348  11.529
35266W        W  493  14.521   1.883  13.620
35267W        W  494   2.726  12.196  14.874
35268W        W  495  15.758   7.629  12.833
35269W        W  496   3.432  20.975  14.978
35270W        W  497  43.155  36.727   1.887
35271W        W  498   6.211  30.553  11.941
35272W        W  499  33.365  39.775   1.161
35273W        W  500  38.900  31.489   2.808
35274W        W  501  12.869   3.238  11.314
35275W        W  502  22.936  22.121   1.948
35276W        W  503   5.656  25.898  14.783
35277W        W  504   7.422  37.398   0.746
35278W        W  505  43.614  21.585  10.787
35279W        W  506  13.638  11.396   0.807
35280W        W  507  39.602  44.541   4.157
35281W        W  508  23.544  35.993   0.917
35282W        W  509   9.858  39.619   0.040
35283W        W  510  10.919  28.239  13.167
35284W        W  511  24.257  17.410  13.963
35285W        W  512  29.626  24.601   1.985
35286W        W  513   1.632  31.951  10.945
35287W        W  514  14.202  44.323  14.563
35288W        W  515   0.369  30.228  13.035
35289W        W  516  33.003  25.414  12.897
35290W        W  517   5.694  23.512   0.956
35291W        W  518   8.141   0.574   3.740
35292W        W  519  26.107   9.327  10.664
35293W        W  520  42.350  30.298   2.690
35294W        W  521  31.975  21.784   4.185
35295W        W  522  17.394  36.882  13.906
35296W        W  523  34.602  38.836  13.960
35297W        W  524  43.362   1.244  12.920
35298W        W  525  27.146  29.636   4.751
35299W        W  526  38.443  41.122  13.091
35300W        W  527  27.246  23.966   4.364
35301W        W  528   4.438   8.947  12.898
35302W        W  529  14.188  14.022   5.048
35303W        W  530  32.625   0.023   1.758
35304W        W  531  41.964  14.819  13.494
35305W        W  532  26.706  37.868  13.987
35306W        W  533   3.889  26.579  10.761
35307W        W  534  30.268  43.826   4.384
35308W        W  535  34.158  21.634   4.606
35309W        W  536   5.694  15.631  13.592
35310W        W  537  11.136  20.677   2.797
35311W        W  538  24.537  21.224   3.217
35312W        W  539   0.694  25.463   4.548
35313W        W  540  29.985   8.240  11.592
35314W        W  541  42.796  31.461   3.402
35315W        W  542  28.352  12.256  11.583
35316W        W  543   0.304  22.506  14.773
35317W        W  544  14.935  25.306   2.648
35318W        W  545  29.046  43.921   0.685
35319W        W  546  15.053  43.468  10.668
35320W        W  547  18.224  15.004   1.251
35321W        W  548  34.773  44.707  12.122
35322W        W  549   6.205  19.504   2.276
35323W        W  550  21.890  17.832   2.417
35324W        W  551  13.855  40.550   3.272
35325W        W  552   7.255  27.128   1.816
35326W        W  553  29.199   7.815   0.406
35327W        W  554  10.861   2.832   2.297
35328W        W  555   0.462  38.218   1.868
35329W        W  556   2.552  11.536  13.008
35330W        W  557  20.914   2.361  12.640
35331W        W  558  28.876  14.788  14.926
35332W        W  559  26.030  20.300  13.928
35333W        W  560  31.037  25.765  11.487
35334W        W  561   9.473  31.120   0.388
35335W        W  562  29.863  19.711   2.245
35336W        W  563  42.139  34.646   2.561
35337W        W  564   1.394   3.688  12.068
35338W        W  565  30.945  33.623  14.869
35339W        W  566  27.551   8.949   4.094
35340W        W  567  31.078  37.415   1.262
35341W        W  568   7.929  24.967  11.667
35342W        W  569  44.538  30.023  14.351
35343W        W  570   3.797   7.234   3.881
35344W        W  571  39.524  40.541  12.897
35345W        W  572  10.692   4.614  13.801
35346W        W  573  35.828  17.267  11.098
35347W        W  574   8.877  30.571   2.324
35348W        W  575  32.496  28.490   0.409
35349W        W  576  14.362  11.370   0.943
35350W        W  577  24.711  37.427  12.534
35351W        W  578   2.605   1.072  13.068
35352W        W  579  33.848  43.452   2.161
35353W        W  580  22.611  42.886  11.117
35354W        W  581  16.785   1.977   1.399
35355W        W  582   8.525  25.133   1.201
35356W        W  583   1.164  41.319   2.778
35357W        W  584  33.986  27.729  11.619
35358W        W  585  22.950  13.073  11.991
35359W        W  586  13.231  12.759  13.667
35360W        W  587  42.042  41.083   1.708
35361W        W  588  25.628  28.112  14.370
35362W        W  589  21.712  40.013   2.444
35363W        W  590   0.896   9.706  13.587
35364W        W  591  12.024  18.204  11.045
35365W        W  592  13.370   6.367   2.897
35366W        W  593  20.481  18.374  12.843
35367W        W  594  30.796  39.282   0.270
35368W        W  595  18.932  16.024   2.163
35369W        W  596   5.552  29.041  11.614
35370W        W  597  16.029  43.074  10.776
35371W        W  598   3.474   1.807   0.676
35372W        W  599  30.594  15.070   2.762
35373W        W  600  26.077   9.658  13.785
35374W        W  601  21.298  27.755  13.995
35375W        W  602  12.177   4.122  11.880
35376W        W  603  17.997  17.880  12.356
35377W        W  604   7.910   5.823  12.520
35378W        W  605  38.746  41.472  13.891
35379W        W  606  18.163  14.244   3.191
35380W        W  607  35.370  30.388   2.438
35381W        W  608  29.946  20.649   3.865
35382W        W  609  13.823  29.665  13.008
35383W        W  610   6.960  12.373  14.026
35384W        W  611  39.951  44.970  11.172
35385W        W  612   0.942  31.857  12.576
35386W        W  613  17.579  32.522  12.689
35387W        W  614  12.753  43.921   3.701
35388W        W  615  22.241   8.789   0.949
35389W        W  616  19.023  40.574   4.344
35390W        W  617  30.176  34.428  14.452
35391W        W  618  37.419  35.400   3.164
35392W        W  619  11.217  35.319   3.660
35393W        W  620  42.484  32.664  11.442
35394W        W  621  24.520  20.789   1.279
35395W        W  622   5.686  43.355  11.631
35396W        W  623   1.650  34.172   0.731
35397W        W  624  37.140  34.596   3.613
35398W        W  625  24.700  21.376  14.321
35399W        W  626   9.676   6.800  14.820
35400W        W  627  25.485   2.769   2.361
35401W        W  628  11.953  35.094  13.885
35402W        W  629   0.404  37.104   2.269
35403W        W  630  42.392  19.138  11.591
35404W        W  631  22.641  28.133  14.315
35405W        W  632  42.837  14.226  13.821
35406W        W  633  44.256  21.312   5.404
35407W        W  634   0.235   5.648   0.407
35408W        W  635  21.646  16.604  14.570
35409W        W  636  43.739   8.775  10.883
35410W        W  637   5.671   6.182  13.367
35411W        W  638  34.154  22.586  10.782
35412W        W  639  37.827  16.978   3.160
35413W        W  640   6.111  38.840   1.387
35414W        W  641  21.714  36.016   0.344
35415W        W  642  40.801  26.756   3.659
35416W        W  643  12.504  21.747  13.438
35417W        W  644  41.826  43.035   0.293
35418W        W  645   3.383  16.587   0.986
35419W        W  646  29.104   6.637  14.573
35420W        W  647  31.380  36.013  10.869
35421W        W  648  31.066   5.836   0.033
35422W        W  649  22.052   9.127   3.679
35423W        W  650  20.537   7.349   3.907
35424W        W  651  23.183   0.935   2.420
35425W        W  652  34.789   1.181   3.226
35426W        W  653  37.050  37.502   1.380
35427W        W  654  39.714  39.082  12.457
35428W        W  655  23.690  16.603   4.598
35429W        W  656  13.268  40.126  10.244
35430W        W  657  30.653  43.567   3.168
35431W        W  658  43.333  37.868   0.316
35432W        W  659   0.602  31.738   2.073
35433W        W  660  17.790   5.276  14.731
35434W        W  661   2.326  36.318  14.337
35435W        W  662  31.526  33.147  12.546
35436W        W  663  12.253   7.810   1.087
35437W        W  664  21.708  31.041   2.695
35438W        W  665  40.336   9.914   3.146
35439W        W  666  29.441  12.460  10.234
35440W        W  667  22.892  44.818   0.336
35441W        W  668   6.721   6.685  13.030
35442W        W  669  37.771  32.501  11.044
35443W        W  670  11.020   8.152   3.160
35444W        W  671  25.606  15.795   1.417
35445W        W  672  39.258  21.647  10.833
35446W        W  673  25.905  34.868  13.819
35447W        W  674  26.478   5.384   3.639
35448W        W  675   0.449  23.144   0.449
35449W        W  676  23.857  41.963  12.527
35450W        W  677   1.858   3.722  10.667
35451W        W  678  42.951   9.868  12.586
35452W        W  679  42.501  43.535  11.690
35453W        W  680  39.995  12.245  12.155
35454W        W  681  34.315  13.300   3.229
35455W        W  682   0.754  40.355   0.337
35456W        W  683  41.959  35.809   0.226
35457W        W  684  37.478  27.262  11.707
35458W        W  685  35.478  33.798  12.483
35459W        W  686   0.447  32.792   2.156
35460W        W  687  28.191  43.106  13.730
35461W        W  688   5.089  13.251   1.428
35462W        W  689   8.062  14.692   4.253
35463W        W  690  33.617  18.969  12.437
35464W        W  691  14.275  32.437   1.408
35465W        W  692  26.114  25.888  13.033
35466W        W  693   2.872   8.784   1.748
35467W        W  694   9.649  16.162  14.405
35468W        W  695  20.591   6.328   2.418
35469W        W  696  29.185  41.696  12.387
35470W        W  697  42.001  30.634   3.080
35471W        W  698  19.154  18.686  12.191
35472W        W  699   2.993  20.226  11.628
35473W        W  700  12.373  24.843  12.894
35474W        W  701  37.979   3.351  12.464
35475W        W  702  44.974  29.431   3.295
35476W        W  703  21.550  35.541  10.950
35477W        W  704  17.497  43.850  12.664
35478W        W  705   1.038   1.822   3.172
35479W        W  706  21.241   3.793   3.653
35480W        W  707  26.172  40.647   4.525
35481W        W  708  33.483   6.972   1.393
35482W        W  709  12.572   8.673  11.144
35483W        W  710  21.998  29.880  13.470
35484W        W  711  26.432  12.375   0.456
35485W        W  712  23.008  10.427   0.671
35486W        W  713  44.554  31.581   2.378
35487W        W  714  25.236   3.163   0.742
35488W        W  715  26.039   3.131   2.963
35489W        W  716  11.753  26.039   4.897
35490W        W  717  41.467   1.269  14.409
35491W        W  718  23.590  17.337  14.957
35492W        W  719  42.977  36.648  14.266
35493W        W  720  12.153  41.096  10.601
35494W        W  721  11.113  42.012  11.229
35495W        W  722  33.695  27.926   1.229
35496W        W  723   3.178  29.105  13.816
35497W        W  724  29.216  10.419   3.705
35498W        W  725  43.086  24.514  12.099
35499W        W  726  28.884   5.955   3.900
35500W        W  727  33.474  22.187  14.886
35501W        W  728   5.219  39.948  12.192
35502W        W  729   1.723  31.414   4.507
35503W        W  730  41.975  24.910   2.813
35504W        W  731  15.237  30.413  12.307
35505W        W  732   6.261  38.074  11.173
35506W        W  733  31.990  35.164   5.341
35507W        W  734  21.511  27.454   1.420
35508W        W  735  31.248   6.913  14.153
35509W        W  736   7.471  44.176   1.254
35510W        W  737   5.683  37.978  12.075
35511W        W  738  34.054  21.716   3.724
35512W        W  739  15.867   9.387  10.816
35513W        W  740  17.773  38.843  14.117
35514W        W  741  28.591  11.831  13.902
35515W        W  742  43.782   0.298  13.569
35516W        W  743  14.171   5.758   1.004
35517W        W  744   9.112  22.721   1.398
35518W        W  745   0.624  33.361  11.634
35519W        W  746  41.905  38.225  13.259
35520W        W  747  31.186  27.505  14.829
35521W        W  748   9.349   7.824  13.496
35522W        W  749  42.575  44.026  12.846
35523W        W  750  11.635  43.182   2.837
35524W        W  751  39.454  35.808  11.263
35525W        W  752   1.523  25.570   9.812
35526W        W  753  12.370  27.969  13.024
35527W        W  754  38.012  29.536  11.866
35528W        W  755  43.083   0.602  10.525
35529W        W  756  44.295  39.304   1.354
35530W        W  757  17.102  20.707   4.200
35531W        W  758  44.888  40.801  13.396
35532W        W  759  10.900  13.074   0.373
35533W        W  760  20.298  40.872   0.405
35534W        W  761  13.081   3.452  10.330
35535W        W  762  20.210  14.553  10.681
35536W        W  763  30.889   0.503  14.917
35537W        W  764  40.457  29.174  13.913
35538W        W  765  23.207   2.490  14.139
35539W        W  766   8.790  20.206  14.969
35540W        W  767  34.144   6.526  10.720
35541W        W  768  20.639  43.703   1.305
35542W        W  769   6.197  10.841  14.471
35543W        W  770  27.585  10.902  14.803
35544W        W  771  35.947  30.383   4.120
35545W        W  772   4.464  41.897  14.384
35546W        W  773   0.051   1.991  11.577
35547W        W  774  28.660  44.825   2.952
35548W        W  775   7.804  10.664   3.200
35549W        W  776   0.820  12.834  14.942
35550W        W  777  14.653  20.799   2.321
35551W        W  778   3.942   6.429  10.639
35552W        W  779  11.624  36.148  13.020
35553W        W  780   4.268  26.045   3.370
35554W        W  781  44.081   1.502  14.042
35555W        W  782  32.971  35.022  14.316
35556W        W  783   5.277   1.969   9.938
35557W        W  784  17.999  44.780   3.896
35558W        W  785  17.190  44.275   0.383
35559W        W  786   4.807  24.736   2.220
35560W        W  787  38.164  34.072  10.706
35561W        W  788  40.467  34.721   4.579
35562W        W  789  41.950  16.148  12.124
35563W        W  790  44.525  44.000  11.556
35564W        W  791   1.397  21.025   3.605
35565W        W  792  16.296  21.261   0.733
35566W        W  793   5.451  26.287   3.731
35567W        W  794  25.571  34.873   3.824
35568W        W  795  38.110  14.798   2.222
35569W        W  796  31.404   9.842   3.641
35570W        W  797  12.635  40.837   1.430
35571W        W  798  29.126  28.431   4.534
35572W        W  799  42.634   4.409  14.306
35573W        W  800   9.030  29.095   0.828
35574W        W  801  21.232   0.295  14.529
35575W        W  802   2.508  41.736   4.971
35576W        W  803  11.395  14.009  12.094
35577W        W  804  20.715  38.507  11.152
35578W        W  805  15.374   4.905  14.635
35579W        W  806  20.319   7.828   2.245
35580W        W  807  37.816  26.644   1.046
35581W        W  808  23.178  34.862   2.101
35582W        W  809  11.381  31.749  13.821
35583W        W  810  12.289  23.145   0.321
35584W        W  811  37.135  28.859  13.459
35585W        W  812  36.378  39.951  14.169
35586W        W  813  41.193  37.103   2.207
35587W        W  814  40.846   1.407   4.665
35588W        W  815  34.513  37.464  11.109
35589W        W  816  35.676  16.780   0.947
35590W        W  817  25.644  41.343   5.017
35591W        W  818  23.200   4.559   0.392
35592W        W  819  23.452  38.943  14.137
35593W        W  820  16.248   5.190  14.784
35594W        W  821  23.028   9.367  11.203
35595W        W  822  15.737  35.063  11.499
35596W        W  823  18.674  22.068   2.666
35597W        W  824  31.211  31.020   1.643
35598W        W  825  20.098  24.869  10.699
35599W        W  826   4.218  13.796   1.343
35600W        W  827  34.425  31.176   3.220
35601W        W  828  38.728   9.551  11.169
35602W        W  829  33.081  37.855  12.948
35603W        W  830  12.055  16.343  13.021
35604W        W  831  44.375  23.443  11.932
35605W        W  832  23.956  23.128   2.759
35606W        W  833   8.741   4.676  12.921
35607W        W  834   5.735  43.381  12.670
35608W        W  835  37.340  44.394  11.404
35609W        W  836  24.528  21.769  11.862
35610W        W  837  18.824  15.175  10.773
35611W        W  838  27.613  43.728   1.943
35612W        W  839  34.651  38.824   1.313
35613W        W  840  11.280  13.450   4.239
35614W        W  841  41.847  14.356  10.803
35615W        W  842  16.759  23.723  12.494
35616W        W  843   0.505  32.738  13.749
35617W        W  844   2.946  40.356  12.979
35618W        W  845  14.883  31.440   4.825
35619W        W  846  33.194  16.258   0.336
35620W        W  847   5.410   5.750   1.420
35621W        W  848  40.329  32.923   3.409
35622W        W  849  38.594  33.489   4.734
35623W        W  850  35.029   6.669  13.779
35624W        W  851  13.449  30.607  12.942
35625W        W  852  28.592  29.896   1.893
35626W        W  853  28.050  21.207   4.538
35627W        W  854  44.541  38.897   4.146
35628W        W  855  36.072  44.761  13.395
35629W        W  856  33.877  32.358   4.356
35630W        W  857  11.491  16.649   4.008
35631W        W  858  35.922  30.092   4.877
35632W        W  859  18.594  11.045   3.205
35633W        W  860  14.206  35.816  11.318
35634W        W  861  23.283  23.485  14.386
35635W        W  862  21.969  11.461  14.446
35636W        W  863  28.399   8.418  13.236
35637W        W  864  11.839  42.580   2.284
35638W        W  865  21.507  25.960  12.479
35639W        W  866  42.584  11.153  13.469
35640W        W  867  22.619  30.032   3.193
35641W        W  868  40.860  18.656   4.327
35642W        W  869  28.631  43.791  11.534
35643W        W  870  23.073  32.802   1.739
35644W        W  871  23.701   7.729   0.370
35645W        W  872  22.436  30.613   0.307
35646W        W  873  39.535   2.856  10.409
35647W        W  874   7.775  42.514  11.176
35648W        W  875   5.906  12.142   0.719
35649W        W  876   7.225  10.256   2.891
35650W        W  877  24.484  41.276   0.581
35651W        W  878  44.712  17.981   2.331
35652W        W  879  39.949  34.590   4.665
35653W        W  880  20.820  21.321  13.333
35654W        W  881  27.997  37.552   1.867
35655W        W  882  26.672  28.473  14.805
35656W        W  883  11.856  15.143  12.408
35657W        W  884  32.176  44.908  14.903
35658W        W  885  31.876  28.395  12.753
35659W        W  886  39.834  19.195  13.710
35660W        W  887  40.394   1.206  13.072
35661W        W  888   5.308   2.703  12.355
35662W        W  889  34.421  26.955   4.919
35663W        W  890  33.006  25.776   0.781
35664W        W  891   8.411  44.814  14.814
35665W        W  892  41.038  12.326  14.986
35666W        W  893  15.098  14.791  10.768
35667W        W  894  21.717   4.753  11.305
35668W        W  895   6.795  42.369   4.370
35669W        W  896  31.665  43.417   3.021
35670W        W  897  31.556   1.836  11.085
35671W        W  898  21.102  40.404  14.576
35672W        W  899  12.725   1.278   1.801
35673W        W  900  30.060   8.617   0.263
35674W        W  901  21.650  36.518   0.258
35675W        W  902  39.860   1.187  11.767
35676W        W  903  16.377  26.513  13.699
35677W        W  904  35.952  44.429   2.951
35678W        W  905  10.940  35.516   3.257
35679W        W  906  29.632  35.339   1.232
35680W        W  907  39.890  31.704  11.524
35681W        W  908   4.196   3.762   1.443
35682W        W  909  37.523   3.205   1.698
35683W        W  910   6.713  15.712  12.057
35684W        W  911  26.738  43.091   1.259
35685W        W  912  14.932  28.943   1.746
35686W        W  913   4.870   4.343  10.754
35687W        W  914   2.781   9.854  14.987
35688W        W  915   0.051  29.501   4.098
35689W        W  916   0.922  32.922   4.724
35690W        W  917  33.844   6.748   3.560
35691W        W  918  30.052  23.201  13.526
35692W        W  919  10.832   0.480   1.503
35693W        W  920  25.426  31.863  14.908
35694W        W  921  22.562   2.051   4.992
35695W        W  922  17.237  31.299  14.166
35696W        W  923   4.443  14.156   2.142
35697W        W  924  17.711  28.750  11.480
35698W        W  925  16.756  33.077   4.769
35699W        W  926  28.546  12.252  10.651
35700W        W  927  43.853  40.766   1.191
35701W        W  928   4.608  28.626  12.194
35702W        W  929   7.606  10.784  11.130
35703W        W  930  22.634  22.304  14.299
35704W        W  931  32.090  36.252  11.584
35705W        W  932  33.527  15.513   2.280
35706W        W  933  24.439  20.679   2.251
35707W        W  934  43.988  19.645   1.730
35708W        W  935  43.486  12.360   3.703
35709W        W  936  11.706   1.583  10.081
35710W        W  937   3.737  37.440  13.558
35711W        W  938  30.134  11.114   4.149
35712W        W  939  20.078   6.423   0.209
35713W        W  940  21.386  16.598  10.315
35714W        W  941  12.663  15.308   5.183
35715W        W  942  18.185   3.768   3.829
35716W        W  943  39.941   4.859  11.593
35717W        W  944  41.778  15.681   0.024
35718W        W  945   0.483  28.028  13.491
35719W        W  946  24.730  32.950  10.804
35720W        W  947  14.176  37.339  12.123
35721W        W  948  28.108  30.795   3.361
35722W        W  949  35.058  33.453   1.946
35723W        W  950   6.833  38.006  13.676
35724W        W  951  43.350  37.358   2.821
35725W        W  952  12.729  34.435  11.830
35726W        W  953  29.888  38.097  14.965
35727W        W  954  15.049  40.420   2.709
35728W        W  955  16.118  39.604   3.647
35729W        W  956  13.731  33.442  12.076
35730W        W  957  10.902   6.976  11.143
35731W        W  958  29.622  10.229  12.158
35732W        W  959   5.882  21.553   1.870
35733W        W  960  18.032  33.625   1.672
35734W        W  961  24.142   0.488   1.142
35735W        W  962  17.325   4.339  14.942
35736W        W  963   1.952  37.983  13.928
35737W        W  964  27.657  22.685  12.836
35738W        W  965  12.556   2.348   3.313
35739W        W  966  11.348  23.125  12.072
35740W        W  967  33.477  23.368   3.847
35741W        W  968   3.763   9.771  14.107
35742W        W  969  39.813  39.835  11.428
35743W        W  970  22.242  22.778  11.570
35744W        W  971  11.675   4.574   4.148
35745W        W  972  12.228  12.315  12.122
35746W        W  973  21.991  29.058   0.173
35747W        W  974  15.097  44.684  14.040
35748W        W  975  16.892  13.568  10.892
35749W        W  976  14.321   4.010  14.481
35750W        W  977  27.335  14.071   4.158
35751W        W  978  25.704  28.987  12.572
35752W        W  979  37.523  15.520   4.343
35753W        W  980  14.707  11.082  12.038
35754W        W  981  14.732   1.766  11.925
35755W        W  982  41.402  11.520   0.417
35756W        W  983  36.866  41.987  10.812
35757W        W  984   7.255  11.703  13.299
35758W        W  985  21.510  19.240  14.778
35759W        W  986  35.444  12.525  12.900
35760W        W  987  12.733  27.500  10.669
35761W        W  988  14.217  33.904  11.041
35762W        W  989  31.603  10.628   0.332
35763W        W  990  10.048  14.167  10.766
35764W        W  991   0.431  24.541  10.451
35765W        W  992  28.311  11.268  11.651
35766W        W  993  28.917  21.555  11.276
35767W        W  994  42.839  35.002  10.988
35768W        W  995   0.632  31.235  11.860
35769W        W  996  21.334  27.385   2.885
35770W        W  997  18.795  21.573   3.782
35771W        W  998  39.034  22.783   3.424
35772W        W  999   5.735   0.875   0.504
35773W        W 1000  36.857  10.435  13.764
35774W        W 1001  12.359  14.888  13.386
35775W        W 1002  28.436  14.474   4.531
35776W        W 1003  25.947  36.564  14.378
35777W        W 1004  37.508   8.443   1.323
35778W        W 1005   5.997  27.380   1.479
35779W        W 1006  24.288  15.915  11.280
35780W        W 1007  36.995  26.758  11.526
35781W        W 1008   8.385  20.248   1.420
35782W        W 1009  44.086  35.896   3.695
35783W        W 1010  34.965   5.167  11.203
35784W        W 1011  11.845  16.788   3.657
35785W        W 1012  40.073  16.338  14.773
35786W        W 1013  28.978   1.492   4.409
35787W        W 1014  34.426  13.167   2.728
35788W        W 1015  41.645  41.937  10.738
35789W        W 1016  12.778  33.616   1.409
35790W        W 1017  17.387  38.488   0.146
35791W        W 1018  19.204   7.208   0.767
35792W        W 1019  27.265  10.078  12.451
35793W        W 1020   3.952   5.965   0.894
35794W        W 1021  20.705  19.420  12.969
35795W        W 1022  17.851  41.315  13.803
35796W        W 1023   5.635  15.573  14.120
35797W        W 1024   9.506  20.945  11.153
35798W        W 1025  41.834   8.670  12.520
35799W        W 1026  12.210  38.002  13.604
35800W        W 1027  22.310  17.267  12.398
35801W        W 1028  28.904  26.885  11.619
35802W        W 1029  42.938  28.754   1.184
35803W        W 1030  41.496  43.757  11.948
35804W        W 1031  12.566   5.860  12.018
35805W        W 1032  35.569  43.348  10.580
35806W        W 1033  11.347   8.118   0.981
35807W        W 1034   8.135   9.373  10.525
35808W        W 1035  40.027  43.516   3.548
35809W        W 1036  40.006  24.004  11.962
35810W        W 1037  34.164  23.539  10.739
35811W        W 1038  41.963  15.148   0.707
35812W        W 1039   7.864  37.069  14.018
35813W        W 1040  39.869  11.660   0.346
35814W        W 1041  36.490  26.406   2.724
35815W        W 1042   0.836  27.744  12.735
35816W        W 1043  39.922  43.976   3.774
35817W        W 1044  14.894  27.929   1.187
35818W        W 1045  12.917  27.959   0.881
35819W        W 1046   9.703  39.348   2.221
35820W        W 1047  12.789  41.693   1.989
35821W        W 1048  15.036  41.880  11.456
35822W        W 1049  16.531   6.180   2.410
35823W        W 1050  30.821   8.138  10.984
35824W        W 1051  19.793  37.415  11.919
35825W        W 1052  17.276  14.002  12.164
35826W        W 1053   6.194  44.952   0.342
35827W        W 1054  43.987  13.082  13.447
35828W        W 1055  12.879  37.477  11.650
35829W        W 1056  14.581   1.969   2.298
35830W        W 1057   0.576  21.678   3.459
35831W        W 1058  35.149  44.633   1.225
35832W        W 1059  37.620  44.736  12.061
35833W        W 1060  10.129   1.504   4.189
35834W        W 1061  26.199   5.820   2.326
35835W        W 1062  35.727   4.157   2.773
35836W        W 1063   9.894  15.070   1.425
35837W        W 1064   5.935   4.665  12.956
35838W        W 1065  29.741   7.028  11.082
35839W        W 1066  25.572  34.822   4.321
35840W        W 1067  21.607   5.194   1.214
35841W        W 1068  38.745  19.728   3.714
35842W        W 1069   6.253  11.776   1.058
35843W        W 1070  33.563  42.835   2.529
35844W        W 1071  10.656   8.878   2.065
35845W        W 1072  30.600   4.719  10.790
35846W        W 1073   8.291  41.430  13.632
35847W        W 1074  28.479   7.843  12.376
35848W        W 1075  14.953  28.135   2.540
35849W        W 1076  29.890  34.047  12.575
35850W        W 1077  32.589  44.973  11.163
35851W        W 1078  30.159   0.424   2.869
35852W        W 1079  31.980  32.978  12.443
35853W        W 1080   2.450  11.290  11.185
35854W        W 1081  16.263  22.663   0.542
35855W        W 1082  32.651   6.798   3.333
35856W        W 1083   5.042  22.691  12.515
35857W        W 1084  19.415  10.328   1.837
35858W        W 1085  24.468  35.396   0.220
35859W        W 1086  39.958  31.725   1.297
35860W        W 1087  16.051  23.006  11.650
35861W        W 1088  36.175  10.725  11.227
35862W        W 1089  11.755  43.302  14.443
35863W        W 1090  32.007  40.021   4.481
35864W        W 1091  26.525   6.984   1.707
35865W        W 1092  15.819  13.760  12.882
35866W        W 1093  12.677  18.233  10.478
35867W        W 1094  22.095  27.243   4.590
35868W        W 1095  11.691  13.222   0.911
35869W        W 1096  32.890   5.992   3.681
35870W        W 1097  38.102  28.603   2.357
35871W        W 1098  11.638  43.327  11.828
35872W        W 1099  20.084  43.359   1.389
35873W        W 1100  21.005   8.235   0.830
35874W        W 1101  10.372  18.337   3.304
35875W        W 1102   0.986   3.762  12.358
35876W        W 1103  34.567  25.745   1.765
35877W        W 1104  36.823   7.888  10.818
35878W        W 1105  39.067  18.724  14.415
35879W        W 1106  10.373  38.449  10.922
35880W        W 1107  36.782  39.851  13.802
35881W        W 1108  34.139   6.932   3.173
35882W        W 1109   6.813  33.786  11.140
35883W        W 1110  44.018  37.410  13.923
35884W        W 1111  34.513  39.957  12.184
35885W        W 1112  36.567  35.153  10.416
35886W        W 1113   6.558   9.366   1.375
35887W        W 1114  12.716  13.648   2.766
35888W        W 1115   3.919  40.355   0.249
35889W        W 1116  29.939  30.867  11.086
35890W        W 1117  36.399  21.596   2.945
35891W        W 1118  22.774  12.782   3.207
35892W        W 1119  27.039  20.300   4.158
35893W        W 1120  36.597   2.734  13.894
35894W        W 1121  44.955   5.330   3.822
35895W        W 1122  15.914  13.318  11.114
35896W        W 1123  16.642  15.774   3.697
35897W        W 1124  34.668   9.268  13.457
35898W        W 1125   7.840  11.942   2.775
35899W        W 1126  39.968   0.631   1.146
35900W        W 1127  41.523   2.302  10.767
35901W        W 1128  18.240  34.048   1.898
35902W        W 1129  29.963   3.411  11.429
35903W        W 1130   6.712  40.086   1.935
35904W        W 1131  35.066  21.828  10.698
35905W        W 1132  29.721  17.753   1.963
35906W        W 1133  43.120  16.506   3.177
35907W        W 1134  39.072  18.701  13.518
35908W        W 1135  29.112  17.178   3.145
35909W        W 1136  21.924   4.705  12.171
35910W        W 1137  13.712  18.233   4.470
35911W        W 1138   2.383  42.286  11.631
35912W        W 1139  16.344  38.439  13.449
35913W        W 1140  44.516  24.858   1.952
35914W        W 1141  16.661  23.137   1.810
35915W        W 1142  29.034   4.676  13.810
35916W        W 1143   0.308   6.488  13.339
35917W        W 1144  30.592  30.053   4.049
35918W        W 1145  30.846  31.641  11.098
35919W        W 1146   6.687  19.585  10.728
35920W        W 1147  37.844  28.122   3.665
35921W        W 1148  11.899  11.700   3.530
35922W        W 1149  13.572  14.667  12.222
35923W        W 1150  14.719  26.622   2.011
35924W        W 1151  13.758  34.374  14.236
35925W        W 1152  13.626  21.262  10.651
35926W        W 1153  42.545   6.052   2.631
35927W        W 1154  27.606   7.855  12.893
35928W        W 1155  30.040  17.600  14.380
35929W        W 1156   0.184  42.000  14.914
35930W        W 1157  13.317   1.328   0.190
35931W        W 1158   6.182  25.444  11.212
35932W        W 1159  25.949  10.672   1.370
35933W        W 1160  13.662   4.610  14.239
35934W        W 1161  40.769  31.526   1.580
35935W        W 1162  30.089  19.312  11.731
35936W        W 1163   5.141   2.224  13.444
35937W        W 1164  35.581  27.118   4.305
35938W        W 1165  23.947  33.026  12.701
35939W        W 1166  37.127  40.755   1.324
35940W        W 1167  36.446   7.107  11.995
35941W        W 1168   5.390   4.278   2.689
35942W        W 1169  38.530  41.086   0.278
35943W        W 1170   6.850  19.331  12.929
35944W        W 1171   4.641  11.559  11.440
35945W        W 1172  22.701  28.241  11.655
35946W        W 1173  27.067  16.784  14.379
35947W        W 1174   8.759   8.787  11.151
35948W        W 1175  13.133  10.114   2.844
35949W        W 1176  26.167  29.698   0.399
35950W        W 1177   3.307  30.671  10.834
35951W        W 1178  16.568  24.574  13.541
35952W        W 1179   5.414  13.375   0.296
35953W        W 1180  23.098  21.306  12.231
35954W        W 1181  17.949  28.934  13.046
35955W        W 1182   9.528   3.960   3.537
35956W        W 1183  11.931  31.137   1.749
35957W        W 1184  10.321  30.711  12.449
35958W        W 1185  39.990  29.906  14.140
35959W        W 1186  31.513  41.857  14.072
35960W        W 1187  28.658  39.892   1.285
35961W        W 1188  29.648   2.704  12.657
35962W        W 1189  25.576  40.158  13.527
35963W        W 1190  16.225   2.897   4.253
35964W        W 1191  44.188  11.173   3.152
35965W        W 1192  16.313  17.356  14.067
35966W        W 1193  44.763  39.191  11.763
35967W        W 1194   1.746  29.726   2.362
35968W        W 1195  22.331  36.075  14.385
35969W        W 1196   9.727   3.478   1.337
35970W        W 1197  34.120   1.282  12.007
35971W        W 1198  35.500   1.988   0.982
35972W        W 1199  35.443  40.773   1.668
35973W        W 1200  39.358   1.106  12.543
35974W        W 1201   0.435  40.443  11.658
35975W        W 1202  16.487  19.734   3.076
35976W        W 1203   2.574  21.814   2.265
35977W        W 1204   1.662   6.228  12.959
35978W        W 1205  28.010  31.021   4.750
35979W        W 1206  38.260  43.473  11.716
35980W        W 1207  35.224  39.380   3.171
35981W        W 1208   4.429  33.361  10.765
35982W        W 1209  17.039  10.888  11.200
35983W        W 1210   8.656  24.279   3.719
35984W        W 1211  21.861  24.413   3.207
35985W        W 1212   9.356  34.194  12.925
35986W        W 1213  16.219  33.833  14.020
35987W        W 1214  32.127  19.661   4.608
35988W        W 1215  21.561  26.882  11.546
35989W        W 1216  34.310   3.466   2.802
35990W        W 1217  23.717  14.866  14.905
35991W        W 1218   6.945  41.299  13.485
35992W        W 1219   4.522  29.116  11.521
35993W        W 1220  37.097  26.893   4.168
35994W        W 1221  25.979  41.519  10.978
35995W        W 1222  44.643  33.918   0.444
35996W        W 1223  16.340  17.171  13.596
35997W        W 1224   4.508  26.480   1.272
35998W        W 1225  32.561  36.053  11.573
35999W        W 1226  17.234   4.927  14.176
36000W        W 1227  41.533   4.887  13.559
36001W        W 1228  29.045   1.475  13.965
36002W        W 1229   6.339  27.242   4.475
36003W        W 1230  36.991  15.782   1.136
36004W        W 1231  43.957  16.289  11.904
36005W        W 1232   1.334  31.742   0.027
36006W        W 1233  32.484  27.927   1.256
36007W        W 1234   8.134   7.681  13.071
36008W        W 1235  44.706  39.610   1.341
36009W        W 1236   5.718  16.381  11.548
36010W        W 1237  31.658  21.184  14.026
36011W        W 1238  38.968  41.174   3.137
36012W        W 1239  25.967  39.811   4.131
36013W        W 1240  25.567  27.576  13.531
36014W        W 1241   0.320  31.438   1.779
36015W        W 1242  16.428  26.028   4.115
36016W        W 1243  13.419  12.185  11.815
36017W        W 1244  41.605   0.471   3.493
36018W        W 1245  17.856  43.402   1.436
36019W        W 1246   7.416  31.024   0.942
36020W        W 1247  43.875  42.911   4.139
36021W        W 1248  21.166  34.671   4.707
36022W        W 1249  44.568  19.064  11.379
36023W        W 1250  44.765  30.952   2.216
36024W        W 1251   5.664  29.802  14.759
36025W        W 1252  27.855  20.815   1.718
36026W        W 1253  16.655  11.238   3.751
36027W        W 1254  14.055  23.976   1.174
36028W        W 1255  28.064  26.687  11.625
36029W        W 1256  16.068  25.655   0.257
36030W        W 1257  33.924  34.610  13.563
36031W        W 1258  35.036  10.735   1.200
36032W        W 1259   9.229  37.526   0.992
36033W        W 1260  36.263  44.680  12.046
36034W        W 1261  37.366  29.448   4.209
36035W        W 1262   9.589  37.000   1.036
36036W        W 1263  41.953  17.311  12.637
36037W        W 1264  40.731  43.227  10.808
36038W        W 1265  12.354  14.368   0.348
36039W        W 1266  11.709  22.081  10.701
36040W        W 1267   9.731   8.185  14.894
36041W        W 1268  17.197  43.378  10.605
36042W        W 1269  42.558   9.877   0.282
36043W        W 1270  33.959  17.282   1.688
36044W        W 1271  22.581  19.823   4.082
36045W        W 1272  38.307  18.675  10.767
36046W        W 1273  43.196  13.778  12.010
36047W        W 1274  10.049   5.386  13.391
36048W        W 1275  28.093  35.002   2.371
36049W        W 1276   9.826  15.255   0.589
36050W        W 1277  18.641  36.059  14.344
36051W        W 1278  11.767   9.933  13.865
36052W        W 1279  39.871  14.536  10.547
36053W        W 1280  41.523  17.370   1.243
36054W        W 1281  44.935   7.931   4.125
36055W        W 1282   6.192  40.371  11.570
36056W        W 1283  15.970  32.039   0.958
36057W        W 1284  41.289  41.605  12.968
36058W        W 1285  41.771  43.275  14.332
36059W        W 1286  36.822  18.188   3.211
36060W        W 1287  34.452  34.902  13.512
36061W        W 1288  19.849   9.789  13.349
36062W        W 1289  10.885  41.894  13.930
36063W        W 1290  27.436  11.830  11.865
36064W        W 1291  31.059  14.628  14.256
36065W        W 1292  43.920  25.672   4.101
36066W        W 1293  34.078  40.258   2.090
36067W        W 1294   6.177  14.309  13.420
36068W        W 1295   1.802  28.420   2.682
36069W        W 1296   0.970  26.498   3.130
36070W        W 1297  26.371  23.123   1.247
36071W        W 1298   2.791  42.537  14.344
36072W        W 1299  12.654   5.865   4.202
36073W        W 1300  39.514  24.096  13.104
36074W        W 1301   5.568  43.921   0.025
36075W        W 1302   4.173  14.954   0.057
36076W        W 1303  41.019   3.144   5.157
36077W        W 1304  36.198  37.792   1.380
36078W        W 1305  26.191  33.430  14.586
36079W        W 1306  39.943   8.300  14.985
36080W        W 1307   5.228  14.664   2.210
36081W        W 1308  10.227  26.981  14.449
36082W        W 1309   3.600  21.754   4.247
36083W        W 1310  18.989  43.759   0.792
36084W        W 1311  40.296  44.699   0.028
36085W        W 1312   2.349   0.872   2.132
36086W        W 1313   4.754  41.162   2.292
36087W        W 1314  32.914  19.058   3.683
36088W        W 1315  41.443   4.932  10.742
36089W        W 1316  10.861  44.282  13.890
36090W        W 1317   6.501  41.416   2.436
36091W        W 1318  44.969  26.440   3.041
36092W        W 1319  10.512   1.185   3.409
36093W        W 1320  15.779  35.338   2.466
36094W        W 1321  32.010  36.967  14.749
36095W        W 1322  15.651  31.207  12.824
36096W        W 1323   1.783  31.572   4.987
36097W        W 1324  12.589  20.789   0.383
36098W        W 1325   5.946  31.476   1.196
36099W        W 1326  27.610  43.277   0.717
36100W        W 1327   1.395  20.984  10.907
36101W        W 1328  39.314  21.819  13.653
36102W        W 1329  17.992  38.987   4.020
36103W        W 1330  38.994  16.534   2.721
36104W        W 1331  37.868  15.320  11.541
36105W        W 1332  28.199  35.337  12.181
36106W        W 1333  27.759  14.737   2.127
36107W        W 1334   8.536  18.299  11.330
36108W        W 1335  14.726  34.672  10.754
36109W        W 1336   0.283   4.861  14.039
36110W        W 1337  19.479  37.730  14.460
36111W        W 1338   3.956  24.372  10.313
36112W        W 1339  36.553   2.730   4.131
36113W        W 1340  13.817  30.447   3.548
36114W        W 1341   8.864  15.308  12.995
36115W        W 1342  39.950  34.899  11.978
36116W        W 1343   5.906  19.333  12.371
36117W        W 1344  20.027  38.534   1.004
36118W        W 1345  22.674  10.983   1.969
36119W        W 1346  17.590   5.544   3.402
36120W        W 1347  35.711   1.761  12.542
36121W        W 1348  23.730  29.474  13.372
36122W        W 1349  27.479  17.607  13.846
36123W        W 1350  26.678  21.075  11.658
36124W        W 1351   8.790  42.034   3.140
36125W        W 1352  42.704  10.348   3.401
36126W        W 1353  22.502  11.950   4.637
36127W        W 1354  33.087  36.179   0.273
36128W        W 1355  28.013  18.082  14.990
36129W        W 1356  18.315  11.454   4.470
36130W        W 1357  26.086   2.992  13.872
36131W        W 1358  19.882  13.321  14.014
36132W        W 1359  26.421  39.558   4.068
36133W        W 1360  26.040  42.554  13.894
36134W        W 1361   6.139  14.689   3.727
36135W        W 1362  37.318  25.420  13.367
36136W        W 1363  20.293  42.958   4.005
36137W        W 1364  21.295  40.847   2.324
36138W        W 1365  17.305   3.961  11.265
36139W        W 1366  28.579  10.696   4.099
36140W        W 1367  28.098   6.317   1.853
36141W        W 1368  36.640   5.860   2.226
36142W        W 1369  34.679  19.989  14.936
36143W        W 1370  32.804  35.011  11.134
36144W        W 1371   8.938   9.854  11.155
36145W        W 1372   2.705   0.837  12.167
36146W        W 1373  35.294  37.877   2.973
36147W        W 1374  13.515  26.562  11.176
36148W        W 1375   3.875  15.272  11.849
36149W        W 1376  42.043  24.739  13.991
36150W        W 1377  17.836  32.480  13.473
36151W        W 1378   7.671  38.338   0.847
36152W        W 1379  20.518  13.868  11.056
36153W        W 1380  42.447  40.600  12.847
36154W        W 1381  44.378  43.467  11.531
36155W        W 1382  39.423  11.134   4.253
36156W        W 1383  37.043   6.624  12.085
36157W        W 1384  28.909  20.972  12.634
36158W        W 1385   3.385   2.263   0.343
36159W        W 1386  40.558  35.082  10.736
36160W        W 1387  16.565   5.722  13.304
36161W        W 1388  35.270  18.117  14.106
36162W        W 1389  38.112  19.802  10.192
36163W        W 1390  36.795   5.803  10.615
36164W        W 1391  21.683  27.515  11.931
36165W        W 1392  24.398   3.043  13.063
36166W        W 1393  39.994  39.888   2.636
36167W        W 1394  12.297  44.575  11.389
36168W        W 1395   9.139  19.686  12.006
36169W        W 1396  28.521  36.537   3.696
36170W        W 1397  31.401   1.497   4.120
36171W        W 1398   4.496  29.264   3.743
36172W        W 1399  36.103  28.945  12.011
36173W        W 1400  13.025   2.309  11.662
36174W        W 1401   9.300   5.127  12.177
36175W        W 1402  11.064   2.552   4.555
36176W        W 1403   3.780   7.268   3.379
36177W        W 1404  25.258  24.259  11.042
36178W        W 1405  14.081   7.378   3.264
36179W        W 1406   0.503  28.275  14.458
36180W        W 1407   3.643  40.438   1.120
36181W        W 1408  39.099  34.115   0.268
36182W        W 1409   7.255  31.639  11.024
36183W        W 1410   8.650  11.787  12.658
36184W        W 1411  38.944  40.457   2.421
36185W        W 1412  37.129  17.738   4.150
36186W        W 1413  33.059  12.127   0.934
36187W        W 1414  44.372   6.505   3.549
36188W        W 1415  37.071  22.414   4.362
36189W        W 1416  36.595   4.018  13.973
36190W        W 1417  14.844  24.219  11.993
36191W        W 1418  11.751  15.362   1.822
36192W        W 1419  27.146  26.708   2.349
36193W        W 1420  40.829  41.065  14.900
36194W        W 1421  39.755   2.027   1.694
36195W        W 1422  26.505  10.372   4.497
36196W        W 1423  34.872   0.738   4.637
36197W        W 1424  31.839  37.407  11.605
36198W        W 1425  31.864  36.831   0.707
36199W        W 1426  11.148  25.178  11.431
36200W        W 1427   8.275  42.912  12.649
36201W        W 1428  33.794  25.711  13.380
36202W        W 1429   9.763  23.839   0.021
36203W        W 1430   6.221  18.730   3.718
36204W        W 1431   9.391  30.710   1.394
36205W        W 1432  12.261  23.273   4.581
36206W        W 1433  29.419  38.643  11.350
36207W        W 1434  32.384  14.783   0.288
36208W        W 1435   4.123  14.895   4.951
36209W        W 1436  38.419  38.975  14.435
36210W        W 1437  35.355  30.193   0.652
36211W        W 1438  34.080  19.466   3.219
36212W        W 1439  33.867   3.677   2.950
36213W        W 1440  11.654  23.180  14.667
36214W        W 1441   2.724  41.419  13.412
36215W        W 1442   4.003  19.749   1.224
36216W        W 1443  42.020  27.459  13.718
36217W        W 1444  11.681  27.027  12.496
36218W        W 1445  11.800  24.437  12.070
36219W        W 1446  30.108  23.129  11.946
36220W        W 1447  16.853  14.989  10.947
36221W        W 1448  21.567   1.791  14.896
36222W        W 1449  23.994  21.188  11.570
36223W        W 1450  18.769  20.608   1.285
36224W        W 1451   6.157  29.688  11.402
36225W        W 1452  22.973  22.666  13.986
36226W        W 1453  16.809   1.930   4.142
36227W        W 1454  42.781  34.886  13.867
36228W        W 1455  32.765   3.515  11.713
36229W        W 1456  26.327  10.213   2.293
36230W        W 1457  33.579  14.172  14.553
36231W        W 1458   4.073  24.324  12.138
36232W        W 1459  25.662   1.757  11.169
36233W        W 1460  35.182  33.488   4.632
36234W        W 1461  32.106  25.586   4.128
36235W        W 1462   5.343   1.528   2.884
36236W        W 1463  25.077  23.930   0.252
36237W        W 1464   5.775  14.628  14.450
36238W        W 1465  19.588  23.082  12.308
36239W        W 1466  18.641  28.369  14.397
36240W        W 1467   7.734  41.687  12.907
36241W        W 1468   4.908  19.338   2.250
36242W        W 1469   5.460  25.042   0.799
36243W        W 1470  25.135   6.783   2.188
36244W        W 1471  29.750  40.628   3.799
36245W        W 1472  29.617  16.803   4.708
36246W        W 1473  25.967  19.321   3.242
36247W        W 1474  18.897  29.616   4.156
36248W        W 1475   9.399   1.700   0.320
36249W        W 1476   2.432  14.755   3.886
36250W        W 1477  44.829  31.662   1.761
36251W        W 1478  16.066  32.690  10.244
36252W        W 1479  35.280  44.968   3.753
36253W        W 1480  24.622  37.667  13.840
36254W        W 1481  34.408   4.879  10.940
36255W        W 1482  22.157  18.539  10.508
36256W        W 1483  29.966  25.408   0.529
36257W        W 1484  20.043  20.823   2.435
36258W        W 1485  15.589  31.829   3.156
36259W        W 1486  42.889  36.212  13.326
36260W        W 1487  27.522  33.657  11.271
36261W        W 1488  42.005  32.836  14.262
36262W        W 1489  40.028  28.332  11.158
36263W        W 1490  23.678  21.786   2.674
36264W        W 1491  13.720  16.011   2.729
36265W        W 1492  34.215   0.421  13.575
36266W        W 1493   0.324  44.915  12.961
36267W        W 1494   8.611  12.258   2.297
36268W        W 1495  31.463  32.904   3.564
36269W        W 1496  35.065  42.573   2.888
36270W        W 1497  17.484   0.579  12.201
36271W        W 1498   4.640  10.471   3.821
36272W        W 1499  44.013  14.824  13.941
36273W        W 1500   4.386  18.303   0.935
36274W        W 1501  33.838  29.391  13.974
36275W        W 1502  29.783  26.389   2.374
36276W        W 1503  43.197   9.807  12.150
36277W        W 1504  32.731  10.644   0.938
36278W        W 1505  41.530  14.949   2.981
36279W        W 1506  21.265  14.842  13.938
36280W        W 1507   0.447  17.082   1.573
36281W        W 1508  34.137   5.376   4.227
36282W        W 1509  18.615   1.014  13.870
36283W        W 1510  39.130  28.033   2.685
36284W        W 1511  22.598  43.235  14.321
36285W        W 1512  41.653  44.050   0.319
36286W        W 1513  37.364  43.573   0.266
36287W        W 1514  44.235  25.932   2.358
36288W        W 1515  20.695  21.521  12.267
36289W        W 1516  21.563  15.589  14.949
36290W        W 1517  22.110  23.477  13.174
36291W        W 1518  38.154  27.265  12.574
36292W        W 1519   3.705  21.576   1.206
36293W        W 1520  34.780  22.674   2.979
36294W        W 1521  37.934  15.761   2.575
36295W        W 1522   0.988  34.460  14.496
36296W        W 1523  31.857  39.398  10.589
36297W        W 1524  11.256  16.634   4.461
36298W        W 1525   5.350  19.986   4.528
36299W        W 1526  19.274   9.275  12.111
36300W        W 1527  43.811  27.967   3.648
36301W        W 1528   3.396   0.918   0.631
36302W        W 1529  37.849   0.482   4.189
36303W        W 1530  42.976   0.792  13.596
36304W        W 1531  23.746  16.237   2.833
36305W        W 1532  23.939   4.416  14.691
36306W        W 1533   9.588  28.917   4.781
36307W        W 1534  35.880  33.053   0.390
36308W        W 1535  42.980  33.121   0.322
36309W        W 1536   4.202  19.124  12.565
36310W        W 1537  21.282  16.039  13.337
36311W        W 1538   4.894  10.579  12.430
36312W        W 1539   4.619  42.135  14.821
36313W        W 1540  36.973   3.821   2.156
36314W        W 1541   8.630  26.995   4.080
36315W        W 1542  11.534   9.163  14.384
36316W        W 1543  31.446  31.936  12.282
36317W        W 1544   5.843   3.191   9.760
36318W        W 1545  20.561  40.312   4.103
36319W        W 1546  14.158  44.842   1.260
36320W        W 1547  29.440  22.224   0.468
36321W        W 1548  15.266   0.375   1.797
36322W        W 1549  12.682  18.553  14.842
36323W        W 1550  22.871  16.620  11.557
36324W        W 1551  44.703  31.945   1.326
36325W        W 1552  42.691  20.590  12.567
36326W        W 1553  36.829  20.965   1.871
36327W        W 1554  37.729   9.475   0.034
36328W        W 1555  40.990  33.836  11.175
36329W        W 1556  41.594  40.824  11.185
36330W        W 1557   8.896  20.582  10.708
36331W        W 1558  36.810  36.816   3.562
36332W        W 1559  14.251  37.412  11.137
36333W        W 1560   7.743  21.088  14.007
36334W        W 1561  19.030   8.837  11.084
36335W        W 1562  27.409  21.831  11.130
36336W        W 1563  35.973  42.598  13.024
36337W        W 1564  12.397   0.858   1.804
36338W        W 1565   4.843  38.044   2.826
36339W        W 1566  20.647   2.021   2.407
36340W        W 1567  16.006  36.431  10.507
36341W        W 1568  43.969  18.423   0.666
36342W        W 1569  12.127   3.758   1.276
36343W        W 1570   1.586  41.348  14.333
36344W        W 1571   5.286   9.857  12.389
36345W        W 1572   0.569  14.042   1.346
36346W        W 1573  22.440  25.743  13.882
36347W        W 1574  26.721  38.471   2.725
36348W        W 1575  35.656  33.519   4.893
36349W        W 1576  22.439   6.032   0.867
36350W        W 1577   0.700  17.682  11.072
36351W        W 1578   2.811   3.960  13.482
36352W        W 1579  44.537  31.633  13.753
36353W        W 1580  12.368  30.954   4.223
36354W        W 1581  25.973  21.747   3.760
36355W        W 1582  41.443  13.084   4.637
36356W        W 1583  16.684  42.133   1.473
36357W        W 1584  29.943  36.480  13.745
36358W        W 1585  32.598   1.414   4.149
36359W        W 1586  22.275   1.818   1.300
36360W        W 1587   4.752  43.039   0.101
36361W        W 1588   1.502  43.751   0.379
36362W        W 1589  29.158   0.383   2.302
36363W        W 1590  27.592  13.980  13.021
36364W        W 1591  32.083   1.438  10.457
36365W        W 1592  33.623  10.128  10.287
36366W        W 1593  38.271  10.288   0.089
36367W        W 1594  24.179  38.398   3.566
36368W        W 1595  11.339   7.820   3.404
36369W        W 1596   6.768  30.956   4.053
36370W        W 1597   3.946   5.900   2.324
36371W        W 1598  39.537   9.635  14.900
36372W        W 1599  35.151  13.395   2.097
36373W        W 1600   4.423  21.951  12.472
36374W        W 1601  37.804  29.360   3.278
36375W        W 1602  33.486  34.558   2.819
36376W        W 1603  35.732  10.990   4.089
36377W        W 1604   6.353  16.278  12.615
36378W        W 1605  21.134   8.307   3.253
36379W        W 1606  42.470   0.928   0.746
36380W        W 1607   1.832   3.447  12.088
36381W        W 1608  43.745  38.575   1.289
36382W        W 1609  21.752  18.074  11.791
36383W        W 1610  23.148  27.029  12.937
36384W        W 1611  16.719  32.620  12.957
36385W        W 1612  32.844  24.478   1.411
36386W        W 1613  16.366  32.735   5.524
36387W        W 1614  41.359   7.052  13.036
36388W        W 1615  40.836  22.360   0.404
36389W        W 1616  39.418  41.779   4.595
36390W        W 1617  35.941  42.440  10.940
36391W        W 1618  37.987  36.237   1.355
36392W        W 1619  11.090  23.540  13.064
36393W        W 1620  13.777   1.968   3.743
36394W        W 1621  14.901  35.516   3.316
36395W        W 1622  25.143   9.112   0.387
36396W        W 1623   6.675  35.867   1.414
36397W        W 1624  33.277  40.269  12.874
36398W        W 1625  22.746  42.765  14.595
36399W        W 1626  26.973  20.329  11.882
36400W        W 1627  18.344  14.095   2.304
36401W        W 1628   5.357  24.585   4.325
36402W        W 1629   1.581  16.796   5.011
36403W        W 1630  28.948   2.278  12.593
36404W        W 1631  24.685  36.953  13.449
36405W        W 1632  10.842   4.364  11.679
36406W        W 1633  21.963  36.879   1.167
36407W        W 1634  29.956   8.781  11.548
36408W        W 1635  40.094  26.989  12.013
36409W        W 1636  29.880  15.796   3.836
36410W        W 1637  31.928  31.264  14.472
36411W        W 1638  26.281  15.260  12.973
36412W        W 1639  28.447  11.145  10.318
36413W        W 1640  37.275  10.144   3.205
36414W        W 1641  43.808   3.978  12.070
36415W        W 1642  36.268  31.524   3.248
36416W        W 1643  22.653  12.359   0.586
36417W        W 1644   4.999  22.641   1.812
36418W        W 1645  18.555  24.085   4.875
36419W        W 1646  41.709  20.903   3.734
36420W        W 1647   4.495  20.597  12.493
36421W        W 1648  27.535  43.706  13.503
36422W        W 1649  32.223   4.322   4.692
36423W        W 1650  13.221  10.696   3.703
36424W        W 1651   1.306  24.749   1.173
36425W        W 1652  44.293  35.782  14.327
36426W        W 1653  39.341  12.245   2.514
36427W        W 1654  11.005   7.397   0.260
36428W        W 1655  25.684   3.386  12.654
36429W        W 1656  20.522  22.124   4.756
36430W        W 1657  15.687  25.570  14.919
36431W        W 1658  37.107  42.699  12.532
36432W        W 1659  28.728  27.416  12.513
36433W        W 1660   7.896   9.570   2.214
36434W        W 1661   4.875  26.221   0.848
36435W        W 1662  13.978  19.186  14.818
36436W        W 1663  43.204  17.218  13.048
36437W        W 1664   4.247  24.054   1.929
36438W        W 1665  26.683  30.664   2.320
36439W        W 1666   5.391  40.903   1.611
36440W        W 1667  20.746  41.945  11.864
36441W        W 1668  13.641  34.916   0.742
36442W        W 1669  29.968  40.826   0.439
36443W        W 1670  22.699  30.424  11.792
36444W        W 1671  11.920  11.445  13.862
36445W        W 1672  21.245  44.964  13.881
36446W        W 1673   2.054  30.724  14.507
36447W        W 1674  23.032  40.439   2.165
36448W        W 1675  38.762  40.931   3.738
36449W        W 1676  24.192  36.792   3.705
36450W        W 1677  38.933  20.640   0.682
36451W        W 1678   8.042   9.796   4.334
36452W        W 1679  44.939   7.908   0.320
36453W        W 1680  10.643   5.471  11.030
36454W        W 1681  13.214  38.886  12.215
36455W        W 1682  35.117  38.852  14.037
36456W        W 1683  13.664   6.124   4.529
36457W        W 1684   9.666  15.656  13.931
36458W        W 1685  15.792   0.896   4.026
36459W        W 1686  41.316  30.666  14.027
36460W        W 1687  12.333  33.195  10.852
36461W        W 1688  36.738  32.482  11.126
36462W        W 1689   7.404  39.811  14.302
36463W        W 1690  30.401  42.950   3.062
36464W        W 1691  35.901   6.870   2.801
36465W        W 1692  44.225   4.436  10.922
36466W        W 1693  19.547   2.249   2.459
36467W        W 1694   1.794  34.319  11.959
36468W        W 1695  21.648  26.221  12.016
36469W        W 1696  39.563  18.798  13.520
36470W        W 1697  33.007  10.604  10.785
36471W        W 1698  35.640  24.088  14.791
36472W        W 1699  31.924   8.984   3.095
36473W        W 1700  16.594  39.133   3.126
36474W        W 1701  41.413  37.712  11.480
36475W        W 1702  14.878  36.218   2.869
36476W        W 1703   4.987   1.814   3.118
36477W        W 1704  13.170  38.025  13.634
36478W        W 1705  15.822   6.942  12.251
36479W        W 1706  20.011  27.721   4.120
36480W        W 1707  12.671  15.238   0.840
36481W        W 1708  12.079  29.679   1.202
36482W        W 1709   5.398  43.363   4.595
36483W        W 1710  37.839  17.313   2.272
36484W        W 1711  38.137  31.181   0.225
36485W        W 1712  21.503   6.233   4.559
36486W        W 1713  24.619   0.971  12.536
36487W        W 1714   0.154  16.989   2.844
36488W        W 1715  16.002   8.151  10.477
36489W        W 1716  12.521  23.644  13.162
36490W        W 1717  26.607  38.993  12.432
36491W        W 1718  37.934   3.971   3.975
36492W        W 1719  41.487  35.529  12.592
36493W        W 1720  19.543  28.608  14.385
36494W        W 1721  31.046   3.447   3.134
36495W        W 1722  26.684  22.662  13.106
36496W        W 1723  31.660  44.256   2.422
36497W        W 1724  41.932   6.230   1.913
36498W        W 1725  21.557  20.031  10.627
36499W        W 1726  19.125   2.534   3.007
36500W        W 1727  40.973  21.757   1.824
36501W        W 1728  20.845   0.344   9.740
36502W        W 1729   1.942   2.964  13.814
36503W        W 1730  24.071  31.866   5.006
36504W        W 1731  32.141  15.557   3.243
36505W        W 1732  37.556  16.332  13.436
36506W        W 1733  22.029  41.032  13.930
36507W        W 1734  14.561  25.568  13.016
36508W        W 1735  20.520   7.936   2.792
36509W        W 1736  37.561  39.458   2.814
36510W        W 1737  33.935  21.580  11.925
36511W        W 1738  11.884  33.549   2.251
36512W        W 1739   3.201   2.315   3.926
36513W        W 1740  14.918   3.425  11.841
36514W        W 1741  38.843  30.943  11.181
36515W        W 1742   0.638  20.042   1.849
36516W        W 1743  22.005  12.214  11.148
36517W        W 1744   5.784   0.588   1.317
36518W        W 1745  15.343  22.666  13.871
36519W        W 1746  14.229  36.328   1.694
36520W        W 1747  16.240  35.263   2.217
36521W        W 1748  27.060  13.212  14.346
36522W        W 1749   8.477  10.640   0.933
36523W        W 1750   2.957  15.292  14.042
36524W        W 1751   3.359  10.106   0.296
36525W        W 1752  31.810  23.174  14.983
36526W        W 1753  40.023  37.102   0.679
36527W        W 1754  42.476   2.481  11.641
36528W        W 1755  38.117  21.953  12.172
36529W        W 1756  36.987  22.626   3.312
36530W        W 1757  20.150  28.565  10.677
36531W        W 1758  14.247  10.290  14.934
36532W        W 1759   9.021  37.312  10.348
36533W        W 1760  43.395  40.073  12.915
36534W        W 1761   9.414   2.608  14.555
36535W        W 1762  11.144  18.862   4.962
36536W        W 1763  21.544  33.497   4.522
36537W        W 1764  34.457   2.217  13.828
36538W        W 1765  40.472  14.328   4.701
36539W        W 1766  32.039  43.257  13.496
36540W        W 1767   6.336  27.694   4.227
36541W        W 1768  31.588   5.612   1.285
36542W        W 1769  28.337   6.684   1.081
36543W        W 1770   7.664  35.660  10.673
36544W        W 1771  34.073   2.282   4.317
36545W        W 1772  35.946  15.625   3.302
36546W        W 1773  14.280  29.944  12.973
36547W        W 1774  14.388  40.567   3.212
36548W        W 1775  25.122  12.825  13.459
36549W        W 1776   4.067   3.885   3.470
36550W        W 1777  12.314  15.316  12.640
36551W        W 1778   4.700  22.031   2.209
36552W        W 1779   9.091  35.030   9.643
36553W        W 1780  31.783  22.561   0.452
36554W        W 1781   9.623   0.983  12.091
36555W        W 1782  38.424   4.745  10.655
36556W        W 1783  13.679  16.312   2.287
36557W        W 1784  29.104  20.689   1.411
36558W        W 1785  43.842  16.988  12.569
36559W        W 1786   2.366  24.583   0.518
36560W        W 1787  12.312  33.441   3.611
36561W        W 1788   0.905  16.745  11.185
36562W        W 1789   3.200  24.977  13.442
36563W        W 1790  21.227  26.412   5.177
36564W        W 1791   1.649  44.290  12.810
36565W        W 1792  24.385  14.383   4.854
36566W        W 1793  41.374  40.332  14.934
36567W        W 1794  40.351  19.530   0.619
36568W        W 1795   0.180  38.308   1.013
36569W        W 1796  23.670  14.606   1.268
36570W        W 1797   8.436  38.000   3.420
36571W        W 1798  11.272   4.366   1.230
36572W        W 1799  25.727  26.544   0.919
36573W        W 1800  34.957  13.108  12.827
36574W        W 1801  19.391  13.793  14.469
36575W        W 1802   6.696  29.770   4.614
36576W        W 1803  42.395  12.692   4.497
36577W        W 1804  35.374  14.183  13.972
36578W        W 1805   3.429  37.319  12.870
36579W        W 1806   0.268  14.134  13.611
36580W        W 1807  11.681  23.500  12.013
36581W        W 1808  36.158   6.580   0.489
36582W        W 1809  30.966  19.209   1.515
36583W        W 1810  20.758  36.468  10.737
36584W        W 1811  25.002   3.614  13.193
36585W        W 1812  37.113  43.143   1.916
36586W        W 1813  22.541  37.171  10.898
36587W        W 1814  25.396  24.947   2.266
36588W        W 1815  24.175   4.739  11.556
36589W        W 1816  20.987  24.197   0.865
36590W        W 1817   4.869  27.145   4.056
36591W        W 1818  23.636  44.148   4.927
36592W        W 1819   3.562  39.427  14.879
36593W        W 1820  11.689   4.692  14.939
36594W        W 1821  19.935  35.096   2.210
36595W        W 1822   2.345  15.191   4.277
36596W        W 1823  11.909  28.893  14.665
36597W        W 1824   7.060  16.982  14.748
36598W        W 1825  16.274  11.592   1.437
36599W        W 1826   0.812   5.846   0.502
36600W        W 1827  24.718  17.743   2.737
36601W        W 1828  41.415  32.412  12.460
36602W        W 1829  24.718  17.125  13.063
36603W        W 1830  17.120  23.229   2.616
36604W        W 1831   7.261  41.279   1.521
36605W        W 1832   4.821   7.314  12.218
36606W        W 1833  29.220  43.085  11.557
36607W        W 1834  28.443  27.920  14.825
36608W        W 1835  18.684   0.506  13.870
36609W        W 1836  24.526  42.584  12.521
36610W        W 1837  11.628  17.968   1.869
36611W        W 1838  21.000  39.526   3.277
36612W        W 1839  12.278  29.765  13.310
36613W        W 1840   6.757  24.607   0.705
36614W        W 1841  31.043   5.934  14.002
36615W        W 1842  34.806  27.749   4.979
36616W        W 1843  33.265  25.679   3.472
36617W        W 1844  38.622  11.385   0.982
36618W        W 1845  38.748   6.069  13.404
36619W        W 1846  21.597  37.455  11.598
36620W        W 1847   6.638  15.431  12.485
36621W        W 1848   6.358  27.629   2.746
36622W        W 1849   8.017  30.647  13.841
36623W        W 1850  23.529  21.339   4.699
36624W        W 1851  25.580   4.416   4.476
36625W        W 1852  26.558  21.041   3.232
36626W        W 1853  18.556  13.868  10.395
36627W        W 1854  22.342  33.240   1.846
36628W        W 1855  28.699  41.242   4.717
36629W        W 1856  19.224  27.245  14.510
36630W        W 1857  28.408  24.177  13.700
36631W        W 1858  39.127  11.850   4.554
36632W        W 1859   9.948  13.710   4.571
36633W        W 1860  23.575  25.552   1.286
36634W        W 1861  27.524   4.945  13.080
36635W        W 1862   7.142  22.576  11.176
36636W        W 1863  15.462   2.500   4.671
36637W        W 1864   3.477   2.760  14.756
36638W        W 1865  16.237  22.238  10.986
36639W        W 1866   1.236  29.458  14.499
36640W        W 1867  14.694  18.783   1.250
36641W        W 1868  43.439  28.272  11.108
36642W        W 1869   7.373   7.632   1.919
36643W        W 1870  31.088  18.153   2.488
36644W        W 1871   0.919  33.153  12.018
36645W        W 1872   2.815  22.725  14.552
36646W        W 1873  26.462   6.171   3.996
36647W        W 1874   0.181  43.933  12.084
36648W        W 1875  36.766  19.151   4.623
36649W        W 1876  27.543  21.237   1.737
36650W        W 1877  25.747  40.829   0.783
36651W        W 1878  15.153  27.234   4.542
36652W        W 1879  39.818  34.382  12.912
36653W        W 1880  17.754  39.506  14.099
36654W        W 1881   4.009  37.007  13.110
36655W        W 1882  26.948  31.472  14.025
36656W        W 1883  32.883  32.319   1.892
36657W        W 1884  20.703  12.410   4.130
36658W        W 1885  40.024  36.822  14.369
36659W        W 1886  27.099  16.464  12.917
36660W        W 1887   0.394  43.022   9.659
36661W        W 1888   5.380   5.442   3.585
36662W        W 1889  31.519  17.486  12.089
36663W        W 1890  30.186   8.121  13.055
36664W        W 1891  21.095  42.981   0.913
36665W        W 1892  42.016  38.328   2.713
36666W        W 1893  35.171  34.477   4.643
36667W        W 1894   3.941  41.286  14.727
36668W        W 1895   2.889   2.556   1.014
36669W        W 1896  41.986  11.442  11.300
36670W        W 1897  13.475  30.618   2.228
36671W        W 1898  33.285   2.193   0.482
36672W        W 1899  37.886   1.198  12.526
36673W        W 1900  28.325  34.881   1.400
36674W        W 1901   5.202  31.859  13.245
36675W        W 1902  10.276  27.853   4.165
36676W        W 1903  21.136  28.731  11.571
36677W        W 1904  26.905  14.731   1.776
36678W        W 1905  24.423  17.337  14.467
36679W        W 1906  31.458   8.644   3.233
36680W        W 1907  16.055  17.018  10.276
36681W        W 1908  28.235  44.275   1.825
36682W        W 1909  22.703   1.940  13.639
36683W        W 1910  21.162  14.668   3.512
36684W        W 1911   1.615  34.026  12.886
36685W        W 1912  26.615  11.728   4.863
36686W        W 1913  14.764  43.904  10.749
36687W        W 1914  19.842   3.859   0.045
36688W        W 1915  43.687  28.032   1.776
36689W        W 1916  11.833  42.953  14.065
36690W        W 1917  18.087   8.116  13.079
36691W        W 1918  27.666  25.731  10.220
36692W        W 1919   5.394  24.855  11.681
36693W        W 1920  24.763  43.302   1.072
36694W        W 1921  26.547  22.608   0.009
36695W        W 1922  16.442   6.610   2.153
36696W        W 1923   9.599  26.572   0.838
36697W        W 1924  15.246  39.856  10.433
36698W        W 1925  23.013  27.458   1.707
36699W        W 1926  37.912  42.581  12.631
36700W        W 1927   3.869  24.721   1.002
36701W        W 1928  40.838  13.337  10.696
36702W        W 1929   9.391  39.495  10.714
36703W        W 1930  13.639   8.882  11.833
36704W        W 1931  32.703  19.251  12.680
36705W        W 1932   4.282   7.387   1.198
36706W        W 1933  12.154   6.461  11.659
36707W        W 1934  36.574  14.350   0.108
36708W        W 1935  31.140  30.351   0.170
36709W        W 1936  42.293  21.992   4.089
36710W        W 1937  22.329  31.136   1.349
36711W        W 1938   4.532   8.324   1.225
36712W        W 1939   3.822  17.635  10.818
36713W        W 1940  31.884  21.364   3.905
36714W        W 1941  44.283  35.958  12.452
36715W        W 1942  29.666  39.119   2.450
36716W        W 1943  44.297  19.072  12.463
36717W        W 1944   3.720  20.067   0.920
36718W        W 1945   0.745  18.795   4.860
36719W        W 1946   2.466  38.098  14.469
36720W        W 1947  24.701  30.518  10.510
36721W        W 1948  26.625   0.933   4.881
36722W        W 1949   4.459  30.607   1.960
36723W        W 1950  34.885  39.019   4.247
36724W        W 1951  26.684  43.322   0.744
36725W        W 1952  24.972   9.722   1.767
36726W        W 1953   6.739  12.014   3.258
36727W        W 1954  18.587  10.199   1.224
36728W        W 1955   9.881  14.229  12.058
36729W        W 1956  41.114   2.986  11.956
36730W        W 1957   7.486  44.977  11.115
36731W        W 1958   8.853  21.279  11.941
36732W        W 1959  44.713  23.037  12.733
36733W        W 1960  33.619  26.614   4.695
36734W        W 1961  26.616  36.571   2.852
36735W        W 1962  18.566   4.114  11.230
36736W        W 1963  27.214  39.533   1.345
36737W        W 1964  35.955  27.228  12.118
36738W        W 1965   2.409  41.744   4.097
36739W        W 1966  41.458   5.698   1.150
36740W        W 1967  34.582  29.118  12.963
36741W        W 1968   3.787  26.254   5.272
36742W        W 1969  10.346  44.282  13.340
36743W        W 1970  18.657   1.183  13.021
36744W        W 1971  27.694   9.055  12.182
36745W        W 1972   9.221   0.072  14.326
36746W        W 1973  39.437   4.474  13.837
36747W        W 1974  22.281  26.457   4.132
36748W        W 1975  28.067  24.313   1.779
36749W        W 1976  35.088  34.134  12.495
36750W        W 1977  11.838  24.740  12.984
36751W        W 1978  36.170  32.396  11.806
36752W        W 1979  26.517   1.740  14.856
36753W        W 1980  19.791  38.442   4.629
36754W        W 1981  22.294   8.639  12.657
36755W        W 1982  23.913  41.325  13.147
36756W        W 1983  16.776   1.180  12.071
36757W        W 1984  33.437  16.436  14.572
36758W        W 1985   2.860  24.614  12.451
36759W        W 1986  14.148  32.680  13.616
36760W        W 1987  14.275  37.006   0.983
36761W        W 1988  29.436  24.032   2.397
36762W        W 1989   4.958  20.003  10.895
36763W        W 1990  14.875  33.048  13.476
36764W        W 1991  29.758  28.675  12.828
36765W        W 1992   4.184  12.418  14.871
36766W        W 1993   2.585  16.296   0.772
36767W        W 1994  10.835  22.498   3.735
36768W        W 1995   9.217  41.014  12.481
36769W        W 1996  20.379   9.323   0.550
36770W        W 1997  39.602   4.444   0.795
36771W        W 1998  12.224  33.392   4.541
36772W        W 1999  18.583  20.962  13.290
36773W        W 2000  17.650   6.502  10.799
36774W        W 2001   2.893  10.270   3.259
36775W        W 2002  32.298  25.985  14.059
36776W        W 2003  26.122   7.897   2.641
36777W        W 2004  15.530  10.834  14.247
36778W        W 2005  31.949  22.701  11.967
36779W        W 2006  37.966  44.792  11.359
36780W        W 2007  37.449  34.152  11.150
36781W        W 2008  40.834  19.810   0.032
36782W        W 2009  22.540  35.906  12.510
36783W        W 2010   0.258  44.223   4.219
36784W        W 2011  28.605  40.532  14.585
36785W        W 2012  23.234  44.865  14.046
36786W        W 2013  18.004   8.146  14.057
36787W        W 2014  16.210  17.597  10.805
36788W        W 2015  39.253  16.201   2.380
36789W        W 2016  32.610  30.041  12.578
36790W        W 2017  44.798  44.090  13.935
36791W        W 2018  40.274  32.104  12.908
36792W        W 2019  20.138   2.327  10.549
36793W        W 2020  40.274  40.111  13.893
36794W        W 2021   5.730   8.208   0.583
36795W        W 2022  35.828   7.644  14.811
36796W        W 2023  37.450  31.983  12.556
36797W        W 2024  35.674  42.468   0.786
36798W        W 2025  37.016  10.726   3.684
36799W        W 2026  10.605  29.481  10.680
36800W        W 2027  22.745  44.902  13.918
36801W        W 2028  16.403   3.336  14.932
36802W        W 2029  36.531  42.009  13.950
36803W        W 2030  15.608  37.144  12.009
36804W        W 2031  40.750   0.157   2.583
36805W        W 2032  19.995  30.217   2.340
36806W        W 2033  22.747  37.491  10.548
36807W        W 2034  10.241  35.469  10.928
36808W        W 2035   8.110  11.060  13.946
36809W        W 2036  40.899   9.794  14.994
36810W        W 2037  18.188  23.905   2.066
36811W        W 2038  30.149  17.538  13.067
36812W        W 2039   2.290  38.873  12.394
36813W        W 2040  39.080  11.250   0.718
36814W        W 2041  10.807  29.134   2.817
36815W        W 2042  20.519  19.542  14.017
36816W        W 2043  12.280  33.030  14.879
36817W        W 2044   6.850   4.367   2.981
36818W        W 2045  22.182   3.012   1.550
36819W        W 2046  42.874   2.227  12.064
36820W        W 2047  22.591   7.213   3.199
36821W        W 2048  10.011  19.639  14.779
36822W        W 2049  26.667   5.136  14.057
36823W        W 2050  43.213  44.274   0.899
36824W        W 2051  27.070   0.738  13.110
36825W        W 2052  28.259  27.440  14.818
36826W        W 2053   0.783   3.234  10.751
36827W        W 2054   5.139   1.301   0.877
36828W        W 2055   2.185  11.711  11.214
36829W        W 2056  24.046  30.605  12.963
36830W        W 2057   9.649   9.116  14.858
36831W        W 2058  20.808  41.339   1.368
36832W        W 2059   2.877  11.182  14.076
36833W        W 2060   9.649  30.133  13.325
36834W        W 2061  15.668   3.736   2.684
36835W        W 2062  31.079  18.565   3.764
36836W        W 2063  34.787  12.710  11.804
36837W        W 2064  10.186  43.627  13.859
36838W        W 2065   1.231  36.852   0.736
36839W        W 2066  38.268   7.660  11.753
36840W        W 2067  14.355  24.060   2.243
36841W        W 2068  44.252  40.309  14.411
36842W        W 2069   9.780  10.586  14.978
36843W        W 2070  25.098  40.292   1.440
36844W        W 2071  19.145  22.727   4.900
36845W        W 2072  37.391  38.017   2.104
36846W        W 2073  41.353  23.308  11.079
36847W        W 2074  40.272  26.462   1.649
36848W        W 2075   1.969  43.833  13.966
36849W        W 2076  39.817  37.270  12.928
36850W        W 2077  35.325  17.655  14.458
36851W        W 2078  39.416  35.600   1.394
36852W        W 2079  12.319   2.839  10.691
36853W        W 2080   4.822  44.381  14.814
36854W        W 2081  38.872  16.099  10.642
36855W        W 2082   4.513  21.556   2.321
36856W        W 2083  21.582  15.870   2.403
36857W        W 2084  13.650  25.402  13.273
36858W        W 2085  17.574   8.210   1.902
36859W        W 2086   4.718  29.559  12.214
36860W        W 2087  18.115  30.923  14.931
36861W        W 2088  13.452  25.082   3.281
36862W        W 2089  32.123   0.793   3.941
36863W        W 2090   8.537  40.789   4.097
36864W        W 2091   2.536  40.831  11.723
36865W        W 2092   1.921  33.424   1.774
36866W        W 2093   0.516   2.071   4.144
36867W        W 2094  43.690   4.074  14.029
36868W        W 2095  38.540  29.588   1.110
36869W        W 2096  32.922   5.178   0.793
36870W        W 2097   5.466   8.119  13.522
36871W        W 2098  13.721   0.721  13.616
36872W        W 2099   3.091  17.844   3.253
36873W        W 2100  41.237  31.371  11.215
36874W        W 2101   6.058   5.152  11.255
36875W        W 2102  10.176   1.359  14.830
36876W        W 2103  35.554  21.018   2.195
36877W        W 2104  32.138  24.645  14.015
36878W        W 2105  24.097  42.960   2.174
36879W        W 2106  22.291   7.669  13.641
36880W        W 2107  43.998  43.485   1.622
36881W        W 2108  40.969   4.689  10.734
36882W        W 2109  12.430  29.624  14.471
36883W        W 2110   0.344  23.005  14.953
36884W        W 2111   6.163  42.511  12.593
36885W        W 2112  16.146  36.791   4.632
36886W        W 2113  38.992  26.558  11.827
36887W        W 2114  44.074  15.414   5.067
36888W        W 2115   3.529  30.672   2.818
36889W        W 2116  25.827  16.183   0.224
36890W        W 2117  36.993  30.621  12.050
36891W        W 2118  27.316  39.023   3.137
36892W        W 2119   5.183  12.900   1.793
36893W        W 2120  20.278  31.561  12.436
36894W        W 2121  28.236  18.652   3.260
36895W        W 2122   5.528  23.210   2.905
36896W        W 2123  11.384  17.019  12.028
36897W        W 2124  36.953   9.162  12.658
36898W        W 2125  13.388  37.288   2.723
36899W        W 2126   2.167  13.428  14.025
36900W        W 2127  31.890  40.859  12.713
36901W        W 2128  30.182  17.114   3.956
36902W        W 2129  37.038   4.249   1.845
36903W        W 2130  31.518  43.424  13.480
36904W        W 2131  44.027  37.179   4.898
36905W        W 2132   8.784   6.609  10.696
36906W        W 2133  12.078   4.923  13.367
36907W        W 2134  43.983  35.677   0.839
36908W        W 2135  43.415  29.313  11.127
36909W        W 2136  38.105  17.999  10.777
36910W        W 2137  26.099   8.296   3.023
36911W        W 2138  43.650   5.190   0.380
36912W        W 2139   9.521  37.395   1.390
36913W        W 2140  30.616  33.090  12.125
36914W        W 2141  42.569  36.308  11.401
36915W        W 2142  17.936  29.501  11.055
36916W        W 2143  44.330  28.950   4.051
36917W        W 2144  16.092  42.577  10.877
36918W        W 2145  33.992  25.923  11.121
36919W        W 2146  40.193  21.138   9.832
36920W        W 2147  25.136  30.975  10.742
36921W        W 2148   8.338  17.687  11.226
36922W        W 2149  39.019   3.295  14.459
36923W        W 2150  19.158  35.586   3.160
36924W        W 2151  16.576  31.026  11.159
36925W        W 2152   2.736   6.819  11.039
36926W        W 2153  41.321   4.742   0.025
36927W        W 2154  33.174  26.295   0.578
36928W        W 2155   2.822  38.433  13.139
36929W        W 2156  12.152  35.747   2.854
36930W        W 2157   7.153   5.171  11.198
36931W        W 2158   5.479  39.881  11.283
36932W        W 2159   1.779  30.895  14.928
36933W        W 2160  40.745  36.869  13.365
36934W        W 2161   7.255  29.555   0.282
36935W        W 2162  17.981   8.025   4.501
36936W        W 2163   9.801  15.306  12.962
36937W        W 2164   3.372   0.566   4.415
36938W        W 2165  41.360  29.577   2.280
36939W        W 2166  38.348  17.536  13.128
36940W        W 2167   1.331  16.646  13.692
36941W        W 2168  38.053  35.383  12.098
36942W        W 2169  34.596   3.055  14.993
36943W        W 2170  16.246  22.262   3.789
36944W        W 2171  43.841  24.979  11.643
36945W        W 2172   3.580  29.989  11.387
36946W        W 2173  27.240  26.498  13.926
36947W        W 2174   9.592  40.516   0.776
36948W        W 2175  13.936  10.067  13.656
36949W        W 2176  36.095   6.032   1.383
36950W        W 2177  26.788   5.628  13.968
36951W        W 2178   7.407  31.990  12.061
36952W        W 2179  44.269  14.206   3.131
36953W        W 2180  43.111  31.186   2.757
36954W        W 2181  21.590  34.622  10.761
36955W        W 2182  30.167   7.197  12.846
36956W        W 2183   6.768   7.797  13.718
36957W        W 2184  13.170  23.262   3.651
36958W        W 2185  39.284  43.035  12.693
36959W        W 2186  25.965  37.028   4.524
36960W        W 2187  28.237   5.854   1.692
36961W        W 2188  36.345  10.388   4.996
36962W        W 2189   3.838  29.231  14.765
36963W        W 2190   4.824  36.817  11.883
36964W        W 2191  31.551  33.881  11.146
36965W        W 2192  29.317  27.622   1.006
36966W        W 2193  19.131  43.946   3.308
36967W        W 2194  40.441   4.131   1.860
36968W        W 2195  30.130  35.590   3.766
36969W        W 2196  14.222  21.666   4.233
36970W        W 2197  25.998  20.398  11.911
36971W        W 2198  17.939  32.815   4.302
36972W        W 2199   2.013  20.289  13.880
36973W        W 2200  23.124  36.881   1.902
36974W        W 2201  11.614  18.594  12.469
36975W        W 2202  16.028  17.127   1.312
36976W        W 2203  19.545  17.015   1.826
36977W        W 2204  27.975  29.497  12.234
36978W        W 2205  44.429  40.524   0.424
36979W        W 2206  21.787  16.536   2.757
36980W        W 2207   5.213  42.239   1.649
36981W        W 2208  23.345  17.847   1.939
36982W        W 2209  26.401  13.626  13.594
36983W        W 2210  33.238  17.708   3.590
36984W        W 2211  20.170  24.526   2.818
36985W        W 2212  17.700  16.617   4.037
36986W        W 2213  25.369  13.579  12.752
36987W        W 2214   1.466  22.554   2.793
36988W        W 2215  22.258  10.317   4.225
36989W        W 2216   3.011   3.430   1.356
36990W        W 2217   9.914  12.166  12.523
36991W        W 2218   7.790  32.384  11.158
36992W        W 2219   5.216  26.762   0.649
36993W        W 2220  28.114   5.835   0.758
36994W        W 2221   3.010  44.183   4.102
36995W        W 2222  11.713  42.653   2.816
36996W        W 2223  11.296  19.592  12.473
36997W        W 2224  40.045  33.763   3.139
36998W        W 2225   2.712  41.787  13.063
36999W        W 2226   2.841  38.124  12.384
37000W        W 2227   8.172   0.712   4.538
37001W        W 2228  28.327  19.351  11.199
37002W        W 2229  17.588   4.897   2.257
37003W        W 2230   2.781  32.766   1.182
37004W        W 2231  23.798   6.171  10.797
37005W        W 2232  16.218   3.597   4.514
37006W        W 2233  33.378  32.770  10.348
37007W        W 2234  38.051  41.034  11.212
37008W        W 2235  39.424  40.902   3.176
37009W        W 2236  18.120   4.844   4.084
37010W        W 2237  15.099  32.480   4.575
37011W        W 2238  14.683  10.947   0.963
37012W        W 2239  22.947   3.809  14.032
37013W        W 2240  25.667  26.283  12.028
37014W        W 2241  22.000  19.188  13.310
37015W        W 2242  41.916  22.247  10.675
37016W        W 2243  23.160  24.144   0.372
37017W        W 2244  26.093  26.342   3.709
37018W        W 2245   7.770  41.229   2.208
37019W        W 2246  25.138  29.375   4.538
37020W        W 2247   9.139  21.582   3.449
37021W        W 2248  42.402  40.330  14.451
37022W        W 2249   6.758  11.256   2.723
37023W        W 2250  36.939  20.824   1.385
37024W        W 2251  12.080  16.153  14.043
37025W        W 2252  20.724   9.718  13.789
37026W        W 2253  12.052  42.512   4.088
37027W        W 2254  42.790   2.508  14.376
37028W        W 2255   7.543  23.219  14.306
37029W        W 2256  20.462  37.553  14.316
37030W        W 2257  24.215  16.211   1.880
37031W        W 2258  36.322   3.838  14.906
37032W        W 2259  15.270  42.393  12.678
37033W        W 2260  25.523  33.105   0.806
37034W        W 2261  17.749  30.627   0.718
37035W        W 2262   3.245   7.111  10.439
37036W        W 2263  10.162  20.922   0.060
37037W        W 2264   0.425  11.586   3.255
37038W        W 2265  37.640   5.851  12.794
37039W        W 2266  44.887  14.214  10.992
37040W        W 2267  27.948  20.913   4.105
37041W        W 2268  19.644   8.132  13.582
37042W        W 2269  10.194  24.129   3.111
37043W        W 2270  41.943  18.703  13.110
37044W        W 2271   2.916  10.916   1.938
37045W        W 2272  17.041  18.862   3.429
37046W        W 2273  12.264   9.737  13.901
37047W        W 2274  11.302   9.917   2.400
37048W        W 2275   3.888  31.642  14.468
37049W        W 2276  36.857  35.042   3.535
37050W        W 2277   7.676  29.326  11.428
37051W        W 2278  38.858   1.501   2.228
37052W        W 2279  15.773  32.206   0.505
37053W        W 2280   9.354  31.185   4.631
37054W        W 2281   4.739   8.752   4.615
37055W        W 2282   2.831  34.150   4.665
37056W        W 2283  40.464  36.791   2.643
37057W        W 2284  15.276   5.184   4.198
37058W        W 2285  22.221  31.663  11.613
37059W        W 2286  23.538  34.053  13.309
37060W        W 2287   3.728  35.780   0.010
37061W        W 2288  44.459  30.505  14.860
37062W        W 2289  19.494  26.915  11.699
37063W        W 2290  13.868  14.836   4.249
37064W        W 2291  24.440  37.933  11.687
37065W        W 2292  21.338  19.056   2.395
37066W        W 2293   8.829  42.532   3.302
37067W        W 2294  24.431  10.248  13.428
37068W        W 2295  43.517  10.215  13.311
37069W        W 2296  27.765  15.288  13.867
37070W        W 2297   4.703  40.670   0.144
37071W        W 2298  20.288  22.272  10.976
37072W        W 2299   1.721  35.043   1.022
37073W        W 2300  18.825  24.925  11.459
37074W        W 2301  14.321  18.223   2.876
37075W        W 2302  39.430  17.923   1.818
37076W        W 2303   0.524   3.480  13.068
37077W        W 2304  17.637  19.853   1.386
37078W        W 2305  32.444  11.281   0.372
37079W        W 2306   1.495  30.052   0.554
37080W        W 2307  42.196   0.534   2.383
37081W        W 2308  20.746   4.921   4.675
37082W        W 2309  41.811  16.334   3.266
37083W        W 2310  18.344   9.868  13.409
37084W        W 2311  36.681  10.796  11.202
37085W        W 2312  30.204  15.384  11.500
37086W        W 2313  42.944  28.376   4.190
37087W        W 2314  37.272  24.458   2.963
37088W        W 2315  25.085  16.183   0.843
37089W        W 2316  41.412  13.520   0.604
37090W        W 2317  29.623  30.896  10.667
37091W        W 2318  28.299  43.406   4.906
37092W        W 2319  19.792  15.125  11.140
37093W        W 2320  40.434  18.722  11.751
37094W        W 2321  25.192   8.233   2.904
37095W        W 2322   4.720  28.654   0.912
37096W        W 2323  24.175  40.872  13.180
37097W        W 2324   4.445  13.200  13.050
37098W        W 2325   8.179  14.755   0.818
37099W        W 2326   1.342  20.533  14.549
37100W        W 2327  38.139  23.467  11.393
37101W        W 2328  23.592  30.598  14.272
37102W        W 2329   2.674   8.951   0.275
37103W        W 2330   3.856  43.071  12.884
37104W        W 2331  39.449  33.509  14.029
37105W        W 2332  35.582  39.900  12.526
37106W        W 2333   3.192  24.734  13.894
37107W        W 2334  20.536  44.561   1.015
37108W        W 2335   2.478  38.063   4.045
37109W        W 2336  21.845   6.149   0.321
37110W        W 2337  18.190  44.961  13.382
37111W        W 2338  18.509  10.423  11.590
37112W        W 2339  38.954   3.471   0.012
37113W        W 2340  29.079  32.917  13.750
37114W        W 2341  28.010  11.191  14.888
37115W        W 2342  29.507  32.577   0.270
37116W        W 2343   4.874  29.247   2.009
37117W        W 2344  29.987  31.808   1.977
37118W        W 2345  44.338  28.732   0.771
37119W        W 2346  36.025  25.994   0.249
37120W        W 2347  30.288  25.394   9.833
37121W        W 2348  22.085  35.305   4.080
37122W        W 2349  21.099  15.731  11.548
37123W        W 2350  37.549  15.819  13.770
37124W        W 2351   9.009  26.979  12.127
37125W        W 2352  20.999   4.824   3.433
37126W        W 2353   7.188  28.487   0.930
37127W        W 2354   1.904  31.118   2.206
37128W        W 2355  21.232  33.493  13.724
37129W        W 2356  16.349  23.092  13.130
37130W        W 2357  40.399  11.436  14.218
37131W        W 2358  24.321  35.986   2.760
37132W        W 2359   5.686  23.618  13.987
37133W        W 2360  39.912  33.877   3.623
37134W        W 2361  24.520  32.038  11.079
37135W        W 2362  40.343  32.565  13.145
37136W        W 2363  35.507  11.356   2.750
37137W        W 2364  36.928  41.032  13.962
37138W        W 2365  29.767  22.216  13.503
37139W        W 2366  31.891  10.651   0.785
37140W        W 2367  43.813  32.901  11.572
37141W        W 2368  41.364  11.604   1.307
37142W        W 2369  36.431  12.083  12.068
37143W        W 2370  22.001  13.658  11.262
37144W        W 2371  17.811  42.218  10.609
37145W        W 2372  24.382  26.475   0.530
37146W        W 2373  38.716  19.621   1.008
37147W        W 2374   6.977  43.450   4.102
37148W        W 2375  30.390  34.695   2.713
37149W        W 2376   9.438  14.516   0.378
37150W        W 2377  33.598  27.077  14.310
37151W        W 2378  13.360   3.713  12.016
37152W        W 2379   5.842  44.743   4.505
37153W        W 2380  39.517  24.668   2.270
37154W        W 2381  12.681   1.341  11.668
37155W        W 2382   1.554  38.242   4.783
37156W        W 2383  40.941  41.711  14.246
37157W        W 2384   4.168  29.563   3.208
37158W        W 2385  36.679  35.968  12.727
37159W        W 2386  42.681  24.634   2.177
37160W        W 2387  44.717  26.526  14.456
37161W        W 2388  25.625  17.974  10.752
37162W        W 2389  31.990  37.399   4.087
37163W        W 2390  13.720  11.394   1.753
37164W        W 2391  25.159  13.870  14.322
37165W        W 2392  24.879   5.608  14.437
37166W        W 2393   6.707  34.006   1.772
37167W        W 2394  28.149  39.578  13.916
37168W        W 2395  29.939  37.978  13.501
37169W        W 2396  24.146  18.554   2.652
37170W        W 2397  40.248  20.043  11.247
37171W        W 2398  14.549  42.587  11.010
37172W        W 2399  16.768  37.169   3.254
37173W        W 2400  43.308  12.585  13.671
37174W        W 2401  43.504  32.436  14.097
37175W        W 2402  29.415  23.067   4.725
37176W        W 2403  18.548  22.985  12.878
37177W        W 2404  11.581  40.185   2.603
37178W        W 2405  20.628   2.891   4.140
37179W        W 2406  41.158  44.537  11.354
37180W        W 2407  13.687  14.166  11.436
37181W        W 2408  41.948  10.824   0.181
37182W        W 2409   5.743  16.143   0.311
37183W        W 2410  30.924  27.114  13.643
37184W        W 2411  16.323  22.981  12.100
37185W        W 2412  13.334   2.547  10.804
37186W        W 2413  24.251  35.034   4.107
37187W        W 2414  24.697  14.563  14.830
37188W        W 2415   8.071  13.387   2.750
37189W        W 2416  11.231  26.181  13.888
37190W        W 2417  18.555  39.435   4.508
37191W        W 2418   4.741  29.437  14.562
37192W        W 2419  13.187  29.628  13.877
37193W        W 2420   1.209  20.642  13.572
37194W        W 2421  21.646   9.827  14.912
37195W        W 2422  36.594   2.324   3.817
37196W        W 2423  39.728  28.205  14.845
37197W        W 2424  12.687  19.923  12.532
37198W        W 2425  39.878  13.452  13.922
37199W        W 2426  13.454  10.451  14.484
37200W        W 2427   0.529   6.701   0.504
37201W        W 2428  16.225   1.155   3.853
37202W        W 2429  23.862  30.974   0.758
37203W        W 2430   1.898  22.254   1.296
37204W        W 2431  44.850  18.619   3.135
37205W        W 2432  17.491  25.470  13.970
37206W        W 2433  31.409   2.865  10.974
37207W        W 2434   2.990  33.052  14.248
37208W        W 2435   3.477  13.738   0.896
37209W        W 2436  12.152  22.026   1.194
37210W        W 2437  31.341   8.413  10.748
37211W        W 2438  19.542  22.720  14.465
37212W        W 2439  17.646  32.024   1.734
37213W        W 2440  28.972  12.164   2.356
37214W        W 2441  35.774  15.134  13.981
37215W        W 2442  19.055  14.815  12.182
37216W        W 2443   0.713  27.712   0.080
37217W        W 2444  18.449   9.693   1.255
37218W        W 2445  27.777  11.138   3.763
37219W        W 2446  15.956   5.500  13.388
37220W        W 2447   3.804  13.042   4.725
37221W        W 2448   7.383  19.936  11.202
37222W        W 2449  40.319  29.610   3.314
37223W        W 2450   8.894  26.191   3.719
37224W        W 2451  11.084   2.044   4.446
37225W        W 2452  21.595   8.767   2.079
37226W        W 2453  40.276  11.754  13.364
37227W        W 2454   6.782   0.538  14.675
37228W        W 2455  15.848  40.913  11.112
37229W        W 2456   2.335  24.124  11.510
37230W        W 2457   9.355  36.863  13.917
37231W        W 2458  16.618  34.598  10.689
37232W        W 2459  37.682  12.078  14.856
37233W        W 2460  39.473  16.903   3.789
37234W        W 2461  16.557  24.511  11.589
37235W        W 2462  13.548  22.653  11.242
37236W        W 2463  14.874  44.507  11.632
37237W        W 2464  26.012  13.817  13.883
37238W        W 2465  14.086  18.539  11.146
37239W        W 2466  35.330  29.207  11.698
37240W        W 2467   3.993  20.485  12.507
37241W        W 2468  10.851  21.554  11.015
37242W        W 2469  33.165   5.917  10.697
37243W        W 2470  26.455  25.919   0.323
37244W        W 2471  33.994  40.853  12.938
37245W        W 2472  17.477  42.420   2.706
37246W        W 2473  13.554  13.636  14.007
37247W        W 2474  42.701   7.398   1.537
37248W        W 2475   6.317  31.761   1.435
37249W        W 2476  37.495  24.497   1.624
37250W        W 2477  27.011  10.290   4.614
37251W        W 2478  43.465  25.981  11.544
37252W        W 2479   1.046   3.331   4.438
37253W        W 2480   3.792  26.115  13.393
37254W        W 2481  17.268  20.180   2.877
37255W        W 2482  10.379  24.236   1.026
37256W        W 2483  44.283  43.491  14.380
37257W        W 2484  39.423  10.121  11.631
37258W        W 2485   5.667  28.620   3.903
37259W        W 2486  14.132  38.639   0.283
37260W        W 2487   2.111  10.404  10.159
37261W        W 2488   4.715  20.475  10.713
37262W        W 2489  23.082   7.579  10.777
37263W        W 2490  32.208   0.903  12.959
37264W        W 2491  37.585  36.393   3.568
37265W        W 2492  35.000   5.703   0.539
37266W        W 2493  10.933  41.318  11.652
37267W        W 2494  30.415   6.114  11.699
37268W        W 2495  29.503  17.109  11.982
37269W        W 2496  31.634   1.861  13.465
37270W        W 2497   0.750  36.411  10.328
37271W        W 2498  44.371  43.394   2.847
37272W        W 2499  15.575  31.638  10.672
37273W        W 2500   2.237  32.300  12.888
37274W        W 2501  35.459  13.434   2.519
37275W        W 2502  31.968  27.212  13.572
37276W        W 2503  42.913  23.337   3.965
37277W        W 2504  37.033  12.289  13.455
37278W        W 2505  23.796   6.834  12.818
37279W        W 2506  40.039  22.636  13.137
37280W        W 2507   1.656  28.559   0.903
37281W        W 2508  32.465   5.858   1.217
37282W        W 2509   8.112  44.653  11.684
37283W        W 2510  19.093  17.029   3.136
37284W        W 2511  22.942   8.897  12.034
37285W        W 2512  38.588  12.900  11.063
37286W        W 2513  25.281  31.289  14.347
37287W        W 2514  38.478  18.216   3.217
37288W        W 2515   8.697  19.059  14.458
37289W        W 2516  31.927  39.972  11.851
37290W        W 2517  34.734  43.682  11.673
37291W        W 2518   0.296  14.761   2.430
37292W        W 2519  22.352  38.289  12.516
37293W        W 2520   1.242   9.375   0.760
37294W        W 2521  11.309  18.103  11.630
37295W        W 2522   8.601  24.331  14.436
37296W        W 2523  35.576   3.701   3.875
37297W        W 2524  14.427  20.328  13.822
37298W        W 2525  19.400  12.289  14.562
37299W        W 2526  44.272  11.079  14.596
37300W        W 2527  24.748  27.007   1.622
37301W        W 2528  17.804   8.891  14.169
37302W        W 2529  43.787   0.778  11.895
37303W        W 2530   4.681  39.596  13.064
37304W        W 2531  40.509  17.723  14.326
37305W        W 2532   3.245   8.848  10.464
37306W        W 2533   1.828  19.801  13.980
37307W        W 2534  16.044  35.170   4.700
37308W        W 2535  25.199   3.591  12.715
37309W        W 2536  20.599  26.982  13.604
37310W        W 2537   1.278   2.912   2.389
37311W        W 2538  38.792  43.448   0.497
37312W        W 2539  13.910   7.461   1.268
37313W        W 2540  24.270   4.926  10.700
37314W        W 2541  33.765  43.505   1.102
37315W        W 2542  31.921  44.557  12.026
37316W        W 2543  22.134  26.882  14.452
37317W        W 2544   1.328  24.706   1.687
37318W        W 2545   9.445  36.858  11.175
37319W        W 2546   3.727   2.719   3.119
37320W        W 2547  27.096  29.141  11.362
37321W        W 2548  39.464  17.310  12.533
37322W        W 2549  37.070  40.759  11.518
37323W        W 2550   3.811   3.467  13.372
37324W        W 2551   2.228  29.609   4.507
37325W        W 2552  30.055  18.523  13.976
37326W        W 2553   3.923  20.020   2.900
37327W        W 2554  17.286   1.717   0.531
37328W        W 2555  34.501  22.456  13.630
37329W        W 2556  16.896  38.479  10.840
37330W        W 2557   5.592   2.649   4.820
37331W        W 2558  42.949  29.664   1.686
37332W        W 2559   7.898  20.585   0.734
37333W        W 2560  36.404  19.774  14.417
37334W        W 2561  25.422  25.156  13.530
37335W        W 2562   9.699  22.777   4.691
37336W        W 2563  30.741  40.768   1.347
37337W        W 2564  36.108  15.500   4.316
37338W        W 2565  12.583  33.626  10.712
37339W        W 2566  14.411  26.297  11.557
37340W        W 2567   3.628  39.736  10.240
37341W        W 2568  31.479   9.346  10.821
37342W        W 2569  11.174   8.900   0.838
37343W        W 2570  20.766  31.405  10.678
37344W        W 2571   0.462  14.964   3.591
37345W        W 2572  38.751  28.515   0.223
37346W        W 2573  31.140  22.744   2.809
37347W        W 2574   3.840  18.229  13.548
37348W        W 2575  41.572  38.294   1.101
37349W        W 2576  34.645  40.579   4.911
37350W        W 2577  41.942  42.214   3.430
37351W        W 2578  20.081  30.696  12.950
37352W        W 2579  19.886   4.345  11.862
37353W        W 2580  35.976   7.525   4.443
37354W        W 2581  35.807  43.475   3.170
37355W        W 2582   0.931  11.510  10.603
37356W        W 2583   5.273  37.468  10.914
37357W        W 2584  13.603  41.616  13.544
37358W        W 2585  29.998  16.955  11.987
37359W        W 2586  43.289  31.680  13.054
37360W        W 2587  30.093  30.065  11.562
37361W        W 2588  31.996   2.909  10.701
37362W        W 2589  34.092  42.272  14.834
37363W        W 2590  11.578   9.623  14.622
37364W        W 2591  10.289  36.078  11.574
37365W        W 2592  32.408  30.176   0.901
37366W        W 2593  13.633  36.805  10.620
37367W        W 2594  12.768  33.337  12.675
37368W        W 2595  23.441  11.406  14.966
37369W        W 2596  19.020   0.042   1.705
37370W        W 2597  21.393  10.580   4.951
37371W        W 2598   9.900  21.776  13.876
37372W        W 2599  23.129  44.974   0.784
37373W        W 2600  27.577  22.184   3.866
37374W        W 2601   8.622  24.811  13.608
37375W        W 2602  18.669  19.353  10.787
37376W        W 2603  20.262  15.325   2.812
37377W        W 2604  25.878  41.425  12.392
37378W        W 2605  19.317   9.672  12.464
37379W        W 2606  27.091  27.480  13.147
37380W        W 2607  19.674  18.644  10.702
37381W        W 2608  20.193  34.139  10.704
37382W        W 2609  42.642   2.491   1.303
37383W        W 2610  10.995  14.694   5.059
37384W        W 2611   3.763  14.213  13.562
37385W        W 2612  24.182   4.916   1.373
37386W        W 2613  42.833  23.655   3.085
37387W        W 2614  30.035   3.816  12.208
37388W        W 2615   3.998  10.197  12.444
37389W        W 2616  29.736  40.575   0.841
37390W        W 2617  11.281   3.571   3.490
37391W        W 2618  27.582  15.379  13.396
37392W        W 2619   9.170  30.273   2.752
37393W        W 2620  13.661  19.121  11.173
37394W        W 2621   8.878  39.411  10.657
37395W        W 2622  12.716  18.802   2.232
37396W        W 2623  34.765   2.767   0.912
37397W        W 2624   3.386   5.113   2.219
37398W        W 2625  41.206  25.181  13.922
37399W        W 2626  41.983  40.814  13.041
37400W        W 2627  16.251  39.244  11.597
37401W        W 2628   2.197   9.651   1.797
37402W        W 2629   0.309  11.269  11.863
37403W        W 2630  22.793  41.719   3.414
37404W        W 2631  22.088  30.392   3.401
37405W        W 2632  34.638  14.568   1.763
37406W        W 2633  25.532   8.893  14.568
37407W        W 2634  32.574   9.149   3.635
37408W        W 2635   4.441   7.852  11.546
37409W        W 2636  26.098  18.207   2.213
37410W        W 2637  30.727  43.405  11.160
37411W        W 2638  30.606  20.305   0.703
37412W        W 2639  19.311   3.153  12.047
37413W        W 2640  21.137  18.978   0.099
37414W        W 2641   3.205  26.808  11.996
37415W        W 2642   8.060   0.826   1.368
37416W        W 2643  27.140   2.388  14.616
37417W        W 2644  17.520   0.816  10.489
37418W        W 2645   0.415  38.739   1.913
37419W        W 2646  42.272  43.450  14.336
37420W        W 2647  27.758  19.733   0.288
37421W        W 2648  18.538  34.337   4.249
37422W        W 2649   6.413   5.711  13.944
37423W        W 2650   6.618  27.024  13.079
37424W        W 2651  33.204  19.513   3.750
37425W        W 2652  32.396   3.279  13.994
37426W        W 2653  37.217  30.975   0.928
37427W        W 2654  39.426  14.322   2.406
37428W        W 2655  16.869  24.622   1.814
37429W        W 2656  21.752  35.324  12.865
37430W        W 2657  23.271  36.851   0.061
37431W        W 2658  19.056  16.639   3.582
37432W        W 2659  16.563  26.890  11.221
37433W        W 2660   4.720  33.130  12.575
37434W        W 2661  35.428  19.188   2.682
37435W        W 2662  32.173  28.222   4.961
37436W        W 2663  43.553   7.478   3.650
37437W        W 2664  18.546  40.899   1.921
37438W        W 2665  32.122   7.291  14.746
37439W        W 2666  18.763  35.242   0.167
37440W        W 2667   9.850  43.759  13.479
37441W        W 2668  28.146   3.308   4.511
37442W        W 2669  12.143   5.416  13.516
37443W        W 2670   9.941  42.724  11.257
37444W        W 2671  33.466   2.666   2.188
37445W        W 2672  43.866  31.431   4.119
37446W        W 2673  37.453  41.559   1.302
37447W        W 2674   4.781  35.760   3.352
37448W        W 2675  34.003   1.448  14.265
37449W        W 2676  29.601  42.920  13.802
37450W        W 2677  32.663   2.546  11.526
37451W        W 2678  25.914  22.549   0.706
37452W        W 2679  28.908  30.489  14.656
37453W        W 2680  31.374  25.583  12.013
37454W        W 2681  19.234  10.258   4.174
37455W        W 2682  20.161  20.688  12.003
37456W        W 2683  28.383  40.749   1.146
37457W        W 2684  16.291  41.749  11.997
37458W        W 2685   8.269   1.267   4.484
37459W        W 2686  38.973  37.294   0.473
37460W        W 2687  44.028  31.753  12.066
37461W        W 2688  41.965  26.550  13.922
37462W        W 2689   6.296  33.899  11.096
37463W        W 2690  20.973   7.174  13.409
37464W        W 2691  18.245  23.435  12.420
37465W        W 2692   6.480  15.045  12.828
37466W        W 2693  40.228  35.467  10.524
37467W        W 2694  35.682  16.240  11.156
37468W        W 2695  35.821   9.749   0.580
37469W        W 2696  37.614  29.977   0.023
37470W        W 2697  11.809  19.934  14.570
37471W        W 2698   2.937  32.494   2.111
37472W        W 2699  27.568   9.833   4.045
37473W        W 2700  25.587   0.937  13.911
37474W        W 2701  14.489  37.359   3.691
37475W        W 2702  43.116   6.472  14.996
37476W        W 2703  12.020   9.743  12.572
37477W        W 2704  34.510   8.323  11.705
37478W        W 2705  36.259  36.719  10.580
37479W        W 2706  31.953  25.485  10.481
37480W        W 2707  42.844   4.912  14.362
37481W        W 2708   7.658  11.629   4.052
37482W        W 2709   7.678   6.765   3.905
37483W        W 2710  43.843  34.759   1.810
37484W        W 2711  31.931  41.602   0.780
37485W        W 2712  40.399  19.818  13.496
37486W        W 2713  19.639  40.980   2.664
37487W        W 2714   8.900  38.022   3.195
37488W        W 2715  30.367   9.129  12.426
37489W        W 2716   5.360  30.632  13.785
37490W        W 2717  26.246   6.976   4.233
37491W        W 2718  14.587  44.584   3.727
37492W        W 2719   3.159  43.824   2.273
37493W        W 2720   7.402  42.958   1.789
37494W        W 2721  41.564  19.414   2.852
37495W        W 2722  43.811  39.327   0.341
37496W        W 2723  32.918  43.017  13.615
37497W        W 2724  35.608  18.767  11.812
37498W        W 2725   4.640  37.316   0.760
37499W        W 2726  22.630  39.132  13.337
37500W        W 2727  18.086  30.906  12.093
37501W        W 2728   3.916   7.929  11.537
37502W        W 2729   0.452   7.471   0.999
37503W        W 2730  27.630   1.795  12.148
37504W        W 2731   8.664  10.791   0.481
37505W        W 2732  24.482   6.261   1.067
37506W        W 2733  14.472  27.458  11.003
37507W        W 2734  10.467  18.146  14.796
37508W        W 2735  29.457   5.771  11.566
37509W        W 2736   4.633  22.057   3.629
37510W        W 2737  44.813  25.019   3.874
37511W        W 2738   2.361   8.186   0.262
37512W        W 2739   6.887   7.573  13.275
37513W        W 2740   5.818  40.823   1.882
37514W        W 2741  31.075  18.132  11.584
37515W        W 2742   9.386  28.452   1.832
37516W        W 2743  40.519  27.143  14.436
37517W        W 2744  33.583  37.088   3.241
37518W        W 2745   6.196  15.172  13.305
37519W        W 2746  24.511   2.397  13.952
37520W        W 2747  13.287  43.262   1.765
37521W        W 2748   7.526  20.751  12.934
37522W        W 2749  32.995  13.795  12.112
37523W        W 2750  21.684   8.878  13.298
37524W        W 2751   4.590   1.672   3.397
37525W        W 2752  40.519  41.070  12.907
37526W        W 2753   7.360  29.633  13.358
37527W        W 2754  12.074  34.875  10.284
37528W        W 2755  35.969  39.593   4.698
37529W        W 2756   3.274   9.816  14.279
37530W        W 2757  29.548  17.871   4.126
37531W        W 2758   3.409  27.231  14.162
37532W        W 2759   2.566  25.389   1.351
37533W        W 2760   7.270  12.330   4.498
37534W        W 2761   1.485  34.134   3.898
37535W        W 2762  31.104  14.309  11.634
37536W        W 2763  12.822  31.474  11.088
37537W        W 2764   8.385  16.895   5.310
37538W        W 2765  13.170  13.538   1.289
37539W        W 2766  43.799   4.183  10.739
37540W        W 2767  12.115  30.980  10.896
37541W        W 2768  27.237   5.988  10.631
37542W        W 2769  33.951  43.343   4.012
37543W        W 2770  20.143  14.619   3.290
37544W        W 2771  18.152   1.931   2.672
37545W        W 2772  11.162  21.574  12.321
37546W        W 2773  27.868  11.147   4.578
37547W        W 2774  44.617   9.219  13.729
37548W        W 2775  11.823   0.671   2.287
37549W        W 2776   9.152   4.586   2.673
37550W        W 2777  22.496  21.260   3.165
37551W        W 2778  35.924  35.138   1.821
37552W        W 2779  11.293  11.929  10.923
37553W        W 2780  13.297  23.110   2.218
37554W        W 2781  22.701  31.595   0.296
37555W        W 2782  42.902  28.543   3.141
37556W        W 2783  23.918  35.313  13.390
37557W        W 2784  36.880   7.744  12.300
37558W        W 2785  22.539  27.398   2.804
37559W        W 2786  19.833  43.708   3.990
37560W        W 2787   1.003  22.136   3.999
37561W        W 2788  36.389   0.732   1.805
37562W        W 2789   6.692  24.165   4.105
37563W        W 2790  28.041  34.402   2.128
37564W        W 2791   6.208   5.746  12.441
37565W        W 2792   6.629  16.097  11.066
37566W        W 2793   8.730  27.889   2.521
37567W        W 2794   1.233  10.375  12.148
37568W        W 2795  28.865  23.503   3.138
37569W        W 2796  14.864  38.726   3.657
37570W        W 2797  22.687  22.959   0.743
37571W        W 2798  11.139  25.168   1.255
37572W        W 2799  25.939  16.858   3.679
37573W        W 2800  35.469  23.097  14.270
37574W        W 2801   3.252  33.771   5.053
37575W        W 2802  40.008  20.524   2.246
37576W        W 2803  41.380  15.215  12.409
37577W        W 2804  42.739   4.297   1.330
37578W        W 2805  31.812  30.392  14.912
37579W        W 2806  27.637  12.748   0.055
37580W        W 2807   5.981  16.258  14.361
37581W        W 2808  21.856  30.037   0.488
37582W        W 2809  13.379  20.783   3.086
37583W        W 2810  21.369  21.058  10.940
37584W        W 2811  21.151  43.701   4.140
37585W        W 2812  20.022  44.877  10.994
37586W        W 2813  23.208  16.740  14.397
37587W        W 2814  27.554  16.556  11.506
37588W        W 2815  35.625  27.685   2.445
37589W        W 2816  23.455  24.745  12.066
37590W        W 2817  27.943  37.208  14.706
37591W        W 2818   5.170  27.884  11.947
37592W        W 2819   2.818  27.552  12.831
37593W        W 2820   2.388  33.987   0.361
37594W        W 2821  21.376  42.501   2.144
37595W        W 2822  13.410  19.611  13.850
37596W        W 2823  41.675  44.294  13.508
37597W        W 2824   8.713  34.122  14.922
37598W        W 2825  20.516  44.738   0.519
37599W        W 2826  38.330  12.685   1.210
37600W        W 2827   4.441  30.363   2.855
37601W        W 2828  32.853   0.591   4.678
37602W        W 2829  20.104  36.151  12.001
37603W        W 2830  18.563  13.765   2.811
37604W        W 2831  43.312   7.204   4.020
37605W        W 2832  36.460  32.181   1.213
37606W        W 2833  29.038  24.059  10.664
37607W        W 2834  10.660  26.707  10.760
37608W        W 2835  37.428  15.586  11.627
37609W        W 2836  12.664  24.171  14.313
37610W        W 2837  17.643  16.563   1.757
37611W        W 2838  19.053   8.340  10.775
37612W        W 2839   5.351  20.209  10.611
37613W        W 2840  42.963   4.532  11.197
37614W        W 2841  34.134   7.877   3.123
37615W        W 2842   4.703  22.006  12.923
37616W        W 2843  35.524  43.349   2.709
37617W        W 2844  14.059  27.346  11.657
37618W        W 2845  11.067  14.555   2.794
37619W        W 2846  28.705  17.658   4.152
37620W        W 2847  38.355  29.324   1.733
37621W        W 2848  31.967   3.171  13.431
37622W        W 2849   3.340   1.257   1.283
37623W        W 2850  22.405  37.524   2.795
37624W        W 2851  32.418   0.750   1.315
37625W        W 2852  23.668  37.669  12.329
37626W        W 2853  37.431  36.244  14.241
37627W        W 2854   3.819  26.116  12.894
37628W        W 2855  22.603  26.230  14.313
37629W        W 2856  26.543  33.657  12.778
37630W        W 2857  26.541   2.819  13.650
37631W        W 2858  16.834  28.612   4.024
37632W        W 2859  32.584   8.349  10.716
37633W        W 2860  34.452   4.691   3.603
37634W        W 2861  39.198   8.998  13.012
37635W        W 2862  28.215  43.308  14.550
37636W        W 2863  17.248  10.348   3.270
37637W        W 2864   4.700  12.796  13.686
37638W        W 2865  19.139   4.048  13.400
37639W        W 2866  18.043  28.078  13.094
37640W        W 2867  26.676   1.463   1.642
37641W        W 2868   9.236  33.823   2.362
37642W        W 2869  41.455  15.831  13.763
37643W        W 2870   6.807  24.517   1.776
37644W        W 2871  25.476  17.480   4.147
37645W        W 2872  22.017   7.916  14.012
37646W        W 2873  27.987  33.624  14.118
37647W        W 2874  40.416  16.738   0.694
37648W        W 2875  42.356  29.993  10.503
37649W        W 2876  12.597   8.203   4.243
37650W        W 2877  40.798  34.654  10.564
37651W        W 2878  19.351   1.985  11.974
37652W        W 2879  39.351  11.635  11.484
37653W        W 2880  17.171   5.614   1.567
37654W        W 2881   6.927   3.877  11.647
37655W        W 2882  39.943  29.937   2.800
37656W        W 2883  37.095  44.331  13.338
37657W        W 2884  25.240  33.050  11.433
37658W        W 2885  25.621  21.637  11.737
37659W        W 2886  28.773  34.502   0.674
37660W        W 2887  41.802  42.985   1.713
37661W        W 2888  18.987  44.544  11.912
37662W        W 2889  10.944  20.773   1.195
37663W        W 2890   8.917   7.802   3.338
37664W        W 2891   0.928   1.725  10.269
37665W        W 2892  41.889  37.601  11.607
37666W        W 2893   6.940  28.734   0.559
37667W        W 2894  37.333  30.950   3.316
37668W        W 2895  20.991  44.741   4.140
37669W        W 2896  12.842  43.222  12.651
37670W        W 2897  26.033   0.729   1.022
37671W        W 2898  39.763  35.272  10.424
37672W        W 2899  11.727  27.974  11.659
37673W        W 2900   4.962  36.016  13.381
37674W        W 2901   0.224  13.671   3.817
37675W        W 2902  31.097  21.572  12.960
37676W        W 2903  17.256   4.081   0.394
37677W        W 2904   8.144  37.473   0.224
37678W        W 2905   7.148   2.929  10.657
37679W        W 2906   7.270  40.747   1.502
37680W        W 2907   7.462  40.546   2.948
37681W        W 2908  24.523  38.837   4.086
37682W        W 2909  42.275  40.931  10.635
37683W        W 2910  33.090  17.159  10.863
37684W        W 2911  10.723  34.558   2.393
37685W        W 2912  22.526  24.919   3.588
37686W        W 2913  24.244   3.825  11.705
37687W        W 2914  39.869  10.116   1.913
37688W        W 2915  30.522  16.761   0.906
37689W        W 2916  32.384   8.689   1.335
37690W        W 2917   4.363  29.561  13.038
37691W        W 2918   5.865  16.013  13.897
37692W        W 2919  32.494   4.345  10.712
37693W        W 2920  44.454  41.509   4.107
37694W        W 2921   6.217  12.508   3.103
37695W        W 2922   2.225  15.745  13.441
37696W        W 2923  10.286  16.337   1.978
37697W        W 2924  14.558   1.537   0.801
37698W        W 2925   9.702  36.100   2.244
37699W        W 2926  39.046   3.349  11.414
37700W        W 2927  18.858  15.663  14.206
37701W        W 2928  42.687   7.990  11.905
37702W        W 2929   9.654  26.591   2.326
37703W        W 2930   1.921   1.910  10.696
37704W        W 2931  36.892  32.137   0.309
37705W        W 2932  20.507  17.122  11.138
37706W        W 2933  29.675  15.534   3.464
37707W        W 2934  43.897  15.049   4.717
37708W        W 2935   9.287  17.365   5.193
37709W        W 2936  39.799  41.693   4.182
37710W        W 2937   2.187  44.904  14.286
37711W        W 2938   4.683  19.645  10.566
37712W        W 2939  13.695   2.451   2.370
37713W        W 2940  38.729  20.523  13.974
37714W        W 2941  39.597   1.396  12.159
37715W        W 2942  32.271   7.788  14.827
37716W        W 2943  21.010  25.203  13.246
37717W        W 2944  10.935  23.933   2.833
37718W        W 2945  33.301  22.217   0.803
37719W        W 2946  26.376  37.282   4.352
37720W        W 2947  27.897  43.534  13.892
37721W        W 2948   2.178  15.224  13.419
37722W        W 2949  31.499   9.684  11.245
37723W        W 2950  30.470  42.547   2.395
37724W        W 2951  33.037   1.295  11.887
37725W        W 2952  14.765  34.517   0.844
37726W        W 2953  17.300  25.541  12.516
37727W        W 2954   1.600  42.864   2.947
37728W        W 2955  14.770  21.814   1.183
37729W        W 2956  23.144  35.244   2.450
37730W        W 2957  34.539  37.691   2.695
37731W        W 2958  26.651   5.032   1.762
37732W        W 2959   5.631  36.903  12.111
37733W        W 2960  44.274  17.567   2.411
37734W        W 2961  19.206  16.852  14.499
37735W        W 2962  18.323  40.836  10.664
37736W        W 2963   4.835  22.970   2.200
37737W        W 2964  36.869  14.668  12.766
37738W        W 2965   0.764  34.131   1.931
37739W        W 2966  42.442  40.985  13.952
37740W        W 2967   7.633   6.226   1.151
37741W        W 2968  17.485   7.605  12.059
37742W        W 2969  26.036  10.201  14.415
37743W        W 2970  27.711  35.995  11.171
37744W        W 2971  40.018   5.936  13.681
37745W        W 2972  31.644  42.522  14.840
37746W        W 2973  12.693  17.799   0.283
37747W        W 2974  41.555  21.779   2.291
37748W        W 2975  41.837  41.916   0.704
37749W        W 2976  40.868  25.012   1.182
37750W        W 2977  20.279  35.636   0.431
37751W        W 2978  31.533  13.409   1.750
37752W        W 2979  42.675  21.325   2.891
37753W        W 2980  21.669  40.499  13.315
37754W        W 2981  14.830  35.740   2.007
37755W        W 2982  26.052  20.059   1.357
37756W        W 2983  11.939  14.813   4.075
37757W        W 2984   5.386  12.128   0.864
37758W        W 2985   3.984  30.919   4.725
37759W        W 2986   1.891  27.468   0.394
37760W        W 2987  19.105  15.814  12.126
37761W        W 2988   9.080  16.016   2.476
37762W        W 2989  11.366  41.319   5.020
37763W        W 2990  31.877   1.807  13.003
37764W        W 2991  10.781  40.472   3.171
37765W        W 2992  15.720  30.426  12.592
37766W        W 2993  33.856   1.742  11.986
37767W        W 2994  13.396  29.509   2.389
37768W        W 2995   3.454  39.369  11.518
37769W        W 2996  41.886  26.064   3.496
37770W        W 2997   1.202  32.562  12.099
37771W        W 2998  23.504  16.075  12.403
37772W        W 2999  17.590   1.990   0.198
37773W        W 3000  29.630  24.278  11.069
37774W        W 3001  30.349  16.577  12.955
37775W        W 3002  17.689  23.734   2.660
37776W        W 3003  16.449  13.782   0.529
37777W        W 3004  13.815  16.407   4.521
37778W        W 3005  22.642  17.391   2.012
37779W        W 3006  38.349   6.375  13.343
37780W        W 3007   2.411  28.531   4.600
37781W        W 3008  36.549   6.409   1.645
37782W        W 3009  10.212  41.391   3.427
37783W        W 3010  39.386  37.270   0.800
37784W        W 3011   9.092  22.656   4.769
37785W        W 3012  29.023  41.803  10.650
37786W        W 3013   7.658  40.960  13.555
37787W        W 3014  39.122   8.310  10.015
37788W        W 3015   5.659  36.818   3.295
37789W        W 3016  31.092  36.080   4.596
37790W        W 3017  24.649  18.912  12.010
37791W        W 3018  30.133  40.551   2.241
37792W        W 3019  35.405   1.322  12.545
37793W        W 3020   5.675  16.101  11.079
37794W        W 3021   1.050  11.557  11.907
37795W        W 3022   1.502  17.306  11.513
37796W        W 3023  28.990  11.214  12.640
37797W        W 3024  26.940  10.894   2.345
37798W        W 3025  20.984   8.421   1.351
37799W        W 3026   5.674  17.070   3.572
37800W        W 3027   3.288  16.994  14.077
37801W        W 3028  20.664  18.090   2.801
37802W        W 3029  38.033   1.242   4.763
37803W        W 3030  29.818  35.975   3.863
37804W        W 3031  15.553  11.787   3.571
37805W        W 3032   2.753   2.265  10.732
37806W        W 3033  31.640  31.089  12.206
37807W        W 3034  38.432  36.616   3.100
37808W        W 3035   5.600   7.896   4.168
37809W        W 3036  19.246   1.476  13.222
37810W        W 3037  17.386  22.997   1.798
37811W        W 3038  31.319  25.901   4.494
37812W        W 3039  32.299  23.365  12.374
37813W        W 3040  37.001  25.332  13.927
37814W        W 3041  31.049   7.853   1.155
37815W        W 3042  14.623  39.677   1.381
37816W        W 3043  10.869  15.544   4.568
37817W        W 3044  38.107  26.441  10.828
37818W        W 3045  40.117  16.998  11.049
37819W        W 3046  38.996  38.508  13.805
37820W        W 3047  33.247  35.925  11.053
37821W        W 3048   4.169   4.764   0.218
37822W        W 3049  43.287  16.040   0.328
37823W        W 3050  38.099  28.721  12.399
37824W        W 3051  31.008   6.871   1.458
37825W        W 3052  12.415  28.053   3.544
37826W        W 3053  22.793  18.253   4.901
37827W        W 3054  44.371  41.056   0.410
37828W        W 3055  13.582  12.344   3.328
37829W        W 3056   2.044  16.561   4.919
37830W        W 3057  26.537   8.165  14.330
37831W        W 3058  20.364   4.271   0.056
37832W        W 3059   4.699   8.613  12.580
37833W        W 3060  36.773   4.747   4.192
37834W        W 3061  17.373  12.316  13.930
37835W        W 3062  31.917   2.247  13.642
37836W        W 3063  26.266  31.934   4.015
37837W        W 3064   7.567  32.403   1.806
37838W        W 3065   3.078   6.206   3.850
37839W        W 3066  36.595  32.949  13.651
37840W        W 3067  41.098  27.498  11.534
37841W        W 3068  43.709   1.376   4.205
37842W        W 3069  10.467  35.774   3.637
37843W        W 3070  19.024  37.476   3.283
37844W        W 3071  27.541  23.089   1.245
37845W        W 3072  12.888  26.976   0.950
37846W        W 3073  21.580  32.602   4.690
37847W        W 3074   9.423  36.910  13.002
37848W        W 3075  43.726  21.113   1.430
37849W        W 3076  33.822  34.417   2.414
37850W        W 3077  12.432  23.654   2.370
37851W        W 3078  19.151  16.180   1.736
37852W        W 3079  40.979   5.651   2.351
37853W        W 3080  15.132  31.598  13.404
37854W        W 3081  14.682  20.650   2.811
37855W        W 3082   0.032  41.475   0.767
37856W        W 3083   4.852  42.783   0.569
37857W        W 3084  27.608  11.643   3.728
37858W        W 3085  15.243  42.452  10.427
37859W        W 3086  28.673  29.514  14.329
37860W        W 3087  16.299  11.885   1.919
37861W        W 3088  41.315  37.973   0.137
37862W        W 3089   8.646  26.666   4.505
37863W        W 3090  18.395  14.027  14.392
37864W        W 3091  42.147  33.280   2.697
37865W        W 3092  32.344  10.810  12.624
37866W        W 3093   5.406  24.202   3.992
37867W        W 3094  23.148   3.153  13.368
37868W        W 3095   2.009  38.345  14.494
37869W        W 3096  28.971   6.674  14.042
37870W        W 3097  10.385   8.916   1.318
37871W        W 3098  25.522   1.380   0.274
37872W        W 3099  12.487  41.518   0.352
37873W        W 3100  20.371  33.635  14.136
37874W        W 3101  42.237  18.739  13.558
37875W        W 3102  13.013  11.210   5.090
37876W        W 3103  25.720   7.362   0.172
37877W        W 3104  40.157  14.096  14.560
37878W        W 3105  24.973  34.033  13.266
37879W        W 3106  25.510  14.815   2.892
37880W        W 3107   4.374  19.842  13.071
37881W        W 3108  32.607  15.128  13.374
37882W        W 3109   0.991  43.003  14.514
37883W        W 3110  39.831  40.273  12.073
37884W        W 3111  36.177   2.862  11.522
37885W        W 3112   5.799  26.474   3.378
37886W        W 3113   4.216  33.873   3.362
37887W        W 3114  15.735  15.206   3.901
37888W        W 3115  35.408  37.745   5.342
37889W        W 3116  44.206   7.259   9.954
37890W        W 3117  13.983  18.041  11.184
37891W        W 3118  20.901  24.626   2.917
37892W        W 3119  24.466   5.675  11.735
37893W        W 3120  29.494  43.249  13.204
37894W        W 3121  25.623  12.912  13.574
37895W        W 3122   3.379  43.989   1.763
37896W        W 3123   5.462   3.875   4.056
37897W        W 3124  15.616  21.122  11.927
37898W        W 3125  39.332  42.579  14.302
37899W        W 3126  27.588  28.512   1.567
37900W        W 3127  34.713  13.143   0.841
37901W        W 3128  29.344   2.349   2.202
37902W        W 3129  21.203  33.972   5.180
37903W        W 3130  42.953   6.486  11.214
37904W        W 3131  33.385  17.671  11.159
37905W        W 3132  29.147  29.655   3.113
37906W        W 3133  16.769  28.525   0.752
37907W        W 3134  34.843   9.906  11.164
37908W        W 3135  14.838  33.553   2.302
37909W        W 3136  11.702  43.745  10.551
37910W        W 3137  13.246  42.346  10.649
37911W        W 3138  43.860  20.091  14.387
37912W        W 3139  28.646   2.118   4.458
37913W        W 3140  29.100  37.607   2.237
37914W        W 3141  35.643  30.537   0.364
37915W        W 3142  25.554   7.748  10.881
37916W        W 3143  18.243   9.779   3.543
37917W        W 3144  14.226  40.598  11.048
37918W        W 3145   2.987  38.264  11.461
37919W        W 3146   4.860  28.259   4.918
37920W        W 3147  42.442  44.255   1.903
37921W        W 3148  30.564   6.320   2.679
37922W        W 3149   1.241  32.358   3.177
37923W        W 3150  22.957  18.967  11.575
37924W        W 3151  36.988   7.723   1.181
37925W        W 3152  42.997  12.209  10.386
37926W        W 3153  32.318  38.309   1.839
37927W        W 3154  44.428  43.359  12.077
37928W        W 3155  28.472   7.162  12.667
37929W        W 3156   1.249  43.477  12.141
37930W        W 3157  19.409  15.177   1.167
37931W        W 3158  42.057   2.156  11.543
37932W        W 3159  31.791  42.009  14.751
37933W        W 3160  38.478   7.173   2.586
37934W        W 3161  19.296   6.767   1.007
37935W        W 3162  10.222  23.038   0.807
37936W        W 3163  41.940  12.390  11.643
37937W        W 3164  44.975  30.613  14.889
37938W        W 3165  28.205  18.648  13.944
37939W        W 3166  43.666  18.304   2.273
37940W        W 3167   3.939  42.604  13.542
37941W        W 3168  30.224   6.848  11.175
37942W        W 3169  33.881  34.321  13.110
37943W        W 3170   2.951  38.924   2.255
37944W        W 3171  44.437  20.211  11.528
37945W        W 3172  21.198  43.721  12.244
37946W        W 3173   2.656  30.585  12.036
37947W        W 3174  44.711  42.465  12.271
37948W        W 3175  31.999   5.353  10.622
37949W        W 3176  39.849   6.286   2.314
37950W        W 3177  44.367   4.895   1.723
37951W        W 3178  23.799   9.149  12.959
37952W        W 3179  41.161  17.812   3.522
37953W        W 3180   6.686  28.064   0.136
37954W        W 3181  20.321  19.143  12.441
37955W        W 3182  15.176   7.175  14.009
37956W        W 3183   3.315  29.123   4.349
37957W        W 3184  15.092  28.119  13.968
37958W        W 3185  44.221  10.958   0.099
37959W        W 3186  32.874  22.459   3.082
37960W        W 3187  44.867   7.490  14.512
37961W        W 3188  12.047  31.783   1.412
37962W        W 3189  27.844  19.149  12.238
37963W        W 3190  20.781  36.414  11.769
37964W        W 3191  35.471  33.356   1.641
37965W        W 3192  20.003  15.699   0.636
37966W        W 3193  11.592  40.791  14.296
37967W        W 3194   1.199  13.775  13.467
37968W        W 3195  19.935  32.819   3.238
37969W        W 3196   5.083  38.969  10.476
37970W        W 3197   1.358  31.853   1.169
37971W        W 3198  29.071  42.592   3.187
37972W        W 3199  16.256  29.199   1.807
37973W        W 3200  39.407  35.606   2.266
37974W        W 3201  31.919  34.434   2.950
37975W        W 3202  25.331  11.292   4.182
37976W        W 3203  37.335  21.070  10.605
37977W        W 3204  32.980  13.278  12.857
37978W        W 3205  19.101  41.538  13.335
37979W        W 3206  21.454  35.097   3.430
37980W        W 3207  41.852   7.560   2.177
37981W        W 3208  30.505   5.519   3.682
37982W        W 3209   9.785  34.548   2.412
37983W        W 3210   6.367  32.600   0.304
37984W        W 3211  23.078  25.030   0.958
37985W        W 3212  29.995   9.895  10.164
37986W        W 3213  26.570   7.343  13.885
37987W        W 3214  19.591  42.836  13.423
37988W        W 3215  13.166   1.593   4.859
37989W        W 3216  34.074  35.958   2.224
37990W        W 3217  16.858  19.747  12.868
37991W        W 3218  24.457  15.277   4.812
37992W        W 3219  16.300  24.627  11.154
37993W        W 3220   2.440  17.384  11.565
37994W        W 3221  32.420  25.542   1.005
37995W        W 3222  31.168   7.527   2.878
37996W        W 3223  34.362  33.061   3.208
37997W        W 3224  30.975  11.329   4.597
37998W        W 3225  26.740   0.258   4.933
37999W        W 3226  24.951  36.472  14.345
38000W        W 3227  15.565   9.872  10.796
38001W        W 3228  41.539  16.502  10.797
38002W        W 3229  41.285  15.529  13.383
38003W        W 3230   5.741  25.674  13.341
38004W        W 3231  28.343  18.347   3.686
38005W        W 3232   2.824  17.053   1.178
38006W        W 3233   0.706   0.083   2.826
38007W        W 3234  11.820   3.163  14.066
38008W        W 3235  37.836  41.121  12.654
38009W        W 3236  16.282  37.462  11.689
38010W        W 3237  37.413  37.127  10.333
38011W        W 3238  33.459  34.933  14.129
38012W        W 3239  25.102  10.794  11.604
38013W        W 3240   9.093   8.498   3.795
38014W        W 3241  41.794  38.796   2.674
38015W        W 3242   7.219   3.331   2.534
38016W        W 3243  14.709  14.389   3.181
38017W        W 3244  38.929  33.641   0.666
38018W        W 3245   2.845  36.640   0.354
38019W        W 3246  18.361  15.166   4.725
38020W        W 3247  16.782  16.080  14.840
38021W        W 3248  15.205   7.127  12.089
38022W        W 3249  43.740  30.085   4.339
38023W        W 3250  41.723  28.751   1.293
38024W        W 3251   0.284  34.982  13.013
38025W        W 3252  42.813  21.138   2.449
38026W        W 3253   0.176   8.723   2.525
38027W        W 3254  44.416   8.850  11.562
38028W        W 3255  23.465   4.806  12.091
38029W        W 3256  30.504  27.698  14.382
38030W        W 3257  15.762  40.029  13.025
38031W        W 3258   9.114   3.388  11.677
38032W        W 3259  34.964  40.186   2.228
38033W        W 3260  34.056  39.770  11.997
38034W        W 3261  12.764  12.232   4.118
38035W        W 3262  27.849  39.285   2.344
38036W        W 3263  41.108   9.807   2.738
38037W        W 3264  33.346  36.087   1.644
38038W        W 3265  12.669   8.675  13.606
38039W        W 3266  25.996  16.637  11.610
38040W        W 3267   9.301  19.184  10.654
38041W        W 3268  40.797   0.211   2.057
38042W        W 3269  40.051  28.853   1.858
38043W        W 3270  36.591  34.952  10.883
38044W        W 3271  12.658   1.327  14.432
38045W        W 3272  43.201  18.834   1.253
38046W        W 3273  24.677  28.607   2.219
38047W        W 3274  39.994  20.653   0.308
38048W        W 3275  14.190  27.794  10.728
38049W        W 3276  33.401  20.188  11.212
38050W        W 3277  15.274  28.664  11.889
38051W        W 3278  17.111  20.721   0.965
38052W        W 3279  37.464  34.359   4.381
38053W        W 3280  10.212  11.143   0.833
38054W        W 3281  23.562   4.708  14.460
38055W        W 3282  21.996   8.823   3.210
38056W        W 3283  37.423  14.335  11.980
38057W        W 3284  13.354   8.383  10.758
38058W        W 3285   8.415  36.727   2.441
38059W        W 3286  20.243  15.049  10.847
38060W        W 3287   7.953  27.696  14.251
38061W        W 3288  16.046   8.052   4.583
38062W        W 3289  41.031  44.976   4.875
38063W        W 3290  16.433  38.719   1.650
38064W        W 3291   8.975  20.844  13.393
38065W        W 3292  24.200  18.096   3.752
38066W        W 3293   9.060  17.675  10.697
38067W        W 3294  20.172  25.775  14.913
38068W        W 3295   5.225  19.169  11.623
38069W        W 3296  29.178  29.880   3.594
38070W        W 3297   0.616   5.879   1.470
38071W        W 3298  28.828  38.348   9.931
38072W        W 3299  15.241  40.522  14.546
38073W        W 3300  35.451   6.594   2.869
38074W        W 3301  27.622   0.884  11.113
38075W        W 3302  12.357  10.721  12.506
38076W        W 3303   9.547   9.224  12.645
38077W        W 3304  33.972  18.850  12.075
38078W        W 3305  29.652  16.178   0.964
38079W        W 3306  27.627  13.207   1.311
38080W        W 3307  25.974  35.104  14.324
38081W        W 3308  43.255  13.910  13.780
38082W        W 3309  17.056  21.928  12.644
38083W        W 3310  36.825  10.970  11.649
38084W        W 3311  42.619   5.346  10.346
38085W        W 3312   5.307  41.111   0.639
38086W        W 3313  20.590  26.236   3.766
38087W        W 3314  12.090  41.475  12.811
38088W        W 3315  39.512   4.861   4.434
38089W        W 3316  29.989  34.577  12.467
38090W        W 3317   1.523  38.838   3.869
38091W        W 3318   9.801   4.775  10.249
38092W        W 3319  12.396  44.477  14.043
38093W        W 3320  26.072  11.305  10.548
38094W        W 3321   6.825  13.321  14.710
38095W        W 3322  38.612  13.464   0.035
38096W        W 3323  39.298  36.420  12.548
38097W        W 3324   3.352  10.740   1.683
38098W        W 3325  16.222  14.264   4.106
38099W        W 3326  12.865  37.030   3.662
38100W        W 3327  39.223   4.694   5.300
38101W        W 3328  41.983  18.286  14.441
38102W        W 3329  12.806   0.943   0.850
38103W        W 3330  28.562  42.442   2.560
38104W        W 3331  25.429  21.467  13.860
38105W        W 3332  30.928  11.967   5.390
38106W        W 3333  43.052   2.346   2.725
38107W        W 3334  41.006   1.046  14.543
38108W        W 3335  22.052  10.403   3.754
38109W        W 3336  39.861   9.674   3.188
38110W        W 3337  27.736  22.265  11.137
38111W        W 3338  33.978  32.389  12.893
38112W        W 3339  31.775  14.469  12.956
38113W        W 3340  42.965  44.756  13.255
38114W        W 3341  43.153  12.776  13.232
38115W        W 3342  27.853   5.919   1.215
38116W        W 3343  23.194  41.445   4.831
38117W        W 3344  23.910  20.401   1.556
38118W        W 3345   6.597  10.060  14.261
38119W        W 3346   7.812  17.775  13.715
38120W        W 3347  34.077  16.100  14.046
38121W        W 3348  15.048  36.477  10.787
38122W        W 3349  31.682  44.002  14.875
38123W        W 3350  44.932  26.249  12.525
38124W        W 3351  22.127  32.479  14.222
38125W        W 3352  27.982  38.057   0.703
38126W        W 3353  28.530  11.154   1.483
38127W        W 3354  34.408   1.986   4.576
38128W        W 3355  27.200  35.013   2.186
38129W        W 3356   9.956  17.165  13.658
38130W        W 3357   1.219  12.393  14.353
38131W        W 3358  39.628   6.198  11.445
38132W        W 3359  27.574  14.478  13.158
38133W        W 3360  34.519  36.342   4.229
38134W        W 3361   0.750  39.121  11.075
38135W        W 3362  21.129  32.708   1.446
38136W        W 3363  22.069   9.135  13.567
38137W        W 3364  18.901  23.773   0.949
38138W        W 3365  13.219  12.936   5.156
38139W        W 3366  39.878  35.893  11.997
38140W        W 3367   4.316  24.628   3.133
38141W        W 3368   8.824   0.989  13.828
38142W        W 3369  26.403  14.054   3.184
38143W        W 3370  10.637  35.022   3.193
38144W        W 3371  35.290   4.197  14.963
38145W        W 3372   5.450   2.467   2.753
38146W        W 3373  20.143  34.330   3.816
38147W        W 3374  25.533  14.623   4.671
38148W        W 3375   3.340  25.864  13.331
38149W        W 3376  25.052  23.115  14.804
38150W        W 3377  12.792  44.321  10.636
38151W        W 3378  34.990  23.696  10.930
38152W        W 3379   6.607  20.343   1.247
38153W        W 3380   7.744  38.277  11.693
38154W        W 3381  37.331  22.432  11.958
38155W        W 3382   8.342  10.049  14.079
38156W        W 3383   0.512  39.245   1.795
38157W        W 3384  11.364  17.423  11.199
38158W        W 3385  13.223  12.982  14.933
38159W        W 3386  44.489  39.519   1.813
38160W        W 3387   3.436  15.791   1.880
38161W        W 3388  18.350  33.643   3.504
38162W        W 3389  36.327  36.736   4.383
38163W        W 3390  38.419  26.656  11.211
38164W        W 3391  32.067  28.671   2.164
38165W        W 3392   5.900   0.960  10.828
38166W        W 3393  43.894  13.706   4.831
38167W        W 3394   2.798  16.826   4.091
38168W        W 3395  30.407  16.207  12.428
38169W        W 3396  12.356   5.391   0.939
38170W        W 3397  11.598  11.955  10.214
38171W        W 3398  44.283  42.764   3.221
38172W        W 3399  37.076   3.787   5.180
38173W        W 3400   1.754  37.355  11.206
38174W        W 3401  37.990  15.593  10.627
38175W        W 3402  22.131  35.069   3.627
38176W        W 3403  17.563  33.532   1.895
38177W        W 3404  32.166  44.319   2.186
38178W        W 3405  36.863  41.265  10.707
38179W        W 3406  38.532   9.891  14.824
38180W        W 3407  25.334   2.837  11.586
38181W        W 3408   4.247  28.639  13.167
38182W        W 3409   0.251  44.600  11.038
38183W        W 3410   6.477  17.203  12.590
38184W        W 3411  41.835  23.621   2.339
38185W        W 3412  22.166  17.320   0.935
38186W        W 3413  22.791  33.967   3.810
38187W        W 3414   2.950   6.772  11.989
38188W        W 3415  24.270  34.336   2.893
38189W        W 3416  29.912  10.415  14.914
38190W        W 3417  36.010  41.545   2.766
38191W        W 3418  18.093   1.569   1.758
38192W        W 3419  29.977   1.804   3.689
38193W        W 3420  13.283  41.162  14.886
38194W        W 3421  20.464  23.598  12.044
38195W        W 3422  31.876  15.431  14.732
38196W        W 3423  22.640  21.974  11.902
38197W        W 3424   5.278  27.743   0.932
38198W        W 3425  41.838  23.528   4.637
38199W        W 3426   6.726  26.200   0.295
38200W        W 3427  29.814  31.345  12.038
38201W        W 3428  26.035  23.704  10.445
38202W        W 3429   3.901  28.891  12.471
38203W        W 3430  14.867  24.971   3.020
38204W        W 3431  32.959   9.931   2.327
38205W        W 3432   5.181  20.581   2.594
38206W        W 3433  42.030  26.118  12.104
38207W        W 3434  13.043  43.535  13.255
38208W        W 3435  39.695  31.912  11.993
38209W        W 3436  21.726  37.057  14.483
38210W        W 3437  37.943   2.790   1.388
38211W        W 3438  25.494  37.411   0.759
38212W        W 3439  21.204   9.190   1.696
38213W        W 3440  30.530   4.861   4.615
38214W        W 3441  34.109  16.045   0.024
38215W        W 3442  10.723  18.570  11.651
38216W        W 3443  20.538  16.111   1.490
38217W        W 3444  18.317  41.244   0.552
38218W        W 3445  36.011  41.006   2.730
38219W        W 3446  37.364  21.118   0.716
38220W        W 3447  41.245  10.811   0.911
38221W        W 3448  26.492  16.735   3.721
38222W        W 3449  13.639   9.488  13.102
38223W        W 3450   6.753  22.911  14.092
38224W        W 3451  16.044  12.270  13.422
38225W        W 3452  11.614  23.335  12.975
38226W        W 3453  16.133  17.553  12.069
38227W        W 3454  27.416  38.721  14.800
38228W        W 3455  31.860  43.567   4.818
38229W        W 3456  34.610   1.346   2.714
38230W        W 3457  12.661  25.169   3.733
38231W        W 3458  12.876   9.633   3.215
38232W        W 3459  35.967  43.404   0.813
38233W        W 3460  11.711  29.474   3.244
38234W        W 3461  31.548  39.561  10.209
38235W        W 3462  21.920  29.627  14.376
38236W        W 3463  21.646  13.868  11.943
38237W        W 3464  24.973  16.795   2.672
38238W        W 3465   3.731  31.074  12.492
38239W        W 3466  40.160  39.403   2.848
38240W        W 3467  40.689  17.630   2.128
38241W        W 3468  36.557  18.824   3.242
38242W        W 3469   5.240  15.398   4.135
38243W        W 3470  40.558  35.393   4.560
38244W        W 3471  39.995  20.829   4.399
38245W        W 3472  44.036  17.696  13.064
38246W        W 3473   5.104   5.575   4.730
38247W        W 3474  12.561  30.847   0.498
38248W        W 3475  34.219  30.009  11.952
38249W        W 3476   1.655  32.585  14.499
38250W        W 3477  42.976  14.146   2.641
38251W        W 3478  23.757  16.123   0.399
38252W        W 3479   7.344  16.005  13.312
38253W        W 3480  11.193  24.066   4.737
38254W        W 3481  30.206   1.084  14.493
38255W        W 3482  24.059  23.104  12.406
38256W        W 3483  39.393  27.892   2.252
38257W        W 3484  41.327   6.178   1.372
38258W        W 3485  30.057  10.922  12.091
38259W        W 3486  38.399  29.459  13.695
38260W        W 3487  10.761  37.611  11.340
38261W        W 3488  12.036   4.524   2.748
38262W        W 3489  33.414   7.378   3.637
38263W        W 3490  41.757  24.657   1.192
38264W        W 3491   0.351   9.709   1.342
38265W        W 3492  14.119  22.118   1.172
38266W        W 3493  29.818  42.267   2.860
38267W        W 3494  28.133  13.007   3.674
38268W        W 3495   2.227  40.173   3.800
38269W        W 3496  17.460  38.409  11.566
38270W        W 3497   2.529  17.352  10.242
38271W        W 3498  18.064  26.772  11.586
38272W        W 3499   4.328  15.581   2.354
38273W        W 3500  34.145  20.308  12.636
38274W        W 3501  25.999  41.927  11.611
38275W        W 3502  36.565  11.305   1.534
38276W        W 3503  15.089  43.411   2.648
38277W        W 3504  22.125  18.009   3.767
38278W        W 3505  11.460  17.615   3.592
38279W        W 3506  16.105   1.683  13.899
38280W        W 3507  39.831   2.286   0.811
38281W        W 3508  13.761   5.843   0.651
38282W        W 3509   1.064  18.035  11.252
38283W        W 3510  34.496  35.809   4.896
38284W        W 3511  21.405  44.228  10.959
38285W        W 3512   5.576  29.030  14.334
38286W        W 3513  25.432  10.804  12.042
38287W        W 3514  37.097  35.498   3.541
38288W        W 3515   8.812  34.832   3.783
38289W        W 3516  12.280   1.341  12.965
38290W        W 3517  23.941  41.101  11.992
38291W        W 3518  19.481  10.001   3.115
38292W        W 3519  19.014   6.590  14.414
38293W        W 3520  26.399  33.202  10.314
38294W        W 3521  27.697  43.363  12.072
38295W        W 3522  11.441  30.071  14.356
38296W        W 3523  11.851   7.896   1.413
38297W        W 3524  41.736  38.007  13.716
38298W        W 3525   1.343  19.152   0.005
38299W        W 3526  30.851  21.396   1.525
38300W        W 3527  37.574  16.389  10.186
38301W        W 3528  28.896  13.853   9.926
38302W        W 3529   0.735  40.389  14.419
38303W        W 3530  22.136  38.079  12.107
38304W        W 3531   2.501   2.671   4.109
38305W        W 3532  16.938  36.017   2.809
38306W        W 3533  11.046  36.068   0.849
38307W        W 3534   9.807   3.740  14.524
38308W        W 3535  22.831  18.679  12.877
38309W        W 3536  25.648   2.947   3.746
38310W        W 3537  12.776  16.233   3.091
38311W        W 3538  23.628   0.393   0.932
38312W        W 3539  27.431  14.336   2.122
38313W        W 3540  19.649  17.052   4.058
38314W        W 3541  23.098  12.147   0.336
38315W        W 3542  42.860  31.474  12.765
38316W        W 3543  16.748  30.025   1.472
38317W        W 3544  34.047  19.103   0.344
38318W        W 3545  44.833  13.168  13.131
38319W        W 3546  33.404  18.483   3.287
38320W        W 3547   7.531  30.854   3.740
38321W        W 3548  23.540  44.085   2.858
38322W        W 3549   9.323  43.876  12.456
38323W        W 3550   2.235  17.592  14.855
38324W        W 3551   1.369  19.109  10.315
38325W        W 3552  44.882   9.893   3.603
38326W        W 3553  42.894  28.026  13.691
38327W        W 3554   0.591  28.891  11.583
38328W        W 3555   1.851  39.086  13.839
38329W        W 3556  31.612  42.958  13.322
38330W        W 3557  39.090  19.276  13.078
38331W        W 3558  33.382  12.100  10.819
38332W        W 3559  20.028  20.039  12.779
38333W        W 3560  20.242  37.384  10.873
38334W        W 3561  25.682  20.637   2.176
38335W        W 3562  24.998  23.057  10.685
38336W        W 3563  31.523  35.465   0.773
38337W        W 3564  26.407   5.051  11.944
38338W        W 3565  25.706  29.261   2.750
38339W        W 3566  44.140  18.790   0.301
38340W        W 3567  44.642   0.480   3.270
38341W        W 3568  12.529  24.037  11.753
38342W        W 3569  36.122   8.322   4.160
38343W        W 3570  10.475  21.742   1.103
38344W        W 3571   1.223  29.171   2.728
38345W        W 3572  31.554  32.885  12.102
38346W        W 3573  18.718  26.652  14.923
38347W        W 3574  35.158  23.072   1.000
38348W        W 3575  17.031  34.840   3.409
38349W        W 3576   2.991  23.229   3.840
38350W        W 3577   8.779   2.408  12.467
38351W        W 3578  33.701  10.630   2.765
38352W        W 3579  27.946  22.519  10.691
38353W        W 3580  19.909   1.325  14.589
38354W        W 3581  35.879   2.063   4.144
38355W        W 3582   8.247  21.149  10.261
38356W        W 3583  31.822   5.462   0.804
38357W        W 3584  16.681  40.758   4.589
38358W        W 3585  38.501   3.647   3.522
38359W        W 3586  29.458  42.614  12.411
38360W        W 3587   8.882  39.700  12.199
38361W        W 3588  28.462  17.764  14.325
38362W        W 3589  10.637  34.119  11.080
38363W        W 3590  42.238  22.773   0.873
38364W        W 3591  10.158  37.807   2.926
38365W        W 3592  30.884  20.883  14.432
38366W        W 3593  38.985  10.078  10.347
38367W        W 3594   7.874   9.052  10.851
38368W        W 3595  40.890  30.969   3.233
38369W        W 3596  23.568  13.086   0.290
38370W        W 3597  13.026  44.292  10.175
38371W        W 3598   5.195  40.520   3.336
38372W        W 3599  34.479  44.175   4.177
38373W        W 3600   9.273  11.925   3.256
38374W        W 3601  27.618   2.813   1.230
38375W        W 3602   4.909  33.634   4.019
38376W        W 3603  22.797  32.204  10.092
38377W        W 3604  29.587  23.768  11.008
38378W        W 3605   9.867  26.104   2.247
38379W        W 3606  10.953  40.055   1.761
38380W        W 3607  42.332  25.012  10.682
38381W        W 3608  18.872  30.125  13.640
38382W        W 3609  30.483  18.922   2.299
38383W        W 3610   4.488  43.497  13.339
38384W        W 3611  44.502   1.655  13.803
38385W        W 3612  14.041  13.171   2.722
38386W        W 3613  39.513  34.462  13.910
38387W        W 3614  30.334   1.812   0.447
38388W        W 3615   9.689  41.448  14.425
38389W        W 3616  37.643   4.916  13.142
38390W        W 3617  37.671  44.386   5.027
38391W        W 3618   5.517  42.838   4.532
38392W        W 3619   7.151   4.879  12.444
38393W        W 3620  19.587  35.435  13.863
38394W        W 3621   8.399  21.143   4.751
38395W        W 3622  25.758  17.511  14.396
38396W        W 3623  14.073   7.931  10.896
38397W        W 3624  22.671  20.872   1.231
38398W        W 3625  20.727   0.244   1.460
38399W        W 3626  20.795  29.687  11.282
38400W        W 3627  16.380  25.392   0.787
38401W        W 3628   6.702  14.186   3.794
38402W        W 3629  36.128  43.895   0.917
38403W        W 3630  27.752  11.583  10.587
38404W        W 3631  25.851  14.344   1.030
38405W        W 3632  35.625  12.658   3.413
38406W        W 3633  34.863   8.841   3.610
38407W        W 3634  27.921  13.156  13.422
38408W        W 3635  43.978  30.867  11.686
38409W        W 3636  18.799  16.241   1.335
38410W        W 3637  27.146  41.424   2.002
38411W        W 3638  29.884   1.237  14.134
38412W        W 3639   6.187  21.674  12.456
38413W        W 3640  41.977  37.502   2.084
38414W        W 3641   4.800  25.111   3.504
38415W        W 3642  27.497  16.338   3.635
38416W        W 3643  37.395  27.673   1.867
38417W        W 3644  19.790  11.547  14.864
38418W        W 3645  29.430   4.393   2.367
38419W        W 3646  12.351   0.636   0.462
38420W        W 3647  41.948  44.893   4.376
38421W        W 3648   2.936  21.001  12.007
38422W        W 3649  43.375   4.232  11.903
38423W        W 3650  29.719  37.889  11.200
38424W        W 3651  11.741  12.190   4.881
38425W        W 3652  43.330  10.562   4.506
38426W        W 3653  25.242  21.523  14.352
38427W        W 3654  37.534   9.131   2.204
38428W        W 3655  25.633  27.706   2.510
38429W        W 3656  37.311  14.014   4.212
38430W        W 3657  18.360  16.223   0.013
38431W        W 3658  36.055   5.340   2.916
38432W        W 3659   1.411  12.904   2.349
38433W        W 3660   6.702   0.761   4.906
38434W        W 3661  41.682   1.751  12.648
38435W        W 3662  17.277  41.932  13.995
38436W        W 3663   2.940  29.659   4.048
38437W        W 3664  18.651  34.287  14.313
38438W        W 3665  13.394  33.202  11.613
38439W        W 3666  31.345  39.261  10.606
38440W        W 3667  15.519  26.576  12.583
38441W        W 3668  44.913  36.361   1.731
38442W        W 3669  40.774  40.450   1.684
38443W        W 3670  27.959  40.301   3.785
38444W        W 3671  36.597  21.136  11.864
38445W        W 3672  11.969  43.516  14.011
38446W        W 3673   9.863  12.253  13.282
38447W        W 3674  39.987   8.953  10.712
38448W        W 3675   3.705   3.903  13.063
38449W        W 3676  41.413  28.524  14.852
38450W        W 3677  12.849  34.967  12.584
38451W        W 3678  13.090  38.519   3.790
38452W        W 3679  28.675  43.442  12.815
38453W        W 3680  40.282   8.801  11.103
38454W        W 3681  40.645  41.285   2.366
38455W        W 3682  23.151  33.531   1.406
38456W        W 3683  37.810   7.623  12.492
38457W        W 3684  33.955  30.418   3.245
38458W        W 3685  41.892   8.137  13.424
38459W        W 3686  25.573   3.425   3.570
38460W        W 3687   6.337  41.204  11.736
38461W        W 3688  33.980  38.366  13.034
38462W        W 3689  44.361   2.127  11.094
38463W        W 3690  23.543  20.813   4.595
38464W        W 3691   7.132  26.364   2.660
38465W        W 3692  25.127  21.480   3.262
38466W        W 3693  44.872  28.129  11.671
38467W        W 3694  31.141  32.987   3.957
38468W        W 3695  35.498  23.527  14.538
38469W        W 3696  16.719  25.334  14.458
38470W        W 3697  26.556  22.500  13.624
38471W        W 3698  40.479   3.350  13.324
38472W        W 3699  20.605   7.889  12.245
38473W        W 3700  12.716  38.626  14.419
38474W        W 3701  42.539  35.979   0.782
38475W        W 3702  44.950  17.516  11.521
38476W        W 3703  26.995  38.959   2.695
38477W        W 3704  40.466   0.563   4.355
38478W        W 3705  18.763  28.046   1.380
38479W        W 3706  31.600   0.930  13.611
38480W        W 3707  15.601  21.061   1.868
38481W        W 3708   6.438  20.226   1.719
38482W        W 3709  27.157   0.555  14.429
38483W        W 3710   7.357  30.660   1.328
38484W        W 3711   8.533   3.114  13.188
38485W        W 3712   8.732  23.419  10.552
38486W        W 3713   1.934  22.501  13.108
38487W        W 3714  36.375  37.794   2.250
38488W        W 3715  32.503  28.823   3.668
38489W        W 3716  14.183  16.135  12.082
38490W        W 3717   0.644  39.952  11.940
38491W        W 3718  37.820   6.654  14.490
38492W        W 3719  27.496   0.288  14.717
38493W        W 3720  27.038  18.359  14.394
38494W        W 3721  42.461   1.654  11.182
38495W        W 3722  12.246  24.147   2.278
38496W        W 3723  25.451   4.657   0.885
38497W        W 3724  26.276  17.185   3.921
38498W        W 3725  22.657   2.130  12.891
38499W        W 3726  30.526  17.283   2.628
38500W        W 3727  29.488  41.455  11.655
38501W        W 3728  26.312  42.947  13.716
38502W        W 3729   7.325  12.639  14.296
38503W        W 3730   6.878  42.001  13.028
38504W        W 3731  41.868  42.018  12.453
38505W        W 3732  21.099   9.631   4.052
38506W        W 3733  42.841  12.661   1.429
38507W        W 3734   4.287  22.574   2.866
38508W        W 3735  15.051  21.375   1.343
38509W        W 3736  16.093  43.252   1.287
38510W        W 3737  30.174  36.906   1.774
38511W        W 3738   1.775  24.452   4.590
38512W        W 3739  26.247  37.424  11.490
38513W        W 3740   4.153  10.958   2.341
38514W        W 3741  36.142   9.749   2.931
38515W        W 3742  32.915  10.261   2.737
38516W        W 3743  39.813  41.567   2.158
38517W        W 3744  33.400  34.042   2.873
38518W        W 3745  32.417   2.145  12.539
38519W        W 3746  21.511  43.793   1.893
38520W        W 3747  23.999  15.289  11.958
38521W        W 3748  11.607  42.810   4.210
38522W        W 3749  28.703  25.422   2.822
38523W        W 3750  26.129  43.882  10.681
38524W        W 3751  16.390  23.326  14.491
38525W        W 3752  40.054  12.272   1.242
38526W        W 3753  28.568   1.304  11.398
38527W        W 3754  16.004  10.739   4.245
38528W        W 3755  13.751  20.219  11.179
38529W        W 3756  44.450  38.144   0.973
38530W        W 3757  41.513  42.014   1.835
38531W        W 3758  42.072  27.994   1.698
38532W        W 3759  36.302  29.629   3.898
38533W        W 3760  19.478  16.705   3.255
38534W        W 3761  20.773   0.452  11.117
38535W        W 3762  24.489  30.665  13.256
38536W        W 3763   7.988  23.165  14.556
38537W        W 3764  26.017  17.538  11.563
38538W        W 3765  13.881   2.259  12.393
38539W        W 3766  40.568  44.781  11.988
38540W        W 3767  32.906  18.229   4.534
38541W        W 3768   7.340  16.278   1.484
38542W        W 3769  26.173  13.878  11.469
38543W        W 3770  40.791  11.906  14.228
38544W        W 3771  27.696  30.579   4.699
38545W        W 3772  36.116  18.098   0.826
38546W        W 3773  38.512  28.196   2.406
38547W        W 3774   2.282  17.592  11.094
38548W        W 3775  25.607   8.328   3.199
38549W        W 3776  40.345   0.812  14.372
38550W        W 3777  37.141  32.468   1.674
38551W        W 3778  22.254   2.799   0.274
38552W        W 3779  34.509  33.309  11.628
38553W        W 3780  33.184   6.796   2.150
38554W        W 3781   7.797   8.839   2.631
38555W        W 3782  38.671  39.136  14.002
38556W        W 3783  42.838  23.793  13.894
38557W        W 3784  16.190  23.720  14.997
38558W        W 3785   3.802  32.628  12.345
38559W        W 3786  18.498   8.050   4.593
38560W        W 3787   9.711   9.080  12.026
38561W        W 3788  23.899  18.636   0.191
38562W        W 3789  40.639  40.470  14.007
38563W        W 3790  20.868  33.642   3.381
38564W        W 3791  14.944  41.958   1.439
38565W        W 3792  36.613   9.533   2.840
38566W        W 3793   6.150   1.912  12.350
38567W        W 3794  25.574  22.077  12.602
38568W        W 3795   3.953  27.096   2.817
38569W        W 3796  33.119   6.028  13.108
38570W        W 3797  26.966  17.992  14.019
38571W        W 3798  31.573  37.622   1.282
38572W        W 3799  15.137   2.091   3.949
38573W        W 3800   9.427   6.841  12.090
38574W        W 3801   9.515  11.926  10.949
38575W        W 3802  35.059  39.368   2.650
38576W        W 3803  44.691   1.600  14.866
38577W        W 3804  36.943  42.016   3.055
38578W        W 3805  29.014  15.107   0.310
38579W        W 3806  24.586  25.174   2.533
38580W        W 3807  19.023  28.754   3.957
38581W        W 3808   6.156  40.194  12.051
38582W        W 3809  42.964  22.456   3.626
38583W        W 3810  25.747  26.263  10.661
38584W        W 3811  37.071  31.160   3.802
38585W        W 3812  41.282  37.333   2.717
38586W        W 3813  36.305  15.072   4.547
38587W        W 3814  17.600  42.337   0.552
38588W        W 3815  19.435  10.913   2.120
38589W        W 3816  12.333  43.325   0.818
38590W        W 3817   7.662  33.439   1.753
38591W        W 3818   2.459  35.485   0.816
38592W        W 3819  43.974  13.620  13.440
38593W        W 3820  41.278  34.850   1.292
38594W        W 3821   2.430   5.717  11.668
38595W        W 3822  16.754  31.383   2.470
38596W        W 3823  13.359  23.297   0.344
38597W        W 3824  18.995  17.661  13.280
38598W        W 3825  16.119  25.645   4.849
38599W        W 3826   7.406  33.320   4.116
38600W        W 3827  20.292   0.265   2.698
38601W        W 3828  31.474  35.593   0.262
38602W        W 3829  14.019  26.669  11.073
38603W        W 3830  24.489   7.845   4.778
38604W        W 3831  26.207  18.020  11.151
38605W        W 3832  37.492  22.279   0.121
38606W        W 3833  31.060  41.346  14.387
38607W        W 3834  44.730  40.517  12.201
38608W        W 3835   6.284  37.440   2.914
38609W        W 3836   0.400   1.741   1.285
38610W        W 3837  31.405  17.331   3.778
38611W        W 3838  28.283  25.845   2.657
38612W        W 3839   4.798   0.055   0.305
38613W        W 3840  15.290   4.444  14.322
38614W        W 3841  41.337  42.378  10.689
38615W        W 3842  36.603  30.500   0.336
38616W        W 3843  36.877  33.127  14.514
38617W        W 3844   5.094   9.703   4.191
38618W        W 3845  38.292   0.228   4.228
38619W        W 3846  44.585  30.978   0.072
38620W        W 3847   3.664  39.317  12.003
38621W        W 3848  42.003  39.904   0.428
38622W        W 3849  43.435   0.285  10.808
38623W        W 3850  40.332  44.517  12.499
38624W        W 3851  16.253  33.054   4.921
38625W        W 3852   5.746   4.009  13.917
38626W        W 3853  31.843  34.046   4.678
38627W        W 3854  13.279  10.792   1.226
38628W        W 3855  13.669  21.040   1.144
38629W        W 3856  25.900   0.347  10.781
38630W        W 3857  39.895   7.495   4.533
38631W        W 3858   4.793  38.028  10.762
38632W        W 3859  39.561   4.544   2.830
38633W        W 3860  27.244  14.158  14.373
38634W        W 3861  26.317  27.647  12.061
38635W        W 3862  38.468  33.199   3.134
38636W        W 3863  17.665  40.919   4.573
38637W        W 3864  23.928  15.484   3.764
38638W        W 3865  34.652  33.554   4.597
38639W        W 3866  19.533  41.710  11.353
38640W        W 3867  25.747  39.961  11.525
38641W        W 3868  25.176  10.193  11.480
38642W        W 3869  20.185  26.948  11.414
38643W        W 3870  27.231  19.027  14.041
38644W        W 3871  42.067  25.042   4.507
38645W        W 3872   0.699  36.564   4.648
38646W        W 3873  41.755  33.698   1.829
38647W        W 3874  21.938  43.074   3.188
38648W        W 3875   3.399   7.698  14.786
38649W        W 3876   0.466  17.677  13.188
38650W        W 3877  23.229  29.548  13.373
38651W        W 3878  44.560   6.685   0.193
38652W        W 3879   3.988  24.794   5.139
38653W        W 3880  24.796  15.092  13.914
38654W        W 3881  16.912  42.722  13.311
38655W        W 3882  23.059  25.492   2.736
38656W        W 3883  33.614  24.188   4.567
38657W        W 3884  17.333  34.911   0.314
38658W        W 3885  38.959  25.272   3.993
38659W        W 3886  33.950  41.286  14.751
38660W        W 3887  23.756   0.748  12.576
38661W        W 3888  18.064  40.228   4.115
38662W        W 3889  11.547  16.344  10.159
38663W        W 3890  43.033   4.010  11.072
38664W        W 3891  40.561   9.881   3.618
38665W        W 3892  15.400  40.102  13.436
38666W        W 3893   1.265  24.832  14.222
38667W        W 3894  37.988  21.084   0.904
38668W        W 3895  28.298  23.218  13.317
38669W        W 3896  10.257   8.402  14.178
38670W        W 3897  41.585  25.934   2.163
38671W        W 3898   2.139  22.695  10.609
38672W        W 3899   7.286  39.904  14.806
38673W        W 3900  20.320  28.161   2.176
38674W        W 3901  27.075  42.372   1.525
38675W        W 3902   4.830   8.637  10.665
38676W        W 3903  27.161  15.697  14.359
38677W        W 3904  41.947  29.556   4.085
38678W        W 3905  41.317   6.328   2.751
38679W        W 3906   3.486  25.586   3.675
38680W        W 3907   7.767  44.797  12.068
38681W        W 3908  27.491   3.151   2.177
38682W        W 3909  30.566  25.867   9.914
38683W        W 3910  18.028   3.652   3.341
38684W        W 3911   5.462  43.844  12.145
38685W        W 3912  20.998   6.388   0.659
38686W        W 3913   6.952  12.062   1.427
38687W        W 3914  39.505  10.741  11.154
38688W        W 3915  35.591   9.326  13.559
38689W        W 3916  19.561  31.009  10.477
38690W        W 3917  19.762  10.267  13.573
38691W        W 3918  11.069  14.779   3.705
38692W        W 3919  25.467   9.254   4.298
38693W        W 3920  18.213  28.934  12.100
38694W        W 3921  13.135  14.087   2.072
38695W        W 3922  38.934  19.221   2.721
38696W        W 3923  27.674   5.754   2.623
38697W        W 3924  27.490  35.546  14.304
38698W        W 3925   1.280   1.825  13.007
38699W        W 3926  41.220  23.735   1.757
38700W        W 3927  10.360  12.427  11.135
38701W        W 3928  12.858  32.380   0.306
38702W        W 3929  21.130  16.083   2.303
38703W        W 3930  39.025   4.124   4.112
38704W        W 3931   6.247  12.290   0.319
38705W        W 3932  10.699   1.903  14.003
38706W        W 3933  17.121  16.871   0.063
38707W        W 3934  30.602   9.150   2.249
38708W        W 3935  31.811   5.148   3.284
38709W        W 3936  26.951  33.817  12.133
38710W        W 3937  38.091  18.761   2.372
38711W        W 3938  31.421   4.234   2.263
38712W        W 3939  25.172   2.402   4.248
38713W        W 3940  11.833  36.494   0.713
38714W        W 3941  12.848  14.871  13.914
38715W        W 3942  21.909  13.961   2.638
38716W        W 3943  41.784  17.117   4.528
38717W        W 3944  38.900  28.333  11.909
38718W        W 3945  38.052  19.167   3.172
38719W        W 3946  16.572  15.064   0.830
38720W        W 3947  27.209  40.376  10.631
38721W        W 3948   2.639  39.017  12.718
38722W        W 3949  30.456  24.180  10.576
38723W        W 3950  33.672   0.522  14.418
38724W        W 3951  41.320  21.710   3.714
38725W        W 3952  39.587   8.173   5.348
38726W        W 3953  37.038  27.467  12.907
38727W        W 3954  23.169  26.329   4.423
38728W        W 3955  19.613  31.393  14.099
38729W        W 3956  21.210   2.311   1.779
38730W        W 3957  11.493   1.162  13.386
38731W        W 3958  40.027   6.530   1.904
38732W        W 3959  44.914   0.689  14.765
38733W        W 3960  33.540  32.676  12.869
38734W        W 3961   4.461  41.579   0.370
38735W        W 3962  35.604  24.007  11.930
38736W        W 3963  25.740  27.657   3.741
38737W        W 3964  36.413  14.304  14.084
38738W        W 3965  15.749  25.603   1.242
38739W        W 3966  11.029  31.146  10.282
38740W        W 3967  38.791  43.588  10.854
38741W        W 3968   1.266  30.729  14.932
38742W        W 3969  30.112  37.568  14.784
38743W        W 3970  31.068   7.360   2.382
38744W        W 3971   2.397  12.715   2.423
38745W        W 3972  36.584   6.375  13.748
38746W        W 3973  14.314  39.558   4.197
38747W        W 3974   2.982  43.662  13.370
38748W        W 3975   7.319  36.903   0.527
38749W        W 3976  30.960  15.518  12.558
38750W        W 3977  35.778  15.768  11.306
38751W        W 3978  32.846  15.014   1.215
38752W        W 3979   2.957   7.809   2.126
38753W        W 3980   0.060  10.865   1.779
38754W        W 3981  24.428  33.814   4.362
38755W        W 3982  35.499  37.381   4.598
38756W        W 3983  41.895  18.864   5.066
38757W        W 3984  41.462   5.304   3.608
38758W        W 3985  17.397   4.029  12.005
38759W        W 3986  19.354  17.603   4.236
38760W        W 3987   6.120  34.891   0.850
38761W        W 3988  40.996  32.511   4.687
38762W        W 3989  40.370   4.152  14.900
38763W        W 3990   3.835  37.348   3.281
38764W        W 3991  20.026  36.670  12.052
38765W        W 3992   3.484  29.533  11.157
38766W        W 3993  39.728   3.033   5.246
38767W        W 3994  12.861  13.839  11.826
38768W        W 3995  19.801  34.814   2.755
38769W        W 3996  10.127   8.885  14.569
38770W        W 3997   4.171   3.466   3.181
38771W        W 3998  34.644  39.803   4.360
38772W        W 3999   1.976  11.553   3.199
38773W        W 4000  17.533   9.598   1.432
38774W        W 4001  37.978  15.832  11.558
38775W        W 4002  27.486   3.720   1.450
38776W        W 4003   8.913  40.312  13.565
38777W        W 4004  36.824   3.821  11.790
38778W        W 4005   9.423   2.076  14.454
38779W        W 4006  28.637   3.343   3.844
38780W        W 4007  40.316  10.823  11.650
38781W        W 4008  28.166  37.100  14.243
38782W        W 4009  43.051   6.840  12.932
38783W        W 4010   4.637  22.243   1.738
38784W        W 4011  42.173  39.844  12.209
38785W        W 4012  34.366   0.223  10.590
38786W        W 4013  39.498   7.319   3.211
38787W        W 4014  28.143  29.002  12.181
38788W        W 4015   7.349  31.149  14.497
38789W        W 4016  13.980  27.554   1.534
38790W        W 4017  30.672  19.842   2.699
38791W        W 4018  32.729  17.315   9.518
38792W        W 4019  41.905   5.741  11.628
38793W        W 4020  43.784  28.669   4.666
38794W        W 4021  28.160  44.788  10.616
38795W        W 4022  42.195   8.750  10.681
38796W        W 4023  13.699  41.500   1.038
38797W        W 4024   6.919  17.807   4.140
38798W        W 4025   0.717  40.703   0.770
38799W        W 4026  30.174  35.652   2.940
38800W        W 4027  39.382  24.233  11.758
38801W        W 4028  33.699  40.121   4.058
38802W        W 4029  41.311  25.075  10.785
38803W        W 4030  35.047  27.427   0.468
38804W        W 4031  39.003  33.972  11.021
38805W        W 4032  36.202  18.284   4.905
38806W        W 4033  34.654  44.576   0.206
38807W        W 4034  28.442  42.456  12.423
38808W        W 4035   1.720  23.550  14.936
38809W        W 4036  24.584  12.917   4.735
38810W        W 4037  26.475  40.849   2.325
38811W        W 4038  14.029  33.943  14.283
38812W        W 4039  19.773  18.316  12.223
38813W        W 4040  44.026  43.377   2.406
38814W        W 4041  25.489  38.443   3.312
38815W        W 4042   7.453  35.526   1.692
38816W        W 4043  27.954  17.058  12.042
38817W        W 4044   9.398  38.499  14.336
38818W        W 4045  38.608  37.542   3.655
38819W        W 4046   7.433  38.634  12.589
38820W        W 4047  32.574  33.542   4.375
38821W        W 4048  43.282  38.780   4.202
38822W        W 4049   7.398  21.998  11.008
38823W        W 4050  41.516   1.340   2.727
38824W        W 4051  16.207  10.611   4.707
38825W        W 4052  37.861   4.012   0.743
38826W        W 4053  32.164  19.522  10.859
38827W        W 4054  23.297   5.802   3.730
38828W        W 4055   3.211  10.986   3.624
38829W        W 4056  31.084  38.413  12.795
38830W        W 4057   4.539  28.369  11.088
38831W        W 4058  31.991  29.603  13.514
38832W        W 4059  44.556  11.453  11.433
38833W        W 4060   4.929  19.794   3.603
38834W        W 4061  44.236  11.279  12.579
38835W        W 4062  16.699  24.430   0.424
38836W        W 4063  11.853  28.967  10.340
38837W        W 4064  26.272  30.845  11.686
38838W        W 4065  40.698   2.915   0.916
38839W        W 4066  12.586  25.083   4.251
38840W        W 4067   4.455  20.501   0.390
38841W        W 4068  27.104  40.060   4.486
38842W        W 4069  21.256  25.002   3.122
38843W        W 4070   8.275  42.392   0.507
38844W        W 4071  16.022  28.387   0.346
38845W        W 4072  16.673  26.480   2.090
38846W        W 4073   9.649  41.512   0.379
38847W        W 4074   9.244  42.338  11.710
38848W        W 4075  19.445  42.544   0.245
38849W        W 4076   2.771  14.585  11.217
38850W        W 4077  25.691  32.888  12.125
38851W        W 4078  32.079  32.121  12.993
38852W        W 4079  13.516  21.682   2.331
38853W        W 4080  35.884  29.166  13.350
38854W        W 4081  14.198  15.586  13.576
38855W        W 4082  20.151  32.433  14.476
38856W        W 4083  14.257  12.627   2.696
38857W        W 4084  22.344   8.156  11.014
38858W        W 4085   5.781  16.107   1.357
38859W        W 4086  16.807   8.355   2.385
38860W        W 4087  11.224   9.366   4.103
38861W        W 4088  38.503  17.801   4.526
38862W        W 4089  22.565  26.040   4.856
38863W        W 4090  44.511  11.231  13.611
38864W        W 4091   5.188  33.958   4.647
38865W        W 4092   5.479   0.305   0.344
38866W        W 4093  23.647  33.955  11.494
38867W        W 4094   6.371   4.783  14.115
38868W        W 4095  25.147  23.513  12.986
38869W        W 4096  34.337  43.378  13.126
38870W        W 4097   0.486  33.377   3.643
38871W        W 4098  32.622  23.942  11.176
38872W        W 4099   5.631  22.941  13.338
38873W        W 4100  24.577  37.922  12.599
38874W        W 4101   8.265  12.620   3.009
38875W        W 4102  35.219  38.492   4.874
38876W        W 4103   7.371  41.369   2.531
38877W        W 4104  15.129   0.731  13.829
38878W        W 4105  41.836  21.030  11.082
38879W        W 4106  17.876  14.702   3.194
38880W        W 4107   1.014  35.308   0.248
38881W        W 4108  22.839  29.544  11.692
38882W        W 4109   3.775  41.310  12.447
38883W        W 4110  44.731  23.614  11.181
38884W        W 4111  26.267  27.139  12.484
38885W        W 4112  17.044  36.794  13.548
38886W        W 4113   2.833   7.440   2.937
38887W        W 4114  13.172  32.148  13.953
38888W        W 4115  32.320  32.206   4.097
38889W        W 4116  17.333  33.480  13.400
38890W        W 4117   5.953  41.785   3.071
38891W        W 4118   0.427  10.427  11.330
38892W        W 4119   1.608  32.061  13.428
38893W        W 4120  35.673   7.881   0.269
38894W        W 4121  38.913  10.429   2.327
38895W        W 4122  24.696  21.806  13.511
38896W        W 4123  21.043   9.187  14.409
38897W        W 4124  12.547   6.896   3.283
38898W        W 4125   0.318  40.921  14.112
38899W        W 4126  15.973   9.510   1.938
38900W        W 4127   6.865   3.530  12.879
38901W        W 4128   5.349  17.619  14.442
38902W        W 4129  18.128  37.966  13.864
38903W        W 4130  35.411   6.402   3.769
38904W        W 4131  40.387  14.994  13.071
38905W        W 4132  26.029  24.026   1.618
38906W        W 4133  12.802  19.964   2.764
38907W        W 4134  32.476  34.606  13.593
38908W        W 4135  32.032  35.846  10.326
38909W        W 4136  22.516  22.942   1.926
38910W        W 4137  15.657  32.611  14.038
38911W        W 4138  43.094  21.799   1.317
38912W        W 4139  34.660  19.816   2.558
38913W        W 4140  30.844  20.108  14.418
38914W        W 4141  35.680  28.009   0.856
38915W        W 4142  36.465  11.591  11.801
38916W        W 4143  40.385  22.402  12.090
38917W        W 4144  32.109  41.272  12.963
38918W        W 4145   3.703  44.396  13.492
38919W        W 4146  27.138  19.589  13.321
38920W        W 4147  24.214  33.430  11.095
38921W        W 4148  41.396  21.105  12.903
38922W        W 4149   7.954  38.496  11.252
38923W        W 4150   7.252  32.581  13.245
38924W        W 4151  22.985  23.983   4.671
38925W        W 4152   6.338  40.954   3.366
38926W        W 4153  41.302  15.747   0.238
38927W        W 4154  43.822   4.442   4.295
38928W        W 4155  16.572  22.394  14.763
38929W        W 4156   0.822  32.904  11.585
38930W        W 4157  35.039   8.651   0.363
38931W        W 4158  18.687  18.822  12.058
38932W        W 4159  15.617  34.964  13.352
38933W        W 4160  10.746   7.304   3.801
38934W        W 4161  25.317  26.018  12.286
38935W        W 4162  34.812  13.248   3.090
38936W        W 4163   2.678  32.109   2.715
38937W        W 4164  28.801  13.350   4.783
38938W        W 4165  11.202  24.477  11.157
38939W        W 4166  33.446  19.263   4.208
38940W        W 4167   9.225  40.188   4.783
38941W        W 4168  17.215  14.336   0.354
38942W        W 4169  38.139  37.016   4.054
38943W        W 4170  36.826  12.828  12.296
38944W        W 4171  23.675  17.260   1.412
38945W        W 4172  35.918  23.216   0.346
38946W        W 4173  32.132  30.083   1.324
38947W        W 4174  30.312  35.891  13.339
38948W        W 4175   2.035  15.196   1.232
38949W        W 4176  39.294  10.867   1.461
38950W        W 4177   4.186   8.125   4.594
38951W        W 4178  20.617  31.234  14.434
38952W        W 4179  37.501  43.099   0.104
38953W        W 4180  30.038  35.735  14.976
38954W        W 4181   5.395  17.832  13.950
38955W        W 4182  13.867   1.449   0.302
38956W        W 4183  36.319   6.903  14.535
38957W        W 4184  30.919  31.607  13.447
38958W        W 4185  34.461  31.210   4.579
38959W        W 4186  40.054  26.707  13.792
38960W        W 4187   3.615  21.545   3.275
38961W        W 4188  32.191  40.445   4.677
38962W        W 4189  31.143  23.020  12.858
38963W        W 4190  35.075  24.343   1.392
38964W        W 4191   7.243  23.070   0.181
38965W        W 4192  33.498  27.744  13.712
38966W        W 4193  14.094   0.213  11.154
38967W        W 4194  36.299  35.929   3.655
38968W        W 4195  34.796  35.469  12.463
38969W        W 4196  26.029  34.914   2.970
38970W        W 4197  15.302  24.570   4.716
38971W        W 4198  38.673  39.032  12.572
38972W        W 4199  21.613  26.742   0.066
38973W        W 4200  25.864  23.013  11.123
38974W        W 4201  21.702   8.234   1.828
38975W        W 4202  19.406  39.844   1.756
38976W        W 4203  18.174  17.294   3.290
38977W        W 4204  37.642  35.042  13.096
38978W        W 4205  42.533  19.074  14.460
38979W        W 4206   9.705  27.727   0.297
38980W        W 4207  13.763   4.679   1.892
38981W        W 4208  16.927  44.239   3.772
38982W        W 4209   2.132   1.061  14.933
38983W        W 4210  13.074  30.657   3.925
38984W        W 4211   2.317  29.650  13.039
38985W        W 4212  38.372  37.940  12.522
38986W        W 4213  16.131  14.580   0.298
38987W        W 4214   4.968  31.108  11.576
38988W        W 4215  28.081   8.789  13.456
38989W        W 4216  36.225  40.492   1.426
38990W        W 4217  14.154  36.845  10.564
38991W        W 4218  21.107  38.800  12.348
38992W        W 4219  23.435   7.461  14.079
38993W        W 4220  19.468  27.670  12.904
38994W        W 4221  38.014  15.779   0.829
38995W        W 4222  16.783  33.915   4.627
38996W        W 4223  37.940  37.459   0.273
38997W        W 4224  43.818  35.312  14.946
38998W        W 4225  42.923  24.118  14.534
38999W        W 4226  20.066   4.495  13.176
39000W        W 4227  11.154  41.581   3.038
39001W        W 4228  10.688  24.469  11.552
39002W        W 4229  28.804  18.168  10.636
39003W        W 4230  29.261  42.306   1.804
39004W        W 4231   0.862   2.614   2.168
39005W        W 4232  41.792  19.981   3.849
39006W        W 4233  10.596   2.829  13.699
39007W        W 4234  22.117   2.264   4.805
39008W        W 4235  26.617  44.506  12.315
39009W        W 4236   5.802  28.727  12.530
39010W        W 4237  44.974  17.468   1.273
39011W        W 4238  23.325   1.027  12.663
39012W        W 4239  24.508  12.567   3.759
39013W        W 4240   3.863  39.672  10.707
39014W        W 4241  13.228  21.004   1.421
39015W        W 4242  22.632   2.560  10.722
39016W        W 4243  11.056  23.786  14.014
39017W        W 4244  40.597  11.387  11.587
39018W        W 4245   8.220  37.661  12.338
39019W        W 4246   5.611  44.602  13.179
39020W        W 4247  44.408  12.747   4.476
39021W        W 4248   5.135  38.472  11.152
39022W        W 4249  11.891  32.018  14.901
39023W        W 4250   4.791  22.754  13.002
39024W        W 4251  38.584  41.351   2.845
39025W        W 4252  21.481  38.646  12.017
39026W        W 4253  44.228  43.839   4.435
39027W        W 4254  39.325  39.341   0.910
39028W        W 4255  17.632  27.051   1.703
39029W        W 4256  28.480  11.509  14.859
39030W        W 4257  44.118  17.648   4.950
39031W        W 4258  20.446  33.990  14.529
39032W        W 4259  41.203  10.241   3.061
39033W        W 4260  23.040   8.873   4.646
39034W        W 4261  37.869  18.808   1.883
39035W        W 4262  18.533   7.761   2.144
39036W        W 4263   4.912  20.306  13.298
39037W        W 4264   5.322  16.031  11.446
39038W        W 4265   3.445  10.475   3.359
39039W        W 4266  18.986   6.442  13.371
39040W        W 4267  11.715  25.857  11.550
39041W        W 4268   4.842  28.904   3.513
39042W        W 4269  26.782   5.181   2.651
39043W        W 4270  40.073  32.636  11.388
39044W        W 4271  34.913  10.266  10.790
39045W        W 4272  27.002  25.332  11.264
39046W        W 4273   4.245  23.570  13.896
39047W        W 4274  25.713  22.218   2.400
39048W        W 4275  42.574  41.416  13.392
39049W        W 4276  14.854  27.219  10.734
39050W        W 4277  18.386  36.610  12.518
39051W        W 4278  30.843  22.696   9.960
39052W        W 4279  42.042   6.730   1.919
39053W        W 4280  28.020  20.616  10.959
39054W        W 4281  42.391  37.055  10.750
39055W        W 4282  19.974  17.280   1.688
39056W        W 4283  18.767   5.483   4.413
39057W        W 4284  28.455  21.978   1.257
39058W        W 4285   9.343  36.527  13.477
39059W        W 4286  25.495  21.071  14.897
39060W        W 4287  44.690  26.794   9.851
39061W        W 4288   3.970   3.875  12.114
39062W        W 4289  16.759   7.577   2.850
39063W        W 4290   9.396   8.000  12.279
39064W        W 4291  40.370  30.690   2.397
39065W        W 4292  40.581  14.692   3.542
39066W        W 4293  19.433  18.287  12.860
39067W        W 4294  20.460  23.553  13.001
39068W        W 4295  21.713  39.000   4.599
39069W        W 4296  18.288  33.046  12.329
39070W        W 4297  22.135  26.381  14.402
39071W        W 4298  16.068   3.436  10.252
39072W        W 4299   2.731  30.427   4.591
39073W        W 4300  44.505  30.590  13.933
39074W        W 4301  16.049  27.211   4.028
39075W        W 4302   1.832   7.675   1.319
39076W        W 4303   2.028  12.393  12.345
39077W        W 4304  23.988   0.789   0.213
39078W        W 4305  36.640  38.313   0.595
39079W        W 4306  19.883  12.780  10.833
39080W        W 4307   0.483  26.482  12.711
39081W        W 4308   7.662   6.244  12.623
39082W        W 4309  23.986   4.313  13.318
39083W        W 4310  38.854  28.496   2.720
39084W        W 4311   1.990  39.052  11.859
39085W        W 4312  10.901   9.914   1.960
39086W        W 4313  30.193  23.588   5.108
39087W        W 4314   8.562   0.249   2.872
39088W        W 4315  28.443  38.582   5.107
39089W        W 4316  26.023   4.694  10.813
39090W        W 4317   3.257  20.554   2.999
39091W        W 4318  24.676  43.358   3.719
39092W        W 4319  18.005  19.274   2.783
39093W        W 4320  22.226  12.674  11.085
39094W        W 4321  34.054   8.870  13.793
39095W        W 4322  15.561  12.885   3.631
39096W        W 4323  23.137  25.647   1.555
39097W        W 4324  34.543  29.439  10.381
39098W        W 4325   2.790   3.041  14.218
39099W        W 4326  42.196  29.164  11.120
39100W        W 4327  22.453  32.975  10.413
39101W        W 4328   7.809  43.377   0.388
39102W        W 4329   2.132  29.086  13.032
39103W        W 4330  36.691  29.659   0.154
39104W        W 4331  30.224  32.466   1.390
39105W        W 4332  37.265  29.957   2.394
39106W        W 4333  37.421  23.479   3.564
39107W        W 4334  18.592  35.784  12.632
39108W        W 4335  19.564  33.437   0.276
39109W        W 4336   1.327   1.214   0.359
39110W        W 4337  28.077  13.237  12.357
39111W        W 4338  10.781  44.562  13.446
39112W        W 4339  22.359  16.539  11.567
39113W        W 4340  18.711   5.926   4.124
39114W        W 4341  30.596   3.937   1.746
39115W        W 4342  10.048   9.064   5.058
39116W        W 4343   8.901   8.868  12.587
39117W        W 4344  10.704  41.755  12.473
39118W        W 4345  31.792   0.790  11.622
39119W        W 4346  42.154  35.164   4.123
39120W        W 4347   7.306  26.971  10.772
39121W        W 4348  16.571   3.882  10.792
39122W        W 4349  27.377  22.184  13.503
39123W        W 4350  26.118   8.645  11.638
39124W        W 4351  31.869  13.108   0.897
39125W        W 4352  16.143  22.133  14.990
39126W        W 4353   9.931  39.856   1.938
39127W        W 4354  16.968  39.479  12.224
39128W        W 4355  30.313  34.083   4.090
39129W        W 4356  33.448  16.639   0.048
39130W        W 4357  39.306  26.731   4.192
39131W        W 4358  35.030   7.189  12.059
39132W        W 4359  36.107   4.399  10.721
39133W        W 4360   9.320  19.542   2.678
39134W        W 4361  13.624  35.284   2.121
39135W        W 4362   4.544  33.486  12.907
39136W        W 4363   9.665  31.442   3.292
39137W        W 4364  32.929  15.810  12.497
39138W        W 4365  37.043  22.893  11.099
39139W        W 4366  23.332   8.396   0.968
39140W        W 4367  34.901   8.604   4.055
39141W        W 4368  20.103  11.903   3.638
39142W        W 4369  10.091   3.864   0.889
39143W        W 4370  16.328  39.199   2.636
39144W        W 4371   7.965  38.841   1.696
39145W        W 4372  20.628  26.661  11.387
39146W        W 4373  20.894  15.285   2.258
39147W        W 4374   8.018  12.987   0.012
39148W        W 4375  13.280   9.978   4.077
39149W        W 4376  29.611  16.459  11.244
39150W        W 4377   2.992  18.198   0.233
39151W        W 4378  20.825  17.881  11.569
39152W        W 4379  12.330  31.789  13.443
39153W        W 4380  13.371  28.013   3.544
39154W        W 4381  33.965  36.899   0.810
39155W        W 4382  15.726   2.730   4.280
39156W        W 4383  42.467  18.303   1.046
39157W        W 4384  11.394   4.330  14.219
39158W        W 4385  28.715  20.232  13.790
39159W        W 4386  13.088   3.276   2.020
39160W        W 4387  31.052   4.377  12.536
39161W        W 4388  43.796  17.884  14.914
39162W        W 4389  37.084  12.785   4.835
39163W        W 4390   5.978  43.263   3.080
39164W        W 4391  12.258  41.524  10.920
39165W        W 4392   3.707  24.162  14.312
39166W        W 4393  25.163  42.007   2.593
39167W        W 4394   4.924  13.166   3.183
39168W        W 4395  41.112  32.417  12.875
39169W        W 4396  39.578  16.473   4.931
39170W        W 4397  26.883  14.428   1.251
39171W        W 4398  11.958  29.427   4.112
39172W        W 4399  42.202  14.378  13.323
39173W        W 4400  16.259  17.539   4.588
39174W        W 4401  14.863  31.203  13.128
39175W        W 4402  15.536  34.997   0.409
39176W        W 4403  29.539  41.341  12.160
39177W        W 4404   3.445   1.377   0.384
39178W        W 4405   1.298  40.364   1.411
39179W        W 4406  17.105  38.939  13.511
39180W        W 4407  23.776  39.315   1.711
39181W        W 4408   5.150  12.724   4.681
39182W        W 4409  18.725  22.603  11.268
39183W        W 4410  12.008  27.493  12.509
39184W        W 4411  33.958  15.009  13.966
39185W        W 4412  43.444   1.351  11.021
39186W        W 4413  42.011  27.179  11.112
39187W        W 4414  16.782  22.857   3.908
39188W        W 4415  30.404  31.634   3.145
39189W        W 4416  40.929  32.940  11.952
39190W        W 4417  14.756  15.287  12.057
39191W        W 4418  34.380  11.133   2.589
39192W        W 4419   4.828  18.929   1.952
39193W        W 4420  11.815  43.241   0.948
39194W        W 4421  44.754  42.895  14.968
39195W        W 4422  18.356  26.374   4.973
39196W        W 4423  17.276   7.429   2.790
39197W        W 4424   2.521  36.476  12.098
39198W        W 4425  33.112  11.613   0.829
39199W        W 4426  38.885   2.426   3.249
39200W        W 4427  22.070  23.883   2.132
39201W        W 4428  34.933  20.303   3.801
39202W        W 4429  38.602  42.944  10.612
39203W        W 4430  22.303  39.935   3.140
39204W        W 4431   5.418  14.647  12.468
39205W        W 4432  26.244   1.061   2.835
39206W        W 4433  10.744  31.788  11.020
39207W        W 4434  11.775   2.944  13.203
39208W        W 4435  13.817   1.090   2.657
39209W        W 4436  36.933  26.121  13.572
39210W        W 4437  30.161   9.084   4.447
39211W        W 4438  24.060  31.869   2.353
39212W        W 4439   5.303   6.109   1.034
39213W        W 4440  27.976   6.482  11.357
39214W        W 4441  25.740   5.359  11.446
39215W        W 4442   5.305  39.072   3.601
39216W        W 4443  10.407  34.080  10.622
39217W        W 4444  26.534  13.926   1.970
39218W        W 4445   6.108  28.201  14.471
39219W        W 4446  24.237  10.061   2.839
39220W        W 4447  31.184  35.824   2.808
39221W        W 4448  39.056   0.872  14.302
39222W        W 4449  29.791  23.130  14.817
39223W        W 4450  35.911  15.987   4.437
39224W        W 4451  17.239  14.686  10.709
39225W        W 4452  37.587  40.788  10.467
39226W        W 4453  23.124  25.454  12.892
39227W        W 4454  27.453  33.511   2.178
39228W        W 4455  32.434  12.155  12.875
39229W        W 4456  39.579  16.116  13.034
39230W        W 4457  38.482  28.630  10.699
39231W        W 4458   1.218  26.090   2.623
39232W        W 4459   0.216  18.742  12.527
39233W        W 4460  23.262   3.013  12.000
39234W        W 4461  12.634  24.528  13.512
39235W        W 4462  28.157   6.491   3.197
39236W        W 4463  16.568  19.672   4.051
39237W        W 4464  38.558   7.812  12.147
39238W        W 4465  36.794  23.650   4.789
39239W        W 4466  44.057  26.635   4.622
39240W        W 4467  13.368  35.659   3.287
39241W        W 4468   3.816  21.736  14.872
39242W        W 4469  34.923  19.597  13.901
39243W        W 4470   1.105  28.910   1.453
39244W        W 4471  23.711   7.282   2.344
39245W        W 4472  44.720   9.283   4.211
39246W        W 4473  32.892  18.065  14.825
39247W        W 4474   0.966   0.550   3.667
39248W        W 4475   0.457  41.708  12.039
39249W        W 4476  18.217  35.569   2.829
39250W        W 4477  39.038  43.127  10.952
39251W        W 4478  24.407  19.000   2.686
39252W        W 4479   2.353  20.682   2.891
39253W        W 4480  15.094  15.215   0.727
39254W        W 4481  17.732  34.627   3.818
39255W        W 4482   4.210  16.804  11.223
39256W        W 4483  29.490  30.521  12.528
39257W        W 4484  26.233  24.471   2.790
39258W        W 4485  34.336   9.682  13.965
39259W        W 4486  32.807  16.333  11.148
39260W        W 4487   7.119  13.247   2.984
39261W        W 4488   0.505  42.542   9.865
39262W        W 4489   7.574   6.761   2.445
39263W        W 4490  11.931  29.173  12.932
39264W        W 4491   8.929   1.394  10.468
39265W        W 4492  17.878  22.829   1.470
39266W        W 4493  25.358  16.993   4.911
39267W        W 4494  30.075  32.170  10.733
39268W        W 4495  32.975  42.504  13.722
39269W        W 4496  27.710   5.184  11.647
39270W        W 4497  19.620  28.140   1.776
39271W        W 4498  44.461   2.895   1.963
39272W        W 4499   3.518  39.962   1.317
39273W        W 4500  37.862  28.968   1.021
39274W        W 4501  43.558   7.156   9.348
39275W        W 4502  18.086   2.833   3.706
39276W        W 4503   0.868  38.472   2.121
39277W        W 4504  24.220  20.171   0.746
39278W        W 4505   2.216   7.297  12.057
39279W        W 4506  38.689  12.912   3.860
39280W        W 4507  30.490  33.858   1.439
39281W        W 4508  32.700  40.607   2.350
39282W        W 4509  28.216  38.423  14.969
39283W        W 4510  39.623  15.651  11.185
39284W        W 4511  21.848  19.096  13.808
39285W        W 4512  21.593  37.384   4.721
39286W        W 4513  12.561  43.109   2.729
39287W        W 4514  17.750  14.930   1.460
39288W        W 4515  11.720  41.586   2.916
39289W        W 4516  44.481   7.471  14.191
39290W        W 4517  41.465  21.486   1.882
39291W        W 4518  20.285   3.007  12.873
39292W        W 4519  41.592  19.935   2.929
39293W        W 4520  14.663  14.824  11.057
39294W        W 4521  32.977  28.557   0.223
39295W        W 4522  19.873   7.980  10.792
39296W        W 4523  26.272  22.138  14.944
39297W        W 4524   5.426  36.996  11.090
39298W        W 4525  43.501  16.040  10.811
39299W        W 4526  16.258  23.135   2.621
39300W        W 4527   2.351  34.112  13.421
39301W        W 4528  11.709   4.381   2.365
39302W        W 4529   0.773  31.607  11.313
39303W        W 4530  25.646  33.538   1.875
39304W        W 4531  11.439   9.149  13.477
39305W        W 4532  11.865  43.927   2.630
39306W        W 4533   6.279  31.521  12.104
39307W        W 4534  24.324  30.949  11.110
39308W        W 4535  43.462  18.565  12.824
39309W        W 4536  30.852   0.437   1.783
39310W        W 4537  10.333  17.361   0.286
39311W        W 4538  24.004   9.340  13.964
39312W        W 4539  14.246   0.350  12.668
39313W        W 4540  42.336  29.837  13.455
39314W        W 4541  22.297  43.699   0.429
39315W        W 4542  34.906  20.322  14.598
39316W        W 4543   7.495  19.197  13.859
39317W        W 4544  11.290  35.824   0.421
39318W        W 4545   3.983  11.418   2.168
39319W        W 4546   6.571  29.878   3.729
39320W        W 4547  11.623  25.927   0.834
39321W        W 4548  36.836  15.057  12.443
39322W        W 4549  23.500  43.753   1.288
39323W        W 4550  34.485  39.253  10.293
39324W        W 4551  13.614   1.184  13.403
39325W        W 4552  23.049   4.549   3.799
39326W        W 4553  10.836  14.832   2.408
39327W        W 4554  41.408   1.794  14.398
39328W        W 4555  42.435   3.924   3.328
39329W        W 4556  16.203  19.490  14.618
39330W        W 4557  14.932  21.189  12.499
39331W        W 4558  33.923  29.556   1.756
39332W        W 4559  19.589  34.634   0.462
39333W        W 4560  27.766   1.270  14.186
39334W        W 4561  33.146  18.276  11.717
39335W        W 4562  22.958  24.640   3.565
39336W        W 4563  25.914   3.846   0.716
39337W        W 4564  37.769   4.746  12.630
39338W        W 4565  18.369   8.672   5.058
39339W        W 4566  21.840  28.957  11.061
39340W        W 4567  37.564  15.147   0.372
39341W        W 4568  29.121  26.233   0.038
39342W        W 4569  20.630  40.183  10.782
39343W        W 4570   4.791   9.397   0.949
39344W        W 4571  26.910  33.926  10.697
39345W        W 4572   3.806  29.534  10.752
39346W        W 4573  22.930  35.718   2.388
39347W        W 4574   3.285  35.858  12.810
39348W        W 4575  42.913  40.415   3.073
39349W        W 4576  36.593  30.891   3.609
39350W        W 4577  23.876  19.714   3.511
39351W        W 4578  25.727  42.402   1.375
39352W        W 4579  40.986  34.657   4.515
39353W        W 4580  21.239  11.166  13.182
39354W        W 4581  20.435  12.317   1.323
39355W        W 4582  19.636  19.823  13.056
39356W        W 4583  27.711  38.842  13.106
39357W        W 4584  34.819  37.956  10.315
39358W        W 4585  14.862   1.315  12.998
39359W        W 4586  34.650  44.201  11.702
39360W        W 4587  41.365  38.988  11.854
39361W        W 4588  37.680  36.019   2.392
39362W        W 4589  31.022   2.406   3.180
39363W        W 4590  20.771  32.357  10.736
39364W        W 4591  22.071  41.770   4.508
39365W        W 4592  42.543  29.738  11.669
39366W        W 4593   4.788  41.562  14.906
39367W        W 4594  13.824  20.493   1.895
39368W        W 4595  21.746   8.079  11.535
39369W        W 4596  43.090   5.779   2.736
39370W        W 4597  11.028  32.402   1.872
39371W        W 4598   6.798  26.325   3.366
39372W        W 4599  23.314  13.352  14.919
39373W        W 4600   3.256  29.672   1.675
39374W        W 4601  39.891  41.190   4.167
39375W        W 4602  32.101  16.561  14.125
39376W        W 4603  31.534  33.408   3.664
39377W        W 4604  24.473  13.357   2.270
39378W        W 4605  20.021   5.377  11.720
39379W        W 4606   8.049   4.466   2.850
39380W        W 4607  25.648  34.396   4.018
39381W        W 4608   7.423   8.769   2.988
39382W        W 4609  15.838  34.674  13.813
39383W        W 4610  34.577  31.441   1.594
39384W        W 4611  16.643  18.099  11.561
39385W        W 4612  32.672  11.454  11.427
39386W        W 4613   8.770  20.024   0.887
39387W        W 4614  20.089  20.148  13.278
39388W        W 4615  21.874  22.532   0.967
39389W        W 4616   5.223  44.431  14.025
39390W        W 4617  19.589  24.157   1.285
39391W        W 4618  39.786  13.220  14.719
39392W        W 4619  20.262   1.727   1.371
39393W        W 4620  30.851  36.376   0.193
39394W        W 4621  34.931  23.239   0.076
39395W        W 4622  18.282  29.441  13.803
39396W        W 4623   6.472  38.328  12.477
39397W        W 4624  28.124  33.003  12.862
39398W        W 4625  29.639  24.617   0.521
39399W        W 4626  27.018  41.558   3.419
39400W        W 4627  11.184  13.603   1.712
39401W        W 4628  25.764  25.494   4.949
39402W        W 4629   6.881  28.679  12.597
39403W        W 4630  16.656  11.390   4.732
39404W        W 4631  10.069  22.762  11.965
39405W        W 4632  35.006  13.815   4.355
39406W        W 4633  41.008  17.439   4.128
39407W        W 4634   1.792  25.996  13.532
39408W        W 4635  31.727   6.174  13.640
39409W        W 4636  27.279  28.523   5.557
39410W        W 4637  16.052  29.715  11.581
39411W        W 4638  40.383  42.053  12.056
39412W        W 4639  28.983  21.031   2.298
39413W        W 4640   4.425  26.387   4.192
39414W        W 4641  43.857  28.750   4.158
39415W        W 4642  43.989   6.007   1.794
39416W        W 4643   4.152  35.507   0.162
39417W        W 4644   8.394   0.993  12.554
39418W        W 4645  13.583  38.565  11.956
39419W        W 4646  38.779  21.433   0.436
39420W        W 4647   8.782  32.289  10.507
39421W        W 4648  33.121   5.381   1.324
39422W        W 4649   6.187  43.488   4.565
39423W        W 4650  13.692  36.878   0.676
39424W        W 4651   1.791   9.900  11.425
39425W        W 4652  37.280  43.689  12.769
39426W        W 4653  35.489  25.839   2.085
39427W        W 4654  44.197   8.745  10.192
39428W        W 4655   0.450   4.911   3.708
39429W        W 4656  40.380  28.168   2.357
39430W        W 4657  13.285  22.103  14.757
39431W        W 4658  32.953  44.888  11.625
39432W        W 4659  31.654  39.395   2.326
39433W        W 4660  37.857  19.863   3.812
39434W        W 4661  31.983  38.427   4.952
39435W        W 4662  27.536  22.918   0.736
39436W        W 4663  37.339  26.242   0.343
39437W        W 4664   5.171  25.942   1.207
39438W        W 4665   5.302  40.914   2.106
39439W        W 4666  44.187  27.524   2.670
39440W        W 4667  33.503  30.925  11.854
39441W        W 4668   7.905  42.201  12.837
39442W        W 4669  17.309  42.214   2.256
39443W        W 4670  26.995  34.009   2.810
39444W        W 4671  23.940  41.991   2.303
39445W        W 4672   6.645  17.052   3.509
39446W        W 4673  14.525  10.938   4.078
39447W        W 4674  26.563  27.275  13.931
39448W        W 4675  12.538  10.881   4.983
39449W        W 4676  43.428  40.746  11.579
39450W        W 4677  23.011  28.171   4.323
39451W        W 4678  28.357  11.759  11.557
39452W        W 4679  34.157  23.009   1.253
39453W        W 4680  12.233   5.098   9.893
39454W        W 4681  35.192   7.056  11.203
39455W        W 4682  36.064  43.927   3.069
39456W        W 4683  42.319  43.554   2.384
39457W        W 4684  16.195  29.808   0.867
39458W        W 4685  17.487  11.331   3.245
39459W        W 4686  29.589  43.776  10.436
39460W        W 4687  23.302  16.533   2.830
39461W        W 4688  12.772   0.222  10.618
39462W        W 4689  44.296  16.778   4.211
39463W        W 4690  17.848  10.304  14.280
39464W        W 4691  10.628  22.523   2.697
39465W        W 4692  16.588  13.293   4.819
39466W        W 4693  34.683  35.631  13.856
39467W        W 4694   5.284  44.306   1.206
39468W        W 4695  11.373  11.084   2.853
39469W        W 4696  44.222  37.671   2.281
39470W        W 4697  42.007  25.685   2.327
39471W        W 4698  15.757  13.885   3.638
39472W        W 4699  32.483  20.096   3.851
39473W        W 4700  44.465   6.442  13.402
39474W        W 4701  44.556  22.974  12.039
39475W        W 4702  25.171  41.870   3.340
39476W        W 4703   5.657   1.316   4.171
39477W        W 4704  29.922   2.769   1.257
39478W        W 4705  13.382  31.312  12.382
39479W        W 4706  40.819  34.804  11.114
39480W        W 4707  24.556  41.415   3.624
39481W        W 4708  35.134  29.162  13.628
39482W        W 4709  16.923  32.096  11.714
39483W        W 4710  23.735  38.933   4.524
39484W        W 4711  25.568   7.334   3.167
39485W        W 4712  27.021   1.307   4.174
39486W        W 4713  32.629   6.694  10.831
39487W        W 4714   7.836   5.248  13.823
39488W        W 4715  21.625  34.152   0.868
39489W        W 4716  42.365  16.667   2.702
39490W        W 4717   8.447  38.333  11.154
39491W        W 4718   2.326  25.855   1.471
39492W        W 4719  19.588  20.198  13.414
39493W        W 4720  14.699  41.440  12.769
39494W        W 4721  19.611  40.074  13.987
39495W        W 4722   2.350   4.990  10.807
39496W        W 4723   4.429  25.936  11.546
39497W        W 4724   7.332   1.892   3.635
39498W        W 4725  29.665  38.931  12.156
39499W        W 4726  10.301  36.463   0.388
39500W        W 4727   9.707  11.093  14.927
39501W        W 4728  13.120  22.636  12.915
39502W        W 4729   7.325  38.586  13.428
39503W        W 4730   5.001  33.903   2.311
39504W        W 4731  14.896  29.585  14.027
39505W        W 4732  25.034  22.614   4.836
39506W        W 4733  12.801  17.709   2.833
39507W        W 4734  10.881  30.419   2.167
39508W        W 4735   7.054  11.656   3.995
39509W        W 4736  14.148  21.765  12.182
39510W        W 4737   6.878   9.403  11.556
39511W        W 4738  17.360  39.380  13.317
39512W        W 4739  17.242  16.733  12.921
39513W        W 4740  33.872   6.021   2.132
39514W        W 4741  15.999  32.470  14.814
39515W        W 4742  33.511  25.659   0.862
39516W        W 4743   8.683  27.254   4.531
39517W        W 4744  10.644  13.128   2.802
39518W        W 4745  33.533  15.507  12.620
39519W        W 4746  10.632  39.827   2.734
39520W        W 4747  11.357  26.498   2.841
39521W        W 4748  42.428  22.662  10.754
39522W        W 4749   7.135  22.050   1.824
39523W        W 4750  14.779  11.744   2.229
39524W        W 4751  31.461  38.563   1.464
39525W        W 4752   2.179  13.132   2.664
39526W        W 4753  19.209  13.879   2.597
39527W        W 4754  38.236  35.178   4.234
39528W        W 4755  20.346   6.964  11.613
39529W        W 4756  24.449   7.896  11.625
39530W        W 4757  26.944  35.764  11.694
39531W        W 4758   4.589   1.346  11.840
39532W        W 4759  44.343  23.261   4.510
39533W        W 4760  33.840   2.226  11.153
39534W        W 4761  16.430  14.194  10.925
39535W        W 4762  14.713   1.542  14.053
39536W        W 4763  31.509  37.070   1.246
39537W        W 4764   0.459  19.091  13.115
39538W        W 4765  42.391  10.293   0.572
39539W        W 4766   8.251   3.946  13.828
39540W        W 4767  31.980  27.432  13.088
39541W        W 4768   1.424  34.965  14.123
39542W        W 4769   4.786  36.785   3.301
39543W        W 4770  18.624  31.467   3.782
39544W        W 4771  16.857   2.982  12.545
39545W        W 4772  17.256  12.832  13.612
39546W        W 4773   4.083  38.532  13.855
39547W        W 4774  20.199  21.773  12.160
39548W        W 4775   8.852  35.600   0.376
39549W        W 4776  16.883  16.155  11.696
39550W        W 4777  27.933  21.018  13.056
39551W        W 4778  11.202  43.126  14.485
39552W        W 4779  39.317   6.760  13.540
39553W        W 4780  10.097  16.653   2.969
39554W        W 4781   1.921   3.932  14.437
39555W        W 4782  10.297  41.079  14.946
39556W        W 4783  29.161  34.401   1.362
39557W        W 4784  28.104  38.412  12.185
39558W        W 4785  27.656  30.397   0.445
39559W        W 4786   0.592  38.621  11.022
39560W        W 4787   1.526  17.317  13.961
39561W        W 4788  12.953  28.508   3.760
39562W        W 4789  12.743   6.974  11.250
39563W        W 4790  35.910  10.581  13.425
39564W        W 4791  34.563  12.302   0.257
39565W        W 4792   4.995  34.463   4.679
39566W        W 4793  20.791  36.064  14.385
39567W        W 4794   7.288   6.599   4.545
39568W        W 4795  22.821  38.585  11.115
39569W        W 4796  40.839   0.008   1.138
39570W        W 4797  36.518   2.736  11.152
39571W        W 4798  40.223  28.215  11.629
39572W        W 4799   4.415  35.508   4.148
39573W        W 4800   1.514  25.459   4.928
39574W        W 4801   2.038  11.326   1.421
39575W        W 4802  24.225  44.531  14.455
39576W        W 4803  25.488   3.353  14.647
39577W        W 4804  29.006   4.068   1.138
39578W        W 4805  40.348  42.851  11.428
39579W        W 4806  12.137  41.771  11.924
39580W        W 4807  44.818   2.478   1.370
39581W        W 4808   2.771   0.814   2.617
39582W        W 4809  13.141  42.753   1.869
39583W        W 4810  28.401  39.714  14.791
39584W        W 4811  23.182  12.442   3.095
39585W        W 4812  13.899  16.859   4.762
39586W        W 4813   9.694  38.582   0.012
39587W        W 4814   0.474  38.945  13.242
39588W        W 4815  29.655  21.758   3.543
39589W        W 4816  40.403  28.373   4.737
39590W        W 4817  36.567   7.875  13.229
39591W        W 4818  21.625   6.964  12.300
39592W        W 4819   4.025  27.445  12.244
39593W        W 4820  22.771  22.558   3.502
39594W        W 4821  43.832  24.192   4.730
39595W        W 4822  24.424  36.959   1.396
39596W        W 4823  22.618   6.646  14.937
39597W        W 4824  39.222  40.569   0.835
39598W        W 4825  17.617  24.678  11.659
39599W        W 4826  11.211  43.906   4.525
39600W        W 4827  44.003   7.735  12.063
39601W        W 4828  12.572  43.528  12.996
39602W        W 4829  18.464  42.741  10.793
39603W        W 4830  13.389  26.199   0.960
39604W        W 4831   1.017  11.280   1.211
39605W        W 4832  13.319   7.264   2.699
39606W        W 4833  23.790  12.360  14.858
39607W        W 4834  19.252  35.115   3.373
39608W        W 4835  36.506  24.766  13.583
39609W        W 4836  34.368  27.486   0.858
39610W        W 4837  17.811  21.990  12.030
39611W        W 4838   1.995   5.893   3.209
39612W        W 4839  25.460  28.995   2.370
39613W        W 4840  28.697   9.349  11.462
39614W        W 4841  11.082  22.161   0.553
39615W        W 4842   2.299  13.143   1.199
39616W        W 4843  41.959  15.826   3.254
39617W        W 4844  33.927  22.044  11.645
39618W        W 4845  23.039  10.929   1.592
39619W        W 4846  25.234  21.818  13.546
39620W        W 4847  44.047  33.903   4.980
39621W        W 4848  33.573   6.411  14.788
39622W        W 4849  39.877  34.353   1.441
39623W        W 4850  17.066  39.810  13.339
39624W        W 4851  19.525  15.269   3.198
39625W        W 4852  14.566   3.005   2.142
39626W        W 4853   3.770   4.820  10.685
39627W        W 4854  26.615  44.330   0.023
39628W        W 4855  16.551  38.423  11.221
39629W        W 4856  43.002  12.174  13.724
39630W        W 4857   9.908  44.930  11.939
39631W        W 4858  10.301   9.512   4.116
39632W        W 4859  10.112  39.247   0.317
39633W        W 4860  13.843  13.682   2.052
39634W        W 4861  38.749  11.218   4.525
39635W        W 4862  27.509  35.361   1.850
39636W        W 4863  43.073  11.816   0.761
39637W        W 4864  36.050  25.396   2.446
39638W        W 4865  33.091  39.559  11.712
39639W        W 4866  22.352   2.834   4.576
39640W        W 4867   9.345  12.216  10.503
39641W        W 4868  20.024   9.696   0.154
39642W        W 4869  16.672  24.665   2.333
39643W        W 4870  23.753  16.728   1.240
39644W        W 4871   7.424  13.190   4.763
39645W        W 4872  16.511  16.048   1.252
39646W        W 4873  42.269  21.193  14.886
39647W        W 4874  10.264  27.992   1.973
39648W        W 4875  11.846  34.862   4.002
39649W        W 4876   9.677  14.075  12.495
39650W        W 4877  30.837  32.539  12.827
39651W        W 4878   9.648   1.253   1.577
39652W        W 4879  32.201  11.646  11.604
39653W        W 4880  26.774  38.100   3.209
39654W        W 4881  10.715  23.406  14.023
39655W        W 4882  43.478  40.287  13.937
39656W        W 4883  38.312  30.063  10.939
39657W        W 4884  41.340  33.919  14.902
39658W        W 4885   2.931  11.380  13.340
39659W        W 4886  16.546  15.284  14.334
39660W        W 4887  19.337   2.971  12.551
39661W        W 4888  28.510   7.204  11.165
39662W        W 4889  34.367  19.927  13.474
39663W        W 4890   6.707  25.804  13.935
39664W        W 4891  38.251  30.092   4.840
39665W        W 4892   4.313  34.610  11.924
39666W        W 4893  40.418  34.411  13.396
39667W        W 4894  25.160  21.349   4.089
39668W        W 4895   0.163  33.507   1.744
39669W        W 4896   6.494  16.659   2.359
39670W        W 4897  18.621  15.021  13.838
39671W        W 4898  24.514  23.695   3.867
39672W        W 4899  32.044  32.228   0.242
39673W        W 4900  27.695   7.435   2.659
39674W        W 4901  43.740   9.729   2.616
39675W        W 4902  30.675  39.073  11.149
39676W        W 4903  12.630  41.209  10.729
39677W        W 4904  28.954  41.586  13.259
39678W        W 4905  35.901  13.363   3.785
39679W        W 4906   4.406  17.170   2.791
39680W        W 4907  15.486  44.328  14.830
39681W        W 4908  29.460  22.069   4.330
39682W        W 4909  21.388  13.859   3.581
39683W        W 4910  37.498  31.374  14.644
39684W        W 4911  41.878  31.390   4.696
39685W        W 4912  22.742  12.870   0.583
39686W        W 4913   0.300  41.064   4.969
39687W        W 4914   8.142   5.422  12.940
39688W        W 4915  36.752   9.361   0.828
39689W        W 4916  40.687  24.957  11.624
39690W        W 4917  23.042  28.433   1.885
39691W        W 4918   8.787  34.640  10.410
39692W        W 4919   7.772   3.488   4.552
39693W        W 4920  35.659  30.403   3.704
39694W        W 4921  27.713  42.321  12.982
39695W        W 4922   0.257  39.872   2.886
39696W        W 4923   9.193  16.331  12.625
39697W        W 4924  29.988  41.986  12.591
39698W        W 4925  12.047   9.827  13.431
39699W        W 4926  42.803  15.313  13.876
39700W        W 4927  37.349  40.615  13.355
39701W        W 4928  27.721  24.992  10.736
39702W        W 4929  33.652  20.001   9.577
39703W        W 4930  25.687  18.324  11.959
39704W        W 4931   6.192  41.917  14.864
39705W        W 4932   6.804  11.600  10.983
39706W        W 4933   1.410  26.684  13.857
39707W        W 4934  21.616  39.218  14.211
39708W        W 4935  15.620   8.749   1.182
39709W        W 4936   6.933  19.664  14.211
39710W        W 4937  25.189  28.220  12.890
39711W        W 4938  24.174   5.481   2.247
39712W        W 4939  23.427  21.589   0.485
39713W        W 4940   1.492  18.558  11.220
39714W        W 4941  43.415  20.840   0.367
39715W        W 4942  40.785  33.291   3.571
39716W        W 4943  15.653   4.924   3.079
39717W        W 4944  29.993  41.431  12.584
39718W        W 4945  30.035  40.560  13.125
39719W        W 4946  33.671  37.759  11.589
39720W        W 4947  19.077  21.005  12.996
39721W        W 4948  31.007  28.971  11.522
39722W        W 4949  27.782  44.260   4.513
39723W        W 4950  36.079  15.026   4.079
39724W        W 4951  27.883  22.862  11.588
39725W        W 4952  30.058  10.493  10.946
39726W        W 4953  22.944  16.345  13.022
39727W        W 4954   5.321  40.095   0.935
39728W        W 4955  38.980   1.745   0.702
39729W        W 4956  33.542  27.967  12.489
39730W        W 4957   6.800  22.456   2.908
39731W        W 4958  20.282  43.676  14.332
39732W        W 4959   8.121   6.409   1.213
39733W        W 4960  10.544  23.022  11.660
39734W        W 4961  36.957  30.539   2.061
39735W        W 4962  44.496  30.310   1.861
39736W        W 4963  34.852  22.887   3.446
39737W        W 4964  21.507  44.540  14.004
39738W        W 4965  28.639  42.780  12.952
39739W        W 4966  29.197   1.721  13.520
39740W        W 4967   6.760   6.655  13.908
39741W        W 4968  31.680  22.275   2.708
39742W        W 4969  15.909   0.651  14.305
39743W        W 4970  10.439   7.013   4.131
39744W        W 4971  14.216  20.736  14.789
39745W        W 4972  37.514   6.283  14.236
39746W        W 4973  28.777  16.743   2.777
39747W        W 4974  25.455  40.602  12.065
39748W        W 4975  39.025   3.489  13.893
39749W        W 4976  35.380  19.135   4.182
39750W        W 4977  34.494  39.760  14.044
39751W        W 4978  38.544  42.540  11.921
39752W        W 4979   7.874  11.430   2.772
39753W        W 4980  11.187  10.291   1.718
39754W        W 4981  36.559  22.492   2.665
39755W        W 4982  41.800  11.911   2.397
39756W        W 4983   3.792   8.558   3.754
39757W        W 4984  34.880   9.177   0.857
39758W        W 4985  16.041   6.326   2.348
39759W        W 4986  38.168   7.471   2.851
39760W        W 4987   7.511   6.304   0.276
39761W        W 4988  25.147   6.442   3.266
39762W        W 4989  21.571  19.982   3.152
39763W        W 4990  19.449  40.465  11.319
39764W        W 4991  44.986   7.335  12.072
39765W        W 4992  25.475  13.127  12.393
39766W        W 4993  19.659  30.187   1.912
39767W        W 4994  42.581   8.928  14.803
39768W        W 4995  27.297  41.733  10.913
39769W        W 4996  14.240  25.161  13.327
39770W        W 4997  10.621  20.160   3.368
39771W        W 4998  24.048  19.320   2.484
39772W        W 4999  14.726  39.608   3.893
39773W        W 5000  14.782  33.531  12.369
39774W        W 5001  34.669  25.136  13.488
39775W        W 5002  18.701  16.222  10.442
39776W        W 5003  21.337  23.913   1.904
39777W        W 5004  13.869  27.694   2.043
39778W        W 5005   4.430   5.791   1.024
39779W        W 5006  33.450  18.331   1.976
39780W        W 5007  34.023  33.076  13.635
39781W        W 5008  17.691  25.197   4.509
39782W        W 5009   0.924  17.698   4.020
39783W        W 5010  30.133  35.423  10.964
39784W        W 5011  42.267  14.199   1.334
39785W        W 5012  44.469  15.769   2.135
39786W        W 5013  42.065  23.249  14.891
39787W        W 5014  36.680  36.866   2.223
39788W        W 5015  42.030  12.220   2.880
39789W        W 5016  22.705  39.895   4.560
39790W        W 5017   9.966   0.204  11.113
39791W        W 5018  38.028   2.832   4.213
39792W        W 5019   1.728  24.455   1.028
39793W        W 5020   0.453  25.325  13.083
39794W        W 5021   7.853  37.478   3.179
39795W        W 5022  14.052   7.223  12.547
39796W        W 5023  38.534  15.608  14.932
39797W        W 5024  32.941  22.203   1.180
39798W        W 5025  44.446  33.165   0.482
39799W        W 5026  12.146  12.749   2.490
39800W        W 5027  34.902   1.946  12.938
39801W        W 5028  18.653   5.206   2.872
39802W        W 5029  24.804  16.205   4.543
39803W        W 5030  15.051  12.837   4.527
39804W        W 5031   9.901  18.686   0.364
39805W        W 5032  29.566   6.651   3.687
39806W        W 5033   8.707  15.082  12.473
39807W        W 5034  16.047   0.996   2.923
39808W        W 5035  31.920  29.177   0.938
39809W        W 5036  30.751  42.963   2.377
39810W        W 5037  44.995  20.401  14.304
39811W        W 5038  42.205  39.834   1.255
39812W        W 5039   6.675  21.697  10.906
39813W        W 5040   2.136  30.567  12.132
39814W        W 5041   2.422  30.035   0.309
39815W        W 5042  17.960  21.189  11.227
39816W        W 5043  33.319  29.523  13.889
39817W        W 5044  40.975  34.277  13.974
39818W        W 5045  28.576  16.710   1.887
39819W        W 5046  33.691   5.476  14.828
39820W        W 5047  31.039  15.629   2.259
39821W        W 5048  18.512  35.927  10.404
39822W        W 5049  39.275  17.433  14.005
39823W        W 5050  30.585  37.606  14.961
39824W        W 5051  14.034  27.302  10.708
39825W        W 5052  14.860  33.606  10.442
39826W        W 5053  29.008  31.560  12.687
39827W        W 5054  37.009  22.651  12.662
39828W        W 5055  34.680  34.440  12.644
39829W        W 5056  43.597  36.841  13.294
39830W        W 5057  34.835   6.922  13.353
39831W        W 5058  15.306  10.247   0.676
39832W        W 5059  35.799  29.074   4.750
39833W        W 5060  28.063  26.902   2.741
39834W        W 5061  31.433   7.365  14.283
39835W        W 5062  36.490  18.263  10.777
39836W        W 5063   7.695  25.444   3.714
39837W        W 5064  12.301  30.190   3.107
39838W        W 5065  37.400  17.523  13.792
39839W        W 5066  37.834  39.586   2.383
39840W        W 5067   2.720  18.746  11.674
39841W        W 5068  28.731  22.629   1.434
39842W        W 5069  40.073  35.147  12.990
39843W        W 5070  44.939  34.849   1.325
39844W        W 5071  33.988  17.723  14.155
39845W        W 5072  37.520  42.555   3.176
39846W        W 5073   4.818  23.565  12.144
39847W        W 5074  43.760   7.185  10.944
39848W        W 5075  36.303   0.908   2.299
39849W        W 5076  16.668   2.228  11.435
39850W        W 5077  15.155  18.232   4.284
39851W        W 5078  30.392  21.104   2.479
39852W        W 5079  22.216  18.261   3.271
39853W        W 5080  26.491   8.494  10.684
39854W        W 5081   7.413   2.822  12.954
39855W        W 5082  42.188  31.164  13.904
39856W        W 5083  32.780  40.890  12.473
39857W        W 5084  32.939  29.690  11.640
39858W        W 5085  12.974  23.638   0.399
39859W        W 5086  27.578  31.963   4.640
39860W        W 5087  39.411  37.266   2.613
39861W        W 5088  22.124  42.609  13.152
39862W        W 5089  30.648  35.939  13.737
39863W        W 5090  11.765   6.725  11.885
39864W        W 5091   5.827  30.037   4.358
39865W        W 5092  27.189   5.817  11.116
39866W        W 5093  10.162  29.955   4.157
39867W        W 5094  36.117  18.008  11.593
39868W        W 5095  39.779  20.155  13.382
39869W        W 5096   9.135  23.085  10.638
39870W        W 5097  41.407  34.030  10.584
39871W        W 5098  44.238   6.662  11.528
39872W        W 5099  35.462   7.146  10.772
39873W        W 5100  27.939   3.636  11.089
39874W        W 5101   0.776   2.762  12.024
39875W        W 5102  35.828   9.934   1.807
39876W        W 5103  15.176  42.490  13.641
39877W        W 5104   9.087  15.639  13.947
39878W        W 5105  38.554  16.416   4.065
39879W        W 5106  15.157   4.710  12.843
39880W        W 5107  33.003  26.561   3.040
39881W        W 5108  17.712   2.734  13.314
39882W        W 5109  21.020   6.802  12.978
39883W        W 5110  28.495   2.176  11.697
39884W        W 5111  30.605  31.701   1.810
39885W        W 5112  37.124  41.760  14.364
39886W        W 5113  38.448  42.581  14.396
39887W        W 5114  38.531  22.977  12.904
39888W        W 5115  21.646  29.540  11.047
39889W        W 5116  30.011  43.554  10.653
39890W        W 5117   0.500   6.749  10.530
39891W        W 5118   6.290  11.807  14.136
39892W        W 5119  34.494  30.930  13.437
39893W        W 5120  38.910  35.943  12.394
39894W        W 5121   6.396  26.563  12.004
39895W        W 5122  16.569   9.478  11.985
39896W        W 5123  16.238  30.900  10.792
39897W        W 5124  15.291   5.224  10.573
39898W        W 5125  31.583   6.628  12.941
39899W        W 5126  42.349  26.083   4.233
39900W        W 5127  22.285  35.980   4.542
39901W        W 5128  18.421  12.097  13.347
39902W        W 5129  20.549   9.005   0.151
39903W        W 5130  14.269  15.722   1.746
39904W        W 5131   9.697  12.689  11.019
39905W        W 5132  11.151  24.990  10.920
39906W        W 5133   3.820  22.193   4.072
39907W        W 5134  26.432  28.540   3.169
39908W        W 5135  34.011  44.749  11.608
39909W        W 5136  42.614   6.389  14.925
39910W        W 5137  37.426   2.887   1.278
39911W        W 5138   3.757   3.960   1.998
39912W        W 5139  10.318  22.261  13.055
39913W        W 5140  25.819   5.509   2.805
39914W        W 5141  19.670   9.877   1.846
39915W        W 5142  37.012  31.188   0.412
39916W        W 5143  10.659  10.913  10.745
39917W        W 5144  10.465  34.105  13.014
39918W        W 5145   2.797  44.314   1.440
39919W        W 5146  16.582  24.493  10.747
39920W        W 5147  16.324  43.031   0.508
39921W        W 5148  30.145  32.567   0.887
39922W        W 5149  32.896  21.760   3.679
39923W        W 5150   5.730   7.202   1.424
39924W        W 5151  20.719  39.658   2.718
39925W        W 5152  32.546  19.318  13.413
39926W        W 5153  30.146   4.746   2.334
39927W        W 5154  43.804   6.300  10.682
39928W        W 5155  13.583  41.928   3.211
39929W        W 5156   1.461  20.850  12.469
39930W        W 5157  18.654  13.571  13.355
39931W        W 5158   5.947  32.314  11.539
39932W        W 5159   7.210  35.040   2.992
39933W        W 5160   9.297  39.412  12.057
39934W        W 5161  23.160  22.519   2.720
39935W        W 5162  25.621  43.726  12.936
39936W        W 5163   8.167  22.964   1.406
39937W        W 5164  22.204  35.914   0.814
39938W        W 5165  35.520  41.697   3.015
39939W        W 5166  41.615  32.513  11.427
39940W        W 5167  14.641   5.562   0.835
39941W        W 5168  11.608   4.326  10.972
39942W        W 5169  12.887  20.503   1.370
39943W        W 5170  31.959  30.582  13.441
39944W        W 5171  30.131  40.348   3.552
39945W        W 5172  35.860  33.108  14.560
39946W        W 5173  16.173  42.640  12.180
39947W        W 5174  34.662   4.228   3.876
39948W        W 5175  41.788   3.490   0.439
39949W        W 5176  41.873  24.528   4.260
39950W        W 5177   3.694  31.200   0.853
39951W        W 5178  39.089  44.421  14.344
39952W        W 5179  39.912  40.084   1.773
39953W        W 5180  42.442   8.888   1.820
39954W        W 5181   3.660   8.896  11.608
39955W        W 5182  15.078  41.516  12.415
39956W        W 5183  30.416   2.950  14.329
39957W        W 5184  20.949  39.000  14.551
39958W        W 5185  35.113  26.211   3.236
39959W        W 5186  17.104  38.935  14.440
39960W        W 5187  40.514  12.653  10.320
39961W        W 5188  17.669  40.280   3.319
39962W        W 5189  36.412  38.942  11.302
39963W        W 5190  41.933  40.861  11.586
39964W        W 5191  11.121   4.913   0.872
39965W        W 5192  20.546  41.703  10.332
39966W        W 5193   1.468   5.823   4.372
39967W        W 5194   8.188  16.211   2.904
39968W        W 5195  29.580  21.482  14.528
39969W        W 5196  31.610  10.880   1.278
39970W        W 5197  21.711  20.742  14.769
39971W        W 5198   3.287  36.551  13.277
39972W        W 5199  36.862   0.200   0.392
39973W        W 5200   5.959   7.279   2.735
39974W        W 5201  22.237   2.810  13.317
39975W        W 5202  42.000  18.424  12.561
39976W        W 5203   3.290  36.522   0.121
39977W        W 5204  41.325  16.448   3.331
39978W        W 5205  36.622  13.788  13.446
39979W        W 5206  18.714   4.170   1.346
39980W        W 5207  22.287  22.360  12.566
39981W        W 5208  28.452  37.818   1.919
39982W        W 5209  23.795  13.705  14.501
39983W        W 5210  15.694  24.849   0.488
39984W        W 5211  23.506  15.347  11.249
39985W        W 5212  23.797  43.911   4.114
39986W        W 5213  37.132  10.010  11.551
39987W        W 5214  19.060  15.356  13.591
39988W        W 5215  28.642  43.547   3.333
39989W        W 5216  43.029  27.881   0.894
39990W        W 5217   3.954  10.548   0.348
39991W        W 5218  23.577   2.817  14.008
39992W        W 5219  28.988  29.830  11.445
39993W        W 5220   3.973   2.049  10.718
39994W        W 5221   4.599  35.073  14.106
39995W        W 5222  38.591  43.966   1.703
39996W        W 5223   6.918  16.815   4.184
39997W        W 5224  24.093  36.096  13.055
39998W        W 5225  17.209  20.534   0.474
39999W        W 5226  13.274  32.496  13.086
40000W        W 5227  19.645  27.786  11.458
40001W        W 5228  38.513   9.715  12.497
40002W        W 5229  43.055   8.126  14.838
40003W        W 5230  18.745   7.437   4.182
40004W        W 5231  27.062   5.470  11.495
40005W        W 5232   0.838  10.773  12.978
40006W        W 5233  23.210  34.952   4.223
40007W        W 5234  43.500  17.322  10.207
40008W        W 5235  37.627  41.795  14.530
40009W        W 5236  33.219  23.909   4.381
40010W        W 5237  29.628  25.604   0.932
40011W        W 5238  15.730  36.364   0.574
40012W        W 5239  34.411  13.268  12.942
40013W        W 5240   5.368  10.169   0.757
40014W        W 5241  33.381   0.104   9.924
40015W        W 5242  17.716  20.298   0.444
40016W        W 5243  38.212  25.527   4.365
40017W        W 5244  18.281  16.030   3.709
40018W        W 5245  15.233  36.057   4.733
40019W        W 5246   6.869  33.009   2.660
40020W        W 5247  44.084   1.215  14.466
40021W        W 5248   3.844   2.548   5.526
40022W        W 5249  11.496  16.624   3.162
40023W        W 5250  40.661  13.119   2.721
40024W        W 5251  31.374   4.831  14.897
40025W        W 5252  20.991  39.281  12.207
40026W        W 5253  30.760  33.469  14.413
40027W        W 5254  23.728  14.336  13.496
40028W        W 5255  42.158  30.082  11.011
40029W        W 5256  33.467  35.375  12.359
40030W        W 5257   2.274   3.465  12.347
40031W        W 5258  24.615   6.185   3.209
40032W        W 5259  37.818  20.716   2.236
40033W        W 5260  42.324   7.383   4.854
40034W        W 5261  40.100  38.636  12.581
40035W        W 5262  44.334  39.632   2.613
40036W        W 5263  22.661  19.581   0.350
40037W        W 5264  37.542   0.835  11.374
40038W        W 5265  37.374  38.283   1.660
40039W        W 5266  17.607  23.916  12.005
40040W        W 5267  21.502  36.602  14.288
40041W        W 5268  24.172  10.629  12.068
40042W        W 5269  22.626  29.345   3.600
40043W        W 5270  43.935  30.461  14.842
40044W        W 5271   4.292   6.217   2.095
40045W        W 5272   5.836  24.651   0.999
40046W        W 5273  36.359   3.711  13.622
40047W        W 5274   9.426  16.678   4.715
40048W        W 5275  38.089  44.045   4.129
40049W        W 5276  25.141   2.519   4.743
40050W        W 5277  12.892  36.640  14.363
40051W        W 5278  29.930   0.808  13.003
40052W        W 5279   1.224   6.380   3.203
40053W        W 5280  31.163  33.906   3.513
40054W        W 5281  19.078  25.288  11.191
40055W        W 5282  42.594  20.832  13.971
40056W        W 5283  21.469  18.746   0.509
40057W        W 5284  43.793  37.562   1.326
40058W        W 5285   3.375   7.593   2.307
40059W        W 5286  35.106  23.383   3.341
40060W        W 5287  16.167  23.272   1.695
40061W        W 5288  33.574   5.874   1.290
40062W        W 5289  43.994   4.951   4.657
40063W        W 5290  27.357  25.553   2.779
40064W        W 5291  37.909  44.618   2.142
40065W        W 5292  28.414  27.635   3.151
40066W        W 5293  22.242  39.317   0.878
40067W        W 5294   9.331  17.835  12.385
40068W        W 5295  43.384  40.954  13.474
40069W        W 5296   5.915  37.526   3.363
40070W        W 5297  17.595  21.485  14.837
40071W        W 5298   9.244  10.156   2.658
40072W        W 5299  32.975  34.243  11.089
40073W        W 5300  28.137   5.948  13.955
40074W        W 5301  28.196  12.030  12.006
40075W        W 5302   2.026  37.808  14.444
40076W        W 5303   2.180  23.764   9.823
40077W        W 5304  13.027  14.678   3.691
40078W        W 5305  22.632  19.995  13.466
40079W        W 5306  16.838  25.628  12.866
40080W        W 5307  19.808  33.847  11.031
40081W        W 5308  34.403  29.465  12.619
40082W        W 5309  15.411  12.697  12.077
40083W        W 5310   5.805   4.726   1.702
40084W        W 5311  42.728  42.643   1.435
40085W        W 5312  36.708  14.719  11.487
40086W        W 5313  25.996  36.996  12.681
40087W        W 5314  18.899  24.148  10.702
40088W        W 5315  37.761  36.361  11.655
40089W        W 5316  28.101  14.262   4.961
40090W        W 5317  14.582   2.784   1.244
40091W        W 5318  40.201   9.694  11.148
40092W        W 5319   1.375  41.165   3.211
40093W        W 5320  27.756  20.613  13.392
40094W        W 5321  14.783   8.248   0.426
40095W        W 5322  24.600  19.190  12.687
40096W        W 5323  27.066  44.350  14.788
40097W        W 5324   3.446  10.265  11.113
40098W        W 5325  12.829  27.401   4.590
40099W        W 5326   6.162  37.483   1.968
40100W        W 5327   7.878  39.860   3.259
40101W        W 5328  17.865  24.983  10.853
40102W        W 5329  29.883  26.464  13.750
40103W        W 5330  31.485  19.802  12.546
40104W        W 5331   3.630  16.016  11.640
40105W        W 5332  19.273  42.983   3.684
40106W        W 5333  42.079  25.487   4.219
40107W        W 5334  35.927  36.904  12.673
40108W        W 5335   0.384   1.120   4.040
40109W        W 5336  27.903  25.058  13.321
40110W        W 5337  19.669  38.669   3.615
40111W        W 5338  24.449  19.401   5.066
40112W        W 5339  34.630  34.566   2.865
40113W        W 5340  20.594  10.268   4.482
40114W        W 5341  38.390   3.650   5.235
40115W        W 5342  39.863   8.421   4.055
40116W        W 5343  41.449  36.811   4.124
40117W        W 5344  33.422  27.851   2.728
40118W        W 5345   3.945  19.243  13.426
40119W        W 5346   4.006  17.465   2.596
40120W        W 5347  19.451  36.894   1.105
40121W        W 5348  26.619  26.906   1.179
40122W        W 5349  26.017   9.333   2.602
40123W        W 5350  35.786  32.535   4.704
40124W        W 5351  24.159  41.535   0.244
40125W        W 5352  16.166  21.822   2.056
40126W        W 5353  15.618  20.151   3.220
40127W        W 5354  19.569  21.237   2.254
40128W        W 5355  33.586  11.520   2.975
40129W        W 5356   8.488  22.079   3.404
40130W        W 5357  21.162  20.271   0.376
40131W        W 5358  38.651   0.310   3.869
40132W        W 5359  44.740   4.839  14.544
40133W        W 5360  32.994  40.789   3.690
40134W        W 5361  25.766  43.477   1.723
40135W        W 5362  31.737  40.910   1.419
40136W        W 5363   0.255  38.016   1.421
40137W        W 5364   9.409  18.852  12.045
40138W        W 5365  35.879  33.303  12.118
40139W        W 5366  42.887   8.595   1.774
40140W        W 5367  21.945  31.385  14.667
40141W        W 5368   6.965  42.413  14.854
40142W        W 5369  22.797  43.595   2.825
40143W        W 5370  41.186  23.530  11.526
40144W        W 5371  19.003  32.912  10.898
40145W        W 5372  21.337   2.947  11.742
40146W        W 5373   3.442  42.561   0.874
40147W        W 5374  40.422  28.670  11.042
40148W        W 5375  14.725   4.702   1.803
40149W        W 5376  16.901  14.205  13.404
40150W        W 5377  24.717  18.618  14.870
40151W        W 5378  30.968  13.015   1.604
40152W        W 5379  31.203   0.581  13.461
40153W        W 5380  42.560  32.011  13.816
40154W        W 5381  30.631  16.815  11.505
40155W        W 5382  16.458  44.585   4.454
40156W        W 5383   8.365  11.712  13.108
40157W        W 5384  25.561  19.025   4.179
40158W        W 5385   1.340  34.385   3.426
40159W        W 5386   9.178  38.563  10.362
40160W        W 5387  26.759  24.593   0.604
40161W        W 5388   6.390  43.223   9.779
40162W        W 5389  11.108  32.240  13.884
40163W        W 5390  33.352   4.479   0.353
40164W        W 5391   8.340   3.781   3.359
40165W        W 5392   0.699  25.808   4.132
40166W        W 5393  23.952  30.416   4.597
40167W        W 5394  11.117   1.118   4.020
40168W        W 5395  27.886  13.249   5.303
40169W        W 5396  30.728  26.438   2.585
40170W        W 5397  32.123  39.146   3.483
40171W        W 5398   2.463  36.509   4.645
40172W        W 5399  26.070  23.034   4.453
40173W        W 5400  33.108   0.657   0.857
40174W        W 5401  33.198  23.592   0.935
40175W        W 5402  19.794   6.877  12.566
40176W        W 5403  10.068  32.310  13.415
40177W        W 5404   6.036   5.236   4.467
40178W        W 5405  26.200   2.812  11.833
40179W        W 5406   1.330  32.750   0.919
40180W        W 5407  12.123   2.251   2.902
40181W        W 5408  26.731  16.542   1.445
40182W        W 5409  39.801  31.071   3.193
40183W        W 5410   9.784   1.074  13.884
40184W        W 5411  24.931   5.784  13.199
40185W        W 5412  20.944  11.500   5.145
40186W        W 5413  37.320  32.368   0.886
40187W        W 5414   3.288  41.097   1.838
40188W        W 5415  24.427  29.829  12.424
40189W        W 5416  37.835  20.894  10.323
40190W        W 5417  15.127  28.461   1.771
40191W        W 5418   2.558  34.292  14.395
40192W        W 5419  15.435  16.290  12.455
40193W        W 5420  32.511  28.014   1.774
40194W        W 5421   0.293   4.894  12.018
40195W        W 5422  24.339  37.063  12.519
40196W        W 5423  17.981  25.676   3.895
40197W        W 5424  38.151  34.613   1.297
40198W        W 5425  16.997   1.954   5.053
40199W        W 5426  14.122  13.990   2.378
40200W        W 5427  44.122   5.158  13.630
40201W        W 5428  31.449  18.478   2.254
40202W        W 5429   0.057  42.608   2.743
40203W        W 5430   7.791   3.139   1.671
40204W        W 5431   7.860   8.900   0.642
40205W        W 5432  18.082   8.157   1.779
40206W        W 5433  13.532  14.764   3.830
40207W        W 5434  29.387  19.777   4.187
40208W        W 5435  38.105  27.457  10.624
40209W        W 5436  29.523  24.421   1.485
40210W        W 5437  36.541  15.022   1.894
40211W        W 5438   7.400  27.030  12.614
40212W        W 5439  24.968  11.058  12.098
40213W        W 5440  15.096  34.445   2.879
40214W        W 5441  44.788  17.236  11.967
40215W        W 5442  33.431  11.786   4.520
40216W        W 5443  44.560  10.225   1.362
40217W        W 5444   6.099  34.185  11.519
40218W        W 5445  22.179   6.183  12.425
40219W        W 5446  29.490  35.779  14.284
40220W        W 5447  13.054  27.169  13.527
40221W        W 5448  40.483  32.472  11.668
40222W        W 5449   7.117   8.055  11.168
40223W        W 5450   7.992   6.265  12.220
40224W        W 5451  24.682  17.686   3.276
40225W        W 5452  29.203  12.892  11.954
40226W        W 5453  40.466  24.810   0.868
40227W        W 5454  37.225  18.317   4.984
40228W        W 5455  35.320  13.170   3.004
40229W        W 5456  31.733  34.480   1.948
40230W        W 5457  35.427  21.463   1.904
40231W        W 5458  29.919  40.725   3.273
40232W        W 5459  37.381  25.170   4.798
40233W        W 5460  16.783   3.658  14.027
40234W        W 5461   1.897  31.428  12.154
40235W        W 5462  38.695  25.977  11.397
40236W        W 5463  22.079  36.519  11.240
40237W        W 5464  36.573  17.561  12.121
40238W        W 5465  21.059  21.723  10.645
40239W        W 5466  39.334  12.093  11.150
40240W        W 5467   7.775   8.482  14.485
40241W        W 5468  37.255   4.578   4.351
40242W        W 5469   3.467  37.503   1.814
40243W        W 5470  37.499  22.483   1.947
40244W        W 5471  12.653   8.271  11.463
40245W        W 5472   9.923  25.716  14.321
40246W        W 5473  40.793  29.301  14.266
40247W        W 5474  13.341  28.483  10.553
40248W        W 5475  42.930  28.613   3.713
40249W        W 5476  31.527  11.598  12.170
40250W        W 5477  34.606   5.375  12.170
40251W        W 5478  33.042   3.475   1.650
40252W        W 5479  31.171   5.811   3.192
40253W        W 5480  42.412  33.856  10.783
40254W        W 5481  32.706   9.256  13.456
40255W        W 5482  10.416  28.504  13.439
40256W        W 5483  35.748  39.394   3.277
40257W        W 5484  43.273  31.367  13.474
40258W        W 5485  30.551  20.361   2.676
40259W        W 5486  19.649  19.754  11.689
40260W        W 5487  42.446  16.240  13.443
40261W        W 5488   7.690  41.021   4.212
40262W        W 5489  25.689   1.921   2.343
40263W        W 5490  15.663  37.384   1.341
40264W        W 5491   0.200  29.627  11.660
40265W        W 5492   4.548  26.266   1.767
40266W        W 5493  18.650  13.256   2.651
40267W        W 5494  33.410  33.396   0.619
40268W        W 5495  36.855   6.805  11.638
40269W        W 5496  26.513   4.745   2.505
40270W        W 5497  44.886  20.015   2.797
40271W        W 5498   1.197   9.017   2.625
40272W        W 5499  38.322  41.854   3.728
40273W        W 5500   9.119  33.914  13.271
40274W        W 5501  40.248  10.948  14.517
40275W        W 5502  24.952  10.195   2.309
40276W        W 5503  10.109  35.364   3.677
40277W        W 5504  42.906  18.666  12.296
40278W        W 5505  24.781  38.861   4.523
40279W        W 5506  13.085  34.082   0.819
40280W        W 5507   6.538  25.040   0.892
40281W        W 5508   4.013  26.262   1.669
40282W        W 5509  35.925  21.045  12.612
40283W        W 5510   2.260  44.431   2.290
40284W        W 5511  10.336  29.002  14.630
40285W        W 5512  38.078  40.743  11.647
40286W        W 5513  37.207  32.225  14.640
40287W        W 5514  35.003  40.516   1.827
40288W        W 5515  40.648  30.475   3.230
40289W        W 5516  27.988   2.417  14.528
40290W        W 5517  28.234  10.363  10.708
40291W        W 5518  44.019   5.475   4.636
40292W        W 5519  36.048  43.491  13.895
40293W        W 5520  28.983  35.321  11.556
40294W        W 5521  43.877  29.534  11.182
40295W        W 5522  32.349  19.353   1.527
40296W        W 5523  13.864  19.574   3.813
40297W        W 5524  11.409  20.733   1.418
40298W        W 5525  24.618  23.550  12.997
40299W        W 5526   6.641  33.093   1.255
40300W        W 5527  26.225  11.681  13.883
40301W        W 5528  42.383   3.962  10.736
40302W        W 5529  34.434  39.755  13.173
40303W        W 5530   8.020  29.996  13.480
40304W        W 5531   7.623  29.129   0.949
40305W        W 5532  40.250  41.118   1.597
40306W        W 5533  25.556   4.708   4.047
40307W        W 5534  18.593  27.484   1.167
40308W        W 5535  35.089  28.140  13.926
40309W        W 5536  38.809  17.613   3.739
40310W        W 5537  26.393  24.805  11.533
40311W        W 5538   4.347   3.491   3.705
40312W        W 5539  43.620  15.494   4.646
40313W        W 5540  15.687  13.423  11.599
40314W        W 5541   9.428  30.227  13.834
40315W        W 5542   3.784  10.028   4.586
40316W        W 5543  44.200  30.095   1.505
40317W        W 5544  24.685  41.946  12.927
40318W        W 5545  11.642  23.733   1.051
40319W        W 5546  29.908  11.549   1.508
40320W        W 5547  24.631  35.703  10.728
40321W        W 5548  35.673  31.502  12.212
40322W        W 5549   1.875  37.824  11.066
40323W        W 5550   0.458  40.143   1.373
40324W        W 5551  38.992  34.899  14.854
40325W        W 5552  34.973  36.321  11.492
40326W        W 5553   6.717  17.079  11.965
40327W        W 5554  41.531  43.654   3.238
40328W        W 5555  14.257   5.982   3.682
40329W        W 5556   2.374  43.276   2.438
40330W        W 5557   1.169  33.016   4.236
40331W        W 5558   5.086   6.540  12.166
40332W        W 5559  32.411   7.919   2.855
40333W        W 5560  44.864   7.333   2.605
40334W        W 5561   5.317  26.320   5.071
40335W        W 5562  17.780  29.893   1.793
40336W        W 5563   7.883  29.103  10.056
40337W        W 5564   9.124   5.762   2.119
40338W        W 5565  33.673  22.650  10.645
40339W        W 5566  33.960  32.363  11.025
40340W        W 5567  37.607  27.867   0.120
40341W        W 5568  27.046  16.716   3.779
40342W        W 5569   9.390  25.212  10.746
40343W        W 5570  12.562  39.968   2.334
40344W        W 5571  29.967   0.001   2.580
40345W        W 5572  28.474  24.717  14.465
40346W        W 5573  34.237   6.861  11.120
40347W        W 5574  40.516   2.345  14.540
40348W        W 5575  35.008  39.562  12.083
40349W        W 5576  16.851  27.873  11.174
40350W        W 5577  20.695  27.678  12.551
40351W        W 5578  11.709   1.682  12.168
40352W        W 5579  33.613   8.159  11.155
40353W        W 5580  39.930  27.310  12.937
40354W        W 5581  13.351  42.093   0.278
40355W        W 5582  20.711  33.314   0.951
40356W        W 5583  42.314  12.887   3.669
40357W        W 5584  37.337  15.701   1.798
40358W        W 5585  31.571  39.514   4.117
40359W        W 5586  24.190  17.696   4.066
40360W        W 5587  33.342   7.925  13.693
40361W        W 5588   8.913  42.273  12.568
40362W        W 5589  26.437  32.291   2.200
40363W        W 5590   7.151  39.860   3.672
40364W        W 5591  37.877  31.981   1.525
40365W        W 5592  30.501   8.765  13.844
40366W        W 5593  19.700   0.314   5.076
40367W        W 5594   5.150   2.551   0.422
40368W        W 5595  31.493  18.796   0.786
40369W        W 5596   3.527  13.195   0.331
40370W        W 5597  17.136  26.793   2.909
40371W        W 5598  12.101  12.203  10.604
40372W        W 5599  22.122  13.528   1.683
40373W        W 5600   0.783   2.222  14.535
40374W        W 5601  14.287  31.091   3.387
40375W        W 5602  18.318  12.398   1.557
40376W        W 5603   7.162  29.681   1.316
40377W        W 5604  21.743  43.263  13.468
40378W        W 5605  11.612  16.337  12.017
40379W        W 5606  26.528  18.318   1.573
40380W        W 5607  44.479   0.263   1.249
40381W        W 5608   7.959  12.274  14.527
40382W        W 5609  37.079  31.463  12.014
40383W        W 5610  17.765  39.640  13.581
40384W        W 5611  29.098  34.135  14.950
40385W        W 5612  23.670   3.256  10.882
40386W        W 5613   9.687   3.782  12.264
40387W        W 5614   8.014   1.221   0.201
40388W        W 5615  12.158   6.824   2.412
40389W        W 5616   8.904  22.304   3.619
40390W        W 5617  37.683  44.038   3.116
40391W        W 5618   4.334  35.580   1.931
40392W        W 5619  23.580  35.955   1.441
40393W        W 5620  12.396   4.427  14.519
40394W        W 5621  28.034  22.659  14.756
40395W        W 5622  44.729  41.415   1.223
40396W        W 5623  33.995   3.251  12.129
40397W        W 5624   7.882  36.581  14.370
40398W        W 5625  34.073  38.140  11.545
40399W        W 5626  21.814  43.911   2.773
40400W        W 5627  27.712  24.495   1.092
40401W        W 5628   9.187  42.392  11.173
40402W        W 5629  13.638   5.192  10.996
40403W        W 5630  43.289  18.781   0.747
40404W        W 5631  15.060  17.795   3.975
40405W        W 5632   1.802   3.786  11.618
40406W        W 5633   7.349   1.477  12.124
40407W        W 5634  43.493  25.487  14.419
40408W        W 5635   4.931  30.670   2.867
40409W        W 5636  36.425  40.696   4.471
40410W        W 5637  16.421  31.155   1.656
40411W        W 5638   5.193  30.981   0.886
40412W        W 5639  24.520   1.375  13.805
40413W        W 5640  36.685  25.596  12.448
40414W        W 5641   0.101  44.108   9.744
40415W        W 5642  33.723   8.950  11.963
40416W        W 5643  42.056   4.296  14.889
40417W        W 5644  27.081  16.274  14.255
40418W        W 5645  26.037  42.615  11.113
40419W        W 5646  25.376  32.124   0.741
40420W        W 5647  38.850  14.599  13.540
40421W        W 5648  16.149  12.143   3.626
40422W        W 5649  38.749  41.464  14.949
40423W        W 5650  12.134   5.934  13.438
40424W        W 5651  15.473  38.825   3.638
40425W        W 5652  44.952  16.840  14.407
40426W        W 5653  22.511  43.559  11.607
40427W        W 5654  29.110  15.839   4.509
40428W        W 5655  15.556  17.230   0.774
40429W        W 5656  11.319  33.459   0.270
40430W        W 5657  25.878  39.931  14.976
40431W        W 5658   8.804  12.610   1.401
40432W        W 5659  16.554  44.603   3.710
40433W        W 5660   7.332   9.306  13.630
40434W        W 5661  30.571  39.723   0.119
40435W        W 5662   2.702   3.419   0.933
40436W        W 5663  31.500  38.122   5.267
40437W        W 5664  36.574  20.684   4.578
40438W        W 5665   8.725  13.152  13.684
40439W        W 5666   8.345  13.363  13.431
40440W        W 5667  23.005  27.914  12.465
40441W        W 5668  37.145  43.549   4.023
40442W        W 5669  38.322  11.770   1.260
40443W        W 5670  28.571   4.816   1.455
40444W        W 5671  26.215  35.571  12.106
40445W        W 5672  44.849   2.668   4.297
40446W        W 5673  39.741   0.174  14.078
40447W        W 5674   0.377  31.334  11.050
40448W        W 5675  24.666  24.086  13.525
40449W        W 5676   8.240  16.159   1.426
40450W        W 5677  15.725  33.359  13.479
40451W        W 5678  30.427  24.273  11.096
40452W        W 5679   8.732  12.802  12.847
40453W        W 5680  12.207   4.322   3.515
40454W        W 5681  31.673  12.343   0.214
40455W        W 5682   7.584  39.245   0.796
40456W        W 5683  39.617  32.695   2.828
40457W        W 5684   8.546  24.206  12.643
40458W        W 5685  35.759  21.546   3.682
40459W        W 5686  11.231  44.884  13.447
40460W        W 5687  32.026  29.375  13.013
40461W        W 5688   0.415  38.818   0.003
40462W        W 5689   2.845  26.952  14.715
40463W        W 5690  41.023   2.125   1.484
40464W        W 5691   7.473  37.043   2.310
40465W        W 5692  35.627  31.980   4.620
40466W        W 5693  31.383  18.220   1.814
40467W        W 5694  31.885   7.124  14.288
40468W        W 5695  31.230  21.664   0.352
40469W        W 5696  37.787  31.948   2.035
40470W        W 5697  20.744  42.893  12.158
40471W        W 5698  17.103  36.485   1.282
40472W        W 5699  34.121   0.480   4.207
40473W        W 5700  16.601  10.752   2.714
40474W        W 5701  42.968  10.083  10.654
40475W        W 5702  17.461  33.671  11.056
40476W        W 5703   6.387   8.947  13.057
40477W        W 5704   6.619  28.634   1.932
40478W        W 5705  35.568   6.142   1.939
40479W        W 5706  11.926   6.999   0.468
40480W        W 5707  29.488  18.980  13.462
40481W        W 5708   8.916  35.424   1.859
40482W        W 5709   1.638  31.437  11.689
40483W        W 5710  27.697   1.339  11.388
40484W        W 5711   3.025  18.147   0.739
40485W        W 5712  44.556  26.024  13.421
40486W        W 5713  14.184  29.134   1.260
40487W        W 5714  10.462  41.605  12.040
40488W        W 5715  39.883  34.375  12.035
40489W        W 5716  41.936  37.897   3.636
40490W        W 5717  42.908  15.980  11.100
40491W        W 5718   6.355  22.576  14.300
40492W        W 5719  39.420   3.794   1.800
40493W        W 5720  30.999   9.365  13.028
40494W        W 5721  30.322  40.150  14.997
40495W        W 5722  16.545  35.339   1.764
40496W        W 5723   9.794  33.441  12.105
40497W        W 5724  24.539  44.942   0.915
40498W        W 5725   0.983   9.554  14.375
40499W        W 5726  41.566  19.074  13.210
40500W        W 5727  36.924   4.404  13.491
40501W        W 5728  41.254   0.342   2.716
40502W        W 5729  23.151   2.527  10.697
40503W        W 5730  18.586  38.539   5.014
40504W        W 5731   5.219   0.145  11.866
40505W        W 5732   3.372   4.613   2.324
40506W        W 5733   9.549   8.827   2.726
40507W        W 5734  28.628  44.940  12.289
40508W        W 5735  29.647  16.652  12.444
40509W        W 5736  16.821  25.408  12.400
40510W        W 5737  24.316   1.795  11.974
40511W        W 5738  22.599  21.516  12.641
40512W        W 5739   8.684  30.708  11.038
40513W        W 5740  24.208  31.795   0.378
40514W        W 5741   3.341  15.882   4.862
40515W        W 5742  29.056  43.449  10.722
40516W        W 5743  22.589  25.941  13.411
40517W        W 5744  10.649  11.661  14.193
40518W        W 5745  28.476   7.647  12.864
40519W        W 5746  18.530   4.624   0.483
40520W        W 5747  26.539  21.119  14.619
40521W        W 5748  44.353   9.686   1.909
40522W        W 5749  28.485  14.885  12.202
40523W        W 5750   1.832  15.428  11.560
40524W        W 5751  35.461  12.767  14.841
40525W        W 5752   4.180  40.820   2.802
40526W        W 5753   6.773   6.847  11.627
40527W        W 5754  35.342  12.086  14.417
40528W        W 5755  43.217  20.557  13.386
40529W        W 5756  28.072  20.783   0.759
40530W        W 5757   1.505   9.765   0.483
40531W        W 5758  11.694  30.758  14.076
40532W        W 5759  29.163  30.075   1.365
40533W        W 5760  35.099  17.254  13.399
40534W        W 5761   0.221  35.380  12.304
40535W        W 5762  32.700   8.333  12.091
40536W        W 5763  19.510  16.218   3.052
40537W        W 5764  41.277  28.815   4.166
40538W        W 5765  38.911  31.715  11.638
40539W        W 5766   6.912  13.751  11.192
40540W        W 5767  34.992   1.537   5.017
40541W        W 5768   9.361  41.079  13.491
40542W        W 5769   7.841  25.469   2.784
40543W        W 5770  27.420  41.609   0.470
40544W        W 5771  42.301  12.352  14.398
40545W        W 5772   0.009   6.756  10.698
40546W        W 5773   1.674  36.243   1.041
40547W        W 5774  19.707   1.489  11.542
40548W        W 5775  19.262  22.013   3.291
40549W        W 5776   9.159   7.783   4.952
40550W        W 5777  22.855  39.341  11.600
40551W        W 5778  34.942  30.032   4.178
40552W        W 5779  36.138  17.120  10.062
40553W        W 5780   9.043  11.817  11.066
40554W        W 5781  40.912  25.140   2.177
40555W        W 5782   8.651  34.541  14.621
40556W        W 5783  44.291  43.815   2.496
40557W        W 5784  24.348  21.636  14.610
40558W        W 5785   7.060  28.469   1.715
40559W        W 5786  30.363  28.972   3.252
40560W        W 5787   8.848  32.623  11.735
40561W        W 5788  23.294  24.115   4.286
40562W        W 5789   2.267  26.153  12.002
40563W        W 5790  32.407  24.232   2.845
40564W        W 5791  20.803  21.489   3.610
40565W        W 5792  28.154  22.770  12.807
40566W        W 5793  22.489  16.174   1.278
40567W        W 5794  17.802  18.497  14.200
40568W        W 5795  27.584  31.922  14.400
40569W        W 5796  43.450  33.331  14.538
40570W        W 5797  42.834   4.838   1.264
40571W        W 5798  16.619  36.508  11.346
40572W        W 5799  24.047  23.116   4.692
40573W        W 5800  23.906  19.449   3.039
40574W        W 5801  31.141  16.954  13.586
40575W        W 5802  21.338   6.717   2.171
40576W        W 5803  26.053  32.464  14.774
40577W        W 5804  33.051  26.212   1.068
40578W        W 5805  41.544   9.386   4.113
40579W        W 5806  17.667   8.698   3.634
40580W        W 5807   8.799  13.757  11.957
40581W        W 5808  35.537  39.533  12.126
40582W        W 5809  14.613  35.334   2.914
40583W        W 5810  23.186  31.944  14.446
40584W        W 5811  15.219  10.658  11.616
40585W        W 5812  40.533  17.098   4.173
40586W        W 5813   6.685  40.522   1.633
40587W        W 5814  13.688  19.258  12.597
40588W        W 5815  20.524  42.213  10.465
40589W        W 5816  19.869  14.240  10.429
40590W        W 5817  19.006  14.297   4.782
40591W        W 5818  35.611  34.545   3.916
40592W        W 5819  12.931   9.096  14.470
40593W        W 5820   7.248   0.903   0.237
40594W        W 5821  37.284   1.799   4.200
40595W        W 5822   2.667  18.020  13.075
40596W        W 5823   5.183  19.562  14.946
40597W        W 5824  38.449  24.702   0.279
40598W        W 5825  31.108  29.967   4.887
40599W        W 5826  17.222  21.168   5.414
40600W        W 5827  30.374  20.285  14.725
40601W        W 5828  35.019   7.135   0.396
40602W        W 5829   6.294  33.842   0.808
40603W        W 5830  24.034   8.622   3.692
40604W        W 5831  25.016  18.996  12.430
40605W        W 5832  33.311  29.937   0.921
40606W        W 5833  10.251  27.438  12.183
40607W        W 5834   2.250  12.742   0.422
40608W        W 5835   5.146  27.457  13.935
40609W        W 5836  21.822   0.534   0.868
40610W        W 5837   3.927  31.222  14.809
40611W        W 5838  18.227   2.711   4.650
40612W        W 5839  32.709  26.363   3.582
40613W        W 5840  22.631  33.223  14.299
40614W        W 5841   0.219  28.653  11.242
40615W        W 5842  34.610  31.904  14.973
40616W        W 5843   7.297  39.343   3.568
40617W        W 5844  40.511  39.345   4.624
40618W        W 5845  35.428  32.078  13.429
40619W        W 5846   8.133   9.164  14.839
40620W        W 5847  12.160   4.430  14.981
40621W        W 5848  39.622   5.469  10.796
40622W        W 5849   7.831  12.310  13.652
40623W        W 5850  39.547  18.054   0.516
40624W        W 5851  27.630   0.388  14.239
40625W        W 5852  14.622   2.028   0.743
40626W        W 5853   8.175  39.449  12.881
40627W        W 5854  20.799   9.342   1.370
40628W        W 5855  35.321  44.108  12.524
40629W        W 5856  35.218  26.616  12.978
40630W        W 5857  10.412  17.798   3.298
40631W        W 5858  35.466  38.907   3.208
40632W        W 5859  33.922   8.781  14.702
40633W        W 5860   4.099  26.916  11.200
40634W        W 5861   1.289  37.780  14.760
40635W        W 5862  18.057  19.991   3.223
40636W        W 5863  30.067  31.597  11.593
40637W        W 5864  27.006   7.284  10.971
40638W        W 5865  21.022  11.132   3.959
40639W        W 5866  13.054   3.659   0.323
40640W        W 5867  22.765  25.076  12.849
40641W        W 5868  40.284  44.838   2.602
40642W        W 5869  11.370  29.501  11.749
40643W        W 5870  34.705  41.387  11.494
40644W        W 5871  14.273  41.299   0.572
40645W        W 5872  40.976  37.579   2.326
40646W        W 5873  31.440  15.439  10.806
40647W        W 5874  32.663  22.292  13.011
40648W        W 5875  17.503   6.144  12.537
40649W        W 5876  44.243  30.149   3.132
40650W        W 5877   2.454  38.540   5.073
40651W        W 5878  20.202  35.774   2.731
40652W        W 5879  22.253  24.464   0.706
40653W        W 5880  19.998  24.999  13.299
40654W        W 5881  17.540  16.060  14.505
40655W        W 5882  26.045  33.536   4.828
40656W        W 5883  41.972  32.065   0.840
40657W        W 5884  22.877  18.351   4.025
40658W        W 5885  26.878   2.743   3.292
40659W        W 5886  42.479  44.023  11.904
40660W        W 5887  37.968  15.434   2.981
40661W        W 5888   3.261   3.147   2.486
40662W        W 5889  16.105  18.770   9.762
40663W        W 5890  39.335  17.383   1.823
40664W        W 5891   3.955  36.742   0.787
40665W        W 5892  30.687  36.329  14.512
40666W        W 5893  18.790  33.987  10.697
40667W        W 5894  39.865  37.636  12.490
40668W        W 5895   2.248  40.528   2.911
40669W        W 5896   0.190  38.170   4.697
40670W        W 5897  38.327  15.094   5.166
40671W        W 5898  35.835   5.688  11.037
40672W        W 5899  19.671  13.821   2.331
40673W        W 5900  26.823  40.953   4.075
40674W        W 5901  29.489   4.268   1.163
40675W        W 5902  18.673  10.182  11.162
40676W        W 5903  27.664  14.633  11.217
40677W        W 5904  29.584  41.118   3.999
40678W        W 5905  34.088   8.125  11.917
40679W        W 5906  39.112   5.904   0.444
40680W        W 5907  42.921  40.331  11.887
40681W        W 5908  15.123  41.604  13.413
40682W        W 5909  25.937  17.027  11.243
40683W        W 5910   4.105  17.652   2.135
40684W        W 5911  39.538   0.816   2.360
40685W        W 5912   3.257  18.164   4.332
40686W        W 5913   5.008  42.260   4.067
40687W        W 5914  32.493  30.740   2.334
40688W        W 5915   2.813  40.932   2.050
40689W        W 5916  39.344   6.291   2.711
40690W        W 5917  41.766  25.579  13.039
40691W        W 5918  40.834  19.482  10.190
40692W        W 5919  43.771  20.634   0.856
40693W        W 5920   0.989   5.892   3.223
40694W        W 5921  18.270  19.562  13.579
40695W        W 5922   8.058  15.301  14.455
40696W        W 5923   3.243  11.773   2.317
40697W        W 5924   4.850  34.038   2.793
40698W        W 5925  30.383  19.183   1.857
40699W        W 5926   3.376  26.524   5.040
40700W        W 5927  33.130  25.984  10.828
40701W        W 5928  11.926  17.736   3.858
40702W        W 5929  14.680  41.313  14.769
40703W        W 5930   4.686  43.379  14.258
40704W        W 5931  35.552   9.818  10.694
40705W        W 5932  25.632  28.024   3.206
40706W        W 5933   0.973  42.859  14.015
40707W        W 5934  31.290  20.369   1.816
40708W        W 5935  11.625  18.231   1.380
40709W        W 5936  37.851   7.051  10.210
40710W        W 5937  31.777  34.011  14.922
40711W        W 5938  26.305  18.853  12.458
40712W        W 5939   4.656  29.666   1.023
40713W        W 5940  39.007  13.583  11.662
40714W        W 5941  23.434   6.773   0.338
40715W        W 5942  13.132  34.075   3.236
40716W        W 5943  14.451  10.438  11.374
40717W        W 5944  40.520  38.746  12.321
40718W        W 5945  34.611  18.015   1.312
40719W        W 5946  19.597  27.047  10.706
40720W        W 5947  22.214  32.590   3.843
40721W        W 5948  28.880  17.346   2.696
40722W        W 5949  39.987  17.717   2.740
40723W        W 5950  32.107  33.077   2.803
40724W        W 5951  17.035   2.323   3.111
40725W        W 5952  39.430  24.915   1.182
40726W        W 5953  23.568  36.391  10.806
40727W        W 5954   4.686   5.820  13.431
40728W        W 5955  42.969  29.776   2.312
40729W        W 5956   9.226  17.712  12.875
40730W        W 5957  21.007  18.412  12.912
40731W        W 5958  27.303  10.112  13.916
40732W        W 5959   5.440  16.813   4.088
40733W        W 5960  44.394  40.442   3.170
40734W        W 5961  14.652   0.163   4.953
40735W        W 5962  42.779  16.495   3.964
40736W        W 5963   8.929  11.311   3.532
40737W        W 5964  22.709   4.492   2.440
40738W        W 5965  32.524  38.599   3.215
40739W        W 5966   8.360  37.084   4.908
40740W        W 5967  24.189  35.458  14.753
40741W        W 5968  25.012  36.052  11.748
40742W        W 5969  37.901  19.634  14.361
40743W        W 5970  28.105  36.022  11.509
40744W        W 5971  25.587   9.631   0.826
40745W        W 5972   4.729  35.431  11.556
40746W        W 5973  28.062  32.024  11.120
40747W        W 5974  34.971  42.451  14.269
40748W        W 5975  34.683  37.618  11.621
40749W        W 5976   1.424  11.372   2.269
40750W        W 5977  25.675  19.190  12.041
40751W        W 5978  42.447  20.531   0.370
40752W        W 5979  16.067  20.356  10.718
40753W        W 5980  33.989  15.626   0.307
40754W        W 5981  25.086  24.694   3.372
40755W        W 5982   5.351  32.956   1.404
40756W        W 5983   1.871  17.120   0.229
40757W        W 5984  44.057  15.346  14.391
40758W        W 5985  36.539  18.476  13.062
40759W        W 5986  21.760  27.457  10.702
40760W        W 5987  24.130  32.954  12.219
40761W        W 5988  25.878  15.436  13.910
40762W        W 5989  38.017  15.098  10.391
40763W        W 5990  33.643  19.408   0.222
40764W        W 5991  24.393  27.901   5.027
40765W        W 5992   5.135  42.087  14.856
40766W        W 5993  12.830  40.063  11.695
40767W        W 5994  24.394   0.917   0.874
40768W        W 5995  30.194   2.240  13.901
40769W        W 5996  41.049  14.630  14.841
40770W        W 5997  39.514  24.154  10.674
40771W        W 5998   6.688  36.955  12.029
40772W        W 5999  34.811  18.571   3.782
40773W        W 6000  18.711  40.681  13.866
40774W        W 6001   8.436  18.195  14.043
40775W        W 6002  40.365  42.701   2.144
40776W        W 6003  12.206  38.163   0.548
40777W        W 6004  37.009  26.480   3.846
40778W        W 6005  20.182  17.168  12.173
40779W        W 6006  33.122  39.006  13.039
40780W        W 6007   3.335  35.513  14.751
40781W        W 6008  31.131  13.162  13.323
40782W        W 6009  40.246  32.648   4.285
40783W        W 6010   8.763  19.657   2.634
40784W        W 6011  26.302  11.412   2.766
40785W        W 6012  35.806  35.876  12.483
40786W        W 6013  18.619   1.210   4.971
40787W        W 6014   3.300  20.841   4.421
40788W        W 6015  31.042   4.706  13.039
40789W        W 6016  35.062  42.968   3.288
40790W        W 6017  31.058  30.968  12.883
40791W        W 6018  41.428  44.303  13.068
40792W        W 6019  27.485  33.009   0.895
40793W        W 6020  10.398  41.062   1.940
40794W        W 6021   8.341  39.265  14.909
40795W        W 6022  31.046  37.522   0.714
40796W        W 6023   5.317  13.562   4.014
40797W        W 6024  27.349  38.599   2.781
40798W        W 6025  42.246  25.987   4.766
40799W        W 6026  43.498  33.372   2.736
40800W        W 6027  20.294  38.569   2.377
40801W        W 6028   2.126  36.145  14.797
40802W        W 6029   6.418  24.901  12.566
40803W        W 6030  13.471  42.850  14.790
40804W        W 6031  15.140  23.244  12.514
40805W        W 6032   3.896  29.700  12.101
40806W        W 6033  14.289  20.710   4.162
40807W        W 6034  12.404   9.846  14.395
40808W        W 6035  15.388  12.422  13.015
40809W        W 6036  35.948  40.762   3.177
40810W        W 6037  37.840  18.843  13.058
40811W        W 6038  22.485  17.312  11.869
40812W        W 6039  27.917  15.760   3.198
40813W        W 6040  44.515  34.066   1.840
40814W        W 6041  39.457  43.110  11.292
40815W        W 6042  29.554  14.779  13.384
40816W        W 6043  40.688  26.295  12.487
40817W        W 6044  12.267   2.971  11.867
40818W        W 6045  17.215  27.374  10.765
40819W        W 6046  35.659  17.805   4.035
40820W        W 6047   0.545  32.984   1.163
40821W        W 6048   5.430  17.450  11.057
40822W        W 6049   9.963  20.105  14.508
40823W        W 6050  41.088  26.023   2.246
40824W        W 6051  16.161  10.352  12.070
40825W        W 6052  41.302  38.388  14.767
40826W        W 6053  37.269  33.343   1.769
40827W        W 6054  31.220   2.215   3.638
40828W        W 6055  29.005  41.212  14.360
40829W        W 6056  41.691   9.616   5.073
40830W        W 6057   9.751  39.364  12.343
40831W        W 6058  34.105  14.873  10.653
40832W        W 6059  16.104  21.822  10.695
40833W        W 6060  36.170  10.925   3.288
40834W        W 6061  11.699  20.513  13.478
40835W        W 6062  12.048   7.318  11.140
40836W        W 6063  28.943  25.526  14.400
40837W        W 6064  16.691  34.050  10.728
40838W        W 6065  19.212   0.881   4.273
40839W        W 6066  28.531  25.202  11.151
40840W        W 6067  15.575  24.218   1.695
40841W        W 6068  20.947  19.835  12.763
40842W        W 6069  22.642  30.741   1.223
40843W        W 6070  12.847   0.399  13.968
40844W        W 6071   2.532  20.286  11.171
40845W        W 6072  28.555   4.756  14.981
40846W        W 6073   6.888  36.362  10.819
40847W        W 6074  16.053  18.175   0.444
40848W        W 6075  18.657  24.340  14.227
40849W        W 6076  22.568  27.698   2.366
40850W        W 6077  27.527   4.439  11.157
40851W        W 6078  44.989  27.550  12.049
40852W        W 6079  40.065  22.305  11.640
40853W        W 6080  11.843  30.925   4.143
40854W        W 6081  16.270  13.090  11.402
40855W        W 6082   9.632  25.280  14.313
40856W        W 6083  33.218  18.720   2.879
40857W        W 6084  12.970  30.241   1.034
40858W        W 6085  40.214  33.452   2.696
40859W        W 6086  11.493  12.683  10.160
40860W        W 6087  36.832  38.358   1.523
40861W        W 6088  35.857   2.853  12.018
40862W        W 6089   2.653  15.080  12.424
40863W        W 6090  32.161  12.899   2.367
40864W        W 6091  27.651  28.715   4.131
40865W        W 6092   3.142  16.163   2.216
40866W        W 6093  23.480  35.230   3.841
40867W        W 6094  35.741  27.629  11.870
40868W        W 6095  18.077  13.645  11.575
40869W        W 6096   2.554  22.011   4.539
40870W        W 6097  38.163   3.268   9.687
40871W        W 6098  42.079   9.296   3.210
40872W        W 6099  30.387   5.977  13.493
40873W        W 6100  31.047  36.329   2.943
40874W        W 6101  20.530  21.025  12.131
40875W        W 6102  39.584   0.086   3.239
40876W        W 6103  16.261  30.245  12.468
40877W        W 6104  11.789  36.093  11.326
40878W        W 6105   9.705  44.770  13.407
40879W        W 6106  13.430  33.477  13.851
40880W        W 6107  24.000  40.411  13.067
40881W        W 6108  22.546   5.700   4.171
40882W        W 6109  17.827  12.722  10.560
40883W        W 6110  36.569  38.941   2.739
40884W        W 6111   7.340   5.186  13.287
40885W        W 6112  44.341  17.060   0.564
40886W        W 6113   1.757   2.404  10.936
40887W        W 6114  16.954  29.939  14.521
40888W        W 6115  39.895  33.479   4.003
40889W        W 6116   8.384  19.532  13.310
40890W        W 6117  41.847  26.872   4.490
40891W        W 6118  10.361   5.820   3.191
40892W        W 6119  10.053  40.561  13.725
40893W        W 6120  19.547  27.475   4.251
40894W        W 6121  36.789  10.870  13.421
40895W        W 6122  12.631  31.419   4.112
40896W        W 6123  22.486  42.221   3.352
40897W        W 6124  41.959   5.675  12.490
40898W        W 6125  35.202   3.716  13.095
40899W        W 6126  27.758  33.957   2.269
40900W        W 6127   2.479  37.281  12.264
40901W        W 6128  43.225   1.098   2.462
40902W        W 6129  13.549  23.715   4.412
40903W        W 6130   7.333  28.050  10.995
40904W        W 6131   0.356  15.659   2.335
40905W        W 6132  13.159  32.916  14.410
40906W        W 6133  24.200  44.292  11.523
40907W        W 6134  31.250  37.009   2.606
40908W        W 6135  13.295  24.479   0.304
40909W        W 6136  37.565  43.254  12.078
40910W        W 6137  20.702  43.122  14.954
40911W        W 6138  38.057  43.607   1.980
40912W        W 6139  14.374  42.558   4.597
40913W        W 6140  11.621   3.445   2.138
40914W        W 6141  24.485  26.483   0.017
40915W        W 6142  25.695  27.635  13.009
40916W        W 6143  40.916  20.856  11.097
40917W        W 6144   3.167  12.797   3.562
40918W        W 6145  22.620  36.213   0.988
40919W        W 6146  37.298  12.755  12.579
40920W        W 6147  21.133   1.308  13.110
40921W        W 6148  35.094   9.137  13.219
40922W        W 6149  14.199  12.531   0.371
40923W        W 6150  31.473  20.247   0.040
40924W        W 6151  43.807   3.580   4.011
40925W        W 6152  11.031  13.864  10.808
40926W        W 6153   4.409  20.057  10.688
40927W        W 6154  20.762  42.819   4.130
40928W        W 6155  13.823  21.031  14.270
40929W        W 6156  30.137   9.230   1.991
40930W        W 6157  15.526  25.949  13.894
40931W        W 6158  31.854  21.840  10.944
40932W        W 6159  14.527   7.158  11.035
40933W        W 6160   8.554  12.224  12.107
40934W        W 6161   2.177  43.921   2.133
40935W        W 6162   0.603  20.922  14.903
40936W        W 6163  15.633  25.157   1.507
40937W        W 6164   8.868   4.882   4.346
40938W        W 6165  29.337  36.493  12.520
40939W        W 6166  23.060  40.601  14.463
40940W        W 6167  25.073  12.479  13.030
40941W        W 6168  42.294  33.144  13.433
40942W        W 6169  42.469  39.345  12.951
40943W        W 6170  24.240  28.382   4.183
40944W        W 6171  44.887  33.988   0.900
40945W        W 6172   0.668  31.735  11.819
40946W        W 6173  38.424   5.150   2.010
40947W        W 6174  32.075  43.375   0.343
40948W        W 6175  36.998  31.833   4.540
40949W        W 6176  16.772  10.853   4.596
40950W        W 6177  41.913  24.923  11.626
40951W        W 6178  44.578  24.490   2.316
40952W        W 6179  43.951  27.499   4.097
40953W        W 6180  33.156   9.215  11.678
40954W        W 6181  34.558  34.602  13.103
40955W        W 6182  27.570   1.370   1.914
40956W        W 6183  26.654  17.062  10.741
40957W        W 6184   1.279  24.546   2.777
40958W        W 6185  29.346  23.639  10.548
40959W        W 6186  15.824   0.008   4.168
40960W        W 6187  18.766   7.201  14.005
40961W        W 6188   2.734  20.871  13.419
40962W        W 6189  13.854  37.583  12.921
40963W        W 6190  40.981  44.738   0.652
40964W        W 6191  16.611  29.898  13.989
40965W        W 6192  35.072   5.127  12.062
40966W        W 6193  41.264  21.791   2.717
40967W        W 6194  17.055  40.987  13.944
40968W        W 6195  10.434  18.848  13.565
40969W        W 6196  14.326  14.197   2.858
40970W        W 6197  29.509  21.411   9.840
40971W        W 6198   3.007  26.128   0.003
40972W        W 6199  21.142  27.726  13.503
40973W        W 6200   6.350  34.148  13.343
40974W        W 6201  20.595  23.698   0.287
40975W        W 6202  37.845   4.850   3.253
40976W        W 6203  35.727  38.479   2.363
40977W        W 6204   8.919  44.819   1.750
40978W        W 6205   1.329  22.587   0.185
40979W        W 6206   6.185  13.189   3.426
40980W        W 6207   6.363   4.775  12.002
40981W        W 6208  22.208  28.215  10.704
40982W        W 6209  42.473  34.374  14.699
40983W        W 6210  26.969  17.609  13.674
40984W        W 6211  16.664  37.627   3.043
40985W        W 6212  22.496  30.065  10.898
40986W        W 6213  26.910  17.789   0.762
40987W        W 6214  40.198  25.269   0.846
40988W        W 6215  40.938  18.068   3.067
40989W        W 6216  30.801  14.706  11.426
40990W        W 6217  22.008  10.812  14.073
40991W        W 6218   5.451  22.186  10.282
40992W        W 6219   7.749  33.980   0.697
40993W        W 6220  12.672  26.379  14.861
40994W        W 6221  26.135  26.487  13.848
40995W        W 6222  40.520  33.841  14.818
40996W        W 6223  34.151  25.116  12.576
40997W        W 6224  24.939  29.154  13.790
40998W        W 6225  40.048  21.097   3.085
40999W        W 6226  20.155  41.759  13.904
41000W        W 6227  39.616  19.512   4.829
41001W        W 6228  35.793  23.497  12.967
41002W        W 6229  21.569  24.842   5.025
41003W        W 6230  28.503  22.409   0.304
41004W        W 6231  39.792   7.541   3.618
41005W        W 6232  23.773  40.906  12.864
41006W        W 6233   2.664   7.216   0.555
41007W        W 6234  36.986  35.100  12.482
41008W        W 6235   6.029  21.994  13.133
41009W        W 6236   2.683  11.306  10.373
41010W        W 6237  37.056  32.721  11.439
41011W        W 6238  33.654  25.676  14.507
41012W        W 6239  29.960   5.795  10.498
41013W        W 6240  11.678  35.564   2.755
41014W        W 6241   1.861  18.765   4.359
41015W        W 6242  43.411   2.987  13.533
41016W        W 6243  15.408   2.412  11.018
41017W        W 6244  20.283  25.681   1.408
41018W        W 6245  30.157  32.922  14.788
41019W        W 6246   2.873  24.880  11.901
41020W        W 6247  21.277  44.745  14.422
41021W        W 6248  16.656  14.124   0.841
41022W        W 6249  30.887  35.803  11.483
41023W        W 6250  36.588  37.917  14.029
41024W        W 6251   9.391  10.964   2.214
41025W        W 6252  17.745  20.420  14.895
41026W        W 6253   2.783   3.682   3.409
41027W        W 6254  27.942  42.835   3.058
41028W        W 6255  34.260  11.055  10.152
41029W        W 6256  16.062  41.826   0.736
41030W        W 6257   0.350  37.886  13.959
41031W        W 6258  15.128  10.397   1.578
41032W        W 6259   5.783   2.518  11.663
41033W        W 6260  34.456  13.241  13.673
41034W        W 6261  39.776   2.875   0.850
41035W        W 6262  22.547  14.433  12.114
41036W        W 6263  23.603  25.452   1.798
41037W        W 6264  24.615   2.555   3.131
41038W        W 6265  28.384  11.131   4.533
41039W        W 6266  19.524  15.698  12.906
41040W        W 6267  31.072   4.132   1.832
41041W        W 6268  25.537  35.396   2.247
41042W        W 6269  17.633  19.913   2.183
41043W        W 6270  17.732  29.620  14.165
41044W        W 6271  42.489  13.732   1.422
41045W        W 6272  43.987  37.273  10.793
41046W        W 6273  44.163  26.508  10.831
41047W        W 6274   2.339  37.901  11.640
41048W        W 6275  32.330  39.638  10.557
41049W        W 6276   6.495  24.982  10.638
41050W        W 6277  25.149  37.686   1.368
41051W        W 6278   2.288  23.617  11.516
41052W        W 6279  44.774  25.075  11.313
41053W        W 6280  36.769  20.303   3.721
41054W        W 6281   2.264  19.700  14.282
41055W        W 6282  41.168  24.072   4.903
41056W        W 6283  41.564  24.875   4.472
41057W        W 6284  25.422  10.371   2.202
41058W        W 6285   9.078  38.377  12.013
41059W        W 6286  20.683  18.001   1.391
41060W        W 6287   1.664  22.579   1.642
41061W        W 6288  37.676   3.409   3.515
41062W        W 6289   7.264   9.237   4.134
41063W        W 6290  33.516  16.068  11.668
41064W        W 6291   8.589  35.102  13.534
41065W        W 6292  14.194  16.580  14.529
41066W        W 6293  17.925   9.974   1.734
41067W        W 6294  37.825  16.511  10.633
41068W        W 6295  30.653  13.315   2.804
41069W        W 6296  27.269   7.670  13.210
41070W        W 6297  12.217  34.384  11.163
41071W        W 6298  35.384   7.752  12.653
41072W        W 6299  27.862  21.152  14.020
41073W        W 6300  37.276  40.532   4.544
41074W        W 6301  14.074   8.453  11.196
41075W        W 6302   9.630  22.617   4.205
41076W        W 6303  27.641   8.198   4.478
41077W        W 6304  19.202  34.829   1.935
41078W        W 6305  28.590  40.988  10.657
41079W        W 6306  22.484  38.546  11.994
41080W        W 6307  12.258  32.380   1.994
41081W        W 6308   8.736  22.720  14.401
41082W        W 6309  37.566  24.596  10.783
41083W        W 6310   7.260  12.117   3.996
41084W        W 6311   7.667   5.289  11.225
41085W        W 6312   5.813  38.456   4.166
41086W        W 6313   7.552  24.148   3.556
41087W        W 6314  22.881  30.506  12.269
41088W        W 6315  42.615   3.297   3.160
41089W        W 6316   8.302   8.377   1.321
41090W        W 6317  40.927  18.147   1.038
41091W        W 6318  18.173  30.443   2.324
41092W        W 6319  15.375  30.368  11.825
41093W        W 6320   0.255   1.930   3.707
41094W        W 6321  27.536  35.774   2.464
41095W        W 6322  15.647   1.878  11.914
41096W        W 6323   1.813  31.929   2.689
41097W        W 6324  13.817  19.828  10.766
41098W        W 6325   0.377   2.916  10.618
41099W        W 6326  24.707   2.520   3.879
41100W        W 6327  33.591  41.972   2.110
41101W        W 6328  17.800  38.594   3.685
41102W        W 6329  28.324   5.699   1.215
41103W        W 6330  27.238  43.047  14.311
41104W        W 6331  19.209  27.519  12.029
41105W        W 6332  34.713  15.316   4.614
41106W        W 6333   2.352  40.990  11.179
41107W        W 6334  44.712  25.332   1.915
41108W        W 6335  14.704  39.973   0.504
41109W        W 6336  19.258  11.089  14.040
41110W        W 6337   8.324   1.424  11.116
41111W        W 6338  31.548  44.352   2.938
41112W        W 6339  35.906  26.137   1.940
41113W        W 6340  27.985   1.056   3.152
41114W        W 6341  34.126  37.939   4.003
41115W        W 6342  22.232  24.975   1.723
41116W        W 6343  39.827  16.745  14.064
41117W        W 6344  15.735  17.693   2.744
41118W        W 6345  32.596  29.677  11.239
41119W        W 6346  10.298   9.834   2.127
41120W        W 6347  43.594  25.284  13.008
41121W        W 6348  10.290  20.928  12.464
41122W        W 6349  20.295  35.329   4.217
41123W        W 6350  21.977  24.932  11.135
41124W        W 6351   7.644   4.753  14.913
41125W        W 6352  44.415  39.660  13.258
41126W        W 6353  38.832  30.969  14.493
41127W        W 6354  11.686  26.513   9.929
41128W        W 6355   9.032  38.825   2.418
41129W        W 6356  24.781  11.705  10.752
41130W        W 6357  10.822   2.144   3.163
41131W        W 6358   5.922   2.214   2.768
41132W        W 6359   3.702  35.542   1.367
41133W        W 6360  37.672  12.342   3.365
41134W        W 6361   7.596  29.550   1.664
41135W        W 6362  32.476  43.723   1.565
41136W        W 6363   8.939   1.146   0.952
41137W        W 6364  35.413  31.752   1.893
41138W        W 6365  40.378  21.548  14.364
41139W        W 6366   6.797  37.008  14.159
41140W        W 6367  43.723   8.115   1.323
41141W        W 6368  39.048   2.251  13.339
41142W        W 6369  22.553  35.586   0.085
41143W        W 6370  34.402   1.683  13.818
41144W        W 6371  34.522  20.775  13.751
41145W        W 6372  22.481  31.403  14.775
41146W        W 6373   5.503  33.882   1.428
41147W        W 6374  14.566  43.411   2.619
41148W        W 6375  15.517  26.953   1.738
41149W        W 6376  24.348  22.121  11.127
41150W        W 6377  38.072  31.907   0.695
41151W        W 6378  31.010   1.876   2.211
41152W        W 6379  27.638  22.613   3.545
41153W        W 6380  24.571  32.777   3.560
41154W        W 6381  18.064  26.050  14.391
41155W        W 6382  27.420  20.044   0.013
41156W        W 6383   8.873  39.811   1.985
41157W        W 6384   9.382  12.812   0.816
41158W        W 6385  32.418  20.070  14.725
41159W        W 6386   0.232   9.278   4.131
41160W        W 6387  34.466  22.415  14.599
41161W        W 6388  12.554  42.816   1.411
41162W        W 6389  24.110  26.260  13.112
41163W        W 6390  18.056  43.212  12.156
41164W        W 6391   4.451  16.140  11.541
41165W        W 6392  23.466  31.288  14.850
41166W        W 6393  15.711   3.590   3.191
41167W        W 6394   8.439  13.642  14.388
41168W        W 6395  16.064  44.909   0.188
41169W        W 6396   8.103  23.788   4.210
41170W        W 6397   3.498  37.484  14.468
41171W        W 6398  24.471  10.334   3.655
41172W        W 6399  15.111  25.193   1.685
41173W        W 6400  42.857  37.399   2.586
41174W        W 6401   5.921  14.355  12.090
41175W        W 6402  32.859   9.906   1.775
41176W        W 6403  36.030  34.565  14.982
41177W        W 6404  10.361  22.035   4.578
41178W        W 6405  15.994  14.448  11.041
41179W        W 6406  32.380  42.238   3.343
41180W        W 6407  19.563  15.570  11.995
41181W        W 6408  35.812  29.798  13.915
41182W        W 6409  40.575  11.834   4.637
41183W        W 6410  13.751  31.886   1.196
41184W        W 6411   4.272  30.432  11.681
41185W        W 6412   1.414  29.866   3.272
41186W        W 6413   6.026  32.657  14.921
41187W        W 6414  23.753  18.226   1.344
41188W        W 6415  18.792   2.109  10.516
41189W        W 6416   3.741  40.291   3.547
41190W        W 6417   2.327  27.613  13.887
41191W        W 6418  27.470  42.034  12.598
41192W        W 6419  16.953   3.604   1.367
41193W        W 6420  23.928   7.427  13.899
41194W        W 6421  11.639   0.878  10.685
41195W        W 6422  19.625  22.713   0.841
41196W        W 6423  15.301  16.587   1.790
41197W        W 6424  18.691  26.712  11.578
41198W        W 6425  43.975  19.342   2.867
41199W        W 6426  26.996  38.759  11.552
41200W        W 6427   8.603  10.564  10.715
41201W        W 6428  21.040  34.398  13.829
41202W        W 6429   7.471  37.010   1.380
41203W        W 6430   7.343   6.876   1.240
41204W        W 6431  43.963  27.115  13.150
41205W        W 6432  26.646  36.817   2.379
41206W        W 6433  32.017  42.543  12.119
41207W        W 6434   9.542  20.538   2.462
41208W        W 6435  34.168  37.865  10.773
41209W        W 6436   0.407  15.079   1.238
41210W        W 6437   0.180  43.610   1.243
41211W        W 6438  29.414  41.938  14.295
41212W        W 6439   2.403  17.758   2.286
41213W        W 6440  25.088  14.337  11.131
41214W        W 6441  18.455  16.369  14.380
41215W        W 6442  35.563  17.560  13.438
41216W        W 6443  33.565  34.042  11.673
41217W        W 6444   0.171   6.912   1.754
41218W        W 6445   9.772  14.613   4.100
41219W        W 6446  10.373  40.899   0.963
41220W        W 6447  15.937   4.515  11.127
41221W        W 6448  34.770  39.601   3.094
41222W        W 6449   1.690   7.795   2.260
41223W        W 6450  24.130  37.924  14.885
41224W        W 6451  43.506   7.962   3.815
41225W        W 6452  23.544  20.785  13.863
41226W        W 6453   5.913  15.733  14.556
41227W        W 6454  16.615  11.090   1.941
41228W        W 6455  22.592  38.966  14.724
41229W        W 6456   4.041  29.675  13.417
41230W        W 6457  31.098   2.119   1.745
41231W        W 6458  16.383  29.400   4.506
41232W        W 6459  20.208  18.610   3.641
41233W        W 6460  28.203   0.782  14.964
41234W        W 6461  17.424   9.581  11.272
41235W        W 6462   0.546  19.849  14.753
41236W        W 6463  25.534  37.724  12.911
41237W        W 6464   2.860  12.295   1.634
41238W        W 6465   7.149  12.198  12.072
41239W        W 6466  17.161  11.403   2.599
41240W        W 6467  22.089   5.388   4.017
41241W        W 6468   3.036  25.092  11.447
41242W        W 6469  29.321  24.054  13.836
41243W        W 6470  26.868  39.788   4.082
41244W        W 6471  36.011  32.874   2.099
41245W        W 6472   7.993  20.214  11.716
41246W        W 6473  18.454  34.993  13.356
41247W        W 6474   7.893  13.235   4.529
41248W        W 6475  31.676  35.560  14.376
41249W        W 6476  33.852  14.221   0.894
41250W        W 6477  41.939  30.385  13.847
41251W        W 6478  40.908  22.412  12.041
41252W        W 6479  26.102  18.704  11.036
41253W        W 6480  14.146  20.588   4.688
41254W        W 6481  26.990   3.879   5.009
41255W        W 6482  16.969  30.471   3.872
41256W        W 6483  26.337  18.490   0.863
41257W        W 6484  41.900  11.676   2.844
41258W        W 6485  25.941  21.911  12.915
41259W        W 6486  12.189  18.565  10.670
41260W        W 6487  10.122  41.751   2.284
41261W        W 6488  24.413  14.595  14.365
41262W        W 6489  11.364  13.351  14.412
41263W        W 6490  23.096  40.110   4.290
41264W        W 6491   7.271  32.877   2.305
41265W        W 6492  23.537  29.018   4.590
41266W        W 6493   4.511  28.484   0.447
41267W        W 6494  10.919  26.311  14.337
41268W        W 6495  29.065  39.510   1.243
41269W        W 6496  32.979   7.377   3.929
41270W        W 6497  44.261  31.875  13.305
41271W        W 6498  44.927  10.614   1.326
41272W        W 6499  35.964  22.469  12.798
41273W        W 6500  11.023  16.371  10.110
41274W        W 6501  26.996  26.048  11.974
41275W        W 6502  16.875  27.662  12.061
41276W        W 6503  24.657  38.604   3.661
41277W        W 6504   2.656  12.845  11.196
41278W        W 6505  34.141   3.819  12.874
41279W        W 6506   5.848  18.382  11.530
41280W        W 6507  20.008  31.911  14.407
41281W        W 6508  12.788  13.030  13.825
41282W        W 6509  17.640  10.570  10.952
41283W        W 6510  18.735   9.268   1.314
41284W        W 6511  33.638  29.337   3.207
41285W        W 6512  15.062  26.516  11.062
41286W        W 6513   6.854  36.583   0.851
41287W        W 6514  11.658  10.845   3.187
41288W        W 6515  21.488  11.188  12.614
41289W        W 6516  32.548  39.668  11.029
41290W        W 6517  33.537  23.133  10.472
41291W        W 6518  40.455   6.128  11.892
41292W        W 6519  35.369   8.608   2.750
41293W        W 6520  26.108  39.375  13.638
41294W        W 6521  30.548   1.653   3.141
41295W        W 6522  39.999  38.420   4.393
41296W        W 6523  23.125  31.108  13.620
41297W        W 6524  39.981  34.003   0.015
41298W        W 6525  29.180  11.140  13.124
41299W        W 6526  19.022   6.109  12.527
41300W        W 6527  43.450   4.192  12.396
41301W        W 6528  40.595  37.384   3.744
41302W        W 6529  43.229  24.719   1.383
41303W        W 6530  26.723  21.726   0.240
41304W        W 6531  40.434  36.619   1.271
41305W        W 6532  14.496   9.910  11.561
41306W        W 6533  21.025  43.822   0.709
41307W        W 6534   2.804  41.656  12.096
41308W        W 6535  10.152  18.237   4.210
41309W        W 6536  28.223  41.785  12.535
41310W        W 6537  21.167  36.364   1.441
41311W        W 6538  21.456  29.695   3.264
41312W        W 6539  21.511   4.994  12.154
41313W        W 6540  38.923  26.176   3.531
41314W        W 6541  13.667  30.237  13.863
41315W        W 6542   6.821  26.330  13.064
41316W        W 6543  37.868   7.742   3.202
41317W        W 6544   4.326  40.301  13.511
41318W        W 6545  42.356  29.637   1.387
41319W        W 6546  40.952  32.963   3.930
41320W        W 6547  20.946  30.976   2.198
41321W        W 6548   4.185  35.543  11.580
41322W        W 6549  19.670  31.799  12.065
41323W        W 6550  10.344  40.414   2.140
41324W        W 6551  18.095  34.015   1.356
41325W        W 6552  16.769  23.651   1.353
41326W        W 6553  44.079  22.132  13.496
41327W        W 6554  44.515  44.237  14.865
41328W        W 6555  39.323   1.620  12.553
41329W        W 6556  32.651  40.457   9.970
41330W        W 6557  22.287   7.670  12.256
41331W        W 6558   9.440  37.309  14.685
41332W        W 6559  34.212  25.376   2.632
41333W        W 6560  24.433  12.269  12.418
41334W        W 6561  14.853   6.903   3.577
41335W        W 6562   9.770   6.753  12.468
41336W        W 6563  27.674  43.876  11.528
41337W        W 6564  35.640  44.923  14.363
41338W        W 6565  30.429  32.100   2.741
41339W        W 6566  44.362  36.889  10.704
41340W        W 6567  37.764  19.524   1.407
41341W        W 6568  28.758   8.683   4.121
41342W        W 6569  38.243  12.679   0.238
41343W        W 6570   6.741   7.729   3.475
41344W        W 6571  13.603  18.574  14.443
41345W        W 6572  31.114   5.559   4.136
41346W        W 6573  38.073   2.458  14.045
41347W        W 6574  20.485  21.074   0.765
41348W        W 6575  23.241   0.182  12.441
41349W        W 6576  15.311  15.168   1.219
41350W        W 6577  36.052  35.095  14.766
41351W        W 6578  23.165  22.766   1.311
41352W        W 6579  26.575  18.281  14.935
41353W        W 6580  20.553  35.847  10.504
41354W        W 6581  34.609  30.733   0.445
41355W        W 6582  25.900  11.818   0.732
41356W        W 6583   6.275   0.013   0.885
41357W        W 6584   4.932  32.304   3.653
41358W        W 6585  14.080  18.682  10.647
41359W        W 6586  35.027  33.584  12.312
41360W        W 6587  15.380  30.451   0.224
41361W        W 6588   5.796  18.036  14.837
41362W        W 6589  27.407  43.403  11.644
41363W        W 6590   4.319  40.552  13.991
41364W        W 6591   2.375  24.532   1.409
41365W        W 6592  22.097   2.874   1.043
41366W        W 6593  21.922  29.455   3.207
41367W        W 6594  39.764  43.494   4.513
41368W        W 6595  29.216  14.258   1.348
41369W        W 6596  23.222   3.423  13.804
41370W        W 6597  14.576  18.805   2.233
41371W        W 6598  34.061  41.040   3.757
41372W        W 6599  41.417  28.496  12.874
41373W        W 6600  39.540   6.295   3.172
41374W        W 6601  24.028  35.102   4.591
41375W        W 6602  38.529  30.950  10.763
41376W        W 6603  15.380  25.638   1.669
41377W        W 6604  24.217  29.202   1.644
41378W        W 6605   0.550  12.839   3.657
41379W        W 6606  25.583  42.781  12.094
41380W        W 6607  36.011  32.492   2.677
41381W        W 6608  10.208   4.937   1.778
41382W        W 6609  34.861  18.696   0.521
41383W        W 6610  20.856  20.038  10.310
41384W        W 6611   8.187   3.367   1.913
41385W        W 6612   9.920  32.220   2.711
41386W        W 6613  44.381  16.121  10.704
41387W        W 6614  17.702  44.876  11.673
41388W        W 6615  17.629   8.198  14.877
41389W        W 6616   4.835  19.454  11.434
41390W        W 6617  11.904  26.701  11.225
41391W        W 6618  35.597   2.912   1.137
41392W        W 6619   7.214  17.023  11.561
41393W        W 6620  18.484   4.075   0.404
41394W        W 6621  14.844  13.265  13.775
41395W        W 6622  10.175  33.598  10.721
41396W        W 6623  34.467   2.219  10.707
41397W        W 6624   0.303  42.607   1.076
41398W        W 6625  18.553  20.180  14.460
41399W        W 6626   2.441  14.507   1.415
41400W        W 6627  28.881   0.021  11.146
41401W        W 6628  39.455  36.842   1.106
41402W        W 6629  32.198  17.699  13.786
41403W        W 6630   5.917  24.283   3.125
41404W        W 6631   0.972   4.135   0.960
41405W        W 6632  38.917  32.437   0.831
41406W        W 6633  24.072   2.146   4.081
41407W        W 6634   0.487   2.449   1.777
41408W        W 6635  17.646   8.126  12.134
41409W        W 6636  32.129  35.782   1.641
41410W        W 6637  33.064  20.175   0.981
41411W        W 6638   3.084  13.758  12.831
41412W        W 6639  44.611  37.452  12.040
41413W        W 6640  33.688  12.237  12.556
41414W        W 6641  36.068  15.149   3.168
41415W        W 6642   4.152  23.241   0.383
41416W        W 6643  12.721  35.723   2.232
41417W        W 6644  21.090  33.491   4.783
41418W        W 6645  13.788  15.027  11.930
41419W        W 6646  43.332  40.772   1.215
41420W        W 6647  19.144  25.937   3.648
41421W        W 6648   1.326  33.262  14.142
41422W        W 6649  24.061   7.266  12.370
41423W        W 6650  22.146   4.058   3.719
41424W        W 6651  23.305  14.247   0.498
41425W        W 6652  44.834  25.900  14.900
41426W        W 6653   0.351  42.499  11.508
41427W        W 6654  27.604   5.239  14.076
41428W        W 6655   5.453  19.877   0.323
41429W        W 6656   9.477  39.767   4.132
41430W        W 6657   6.738  12.828  11.067
41431W        W 6658  25.568  43.264  11.968
41432W        W 6659  34.719  40.347   3.597
41433W        W 6660  35.279  39.326  11.720
41434W        W 6661  25.066  33.490  10.669
41435W        W 6662  14.852   8.266  11.504
41436W        W 6663   0.076  19.101  14.522
41437W        W 6664  26.021  38.366  10.442
41438W        W 6665  25.382  15.706   1.896
41439W        W 6666  43.388  12.871  14.628
41440W        W 6667  20.678   2.894  11.205
41441W        W 6668  11.027   6.152   1.783
41442W        W 6669  20.707  11.187   4.755
41443W        W 6670  29.586  20.756  11.515
41444W        W 6671   7.818  24.919   0.678
41445W        W 6672  31.204   9.002  11.708
41446W        W 6673  12.334  41.287  13.939
41447W        W 6674   9.719  37.745   0.344
41448W        W 6675  20.817  22.035  14.602
41449W        W 6676  37.600  11.845  10.949
41450W        W 6677  23.466  42.705   2.067
41451W        W 6678  31.133  35.776   4.172
41452W        W 6679  38.551   5.766  14.235
41453W        W 6680   5.457  21.550  13.880
41454W        W 6681  33.079  17.152  12.900
41455W        W 6682   5.707  21.174  13.008
41456W        W 6683  12.669  36.346   1.350
41457W        W 6684  23.497  12.402   4.526
41458W        W 6685  11.844   0.405  13.930
41459W        W 6686  40.369   0.308   2.889
41460W        W 6687  34.887  17.199   0.801
41461W        W 6688  18.941   9.732  10.981
41462W        W 6689  27.638  21.622   4.638
41463W        W 6690  38.088  23.717  10.570
41464W        W 6691  11.660  13.377   1.822
41465W        W 6692  34.977  29.418  14.611
41466W        W 6693  34.318   3.625  12.243
41467W        W 6694  42.314  33.641  12.553
41468W        W 6695  38.546   6.900   2.134
41469W        W 6696  23.260  24.448  14.277
41470W        W 6697   7.884  29.247  14.070
41471W        W 6698  35.620  41.048  11.956
41472W        W 6699   0.733   5.337  10.945
41473W        W 6700   5.727   2.893  12.026
41474W        W 6701  27.097  19.729  14.734
41475W        W 6702  13.237  39.401   0.775
41476W        W 6703  37.963  27.479  13.027
41477W        W 6704  10.661  15.221  14.219
41478W        W 6705   3.951  18.007   0.821
41479W        W 6706  26.486  25.041  14.482
41480W        W 6707  34.867   3.241  14.349
41481W        W 6708  44.174  24.028   3.167
41482W        W 6709  40.882  34.519   3.639
41483W        W 6710  26.961  15.286   3.488
41484W        W 6711   3.679  30.605  13.033
41485W        W 6712   4.678   2.904  13.441
41486W        W 6713  41.731  24.316   0.322
41487W        W 6714   2.456  42.372   4.477
41488W        W 6715  24.976  29.720  12.951
41489W        W 6716   1.780  20.000  12.591
41490W        W 6717   2.500  13.173   0.281
41491W        W 6718  33.352  10.784  11.873
41492W        W 6719  34.869  44.977   2.595
41493W        W 6720  35.335  42.897  10.814
41494W        W 6721  37.277  20.786   4.044
41495W        W 6722   1.950  43.279  14.678
41496W        W 6723  24.563  27.221  14.256
41497W        W 6724  43.260  43.838  11.606
41498W        W 6725  28.715  11.201  14.498
41499W        W 6726  11.694  14.614   4.495
41500W        W 6727   1.982  22.172  11.482
41501W        W 6728  13.848  35.467   3.229
41502W        W 6729  26.540  15.384  12.434
41503W        W 6730  12.291  34.098   1.286
41504W        W 6731  38.825  16.848  12.988
41505W        W 6732  35.674  38.606   0.261
41506W        W 6733  32.972  44.022  14.400
41507W        W 6734  33.509  22.255  13.437
41508W        W 6735  36.973  43.550   2.803
41509W        W 6736  11.356   1.806  11.350
41510W        W 6737  32.148  14.788  11.764
41511W        W 6738  31.166  33.114   4.907
41512W        W 6739  39.984  40.433  12.537
41513W        W 6740  12.823   7.182  12.421
41514W        W 6741  10.657  38.086  11.162
41515W        W 6742   4.748  28.102   4.047
41516W        W 6743  41.395  44.322   4.901
41517W        W 6744   9.166  15.531  12.226
41518W        W 6745  44.525  10.301  14.487
41519W        W 6746  13.300  24.249  13.988
41520W        W 6747  16.226   8.665   3.291
41521W        W 6748   7.855  44.301  12.160
41522W        W 6749   4.704  16.763   2.703
41523W        W 6750  10.835  19.077  11.829
41524W        W 6751  38.726  39.035   3.916
41525W        W 6752  17.130  17.127  10.764
41526W        W 6753  30.910  13.592  12.051
41527W        W 6754  18.211  16.250  13.665
41528W        W 6755  26.876  14.587   2.758
41529W        W 6756   0.896   2.911  11.151
41530W        W 6757   2.223  44.560  11.710
41531W        W 6758   9.806  19.746  11.774
41532W        W 6759   6.334  23.689  11.899
41533W        W 6760  29.827  24.673  13.503
41534W        W 6761  40.379  38.823   2.775
41535W        W 6762  40.347  33.881  14.316
41536W        W 6763  25.071   3.857   1.315
41537W        W 6764  37.580  14.021  12.930
41538W        W 6765  44.810  44.046  11.114
41539W        W 6766   7.092  15.025  13.124
41540W        W 6767  10.135  25.172   3.686
41541W        W 6768  10.844  44.052  13.376
41542W        W 6769  33.540  19.827  14.354
41543W        W 6770  34.042  42.882  10.659
41544W        W 6771  40.522  11.636  14.957
41545W        W 6772  36.936   2.526  13.010
41546W        W 6773  38.965  38.298   0.246
41547W        W 6774   2.827  34.376  13.400
41548W        W 6775  11.900  10.062  14.367
41549W        W 6776  21.494  34.703   2.294
41550W        W 6777  11.580  24.522   1.739
41551W        W 6778  33.346  30.529   2.699
41552W        W 6779  23.444  39.261  10.727
41553W        W 6780  34.669  43.622   0.591
41554W        W 6781  28.838  13.837  12.021
41555W        W 6782  22.547  37.554  13.173
41556W        W 6783  24.667  40.780  12.524
41557W        W 6784   8.736  31.033   2.149
41558W        W 6785  32.493   3.307  12.111
41559W        W 6786  10.329  39.311   3.603
41560W        W 6787  12.717  13.287   4.526
41561W        W 6788  17.211  40.869   4.297
41562W        W 6789  29.094  28.626   2.508
41563W        W 6790  21.400  39.484  11.353
41564W        W 6791  34.681  38.348   4.841
41565W        W 6792  19.612  44.704   0.921
41566W        W 6793  36.137  17.164  14.840
41567W        W 6794  31.556  31.543  10.533
41568W        W 6795  33.796  11.323  10.110
41569W        W 6796   7.847  20.113   4.713
41570W        W 6797  27.032  25.801   4.082
41571W        W 6798   9.350  32.177  14.841
41572W        W 6799   5.530  36.347  14.622
41573W        W 6800  23.906  25.942   1.187
41574W        W 6801  13.852  13.497   0.323
41575W        W 6802  42.122   4.414  14.287
41576W        W 6803   9.690   4.933   3.525
41577W        W 6804  32.536   8.291  13.001
41578W        W 6805  22.784  27.514   3.264
41579W        W 6806  34.650   0.364   2.190
41580W        W 6807  31.469  30.186   4.100
41581W        W 6808  31.734   4.906  10.714
41582W        W 6809  26.602   3.652   2.100
41583W        W 6810  29.405  41.305  13.132
41584W        W 6811   4.001  41.652   2.446
41585W        W 6812  12.317  39.977   2.868
41586W        W 6813  44.015   5.205  13.137
41587W        W 6814  13.568   8.810   0.692
41588W        W 6815  15.272  29.429   0.833
41589W        W 6816  44.583  41.479   1.733
41590W        W 6817  41.477  17.524  12.583
41591W        W 6818  18.280   4.615   3.654
41592W        W 6819  44.938  34.368  12.104
41593W        W 6820  20.335  38.335  10.455
41594W        W 6821  17.610  14.267   0.690
41595W        W 6822   6.599  32.576   2.816
41596W        W 6823  26.565  44.096   0.484
41597W        W 6824   9.750  10.373  10.781
41598W        W 6825   4.564  11.905  12.901
41599W        W 6826  44.538   0.826   1.259
41600W        W 6827  28.592  34.505  11.465
41601W        W 6828  22.019  40.705   2.807
41602W        W 6829  21.051  23.878  14.246
41603W        W 6830   3.384  23.123   2.691
41604W        W 6831  22.621  30.039  10.399
41605W        W 6832  32.620   4.229  13.600
41606W        W 6833  32.897   0.290  12.656
41607W        W 6834  11.861  12.305  12.856
41608W        W 6835  10.485  10.625   3.488
41609W        W 6836  18.472  13.864  12.940
41610W        W 6837  21.059   1.620  12.086
41611W        W 6838  32.135  14.367  13.287
41612W        W 6839  30.641  40.473   2.332
41613W        W 6840  32.178  20.595   4.936
41614W        W 6841  39.793  18.786   2.801
41615W        W 6842  23.311  11.634   0.419
41616W        W 6843  42.350  12.578   2.333
41617W        W 6844  39.006  33.490   5.096
41618W        W 6845   6.079  41.251   1.720
41619W        W 6846  17.479  24.285   3.771
41620W        W 6847  43.077   9.873   0.224
41621W        W 6848   9.953   1.269   3.763
41622W        W 6849  14.350   8.328  11.624
41623W        W 6850   5.763  26.947   2.294
41624W        W 6851  18.408  15.267  11.068
41625W        W 6852   0.148   4.743   3.258
41626W        W 6853   2.368  33.843  12.516
41627W        W 6854   1.164  36.402   0.986
41628W        W 6855  18.051  26.985  10.759
41629W        W 6856   6.285  28.912   2.689
41630W        W 6857  38.593  33.797  14.490
41631W        W 6858  19.179   7.294  13.688
41632W        W 6859   6.697  12.031  14.382
41633W        W 6860  14.328  42.809   3.772
41634W        W 6861  30.800  34.537  11.039
41635W        W 6862  10.167  23.145  13.112
41636W        W 6863  25.255  36.130  14.591
41637W        W 6864  25.705   9.515   3.888
41638W        W 6865  12.387   7.703  11.878
41639W        W 6866  29.077  20.574   3.785
41640W        W 6867  34.055  19.791   3.651
41641W        W 6868  22.598  21.482  12.141
41642W        W 6869  25.604  22.945   4.675
41643W        W 6870  30.839  44.314   0.773
41644W        W 6871  37.141  13.654  13.696
41645W        W 6872  26.582  25.204   2.286
41646W        W 6873  37.932  43.735   4.535
41647W        W 6874   8.688  40.023  11.842
41648W        W 6875  39.504  41.072   1.112
41649W        W 6876  29.375   0.669   4.957
41650W        W 6877  10.833   8.763   1.587
41651W        W 6878  28.897  40.348  14.167
41652W        W 6879  27.691  40.832  14.836
41653W        W 6880  19.797   2.293   3.656
41654W        W 6881   2.436  38.290   4.614
41655W        W 6882   7.855  14.814  13.689
41656W        W 6883   8.363  23.251   1.802
41657W        W 6884  38.809  29.044  12.937
41658W        W 6885  40.494  14.922   2.221
41659W        W 6886  41.011  17.489  13.526
41660W        W 6887  43.465   1.691   0.160
41661W        W 6888  39.412  22.160   1.766
41662W        W 6889   9.635  35.041   0.297
41663W        W 6890  19.126  41.444   0.194
41664W        W 6891  12.578  29.125  12.536
41665W        W 6892  20.570  10.219  13.868
41666W        W 6893   6.760  30.381  11.136
41667W        W 6894  11.271  12.136  11.827
41668W        W 6895  28.656   4.525  10.760
41669W        W 6896  28.906   5.310   4.516
41670W        W 6897  20.060  22.985  14.482
41671W        W 6898  32.408  42.989  11.271
41672W        W 6899  25.235  44.346  14.488
41673W        W 6900  25.675   8.169   2.707
41674W        W 6901  19.136  30.522  13.940
41675W        W 6902  44.760   9.790   4.108
41676W        W 6903   4.168  15.030   0.931
41677W        W 6904   0.444  24.936  14.274
41678W        W 6905   4.962   2.338  12.550
41679W        W 6906  27.079  40.294   0.245
41680W        W 6907  20.236  37.559   0.091
41681W        W 6908  41.775   0.451   0.194
41682W        W 6909  38.120  30.678   1.251
41683W        W 6910  14.939   7.727   3.265
41684W        W 6911   3.038  15.573   2.897
41685W        W 6912  43.852  10.623   4.355
41686W        W 6913  44.130  10.601  14.712
41687W        W 6914  26.506  34.965   2.791
41688W        W 6915  42.744   1.702  14.805
41689W        W 6916   5.291  40.611   0.809
41690W        W 6917  21.275  33.012   3.523
41691W        W 6918  27.989  13.083   0.330
41692W        W 6919  12.296   3.917  11.425
41693W        W 6920  13.450  15.569   2.766
41694W        W 6921   6.481  14.565  13.919
41695W        W 6922  35.210  39.454  11.206
41696W        W 6923  31.015  41.688   4.094
41697W        W 6924   9.167  40.173  10.540
41698W        W 6925  41.095  22.019   2.289
41699W        W 6926  30.133   9.555   5.372
41700W        W 6927  10.376  19.628  13.030
41701W        W 6928  12.307  33.699   0.568
41702W        W 6929  30.241  22.950   4.305
41703W        W 6930  26.624  19.602  13.441
41704W        W 6931  18.441  11.920   4.281
41705W        W 6932  10.162  11.706   0.570
41706W        W 6933  12.322  19.634  14.445
41707W        W 6934  35.642  11.364  13.328
41708W        W 6935  44.866   2.787  12.334
41709W        W 6936  38.648  27.426  12.561
41710W        W 6937  31.872  37.132   3.660
41711W        W 6938   0.938   9.675   0.461
41712W        W 6939   2.686  25.993  13.975
41713W        W 6940  14.071  10.362   3.208
41714W        W 6941  37.928  19.395  11.951
41715W        W 6942  33.515  24.075  10.443
41716W        W 6943  13.141   4.219   2.383
41717W        W 6944  44.237  36.648  13.832
41718W        W 6945  19.448  26.539   4.267
41719W        W 6946  16.663  36.092   3.250
41720W        W 6947  29.094  17.203  12.872
41721W        W 6948   0.498  28.649   2.137
41722W        W 6949  28.123  10.439  12.033
41723W        W 6950  19.063  35.427  13.911
41724W        W 6951   8.653  31.291  12.182
41725W        W 6952  41.558  19.517   0.286
41726W        W 6953  16.102  28.973  14.055
41727W        W 6954  22.278  26.950   2.862
41728W        W 6955   7.028  38.430   4.074
41729W        W 6956  35.769  21.984   0.786
41730W        W 6957  38.477  38.839   0.927
41731W        W 6958  17.010   1.978   0.905
41732W        W 6959  24.883  24.579   0.048
41733W        W 6960  24.655  26.600  12.026
41734W        W 6961  25.041  29.403   0.743
41735W        W 6962  34.139  29.756  14.836
41736W        W 6963  43.532  44.056  12.536
41737W        W 6964  12.302  28.593   2.415
41738W        W 6965   3.377   8.393  12.233
41739W        W 6966  34.404  14.710   0.946
41740W        W 6967  27.286  22.630   1.089
41741W        W 6968  31.323  31.588   3.279
41742W        W 6969  28.050  11.971   1.391
41743W        W 6970  25.767  14.137  12.398
41744W        W 6971  37.214  23.991   3.250
41745W        W 6972   4.252  31.325   2.627
41746W        W 6973  24.717   1.782  13.561
41747W        W 6974   6.407   8.311  12.038
41748W        W 6975  19.050   9.159  11.638
41749W        W 6976  25.610  39.254  13.900
41750W        W 6977  44.953  14.061  12.774
41751W        W 6978   3.279  41.272  12.680
41752W        W 6979  28.908  24.984  14.132
41753W        W 6980  42.186  13.848   0.970
41754W        W 6981   0.491  40.830  10.411
41755W        W 6982   4.758  14.261  13.851
41756W        W 6983  22.540  41.987  13.810
41757W        W 6984  30.590  23.213   9.789
41758W        W 6985  26.026  12.059  13.572
41759W        W 6986  22.635  38.653   1.961
41760W        W 6987   2.371  15.352  14.230
41761W        W 6988  21.171  17.342   2.778
41762W        W 6989  30.495  31.146   0.348
41763W        W 6990  34.960  36.571   2.850
41764W        W 6991  15.346  24.507  14.456
41765W        W 6992   5.333   4.964   2.395
41766W        W 6993  27.995  26.569  14.351
41767W        W 6994   6.326  28.225   4.170
41768W        W 6995   7.366  17.558  11.147
41769W        W 6996  10.397  11.420  11.169
41770W        W 6997  17.088  37.837  12.821
41771W        W 6998  29.715  39.984  14.330
41772W        W 6999  43.950  15.256   0.970
41773W        W 7000  24.301  38.372   4.047
41774W        W 7001  15.769  21.286  14.432
41775W        W 7002   0.371   9.596   2.817
41776W        W 7003  11.622  34.938   3.162
41777W        W 7004  23.091   7.384   0.862
41778W        W 7005  41.553   8.877  14.106
41779W        W 7006  31.946   2.163  11.218
41780W        W 7007  38.020  42.145  12.372
41781W        W 7008  23.905  24.487   0.703
41782W        W 7009  43.983   2.476  13.960
41783W        W 7010  13.721  20.370  11.705
41784W        W 7011  36.725  41.231   9.876
41785W        W 7012  18.241  30.552   0.877
41786W        W 7013   4.223  30.518   1.523
41787W        W 7014  10.128  22.750   2.116
41788W        W 7015   0.724  10.389  12.055
41789W        W 7016  40.986  13.985   3.627
41790W        W 7017  44.267  37.838   1.355
41791W        W 7018  18.810  25.498   0.517
41792W        W 7019   5.249  16.448  11.165
41793W        W 7020  34.342  31.739  12.869
41794W        W 7021   7.286  33.495  13.481
41795W        W 7022  17.952   3.326  13.316
41796W        W 7023   5.536  14.819  14.018
41797W        W 7024   7.431  26.658  14.138
41798W        W 7025  43.726  38.920   2.913
41799W        W 7026  31.419  10.014   1.845
41800W        W 7027   3.697  15.543  11.458
41801W        W 7028  41.102  29.177   3.808
41802W        W 7029   6.275  13.812   0.258
41803W        W 7030  16.287   7.887   4.141
41804W        W 7031  18.832  33.472  11.576
41805W        W 7032   7.807  44.631   4.269
41806W        W 7033  43.614  34.754  14.375
41807W        W 7034  42.555   6.864   3.663
41808W        W 7035  31.939  25.107   2.131
41809W        W 7036  18.325  33.586  11.491
41810W        W 7037  44.736   4.310  14.252
41811W        W 7038  41.552  35.504  12.088
41812W        W 7039   2.413  19.198  13.390
41813W        W 7040  24.242  30.323  12.581
41814W        W 7041  31.463  17.803   0.677
41815W        W 7042  16.266  13.877   2.809
41816W        W 7043  42.588  14.972  12.914
41817W        W 7044  41.402  16.802   3.738
41818W        W 7045  29.372  13.869   3.430
41819W        W 7046  35.041  43.890   3.116
41820W        W 7047   3.465  13.344   2.298
41821W        W 7048  33.532  44.047  10.782
41822W        W 7049  24.153  16.501   3.958
41823W        W 7050  26.335  30.417  14.905
41824W        W 7051  41.119  17.265   2.796
41825W        W 7052  11.146  33.367   1.809
41826W        W 7053  17.640   3.648  14.334
41827W        W 7054   6.094  22.539  14.737
41828W        W 7055  27.178  11.740  13.564
41829W        W 7056   9.210  44.056  14.467
41830W        W 7057  12.280  43.556  11.530
41831W        W 7058  30.658  39.696   1.461
41832W        W 7059  39.988  43.240   1.307
41833W        W 7060  42.877  26.213  10.947
41834W        W 7061   8.336  24.841   4.766
41835W        W 7062   8.452  37.929  13.078
41836W        W 7063  14.346  44.361  11.585
41837W        W 7064  44.349   7.129   4.329
41838W        W 7065  34.042  15.308   3.093
41839W        W 7066  10.158  16.910  12.431
41840W        W 7067  24.579   4.712  14.011
41841W        W 7068  44.594  18.192  14.388
41842W        W 7069  17.545  44.598   3.001
41843W        W 7070   1.248  40.417  14.476
41844W        W 7071  33.507  30.780   1.265
41845W        W 7072  24.780  20.508  14.434
41846W        W 7073  18.079  40.416   0.253
41847W        W 7074   7.117   7.449   4.210
41848W        W 7075  33.619  37.866   0.417
41849W        W 7076   7.185  36.274  11.249
41850W        W 7077  17.151  14.195   0.880
41851W        W 7078  18.919  44.281  10.824
41852W        W 7079  24.735  16.835  11.220
41853W        W 7080  21.313   4.728   1.168
41854W        W 7081  30.207  41.768  14.003
41855W        W 7082   6.065  44.711  14.151
41856W        W 7083  13.266   2.736   2.424
41857W        W 7084  23.629  26.236  14.866
41858W        W 7085   4.884  14.801  10.332
41859W        W 7086  21.513  37.492  14.330
41860W        W 7087  16.209  13.610  11.560
41861W        W 7088  22.175  18.854   1.040
41862W        W 7089   4.221  17.024  13.008
41863W        W 7090  16.786  10.263  14.427
41864W        W 7091  19.320   3.295  10.652
41865W        W 7092  26.730  25.170  11.677
41866W        W 7093   4.410  28.186  12.361
41867W        W 7094  27.253  42.143  13.890
41868W        W 7095  23.813  44.339   5.361
41869W        W 7096  36.007  42.060   3.673
41870W        W 7097  11.391  10.329  12.980
41871W        W 7098  25.767  19.645   0.396
41872W        W 7099  22.269   1.900  13.356
41873W        W 7100  42.873  36.873  14.840
41874W        W 7101  42.956  26.263   1.444
41875W        W 7102  19.140  31.490  10.453
41876W        W 7103   7.798  43.198  13.980
41877W        W 7104  16.320  44.787  13.401
41878W        W 7105  14.696  44.470  12.509
41879W        W 7106  35.608  39.531  13.532
41880W        W 7107  27.811   7.391  13.533
41881W        W 7108  25.656  21.019  12.378
41882W        W 7109  34.313   0.689  14.005
41883W        W 7110  27.559  17.720   4.871
41884W        W 7111  25.930  24.473  14.938
41885W        W 7112   3.667   7.936  12.395
41886W        W 7113  23.674  27.063   4.518
41887W        W 7114  11.667   2.552   4.204
41888W        W 7115  11.139  23.039  14.480
41889W        W 7116  40.364   5.197  12.107
41890W        W 7117  19.265  31.549  12.360
41891W        W 7118  39.962  27.294   2.701
41892W        W 7119  39.920  24.899  11.585
41893W        W 7120  36.812  14.217   4.630
41894W        W 7121  40.771   3.815  13.511
41895W        W 7122  33.671  28.628   3.296
41896W        W 7123  34.562  11.870   2.158
41897W        W 7124  30.588  30.428   2.276
41898W        W 7125  38.250   2.829   4.671
41899W        W 7126  21.257  13.774   4.074
41900W        W 7127   0.668  26.448  13.199
41901W        W 7128  21.650   1.220  12.469
41902W        W 7129  42.621  10.132   4.146
41903W        W 7130  13.968  33.576   4.075
41904W        W 7131  15.715  34.665  14.744
41905W        W 7132  10.034  10.639   1.756
41906W        W 7133  38.940   5.379  14.342
41907W        W 7134  21.199  37.639   4.531
41908W        W 7135   9.656  13.735   4.126
41909W        W 7136  42.548  35.581  14.555
41910W        W 7137  24.110   5.194  13.428
41911W        W 7138  17.477  28.842  13.708
41912W        W 7139  29.248  35.411   4.169
41913W        W 7140  23.677  37.366   0.295
41914W        W 7141  42.247  18.794   3.235
41915W        W 7142  12.232  34.127   2.700
41916W        W 7143   4.399  32.647  11.216
41917W        W 7144  42.967  38.620  14.905
41918W        W 7145  43.794  27.002   1.846
41919W        W 7146  27.492  30.362   3.727
41920W        W 7147  31.984  22.181  11.952
41921W        W 7148  30.468  42.393   3.736
41922W        W 7149  31.458  32.389  12.045
41923W        W 7150  29.078  14.335   2.829
41924W        W 7151  44.849  18.276  13.339
41925W        W 7152  44.251  37.871   5.108
41926W        W 7153  11.787  16.679  13.342
41927W        W 7154  28.105  39.520   3.185
41928W        W 7155  14.498  11.574  11.192
41929W        W 7156  23.640  17.751   1.541
41930W        W 7157   2.944  18.287  10.789
41931W        W 7158  32.659  19.692  10.648
41932W        W 7159  44.894  33.413  10.700
41933W        W 7160   1.686  20.889  14.190
41934W        W 7161  34.658  21.175   0.013
41935W        W 7162   1.881  21.265   0.300
41936W        W 7163  19.671  33.063   3.689
41937W        W 7164  12.186  22.489   1.937
41938W        W 7165   4.259  25.964   3.901
41939W        W 7166  42.453  24.544  10.968
41940W        W 7167   8.095   4.327   1.702
41941W        W 7168  28.247  15.477  12.120
41942W        W 7169  42.401  18.244   2.394
41943W        W 7170  19.114  27.267   4.425
41944W        W 7171  21.563  40.555  14.743
41945W        W 7172  12.339  22.086   2.234
41946W        W 7173  20.130  24.937  12.802
41947W        W 7174  32.157  23.726  11.921
41948W        W 7175  36.372   3.772   2.203
41949W        W 7176  22.459   9.784  14.735
41950W        W 7177   3.621  11.396   1.311
41951W        W 7178  23.620  19.033  13.416
41952W        W 7179  22.072  13.307   5.038
41953W        W 7180   7.653  17.649   2.332
41954W        W 7181   5.918  26.096   3.721
41955W        W 7182  32.253  38.585   5.374
41956W        W 7183  10.997   3.865   4.521
41957W        W 7184  28.407  26.138  10.614
41958W        W 7185   5.763  29.018   3.230
41959W        W 7186  25.791  20.865  10.663
41960W        W 7187  30.368  21.974  11.115
41961W        W 7188   0.422  24.320  11.247
41962W        W 7189  33.797   2.818   0.747
41963W        W 7190  42.468  24.547  10.439
41964W        W 7191  12.444  18.740   4.210
41965W        W 7192  38.511   7.203  14.292
41966W        W 7193  10.862  42.570  12.081
41967W        W 7194  18.471  40.823   0.252
41968W        W 7195  25.496  44.760  13.336
41969W        W 7196   9.763  17.076   2.558
41970W        W 7197  38.539  24.231   4.670
41971W        W 7198  22.633  33.999  13.204
41972W        W 7199  25.545  41.303  10.798
41973W        W 7200  41.584  43.855  12.865
41974W        W 7201  43.299  34.267   1.045
41975W        W 7202  30.881   1.908   2.726
41976W        W 7203  29.482  34.355  12.525
41977W        W 7204   2.696  15.277  10.737
41978W        W 7205  27.997   5.228  14.443
41979W        W 7206  43.002  25.719   1.386
41980W        W 7207  31.352   1.142   3.221
41981W        W 7208   7.778   3.173   0.758
41982W        W 7209  18.300  36.497  13.929
41983W        W 7210   8.843   1.888  10.653
41984W        W 7211  17.650  21.064  12.579
41985W        W 7212  14.000  39.117   0.483
41986W        W 7213  13.234   4.384   1.082
41987W        W 7214  37.398  23.091  10.743
41988W        W 7215  27.968   7.233   3.666
41989W        W 7216  41.299  11.290   3.913
41990W        W 7217  41.443  13.253  12.524
41991W        W 7218  14.891  14.826   4.188
41992W        W 7219  28.941  19.776  13.734
41993W        W 7220  13.577   6.245   5.007
41994W        W 7221  35.941  13.699   3.363
41995W        W 7222   3.489   0.346   2.546
41996W        W 7223  11.824   8.880   3.591
41997W        W 7224   2.774  30.164  13.612
41998W        W 7225  23.741   9.986  11.102
41999W        W 7226  26.688  40.394   3.639
42000W        W 7227  17.717  10.107   4.244
42001W        W 7228  13.769  32.472  13.304
42002W        W 7229  34.082  44.936   4.355
42003W        W 7230  35.940  20.888  13.133
42004W        W 7231  31.607  33.971  12.958
42005W        W 7232  12.730   1.857  11.609
42006W        W 7233  37.899   5.281   2.676
42007W        W 7234   6.856   5.892   4.706
42008W        W 7235  35.591  19.731  11.595
42009W        W 7236  13.520  43.825  14.366
42010W        W 7237  43.749  34.167   4.665
42011W        W 7238  39.976  12.870   3.136
42012W        W 7239   3.291  15.214  11.623
42013W        W 7240  25.510   7.633  10.312
42014W        W 7241   0.944  29.148   1.004
42015W        W 7242  12.560  29.066  11.675
42016W        W 7243  12.621  41.289  13.490
42017W        W 7244  18.111  13.974  12.532
42018W        W 7245   8.201  40.000  11.633
42019W        W 7246  34.093  39.137   3.795
42020W        W 7247  36.000  10.722   4.830
42021W        W 7248  19.999   5.210  10.759
42022W        W 7249  12.031  20.732   0.372
42023W        W 7250  26.889  11.688   5.328
42024W        W 7251  31.620  37.069  11.212
42025W        W 7252  39.565  27.415  10.763
42026W        W 7253  30.615  11.306  11.102
42027W        W 7254  31.741  17.741   3.705
42028W        W 7255  33.394  35.359   0.495
42029W        W 7256   9.372  31.179   2.859
42030W        W 7257   8.886   5.969   3.242
42031W        W 7258   3.347  30.926  13.437
42032W        W 7259  30.062  41.270   2.695
42033W        W 7260   1.110  23.671   2.282
42034W        W 7261   9.799  17.655  12.356
42035W        W 7262   1.895   7.531   2.847
42036W        W 7263  36.996  36.596   2.537
42037W        W 7264   0.726  41.033  11.261
42038W        W 7265  17.816  10.899  11.602
42039W        W 7266  19.052  24.029   4.648
42040W        W 7267   1.244  30.538   0.485
42041W        W 7268  33.421  43.345   4.800
42042W        W 7269   6.718  44.989   0.302
42043W        W 7270   9.298  27.626  14.416
42044W        W 7271  37.946  41.931  14.928
42045W        W 7272  28.212   9.812  11.194
42046W        W 7273   9.465  39.483  13.382
42047W        W 7274  34.178  42.795  14.860
42048W        W 7275  27.150  42.764   1.198
42049W        W 7276  12.143  20.776  12.198
42050W        W 7277   3.925  40.520   4.309
42051W        W 7278  25.130  43.502  14.048
42052W        W 7279  34.166  18.278   0.879
42053W        W 7280   2.254   5.964  10.836
42054W        W 7281  40.072  28.200  13.486
42055W        W 7282  26.217  14.147   0.703
42056W        W 7283   4.366  22.470   1.058
42057W        W 7284  31.253  18.058   1.095
42058W        W 7285   0.570  23.615   5.115
42059W        W 7286   3.850  41.237   2.761
42060W        W 7287  18.359  27.013  14.382
42061W        W 7288  15.070  24.564   3.267
42062W        W 7289   9.350  16.346   1.238
42063W        W 7290   4.359  19.244   5.014
42064W        W 7291  20.351   0.868   0.626
42065W        W 7292  39.405  18.293  14.777
42066W        W 7293  38.155  25.057   2.783
42067W        W 7294  19.559  44.782  13.109
42068W        W 7295  18.112  31.762   4.039
42069W        W 7296  22.246  41.682   2.787
42070W        W 7297  29.158  39.300  11.429
42071W        W 7298  12.312  33.602  13.059
42072W        W 7299   1.478  26.106   1.799
42073W        W 7300  28.640  29.119  12.094
42074W        W 7301  35.808  24.919   3.665
42075W        W 7302  17.136  41.611   1.630
42076W        W 7303  13.328  11.703  13.744
42077W        W 7304  40.047  11.872  14.910
42078W        W 7305  26.265   3.285  14.376
42079W        W 7306  38.881   4.469   3.731
42080W        W 7307  17.735  17.021   3.093
42081W        W 7308  14.838  17.706   2.217
42082W        W 7309  44.895  18.372  12.385
42083W        W 7310  40.086   5.385  14.655
42084W        W 7311  30.104  37.429  14.306
42085W        W 7312   4.244  25.821   1.792
42086W        W 7313  34.656  40.868   3.343
42087W        W 7314  10.025   0.030   1.290
42088W        W 7315  44.839  40.787  11.052
42089W        W 7316   7.839  42.225  12.118
42090W        W 7317  27.465  10.824   2.298
42091W        W 7318  14.574   7.323   3.740
42092W        W 7319  24.371  23.547   4.367
42093W        W 7320  26.056   7.415  13.103
42094W        W 7321   2.281   3.124  11.042
42095W        W 7322  29.931  30.851   2.676
42096W        W 7323  34.072  31.715   0.745
42097W        W 7324   5.891  18.021   0.844
42098W        W 7325  28.084  21.173  12.076
42099W        W 7326  22.940  41.861   4.647
42100W        W 7327  22.549  33.628   2.676
42101W        W 7328  22.628  38.072  13.301
42102W        W 7329  39.126   2.395   2.778
42103W        W 7330  32.130   9.348   3.441
42104W        W 7331  13.424  25.744   1.194
42105W        W 7332  10.403  38.988   1.962
42106W        W 7333   5.261  44.443  14.524
42107W        W 7334  41.228  11.897  10.911
42108W        W 7335  36.303  36.444  14.980
42109W        W 7336  43.831  29.153  10.823
42110W        W 7337  12.062   7.197   4.637
42111W        W 7338  37.219   7.676   2.411
42112W        W 7339   1.840  19.805   9.904
42113W        W 7340  25.529  39.276   2.257
42114W        W 7341  35.774   8.081  11.532
42115W        W 7342  14.878   5.008  11.597
42116W        W 7343  44.847  21.559   3.817
42117W        W 7344  10.770  16.583  13.485
42118W        W 7345   3.809  39.494   0.322
42119W        W 7346  37.214  35.536   1.810
42120W        W 7347  14.656  15.182  13.312
42121W        W 7348  23.199   8.428  14.290
42122W        W 7349  39.392   0.454   2.737
42123W        W 7350  19.786  29.686  11.198
42124W        W 7351  26.826  13.536   3.749
42125W        W 7352  21.557  13.807   0.047
42126W        W 7353  40.796  20.035   4.571
42127W        W 7354  15.197  35.335   1.236
42128W        W 7355  19.777  40.657   0.351
42129W        W 7356   3.899  39.438   3.411
42130W        W 7357  43.279   9.405   1.650
42131W        W 7358   9.336  21.985   3.659
42132W        W 7359  16.206  43.289  12.781
42133W        W 7360  30.145  17.417  11.245
42134W        W 7361  44.008  19.326   4.070
42135W        W 7362  30.857  27.608   0.259
42136W        W 7363  23.211   5.419   3.370
42137W        W 7364  42.856  17.533  11.317
42138W        W 7365  34.797   3.473  13.890
42139W        W 7366   5.861  30.618   0.653
42140W        W 7367   4.850  28.264  14.933
42141W        W 7368  44.826  43.162   4.429
42142W        W 7369  41.345   1.888   1.065
42143W        W 7370   8.730  36.746   2.846
42144W        W 7371  23.024  30.888   4.610
42145W        W 7372  36.406  18.304   0.341
42146W        W 7373  20.727  36.642  13.781
42147W        W 7374  44.312  40.987   4.121
42148W        W 7375   3.216  37.457  13.439
42149W        W 7376  30.065  23.414   1.591
42150W        W 7377  44.963  17.793   3.724
42151W        W 7378  44.546  13.937   1.364
42152W        W 7379  30.271  30.564  14.877
42153W        W 7380  17.759  26.860  14.004
42154W        W 7381  29.255  40.096   2.717
42155W        W 7382  16.682   5.826  14.813
42156W        W 7383  21.512  39.207   4.150
42157W        W 7384   3.447  17.256  10.769
42158W        W 7385  32.766  28.684   1.816
42159W        W 7386  15.546  36.583   1.801
42160W        W 7387   4.272  26.399  14.912
42161W        W 7388  43.486  24.481   4.336
42162W        W 7389  16.037  22.138  14.051
42163W        W 7390   3.200  39.515   0.251
42164W        W 7391   3.678   8.724   1.176
42165W        W 7392  21.531  32.444   2.260
42166W        W 7393  38.081   2.283  14.570
42167W        W 7394  25.729  33.120  13.130
42168W        W 7395  42.277  23.037  14.216
42169W        W 7396   7.854  32.300  12.047
42170W        W 7397  32.084  22.655   0.024
42171W        W 7398  29.675  28.616  13.355
42172W        W 7399  22.682  30.173  12.866
42173W        W 7400   7.017  22.730  13.128
42174W        W 7401  19.552  44.750  14.921
42175W        W 7402  12.625  11.692  14.382
42176W        W 7403  40.287  29.587  13.407
42177W        W 7404   6.257  14.995   0.210
42178W        W 7405  31.559  38.329  12.547
42179W        W 7406  23.717   8.181  13.485
42180W        W 7407  23.261  20.976   2.787
42181W        W 7408  24.014  15.817   2.651
42182W        W 7409   3.026  36.423  12.040
42183W        W 7410  39.096  38.044   3.273
42184W        W 7411  11.459  17.705   4.120
42185W        W 7412  24.148  40.406   1.355
42186W        W 7413   7.907  40.379   3.148
42187W        W 7414   1.801  23.119   2.170
42188W        W 7415  26.779  41.553  11.546
42189W        W 7416   7.636  23.906   1.863
42190W        W 7417   7.959  34.851  11.601
42191W        W 7418  24.386  24.682  14.941
42192W        W 7419  15.077  25.419  14.318
42193W        W 7420   8.658  12.449   2.758
42194W        W 7421  21.553  41.809  10.707
42195W        W 7422   3.175  12.074  10.988
42196W        W 7423   7.190  26.611   3.134
42197W        W 7424  14.293  19.244   1.467
42198W        W 7425  32.861  18.352   2.288
42199W        W 7426  11.416  40.364  12.375
42200W        W 7427   7.959   8.583  14.007
42201W        W 7428   3.471  36.085   0.326
42202W        W 7429  31.839  30.503   1.485
42203W        W 7430  26.913  15.701   1.691
42204W        W 7431  31.222   1.453  11.622
42205W        W 7432   0.476  19.848   2.296
42206W        W 7433  16.539   7.217  11.273
42207W        W 7434   2.722  15.916  11.510
42208W        W 7435  28.527  43.755  12.400
42209W        W 7436  18.198  30.918  11.106
42210W        W 7437   9.241   8.511   2.424
42211W        W 7438  16.311   9.733  13.899
42212W        W 7439  24.180   2.759   4.533
42213W        W 7440  22.208  17.774  11.658
42214W        W 7441  35.883  35.875  10.681
42215W        W 7442   1.370  18.205   0.919
42216W        W 7443  34.973  11.402  14.039
42217W        W 7444  31.608  36.654   2.590
42218W        W 7445   8.335   5.689  11.264
42219W        W 7446   8.388   8.387  10.765
42220W        W 7447   3.788  15.676   4.719
42221W        W 7448   2.424  27.936   2.699
42222W        W 7449   4.573  23.267  10.522
42223W        W 7450   4.798  29.407   1.455
42224W        W 7451  38.148  17.697   2.471
42225W        W 7452  36.532  42.904  11.489
42226W        W 7453   4.859  39.275   3.834
42227W        W 7454  36.738   9.641  12.748
42228W        W 7455   2.087  41.431   4.846
42229W        W 7456   1.151  16.907   2.800
42230W        W 7457   2.934  22.571  11.010
42231W        W 7458   9.903  35.619  12.556
42232W        W 7459  43.896  15.570  14.837
42233W        W 7460  31.521  43.751   3.404
42234W        W 7461  39.141  35.160  14.427
42235W        W 7462   1.004  13.103  10.789
42236W        W 7463  27.704  30.840   3.705
42237W        W 7464  32.932  20.528  12.093
42238W        W 7465  15.622  35.884   4.398
42239W        W 7466  18.940  15.196   2.369
42240W        W 7467   9.316  33.576  14.815
42241W        W 7468  20.276  32.490  12.453
42242W        W 7469  27.565  33.762  14.876
42243W        W 7470  25.555  34.351   4.580
42244W        W 7471  38.748  10.747  13.426
42245W        W 7472  23.248  12.927   4.055
42246W        W 7473  19.673   7.485   0.780
42247W        W 7474  18.632  36.594   1.488
42248W        W 7475  33.320  16.059  13.439
42249W        W 7476   1.026  39.684  11.437
42250W        W 7477  40.432  17.433   4.578
42251W        W 7478  37.024  34.872  11.189
42252W        W 7479   6.983   8.994  10.815
42253W        W 7480   4.207  11.182   4.898
42254W        W 7481  12.645  28.791   4.139
42255W        W 7482  26.940   1.651   0.165
42256W        W 7483   1.047  37.776   0.257
42257W        W 7484  15.096  36.466   2.010
42258W        W 7485  23.077  38.030  12.026
42259W        W 7486  28.701   8.835  13.285
42260W        W 7487   8.644  27.742   4.336
42261W        W 7488  27.738   1.986   4.226
42262W        W 7489  19.732  36.445  10.807
42263W        W 7490  10.415   4.238  11.958
42264W        W 7491   8.680  38.037   1.373
42265W        W 7492  19.822  39.360   4.779
42266W        W 7493   3.888  20.727   0.224
42267W        W 7494  14.644  36.151   4.167
42268W        W 7495  26.295  31.067  14.328
42269W        W 7496  35.579  39.093   1.116
42270W        W 7497  35.997  42.357  14.785
42271W        W 7498  19.254  22.966  10.646
42272W        W 7499  32.353  11.362   0.887
42273W        W 7500  38.336   1.917  11.548
42274W        W 7501  21.494  43.423  11.447
42275W        W 7502  26.734  31.117  11.115
42276W        W 7503  44.582  37.954   0.508
42277W        W 7504  20.285  33.552   0.841
42278W        W 7505  42.875   2.721   0.401
42279W        W 7506   1.972  21.481   0.889
42280W        W 7507  15.714  16.172   3.391
42281W        W 7508  36.023  41.599  12.645
42282W        W 7509  24.361  10.352   0.554
42283W        W 7510  17.638  36.515  14.705
42284W        W 7511  10.809   1.834  12.411
42285W        W 7512  43.399   4.740   4.597
42286W        W 7513  44.587  22.592   1.374
42287W        W 7514  38.371  12.410   0.679
42288W        W 7515  36.899  29.581   3.222
42289W        W 7516  44.050  17.217   2.722
42290W        W 7517  26.544  28.627   4.164
42291W        W 7518   1.357  37.146   4.771
42292W        W 7519  17.777  13.175  11.770
42293W        W 7520  35.678   0.409  13.081
42294W        W 7521  17.547  29.421   1.762
42295W        W 7522  29.778  16.027  11.032
42296W        W 7523  14.382  33.323   4.247
42297W        W 7524  42.473   2.182  11.203
42298W        W 7525   2.959  18.468  13.006
42299W        W 7526  38.567  14.787   0.412
42300W        W 7527  41.011  32.429  11.923
42301W        W 7528   9.978  32.580   3.659
42302W        W 7529  11.801  32.510   0.362
42303W        W 7530  20.031   8.704  11.018
42304W        W 7531  38.927   4.712  12.689
42305W        W 7532   0.987  32.021  14.728
42306W        W 7533  30.458   3.174  13.842
42307W        W 7534   6.201  25.091   1.282
42308W        W 7535   5.762  11.380  12.563
42309W        W 7536  10.898   3.861  12.508
42310W        W 7537  24.221  23.209   1.807
42311W        W 7538  15.802   8.878  11.674
42312W        W 7539   3.293  23.062   0.323
42313W        W 7540  16.147  37.147   0.673
42314W        W 7541  31.896  21.357   3.408
42315W        W 7542  28.401  43.894  12.874
42316W        W 7543  40.922  32.102  14.787
42317W        W 7544   6.281  25.405  12.639
42318W        W 7545  33.863   3.234  14.712
42319W        W 7546  42.035  13.116   0.469
42320W        W 7547  43.365  26.469   2.270
42321W        W 7548   7.381  37.898   0.890
42322W        W 7549   2.772   5.331   4.346
42323W        W 7550   6.267  18.595  13.322
42324W        W 7551  22.213  41.919   0.988
42325W        W 7552   8.127  20.299   0.357
42326W        W 7553  14.462  31.993   0.322
42327W        W 7554  11.875  29.489   2.406
42328W        W 7555  18.070   7.924  11.296
42329W        W 7556  18.795  26.002   2.282
42330W        W 7557  26.294  24.883  14.950
42331W        W 7558  22.032  21.780  14.782
42332W        W 7559  25.058   9.616   1.279
42333W        W 7560  38.369  12.657   3.533
42334W        W 7561   9.361   6.167  13.468
42335W        W 7562  35.298  20.571   1.414
42336W        W 7563  32.059  37.944  14.454
42337W        W 7564  42.442  17.674  11.621
42338W        W 7565  10.381  14.111  14.383
42339W        W 7566  37.923  20.154   2.082
42340W        W 7567   2.965   8.373  12.583
42341W        W 7568  24.300  30.029   4.514
42342W        W 7569  23.690   6.141   1.103
42343W        W 7570  37.420  41.024   4.565
42344W        W 7571  26.938  44.910  12.495
42345W        W 7572  26.657  36.969   0.453
42346W        W 7573  27.550  39.119   1.362
42347W        W 7574  13.790  29.634  11.668
42348W        W 7575  19.249  12.289  14.066
42349W        W 7576  13.321  16.184  14.913
42350W        W 7577  18.812  40.932  10.525
42351W        W 7578  36.112   3.338   3.171
42352W        W 7579  11.175  26.130   3.246
42353W        W 7580   1.987  33.653   1.312
42354W        W 7581   9.899  22.945   3.057
42355W        W 7582   1.670  27.439  14.417
42356W        W 7583  19.281  41.437  10.755
42357W        W 7584  22.536   5.371  13.351
42358W        W 7585  43.446   1.566  10.099
42359W        W 7586  36.584  41.761   4.315
42360W        W 7587  22.575  38.836   3.793
42361W        W 7588   7.379  20.708  10.720
42362W        W 7589   5.734  45.000  11.119
42363W        W 7590  17.766  33.835  13.987
42364W        W 7591  20.121  20.670   1.935
42365W        W 7592   4.359  16.670  11.683
42366W        W 7593   5.113   3.743  11.519
42367W        W 7594  38.092  10.659   4.391
42368W        W 7595  20.576  34.857  14.536
42369W        W 7596  36.622  38.609  13.378
42370W        W 7597  11.120   5.902   3.868
42371W        W 7598  34.369   3.195   2.328
42372W        W 7599   5.762  30.131   0.837
42373W        W 7600  18.603  22.051   3.875
42374W        W 7601  27.114   9.263   0.433
42375W        W 7602  41.728  20.988   2.774
42376W        W 7603   9.825  35.858  11.568
42377W        W 7604  22.855  40.485   0.811
42378W        W 7605  36.946   1.345   3.962
42379W        W 7606  32.974  15.254   3.107
42380W        W 7607  28.836  13.029   1.784
42381W        W 7608  15.796  38.968   4.527
42382W        W 7609  37.513   2.536   3.693
42383W        W 7610  37.881  17.632   3.801
42384W        W 7611  26.528  36.589  11.601
42385W        W 7612  19.624  42.073   0.293
42386W        W 7613  11.384   1.011  14.438
42387W        W 7614  15.105  14.777   0.439
42388W        W 7615  30.098   7.495   3.417
42389W        W 7616  28.564  19.821  11.252
42390W        W 7617  32.032  37.591   1.927
42391W        W 7618   9.727  33.405   1.672
42392W        W 7619  14.250   9.493   1.073
42393W        W 7620  32.808  29.640   2.856
42394W        W 7621  26.508  37.029  12.704
42395W        W 7622  21.976  25.510  13.906
42396W        W 7623  37.544  30.920   0.414
42397W        W 7624  44.318  34.710   0.856
42398W        W 7625   8.391  18.580  11.825
42399W        W 7626  29.571   8.862  10.413
42400W        W 7627   8.825  41.555   4.355
42401W        W 7628  36.823  17.587  11.129
42402W        W 7629  43.247  12.646  14.173
42403W        W 7630  20.476  24.943   4.697
42404W        W 7631  17.806  42.958  11.163
42405W        W 7632  21.690  27.909   1.593
42406W        W 7633  14.778   3.716  14.549
42407W        W 7634  24.138   6.436   1.409
42408W        W 7635  24.048  24.226  12.561
42409W        W 7636  18.171  21.683  12.943
42410W        W 7637  36.622  23.954  12.013
42411W        W 7638  37.632   1.516  14.780
42412W        W 7639  22.817   1.940  12.439
42413W        W 7640   9.141  39.909  13.926
42414W        W 7641  25.313   8.902  11.972
42415W        W 7642  43.305  10.464  13.711
42416W        W 7643  40.492   4.374   1.348
42417W        W 7644   1.392   7.801  14.069
42418W        W 7645   6.413   0.783  13.535
42419W        W 7646  11.877  38.372   2.177
42420W        W 7647  10.340  19.614  10.955
42421W        W 7648   0.529  33.532  14.460
42422W        W 7649  32.858  28.269   1.102
42423W        W 7650  42.378  34.315   3.820
42424W        W 7651   2.639  30.158   9.807
42425W        W 7652   4.224  30.972  12.616
42426W        W 7653  10.653  23.897  12.068
42427W        W 7654  22.034   7.164   0.363
42428W        W 7655   3.761  34.897  10.536
42429W        W 7656  27.027  18.753  13.596
42430W        W 7657   2.420  29.529  14.691
42431W        W 7658   4.742  14.616   2.784
42432W        W 7659  32.645  11.091   3.314
42433W        W 7660   7.786  41.895   1.455
42434W        W 7661  22.649   0.107  11.545
42435W        W 7662  12.005  18.238   3.649
42436W        W 7663  39.643   4.243  13.055
42437W        W 7664  42.895  17.231  13.470
42438W        W 7665   5.313  34.752   3.887
42439W        W 7666  21.075  22.123  13.745
42440W        W 7667  36.880  16.844  11.482
42441W        W 7668  24.738  28.975  12.357
42442W        W 7669  26.186  33.393  13.081
42443W        W 7670  29.471   1.910  13.040
42444W        W 7671  21.483  12.446  12.557
42445W        W 7672  33.784  30.998  11.194
42446W        W 7673  12.422  33.561   5.415
42447W        W 7674  12.357  20.628   3.215
42448W        W 7675   0.003   7.923  11.951
42449W        W 7676  14.896  41.579   3.205
42450W        W 7677  43.630   4.896   4.153
42451W        W 7678  14.593  16.813   3.171
42452W        W 7679  40.580  27.581  11.563
42453W        W 7680   3.230  35.416   2.662
42454W        W 7681  44.037  16.738  13.055
42455W        W 7682   8.608  15.771   2.590
42456W        W 7683   5.023   0.817  14.917
42457W        W 7684  44.513   8.723  12.954
42458W        W 7685  35.201  17.186  14.732
42459W        W 7686  20.578   9.320  14.094
42460W        W 7687  41.833  44.967   3.353
42461W        W 7688  42.744  31.923   3.634
42462W        W 7689  30.542  16.248  11.524
42463W        W 7690  18.010  41.371  12.440
42464W        W 7691  13.293   2.275   3.296
42465W        W 7692  36.148  14.902  12.126
42466W        W 7693   7.671  34.361  14.841
42467W        W 7694  19.207  20.006  12.792
42468W        W 7695   4.968   3.890   4.183
42469W        W 7696  28.656   0.158   1.277
42470W        W 7697  40.551  14.525  14.553
42471W        W 7698   1.162  28.679   0.777
42472W        W 7699  39.679   5.827   3.348
42473W        W 7700  33.643  21.732   4.651
42474W        W 7701  12.695  25.878  14.889
42475W        W 7702  15.208  13.104  13.422
42476W        W 7703  29.132  30.823  10.848
42477W        W 7704  34.943  10.678  11.607
42478W        W 7705  18.674  19.039   0.432
42479W        W 7706  40.846  31.018   4.045
42480W        W 7707   8.521  23.175  14.536
42481W        W 7708  35.533  21.182   3.391
42482W        W 7709   0.602  43.859  14.333
42483W        W 7710  38.512  23.507   3.663
42484W        W 7711  42.532  28.516   0.854
42485W        W 7712  15.253   5.271   2.919
42486W        W 7713   8.884  31.309   4.810
42487W        W 7714   2.976  11.318  12.834
42488W        W 7715  38.497  39.567   4.573
42489W        W 7716  12.080  11.856  11.946
42490W        W 7717   1.462  27.166   0.533
42491W        W 7718  29.346  30.583   4.022
42492W        W 7719  35.671  12.693   1.701
42493W        W 7720  14.603  44.200  10.325
42494W        W 7721  31.934  19.699   0.382
42495W        W 7722  17.485  43.949  13.157
42496W        W 7723  17.692  24.540   2.174
42497W        W 7724  14.677  38.403  12.884
42498W        W 7725  19.848   8.883   1.800
42499W        W 7726   9.634  33.488   9.808
42500W        W 7727   5.949  29.874   4.959
42501W        W 7728  14.630  12.258  14.812
42502W        W 7729   4.904  17.224   2.610
42503W        W 7730   7.555  29.604   2.925
42504W        W 7731  15.380   7.436   1.342
42505W        W 7732   4.758  19.338   3.351
42506W        W 7733   1.278  37.061   3.380
42507W        W 7734   0.712  22.472  11.130
42508W        W 7735   0.733  32.105   1.689
42509W        W 7736  15.519  22.254  13.361
42510W        W 7737  20.170  29.125  10.559
42511W        W 7738  39.882  26.991   2.309
42512W        W 7739  28.864  19.133  12.625
42513W        W 7740  33.074  33.845   2.522
42514W        W 7741  28.470  29.471   0.537
42515W        W 7742   2.319  36.816   1.980
42516W        W 7743  12.145   4.021  13.804
42517W        W 7744   9.846   7.331   4.772
42518W        W 7745  25.040   8.947  14.846
42519W        W 7746  10.595  40.331   2.592
42520W        W 7747  25.580   4.893  11.028
42521W        W 7748  18.079  38.798  14.525
42522W        W 7749  10.663  43.402   2.607
42523W        W 7750  39.402  22.036   0.790
42524W        W 7751  28.849   0.650   4.197
42525W        W 7752  17.941  16.850   1.029
42526W        W 7753   9.970  38.492  10.578
42527W        W 7754  30.086  24.906   0.424
42528W        W 7755   2.272  41.904  13.916
42529W        W 7756  42.313  16.369  11.250
42530W        W 7757  25.096   7.433   2.945
42531W        W 7758  27.781  27.596   4.730
42532W        W 7759  17.579  16.971  10.565
42533W        W 7760   7.534  26.565  14.644
42534W        W 7761  24.996  35.106   2.850
42535W        W 7762  41.363   2.359   3.903
42536W        W 7763   1.987  41.783  10.663
42537W        W 7764  18.298  22.381   2.814
42538W        W 7765  23.893  25.047  13.462
42539W        W 7766  18.645   1.454  12.013
42540W        W 7767  44.761  44.639   4.785
42541W        W 7768   8.410  25.052   4.316
42542W        W 7769  37.054  19.748   0.714
42543W        W 7770   9.082  17.778   1.224
42544W        W 7771   7.532  43.860   4.912
42545W        W 7772  33.870  20.721  11.373
42546W        W 7773  27.016   7.561  14.074
42547W        W 7774   1.967  28.111   2.216
42548W        W 7775  17.366  19.499  13.233
42549W        W 7776  36.219   2.724   4.567
42550W        W 7777   4.908   7.855  14.726
42551W        W 7778  44.436   4.914  11.007
42552W        W 7779  35.361   7.071   1.842
42553W        W 7780   7.811  11.116   0.888
42554W        W 7781  41.833  29.878   0.479
42555W        W 7782   1.669   8.937  13.427
42556W        W 7783  38.565  24.223  14.805
42557W        W 7784  39.514  43.907  12.654
42558W        W 7785  20.943   3.659   1.466
42559W        W 7786  13.293  17.779   1.965
42560W        W 7787  42.504  16.808  13.841
42561W        W 7788  16.645  11.663  13.649
42562W        W 7789  14.942  11.423  14.993
42563W        W 7790  30.013   4.139   3.791
42564W        W 7791  20.047  22.201   3.675
42565W        W 7792  21.153  30.630  10.638
42566W        W 7793  14.189  37.074   1.824
42567W        W 7794   8.454  23.937  12.065
42568W        W 7795  17.321  33.812   4.863
42569W        W 7796  20.056  22.201  12.564
42570W        W 7797  44.908  19.510   2.122
42571W        W 7798  19.837  22.742  14.883
42572W        W 7799  33.048  32.024  12.718
42573W        W 7800  20.678  44.554   0.038
42574W        W 7801  20.040  11.736   1.769
42575W        W 7802  14.574  26.715  12.469
42576W        W 7803   5.652  19.075   3.116
42577W        W 7804  31.986  23.335  14.143
42578W        W 7805  36.416  39.123  11.779
42579W        W 7806  22.951  42.908  13.105
42580W        W 7807  18.526  23.317   4.421
42581W        W 7808  17.503  32.055   3.426
42582W        W 7809  30.713  36.420   3.352
42583W        W 7810  31.823  43.863   0.452
42584W        W 7811   4.179   8.694   1.222
42585W        W 7812  41.779  11.400   2.389
42586W        W 7813   5.959  27.652   0.158
42587W        W 7814  36.554  21.165   1.445
42588W        W 7815  21.686  39.084  13.327
42589W        W 7816   9.750  31.556  13.193
42590W        W 7817  43.256   0.215   0.025
42591W        W 7818   2.138  40.838  12.093
42592W        W 7819   4.709  35.454  10.673
42593W        W 7820   8.943  40.078  13.115
42594W        W 7821  35.517  15.781  10.860
42595W        W 7822   4.306  27.886  13.245
42596W        W 7823  19.613  43.363  12.002
42597W        W 7824  44.125  23.983  11.558
42598W        W 7825   8.735  12.821   4.811
42599W        W 7826   8.239  30.436  11.050
42600W        W 7827  34.679  25.506  14.377
42601W        W 7828  36.867  29.921   4.860
42602W        W 7829  15.465  15.124  10.727
42603W        W 7830  19.204  29.395   3.365
42604W        W 7831   2.199   2.910   3.190
42605W        W 7832  25.788  15.093  10.637
42606W        W 7833  17.711   2.889   0.156
42607W        W 7834  17.112  44.712   3.662
42608W        W 7835   7.659  16.798   0.925
42609W        W 7836  17.561   0.467  11.275
42610W        W 7837  12.842  26.673  14.391
42611W        W 7838  23.078  21.050   4.559
42612W        W 7839  18.278   9.754   2.564
42613W        W 7840  29.596  25.978   2.740
42614W        W 7841  18.138  39.001  10.653
42615W        W 7842  28.669   5.763   1.974
42616W        W 7843  14.683   4.929  13.833
42617W        W 7844   5.856  42.977  10.982
42618W        W 7845  12.736  23.106   4.587
42619W        W 7846  18.746   0.054   0.703
42620W        W 7847  27.161  42.426   3.968
42621W        W 7848   7.960  32.339   4.935
42622W        W 7849  22.655  16.164  11.275
42623W        W 7850  14.552  33.411   1.838
42624W        W 7851  29.310   2.535  11.032
42625W        W 7852  24.158  18.723  11.981
42626W        W 7853   8.752  33.980   4.545
42627W        W 7854  14.809  32.585   2.316
42628W        W 7855  27.868  17.563  13.431
42629W        W 7856  12.627  15.574  14.342
42630W        W 7857  42.454  31.562  14.053
42631W        W 7858  26.228  38.334  12.033
42632W        W 7859  24.461  27.567  12.519
42633W        W 7860   6.127  16.511   0.260
42634W        W 7861  28.484   0.186  12.803
42635W        W 7862  20.512  13.088  14.794
42636W        W 7863  44.535  37.786   1.816
42637W        W 7864  29.018  41.214  11.498
42638W        W 7865  22.159  38.318  10.765
42639W        W 7866  14.389  13.875   4.215
42640W        W 7867  14.726  26.074  14.284
42641W        W 7868  15.811  41.555  11.763
42642W        W 7869  10.124  33.813  14.292
42643W        W 7870  32.176  19.598   0.831
42644W        W 7871  25.340  15.624   2.392
42645W        W 7872  43.271  18.931  12.532
42646W        W 7873  41.196  16.623  14.266
42647W        W 7874  12.233   5.418  12.611
42648W        W 7875  26.450  28.415   1.758
42649W        W 7876  28.898  23.080  11.573
42650W        W 7877  37.315  22.548  10.772
42651W        W 7878   3.762  26.903  14.393
42652W        W 7879  26.237  27.789   3.679
42653W        W 7880   0.016  13.258  10.848
42654W        W 7881  12.598  15.402   1.899
42655W        W 7882  15.108  20.164   0.518
42656W        W 7883   1.764  42.031  13.903
42657W        W 7884  40.823  24.060  10.978
42658W        W 7885  18.812   2.668   0.628
42659W        W 7886  16.978  28.700  12.903
42660W        W 7887   2.570   9.257  14.079
42661W        W 7888  30.536  44.065   3.147
42662W        W 7889  40.292  39.983   4.603
42663W        W 7890  37.585  40.337   0.208
42664W        W 7891  34.355  24.563  10.734
42665W        W 7892  34.149  41.979  12.991
42666W        W 7893  27.614  26.453  10.720
42667W        W 7894  18.700  18.614   5.062
42668W        W 7895   3.427   0.864   1.621
42669W        W 7896  28.914  27.879   1.273
42670W        W 7897  21.810  23.759   3.561
42671W        W 7898  25.879  10.647  12.902
42672W        W 7899  40.009  14.030   3.679
42673W        W 7900  32.981  30.503   2.313
42674W        W 7901  17.314   6.281  14.558
42675W        W 7902  27.429   9.353  14.430
42676W        W 7903  25.741   1.984   3.769
42677W        W 7904  29.800   3.369   4.392
42678W        W 7905  34.485  25.475  12.731
42679W        W 7906  15.539  13.670  11.182
42680W        W 7907  42.809   7.788  13.260
42681W        W 7908  13.078   7.385   3.497
42682W        W 7909   0.299  25.578   3.365
42683W        W 7910   3.723  31.090   3.111
42684W        W 7911   9.642  35.418  14.947
42685W        W 7912  38.865  27.884  11.069
42686W        W 7913   3.979  26.544   1.252
42687W        W 7914  20.759  22.582   4.727
42688W        W 7915  15.789  27.968   0.170
42689W        W 7916  18.595  23.979  12.964
42690W        W 7917  29.010   0.170  12.561
42691W        W 7918  38.370  21.615  14.670
42692W        W 7919  33.324  43.888   3.149
42693W        W 7920  15.828  41.840  14.456
42694W        W 7921  40.004   3.929   0.946
42695W        W 7922  10.860   4.143  13.528
42696W        W 7923   8.418   3.459  13.586
42697W        W 7924  19.375   0.411   1.514
42698W        W 7925  28.382   2.390   4.103
42699W        W 7926   9.162   5.825   0.228
42700W        W 7927   4.556  36.591  10.800
42701W        W 7928   9.013  21.847  12.422
42702W        W 7929  29.970  36.118   2.201
42703W        W 7930  28.166  23.313   1.709
42704W        W 7931   0.932  37.988   4.073
42705W        W 7932  14.745  34.139   0.355
42706W        W 7933  41.110  19.473  12.451
42707W        W 7934  13.651  17.032  10.986
42708W        W 7935  28.825  15.051   3.233
42709W        W 7936  24.006  20.027   1.190
42710W        W 7937  20.510  44.396   3.206
42711W        W 7938  23.022   7.672   4.651
42712W        W 7939  15.360  21.941  12.329
42713W        W 7940  14.636  43.344  12.159
42714W        W 7941  25.115   4.380  14.904
42715W        W 7942   4.541  14.239  11.163
42716W        W 7943  13.547  21.174  11.145
42717W        W 7944  44.756  36.975  11.096
42718W        W 7945  26.757  20.389  13.512
42719W        W 7946   9.161   3.454   0.829
42720W        W 7947   1.398  36.505   0.379
42721W        W 7948  32.650  44.062  12.822
42722W        W 7949  30.647   1.934  12.500
42723W        W 7950   5.794  34.874   2.875
42724W        W 7951  15.764   2.695   1.077
42725W        W 7952  44.866  29.137   0.806
42726W        W 7953  24.240  24.697  12.713
42727W        W 7954  31.573  38.830   2.800
42728W        W 7955  20.533  18.780  13.440
42729W        W 7956  44.107   0.448   3.247
42730W        W 7957  41.103  10.281   0.808
42731W        W 7958  23.922   0.578  12.064
42732W        W 7959  14.170   1.176   2.270
42733W        W 7960  10.294   1.668   1.198
42734W        W 7961  31.385  35.888   3.679
42735W        W 7962  38.011   9.682  13.552
42736W        W 7963  18.153  29.629  14.446
42737W        W 7964  44.962  18.622  14.893
42738W        W 7965   5.846  35.329   3.104
42739W        W 7966   0.236  26.467  14.481
42740W        W 7967  22.713   5.747   4.678
42741W        W 7968  27.459  42.409   0.952
42742W        W 7969  43.826  19.154   1.876
42743W        W 7970  34.824  27.736  13.360
42744W        W 7971  24.963  18.154   1.654
42745W        W 7972  36.237  19.491   4.478
42746W        W 7973  36.279  26.946   3.665
42747W        W 7974   3.900   8.290   2.872
42748W        W 7975  40.966  31.732  14.426
42749W        W 7976   1.304  38.070   1.193
42750W        W 7977  16.726  17.561   0.727
42751W        W 7978  32.508  25.678   0.526
42752W        W 7979   1.790  18.002   0.698
42753W        W 7980   1.841  29.188   2.399
42754W        W 7981  27.051  34.109  13.575
42755W        W 7982  18.340  26.936   2.431
42756W        W 7983  32.390  15.607   4.119
42757W        W 7984   0.401   8.463  13.366
42758W        W 7985  17.326  39.962   9.634
42759W        W 7986   1.644  33.664   2.120
42760W        W 7987  27.900   9.541   3.007
42761W        W 7988  11.658  28.669   4.513
42762W        W 7989  26.557  40.576   2.772
42763W        W 7990  37.615  41.792  12.759
42764W        W 7991  21.993  11.451   2.463
42765W        W 7992  21.835  28.524  14.495
42766W        W 7993  17.208  37.811  14.247
42767W        W 7994  25.442  38.539  14.863
42768W        W 7995  26.366   9.501   1.578
42769W        W 7996  27.108   2.370   4.535
42770W        W 7997  33.530  23.612   1.947
42771W        W 7998  23.734   3.831  11.630
42772W        W 7999  35.164  20.469   4.752
42773W        W 8000   0.763   3.900   3.706
42774W        W 8001   7.226  44.914  14.395
42775W        W 8002  14.788  15.162  13.812
42776W        W 8003  15.776   9.077  12.144
42777W        W 8004  24.818  43.790   2.371
42778W        W 8005  41.549  21.178  12.412
42779W        W 8006  35.125   3.862  13.979
42780W        W 8007  38.480  31.623   1.039
42781W        W 8008  21.912  43.383  11.143
42782W        W 8009   2.162   9.958  10.684
42783W        W 8010  10.390   6.811   0.240
42784W        W 8011  35.673  13.796  11.712
42785W        W 8012  25.633  12.816  14.946
42786W        W 8013  31.029  18.091   9.445
42787W        W 8014  23.174  39.791  13.363
42788W        W 8015  29.645   6.597  11.945
42789W        W 8016  20.516  41.828  13.245
42790W        W 8017  43.405  29.054  13.843
42791W        W 8018   8.645   6.682  14.760
42792W        W 8019  42.537  25.192   3.647
42793W        W 8020  43.315  27.161   1.756
42794W        W 8021  42.041  43.421   3.698
42795W        W 8022  12.600  25.948   4.298
42796W        W 8023  33.145  37.125   2.606
42797W        W 8024   3.320  16.232  14.522
42798W        W 8025  34.296  24.580  14.285
42799W        W 8026  34.838  40.254   0.392
42800W        W 8027  32.392  35.738   5.122
42801W        W 8028  24.104   5.564   0.376
42802W        W 8029  36.089  25.550   0.539
42803W        W 8030  39.406  37.199   2.100
42804W        W 8031   9.209  44.151  12.887
42805W        W 8032  36.459  15.446   4.854
42806W        W 8033  34.272  26.445   1.076
42807W        W 8034  34.190  24.453   0.851
42808W        W 8035   4.044  42.223   1.449
42809W        W 8036  42.930  40.358   2.526
42810W        W 8037  22.652   0.735  14.810
42811W        W 8038  31.148  12.747   2.289
42812W        W 8039  26.455  28.096   2.220
42813W        W 8040  27.816  34.950   1.495
42814W        W 8041  18.322  35.008   2.243
42815W        W 8042   8.624  20.270   0.455
42816W        W 8043  15.606  44.496  10.067
42817W        W 8044  29.961  11.805  10.620
42818W        W 8045  27.719  18.105   0.998
42819W        W 8046  22.966  30.515   1.568
42820W        W 8047  27.190   8.953   2.509
42821W        W 8048   3.345  38.451  14.353
42822W        W 8049  19.492  37.619  13.444
42823W        W 8050  13.207  17.994  12.590
42824W        W 8051  11.036  13.582   0.344
42825W        W 8052   6.309  11.139   2.987
42826W        W 8053  21.959  26.660   1.874
42827W        W 8054   9.662  17.510  14.563
42828W        W 8055  39.920  27.899   1.352
42829W        W 8056  35.937  32.305   1.280
42830W        W 8057   5.868  17.508   2.812
42831W        W 8058  38.385  15.155   2.782
42832W        W 8059  30.553   3.418   1.755
42833W        W 8060  34.460   8.865   0.868
42834W        W 8061  24.808  33.546  13.300
42835W        W 8062  24.735  11.403  13.429
42836W        W 8063  37.872  19.358  11.072
42837W        W 8064  14.429  38.908  14.328
42838W        W 8065  41.062  26.241   0.797
42839W        W 8066  26.183   6.152  11.388
42840W        W 8067  22.301  18.772   2.420
42841W        W 8068  27.447  44.593   3.202
42842W        W 8069   6.371  23.698   1.520
42843W        W 8070  27.033  17.022  13.731
42844W        W 8071  44.052  39.771   1.433
42845W        W 8072   1.478  39.517   0.780
42846W        W 8073  40.916  30.092  10.463
42847W        W 8074   4.444  11.170   2.725
42848W        W 8075  31.485  15.583  13.440
42849W        W 8076  15.074  13.593  13.336
42850W        W 8077   7.892   1.334   0.727
42851W        W 8078  13.065  38.507   4.293
42852W        W 8079  43.343  22.546  13.070
42853W        W 8080  23.738  24.561  13.492
42854W        W 8081   1.714  37.564  12.359
42855W        W 8082  13.048  18.461   0.514
42856W        W 8083  27.002  20.347  13.042
42857W        W 8084  39.962   8.463  10.579
42858W        W 8085  32.011  20.152   2.286
42859W        W 8086  33.544  38.668  12.950
42860W        W 8087   4.331  10.208  10.517
42861W        W 8088   0.332  26.033  14.855
42862W        W 8089  34.828  31.600  12.923
42863W        W 8090  21.411  39.304   3.599
42864W        W 8091   3.689   4.611   0.081
42865W        W 8092  16.502   3.459  13.587
42866W        W 8093  39.570   2.301   3.043
42867W        W 8094  44.992  13.696  13.490
42868W        W 8095  33.338  38.053  11.284
42869W        W 8096  43.490  22.463  10.716
42870W        W 8097  41.875  36.517   2.343
42871W        W 8098  15.739  29.545   3.278
42872W        W 8099  19.979  27.206   4.147
42873W        W 8100  32.575  33.854  14.049
42874W        W 8101  43.812  37.399  14.974
42875W        W 8102  32.610  30.677  11.118
42876W        W 8103   5.707  23.658   4.695
42877W        W 8104  16.805   6.296   1.936
42878W        W 8105  17.535  11.147  12.515
42879W        W 8106  18.061  12.734  11.236
42880W        W 8107  12.672   4.004   0.412
42881W        W 8108  20.663  39.557  13.025
42882W        W 8109  24.090  32.790   1.872
42883W        W 8110  18.573  29.922  12.967
42884W        W 8111  10.235   4.271   0.271
42885W        W 8112  25.049  38.427  10.751
42886W        W 8113  21.282   3.660  11.499
42887W        W 8114  33.864  27.952  12.915
42888W        W 8115   3.234  16.612   1.472
42889W        W 8116   0.172  20.872  13.067
42890W        W 8117  33.041  41.464  13.511
42891W        W 8118  38.430   5.227   1.499
42892W        W 8119  27.282   2.260  10.156
42893W        W 8120   1.253   2.524  12.835
42894W        W 8121  22.140  13.741   2.169
42895W        W 8122  37.793  41.432  14.892
42896W        W 8123  14.844  39.144  14.138
42897W        W 8124  17.622  41.208   3.607
42898W        W 8125  37.666  10.240  12.276
42899W        W 8126  39.676   7.439   0.867
42900W        W 8127  11.336  43.611   0.930
42901W        W 8128  40.464   2.814   4.010
42902W        W 8129  29.559   6.765   1.799
42903W        W 8130   5.457  35.273   4.715
42904W        W 8131   0.947  12.402   0.248
42905W        W 8132  34.781  32.612   4.668
42906W        W 8133   4.754  24.181  14.427
42907W        W 8134  29.559  10.810  12.195
42908W        W 8135   1.524  23.652   3.185
42909W        W 8136   4.475  14.474   3.202
42910W        W 8137  10.284  21.343   1.854
42911W        W 8138  37.747  44.513  12.502
42912W        W 8139  11.765   8.336  10.229
42913W        W 8140  19.768  22.137  13.837
42914W        W 8141  36.767  22.252   3.965
42915W        W 8142  28.918  35.025  11.144
42916W        W 8143   5.423   3.486   1.460
42917W        W 8144   9.399  22.994   3.939
42918W        W 8145  41.724  25.683  12.067
42919W        W 8146  12.253  31.576   3.155
42920W        W 8147  24.255   7.170   4.650
42921W        W 8148  37.014  33.461   3.592
42922W        W 8149  27.263   4.971   2.678
42923W        W 8150  30.233  10.805   1.675
42924W        W 8151  40.003  34.280   3.281
42925W        W 8152  29.368   6.817  13.710
42926W        W 8153   1.940  21.423   3.318
42927W        W 8154  21.830   2.477   2.400
42928W        W 8155  37.077  40.983  11.978
42929W        W 8156  43.781   5.862   1.341
42930W        W 8157   4.681  19.652  11.881
42931W        W 8158  37.944  41.613   5.411
42932W        W 8159  22.271  10.021  14.323
42933W        W 8160   2.327   7.265   1.793
42934W        W 8161  35.160  32.011   4.398
42935W        W 8162   5.308   9.929  13.989
42936W        W 8163  14.009  14.820   2.690
42937W        W 8164  22.954  37.025  13.775
42938W        W 8165   3.442  34.725  11.398
42939W        W 8166  18.989  14.769  11.320
42940W        W 8167  35.773  31.424   2.373
42941W        W 8168  19.575  11.660   1.208
42942W        W 8169  19.705  34.807   0.958
42943W        W 8170  36.920  27.360   1.239
42944W        W 8171  10.668   9.266   4.450
42945W        W 8172  28.588  37.784   2.951
42946W        W 8173  20.084  14.079  10.874
42947W        W 8174  29.385  42.285  13.168
42948W        W 8175  33.853  37.972  13.340
42949W        W 8176  38.074  13.154   1.412
42950W        W 8177   3.346  39.888  11.497
42951W        W 8178   6.079  27.145   0.986
42952W        W 8179  19.034  25.037   3.286
42953W        W 8180  17.179   4.823   2.591
42954W        W 8181  14.123  13.174   3.559
42955W        W 8182   2.382   3.758  14.228
42956W        W 8183  13.508   6.179   0.283
42957W        W 8184   3.203  22.064  10.068
42958W        W 8185   7.755  41.035   0.275
42959W        W 8186  34.393  19.416   0.553
42960W        W 8187  13.844  30.225  12.967
42961W        W 8188  13.710  35.537   1.393
42962W        W 8189   7.766  42.849   4.647
42963W        W 8190   4.894  37.862  11.662
42964W        W 8191  16.638  40.397   1.702
42965W        W 8192   8.943  32.414  10.031
42966W        W 8193  20.805   7.179   1.074
42967W        W 8194   6.395  41.567  10.439
42968W        W 8195  43.962  29.840   4.726
42969W        W 8196  16.402  34.344   2.072
42970W        W 8197   0.383  34.366  14.451
42971W        W 8198  17.038  15.978  11.229
42972W        W 8199  34.059  26.935  14.119
42973W        W 8200   8.165  19.508   1.313
42974W        W 8201  34.012  18.444   4.166
42975W        W 8202  43.779  11.839   1.447
42976W        W 8203  18.508  44.380  12.039
42977W        W 8204  37.997  13.673   3.177
42978W        W 8205  38.527  29.539  11.706
42979W        W 8206   3.446  18.758  14.456
42980W        W 8207  42.341  39.905  11.730
42981W        W 8208   5.381  22.200   2.250
42982W        W 8209  27.202   9.231  12.242
42983W        W 8210  42.108  41.072  14.919
42984W        W 8211  13.324  26.867   3.868
42985W        W 8212  41.259  28.078   0.762
42986W        W 8213  35.341  19.628   1.944
42987W        W 8214  22.054  31.950   1.955
42988W        W 8215  41.353  30.688   1.270
42989W        W 8216   2.371   7.298   2.730
42990W        W 8217  32.542   1.813  14.414
42991W        W 8218  11.638   0.997   0.065
42992W        W 8219   6.278  23.411  12.866
42993W        W 8220  14.119  11.550  14.766
42994W        W 8221  43.314   6.341   0.486
42995W        W 8222  41.942  10.645   3.576
42996W        W 8223  13.773   6.005  12.664
42997W        W 8224  13.203  19.677  13.342
42998W        W 8225  29.637   1.662   3.146
42999W        W 8226  38.657  44.757   4.216
43000W        W 8227  31.126  28.978  14.852
43001W        W 8228  31.647  28.996   3.610
43002W        W 8229   7.396  41.949   3.274
43003W        W 8230  28.640  18.092   3.201
43004W        W 8231  38.188  20.876  12.096
43005W        W 8232  11.382  18.050  12.951
43006W        W 8233  29.412  11.137   1.618
43007W        W 8234  23.476  18.175   0.876
43008W        W 8235  25.248  40.504  14.737
43009W        W 8236  16.232  34.304  10.924
43010W        W 8237  25.941  16.056  12.451
43011W        W 8238  38.976  17.097  12.540
43012W        W 8239  25.585  40.981   3.919
43013W        W 8240  44.297   4.688  13.723
43014W        W 8241  12.231  41.962  12.953
43015W        W 8242  13.625  29.073   3.164
43016W        W 8243   0.859  16.192   4.784
43017W        W 8244   2.000  33.127   1.361
43018W        W 8245  22.584  44.241   4.710
43019W        W 8246  22.411   4.839  12.082
43020W        W 8247  12.524  18.260  10.968
43021W        W 8248   0.040   6.787   0.343
43022W        W 8249  31.941   7.141  12.470
43023W        W 8250  21.120   0.826   4.536
43024W        W 8251  41.175   5.219  13.763
43025W        W 8252  17.683   6.720  14.561
43026W        W 8253  41.929   9.088  10.369
43027W        W 8254  19.273  20.323   3.802
43028W        W 8255   1.204  38.381  13.150
43029W        W 8256  16.200   5.603   1.853
43030W        W 8257  35.590  28.950   2.192
43031W        W 8258  25.870  31.435   4.660
43032W        W 8259  25.817   3.622   2.953
43033W        W 8260  12.557  28.957   1.616
43034W        W 8261  17.066  13.721  11.369
43035W        W 8262  26.421  12.839  14.491
43036W        W 8263   9.841  25.711   1.218
43037W        W 8264  40.286  10.961   3.261
43038W        W 8265  40.844  12.875  12.838
43039W        W 8266  12.385  23.298   4.088
43040W        W 8267  18.772   9.585   2.679
43041W        W 8268  38.956  27.474   0.621
43042W        W 8269  33.966  11.606   1.209
43043W        W 8270  31.478   4.472   3.595
43044W        W 8271   7.881  38.364   4.642
43045W        W 8272  35.452  43.258  11.552
43046W        W 8273   9.170   9.702  10.672
43047W        W 8274  20.935  34.927  12.814
43048W        W 8275  22.122  21.555  10.892
43049W        W 8276  29.839   8.421   2.353
43050W        W 8277  24.174   8.768  11.529
43051W        W 8278  24.700  33.295   3.662
43052W        W 8279  28.058  10.673  14.853
43053W        W 8280  15.058  21.819   0.723
43054W        W 8281  32.809  27.640   2.013
43055W        W 8282  24.456  25.001  11.285
43056W        W 8283  14.127  22.459  14.350
43057W        W 8284   7.746   1.808  13.839
43058W        W 8285  32.358   6.659  13.305
43059W        W 8286   3.877   8.830  11.146
43060W        W 8287  11.507  27.092   0.963
43061W        W 8288  18.806  33.870   1.107
43062W        W 8289  28.050  39.227   1.511
43063W        W 8290  14.871   1.809  14.517
43064W        W 8291  25.566  28.538  10.697
43065W        W 8292   0.537  22.028  12.039
43066W        W 8293  10.163   4.663   0.641
43067W        W 8294   5.828   0.533  11.139
43068W        W 8295  30.175  35.286  13.038
43069W        W 8296  11.217  22.843   3.996
43070W        W 8297  17.324  44.805   4.496
43071W        W 8298  13.707  12.279  13.609
43072W        W 8299  22.949  12.301  12.688
43073W        W 8300  15.636  36.267   1.420
43074W        W 8301  25.144  15.246   2.036
43075W        W 8302  13.296  42.756  12.026
43076W        W 8303  34.895  32.904   3.844
43077W        W 8304  13.555  12.095   0.135
43078W        W 8305  18.651  12.708  14.024
43079W        W 8306  14.829  24.504   2.805
43080W        W 8307  15.660   4.838   0.455
43081W        W 8308  15.580  12.356   1.302
43082W        W 8309  20.453  32.357  13.811
43083W        W 8310  33.782  33.251  13.218
43084W        W 8311  14.992   1.083   2.189
43085W        W 8312  37.072  20.772  14.452
43086W        W 8313  18.810   2.229   1.227
43087W        W 8314  33.540  13.060  13.088
43088W        W 8315  14.512  19.518   5.187
43089W        W 8316  43.809   1.865   3.964
43090W        W 8317   2.023  25.502  13.095
43091W        W 8318  18.499  19.064  14.382
43092W        W 8319  43.643  18.039   4.081
43093W        W 8320  33.797   4.855   2.408
43094W        W 8321  19.082   3.870  14.344
43095W        W 8322   5.660   3.917   1.290
43096W        W 8323  43.235  44.736   4.102
43097W        W 8324  36.125   8.383   0.187
43098W        W 8325   8.357  15.618   3.014
43099W        W 8326   7.286  34.544   1.528
43100W        W 8327  25.524  27.025  11.180
43101W        W 8328  14.934  30.044  12.034
43102W        W 8329  29.706  17.257   0.269
43103W        W 8330  20.024  14.777  12.945
43104W        W 8331  13.512  22.303   5.086
43105W        W 8332   3.256   6.515  14.418
43106W        W 8333  16.825   3.367  10.765
43107W        W 8334  29.466  25.718  12.029
43108W        W 8335  10.728  25.497  12.916
43109W        W 8336  35.167   7.683   1.361
43110W        W 8337  40.972  22.294  11.530
43111W        W 8338  13.559   7.362   3.715
43112W        W 8339  18.621  16.312   3.370
43113W        W 8340   1.393  16.522  10.474
43114W        W 8341  44.155  14.589  11.084
43115W        W 8342   7.089  35.118   3.484
43116W        W 8343  21.172  28.994  14.831
43117W        W 8344  41.215   5.139  12.492
43118W        W 8345  25.082   6.646   1.660
43119W        W 8346  42.262  11.296  12.553
43120W        W 8347  40.031   5.768  14.170
43121W        W 8348   2.670  38.955  14.960
43122W        W 8349  17.112   0.213  12.027
43123W        W 8350  31.656  42.672  11.654
43124W        W 8351  42.944   8.442  10.320
43125W        W 8352  16.261  24.352  12.020
43126W        W 8353  12.060  38.854  13.952
43127W        W 8354  32.141  11.203   3.174
43128W        W 8355  36.519   7.603   0.904
43129W        W 8356  15.287  37.558  12.013
43130W        W 8357  33.969  33.955   0.766
43131W        W 8358   4.689  37.034  10.570
43132W        W 8359  29.511  13.338  11.924
43133W        W 8360   6.061  19.432   4.948
43134W        W 8361  32.611  15.750  10.714
43135W        W 8362  23.473  10.788  11.397
43136W        W 8363   4.179   3.744  14.789
43137W        W 8364   0.176  27.431   1.822
43138W        W 8365   6.540  25.486   3.348
43139W        W 8366  29.139  43.071   0.263
43140W        W 8367  15.366  24.304  12.683
43141W        W 8368  42.805  11.123  12.170
43142W        W 8369  41.578   2.280   0.321
43143W        W 8370  40.290  19.734  14.375
43144W        W 8371  16.745   9.823  12.318
43145W        W 8372   9.383   9.951   4.853
43146W        W 8373  34.264  14.665   2.180
43147W        W 8374  10.906   4.217  14.072
43148W        W 8375  10.946  26.742  11.180
43149W        W 8376  26.099  39.487   4.531
43150W        W 8377   3.107  11.696   2.873
43151W        W 8378   8.781  18.721  13.034
43152W        W 8379  28.767  29.402   2.787
43153W        W 8380  33.810  22.134   3.356
43154W        W 8381  15.289  15.062   3.171
43155W        W 8382  35.546  43.848   2.904
43156W        W 8383   7.683  13.201  13.691
43157W        W 8384  22.897  41.977  13.430
43158W        W 8385  17.698  43.156  14.072
43159W        W 8386  18.801  31.905  11.635
43160W        W 8387  18.015   8.858   4.001
43161W        W 8388  23.741  20.133  11.548
43162W        W 8389  28.835  12.257   1.824
43163W        W 8390  15.789  41.415  10.278
43164W        W 8391  31.018  20.581   0.807
43165W        W 8392  36.616   7.219   1.823
43166W        W 8393   6.514  29.606   4.157
43167W        W 8394  16.130  25.606  12.188
43168W        W 8395  34.969  36.010   2.649
43169W        W 8396  41.295   4.106   0.821
43170W        W 8397  14.666   8.818  10.762
43171W        W 8398  13.688   8.765   1.222
43172W        W 8399  10.621  16.129  14.565
43173W        W 8400   4.876  44.527   0.307
43174W        W 8401  30.406  34.066  14.137
43175W        W 8402   2.228  29.988  14.820
43176W        W 8403  32.536  33.358  14.987
43177W        W 8404  37.434  40.975  13.981
43178W        W 8405  37.827  12.779   1.128
43179W        W 8406  32.421  15.618  13.426
43180W        W 8407  20.309   6.593   4.087
43181W        W 8408  23.723  32.092   2.712
43182W        W 8409  11.175  44.515   3.177
43183W        W 8410   4.013  36.852   3.278
43184W        W 8411  38.254  20.055   4.939
43185W        W 8412   0.212  27.931   1.732
43186W        W 8413   7.733  19.180  10.951
43187W        W 8414  13.540   3.386   3.090
43188W        W 8415  14.123   2.200   2.173
43189W        W 8416  39.527  15.469   0.231
43190W        W 8417  44.582  34.975  13.396
43191W        W 8418  10.900  13.604   1.220
43192W        W 8419  19.765  38.053  10.874
43193W        W 8420  12.209  18.657   0.418
43194W        W 8421  31.864  13.519  12.960
43195W        W 8422  26.378  35.772  13.878
43196W        W 8423  44.608  37.908  14.595
43197W        W 8424   1.433  37.064  10.942
43198W        W 8425   5.312  33.561   0.280
43199W        W 8426  38.459   3.709  14.962
43200W        W 8427  37.485   7.673  11.280
43201W        W 8428   8.795  34.335   3.613
43202W        W 8429  29.471  12.683   2.339
43203W        W 8430  14.273  20.412   1.680
43204W        W 8431  22.714  19.502   2.182
43205W        W 8432   6.856  31.104   3.100
43206W        W 8433   8.882  27.496   1.886
43207W        W 8434  13.327  36.866  12.035
43208W        W 8435  40.417  42.838  10.914
43209W        W 8436  20.204  27.479   0.689
43210W        W 8437  28.946  18.558  11.391
43211W        W 8438  41.000  23.641   3.486
43212W        W 8439  17.612   1.893  14.658
43213W        W 8440  34.123  10.539   3.698
43214W        W 8441  22.838  17.842   1.893
43215W        W 8442   4.762  39.209  13.374
43216W        W 8443  13.550   9.528   1.197
43217W        W 8444   8.428   5.738   1.950
43218W        W 8445  27.340  23.104  12.903
43219W        W 8446  38.708  31.939  14.294
43220W        W 8447  15.811   0.544  11.673
43221W        W 8448  17.312  29.353   3.344
43222W        W 8449   2.865  20.483  12.062
43223W        W 8450   8.206   3.456   0.891
43224W        W 8451  29.952  18.180  12.610
43225W        W 8452  38.406  10.693   1.354
43226W        W 8453  13.709  14.302  13.929
43227W        W 8454  25.731   5.984   3.686
43228W        W 8455  38.779  42.115  11.666
43229W        W 8456  40.372  17.522   0.008
43230W        W 8457  43.618  44.931   0.816
43231W        W 8458  18.947   7.261   1.224
43232W        W 8459  13.725  24.543  11.304
43233W        W 8460   3.288  41.267   4.228
43234W        W 8461   4.666   0.430   1.725
43235W        W 8462  41.040  18.561   1.861
43236W        W 8463  19.672  14.793   3.242
43237W        W 8464  21.081  23.012  14.839
43238W        W 8465   4.867  31.765  14.421
43239W        W 8466  25.082  39.344   4.092
43240W        W 8467   1.125  36.881  13.339
43241W        W 8468  43.511  16.583  11.747
43242W        W 8469  14.059  17.128   2.238
43243W        W 8470  39.482  38.232  14.465
43244W        W 8471  12.608  31.644   0.748
43245W        W 8472   9.678  41.927  14.545
43246W        W 8473   0.997  42.406  13.358
43247W        W 8474  10.192  24.617  11.814
43248W        W 8475  20.188  38.052  14.858
43249W        W 8476  19.671  38.590   4.136
43250W        W 8477  20.611  23.023   1.930
43251W        W 8478  22.624  44.313  13.123
43252W        W 8479  34.663   0.662  10.723
43253W        W 8480  39.271  30.605  12.799
43254W        W 8481   6.861  36.707  11.228
43255W        W 8482  18.308   8.267  13.551
43256W        W 8483  40.653  21.417  13.059
43257W        W 8484   5.758  42.583   0.724
43258W        W 8485   4.913  20.149   2.641
43259W        W 8486  29.530  15.174  13.014
43260W        W 8487  36.996  40.846   2.279
43261W        W 8488  28.167   3.347  10.178
43262W        W 8489  22.151   2.391   2.818
43263W        W 8490  34.968  11.488   5.166
43264W        W 8491   8.365  30.047  10.725
43265W        W 8492  24.514  27.088   3.105
43266W        W 8493   3.837   1.882  10.245
43267W        W 8494  30.637   5.929   3.984
43268W        W 8495  10.699  15.836  12.956
43269W        W 8496  12.937   7.112   2.332
43270W        W 8497  39.079  12.362  14.223
43271W        W 8498  37.177  36.249   4.708
43272W        W 8499  27.388  38.516   9.752
43273W        W 8500  32.173  30.006  14.881
43274W        W 8501  41.152  42.319   4.483
43275W        W 8502  15.138  18.494   1.260
43276W        W 8503  30.815  37.226   2.775
43277W        W 8504  38.923  38.572   0.703
43278W        W 8505  13.273  42.976   3.728
43279W        W 8506  21.197  19.586   3.154
43280W        W 8507  15.491  10.275   3.842
43281W        W 8508   0.804   9.281   4.109
43282W        W 8509  28.241   0.237   4.732
43283W        W 8510  26.154  20.466  14.401
43284W        W 8511  29.127  43.419   1.363
43285W        W 8512  37.562   7.423  10.432
43286W        W 8513   0.835  16.318  12.560
43287W        W 8514   8.865   6.794  12.436
43288W        W 8515   6.666   1.440  14.837
43289W        W 8516  38.950  18.129   1.165
43290W        W 8517  24.706  35.013  14.202
43291W        W 8518  23.478  28.599   0.387
43292W        W 8519  12.743   2.163   1.088
43293W        W 8520  30.992  23.205  11.916
43294W        W 8521  41.025  11.035   4.809
43295W        W 8522  32.504  13.884  14.230
43296W        W 8523   7.205  20.109   4.094
43297W        W 8524  37.302  29.195   3.286
43298W        W 8525  25.563  39.536   4.322
43299W        W 8526   8.471  15.448  10.264
43300W        W 8527  12.558  40.118  12.174
43301W        W 8528  23.342  42.586  13.919
43302W        W 8529  17.575  38.907   0.407
43303W        W 8530   2.697  44.441  11.875
43304W        W 8531   3.516   8.661   3.331
43305W        W 8532   2.824   6.388   3.257
43306W        W 8533   6.706   8.603  14.435
43307W        W 8534  30.552  21.425  12.576
43308W        W 8535  43.042  24.498   0.664
43309W        W 8536  30.165  16.472  14.957
43310W        W 8537  25.694  24.054   2.406
43311W        W 8538  14.821   2.260  11.780
43312W        W 8539   2.420   9.833   3.018
43313W        W 8540  30.175  23.048   2.938
43314W        W 8541  34.506  33.956   5.009
43315W        W 8542  18.622  31.071   1.634
43316W        W 8543  24.808  12.418   2.978
43317W        W 8544  21.808   0.707  12.523
43318W        W 8545   3.861  28.956  11.577
43319W        W 8546  20.255   8.704  13.445
43320W        W 8547  31.024  25.998   2.709
43321W        W 8548   4.561  28.062   4.515
43322W        W 8549  18.640  24.421   4.514
43323W        W 8550  26.808  10.648  12.065
43324W        W 8551  32.852  25.842   2.285
43325W        W 8552  34.321  26.678   3.196
43326W        W 8553  43.055  15.921  12.821
43327W        W 8554  27.567   7.245  10.678
43328W        W 8555   2.014  38.393  13.061
43329W        W 8556  30.578  11.868   0.363
43330W        W 8557   4.827  20.489   1.223
43331W        W 8558  30.597  16.157  13.807
43332W        W 8559  35.282   5.328  11.634
43333W        W 8560  12.245  19.378  12.405
43334W        W 8561   8.385  34.880  13.944
43335W        W 8562  19.055  37.657  11.451
43336W        W 8563  43.959  41.032   3.073
43337W        W 8564  25.304  20.122   5.039
43338W        W 8565  43.933  17.390   4.547
43339W        W 8566   7.744  36.060   4.252
43340W        W 8567  12.589  11.242  10.558
43341W        W 8568   5.188  32.738  14.516
43342W        W 8569   3.326  34.467  13.216
43343W        W 8570   5.808  18.286  13.268
43344W        W 8571  41.900  11.330   0.397
43345W        W 8572  36.585   1.377  12.863
43346W        W 8573  30.595  20.783  13.179
43347W        W 8574   3.928  11.812   1.208
43348W        W 8575  32.483   0.351  14.928
43349W        W 8576   7.675  22.526   2.321
43350W        W 8577  20.046   4.651   0.475
43351W        W 8578   5.965  18.113   2.246
43352W        W 8579  16.025  41.445   4.313
43353W        W 8580  16.885  14.742   0.400
43354W        W 8581  42.360  30.410  13.014
43355W        W 8582   9.957  31.317   1.607
43356W        W 8583  27.518  34.521   3.033
43357W        W 8584   2.950  23.038  13.827
43358W        W 8585  13.057  25.131  14.697
43359W        W 8586  42.273  28.981   0.845
43360W        W 8587  18.598  28.882  14.402
43361W        W 8588  17.095  40.398  12.471
43362W        W 8589  25.527   3.318   0.172
43363W        W 8590  15.430   7.215  11.105
43364W        W 8591  33.884  42.515   4.173
43365W        W 8592  43.866   6.886   0.796
43366W        W 8593  34.506  14.658   4.037
43367W        W 8594  35.587  19.665   4.371
43368W        W 8595  11.201  34.587   1.579
43369W        W 8596  18.538  38.719   2.777
43370W        W 8597  31.276  41.895   4.510
43371W        W 8598   0.354  14.102   4.120
43372W        W 8599  17.269  21.554  11.223
43373W        W 8600  33.376  11.182   0.983
43374W        W 8601  10.916  17.295  11.991
43375W        W 8602   1.673  36.549   4.182
43376W        W 8603  19.334  43.956  10.686
43377W        W 8604  34.824  14.740   1.307
43378W        W 8605  14.684  29.938   2.716
43379W        W 8606  39.104   8.395  10.586
43380W        W 8607  22.581  33.938   3.317
43381W        W 8608   7.267  38.084  13.410
43382W        W 8609  31.384  15.035  12.161
43383W        W 8610  23.085  42.007  11.807
43384W        W 8611   5.775  30.856  14.444
43385W        W 8612   7.338  20.974   2.758
43386W        W 8613  25.096  11.716   2.639
43387W        W 8614  27.407  37.725  11.614
43388W        W 8615  18.036  18.781   3.694
43389W        W 8616  12.793  13.183   2.092
43390W        W 8617  15.605  16.551   4.228
43391W        W 8618  25.711  39.007  12.570
43392W        W 8619   2.618   2.452  14.953
43393W        W 8620  42.536  20.730  14.835
43394W        W 8621   1.422  43.314   2.541
43395W        W 8622   5.476  26.467   4.218
43396W        W 8623  40.751   9.070   1.648
43397W        W 8624   8.289  22.098   2.940
43398W        W 8625  31.092  20.540   2.861
43399W        W 8626  13.578  11.123   0.345
43400W        W 8627  24.078  16.954  12.380
43401W        W 8628  40.769  24.465  11.412
43402W        W 8629  12.158  39.707  14.005
43403W        W 8630   6.799   2.708  14.929
43404W        W 8631   8.136  37.601   2.760
43405W        W 8632  26.496  33.768  14.294
43406W        W 8633   6.831  18.500   1.555
43407W        W 8634   6.345  24.616   1.148
43408W        W 8635  23.311  23.575   4.486
43409W        W 8636  37.283  25.739  13.784
43410W        W 8637   3.490  31.790   2.432
43411W        W 8638  33.843  23.425   1.259
43412W        W 8639  11.305  40.053   2.184
43413W        W 8640  36.418  15.207  13.455
43414W        W 8641  11.093  38.958  14.248
43415W        W 8642  33.684  39.454  11.092
43416W        W 8643  25.097  27.132   4.040
43417W        W 8644  12.343  10.904   3.649
43418W        W 8645   1.656   1.477  12.920
43419W        W 8646  24.389  39.905  12.017
43420W        W 8647  11.807  28.374   1.768
43421W        W 8648  37.785  44.395  10.781
43422W        W 8649  37.744  25.474  14.663
43423W        W 8650  23.971  42.883   2.676
43424W        W 8651  20.641   1.448  13.851
43425W        W 8652  12.701   0.263   3.119
43426W        W 8653  23.290  29.574  11.422
43427W        W 8654   0.282  32.473   1.774
43428W        W 8655  42.007  30.719   2.184
43429W        W 8656   1.940  14.622  12.125
43430W        W 8657  41.599   8.465   0.796
43431W        W 8658  33.119  17.848  13.403
43432W        W 8659  40.770  23.450  12.307
43433W        W 8660  29.712   7.211  14.087
43434W        W 8661  22.713  34.374  12.590
43435W        W 8662  41.297  21.739   0.851
43436W        W 8663  20.575   9.397  14.584
43437W        W 8664  20.810  30.976  11.977
43438W        W 8665  37.726  41.571  14.037
43439W        W 8666  34.124  43.317  14.065
43440W        W 8667   5.105   8.213   0.023
43441W        W 8668   6.822  26.416   0.816
43442W        W 8669  20.574  38.476   4.115
43443W        W 8670  32.085  16.543   0.499
43444W        W 8671  11.933  31.005  13.700
43445W        W 8672  37.357  14.642   2.313
43446W        W 8673  13.328  36.375   4.022
43447W        W 8674  38.774  30.032   4.890
43448W        W 8675  25.239  27.423  13.914
43449W        W 8676  34.606  20.167   1.451
43450W        W 8677  44.200  20.569   1.752
43451W        W 8678  12.360   8.722   1.765
43452W        W 8679   5.571  37.022   1.782
43453W        W 8680  33.638  14.628  11.500
43454W        W 8681  41.922  18.364  11.694
43455W        W 8682  13.959  12.202   2.650
43456W        W 8683  29.923  41.774   2.673
43457W        W 8684  11.285  10.610   0.300
43458W        W 8685  33.249  15.253  12.196
43459W        W 8686  14.888  17.133  14.688
43460W        W 8687  31.388  44.822   0.347
43461W        W 8688   5.108  24.093   1.829
43462W        W 8689  26.065  14.776   3.695
43463W        W 8690   9.686  12.221  13.781
43464W        W 8691  22.662  32.974  14.877
43465W        W 8692  44.777  31.958   4.385
43466W        W 8693  26.650   7.686   2.541
43467W        W 8694  16.812  30.516   4.386
43468W        W 8695  10.579  38.039  14.337
43469W        W 8696  19.652  40.908  13.633
43470W        W 8697  19.544  19.528   3.324
43471W        W 8698  23.726  12.123   4.166
43472W        W 8699  11.221  15.878  11.065
43473W        W 8700  32.617   7.790  10.843
43474W        W 8701   7.348  26.952   4.570
43475W        W 8702  32.859  18.434   4.079
43476W        W 8703  36.123   5.502   1.644
43477W        W 8704  36.601  23.976   2.914
43478W        W 8705   0.594   2.300  13.443
43479W        W 8706  35.965  31.018  14.396
43480W        W 8707  16.475  19.793   1.821
43481W        W 8708  42.029  34.158   2.713
43482W        W 8709  39.295  23.067   4.219
43483W        W 8710  11.713  40.263  14.181
43484W        W 8711  22.405  22.137  14.731
43485W        W 8712  13.780  42.111  13.550
43486W        W 8713   6.708  22.805   3.290
43487W        W 8714  18.378  27.993  12.076
43488W        W 8715  21.206  23.389   1.944
43489W        W 8716   3.098  40.833  12.448
43490W        W 8717   0.832   7.176   2.797
43491W        W 8718  36.933  36.318   2.109
43492W        W 8719  25.082  44.710  14.827
43493W        W 8720  13.125   9.605   2.776
43494W        W 8721  33.057   1.202  13.871
43495W        W 8722   2.935  30.916   5.476
43496W        W 8723   1.994  37.486   3.641
43497W        W 8724   9.150  17.252   4.253
43498W        W 8725   0.440  15.578   1.313
43499W        W 8726  13.831  40.271   4.550
43500W        W 8727  21.641   9.431   3.867
43501W        W 8728  10.759   3.380   1.785
43502W        W 8729  33.045  30.281  12.396
43503W        W 8730  43.332  11.139   0.592
43504W        W 8731  40.324   4.448   4.515
43505W        W 8732   0.878  41.192   3.643
43506W        W 8733  11.039  10.745   1.915
43507W        W 8734   7.372   2.662   0.802
43508W        W 8735  14.203  38.403   2.678
43509W        W 8736   1.438  38.382   2.921
43510W        W 8737  44.224   3.725   3.651
43511W        W 8738  34.826   7.839  14.910
43512W        W 8739  10.505   3.177  11.213
43513W        W 8740   2.867  25.027  14.831
43514W        W 8741   8.142  25.236  14.777
43515W        W 8742   7.581  23.862  10.107
43516W        W 8743   0.144  19.726  12.593
43517W        W 8744  17.404  34.133  13.800
43518W        W 8745  42.827  17.023  11.238
43519W        W 8746  10.783  22.633   4.221
43520W        W 8747  36.873  43.186  12.522
43521W        W 8748  36.618  38.988   3.694
43522W        W 8749  28.782   5.296   3.130
43523W        W 8750  33.191  27.845  11.234
43524W        W 8751  27.295   5.884  12.727
43525W        W 8752  16.103  25.143   0.351
43526W        W 8753  15.411  38.595   0.995
43527W        W 8754  39.738  17.229  13.893
43528W        W 8755   6.668   9.391  13.042
43529W        W 8756  10.617  33.021   1.265
43530W        W 8757  11.254   8.119   4.679
43531W        W 8758  31.905  33.448  12.729
43532W        W 8759  15.653  34.443  12.557
43533W        W 8760  25.557   3.937   3.656
43534W        W 8761  30.011  15.221  12.825
43535W        W 8762   6.569  27.123   0.049
43536W        W 8763  22.161  27.449  11.168
43537W        W 8764  40.267  26.852   3.610
43538W        W 8765  34.244  23.400   0.876
43539W        W 8766  38.110  40.301  12.148
43540W        W 8767  44.153  26.785   9.828
43541W        W 8768  22.919  15.537  11.097
43542W        W 8769  38.013  41.413  14.430
43543W        W 8770  32.313   9.216   4.544
43544W        W 8771  20.963  14.836   1.538
43545W        W 8772  21.149  15.611   2.568
43546W        W 8773   5.822   3.379  12.990
43547W        W 8774  27.472   4.304   4.350
43548W        W 8775  37.417  23.285  12.374
43549W        W 8776  19.521  15.761   2.790
43550W        W 8777  21.070  32.997  13.814
43551W        W 8778  12.860  21.628   0.597
43552W        W 8779  31.359  41.594   2.358
43553W        W 8780  15.202  18.503  13.048
43554W        W 8781  27.285  37.135  13.095
43555W        W 8782  18.800  14.128   2.056
43556W        W 8783  19.331   2.790  10.568
43557W        W 8784  36.180  26.083  14.739
43558W        W 8785  35.553   8.505  12.945
43559W        W 8786  21.861  19.599   4.676
43560W        W 8787  23.556  10.614   2.783
43561W        W 8788  24.681  26.040  14.814
43562W        W 8789  26.511  17.029  13.455
43563W        W 8790  39.641  35.119  14.312
43564W        W 8791  27.619  31.552   3.686
43565W        W 8792  44.485  11.123  10.611
43566W        W 8793  23.925  22.789  14.344
43567W        W 8794  40.564   1.138   1.812
43568W        W 8795  16.646  26.311   1.601
43569W        W 8796  16.578  33.063   2.595
43570W        W 8797  19.835   1.037   0.680
43571W        W 8798   8.627  29.655  11.180
43572W        W 8799   8.684  38.825  10.499
43573W        W 8800  32.595  23.060  10.768
43574W        W 8801  42.456   1.966   4.153
43575W        W 8802  17.249  27.077  11.979
43576W        W 8803  15.122  35.962   4.229
43577W        W 8804  39.376  15.199   0.704
43578W        W 8805   8.092  43.050   1.715
43579W        W 8806  15.426   9.827   2.193
43580W        W 8807  30.881  35.567  10.548
43581W        W 8808   4.803  33.822   0.059
43582W        W 8809  13.444  24.058  12.148
43583W        W 8810  15.072  41.762   0.948
43584W        W 8811   4.483  23.668   3.965
43585W        W 8812   4.888   2.233   0.092
43586W        W 8813  14.354  23.615  14.276
43587W        W 8814  19.697   0.227   3.836
43588W        W 8815   8.219  32.532   0.285
43589W        W 8816  17.178  40.468   3.517
43590W        W 8817  33.363  40.788  11.147
43591W        W 8818  44.280  11.789   2.562
43592W        W 8819  25.432  15.971  11.067
43593W        W 8820  35.762  24.499  14.462
43594W        W 8821  43.744  33.732  14.417
43595W        W 8822  13.249  22.557  10.261
43596W        W 8823  42.983   4.162   1.830
43597W        W 8824  31.904  12.881  12.370
43598W        W 8825  44.011  28.675  14.478
43599W        W 8826  21.369  34.007  12.034
43600W        W 8827  23.641  20.466  11.942
43601W        W 8828  32.142   7.920  10.741
43602W        W 8829  26.651  14.607  10.380
43603W        W 8830   7.967  17.218   2.474
43604W        W 8831  17.634  28.468   2.016
43605W        W 8832  30.583  31.367  11.485
43606W        W 8833  36.856   0.429  12.133
43607W        W 8834  29.427  12.621   3.945
43608W        W 8835  13.790  28.494  14.197
43609W        W 8836  24.431  26.520   5.179
43610W        W 8837   6.643  10.903   0.825
43611W        W 8838  40.610  25.446   1.901
43612W        W 8839  43.950  26.535  13.466
43613W        W 8840  24.250  43.894   3.206
43614W        W 8841  10.789   7.465   0.984
43615W        W 8842  16.195   2.807  13.962
43616W        W 8843  10.802   0.880  13.876
43617W        W 8844  39.044  31.203  11.578
43618W        W 8845  36.024  18.917   1.932
43619W        W 8846  42.573  14.898   2.729
43620W        W 8847   0.918  12.186  13.369
43621W        W 8848   1.778  43.690   0.814
43622W        W 8849  44.323  31.145   1.480
43623W        W 8850  29.244  16.996  12.420
43624W        W 8851  15.564  10.520  11.249
43625W        W 8852  26.794  19.261  14.249
43626W        W 8853  37.275  35.509  10.846
43627W        W 8854  41.893  26.376  11.221
43628W        W 8855   4.879  18.252  13.301
43629W        W 8856   2.508  39.999  11.630
43630W        W 8857  42.550   1.088  13.547
43631W        W 8858  15.170  33.191  12.370
43632W        W 8859  27.072  13.679   2.659
43633W        W 8860  27.675  21.195  14.500
43634W        W 8861  42.881   7.335   3.071
43635W        W 8862   0.547  26.128   0.326
43636W        W 8863  24.061   4.765  12.922
43637W        W 8864  30.081  37.282   1.453
43638W        W 8865  25.109  14.648   3.291
43639W        W 8866  34.019  31.033   0.003
43640W        W 8867  18.069  33.428   4.469
43641W        W 8868   2.808  19.852  13.385
43642W        W 8869  29.434  21.511   0.860
43643W        W 8870   5.720   1.631   1.383
43644W        W 8871  35.352  37.574   2.196
43645W        W 8872  22.442   1.466  13.590
43646W        W 8873  21.034  43.398  11.180
43647W        W 8874  35.883   4.767  13.970
43648W        W 8875  37.817   0.274   1.192
43649W        W 8876  15.858  24.959   2.772
43650W        W 8877   2.315  19.523   3.828
43651W        W 8878  20.504  13.445   1.409
43652W        W 8879  21.607  36.032   1.435
43653W        W 8880  41.400   6.090  13.837
43654W        W 8881   5.768   8.226   2.803
43655W        W 8882  11.628  14.413  10.125
43656W        W 8883   2.382  18.590  14.529
43657W        W 8884  36.307   4.278   0.227
43658W        W 8885  40.166   8.671  14.233
43659W        W 8886  20.984   0.802  10.286
43660W        W 8887  35.279  42.372  11.541
43661W        W 8888  10.161  29.522   0.775
43662W        W 8889  10.681  24.252   4.716
43663W        W 8890  13.860  18.799  11.557
43664W        W 8891  31.389   9.526   5.122
43665W        W 8892  42.306  14.415   0.350
43666W        W 8893  26.638  38.785   3.591
43667W        W 8894  40.810  16.267  14.161
43668W        W 8895   7.176  24.016  11.259
43669W        W 8896   6.416  20.172  13.374
43670W        W 8897   0.148  36.805   1.896
43671W        W 8898   8.631  28.161  13.407
43672W        W 8899   1.691  17.154   2.403
43673W        W 8900  31.147  11.823  12.951
43674W        W 8901  29.722  34.555   0.355
43675W        W 8902  18.510  21.323   0.810
43676W        W 8903  27.527   2.188  13.326
43677W        W 8904  19.470  33.161  14.378
43678W        W 8905  30.428  22.511   4.614
43679W        W 8906  18.260   6.253   0.606
43680W        W 8907  15.241  25.648  10.971
43681W        W 8908  40.884   5.883   1.359
43682W        W 8909  10.292  43.307   1.329
43683W        W 8910  33.128   6.644   4.812
43684W        W 8911  41.675  29.114   4.009
43685W        W 8912  23.514  25.701   4.061
43686W        W 8913   3.325   0.302  13.893
43687W        W 8914  18.144  12.787  14.043
43688W        W 8915  14.522  31.864  13.830
43689W        W 8916  37.472  39.024   2.573
43690W        W 8917   4.985  14.316  10.201
43691W        W 8918  18.402  18.016  12.037
43692W        W 8919  41.411   4.369   2.453
43693W        W 8920  25.418   2.295   2.094
43694W        W 8921  34.444  26.879   1.309
43695W        W 8922   5.851  37.560   3.884
43696W        W 8923  15.660  18.205  14.073
43697W        W 8924  31.537   7.612   1.160
43698W        W 8925  23.550   5.102  12.535
43699W        W 8926  43.777  38.069   1.325
43700W        W 8927  18.193  14.090  10.708
43701W        W 8928  42.910   6.974   0.885
43702W        W 8929  15.667   7.912   0.881
43703W        W 8930  10.031  31.429  14.537
43704W        W 8931   4.020  18.162   3.343
43705W        W 8932   7.317  10.727  13.066
43706W        W 8933  14.192  38.379  13.049
43707W        W 8934  16.601   0.868   4.667
43708W        W 8935   6.317   0.926  11.661
43709W        W 8936  35.884   7.808  14.289
43710W        W 8937   4.929   3.648   1.640
43711W        W 8938  10.094  20.644   2.710
43712W        W 8939  34.095   6.671  11.940
43713W        W 8940  25.168  19.723   4.224
43714W        W 8941  29.713  27.661  12.629
43715W        W 8942  17.683  13.790  14.893
43716W        W 8943  27.932   5.976  11.646
43717W        W 8944  44.147  26.764  10.351
43718W        W 8945  14.880  17.283  10.831
43719W        W 8946   3.491  23.824   4.440
43720W        W 8947  12.022  16.549  12.341
43721W        W 8948  25.665   1.483  14.788
43722W        W 8949  22.935  37.929   3.589
43723W        W 8950   9.743  38.049   4.110
43724W        W 8951  21.913  13.906  13.547
43725W        W 8952  24.577  17.132  12.560
43726W        W 8953  30.979  24.555   3.742
43727W        W 8954  10.187   9.799  12.781
43728W        W 8955  26.724  36.512  10.583
43729W        W 8956  11.474   6.971  12.335
43730W        W 8957  11.199  14.379   2.176
43731W        W 8958  29.900  29.673  11.250
43732W        W 8959   8.003   1.679  12.864
43733W        W 8960  25.643  17.032   2.327
43734W        W 8961  27.620  21.042  11.543
43735W        W 8962  16.005  30.979  14.827
43736W        W 8963  29.600   7.262   1.548
43737W        W 8964  35.260  21.734  12.088
43738W        W 8965  44.006  39.030  12.598
43739W        W 8966  28.348  26.749   4.552
43740W        W 8967  11.338  26.548  14.560
43741W        W 8968  44.935  18.482  12.880
43742W        W 8969  28.936   7.188  12.429
43743W        W 8970   4.975  39.130  11.037
43744W        W 8971  12.161  27.907  12.209
43745W        W 8972  33.220  14.788  10.577
43746W        W 8973  10.732   1.381  13.981
43747W        W 8974  16.612  38.790   4.905
43748W        W 8975   7.833  18.660   1.049
43749W        W 8976  26.473   9.432  14.793
43750W        W 8977  11.705  26.934   1.609
43751W        W 8978  11.777  44.366   2.392
43752W        W 8979  23.139  24.515   4.561
43753W        W 8980  37.413  10.944  10.754
43754W        W 8981  38.360  21.119   4.486
43755W        W 8982  28.706  23.227   2.701
43756W        W 8983  41.056  23.739  10.635
43757W        W 8984   2.654  35.928  11.212
43758W        W 8985  20.954   9.251  14.917
43759W        W 8986  21.119  25.691  13.463
43760W        W 8987  29.567  36.211  10.748
43761W        W 8988  29.270  19.478   1.319
43762W        W 8989  15.170   8.225   1.727
43763W        W 8990  26.524  33.374   3.547
43764W        W 8991  40.643  35.648  12.358
43765W        W 8992  27.608  36.807  10.641
43766W        W 8993  37.045  40.636   4.999
43767W        W 8994   5.399  42.961   0.857
43768W        W 8995  24.653  17.746   1.717
43769W        W 8996  24.932  21.627  13.934
43770W        W 8997  17.632  27.176  13.131
43771W        W 8998  17.066  12.358  13.488
43772W        W 8999  42.841  11.327   0.354
43773W        W 9000  41.771  37.672  14.944
43774W        W 9001  36.995  12.218  14.406
43775W        W 9002  28.824   4.576   0.940
43776W        W 9003  15.505  42.129   2.211
43777W        W 9004   6.789  16.017   3.659
43778W        W 9005  27.480  27.495   4.172
43779W        W 9006  35.522  33.113  11.778
43780W        W 9007   1.508  42.832   1.158
43781W        W 9008   4.096  38.348   1.690
43782W        W 9009  27.000  33.684   3.523
43783W        W 9010   9.737   2.276  12.933
43784W        W 9011  34.394  30.943   2.278
43785W        W 9012  33.109  22.558  11.479
43786W        W 9013  43.729   9.440   1.953
43787W        W 9014  42.938  27.617   0.260
43788W        W 9015   1.751  15.530  13.435
43789W        W 9016  34.878  25.946  14.539
43790W        W 9017  14.578  41.116   1.537
43791W        W 9018   8.682  41.421   1.347
43792W        W 9019  18.768  14.384  14.434
43793W        W 9020  30.893  27.429   2.697
43794W        W 9021  32.339   1.747   0.342
43795W        W 9022  26.540  40.063   1.889
43796W        W 9023  23.466  13.417   3.228
43797W        W 9024  13.766  36.303   4.758
43798W        W 9025   7.608   7.306   4.131
43799W        W 9026  40.997   0.724   1.870
43800W        W 9027   6.777   9.293  14.951
43801W        W 9028  14.225  12.962   2.287
43802W        W 9029  31.588   8.924   1.820
43803W        W 9030   5.853  21.798   1.404
43804W        W 9031  35.591  20.038   1.234
43805W        W 9032  22.513  31.923  14.945
43806W        W 9033  27.657  37.761  14.858
43807W        W 9034  20.565  20.424  14.397
43808W        W 9035  17.772   9.713  14.999
43809W        W 9036  19.577  26.554  12.575
43810W        W 9037  13.180   4.480  14.010
43811W        W 9038  17.074  26.074  13.800
43812W        W 9039   8.894   6.210  12.502
43813W        W 9040  16.145   3.245  14.390
43814W        W 9041  29.419  19.024   3.708
43815W        W 9042   2.077  22.967  10.160
43816W        W 9043   2.637   1.598  12.998
43817W        W 9044  27.149  37.585  10.728
43818W        W 9045  44.067  34.954   0.458
43819W        W 9046  39.866   3.500  10.995
43820W        W 9047  12.227  12.635  13.406
43821W        W 9048  35.417  16.941   2.761
43822W        W 9049  21.304  20.643  11.222
43823W        W 9050  13.666   3.012  14.895
43824W        W 9051   1.791   1.263  12.011
43825W        W 9052  21.124  30.403   1.358
43826W        W 9053  18.733   6.168  13.745
43827W        W 9054  31.371  30.635   4.334
43828W        W 9055  32.836   0.795  14.205
43829W        W 9056  10.747  39.551  10.832
43830W        W 9057   6.905  36.038   0.959
43831W        W 9058  28.816   8.128   4.143
43832W        W 9059   3.364  26.355  13.570
43833W        W 9060  16.585   2.900   3.879
43834W        W 9061  26.997  33.176   3.564
43835W        W 9062  40.280  11.899   4.220
43836W        W 9063  12.887   7.426  13.124
43837W        W 9064  25.189   0.286  12.688
43838W        W 9065  23.246   8.911   0.938
43839W        W 9066  33.946  43.493   4.532
43840W        W 9067   3.804  22.396  11.172
43841W        W 9068  22.542  38.309  13.889
43842W        W 9069  41.298  29.363   4.240
43843W        W 9070  18.586  35.803  14.784
43844W        W 9071  26.780  30.153  12.992
43845W        W 9072   2.340  38.273   3.170
43846W        W 9073  42.059  19.186  11.972
43847W        W 9074   9.887  21.568   3.182
43848W        W 9075   5.780   4.470  14.494
43849W        W 9076  41.069  24.725   0.819
43850W        W 9077  39.318   9.384   4.601
43851W        W 9078  41.543  41.310  14.849
43852W        W 9079  39.330   9.903  12.084
43853W        W 9080  24.702   4.298   2.929
43854W        W 9081   7.086  31.391  12.596
43855W        W 9082   6.073  11.716   4.317
43856W        W 9083  31.708  36.568   1.192
43857W        W 9084  20.311  13.652  10.616
43858W        W 9085   4.395  44.467   3.461
43859W        W 9086  36.623  13.684  10.723
43860W        W 9087   8.194  19.377  12.127
43861W        W 9088  36.391  14.301   4.183
43862W        W 9089  14.631  41.128   3.098
43863W        W 9090  21.717  27.553   4.911
43864W        W 9091   9.313   8.920  12.305
43865W        W 9092  13.357  13.282  13.692
43866W        W 9093  30.715  26.673   0.273
43867W        W 9094   9.689  27.651   1.460
43868W        W 9095   9.449   1.070   1.149
43869W        W 9096  40.536  31.687  13.143
43870W        W 9097  31.510  35.017  10.592
43871W        W 9098   2.365   4.242   0.801
43872W        W 9099  38.113  38.481   2.114
43873W        W 9100  24.266  36.791  12.079
43874W        W 9101  25.153   2.478  14.366
43875W        W 9102  40.250  41.993   2.899
43876W        W 9103  40.542   9.855   0.382
43877W        W 9104  27.874  17.690   3.206
43878W        W 9105   4.987  14.678   4.648
43879W        W 9106  11.481   4.545   0.791
43880W        W 9107  10.671   6.201  12.416
43881W        W 9108  25.527   6.614  11.969
43882W        W 9109  30.899  26.890   2.778
43883W        W 9110  32.153  41.219  14.494
43884W        W 9111  19.353  17.995  13.821
43885W        W 9112  28.643  22.603  12.059
43886W        W 9113   8.726  41.324  10.513
43887W        W 9114  27.723   1.363  10.887
43888W        W 9115  13.330  37.601  14.936
43889W        W 9116  25.586  42.117  14.324
43890W        W 9117   4.027  38.573   0.922
43891W        W 9118   3.470  41.919  14.414
43892W        W 9119  28.327   7.139   1.884
43893W        W 9120  44.983  15.268   0.276
43894W        W 9121  33.597  15.739   1.805
43895W        W 9122  38.936  20.965  14.884
43896W        W 9123  42.192  15.182  12.643
43897W        W 9124  28.329  15.188  14.414
43898W        W 9125  37.013  19.494  12.019
43899W        W 9126  38.756  43.339  11.714
43900W        W 9127  35.826  39.827  11.663
43901W        W 9128  24.352  40.814   0.835
43902W        W 9129  30.538  25.947  13.875
43903W        W 9130   1.815   4.874   2.407
43904W        W 9131  28.661  15.945   2.241
43905W        W 9132  42.382  11.378  12.069
43906W        W 9133  23.590  39.100   1.250
43907W        W 9134   3.862  36.203  14.049
43908W        W 9135   7.412  22.106  12.505
43909W        W 9136  26.716   1.430   1.135
43910W        W 9137  34.425   5.094   0.831
43911W        W 9138   0.191   8.585   3.021
43912W        W 9139  10.611  25.915  11.932
43913W        W 9140  10.688  22.418   0.342
43914W        W 9141  34.449  37.776  12.090
43915W        W 9142  41.324  16.167  10.445
43916W        W 9143  36.307  37.281   2.294
43917W        W 9144   2.135   9.448   0.983
43918W        W 9145  12.190  20.647  10.869
43919W        W 9146  40.604   7.654   0.787
43920W        W 9147  23.130  30.043  13.630
43921W        W 9148   2.767  19.595  14.052
43922W        W 9149   4.575  16.034  12.723
43923W        W 9150   4.711  10.867   2.386
43924W        W 9151  17.055  35.468  12.803
43925W        W 9152  41.244  24.949  12.128
43926W        W 9153   2.878  16.543   1.104
43927W        W 9154  22.000   1.100   3.308
43928W        W 9155  18.310   0.195   1.591
43929W        W 9156  11.629   3.157   1.702
43930W        W 9157  15.309  23.968  11.737
43931W        W 9158   1.263   2.873   3.824
43932W        W 9159  26.889  36.922   1.351
43933W        W 9160  26.878  21.946  11.138
43934W        W 9161   7.966  22.122  12.588
43935W        W 9162  39.996  24.598   4.655
43936W        W 9163   9.734  11.882  12.916
43937W        W 9164  41.030  39.741  11.269
43938W        W 9165  38.148  24.004  13.016
43939W        W 9166  33.595   1.011   1.868
43940W        W 9167   5.043   6.436  11.262
43941W        W 9168  28.172   9.321   1.129
43942W        W 9169   1.631  22.737  10.531
43943W        W 9170  26.094  40.279  13.402
43944W        W 9171   2.709  19.086  13.809
43945W        W 9172  15.628  35.088   1.459
43946W        W 9173  25.392  34.016   2.834
43947W        W 9174  42.813  42.697  11.189
43948W        W 9175  19.715  40.880  12.577
43949W        W 9176  32.876  16.539   1.714
43950W        W 9177  32.320  36.529   2.019
43951W        W 9178  22.921  19.567   4.650
43952W        W 9179  41.384   3.553   3.834
43953W        W 9180  42.825  18.181   4.541
43954W        W 9181  28.064   4.428  13.855
43955W        W 9182  10.168  41.328   4.007
43956W        W 9183  14.374   9.936   3.230
43957W        W 9184   3.150  42.354  11.151
43958W        W 9185  19.931  32.173  10.443
43959W        W 9186  38.033  18.589  13.509
43960W        W 9187   3.242   8.642   2.383
43961W        W 9188  21.312  19.714  10.046
43962W        W 9189  27.687  20.176   1.820
43963W        W 9190  22.527  25.652  12.119
43964W        W 9191  24.136  23.439  10.840
43965W        W 9192  29.103  25.297   0.615
43966W        W 9193  13.447  42.352  13.900
43967W        W 9194  40.276  42.309   4.563
43968W        W 9195  18.772  38.755  10.781
43969W        W 9196  19.454   9.685   1.402
43970W        W 9197   6.466  19.301   1.870
43971W        W 9198  18.783  40.477  12.068
43972W        W 9199   6.724  19.864   3.286
43973W        W 9200  19.108  29.548  14.800
43974W        W 9201  42.918   3.213   2.195
43975W        W 9202  37.491   9.933   0.003
43976W        W 9203  35.434   5.734  13.525
43977W        W 9204  25.747  39.730  10.722
43978W        W 9205  41.886  25.170   1.327
43979W        W 9206  10.019  26.756  11.204
43980W        W 9207  27.994  29.902  11.929
43981W        W 9208  38.649  23.092   4.945
43982W        W 9209   2.296   0.962   1.286
43983W        W 9210  33.010  27.550   3.390
43984W        W 9211   2.850  39.365  10.764
43985W        W 9212  40.455  27.861   4.790
43986W        W 9213  21.511  23.302   2.658
43987W        W 9214  31.449  28.402   0.363
43988W        W 9215  40.005   6.784   2.377
43989W        W 9216  35.778  36.178   0.824
43990W        W 9217  44.506  41.846   3.110
43991W        W 9218  19.803   3.115   2.278
43992W        W 9219  26.233   7.192   1.274
43993W        W 9220  15.642  22.749  10.765
43994W        W 9221  34.847  42.551  13.791
43995W        W 9222  17.566  36.564  12.929
43996W        W 9223  31.663  27.356   1.228
43997W        W 9224  12.893   9.206   0.372
43998W        W 9225  32.073  15.005   0.651
43999W        W 9226  34.963  37.850  12.040
44000W        W 9227  43.713  31.421   0.758
44001W        W 9228  35.084  25.173  14.298
44002W        W 9229  27.109  30.901  11.533
44003W        W 9230  13.192   5.346  10.767
44004W        W 9231  29.936  10.744  14.028
44005W        W 9232   3.455   9.186  13.252
44006W        W 9233   5.681  31.098   0.710
44007W        W 9234  26.577  18.774  11.212
44008W        W 9235  30.493  15.758   0.864
44009W        W 9236  44.726  20.864   3.097
44010W        W 9237  19.776  11.660  12.331
44011W        W 9238   9.077   5.631   3.619
44012W        W 9239  25.230  20.703   2.798
44013W        W 9240  30.579  17.885  13.055
44014W        W 9241  43.749   0.859   4.024
44015W        W 9242   3.864  26.441  14.576
44016W        W 9243   8.089  26.712   0.433
44017W        W 9244  38.557  28.083   4.363
44018W        W 9245   3.148  10.944   4.504
44019W        W 9246  10.142  24.164  14.307
44020W        W 9247  32.275  21.244   3.062
44021W        W 9248  37.518  42.004   2.308
44022W        W 9249  15.791   4.962  12.598
44023W        W 9250  26.637  38.919  11.918
44024W        W 9251  19.774  39.798  10.594
44025W        W 9252  10.999   0.419  12.713
44026W        W 9253  37.520  43.907  10.752
44027W        W 9254  16.112   5.955  13.564
44028W        W 9255  22.462  27.792  11.487
44029W        W 9256  18.557   2.000  14.088
44030W        W 9257  13.968  30.355   2.293
44031W        W 9258  42.110  21.058  11.810
44032W        W 9259  44.322   0.172  12.071
44033W        W 9260  20.606  34.550   1.403
44034W        W 9261  26.014   0.443   1.904
44035W        W 9262  38.880   9.165  10.311
44036W        W 9263  27.553  28.575   2.121
44037W        W 9264  35.923   7.552   4.986
44038W        W 9265  12.802  43.220   4.059
44039W        W 9266  24.647  30.977  12.107
44040W        W 9267  38.324   3.091  12.728
44041W        W 9268   2.210  34.928   0.339
44042W        W 9269   9.874  12.792   3.406
44043W        W 9270  34.300   6.713  12.417
44044W        W 9271   0.415   7.297   2.496
44045W        W 9272  28.702  37.844   0.447
44046W        W 9273  21.715  27.665  12.416
44047W        W 9274   2.482  10.337  12.063
44048W        W 9275  14.256  42.460   3.111
44049W        W 9276  29.217  38.458   1.454
44050W        W 9277   7.977   4.996   4.137
44051W        W 9278  26.105  31.772  10.736
44052W        W 9279   9.950  14.375  14.218
44053W        W 9280  13.010  40.982   2.431
44054W        W 9281   4.699  14.448  13.375
44055W        W 9282   9.395  31.234  13.954
44056W        W 9283  17.674  43.308   4.577
44057W        W 9284  28.444  31.081  14.582
44058W        W 9285   8.296  38.490  13.450
44059W        W 9286   5.263  28.925   3.196
44060W        W 9287   1.785  18.916   5.354
44061W        W 9288  38.586  13.781   4.459
44062W        W 9289  37.285   8.143  14.373
44063W        W 9290  26.392   6.363  13.686
44064W        W 9291  19.899  27.849   2.192
44065W        W 9292  17.050  26.167   1.073
44066W        W 9293   3.072  16.183  13.208
44067W        W 9294  33.648  26.275   0.339
44068W        W 9295  36.452  25.971  12.809
44069W        W 9296  27.463  24.554  10.790
44070W        W 9297   6.913  19.049   0.838
44071W        W 9298  41.293  21.457  14.312
44072W        W 9299  25.902   9.100   3.047
44073W        W 9300  10.932  16.555  14.517
44074W        W 9301  18.634  16.488   1.762
44075W        W 9302   5.521   5.308   4.579
44076W        W 9303   5.468  11.137   3.676
44077W        W 9304  41.933   5.989   2.372
44078W        W 9305  17.432  23.529   1.854
44079W        W 9306   6.278  42.943  13.833
44080W        W 9307  35.432  14.279  11.057
44081W        W 9308  19.667  40.704   3.125
44082W        W 9309   4.003  29.978  11.674
44083W        W 9310  21.372  21.682  11.579
44084W        W 9311  33.140  12.876   4.888
44085W        W 9312  14.954  39.714   4.996
44086W        W 9313   0.318  34.267   0.743
44087W        W 9314  25.567  33.887  11.062
44088W        W 9315  16.079   8.130  12.084
44089W        W 9316  27.338   0.018   2.261
44090W        W 9317  43.295  43.994   4.621
44091W        W 9318   7.044  24.668   3.116
44092W        W 9319   3.632  40.939  12.860
44093W        W 9320  26.512   0.299  12.950
44094W        W 9321   0.691  18.269   3.302
44095W        W 9322  18.551   0.394   2.895
44096W        W 9323  32.785  14.627   4.831
44097W        W 9324   3.644  33.193  14.188
44098W        W 9325  13.754  31.889   2.635
44099W        W 9326  26.646   2.531  10.730
44100W        W 9327  32.093  41.822  11.825
44101W        W 9328  35.863  24.106   4.604
44102W        W 9329  29.388  22.169  13.874
44103W        W 9330   0.338  15.480  14.844
44104W        W 9331  32.523  13.097  13.627
44105W        W 9332   9.672  18.598  13.696
44106W        W 9333  31.373  16.323   0.822
44107W        W 9334   1.741   5.166  12.428
44108W        W 9335   0.803  13.919  14.010
44109W        W 9336  17.725   9.490   1.918
44110W        W 9337   1.235  33.416   1.903
44111W        W 9338  17.715  30.587  12.276
44112W        W 9339   5.746   4.607  10.819
44113W        W 9340  40.338  23.111   3.521
44114W        W 9341  40.642  15.196  11.719
44115W        W 9342  14.140   9.121   1.929
44116W        W 9343  33.600  17.446  14.345
44117W        W 9344   5.539  14.653   3.060
44118W        W 9345  16.612  31.690   4.638
44119W        W 9346   8.214  19.300  12.625
44120W        W 9347  12.094   7.296  11.659
44121W        W 9348  21.718   8.344  13.429
44122W        W 9349  43.370   8.183  12.314
44123W        W 9350  19.058   6.493  11.185
44124W        W 9351  32.486  26.725  14.911
44125W        W 9352  39.056   3.575   0.953
44126W        W 9353  33.325   9.471   3.185
44127W        W 9354  32.370  19.517  12.973
44128W        W 9355  29.639  26.199  12.991
44129W        W 9356   1.283  12.777  13.425
44130W        W 9357   7.316  18.969  11.551
44131W        W 9358  42.086  15.284   0.227
44132W        W 9359  15.304   2.451   2.623
44133W        W 9360  38.023  23.706   5.172
44134W        W 9361  43.875   7.392   3.174
44135W        W 9362   0.244  39.854   4.693
44136W        W 9363  18.218  19.733   2.755
44137W        W 9364   4.224  30.698  12.140
44138W        W 9365  31.436  39.668  13.986
44139W        W 9366  34.991  37.334  11.340
44140W        W 9367   9.805  13.176  11.858
44141W        W 9368  25.324  40.364   3.113
44142W        W 9369  36.300  19.051  14.862
44143W        W 9370  39.973  14.200   0.486
44144W        W 9371  43.504  40.817   3.196
44145W        W 9372  19.004  18.715  14.924
44146W        W 9373  37.014  35.774   4.512
44147W        W 9374  10.610  31.912  14.806
44148W        W 9375  12.807  19.257   4.777
44149W        W 9376  33.874  38.385   3.911
44150W        W 9377  23.833   2.998  10.238
44151W        W 9378  28.760  37.023  13.350
44152W        W 9379  12.222  39.093   3.319
44153W        W 9380  10.067  21.461  14.941
44154W        W 9381  22.574  14.886   4.506
44155W        W 9382  29.585   1.794   4.949
44156W        W 9383  36.714  40.339  10.633
44157W        W 9384  13.140  41.345  13.605
44158W        W 9385  23.645  43.379  12.504
44159W        W 9386  25.263  12.271   2.730
44160W        W 9387  10.178  12.561   3.774
44161W        W 9388   2.181   9.079  12.677
44162W        W 9389  31.501  15.520   9.893
44163W        W 9390   8.590  15.277  14.378
44164W        W 9391  25.251  18.347  14.115
44165W        W 9392  39.400  21.549   1.648
44166W        W 9393  13.160  37.874   1.031
44167W        W 9394  22.920  43.344  12.089
44168W        W 9395  38.509  10.191   1.513
44169W        W 9396   5.145  10.248   4.636
44170W        W 9397   3.782  32.544   2.938
44171W        W 9398  29.081  19.554  12.380
44172W        W 9399  18.205  32.607  13.793
44173W        W 9400  17.994   9.033   1.957
44174W        W 9401  37.570  31.847   0.837
44175W        W 9402  12.859  11.419  12.825
44176W        W 9403  23.054  11.862  13.830
44177W        W 9404  10.269   4.937  13.550
44178W        W 9405   9.644   9.266   1.826
44179W        W 9406   7.735  36.427   3.358
44180W        W 9407   3.907   1.378   2.728
44181W        W 9408  17.996   2.998  12.932
44182W        W 9409  13.669  37.150   3.690
44183W        W 9410  26.214  34.508  13.582
44184W        W 9411   4.017   9.847   2.885
44185W        W 9412  26.941   1.530   5.014
44186W        W 9413  10.622  37.071   1.944
44187W        W 9414  25.910  36.584   4.855
44188W        W 9415  23.477  30.049   2.685
44189W        W 9416  30.975  15.027   0.591
44190W        W 9417   7.722  23.641   3.289
44191W        W 9418  40.590  19.712  11.524
44192W        W 9419  24.761  14.355   5.218
44193W        W 9420  41.067  20.038   4.110
44194W        W 9421  14.327  11.117  11.413
44195W        W 9422   0.420  16.164   4.038
44196W        W 9423  15.808  27.079   2.160
44197W        W 9424  30.440  44.456  14.398
44198W        W 9425  36.083  41.888   0.312
44199W        W 9426  11.854  26.702  12.918
44200W        W 9427  24.178  14.625  14.834
44201W        W 9428  37.057   1.296  14.256
44202W        W 9429  10.842  13.319  14.366
44203W        W 9430  40.420  23.289  11.129
44204W        W 9431  30.068  43.945   1.071
44205W        W 9432  40.040  33.179  14.997
44206W        W 9433  27.577  13.142  12.383
44207W        W 9434  18.490  32.513   0.331
44208W        W 9435   6.754   3.698   1.820
44209W        W 9436   1.686  35.236   2.288
44210W        W 9437   3.427  19.560   2.091
44211W        W 9438  34.520  15.166  10.788
44212W        W 9439  27.866  40.379   1.776
44213W        W 9440  16.547  39.648   3.305
44214W        W 9441  30.854  16.333  14.255
44215W        W 9442  21.802   1.740   3.599
44216W        W 9443  30.589  14.124   0.682
44217W        W 9444  12.845   7.844  11.126
44218W        W 9445  18.735  16.187  10.972
44219W        W 9446  36.120  21.599   0.767
44220W        W 9447  28.253  30.232  12.857
44221W        W 9448  29.924  40.854   1.800
44222W        W 9449  22.199   4.435   4.053
44223W        W 9450  11.211   0.733  10.917
44224W        W 9451  44.914   7.706  12.414
44225W        W 9452  41.281  36.843  13.299
44226W        W 9453  12.169  40.983  12.637
44227W        W 9454  36.573   5.451  14.982
44228W        W 9455  28.520  25.770   3.630
44229W        W 9456   5.379  15.131  14.593
44230W        W 9457  20.213  15.648  14.325
44231W        W 9458  32.801   3.917   4.086
44232W        W 9459   1.735  43.690   2.272
44233W        W 9460  25.278   0.285  13.545
44234W        W 9461  34.473  27.670  14.592
44235W        W 9462  27.634  14.242   2.798
44236W        W 9463  25.676  11.395  12.543
44237W        W 9464  38.325  26.391  13.370
44238W        W 9465  22.667  22.495   1.701
44239W        W 9466  12.139  13.104   0.669
44240W        W 9467  20.992   9.849   1.272
44241W        W 9468   7.132  26.037   1.277
44242W        W 9469  26.979  11.307  11.502
44243W        W 9470  29.256  34.370  12.971
44244W        W 9471   7.813  29.079   1.936
44245W        W 9472   2.329  16.759  13.588
44246W        W 9473  37.863   3.903   3.478
44247W        W 9474  20.204  38.876  13.877
44248W        W 9475  39.710  25.823   1.640
44249W        W 9476   1.496  22.703   2.177
44250W        W 9477   6.283  43.910  11.381
44251W        W 9478  16.651  12.258   3.579
44252W        W 9479   5.794  29.466   1.165
44253W        W 9480  28.524  28.928  14.843
44254W        W 9481  43.958  41.297  12.147
44255W        W 9482  25.017   8.881  10.205
44256W        W 9483  34.674  14.135  10.823
44257W        W 9484  30.419   4.196   2.168
44258W        W 9485  33.106   2.922   1.883
44259W        W 9486  43.216  14.233   3.070
44260W        W 9487  43.783  25.975   0.878
44261W        W 9488   9.298  37.325  14.175
44262W        W 9489   2.246  28.062  10.079
44263W        W 9490   5.339  33.871   4.153
44264W        W 9491  26.534   1.719  11.694
44265W        W 9492  10.126  38.172  13.438
44266W        W 9493  23.544   2.033  12.048
44267W        W 9494  40.095  22.621   2.282
44268W        W 9495  24.711  43.776   1.267
44269W        W 9496  35.356  18.528   0.809
44270W        W 9497  11.281  35.248  14.569
44271W        W 9498  35.602  35.341  14.223
44272W        W 9499   6.721  41.483  13.033
44273W        W 9500  33.510  29.222  11.090
44274W        W 9501  10.166  29.080   1.051
44275W        W 9502   9.986  41.391  11.905
44276W        W 9503   8.347   1.165   3.118
44277W        W 9504  34.903  34.610  13.477
44278W        W 9505  21.369  34.721   4.244
44279W        W 9506   0.351  15.781  10.969
44280W        W 9507  30.681  27.434  14.791
44281W        W 9508  10.351  31.238  11.560
44282W        W 9509  12.617  31.338   5.039
44283W        W 9510  39.445  44.109  11.047
44284W        W 9511  10.551   1.887   2.230
44285W        W 9512  16.292   9.052   2.829
44286W        W 9513  41.546  25.762   1.682
44287W        W 9514  33.692  41.159   3.194
44288W        W 9515   0.248  23.109  11.471
44289W        W 9516  33.455  28.146  14.137
44290W        W 9517  44.931  26.412  13.527
44291W        W 9518  35.875  36.445  12.335
44292W        W 9519  18.293  24.604   0.300
44293W        W 9520  17.457   2.666  14.394
44294W        W 9521  25.035  31.957   2.213
44295W        W 9522  37.587  23.647   1.238
44296W        W 9523  39.304  32.766   0.748
44297W        W 9524   3.936  13.808  12.458
44298W        W 9525  39.559  33.657  14.527
44299W        W 9526  16.366  22.626  11.669
44300W        W 9527  23.095  30.351   2.307
44301W        W 9528  18.026  33.006  13.525
44302W        W 9529   2.487  33.754  11.747
44303W        W 9530  26.204  36.524   3.342
44304W        W 9531  26.692  14.205  14.424
44305W        W 9532  39.977   6.640  10.287
44306W        W 9533   6.388   6.499   3.707
44307W        W 9534  35.860  27.070  13.441
44308W        W 9535  14.591  28.002   0.756
44309W        W 9536   1.795  29.226  11.399
44310W        W 9537   1.525  38.297  11.940
44311W        W 9538   7.995   2.984   3.698
44312W        W 9539   3.210   8.573   3.728
44313W        W 9540  28.735   0.329  13.818
44314W        W 9541  40.905  11.252  13.000
44315W        W 9542   4.648  23.005  13.470
44316W        W 9543   8.227  13.680   0.829
44317W        W 9544  22.838   6.321  14.244
44318W        W 9545  11.265  44.327  13.557
44319W        W 9546  27.185  17.762  11.926
44320W        W 9547  22.152  27.439   3.160
44321W        W 9548  13.584  44.379   1.857
44322W        W 9549   9.124   8.396  14.404
44323W        W 9550  40.370  37.426  14.502
44324W        W 9551  35.127   1.889   2.253
44325W        W 9552  28.246  43.053  12.754
44326W        W 9553  25.059  29.422  12.035
44327W        W 9554   0.374  43.266  13.090
44328W        W 9555  26.168   1.739   2.407
44329W        W 9556  21.194  33.132   1.705
44330W        W 9557  41.558  31.382   0.071
44331W        W 9558  35.542  19.656   0.016
44332W        W 9559  24.162  41.882  14.005
44333W        W 9560  16.603  18.735  14.348
44334W        W 9561  42.564  20.723   3.711
44335W        W 9562  14.379  17.042   1.741
44336W        W 9563   8.431  15.610   2.141
44337W        W 9564   0.451  13.826  11.583
44338W        W 9565  29.924  20.696  12.582
44339W        W 9566  21.223  38.882  14.972
44340W        W 9567  22.088  34.070   2.057
44341W        W 9568  12.038   9.025  14.372
44342W        W 9569   5.150  25.069  13.889
44343W        W 9570  41.039  19.667  11.018
44344W        W 9571  10.282  15.267   3.177
44345W        W 9572  35.853  23.501  11.628
44346W        W 9573  29.559  34.064  13.281
44347W        W 9574  15.351  27.489  11.120
44348W        W 9575  32.371  11.213  14.761
44349W        W 9576  12.025   2.749   1.427
44350W        W 9577  19.272  38.152  14.658
44351W        W 9578   1.539  41.397   1.780
44352W        W 9579  44.402  20.222  10.197
44353W        W 9580  21.781   6.706  13.648
44354W        W 9581   3.522  15.793   2.910
44355W        W 9582  25.575  42.767  12.597
44356W        W 9583  35.043  29.462   3.560
44357W        W 9584  19.310   4.425   1.325
44358W        W 9585   3.385  28.049  12.348
44359W        W 9586  30.523  39.002   2.668
44360W        W 9587  16.639   5.691   2.256
44361W        W 9588   6.338  13.597  13.826
44362W        W 9589  30.037  39.584  12.592
44363W        W 9590  30.086  35.084   3.887
44364W        W 9591  40.786  13.224  14.912
44365W        W 9592  44.559  34.933   0.308
44366W        W 9593   4.768  23.399  12.630
44367W        W 9594  17.177  34.750  10.246
44368W        W 9595  26.179   7.517  11.334
44369W        W 9596  18.180  13.155  10.948
44370W        W 9597  33.927  18.171   2.152
44371W        W 9598  27.038   5.673   4.581
44372W        W 9599   6.377  32.834  12.426
44373W        W 9600  28.145  36.179  13.906
44374W        W 9601  23.950   8.645  10.493
44375W        W 9602  20.437  21.835  12.608
44376W        W 9603  20.070   2.370  12.518
44377W        W 9604  42.188  23.657   4.291
44378W        W 9605   1.267   9.285  12.919
44379W        W 9606  23.290  20.705   3.226
44380W        W 9607  13.394  38.864   1.827
44381W        W 9608  37.321   0.910   3.827
44382W        W 9609  10.765  17.367  12.894
44383W        W 9610  10.931  38.802   2.829
44384W        W 9611  31.170  39.882   1.354
44385W        W 9612  10.742   4.772  12.334
44386W        W 9613  17.696   9.171   2.898
44387W        W 9614  38.351  14.489   3.435
44388W        W 9615  38.804   8.050   2.824
44389W        W 9616   7.252  43.335   0.229
44390W        W 9617  17.843  26.590  12.037
44391W        W 9618  38.366   4.969  11.613
44392W        W 9619  32.945   5.261  11.528
44393W        W 9620   7.587  10.986  14.925
44394W        W 9621  14.835  38.501   3.206
44395W        W 9622  36.943  34.187   2.467
44396W        W 9623  38.061  33.122   4.464
44397W        W 9624  22.661   4.356   1.047
44398W        W 9625   3.220  31.445   2.704
44399W        W 9626  25.497  28.449  13.415
44400W        W 9627  41.900  20.354  14.787
44401W        W 9628  27.184  36.031  14.158
44402W        W 9629  16.351  18.178   5.299
44403W        W 9630  30.037   9.497  13.036
44404W        W 9631   6.341   0.441   3.309
44405W        W 9632  28.927  32.691  10.943
44406W        W 9633   1.199   0.483  11.352
44407W        W 9634  10.182   5.233  11.098
44408W        W 9635  18.906  20.141   3.433
44409W        W 9636  16.663  41.091  13.021
44410W        W 9637  23.703  15.716  10.553
44411W        W 9638  11.210   6.423   3.269
44412W        W 9639  25.754  35.514   0.456
44413W        W 9640  23.752  42.086   0.792
44414W        W 9641  29.500  37.907  13.826
44415W        W 9642   6.755  24.137   1.399
44416W        W 9643  28.171  16.769   0.148
44417W        W 9644   5.169  24.406  12.491
44418W        W 9645  10.828  34.069   3.930
44419W        W 9646  22.033  27.018  10.750
44420W        W 9647  11.661   8.115   0.552
44421W        W 9648  14.142  20.124   0.156
44422W        W 9649  42.402   5.735  11.723
44423W        W 9650  15.409   2.822   3.310
44424W        W 9651  19.355  43.941   4.670
44425W        W 9652   4.947  10.665   4.345
44426W        W 9653  36.587   8.166   0.307
44427W        W 9654  39.184  44.858   4.232
44428W        W 9655   7.262  42.654  14.471
44429W        W 9656  39.343  18.293   1.463
44430W        W 9657  16.385  28.122  11.206
44431W        W 9658   2.986  19.169   9.590
44432W        W 9659  36.547  25.582  10.727
44433W        W 9660  27.050   9.727  12.146
44434W        W 9661  41.621  22.549   4.904
44435W        W 9662   2.086  24.091  14.310
44436W        W 9663  25.427  18.776   3.699
44437W        W 9664  24.873  38.773  12.468
44438W        W 9665  18.608  15.028   2.020
44439W        W 9666  11.622   4.950   0.391
44440W        W 9667  12.791  16.142  12.622
44441W        W 9668  11.492   8.332   3.277
44442W        W 9669  38.576   5.445   3.137
44443W        W 9670   7.150  12.845   1.247
44444W        W 9671  11.362  14.504  12.916
44445W        W 9672  36.007  41.313   4.095
44446W        W 9673   6.826  37.415   3.185
44447W        W 9674  24.872  44.660   2.420
44448W        W 9675  16.043  33.084  10.615
44449W        W 9676   6.150   8.689  14.381
44450W        W 9677  35.420   7.488  12.212
44451W        W 9678  21.092  10.830  10.659
44452W        W 9679   5.763  27.755   1.874
44453W        W 9680  37.049   8.373  10.739
44454W        W 9681  37.080  31.654   3.616
44455W        W 9682  18.511   4.445   1.729
44456W        W 9683   0.917   2.491   3.848
44457W        W 9684   8.892  16.635  14.432
44458W        W 9685  13.746   7.548   0.328
44459W        W 9686  19.311   0.980  13.354
44460W        W 9687  39.563   1.150   0.966
44461W        W 9688   4.860  34.113   4.258
44462W        W 9689  21.238  23.781   4.686
44463W        W 9690   5.948  30.538  12.371
44464W        W 9691  25.576  25.689   2.671
44465W        W 9692  40.308  30.032   1.871
44466W        W 9693  39.834  38.072   0.772
44467W        W 9694  14.732   4.804   0.403
44468W        W 9695  41.246  30.042  11.972
44469W        W 9696   1.253   3.463  10.813
44470W        W 9697   5.419  18.572  12.001
44471W        W 9698  11.570   1.910  12.895
44472W        W 9699   1.335  26.211  13.646
44473W        W 9700  26.518  14.071   4.643
44474W        W 9701  26.557  18.071  13.531
44475W        W 9702  30.202  41.070   2.226
44476W        W 9703  13.217  10.914   2.310
44477W        W 9704   7.001  14.091   1.716
44478W        W 9705   1.209  27.043  11.738
44479W        W 9706   2.288  19.670   2.816
44480W        W 9707  26.544  23.761   2.271
44481W        W 9708  41.560  30.843   2.829
44482W        W 9709   0.731  28.491  14.017
44483W        W 9710   9.361  44.522   4.172
44484W        W 9711  36.588   4.103   3.938
44485W        W 9712  11.905  19.237   3.214
44486W        W 9713  12.161  40.460   4.023
44487W        W 9714   2.562   8.363   4.598
44488W        W 9715  35.701  25.064  12.572
44489W        W 9716   4.409  25.400   0.846
44490W        W 9717  32.179  32.971  11.986
44491W        W 9718  30.884  15.106   3.304
44492W        W 9719  30.051  41.396   1.749
44493W        W 9720  18.812  24.274  13.341
44494W        W 9721  14.043  13.392  13.916
44495W        W 9722  19.861  19.997   2.692
44496W        W 9723  33.529  31.580   4.505
44497W        W 9724  43.317  33.804  10.761
44498W        W 9725  33.909  23.586  12.473
44499W        W 9726  24.401   7.385   1.745
44500W        W 9727  37.497  43.504   4.410
44501W        W 9728   2.742   5.353   3.829
44502W        W 9729  43.278  25.690  12.026
44503W        W 9730   2.836  34.041  12.856
44504W        W 9731  22.244   0.155   4.666
44505W        W 9732  20.190  28.490   2.554
44506W        W 9733   7.728  26.615  12.520
44507W        W 9734  12.311  15.577   1.010
44508W        W 9735   2.786  40.445   1.756
44509W        W 9736   5.739  37.972  11.168
44510W        W 9737  39.850  42.236   1.591
44511W        W 9738  43.885   5.966  11.986
44512W        W 9739  17.083  26.405  11.607
44513W        W 9740  37.352   4.921   0.697
44514W        W 9741  24.078   3.579  10.822
44515W        W 9742  26.000  28.934   0.177
44516W        W 9743  38.475  28.208  10.375
44517W        W 9744  23.601  23.104   0.061
44518W        W 9745  20.480   3.212   0.219
44519W        W 9746   3.819  30.304   1.718
44520W        W 9747  10.332  15.104  12.299
44521W        W 9748   7.217   7.839   1.451
44522W        W 9749  14.240  41.748  13.321
44523W        W 9750  37.745  40.505   0.676
44524W        W 9751  31.379  43.410   5.044
44525W        W 9752  30.944  30.440   2.883
44526W        W 9753  42.690  40.491   3.625
44527W        W 9754  39.314  25.665   2.370
44528W        W 9755  28.403  13.400   0.395
44529W        W 9756  29.693   6.271  10.704
44530W        W 9757  17.425  22.204   4.524
44531W        W 9758  41.787  31.510   4.055
44532W        W 9759  19.641  14.077   2.780
44533W        W 9760  38.827  15.446   4.634
44534W        W 9761  26.998  12.852  11.525
44535W        W 9762  15.349   9.466   4.482
44536W        W 9763   8.281  18.169  10.303
44537W        W 9764   7.837  42.679   1.970
44538W        W 9765  21.517  33.932  13.627
44539W        W 9766  42.888   3.977  14.474
44540W        W 9767  27.663   4.200  13.624
44541W        W 9768  10.254  30.438   0.230
44542W        W 9769  16.221  21.683  13.371
44543W        W 9770  44.115  44.741   3.698
44544W        W 9771  35.324   2.543   4.870
44545W        W 9772  29.645  35.550  10.820
44546W        W 9773   6.969   8.255   2.312
44547W        W 9774  30.474   6.877  14.457
44548W        W 9775  14.021   6.901  11.651
44549W        W 9776  14.256  36.072   4.714
44550W        W 9777   0.250  35.956   2.927
44551W        W 9778  44.459  27.915   1.244
44552W        W 9779  15.384  15.310  11.617
44553W        W 9780   3.769  40.908   4.633
44554W        W 9781   1.410  36.082  11.945
44555W        W 9782  10.168   2.251  11.124
44556W        W 9783  20.644  28.986   4.051
44557W        W 9784  30.809  38.266   2.938
44558W        W 9785  23.057  12.762   0.197
44559W        W 9786  21.015  42.279  14.405
44560W        W 9787  25.777  24.525  11.725
44561W        W 9788  21.071  31.203   0.442
44562W        W 9789  13.227  29.578  14.810
44563W        W 9790  11.211  30.966  13.278
44564W        W 9791  40.881  28.891   2.283
44565W        W 9792  16.411   7.680   4.635
44566W        W 9793  15.604  37.250   4.964
44567W        W 9794  33.737  37.947   3.623
44568W        W 9795   3.927  16.713  11.966
44569W        W 9796  22.469  36.858  11.644
44570W        W 9797  38.214  11.605  12.394
44571W        W 9798  39.079  34.920  10.514
44572W        W 9799  20.997   0.249   4.173
44573W        W 9800  34.362  15.019  12.720
44574W        W 9801  18.068   8.411   2.786
44575W        W 9802  18.117  14.787  13.342
44576W        W 9803  28.945  29.170  10.753
44577W        W 9804  10.551  44.453   3.646
44578W        W 9805  22.697  32.019  10.977
44579W        W 9806  14.309  11.725  10.746
44580W        W 9807   2.297  16.273   0.344
44581W        W 9808  26.630  11.834  12.066
44582W        W 9809  26.756  37.490  11.453
44583W        W 9810  28.920  30.891   4.021
44584W        W 9811  22.190  26.521  12.065
44585W        W 9812  27.754  32.680   1.719
44586W        W 9813   9.875   2.784  13.012
44587W        W 9814   1.584  40.907   0.493
44588W        W 9815  16.294  26.684   3.377
44589W        W 9816  34.004  35.368   2.649
44590W        W 9817   0.994   9.929  12.022
44591W        W 9818  38.365  37.934   4.447
44592W        W 9819  19.185  21.508  14.244
44593W        W 9820  38.543   0.406  14.864
44594W        W 9821  12.737  13.215  11.868
44595W        W 9822   1.812  33.909   4.779
44596W        W 9823  39.060  36.777   1.466
44597W        W 9824  16.579   9.343   4.901
44598W        W 9825  34.099  12.519   5.016
44599W        W 9826  31.243  30.586   3.847
44600W        W 9827   0.916  35.472   3.810
44601W        W 9828  29.909  41.780  11.610
44602W        W 9829  36.719   3.183   3.923
44603W        W 9830  23.931   1.868   9.723
44604W        W 9831   8.795  41.829  10.657
44605W        W 9832   2.995  31.298  14.549
44606W        W 9833   6.824  44.976  11.535
44607W        W 9834  26.002   2.025   1.943
44608W        W 9835  21.040  10.595   3.995
44609W        W 9836  40.263  21.982   4.885
44610W        W 9837   6.475  36.696  10.851
44611W        W 9838   8.656  11.250  13.925
44612W        W 9839  31.952  17.271   2.706
44613W        W 9840  29.270  33.660   4.700
44614W        W 9841  31.640   0.831  12.623
44615W        W 9842  28.988  19.352  14.563
44616W        W 9843  33.735  28.543   4.790
44617W        W 9844  41.401   0.990  14.861
44618W        W 9845  11.977  11.789  12.823
44619W        W 9846  41.037   9.744   2.226
44620W        W 9847  34.532  24.943  13.952
44621W        W 9848  19.585   7.993   0.802
44622W        W 9849  27.991  27.003   1.329
44623W        W 9850  33.088  14.989   4.559
44624W        W 9851  26.070  17.174   0.719
44625W        W 9852  32.964  32.505  11.989
44626W        W 9853  19.773  40.432  12.829
44627W        W 9854  32.431  10.814   0.091
44628W        W 9855  23.151  18.316  13.147
44629W        W 9856  15.425  22.165   2.373
44630W        W 9857  30.561   7.364  13.147
44631W        W 9858  44.969  10.907   3.678
44632W        W 9859  19.562  10.144  11.397
44633W        W 9860  26.005  33.485   4.281
44634W        W 9861   5.671  31.875  11.595
44635W        W 9862  29.199  15.223  14.837
44636W        W 9863   8.580  32.706  10.253
44637W        W 9864  18.947  24.130   2.385
44638W        W 9865  35.442  17.303   2.394
44639W        W 9866  16.740  19.311   3.718
44640W        W 9867  22.046  32.510   2.394
44641W        W 9868  16.422  16.997  14.936
44642W        W 9869  31.000   5.619   0.520
44643W        W 9870  18.735  25.304  13.279
44644W        W 9871  34.365   3.502   1.902
44645W        W 9872  44.823  16.364  11.395
44646W        W 9873  26.980   6.753   2.928
44647W        W 9874   0.393   7.208   0.522
44648W        W 9875  43.757  37.477   2.157
44649W        W 9876  38.772  37.639   4.136
44650W        W 9877  30.935  12.095   9.713
44651W        W 9878   3.341  16.222   2.681
44652W        W 9879  41.498  31.092  13.061
44653W        W 9880  33.662  10.844   4.172
44654W        W 9881  22.229  25.105   2.698
44655W        W 9882  41.294  34.030  12.945
44656W        W 9883  11.356  35.955  11.032
44657W        W 9884  32.402  33.491   2.621
44658W        W 9885  26.224   9.321   4.018
44659W        W 9886  27.282  11.254   3.794
44660W        W 9887  39.253  13.580   4.268
44661W        W 9888  43.050  23.118  14.449
44662W        W 9889   8.744  36.467  12.649
44663W        W 9890  19.760  32.722  14.181
44664W        W 9891  31.380   3.107  14.089
44665W        W 9892  26.734   9.856   2.298
44666W        W 9893  26.135  26.211  10.982
44667W        W 9894  39.453  30.638   2.841
44668W        W 9895  18.487  41.858   1.698
44669W        W 9896  21.360  40.732   3.687
44670W        W 9897  22.554  27.350   3.764
44671W        W 9898  32.618  32.923   3.831
44672W        W 9899  23.148  20.328  11.942
44673W        W 9900  29.496  28.095   1.931
44674W        W 9901  19.016  38.102  11.738
44675W        W 9902  25.997   0.880  13.578
44676W        W 9903   6.811   8.909   1.614
44677W        W 9904  41.277  25.538  12.882
44678W        W 9905   5.802  36.422  12.107
44679W        W 9906  17.170   5.189  11.673
44680W        W 9907  28.932   2.539   1.431
44681W        W 9908  12.365  17.156   5.053
44682W        W 9909  19.963  33.483   3.419
44683W        W 9910  35.055   3.142  12.030
44684W        W 9911  33.378   9.621   2.373
44685W        W 9912  25.143  15.778   1.171
44686W        W 9913   1.309  26.985  12.816
44687W        W 9914  42.371   8.255   0.711
44688W        W 9915  12.674  41.006  11.635
44689W        W 9916  40.508   0.406  14.761
44690W        W 9917  37.662  25.363  11.964
44691W        W 9918  24.731  31.281   2.606
44692W        W 9919   5.887   5.141  10.766
44693W        W 9920  31.176   9.107  13.464
44694W        W 9921   6.824  31.212  13.797
44695W        W 9922  30.297  14.616   0.034
44696W        W 9923   0.256  11.346   1.733
44697W        W 9924  11.611  23.120   2.362
44698W        W 9925   4.495  22.705   1.900
44699W        W 9926  12.059  37.849  11.458
44700W        W 9927  36.834  41.795  14.842
44701W        W 9928  15.519  22.074   4.522
44702W        W 9929  19.748  40.714  10.514
44703W        W 9930  38.217  27.683  13.862
44704W        W 9931  23.637   8.941  12.521
44705W        W 9932  19.640  22.271  14.731
44706W        W 9933   8.722  41.803  14.577
44707W        W 9934   9.825  26.719   0.319
44708W        W 9935  22.784  20.453  12.579
44709W        W 9936  10.862  27.779  13.509
44710W        W 9937   3.295  22.556  14.745
44711W        W 9938  14.268  29.464  14.828
44712W        W 9939  41.790  17.597   4.297
44713W        W 9940  32.044  31.766  14.317
44714W        W 9941  37.004  43.821  14.983
44715W        W 9942   5.685  38.924   4.357
44716W        W 9943  36.498  31.126   4.057
44717W        W 9944   7.649   6.394   2.106
44718W        W 9945  20.904  24.796  11.861
44719W        W 9946  16.694  32.078   0.486
44720W        W 9947  18.650  39.366  14.958
44721W        W 9948  28.441  13.129  13.513
44722W        W 9949  20.126  21.808  10.857
44723W        W 9950   7.414  13.384   4.279
44724W        W 9951  25.271   9.622   0.408
44725W        W 9952  33.833  32.616   1.155
44726W        W 9953  41.991  39.501  11.892
44727W        W 9954  17.622   1.381  14.533
44728W        W 9955  39.651  43.463  10.542
44729W        W 9956  38.485  24.407  14.317
44730W        W 9957   3.824  31.975  11.532
44731W        W 9958  23.498  14.701   0.384
44732W        W 9959  25.576  11.921  13.380
44733W        W 9960  28.477  24.605  11.672
44734W        W 9961  42.042  32.968   2.280
44735W        W 9962   8.916   1.192   3.733
44736W        W 9963  29.359   0.360  11.707
44737W        W 9964  24.326  16.725   0.047
44738W        W 9965   7.230  23.889   1.325
44739W        W 9966   9.812  19.880   1.718
44740W        W 9967  21.840  42.809   2.760
44741W        W 9968  35.119   2.368   0.887
44742W        W 9969  34.670  13.286   4.973
44743W        W 9970   0.505  24.307   1.287
44744W        W 9971  36.502  15.179   2.788
44745W        W 9972  24.233  15.218   1.927
44746W        W 9973  44.376  11.889  10.705
44747W        W 9974  20.842  22.736  12.489
44748W        W 9975   5.456  34.343   1.194
44749W        W 9976   6.962   0.642  11.550
44750W        W 9977  37.829   7.934  11.657
44751W        W 9978   0.522   7.356  11.320
44752W        W 9979  14.455  42.728   1.350
44753W        W 9980   5.868   8.186   1.079
44754W        W 9981  11.404   0.345  13.641
44755W        W 9982   4.879   5.657   3.728
44756W        W 9983  25.002   3.019   4.660
44757W        W 9984  38.619  14.854   3.148
44758W        W 9985  39.441  37.483   0.326
44759W        W 9986  15.107   2.216   0.845
44760W        W 9987  14.291   5.496   2.835
44761W        W 9988  12.386  24.073  12.915
44762W        W 9989  18.707  18.800   1.361
44763W        W 9990   2.308  14.664   2.346
44764W        W 9991   7.849  31.995   1.928
44765W        W 9992  21.068  44.123  10.586
44766W        W 9993  43.005  23.279  13.959
44767W        W 9994  37.064   3.452   2.579
44768W        W 9995  22.377  44.280   4.217
44769W        W 9996  35.037   4.768  14.341
44770W        W 9997  10.234   6.703  12.174
44771W        W 9998  44.339  42.728  14.047
44772W        W 9999  19.436  43.556   3.208
44773W        W10000  29.510   7.853  10.837
44774W        W10001  23.768  33.275   3.890
44775W        W10002  41.275  21.252   2.683
44776W        W10003   0.443  34.388   3.318
44777W        W10004  41.129  21.321   1.529
44778W        W10005  26.138  28.589   1.356
44779W        W10006  43.856   5.112  10.419
44780W        W10007  43.407  33.141   1.954
44781W        W10008  22.676  41.237   0.317
44782W        W10009   0.555  20.229  12.068
44783W        W10010  33.665   3.509  13.511
44784W        W10011  13.744  27.063  11.960
44785W        W10012  29.651   9.775  13.862
44786W        W10013   5.251  33.919   3.095
44787W        W10014  23.578  43.393  13.027
44788W        W10015  42.741  17.923   4.100
44789W        W10016  37.831  39.225  13.011
44790W        W10017  17.185  42.816  11.984
44791W        W10018  31.939  11.193  11.603
44792W        W10019  28.627   8.078   1.062
44793W        W10020   7.621  26.022   0.384
44794W        W10021   8.425  15.037  12.899
44795W        W10022  26.725  29.460  11.130
44796W        W10023   0.824  37.995   3.199
44797W        W10024  42.243  35.327  13.115
44798W        W10025   8.721  44.965  12.960
44799W        W10026  37.543  36.657  12.944
44800W        W10027  18.851  34.738   4.118
44801W        W10028  11.189  36.132   3.975
44802W        W10029  23.458  36.772   2.787
44803W        W10030  26.975  24.345   4.129
44804W        W10031  16.616  39.880  14.478
44805W        W10032  11.347   8.317  14.570
44806W        W10033   3.006  37.426  11.149
44807W        W10034  31.123  38.976  12.065
44808W        W10035  14.971  39.570  13.198
44809W        W10036  12.432  21.606  14.726
44810W        W10037  12.435  30.483  14.575
44811W        W10038  12.921  21.479  13.267
44812W        W10039  18.753  24.541   1.224
44813W        W10040   8.589  24.568  13.028
44814W        W10041  37.657  16.896  10.982
44815W        W10042   6.785  25.066   3.599
44816W        W10043  30.940  27.894  14.625
44817W        W10044  41.807  15.515   2.850
44818W        W10045  19.332  10.711  12.494
44819W        W10046   7.287  17.106  13.745
44820W        W10047  29.643  25.038   2.502
44821W        W10048  36.146  12.862   3.388
44822W        W10049  10.599  21.029  14.816
44823W        W10050   5.302  41.603  14.786
44824W        W10051  37.090   2.223   3.632
44825W        W10052  34.031  25.010   4.127
44826W        W10053  12.037  30.727   5.400
44827W        W10054  21.189  12.787   2.824
44828W        W10055  34.114  11.339   1.630
44829W        W10056  22.067  25.811  12.546
44830W        W10057  32.204  34.924  12.201
44831W        W10058   5.408   5.419  13.951
44832W        W10059  38.801   1.466   2.753
44833W        W10060   9.168  31.344  12.018
44834W        W10061  13.360   8.069   1.804
44835W        W10062  24.277  43.751  12.232
44836W        W10063  43.934  18.959  14.230
44837W        W10064  44.763  37.574  12.516
44838W        W10065   6.867   0.107  12.876
44839W        W10066  14.173   4.799   1.264
44840W        W10067   9.794  10.166   0.870
44841W        W10068  24.542  10.725  11.625
44842W        W10069  29.553  20.963   1.352
44843W        W10070  28.033   9.388  14.351
44844W        W10071  41.110  19.214   2.767
44845W        W10072  42.997  44.482   2.733
44846W        W10073  16.972   7.095   3.059
44847W        W10074  26.987  29.620  10.655
44848W        W10075  35.031   6.465   0.837
44849W        W10076  24.703  28.983  11.491
44850W        W10077  19.802  43.795   3.481
44851W        W10078  26.117   9.612  13.139
44852W        W10079  32.849  33.789   5.206
44853W        W10080   8.320  36.947   4.385
44854W        W10081  16.714  40.571  13.033
44855W        W10082  31.650  11.732  13.042
44856W        W10083  10.422   1.973  11.608
44857W        W10084  36.527  38.022  12.897
44858W        W10085  17.880   8.635   4.921
44859W        W10086  23.851  40.958   2.298
44860W        W10087  12.733  29.689  13.107
44861W        W10088  22.040  31.197  10.957
44862W        W10089  20.708  29.629  12.653
44863W        W10090  31.996  13.730  14.222
44864W        W10091  10.989   4.824  11.458
44865W        W10092  28.778  22.734  12.836
44866W        W10093  31.363  15.034  13.025
44867W        W10094  12.161  39.784  12.040
44868W        W10095  11.465  14.794   5.323
44869W        W10096  11.168   0.335   0.546
44870W        W10097   6.002  42.417  14.900
44871W        W10098  12.624   6.781  12.684
44872W        W10099   7.092  18.794   3.337
44873W        W10100   4.953  24.606  11.089
44874W        W10101   8.605  35.984  13.353
44875W        W10102  29.438  25.721  11.215
44876W        W10103  33.403   7.980  14.896
44877W        W10104  41.409  33.963   4.099
44878W        W10105   5.719  29.061  12.120
44879W        W10106  40.093  30.381  13.891
44880W        W10107  26.123  13.384  11.622
44881W        W10108  16.235  41.214   1.918
44882W        W10109  30.560  21.814   2.852
44883W        W10110   8.440  25.940  13.940
44884W        W10111  29.102  37.091   9.709
44885W        W10112  30.236   9.256  14.453
44886W        W10113  27.018   1.049  14.444
44887W        W10114   1.275   1.278   3.263
44888W        W10115  17.175  31.352  13.247
44889W        W10116  38.351  23.560   0.806
44890W        W10117   9.781  41.009  14.685
44891W        W10118  20.154   3.739   2.898
44892W        W10119   6.919   9.429   3.231
44893W        W10120  30.114  44.928   3.079
44894W        W10121  37.313  26.109   0.873
44895W        W10122  35.146   8.269   1.215
44896W        W10123  33.144  32.003   3.214
44897W        W10124   5.388  37.887   1.852
44898W        W10125  37.946  43.526  11.192
44899W        W10126  39.445  20.483  14.427
44900W        W10127   3.600  34.129   4.850
44901W        W10128   7.686  22.709   4.802
44902W        W10129  29.620  22.904  14.385
44903W        W10130  36.828  28.523  13.693
44904W        W10131   8.776  33.064  11.470
44905W        W10132   3.522  18.085   3.469
44906W        W10133  14.904  18.668   0.792
44907W        W10134  22.924  14.619   4.980
44908W        W10135  19.065  40.499   3.055
44909W        W10136   8.661  21.588  12.741
44910W        W10137  41.141  40.110   1.853
44911W        W10138  10.794  31.132   0.551
44912W        W10139  22.466   8.856   2.358
44913W        W10140  23.300  33.619  13.555
44914W        W10141  12.298   0.646  14.575
44915W        W10142  23.161  20.811  11.065
44916W        W10143  16.805  19.189   1.631
44917W        W10144  28.762  26.799   5.421
44918W        W10145   5.496  32.052   4.222
44919W        W10146   1.832  27.694  10.762
44920W        W10147  13.729  35.831  14.266
44921W        W10148  44.317  25.579  12.514
44922W        W10149  37.830  22.749  14.474
44923W        W10150  43.244  28.562   5.799
44924W        W10151  35.761  38.757  13.052
44925W        W10152  40.963  30.663   0.014
44926W        W10153   4.041  22.230  11.600
44927W        W10154  10.683   8.692  12.423
44928W        W10155  26.452  28.690  14.359
44929W        W10156  43.806  31.697  12.545
44930W        W10157  38.369  20.076   3.881
44931W        W10158  32.666  36.791  13.311
44932W        W10159   9.194   8.161  14.889
44933W        W10160  12.129  23.664  14.958
44934W        W10161  41.481  38.254  14.213
44935W        W10162  17.231  33.478  12.031
44936W        W10163  33.094  19.146   4.608
44937W        W10164  38.373   9.257  14.427
44938W        W10165  17.312  27.506   4.692
44939W        W10166   5.699  36.551  11.186
44940W        W10167  14.290  31.801   2.732
44941W        W10168  13.655   6.865   3.858
44942W        W10169  43.020  12.221   2.779
44943W        W10170  21.941   4.322  12.570
44944W        W10171  11.735  18.780   0.254
44945W        W10172  34.099  36.072  13.436
44946W        W10173  12.435  42.109   1.861
44947W        W10174  38.945   9.940   1.372
44948W        W10175  26.163  26.041  13.540
44949W        W10176   5.168  28.047   1.751
44950W        W10177  36.366   3.243   1.148
44951W        W10178   4.803  21.595  12.556
44952W        W10179  34.113  28.683  10.632
44953W        W10180  39.447   5.039   0.282
44954W        W10181  22.046  41.991  13.942
44955W        W10182  18.223  29.114   4.156
44956W        W10183  12.730  18.150   3.452
44957W        W10184   5.314  22.340   0.359
44958W        W10185  17.466   5.909   0.545
44959W        W10186   9.127  19.465   0.307
44960W        W10187  39.475  25.884   3.768
44961W        W10188  36.291  42.057   1.267
44962W        W10189  19.025   3.540  13.316
44963W        W10190  26.508  32.479   3.395
44964W        W10191   5.878  16.072  13.338
44965W        W10192  34.555   0.194   4.272
44966W        W10193  21.499   7.313   4.313
44967W        W10194  29.094  11.127   2.261
44968W        W10195  30.757  39.731   2.000
44969W        W10196  10.661  16.752   2.715
44970W        W10197  25.241  44.363  13.571
44971W        W10198  30.873  16.286  14.791
44972W        W10199  30.535   8.199  14.793
44973W        W10200   5.272  28.578   3.563
44974W        W10201   7.667   4.899  12.394
44975W        W10202  32.101  17.881   0.258
44976W        W10203  44.430  38.942   9.981
44977W        W10204   5.748  40.296   4.518
44978W        W10205  21.281  33.039   4.581
44979W        W10206  43.873  21.657   4.571
44980W        W10207  15.584  43.272   2.763
44981W        W10208  26.163  34.345  14.969
44982W        W10209   5.869  12.617  14.407
44983W        W10210   7.875  20.215  14.006
44984W        W10211  25.645  15.798   4.234
44985W        W10212  17.181  43.453   4.398
44986W        W10213   2.689  28.600   1.298
44987W        W10214  38.535  35.341   2.435
44988W        W10215   9.390  41.051  10.973
44989W        W10216   9.960  11.650   4.578
44990W        W10217  43.612   5.390   1.323
44991W        W10218  41.988   3.109   1.376
44992W        W10219  27.765   2.323  11.951
44993W        W10220   9.197  42.257   2.292
44994W        W10221  31.579   9.930   1.370
44995W        W10222  38.009  25.538  12.297
44996W        W10223   8.275  18.083  13.006
44997W        W10224   4.552  23.084   4.121
44998W        W10225   2.319  16.674   3.368
44999W        W10226   6.142   1.477  14.748
45000W        W10227  37.792  11.624  14.386
45001W        W10228  33.543  14.037   4.172
45002W        W10229  16.104  20.816   4.557
45003W        W10230  10.039  44.339  10.060
45004W        W10231  17.643  37.991  13.571
45005W        W10232  21.650  10.756   4.538
45006W        W10233  12.210  24.324   4.843
45007W        W10234  18.232  18.489   4.094
45008W        W10235  12.155  31.593   4.945
45009W        W10236  28.989   8.371   1.375
45010W        W10237  44.599  35.869   0.092
45011W        W10238  18.619  28.852   4.376
45012W        W10239   0.683  23.991  11.550
45013W        W10240   2.256  37.000  10.676
45014W        W10241  14.309  15.721  12.934
45015W        W10242  36.393  41.947  12.606
45016W        W10243   5.134  18.503   4.146
45017W        W10244   0.117   2.724   4.726
45018W        W10245  15.909  29.925  12.677
45019W        W10246  12.568  34.970   0.920
45020W        W10247  18.556  18.006   0.841
45021W        W10248  14.771  44.137  11.288
45022W        W10249  19.518   4.973  13.651
45023W        W10250  21.784  13.803   1.349
45024W        W10251  27.751  24.299   3.742
45025W        W10252  25.618  33.405   3.614
45026W        W10253  24.829  35.930   1.312
45027W        W10254  18.225  33.656  14.123
45028W        W10255   6.987  26.771  12.854
45029W        W10256  14.294  15.697   0.429
45030W        W10257  23.068  43.232   4.216
45031W        W10258  18.339   0.268   4.527
45032W        W10259  14.129  24.268   4.562
45033W        W10260   4.424  30.035  11.394
45034W        W10261  37.511  27.229  12.943
45035W        W10262  32.577  32.426  11.628
45036W        W10263  44.487   8.202   1.746
45037W        W10264  31.508   6.345   0.572
45038W        W10265  34.926  22.006   0.303
45039W        W10266  22.882  28.634   2.669
45040W        W10267  41.818  26.999   3.645
45041W        W10268   2.433  15.717   4.243
45042W        W10269   0.501  33.874   3.437
45043W        W10270  20.296   6.249   1.990
45044W        W10271  23.383  26.321  14.396
45045W        W10272  36.470   8.895   4.472
45046W        W10273  17.137  11.298  14.844
45047W        W10274   7.890  23.686  14.498
45048W        W10275   6.904  22.138  11.007
45049W        W10276  31.237   0.311   0.281
45050W        W10277  21.147  20.266   3.296
45051W        W10278  26.689  29.385   2.843
45052W        W10279  14.702  40.170   3.096
45053W        W10280  34.628  24.068   3.901
45054W        W10281  41.636  34.620   1.741
45055W        W10282  25.449  34.630   0.394
45056W        W10283  38.935   8.950  13.874
45057W        W10284  25.998   5.920   0.399
45058W        W10285  39.659  11.403  10.556
45059W        W10286   6.632   5.227  14.044
45060W        W10287   1.920   4.296   3.202
45061W        W10288   7.761   3.200  14.866
45062W        W10289   9.100  17.815  10.185
45063W        W10290  18.591  17.855  10.299
45064W        W10291  32.381  42.979  14.596
45065W        W10292  33.008  14.045  14.387
45066W        W10293  23.027  22.807   3.134
45067W        W10294  28.458  34.070  13.184
45068W        W10295  41.679  43.792   3.703
45069W        W10296  36.780  14.688   3.709
45070W        W10297  19.098   0.490  14.854
45071W        W10298  42.120   9.666   1.218
45072W        W10299  19.116  21.166  13.878
45073W        W10300  25.447   7.922  13.343
45074W        W10301  32.697  28.083  10.251
45075W        W10302  13.236  37.578   3.127
45076W        W10303   6.887  18.351  11.659
45077W        W10304   7.300   9.779   3.231
45078W        W10305  16.600   1.600  13.755
45079W        W10306  41.771  39.875   3.422
45080W        W10307   8.164  40.077  10.731
45081W        W10308  11.613  22.133   9.896
45082W        W10309   8.240  21.921  11.998
45083W        W10310  10.307  14.674   1.938
45084W        W10311  39.769  14.877   1.849
45085W        W10312  20.937  10.865   2.309
45086W        W10313  19.162  38.607  11.108
45087W        W10314  21.271   5.876  14.967
45088W        W10315  18.813  36.874  12.479
45089W        W10316  34.794  12.644   0.967
45090W        W10317  13.535  16.397   1.799
45091W        W10318  37.930  26.464   3.334
45092W        W10319   6.226  16.746   1.896
45093W        W10320  24.710  19.657   3.279
45094W        W10321  13.992  27.656  11.199
45095W        W10322   3.704  13.757   1.395
45096W        W10323  22.776  21.225   3.602
45097W        W10324   1.002  36.803  12.442
45098W        W10325  18.198   1.010   3.822
45099W        W10326  32.173  36.917   0.250
45100W        W10327  20.828  21.176  11.725
45101W        W10328  24.983   7.848   0.843
45102W        W10329  17.513  16.762  13.479
45103W        W10330   9.580  22.569  12.040
45104W        W10331  44.168  26.494   5.519
45105W        W10332  29.689  27.617  13.545
45106W        W10333  29.948  29.039   0.784
45107W        W10334   5.875  11.624   0.713
45108W        W10335  36.849  26.597   3.324
45109W        W10336   9.185   4.789  12.647
45110W        W10337  43.312   5.002  14.117
45111W        W10338   9.299  41.741   4.333
45112W        W10339   1.409  40.885   1.386
45113W        W10340  17.995   5.791   0.484
45114W        W10341  26.157  33.150   2.274
45115W        W10342  23.255  20.151  14.416
45116W        W10343  13.948   9.995   3.547
45117W        W10344  26.432  39.404   5.209
45118W        W10345  32.294  27.160   3.529
45119W        W10346  41.716   1.350   4.873
45120W        W10347  34.325   3.915  14.922
45121W        W10348  17.753   3.782   4.149
45122W        W10349  21.625   2.315  14.945
45123W        W10350  34.642  40.462   2.604
45124W        W10351   3.404  37.563   1.300
45125W        W10352  42.899   1.729  11.915
45126W        W10353   8.356  34.528   1.588
45127W        W10354  16.297   7.796  10.699
45128W        W10355  14.132  18.671  12.008
45129W        W10356  12.913  16.080  13.500
45130W        W10357  36.489  12.454   3.373
45131W        W10358  41.212   8.310   1.098
45132W        W10359  10.236  24.079  10.718
45133W        W10360  33.127  13.137   0.280
45134W        W10361  18.650   7.279  11.925
45135W        W10362  31.401  44.556  14.896
45136W        W10363   3.812  14.164   0.826
45137W        W10364   1.219   8.209  12.819
45138W        W10365  23.037  29.445  12.663
45139W        W10366  34.943  15.535  13.894
45140W        W10367  14.814  28.212  12.991
45141W        W10368  41.960  36.025   0.723
45142W        W10369  27.260   6.245   1.577
45143W        W10370  44.470   9.102   3.628
45144W        W10371  39.636  44.329  10.217
45145W        W10372  26.953  34.067   4.270
45146W        W10373  23.502   9.791  13.442
45147W        W10374  18.862  14.602  13.982
45148W        W10375  33.373  34.256  10.760
45149W        W10376  14.251   2.208   3.757
45150W        W10377  24.093  28.393  11.171
45151W        W10378  40.624  16.736   1.174
45152W        W10379  30.193  12.356  12.589
45153W        W10380  30.692   3.738   4.260
45154W        W10381  12.918  19.903   3.625
45155W        W10382   5.447  12.623  11.064
45156W        W10383  24.579  25.317  11.656
45157W        W10384  44.361  28.126  11.729
45158W        W10385  24.081  14.881   4.452
45159W        W10386  35.694  42.848  11.206
45160W        W10387   1.257  10.269  12.965
45161W        W10388   6.495  39.143  14.474
45162W        W10389  33.435  10.112  14.321
45163W        W10390  44.255  21.565   4.054
45164W        W10391  10.343   3.797   0.448
45165W        W10392   8.423  42.043   2.749
45166W        W10393  13.146  10.059  14.950
45167W        W10394  33.861   2.336  14.937
45168W        W10395   3.403  37.076  13.776
45169W        W10396  41.852  44.557  13.924
45170W        W10397  15.226  39.903   4.562
45171W        W10398  14.896  34.325   3.836
45172W        W10399   7.428  11.312  10.663
45173W        W10400  27.340  12.257   0.503
45174W        W10401   0.777  14.653  11.088
45175W        W10402  39.322  22.420  12.120
45176W        W10403  12.656   1.777  14.167
45177W        W10404  14.119   0.700  11.358
45178W        W10405  12.176  30.946   3.739
45179W        W10406   5.484  44.297   1.696
45180W        W10407  34.546   8.387   2.593
45181W        W10408   4.947  28.997   4.587
45182W        W10409  24.785  39.299  12.487
45183W        W10410  12.570  22.823  14.193
45184W        W10411   0.773  25.065   0.558
45185W        W10412  37.927  28.411   3.214
45186W        W10413  12.713   9.373  14.867
45187W        W10414  22.986  33.487  14.540
45188W        W10415  15.080  32.068   3.826
45189W        W10416  34.567  16.005   3.701
45190W        W10417  20.240  38.062   1.017
45191W        W10418  30.018   7.710  12.749
45192W        W10419  14.317  38.636   1.823
45193W        W10420  34.886   7.859   2.837
45194W        W10421  10.190  37.064   2.253
45195W        W10422  26.163  20.356   5.013
45196W        W10423  18.991   4.146   0.423
45197W        W10424  30.031  11.862   2.480
45198W        W10425  19.810  22.652  13.912
45199W        W10426  19.271  23.714   2.270
45200W        W10427  14.766  16.737   4.513
45201W        W10428  18.068  26.590   2.118
45202W        W10429   0.307  35.300  14.347
45203W        W10430  27.201   9.342  11.731
45204W        W10431   6.031  35.479   4.128
45205W        W10432  33.874   9.675  10.431
45206W        W10433  35.685  12.354   1.299
45207W        W10434  36.984  35.376  11.247
45208W        W10435  30.828  34.961   4.953
45209W        W10436  17.990  37.091  13.377
45210W        W10437   9.847   0.536   3.303
45211W        W10438  22.302  22.109   1.589
45212W        W10439  41.409  12.250  12.410
45213W        W10440  26.195  34.179  11.237
45214W        W10441  10.873  44.044   1.909
45215W        W10442  38.077  38.031   0.908
45216W        W10443  43.198   9.100  10.886
45217W        W10444  11.284  25.219   2.261
45218W        W10445  20.544  35.799  14.940
45219W        W10446  31.593   5.026  12.204
45220W        W10447  41.860   5.269   9.852
45221W        W10448   7.315   2.418  10.694
45222W        W10449   6.219  26.526   3.684
45223W        W10450   2.502  40.248   2.232
45224W        W10451  44.028  22.291   1.948
45225W        W10452  30.447  24.533  12.079
45226W        W10453  37.441  37.634  10.499
45227W        W10454  41.029  40.413   1.245
45228W        W10455   3.491   0.330  14.375
45229W        W10456  37.356  11.821   4.117
45230W        W10457  28.750  37.033  12.829
45231W        W10458  43.731  22.015  13.880
45232W        W10459  23.544  44.789  12.281
45233W        W10460  43.265   0.413  12.677
45234W        W10461   9.358  31.426  10.981
45235W        W10462  25.207  27.168   1.468
45236W        W10463  40.071  39.481  14.741
45237W        W10464   8.149   4.707  11.057
45238W        W10465  30.841  24.728   1.392
45239W        W10466  31.183  16.510   3.642
45240W        W10467   9.625  34.839  10.973
45241W        W10468  33.156  21.682  11.581
45242W        W10469  42.590  31.113   1.233
45243W        W10470  22.458  17.071   0.530
45244W        W10471  27.617  43.188   2.146
45245W        W10472  23.895  21.927  12.281
45246W        W10473  36.373  12.566  12.925
45247W        W10474  35.034  44.265  12.919
45248W        W10475  28.993  44.349   0.999
45249W        W10476  20.276  16.353  13.319
45250W        W10477  30.091  22.083   0.726
45251W        W10478  20.054  44.190   0.181
45252W        W10479   0.267  44.768  14.462
45253W        W10480  29.063  34.659  12.563
45254W        W10481   3.330  25.248  11.071
45255W        W10482  41.976  30.470  10.041
45256W        W10483  16.000  10.852  12.029
45257W        W10484  18.580  37.964   4.589
45258W        W10485  44.135  41.122  12.632
45259W        W10486   7.899  25.018   2.546
45260W        W10487  10.860   8.190  13.026
45261W        W10488  19.096  25.955  14.283
45262W        W10489   3.318  21.534  11.211
45263W        W10490  37.333  44.736   4.074
45264W        W10491  32.571   3.449   4.959
45265W        W10492  11.321  14.323   3.615
45266W        W10493  43.254  13.712   3.196
45267W        W10494  13.591  27.919  13.516
45268W        W10495   4.404  44.969   3.289
45269W        W10496   7.541  21.106  11.635
45270W        W10497  18.559   5.689   2.097
45271W        W10498  16.327   5.164  14.259
45272W        W10499   1.957  41.964   0.921
45273W        W10500  33.319   1.090   3.043
45274W        W10501  44.364  18.032   3.703
45275W        W10502  41.422  32.509   0.383
45276W        W10503   4.881  40.866   1.145
45277W        W10504  13.290  16.030   2.426
45278W        W10505  10.448  43.329  13.114
45279W        W10506  15.590  29.517  12.524
45280W        W10507   8.566  17.505  10.726
45281W        W10508  11.695  31.226  11.981
45282W        W10509  27.875  25.539   2.397
45283W        W10510  35.687  25.683  14.300
45284W        W10511  33.615  10.017  11.617
45285W        W10512  37.888   0.210  13.461
45286W        W10513   8.742  25.177   4.686
45287W        W10514   4.814   9.988   2.912
45288W        W10515  25.003  14.209   1.191
45289W        W10516   8.428  26.439   4.100
45290W        W10517  41.340  20.817  10.735
45291W        W10518  42.945   9.303   1.262
45292W        W10519  17.211  38.088  12.356
45293W        W10520  25.037   4.005   0.313
45294W        W10521  35.491  37.289   1.325
45295W        W10522  19.625  14.588   2.782
45296W        W10523  21.780  32.347   1.757
45297W        W10524   5.544  13.261   1.159
45298W        W10525   5.001  31.409   2.255
45299W        W10526  22.794   6.139  12.915
45300W        W10527  27.898  34.482  13.874
45301W        W10528  34.785  36.078   0.714
45302W        W10529   6.592  20.578   4.856
45303W        W10530  22.547   5.545   2.105
45304W        W10531  25.843  13.185   4.531
45305W        W10532  38.419   0.879   1.312
45306W        W10533  21.751  25.618  14.895
45307W        W10534  41.274  13.317  12.008
45308W        W10535  14.185  20.231  11.461
45309W        W10536  38.115  33.274   0.803
45310W        W10537  33.426   1.939   4.152
45311W        W10538  11.208  38.015   1.522
45312W        W10539   1.630  22.938  11.000
45313W        W10540  13.046  12.147  10.491
45314W        W10541  35.888  40.573   4.519
45315W        W10542   8.453  40.406  12.645
45316W        W10543  13.976  35.378  11.546
45317W        W10544  34.922  29.623   1.372
45318W        W10545  26.698  41.553   1.741
45319W        W10546  12.265  13.171   2.140
45320W        W10547  29.584  18.734  13.929
45321W        W10548  24.616   0.450   0.849
45322W        W10549   4.330   9.247   0.189
45323W        W10550  22.551  41.187   4.243
45324W        W10551  15.547  32.431   0.092
45325W        W10552  25.963   9.626   1.263
45326W        W10553  29.706  36.231  14.134
45327W        W10554  42.251  36.907   0.842
45328W        W10555   8.913  31.415  12.592
45329W        W10556  21.043  42.297  11.665
45330W        W10557  44.286  12.406  10.617
45331W        W10558   2.773  17.116  12.884
45332W        W10559  27.046   0.226  10.105
45333W        W10560  20.045   3.455   4.034
45334W        W10561  42.646  16.217   2.668
45335W        W10562  44.801  11.717  13.122
45336W        W10563   8.636  18.719   0.420
45337W        W10564   6.360   8.857   1.333
45338W        W10565  29.956  27.784   0.423
45339W        W10566  40.916  25.768  11.299
45340W        W10567  12.473  11.333   1.407
45341W        W10568  33.086   9.024   3.881
45342W        W10569  31.558  35.469   5.351
45343W        W10570  35.088  34.404   1.634
45344W        W10571  42.200  30.630   5.122
45345W        W10572  33.011  41.882   1.736
45346W        W10573  42.727  41.507  11.408
45347W        W10574  29.073  15.370   2.899
45348W        W10575  11.289  34.242   4.314
45349W        W10576  33.930  18.165  13.836
45350W        W10577   2.040  21.390  12.101
45351W        W10578  38.354  33.956  12.529
45352W        W10579  35.715  22.558   2.567
45353W        W10580  16.348   5.331  10.685
45354W        W10581  43.325  36.203  11.617
45355W        W10582  23.296  31.543  12.523
45356W        W10583  24.811  42.964   2.884
45357W        W10584   5.788  21.669  12.819
45358W        W10585  42.912   3.125  12.208
45359W        W10586  23.598   6.011  14.617
45360W        W10587  21.686  17.205  13.051
45361W        W10588  38.613  29.374   3.662
45362W        W10589   7.797  34.941   1.701
45363W        W10590  44.806   8.737  12.531
45364W        W10591  15.596   2.321   0.744
45365W        W10592  42.012  11.369   4.139
45366W        W10593  15.771  24.625  12.010
45367W        W10594  22.624   8.692   3.370
45368W        W10595  29.408  44.215  13.509
45369W        W10596  40.839  37.890   4.629
45370W        W10597  21.241  38.830   1.364
45371W        W10598  30.155  30.013   4.323
45372W        W10599  28.460  33.640   3.481
45373W        W10600  11.098  39.239  10.627
45374W        W10601   0.041  12.771   3.410
45375W        W10602  44.224   0.470  11.666
45376W        W10603  21.298  31.462  10.650
45377W        W10604  42.353  40.979  12.418
45378W        W10605  39.364  35.335   0.939
45379W        W10606  39.331  17.632   4.224
45380W        W10607  17.624  14.703   4.433
45381W        W10608  25.764   0.229   0.359
45382W        W10609   4.106  16.763   0.532
45383W        W10610  26.116  17.799  13.554
45384W        W10611  25.977  24.515   1.780
45385W        W10612  21.534  11.335  11.260
45386W        W10613  23.944  20.119  11.064
45387W        W10614   7.250  40.331  10.721
45388W        W10615  38.450  27.187  12.984
45389W        W10616   6.931  12.752  12.543
45390W        W10617  35.582  32.792   4.304
45391W        W10618  22.710  16.488  12.577
45392W        W10619  33.532  12.392   1.673
45393W        W10620  17.268  15.711   3.326
45394W        W10621   6.938  11.340  13.067
45395W        W10622  37.520  13.900   3.331
45396W        W10623   8.884   0.478  13.961
45397W        W10624  20.019  32.293  12.019
45398W        W10625  42.007  16.145  14.984
45399W        W10626  19.342  11.958  11.469
45400W        W10627   8.213  41.610  14.522
45401W        W10628   0.473   2.964  11.641
45402W        W10629  15.773  30.887   1.055
45403W        W10630  40.535   4.325   2.333
45404W        W10631   9.201   3.577  14.897
45405W        W10632  26.548   3.174   2.364
45406W        W10633  24.832  23.111   2.677
45407W        W10634  29.602  43.213   1.493
45408W        W10635   1.881  19.209   1.289
45409W        W10636   4.087  30.320  11.124
45410W        W10637  11.320   7.249   4.101
45411W        W10638  41.338   1.036   4.059
45412W        W10639  28.088  17.355  12.952
45413W        W10640  27.306  31.276  14.389
45414W        W10641  34.386  18.592   2.375
45415W        W10642  10.441  18.716  10.387
45416W        W10643  23.976  10.184   0.247
45417W        W10644   9.899  26.599  14.567
45418W        W10645  18.203  20.297  12.812
45419W        W10646  18.543  26.451   2.270
45420W        W10647  23.384  16.193   4.708
45421W        W10648   2.320  19.139   2.171
45422W        W10649  21.026  21.903   1.494
45423W        W10650  42.453  12.869   2.748
45424W        W10651  22.660  38.338  10.688
45425W        W10652  37.953  28.183  11.564
45426W        W10653  31.621  23.571  11.994
45427W        W10654  22.291  15.769  12.054
45428W        W10655  39.397  10.683   2.425
45429W        W10656  43.017   3.473  14.411
45430W        W10657  29.237   8.318  14.514
45431W        W10658  34.428  38.985  12.575
45432W        W10659  29.106  28.487   4.017
45433W        W10660   6.196  32.358  12.508
45434W        W10661   3.844  14.579   0.289
45435W        W10662  13.811  42.439  12.800
45436W        W10663  22.186  35.394  12.117
45437W        W10664  26.140  21.186  11.618
45438W        W10665  32.550   3.388   0.919
45439W        W10666  24.209  15.427  11.444
45440W        W10667  39.998  18.231   4.495
45441W        W10668  37.917  23.222   1.002
45442W        W10669   4.298   9.881   4.601
45443W        W10670  25.215  29.148  12.479
45444W        W10671  25.965  18.167   4.902
45445W        W10672  44.207  44.748  10.364
45446W        W10673  13.929  33.151  11.656
45447W        W10674   7.212  22.253  10.601
45448W        W10675   1.999   6.820   4.044
45449W        W10676  40.282  12.750   1.418
45450W        W10677  14.784  24.519   4.230
45451W        W10678  19.996   0.457   0.754
45452W        W10679  17.843   0.460  14.452
45453W        W10680   6.482   3.746   2.287
45454W        W10681  44.880  27.303   2.457
45455W        W10682  29.006  30.571  11.276
45456W        W10683  23.233  37.601  11.145
45457W        W10684  17.892  14.520  11.404
45458W        W10685   4.927  44.166  13.703
45459W        W10686  13.285   1.520   1.844
45460W        W10687   9.929   1.835  11.671
45461W        W10688  31.602  16.704  13.402
45462W        W10689  33.857  37.317   2.184
45463W        W10690   3.323  27.937  13.277
45464W        W10691  24.726  11.368   2.789
45465W        W10692  16.518  19.827  14.390
45466W        W10693  44.039   6.816  11.977
45467W        W10694  33.036   8.087  10.686
45468W        W10695  32.073   6.922  12.951
45469W        W10696  12.843  25.993  13.248
45470W        W10697  19.448   5.256  10.608
45471W        W10698  34.165  36.367  11.140
45472W        W10699  12.612  39.336   2.975
45473W        W10700   3.986  41.854  11.203
45474W        W10701  32.441  17.790   5.073
45475W        W10702  43.966  19.033  11.028
45476W        W10703  37.102  18.642  11.250
45477W        W10704  24.064   1.086  14.400
45478W        W10705  13.315  21.312   2.889
45479W        W10706   7.459  34.319   0.402
45480W        W10707  44.626   2.726   0.964
45481W        W10708  21.728  31.006  13.637
45482W        W10709  13.272  24.682   2.155
45483W        W10710  17.022  31.563   1.373
45484W        W10711   9.347   0.264  13.843
45485W        W10712  36.880  42.408  14.323
45486W        W10713  29.095  36.023   3.175
45487W        W10714   6.615  14.335   0.815
45488W        W10715  32.568  21.787  12.965
45489W        W10716  11.886  16.427   5.092
45490W        W10717  15.768  36.824   0.800
45491W        W10718  37.017  25.791  11.572
45492W        W10719  19.635   5.976  12.554
45493W        W10720   3.494  23.668  14.788
45494W        W10721  27.489  14.174  14.940
45495W        W10722   2.166  25.181   2.657
45496W        W10723   9.714   2.761   4.394
45497W        W10724  32.459  18.521  12.115
45498W        W10725  19.990  42.095  12.601
45499W        W10726  19.574   2.850  13.534
45500W        W10727   1.659  30.561  13.105
45501W        W10728  42.559  22.765   0.454
45502W        W10729  23.770   7.330   3.262
45503W        W10730  32.337  18.780   3.230
45504W        W10731   2.964  40.799   5.017
45505W        W10732  16.706  32.491   0.856
45506W        W10733  38.148   0.810   3.340
45507W        W10734  39.984   8.445  10.026
45508W        W10735  41.569   4.446  12.000
45509W        W10736  13.131  41.970   4.551
45510W        W10737   5.234  39.895   1.799
45511W        W10738  22.151  29.009  13.743
45512W        W10739  37.763   9.309   1.745
45513W        W10740  39.432  26.542  11.574
45514W        W10741  17.579  30.880   4.560
45515W        W10742  20.725  17.067   1.380
45516W        W10743  26.239   6.471   0.367
45517W        W10744  14.070  26.190   1.818
45518W        W10745   6.390  22.025  11.171
45519W        W10746  22.361   6.281   0.390
45520W        W10747  34.016  23.869   4.571
45521W        W10748  32.118  13.701   1.124
45522W        W10749  34.126  31.296  10.793
45523W        W10750  10.894  44.334  10.649
45524W        W10751  14.665   5.855  10.768
45525W        W10752   1.893   3.171  12.552
45526W        W10753  14.598  36.318   3.697
45527W        W10754  15.883  21.377  12.979
45528W        W10755   3.211  14.810   3.988
45529W        W10756   6.871  43.761   4.677
45530W        W10757  32.591   7.257   0.917
45531W        W10758  14.351   8.720   0.960
45532W        W10759  41.809  28.734   2.172
45533W        W10760  23.912   8.481   0.948
45534W        W10761  23.207  43.887   4.977
45535W        W10762  37.846  24.000  12.466
45536W        W10763   7.398  27.389   0.411
45537W        W10764  22.631  38.981   4.313
45538W        W10765   2.273  18.709   0.565
45539W        W10766  12.834  38.000   1.697
45540W        W10767  24.504  42.914  14.354
45541W        W10768   9.162   8.667   4.271
45542W        W10769  12.058  41.965   2.200
45543W        W10770  39.984   8.004   3.781
45544W        W10771  14.839  18.290  14.138
45545W        W10772  11.786  22.104  11.458
45546W        W10773  25.627  12.424  13.450
45547W        W10774  23.457  44.292  10.165
45548W        W10775  37.422  30.489   2.318
45549W        W10776  33.550  13.699  12.344
45550W        W10777  38.016  13.946  12.608
45551W        W10778   2.784  40.338   2.658
45552W        W10779   0.824  14.043   2.211
45553W        W10780  38.393  27.768   1.174
45554W        W10781  18.709  26.481   3.199
45555W        W10782   3.317  33.925  13.080
45556W        W10783  42.129  30.110   1.339
45557W        W10784  15.171  27.148  11.496
45558W        W10785  44.323  25.581  11.193
45559W        W10786  38.912   4.417  13.929
45560W        W10787  15.917  12.753  12.153
45561W        W10788  34.514   8.610   1.829
45562W        W10789  30.996  20.091   1.021
45563W        W10790  44.089  21.468   2.254
45564W        W10791   9.896  27.262  11.098
45565W        W10792   4.403  37.969  12.501
45566W        W10793  31.669  23.714  13.991
45567W        W10794   0.142   6.201  10.671
45568W        W10795  36.798   7.307  11.568
45569W        W10796  19.349  26.019   4.111
45570W        W10797  30.642  33.099   4.841
45571W        W10798  13.622  13.506  12.644
45572W        W10799  41.713  22.262  14.042
45573W        W10800  17.805  18.512   0.395
45574W        W10801  26.081   8.333  11.219
45575W        W10802   1.671  20.626  10.660
45576W        W10803  12.651  10.911  14.858
45577W        W10804  27.229   8.908  10.971
45578W        W10805  18.482   2.310  11.910
45579W        W10806  32.117  12.117   1.937
45580W        W10807  12.633  11.319   4.724
45581W        W10808  36.108   8.386  12.283
45582W        W10809  17.567  39.991   2.328
45583W        W10810   6.830   9.098  14.487
45584W        W10811  43.751  10.352  14.006
45585W        W10812  12.654  13.567   1.155
45586W        W10813   9.579  40.068  14.914
45587W        W10814  28.013  40.354  14.314
45588W        W10815  31.544  34.135   0.503
45589W        W10816  25.071  34.906   4.483
45590W        W10817  26.671  38.039   0.462
45591W        W10818  11.146  37.600   2.938
45592W        W10819  18.630  38.138  12.123
45593W        W10820  43.144  12.161  11.093
45594W        W10821  27.930  25.001   0.001
45595W        W10822  44.492  35.541   1.725
45596W        W10823  11.364  37.798  14.511
45597W        W10824  14.028  12.887  13.053
45598W        W10825  14.919  43.955   0.876
45599W        W10826  30.165   9.993  12.949
45600W        W10827  22.482  32.526   2.128
45601W        W10828  10.389  39.367   4.448
45602W        W10829  42.185  16.495   0.753
45603W        W10830  42.264  27.216  13.327
45604W        W10831  38.613  37.102  12.970
45605W        W10832   8.089  26.040  14.331
45606W        W10833   2.501  15.046   1.361
45607W        W10834  19.847  41.844  12.124
45608W        W10835  29.490  16.871   4.146
45609W        W10836  20.159  18.806   0.068
45610W        W10837  41.183  28.722  11.500
45611W        W10838  23.634  27.585   4.409
45612W        W10839  40.506  10.411   4.217
45613W        W10840  24.906  35.308   0.521
45614W        W10841  37.270  34.988  11.660
45615W        W10842  29.293   5.018  11.083
45616W        W10843   7.346   3.766  11.930
45617W        W10844  17.219   1.189  14.278
45618W        W10845  36.383   6.643   2.794
45619W        W10846  40.958  36.699   4.242
45620W        W10847  29.629   0.766   4.529
45621W        W10848  18.739  40.157  13.844
45622W        W10849  35.521  41.482  11.012
45623W        W10850  13.930  11.812   4.582
45624W        W10851   1.078   6.272  11.068
45625W        W10852   2.854  25.805   1.425
45626W        W10853  23.105  17.774  14.437
45627W        W10854  21.985  11.336  12.567
45628W        W10855  27.229  30.172   4.135
45629W        W10856  11.695  14.822  14.923
45630W        W10857   7.098  42.875   0.485
45631W        W10858  14.376   9.315  12.245
45632W        W10859  10.912  12.323  12.509
45633W        W10860  15.340  40.803   0.000
45634W        W10861   8.098  33.045   2.047
45635W        W10862  10.027  31.982   4.064
45636W        W10863  21.595  37.891  14.658
45637W        W10864  40.953   3.635   4.126
45638W        W10865  42.269   2.026   2.689
45639W        W10866  26.480  23.328   4.612
45640W        W10867  31.141  34.516   3.350
45641W        W10868  27.415  26.181   0.571
45642W        W10869  29.620  39.288   0.995
45643W        W10870  36.041  28.018   4.269
45644W        W10871  18.531  24.775   2.121
45645W        W10872  19.654   0.697   4.068
45646W        W10873  36.946  18.558  11.744
45647W        W10874  43.341   9.635   4.384
45648W        W10875  37.532   2.940   2.155
45649W        W10876  44.041  17.625   3.677
45650W        W10877  22.989  27.305   4.919
45651W        W10878  36.479  13.198   4.625
45652W        W10879   1.778  33.061  14.313
45653W        W10880  18.530  27.717   3.753
45654W        W10881  44.852  16.816  13.550
45655W        W10882  16.618  19.170   4.196
45656W        W10883   7.678  16.906   2.767
45657W        W10884  38.901  43.222  14.021
45658W        W10885  42.879  30.436   3.088
45659W        W10886  30.895  34.096   4.920
45660W        W10887   1.923  22.112  12.184
45661W        W10888  33.406   0.036   3.981
45662W        W10889  11.601  41.002  11.443
45663W        W10890  16.300  17.385  12.570
45664W        W10891  36.835  35.333   3.958
45665W        W10892  29.206  34.807  14.404
45666W        W10893  17.880   5.195  11.081
45667W        W10894   9.860   6.241   4.908
45668W        W10895   3.670  29.298  13.383
45669W        W10896  29.221  10.742   1.874
45670W        W10897  28.656  40.225   4.555
45671W        W10898  23.044  20.079   2.581
45672W        W10899   0.510  14.724  11.528
45673W        W10900   3.825  32.087  11.012
45674W        W10901  19.762  13.789   4.109
45675W        W10902  20.273  44.975  10.534
45676W        W10903  38.353  15.093   0.801
45677W        W10904   3.493  19.094   0.321
45678W        W10905   5.338  26.499   2.282
45679W        W10906  16.848  18.592  13.839
45680W        W10907  17.143  27.904  12.490
45681W        W10908   5.898   3.246   0.826
45682W        W10909  12.914  35.003   4.244
45683W        W10910  44.950  15.841  13.463
45684W        W10911  18.685  26.184   3.652
45685W        W10912  40.489   5.438   2.240
45686W        W10913   4.271  27.111   3.222
45687W        W10914  15.570  19.923   0.372
45688W        W10915   6.827  29.513  12.121
45689W        W10916   9.296  28.222   2.303
45690W        W10917  41.514  29.822   4.237
45691W        W10918  28.978   5.416   1.727
45692W        W10919  34.323  38.104  10.346
45693W        W10920  32.824  43.466  14.842
45694W        W10921  40.685  22.958  13.080
45695W        W10922   0.980  21.154   2.205
45696W        W10923  33.358   9.152   0.476
45697W        W10924  27.276  37.013   4.433
45698W        W10925  21.057  37.463   2.208
45699W        W10926  19.494  40.450  13.497
45700W        W10927  21.144   1.822  11.103
45701W        W10928  40.226   9.742   0.818
45702W        W10929  25.317   3.502   2.732
45703W        W10930   6.258   5.210  14.983
45704W        W10931  38.786  10.223  14.427
45705W        W10932  30.950   8.723   1.331
45706W        W10933  24.724  43.295   0.474
45707W        W10934  30.145  15.605   2.193
45708W        W10935   5.004  27.408   1.248
45709W        W10936  16.531  35.418   4.529
45710W        W10937  18.087   1.861  10.501
45711W        W10938  14.083   0.571   2.080
45712W        W10939  29.940  13.731  14.065
45713W        W10940  33.086  26.135   4.296
45714W        W10941   8.698  27.292  13.056
45715W        W10942  11.735  11.331   4.845
45716W        W10943  26.539   8.180   2.814
45717W        W10944  39.478   9.619  11.677
45718W        W10945  38.973  17.159  14.378
45719W        W10946  21.189   8.241   5.062
45720W        W10947   9.785  26.155  12.960
45721W        W10948  18.085  30.926   4.485
45722W        W10949   0.507  23.106  11.925
45723W        W10950  14.661  21.123   1.891
45724W        W10951  39.425  35.376   4.474
45725W        W10952  21.668   2.015   4.940
45726W        W10953  21.934  20.492  12.907
45727W        W10954  16.888  41.408  12.653
45728W        W10955  43.442   5.330  10.188
45729W        W10956  33.147  31.089  13.026
45730W        W10957  17.344   2.643   0.393
45731W        W10958   6.832  35.672   4.972
45732W        W10959   0.740  22.164  11.560
45733W        W10960  35.979   5.837   0.280
45734W        W10961  39.783   9.625  12.064
45735W        W10962  13.987  37.083  13.643
45736W        W10963   0.073  39.800  11.099
45737W        W10964  25.574  24.245  12.110
45738W        W10965  33.777  10.381  12.979
45739W        W10966   6.225   0.677  13.063
45740W        W10967  43.069  39.607  14.981
45741W        W10968  37.963   9.374  13.163
45742W        W10969  35.080  26.701  14.008
45743W        W10970   0.906   1.540  11.502
45744W        W10971  15.334   3.753  13.844
45745W        W10972  41.023   1.031  11.136
45746W        W10973   8.165  42.575   3.734
45747W        W10974   9.579   3.226  13.000
45748W        W10975  28.493  31.357   2.666
45749W        W10976   0.017  11.519  14.827
45750W        W10977  25.529  10.417  12.548
45751W        W10978  34.169  13.024   1.422
45752W        W10979   5.358  12.333  12.645
45753W        W10980  35.392   0.984   4.524
45754W        W10981  20.809  26.161  14.026
45755W        W10982  18.891  32.465  14.263
45756W        W10983  22.296  20.791  12.648
45757W        W10984   8.328  10.624   3.828
45758W        W10985  34.421  24.955   1.556
45759W        W10986  27.561  21.227  12.068
45760W        W10987  20.262  26.258   2.309
45761W        W10988  37.932  26.426   4.290
45762W        W10989  30.745   3.252   1.289
45763W        W10990   4.793   5.265  14.879
45764W        W10991  22.268  20.653  10.827
45765W        W10992  35.304  41.765  14.756
45766W        W10993  21.307  10.116   3.232
45767W        W10994  41.443  27.140  10.750
45768W        W10995  25.066  40.549  13.001
45769W        W10996  30.232   0.930  13.391
45770W        W10997   6.926  19.979  13.440
45771W        W10998  13.295  25.187   3.979
45772W        W10999  34.504  27.611   4.181
45773W        W11000  32.379  27.711  11.142
45774W        W11001  28.494  29.158   3.166
45775W        W11002  31.150  12.813  11.705
45776W        W11003  42.889  29.195  13.968
45777W        W11004  41.592  24.143   4.044
45778W        W11005  35.286  38.588   0.998
45779W        W11006  44.389  38.202  13.661
45780W        W11007  38.771  14.288   0.679
45781W        W11008  36.342   4.266   1.448
45782W        W11009  13.359  20.527   0.005
45783W        W11010   3.890  20.231  11.660
45784W        W11011  20.064   5.327   4.379
45785W        W11012   7.260  40.494   1.959
45786W        W11013  36.273  32.544  13.600
45787W        W11014  12.265   4.596  12.172
45788W        W11015   5.395  35.089  14.710
45789W        W11016  37.575  20.680  11.320
45790W        W11017  27.596  11.386   4.188
45791W        W11018  33.714  12.668   4.112
45792W        W11019  25.147  40.005   2.737
45793W        W11020  25.085  42.181  13.804
45794W        W11021  17.507  36.096   0.776
45795W        W11022   5.254  11.682   2.203
45796W        W11023  29.547  12.955   0.456
45797W        W11024  31.762  43.458  14.862
45798W        W11025  41.048  37.317  13.325
45799W        W11026  13.824  37.040   2.862
45800W        W11027  20.146  10.113  12.124
45801W        W11028   5.504   6.514   0.650
45802W        W11029  14.056  42.834   4.233
45803W        W11030   3.804  27.014   1.367
45804W        W11031  14.706   0.300  12.029
45805W        W11032   8.797  44.026   4.169
45806W        W11033  37.350  35.256  14.298
45807W        W11034  39.008  13.728  10.758
45808W        W11035  41.938  27.746   2.298
45809W        W11036  38.901  24.788   1.527
45810W        W11037  34.083  42.239   2.790
45811W        W11038   8.841  40.525   4.542
45812W        W11039  12.290  38.954   0.724
45813W        W11040  10.862  19.302   0.889
45814W        W11041   4.487  41.672   4.144
45815W        W11042  38.337  30.381  11.573
45816W        W11043  24.024  44.385   4.069
45817W        W11044  36.543  31.152  10.829
45818W        W11045   5.290  10.373  14.254
45819W        W11046  28.560  40.395   1.497
45820W        W11047  28.199   2.755  11.102
45821W        W11048  22.590  15.310   3.681
45822W        W11049  18.579  24.175   0.916
45823W        W11050   7.806  14.113   0.236
45824W        W11051  40.542  31.782  14.135
45825W        W11052  37.484   5.342   1.011
45826W        W11053   0.683  34.554  14.091
45827W        W11054  13.423  25.029  14.020
45828W        W11055  35.485   7.923   2.393
45829W        W11056   5.223   0.971   2.792
45830W        W11057   9.825  16.106   1.486
45831W        W11058  28.948  33.409   9.983
45832W        W11059  12.954   2.036  11.193
45833W        W11060  36.219  30.831   0.708
45834W        W11061  31.762  37.718   4.480
45835W        W11062   6.405   5.226  10.880
45836W        W11063  13.051  42.911   1.382
45837W        W11064  34.495  35.056  10.984
45838W        W11065  38.132  27.939   3.264
45839W        W11066  19.667  41.170   3.344
45840W        W11067   7.061  43.788   0.377
45841W        W11068  44.304  31.450   0.036
45842W        W11069   1.268  25.797  13.977
45843W        W11070   6.780   3.398   4.563
45844W        W11071  28.412   9.384   2.818
45845W        W11072  38.181  25.968   4.059
45846W        W11073  22.054  12.379   2.798
45847W        W11074  26.636   8.421   3.847
45848W        W11075  28.045   0.915   1.249
45849W        W11076  23.137  28.175  13.365
45850W        W11077  25.555  11.085  11.636
45851W        W11078  29.716  31.629  14.468
45852W        W11079  30.897   7.648   0.656
45853W        W11080  35.858   4.587  10.279
45854W        W11081   0.536  35.036  12.527
45855W        W11082  36.867   1.965   0.687
45856W        W11083   8.738  37.685  10.639
45857W        W11084  23.199  44.501   1.699
45858W        W11085  21.678  22.027   1.017
45859W        W11086   9.871   2.493   0.382
45860W        W11087  14.642  41.378   3.809
45861W        W11088  35.309  43.182  12.040
45862W        W11089  26.082   5.489  13.094
45863W        W11090  10.367   6.917   2.890
45864W        W11091  33.359  19.694  12.908
45865W        W11092   0.525  39.750   0.995
45866W        W11093   6.182   1.361  13.567
45867W        W11094  18.961  31.431  11.443
45868W        W11095  24.244   9.352  13.118
45869W        W11096  22.069   7.863   2.660
45870W        W11097  36.055  30.463  13.864
45871W        W11098  36.550  11.926  12.538
45872W        W11099  39.064  35.645  13.102
45873W        W11100  15.520  25.088   1.999
45874W        W11101   6.867  25.812  12.999
45875W        W11102  26.427  29.050   0.794
45876W        W11103  11.223  33.582  11.996
45877W        W11104  17.073  31.115   0.858
45878W        W11105  43.221  30.096   4.288
45879W        W11106  34.233   0.233   3.393
45880W        W11107  19.332  20.984   1.705
45881W        W11108   5.067  39.022  12.411
45882W        W11109  28.648  23.650  12.857
45883W        W11110  41.831  18.827   0.717
45884W        W11111  18.314  24.035   3.650
45885W        W11112   2.957  22.478   0.900
45886W        W11113  10.399  38.459  11.542
45887W        W11114  44.249  41.427   3.317
45888W        W11115  33.881  16.101  14.544
45889W        W11116  43.881  27.938  11.740
45890W        W11117  34.510  15.738  10.761
45891W        W11118   6.577  32.915  14.800
45892W        W11119  21.323  16.576  13.583
45893W        W11120   9.641  30.886   1.814
45894W        W11121  23.714   3.390   1.656
45895W        W11122   4.241  42.236  11.598
45896W        W11123  14.018  19.364  10.862
45897W        W11124   9.467   7.354  12.119
45898W        W11125  10.517  29.901   0.901
45899W        W11126   8.386   4.229  11.034
45900W        W11127  34.498   2.334   3.206
45901W        W11128  36.503  21.277   9.990
45902W        W11129  29.374   6.892  12.337
45903W        W11130  10.142   8.297   3.685
45904W        W11131  19.176   3.927  12.893
45905W        W11132   2.511  12.358  14.426
45906W        W11133  30.713  21.872   1.200
45907W        W11134  28.753  22.549   4.154
45908W        W11135   4.469   7.307  10.795
45909W        W11136  11.874  19.558   2.797
45910W        W11137  39.738  14.059  11.261
45911W        W11138  40.831  29.068  11.640
45912W        W11139  13.240  32.577  13.599
45913W        W11140   8.894  31.766  12.155
45914W        W11141  14.262  39.173  12.534
45915W        W11142   7.811  13.746   2.434
45916W        W11143  13.286  21.070   2.422
45917W        W11144  42.904  19.121   0.886
45918W        W11145  28.605   0.361   3.695
45919W        W11146  33.474  29.977  12.342
45920W        W11147   7.415   8.118  12.018
45921W        W11148  30.448  29.556   9.984
45922W        W11149  38.779   5.245  11.921
45923W        W11150   7.935  15.206   0.806
45924W        W11151  24.319   2.339   5.413
45925W        W11152   3.184  14.061   2.744
45926W        W11153  23.792  12.117  13.419
45927W        W11154  14.750  14.497  12.741
45928W        W11155  16.801  23.509  13.783
45929W        W11156  38.315  18.936  13.242
45930W        W11157  19.121  29.888  13.277
45931W        W11158  37.010   0.796  11.260
45932W        W11159   2.670  32.487  11.646
45933W        W11160  12.901  18.073   3.936
45934W        W11161  13.151  10.215   1.835
45935W        W11162  39.421  39.324   1.808
45936W        W11163  24.775  33.021  11.665
45937W        W11164  13.705   9.135   2.383
45938W        W11165   1.819  40.040  13.942
45939W        W11166  26.732  20.586  11.470
45940W        W11167  25.651   7.353  11.224
45941W        W11168  15.136  42.244   0.830
45942W        W11169  28.995  43.568   0.248
45943W        W11170  38.369   1.950   4.355
45944W        W11171   1.883  41.507  11.644
45945W        W11172  32.773  25.687   4.359
45946W        W11173  27.003  35.033  12.120
45947W        W11174  35.156  28.921  14.566
45948W        W11175  27.470  36.655   5.523
45949W        W11176  35.346  37.055  10.357
45950W        W11177  22.360  34.568  14.268
45951W        W11178   1.112   1.951  14.908
45952W        W11179   9.048  43.268   3.687
45953W        W11180  25.303  44.605   1.216
45954W        W11181  14.133   1.694   2.324
45955W        W11182  17.780  33.182   0.236
45956W        W11183  20.650  30.539  12.890
45957W        W11184  30.620  14.722   2.348
45958W        W11185  12.493   2.381  11.118
45959W        W11186  39.329   6.190  12.811
45960W        W11187  28.376  44.376   0.332
45961W        W11188  42.980  40.599  10.712
45962W        W11189  15.546  29.695   3.756
45963W        W11190   5.303  43.957   2.855
45964W        W11191  30.963   1.094  10.708
45965W        W11192  24.981  44.434   5.050
45966W        W11193  43.285  36.564  12.975
45967W        W11194  33.847  23.698  14.478
45968W        W11195  18.731  12.383   0.920
45969W        W11196  41.599  15.223  11.441
45970W        W11197  36.543  31.471   4.531
45971W        W11198  28.161  30.192  14.582
45972W        W11199  44.502   5.344   4.560
45973W        W11200  27.468  25.487   4.167
45974W        W11201  20.221   1.450  13.099
45975W        W11202  21.761   7.273   0.786
45976W        W11203  40.993   4.236   1.221
45977W        W11204  28.337  44.014   3.399
45978W        W11205  18.600  16.693   4.507
45979W        W11206  20.373   8.838   5.223
45980W        W11207  36.922  19.658  14.747
45981W        W11208  17.598  23.277  11.338
45982W        W11209  16.811  22.051   0.934
45983W        W11210  42.970  39.432  12.704
45984W        W11211   9.356  13.296   4.003
45985W        W11212   9.257  38.557  13.343
45986W        W11213  24.439  22.251  12.065
45987W        W11214  20.591  40.097  13.935
45988W        W11215   2.468  13.207   4.954
45989W        W11216   0.450  44.822   2.477
45990W        W11217  14.492  33.733  14.447
45991W        W11218  36.501  26.425   3.651
45992W        W11219  33.887   7.065   0.700
45993W        W11220  35.052  12.537   4.336
45994W        W11221  36.827  37.801   0.799
45995W        W11222   3.678   0.916   0.201
45996W        W11223  39.784  18.610   1.468
45997W        W11224  38.063   0.570   0.002
45998W        W11225  26.955   6.039   4.230
45999W        W11226  20.288   2.758  14.891
46000W        W11227  25.093  11.421  12.995
46001W        W11228  38.118  39.772  11.955
46002W        W11229  31.443  14.484   2.746
46003W        W11230  26.722  41.288  14.870
46004W        W11231  13.575   1.247  14.338
46005W        W11232  20.750  40.488  13.173
46006W        W11233   6.450  34.381  12.341
46007W        W11234  29.488  38.423  12.305
46008W        W11235  31.620  35.981   5.389
46009W        W11236   0.389  39.422  11.976
46010W        W11237  19.879   1.546   0.492
46011W        W11238  21.717  35.565  10.474
46012W        W11239  16.117  31.643  11.520
46013W        W11240  23.776  24.334  12.088
46014W        W11241   6.138   5.852  14.368
46015W        W11242   3.956  35.445   3.871
46016W        W11243  16.409  29.463  12.003
46017W        W11244  32.106  43.800  14.112
46018W        W11245  15.243  12.783   1.215
46019W        W11246   9.481  22.035  12.588
46020W        W11247  22.533  36.159   1.494
46021W        W11248  23.563  35.180   1.636
46022W        W11249  10.390  34.919   1.311
46023W        W11250   5.794  28.558  11.611
46024W        W11251  27.776  44.781   2.642
46025W        W11252  18.092   0.235   4.095
46026W        W11253  39.367   2.994   1.686
46027W        W11254  17.631  17.096  12.436
46028W        W11255   5.454  28.634   1.465
46029W        W11256  24.256  10.079  11.188
46030W        W11257  27.241   9.850  14.442
46031W        W11258  38.594   7.770   3.775
46032W        W11259  22.582  39.366  10.707
46033W        W11260  11.770  31.478  13.556
46034W        W11261  37.510  12.309  14.410
46035W        W11262  21.643  35.713  13.696
46036W        W11263   9.434  17.816   5.018
46037W        W11264  35.308  38.725   4.307
46038W        W11265  40.466  39.625  13.877
46039W        W11266  32.127   4.165  13.364
46040W        W11267  26.589  32.334   0.212
46041W        W11268  11.888  28.708  12.175
46042W        W11269  18.530  23.661  14.801
46043W        W11270  29.433   3.345   3.999
46044W        W11271  10.691  40.525  14.529
46045W        W11272  16.587  28.073   3.195
46046W        W11273  30.924  14.408   4.344
46047W        W11274  21.931  42.888   1.304
46048W        W11275  37.960  26.530   1.514
46049W        W11276  33.437  26.668  12.986
46050W        W11277  40.874   4.397  14.861
46051W        W11278   6.651  12.657  11.575
46052W        W11279  31.036  28.431  12.808
46053W        W11280  24.952  23.236   1.574
46054W        W11281  36.113  42.898   3.313
46055W        W11282  26.112  10.742   4.297
46056W        W11283  23.170  38.432   2.668
46057W        W11284  17.125   3.299   4.971
46058W        W11285  10.610  35.182   1.828
46059W        W11286  34.257  19.173  11.173
46060W        W11287  16.058  34.392  12.906
46061W        W11288  13.466  37.324  10.694
46062W        W11289   3.478  15.474   1.383
46063W        W11290  33.928   2.931  12.887
46064W        W11291  40.415  13.334   3.325
46065W        W11292  32.954   2.694   3.914
46066W        W11293  18.031  38.911  13.680
46067W        W11294  14.001  18.696   2.010
46068W        W11295   8.242  40.264  13.089
46069W        W11296  12.329  28.765   0.921
46070W        W11297  22.725  13.048   3.719
46071W        W11298  35.196  28.032   0.698
46072W        W11299  19.056  11.650   1.170
46073W        W11300   4.574  22.931  12.542
46074W        W11301  29.536  20.718   2.674
46075W        W11302  20.876  23.480  13.957
46076W        W11303  22.763  16.816  13.781
46077W        W11304  22.538  22.138   3.684
46078W        W11305  42.908  16.426   0.372
46079W        W11306  13.836  11.818  13.819
46080W        W11307  31.592  25.120  10.473
46081W        W11308  16.992  23.257  11.087
46082W        W11309  28.019  28.084  10.769
46083W        W11310  41.674  28.491  11.503
46084W        W11311  13.667  29.227   0.723
46085W        W11312  19.755  13.895  12.894
46086W        W11313  12.825  26.561   1.689
46087W        W11314  35.852  44.431   4.243
46088W        W11315  41.386  39.912  14.635
46089W        W11316  24.187  12.445  13.418
46090W        W11317   2.330   0.908  10.698
46091W        W11318   6.852  21.732  12.933
46092W        W11319   7.320  32.987  13.598
46093W        W11320  41.053  44.050  11.190
46094W        W11321   1.231  31.844   3.194
46095W        W11322   1.640   3.456   0.262
46096W        W11323  42.821   8.165   2.597
46097W        W11324   8.476   1.455   0.358
46098W        W11325  34.674  18.666   4.724
46099W        W11326  12.263  37.377  13.128
46100W        W11327  31.884  14.631  13.862
46101W        W11328  36.432   9.607  13.960
46102W        W11329   6.854  18.355   3.082
46103W        W11330  23.784  26.031  12.313
46104W        W11331  38.271  25.879  13.369
46105W        W11332   8.219   7.368   1.287
46106W        W11333  29.484  43.082   1.013
46107W        W11334  38.475   8.724   2.628
46108W        W11335  21.803  38.376  12.506
46109W        W11336   5.050  25.548   2.450
46110W        W11337  16.126  22.687  13.387
46111W        W11338  21.877   2.894  11.627
46112W        W11339  16.944  22.258   4.384
46113W        W11340  42.586  10.348  13.368
46114W        W11341  10.795   5.249  12.520
46115W        W11342  28.641  41.949   3.580
46116W        W11343   4.334  18.515   3.689
46117W        W11344  32.937   5.795  11.941
46118W        W11345   4.695  43.014   1.428
46119W        W11346  16.128  15.768  12.010
46120W        W11347  21.053   0.310   0.524
46121W        W11348  41.736  21.338  13.913
46122W        W11349  10.208  30.163  11.583
46123W        W11350  30.592  14.732   1.306
46124W        W11351   8.388  12.653   0.168
46125W        W11352  18.213  37.295   9.808
46126W        W11353   9.333  18.701   1.205
46127W        W11354  26.102   0.430  12.608
46128W        W11355  29.453  29.237   3.207
46129W        W11356  26.140  24.404  11.350
46130W        W11357   5.793  31.067   3.279
46131W        W11358  30.100   6.005   1.460
46132W        W11359  25.643   1.739  14.346
46133W        W11360  24.807  15.617  13.842
46134W        W11361   9.627  24.979  12.487
46135W        W11362  27.654   8.889  14.360
46136W        W11363  30.159  20.108  12.457
46137W        W11364  15.233  44.890  12.796
46138W        W11365   1.821   8.400   2.740
46139W        W11366   8.912  19.271  14.873
46140W        W11367  14.776   7.656   2.238
46141W        W11368   2.893   7.839  13.943
46142W        W11369  31.787   1.830   1.892
46143W        W11370  42.733  27.973  12.176
46144W        W11371   3.415  44.604   1.021
46145W        W11372   3.866  33.980   2.625
46146W        W11373  13.776  36.112  12.863
46147W        W11374  40.748  12.658   1.150
46148W        W11375  44.058   1.779  11.427
46149W        W11376  32.146  15.307  14.297
46150W        W11377  23.526  12.800   2.729
46151W        W11378  20.647   4.080   1.348
46152W        W11379  31.017  22.973  10.399
46153W        W11380   9.012  23.343   2.821
46154W        W11381  15.545  17.234  11.493
46155W        W11382  29.781  19.012   4.573
46156W        W11383  40.207  10.229   2.766
46157W        W11384  27.409  30.157  13.884
46158W        W11385  13.993  23.212   2.750
46159W        W11386  13.866  39.507  12.525
46160W        W11387   1.223   2.138   4.542
46161W        W11388  17.757   2.809   2.073
46162W        W11389  31.012  24.985   2.389
46163W        W11390  17.877  35.212  12.482
46164W        W11391   1.966   8.181  11.602
46165W        W11392  38.788   3.865  12.652
46166W        W11393  40.870  38.537   3.856
46167W        W11394  36.856   7.465   4.557
46168W        W11395   2.276   6.503  14.119
46169W        W11396   2.551  37.431  10.905
46170W        W11397  30.148  37.912   3.580
46171W        W11398  32.873   4.790  12.390
46172W        W11399  40.558  17.281  13.339
46173W        W11400  40.293  42.041  11.550
46174W        W11401  24.004  17.431  11.617
46175W        W11402  17.899  37.816   1.869
46176W        W11403  41.628  34.565   4.774
46177W        W11404  25.663   2.259  14.386
46178W        W11405  26.703  12.194  12.486
46179W        W11406  16.602  38.199   4.786
46180W        W11407  37.068  31.166   2.839
46181W        W11408  17.623  32.625   5.042
46182W        W11409  23.052  33.756   3.394
46183W        W11410  10.389  14.742  13.522
46184W        W11411   8.774  25.428  12.557
46185W        W11412  10.353  27.954   2.468
46186W        W11413  38.700  11.375   3.230
46187W        W11414   3.937  25.201   0.739
46188W        W11415  30.203   2.919   4.149
46189W        W11416  33.515  40.811   3.684
46190W        W11417  23.497  32.092   0.261
46191W        W11418  32.132   3.170   2.740
46192W        W11419  21.599   6.599  14.123
46193W        W11420   4.398  35.491   0.608
46194W        W11421  26.612  13.546  13.145
46195W        W11422  37.862   4.216   1.219
46196W        W11423  26.239  16.579  12.501
46197W        W11424  20.031  39.881   2.638
46198W        W11425  36.148  16.150  11.361
46199W        W11426  20.730  15.102  11.135
46200W        W11427  23.370  44.189   3.319
46201W        W11428  23.883  26.169  14.374
46202W        W11429  32.871  39.797   1.006
46203W        W11430  42.845  23.739   3.617
46204W        W11431   3.923  25.669  13.628
46205W        W11432  36.166  35.435   4.831
46206W        W11433  14.828  43.436  11.148
46207W        W11434   0.906  44.383   1.794
46208W        W11435  41.655  10.913   0.614
46209W        W11436  28.988  36.621   2.375
46210W        W11437  28.886  27.113   0.104
46211W        W11438  21.005   2.783   1.727
46212W        W11439  15.791  20.482  11.638
46213W        W11440   5.027  13.370   3.626
46214W        W11441  39.279  44.302   2.256
46215W        W11442  36.143  15.094  13.038
46216W        W11443  32.945  11.890   4.233
46217W        W11444  38.455   4.470  11.501
46218W        W11445   2.729  42.588   5.179
46219W        W11446  17.095  28.194  14.407
46220W        W11447  14.289  24.801  10.773
46221W        W11448  37.516  16.280   1.375
46222W        W11449  33.627   8.712   0.471
46223W        W11450  16.987  25.450  11.760
46224W        W11451  35.550  35.962   4.439
46225W        W11452  37.999  31.389  14.787
46226W        W11453  31.116  24.218  14.431
46227W        W11454  38.490  37.310   1.815
46228W        W11455  13.562   8.281   3.422
46229W        W11456  32.675  28.092   2.263
46230W        W11457  14.761  44.168   3.955
46231W        W11458  36.078  28.896  13.736
46232W        W11459   9.612  32.627   9.960
46233W        W11460  42.477  35.103  10.646
46234W        W11461  27.872  44.467  12.523
46235W        W11462  35.896  36.094   1.796
46236W        W11463  14.130  17.129  13.189
46237W        W11464  37.826  43.829   0.350
46238W        W11465   7.352  44.571  12.277
46239W        W11466   5.378  43.338  12.058
46240W        W11467  33.661  32.493   1.656
46241W        W11468  35.850  20.953  14.053
46242W        W11469  35.436  20.403   4.020
46243W        W11470   3.314  14.158   3.622
46244W        W11471  34.758  44.003  11.243
46245W        W11472  13.699   0.757  13.097
46246W        W11473  21.593  40.839   1.828
46247W        W11474  28.722  43.874  14.930
46248W        W11475  35.390  16.252   3.273
46249W        W11476  35.543  28.236   1.697
46250W        W11477  24.190  26.962   5.134
46251W        W11478   2.484  28.084  10.540
46252W        W11479  11.868  36.788  12.484
46253W        W11480  38.138  23.015  11.146
46254W        W11481  15.086  20.238   1.883
46255W        W11482  19.761  30.213   4.631
46256W        W11483  29.541  33.106  13.554
46257W        W11484  11.717   1.384  10.568
46258W        W11485  36.873  13.229  10.784
46259W        W11486   2.349  22.573  12.766
46260W        W11487  11.293  22.979  14.982
46261W        W11488   4.823  17.357  13.774
46262W        W11489   2.917  38.023   1.959
46263W        W11490  30.676   2.451  11.688
46264W        W11491  32.157  27.212  12.180
46265W        W11492  28.546  34.425  12.434
46266W        W11493  21.751  35.628   0.668
46267W        W11494  27.655  35.925  12.652
46268W        W11495  37.088  19.158   1.857
46269W        W11496  27.152  25.738  14.719
46270W        W11497   9.088   6.269   1.989
46271W        W11498  42.803  31.185  13.383
46272W        W11499  14.810  32.005   4.633
46273W        W11500  35.177  11.322  13.061
46274W        W11501  14.625   8.699   4.714
46275W        W11502  17.400  28.049   1.380
46276W        W11503  44.236  29.682  14.631
46277W        W11504   0.062  42.953  14.559
46278W        W11505  22.490  13.304  14.397
46279W        W11506   6.122  41.513  12.117
46280W        W11507  29.582  36.417   5.008
46281W        W11508  16.270   5.799   1.269
46282W        W11509  37.425   7.116   3.421
46283W        W11510   0.871   7.431   2.275
46284W        W11511  29.183   9.077  13.417
46285W        W11512   3.272  30.060   4.043
46286W        W11513  31.052  22.914  12.352
46287W        W11514  16.453   5.334   1.447
46288W        W11515  15.329  37.491   0.405
46289W        W11516  10.825   3.503   3.692
46290W        W11517  19.867  28.443  11.109
46291W        W11518  39.382   5.610   1.244
46292W        W11519  35.973   3.407   4.015
46293W        W11520  40.863  44.498   1.170
46294W        W11521  32.092   1.163  11.437
46295W        W11522  29.718   5.735   3.214
46296W        W11523  34.676  44.472   2.148
46297W        W11524  34.816  14.586   3.582
46298W        W11525  21.528   6.676  10.341
46299W        W11526  14.989   5.962  13.373
46300W        W11527  29.289   7.920  12.050
46301W        W11528  42.590  30.002  14.494
46302W        W11529  44.399  24.992  14.312
46303W        W11530  39.755  38.337  11.252
46304W        W11531  17.576  25.021   2.299
46305W        W11532  21.467  41.761  12.885
46306W        W11533  35.146  28.774   2.414
46307W        W11534   1.994   4.887   1.340
46308W        W11535  26.547   8.245   3.363
46309W        W11536  42.409  35.665   1.960
46310W        W11537   9.926  28.712  10.869
46311W        W11538  29.337  35.896   5.009
46312W        W11539  24.516  31.691   0.805
46313W        W11540  23.723  26.699  14.399
46314W        W11541  37.559  15.931  11.282
46315W        W11542  41.602  16.342   0.961
46316W        W11543  30.221  16.149  11.925
46317W        W11544  11.840  25.579   4.123
46318W        W11545   4.745  15.834   2.126
46319W        W11546  32.487  37.195  14.804
46320W        W11547  25.124   6.024   4.229
46321W        W11548  24.260  21.368  12.796
46322W        W11549  43.920   8.568   4.969
46323W        W11550  35.938  10.143   0.283
46324W        W11551  19.152  24.459   0.480
46325W        W11552  19.046   4.848   2.953
46326W        W11553   9.533  10.346   0.416
46327W        W11554  20.040  25.266  14.829
46328W        W11555  38.718  13.841   0.950
46329W        W11556  27.120   2.239   1.005
46330W        W11557  36.977  34.570   4.450
46331W        W11558   3.348  30.176   1.799
46332W        W11559  38.416  32.902  14.659
46333W        W11560  13.605  26.984   4.447
46334W        W11561  31.225  34.373  14.381
46335W        W11562   9.205  14.726   0.917
46336W        W11563  19.876  26.053   3.105
46337W        W11564  43.450  37.730   1.826
46338W        W11565  19.702   2.918   0.223
46339W        W11566  27.037  11.086   4.235
46340W        W11567  17.133  12.755  11.298
46341W        W11568  41.847  30.446   2.619
46342W        W11569  15.116  34.919   3.080
46343W        W11570  26.141   9.606  11.236
46344W        W11571  32.527  13.398   2.667
46345W        W11572   4.543  17.213  11.481
46346W        W11573  10.206   5.283   3.153
46347W        W11574   6.122  39.886   4.604
46348W        W11575   4.674  36.386   0.252
46349W        W11576  20.504  14.052   2.802
46350W        W11577  40.251  19.816   4.135
46351W        W11578  32.755   7.781   0.031
46352W        W11579  40.432  28.603   3.000
46353W        W11580  28.275  39.147  11.008
46354W        W11581   1.094  16.182   3.373
46355W        W11582  16.567  13.807  11.229
46356W        W11583  35.461   0.155   1.925
46357W        W11584  42.338  10.847  12.103
46358W        W11585  11.954  43.610  12.124
46359W        W11586  24.293  20.427   3.258
46360W        W11587  35.576  23.569  10.691
46361W        W11588  29.900   6.829  13.806
46362W        W11589  34.049  23.480  12.967
46363W        W11590  19.460  42.844   4.136
46364W        W11591  25.466   3.880  14.499
46365W        W11592  14.014  22.469  11.119
46366W        W11593  21.688  21.458   0.463
46367W        W11594  36.291  33.604   0.947
46368W        W11595  38.240  31.865  13.016
46369W        W11596  13.344  25.499  11.154
46370W        W11597   4.971  38.529   2.625
46371W        W11598  30.427  10.930  13.955
46372W        W11599  12.041  13.223   2.633
46373W        W11600  16.980  31.975  13.526
46374W        W11601  23.613  31.415  11.069
46375W        W11602  26.015  20.744  12.908
46376W        W11603  26.961  20.798   3.425
46377W        W11604  29.591   4.815  10.721
46378W        W11605  20.454  17.018   0.921
46379W        W11606  21.767   5.287  13.807
46380W        W11607  32.887  42.099   3.279
46381W        W11608   8.047   2.216   0.483
46382W        W11609  42.682  13.456   4.534
46383W        W11610  13.268   7.716   0.356
46384W        W11611  39.018   2.907  11.668
46385W        W11612  34.941  38.441  10.186
46386W        W11613  15.728  22.058   1.880
46387W        W11614  14.238  23.283  11.947
46388W        W11615  27.464  38.979  11.620
46389W        W11616  25.269  17.516  14.619
46390W        W11617  11.447  10.930   1.183
46391W        W11618  38.882  11.461  11.614
46392W        W11619  22.943  21.463   4.844
46393W        W11620  37.320   7.271   4.745
46394W        W11621  35.917  43.824   3.570
46395W        W11622  42.432   0.929   1.630
46396W        W11623  31.014   8.616  14.383
46397W        W11624  11.659  18.700   4.923
46398W        W11625  44.498   5.184   4.052
46399W        W11626   4.047  17.106  11.615
46400W        W11627  29.633  21.202   1.806
46401W        W11628  40.972  43.334   2.236
46402W        W11629  21.030  23.356  14.456
46403W        W11630  42.299  15.451   4.984
46404W        W11631  38.255  26.984  10.419
46405W        W11632  13.216   3.701  13.415
46406W        W11633  29.147  14.868  14.168
46407W        W11634  13.824  13.146  13.516
46408W        W11635   9.081  37.472   4.607
46409W        W11636  19.304   9.652   2.744
46410W        W11637  28.466  21.650  14.764
46411W        W11638   8.161  36.616   1.188
46412W        W11639  41.105  18.585  14.284
46413W        W11640  39.949  33.833   1.403
46414W        W11641   6.626   1.031   2.627
46415W        W11642  24.755  25.388  12.126
46416W        W11643  39.265  12.143   3.390
46417W        W11644  27.352  21.059  12.554
46418W        W11645   2.815  37.926   4.519
46419W        W11646  34.649   7.206   2.470
46420W        W11647  11.271   7.613   0.865
46421W        W11648  14.840   1.754   0.322
46422W        W11649  10.201  44.458   2.305
46423W        W11650   9.299  36.333  14.993
46424W        W11651  41.917  24.177  14.712
46425W        W11652  43.940  22.662  11.493
46426W        W11653  21.721   7.214  11.136
46427W        W11654   1.731  20.746   1.235
46428W        W11655   4.412   4.386   4.894
46429W        W11656  11.209   3.541  10.796
46430W        W11657  38.261  42.342  13.983
46431W        W11658  42.347  44.490  14.004
46432W        W11659  23.949  29.967  13.907
46433W        W11660  11.739  35.188   3.599
46434W        W11661  41.365  27.115   1.729
46435W        W11662  35.495  41.305  14.806
46436W        W11663   4.638  15.730  11.839
46437W        W11664   0.335  41.754  12.954
46438W        W11665  36.574   7.043   3.138
46439W        W11666  12.729  12.757  14.902
46440W        W11667  20.842  40.944  13.375
46441W        W11668  38.371   1.211  13.803
46442W        W11669  17.531  27.813  13.725
46443W        W11670  13.609  38.807   0.416
46444W        W11671  16.769  27.608   4.398
46445W        W11672  15.817  22.541   3.754
46446W        W11673  22.785  17.154   3.279
46447W        W11674  37.300  19.976  14.907
46448W        W11675  32.727  27.504  13.378
46449W        W11676  37.213  15.957   4.512
46450W        W11677  28.083  13.572  14.121
46451W        W11678  14.421   0.500   1.691
46452W        W11679  23.911   2.388   2.581
46453W        W11680   1.865  41.384   2.177
46454W        W11681  30.678  34.636  10.158
46455W        W11682  38.925   5.834  14.579
46456W        W11683   3.731  38.335  13.401
46457W        W11684  20.036  30.177  12.956
46458W        W11685   7.934  37.860   0.899
46459W        W11686   2.555  10.370   1.342
46460W        W11687  21.661  20.562   2.253
46461W        W11688  22.986  15.184  10.430
46462W        W11689  40.218  14.645   1.875
46463W        W11690  18.204  22.654  11.162
46464W        W11691  40.011  37.859  10.609
46465W        W11692  43.330  39.544  10.829
46466W        W11693  41.633   9.317  14.853
46467W        W11694  39.851  28.668  13.426
46468W        W11695   9.826  34.998  13.075
46469W        W11696  11.880   7.206   2.664
46470W        W11697   6.622  37.032   1.069
46471W        W11698  15.354   5.484   1.439
46472W        W11699  20.240  17.635  13.964
46473W        W11700   7.903  24.071  10.829
46474W        W11701  30.043   3.827  13.586
46475W        W11702   2.333  12.281   3.710
46476W        W11703  23.189  33.769   2.049
46477W        W11704  10.191  14.566  11.225
46478W        W11705  34.464  10.280  13.501
46479W        W11706  18.602  28.741   1.790
46480W        W11707  25.691  31.901   2.655
46481W        W11708  23.699  35.934  11.022
46482W        W11709  13.815  37.483   1.776
46483W        W11710  16.294   3.823   4.052
46484W        W11711  43.005  23.621  13.004
46485W        W11712  21.170   7.078  12.559
46486W        W11713   1.822  23.814   2.674
46487W        W11714  39.495  44.756  12.825
46488W        W11715  14.760   7.394   0.836
46489W        W11716  28.064  13.004   4.533
46490W        W11717  11.739  39.358  12.967
46491W        W11718  26.692   5.230   4.995
46492W        W11719  16.868  42.565  11.171
46493W        W11720  30.074  43.349   4.404
46494W        W11721  29.410  19.538   0.816
46495W        W11722   5.294  22.681  12.070
46496W        W11723  42.893  33.959   0.837
46497W        W11724  41.977  23.702  11.059
46498W        W11725  21.027   8.854  12.431
46499W        W11726  12.681  24.393   0.944
46500W        W11727   0.732  43.682   5.037
46501W        W11728  19.577  11.818  13.740
46502W        W11729  27.739  20.162   3.685
46503W        W11730   2.533  18.039  10.964
46504W        W11731  35.361  17.212   3.239
46505W        W11732  29.978  30.787  14.142
46506W        W11733   9.205  20.649   1.324
46507W        W11734   3.441  18.272  12.937
46508W        W11735   5.890  41.123   0.355
46509W        W11736  11.322  27.581   2.765
46510W        W11737  21.117  34.129   1.849
46511W        W11738   5.663   5.862  11.662
46512W        W11739  15.065  22.129   4.924
46513W        W11740  44.777   9.782  10.869
46514W        W11741  22.309  31.678  10.848
46515W        W11742  33.613  33.955   2.191
46516W        W11743  23.665  24.078  10.791
46517W        W11744  39.178  23.925   0.439
46518W        W11745  27.551  44.878  14.336
46519W        W11746  23.946  31.937  13.088
46520W        W11747  21.105  15.788  14.814
46521W        W11748  34.318  40.468   0.267
46522W        W11749  11.930  22.538  10.613
46523W        W11750  12.121  23.652   2.775
46524W        W11751  35.442  37.817   1.349
46525W        W11752  12.784  27.219   0.497
46526W        W11753  19.369  25.490   2.006
46527W        W11754   4.825  27.052  10.676
46528W        W11755   2.846  16.781   3.087
46529W        W11756  27.454   6.428   1.016
46530W        W11757   2.348   1.477   1.447
46531W        W11758  42.855  26.587  10.583
46532W        W11759  41.128  26.511   3.353
46533W        W11760  31.464  25.106   4.625
46534W        W11761   9.600  34.045  14.443
46535W        W11762   6.406  42.392  12.134
46536W        W11763   3.461  21.784  10.736
46537W        W11764   7.115   7.050  14.753
46538W        W11765   7.417   9.020  11.102
46539W        W11766  44.908  15.067  12.938
46540W        W11767   7.767  19.629   1.022
46541W        W11768  28.307  37.409  11.466
46542W        W11769   3.937   5.285  13.971
46543W        W11770  11.805   8.423  13.912
46544W        W11771   9.663   7.612   2.573
46545W        W11772  19.750   0.847   4.580
46546W        W11773  43.459  36.715  11.602
46547W        W11774  39.263   3.480  12.030
46548W        W11775  37.903   1.149  13.613
46549W        W11776  16.834  10.295   2.847
46550W        W11777   5.268  38.527  10.207
46551W        W11778  27.123  34.603  14.426
46552W        W11779  22.014  18.600  13.869
46553W        W11780  10.711   2.417  10.946
46554W        W11781   3.671  33.032   0.140
46555W        W11782   9.114  22.549   2.513
46556W        W11783  32.685  32.927  13.941
46557W        W11784   5.034   8.391   1.383
46558W        W11785  40.567   9.190  11.827
46559W        W11786  43.438  15.103   0.966
46560W        W11787  11.919  34.466  14.930
46561W        W11788  16.298  15.522   1.906
46562W        W11789   2.552  39.990   1.626
46563W        W11790  27.382  23.487   4.638
46564W        W11791   0.492  24.408  14.200
46565W        W11792  41.413   9.661   0.203
46566W        W11793  42.845  10.661   1.330
46567W        W11794  15.189  41.139   3.112
46568W        W11795  44.751  14.289   3.345
46569W        W11796  32.019  31.075  10.389
46570W        W11797   5.788  38.026   4.800
46571W        W11798   6.439  25.677  14.837
46572W        W11799  38.951  23.426   1.451
46573W        W11800  35.367  35.167   1.860
46574W        W11801   0.959  12.533  10.778
46575W        W11802  17.269  25.217  14.375
46576W        W11803  42.125  18.777  14.400
46577W        W11804  24.505  12.160   0.804
46578W        W11805  38.623  10.717  13.918
46579W        W11806  41.006   2.121   2.870
46580W        W11807  33.905  32.944   2.987
46581W        W11808  13.213  12.604  13.064
46582W        W11809   4.975  11.782   3.302
46583W        W11810  35.417  36.474  13.133
46584W        W11811   4.445  23.939  12.045
46585W        W11812  12.954  36.527   3.495
46586W        W11813  34.469  39.293  12.965
46587W        W11814   5.043   9.142  11.378
46588W        W11815  10.959   2.922  14.075
46589W        W11816  16.654  22.565  12.079
46590W        W11817   1.899  42.028  11.670
46591W        W11818  17.061  29.382   1.955
46592W        W11819  32.988   1.055   4.915
46593W        W11820  22.473  22.746  13.957
46594W        W11821  10.359   7.206   4.607
46595W        W11822  43.687  28.673  14.075
46596W        W11823  35.848  12.198   1.890
46597W        W11824  32.425  40.195   2.202
46598W        W11825  34.805  17.618  12.000
46599W        W11826   2.733   7.296   1.407
46600W        W11827  41.276   5.887   0.704
46601W        W11828   2.435   0.202   0.192
46602W        W11829  43.505  36.856   4.272
46603W        W11830   4.697   0.006  12.007
46604W        W11831   1.938  35.611   3.669
46605W        W11832   0.953   0.725   1.684
46606W        W11833  41.665   3.177   3.640
46607W        W11834  33.391  20.667   1.749
46608W        W11835  30.565   2.166   3.079
46609W        W11836  34.399   4.258  13.029
46610W        W11837  19.691  25.173   4.093
46611W        W11838  25.706   2.386   0.222
46612W        W11839  36.580  34.105  10.594
46613W        W11840  18.318  22.963  13.349
46614W        W11841   9.212   2.979  14.240
46615W        W11842   3.464  32.450  10.799
46616W        W11843  40.717  35.578  10.689
46617W        W11844  33.711   2.264  14.449
46618W        W11845   3.634  35.771  12.446
46619W        W11846  11.794   2.862  10.675
46620W        W11847  15.667  23.165   4.565
46621W        W11848  19.529  14.310   3.222
46622W        W11849  36.801  22.790  14.541
46623W        W11850  12.969  30.487  14.415
46624W        W11851   1.311   1.214   2.352
46625W        W11852  18.152   3.826  13.065
46626W        W11853  29.222  11.676   3.076
46627W        W11854   4.229  30.615  13.075
46628W        W11855  34.746  35.212  14.765
46629W        W11856  40.429  19.154   0.954
46630W        W11857  35.559  25.444   3.246
46631W        W11858  11.515  29.552  14.380
46632W        W11859  33.778  20.210   0.283
46633W        W11860  41.986   0.829   3.616
46634W        W11861   9.421  27.976  13.061
46635W        W11862  29.460  33.519   3.301
46636W        W11863   9.137  11.206  14.896
46637W        W11864  10.336  17.146   1.719
46638W        W11865  24.229  20.312  14.860
46639W        W11866  23.132   1.148  12.190
46640W        W11867  30.420  44.958  11.183
46641W        W11868  30.498  44.216   0.376
46642W        W11869  21.120  32.309   3.377
46643W        W11870  11.495  25.320   5.066
46644W        W11871   7.356   2.919   2.872
46645W        W11872  15.232  21.045   0.286
46646W        W11873   5.762  39.044   4.867
46647W        W11874  30.116   2.940   3.206
46648W        W11875  24.691   4.362  12.345
46649W        W11876   3.937  16.118   2.711
46650W        W11877  21.989  27.375  14.518
46651W        W11878  36.276  32.985   3.770
46652W        W11879  16.668  43.399  12.493
46653W        W11880  20.472  31.562   4.141
46654W        W11881  11.822   2.440  13.321
46655W        W11882  32.129  22.159  14.894
46656W        W11883   6.038   1.324   0.605
46657W        W11884  44.911   4.290  12.824
46658W        W11885  30.212  13.272  12.793
46659W        W11886   4.997  19.054   0.139
46660W        W11887  20.097   7.849  11.319
46661W        W11888   9.315  30.099   0.443
46662W        W11889  39.903  29.930   0.163
46663W        W11890   3.262  44.262   5.285
46664W        W11891  37.419   8.990  11.811
46665W        W11892  12.827  44.366   1.330
46666W        W11893   6.406  10.609   2.197
46667W        W11894  20.745   1.223  14.351
46668W        W11895   3.672   5.650   0.521
46669W        W11896  27.152  12.221  10.988
46670W        W11897  25.926  32.418   1.421
46671W        W11898  27.620  43.896  14.451
46672W        W11899  10.242  14.962   0.323
46673W        W11900  30.062  33.341   1.580
46674W        W11901   5.829  20.757   1.313
46675W        W11902   3.441  29.557   4.107
46676W        W11903  31.537  15.291  11.293
46677W        W11904  21.211   3.654   0.066
46678W        W11905   1.804  36.180  14.352
46679W        W11906  15.749  10.357   4.689
46680W        W11907  14.492  37.064   0.517
46681W        W11908  34.539   6.243   1.726
46682W        W11909  22.631  22.287  13.785
46683W        W11910   4.837  37.644  12.618
46684W        W11911  40.980  21.845  14.488
46685W        W11912  24.634  44.504   0.623
46686W        W11913  38.010  24.248  14.430
46687W        W11914  42.351  30.692  13.975
46688W        W11915  31.383  17.174  11.019
46689W        W11916  39.838  19.134   2.312
46690W        W11917  35.960  26.935   0.502
46691W        W11918  32.966   6.849  12.601
46692W        W11919  40.569  17.451  10.964
46693W        W11920  16.097  41.495   2.329
46694W        W11921   0.647   8.422  14.118
46695W        W11922  27.847  33.306   3.576
46696W        W11923  35.019   3.948   2.053
46697W        W11924  13.953  39.880   4.885
46698W        W11925   4.914  27.637  10.238
46699W        W11926  26.948  34.450   1.252
46700W        W11927  20.490  27.426  12.948
46701W        W11928  18.354  41.746  14.950
46702W        W11929  31.702   8.334  11.927
46703W        W11930  29.113  33.379   1.324
46704W        W11931  44.844  28.138   2.795
46705W        W11932   6.687  40.129  14.007
46706W        W11933   2.970  26.111   5.086
46707W        W11934   0.006  15.895   4.235
46708W        W11935  16.799  11.183   2.927
46709W        W11936  20.222  33.665   2.269
46710W        W11937  28.101  11.572  11.152
46711W        W11938   2.696  30.210  14.850
46712W        W11939   8.642  38.194  10.697
46713W        W11940  39.761  25.982   2.564
46714W        W11941  40.324  34.571   1.192
46715W        W11942  27.061  31.197   1.671
46716W        W11943  23.326  25.913   2.883
46717W        W11944  10.112  34.029  11.049
46718W        W11945  33.986  13.635  10.308
46719W        W11946  43.002  14.111   4.338
46720W        W11947  41.333  37.584  13.753
46721W        W11948  43.793   7.343   0.516
46722W        W11949   2.858   1.913  13.499
46723W        W11950  21.303  34.982   1.732
46724W        W11951   2.508  23.267   0.792
46725W        W11952  38.952  33.249   0.295
46726W        W11953  33.182   2.165  14.313
46727W        W11954  13.130  15.772   0.390
46728W        W11955  32.827   2.432  13.468
46729W        W11956   9.894  15.209  13.835
46730W        W11957  34.772  26.243   0.747
46731W        W11958  38.470   0.797   3.772
46732W        W11959   8.013  30.902   1.576
46733W        W11960  31.877  25.313   1.646
46734W        W11961  28.999  40.516   4.235
46735W        W11962  11.796   1.417  14.162
46736W        W11963   7.861   5.538   2.372
46737W        W11964  27.403  11.069   0.245
46738W        W11965  21.025  31.625  14.682
46739W        W11966   3.495  17.053  11.771
46740W        W11967  37.935  21.552   4.245
46741W        W11968  41.059  33.632  10.686
46742W        W11969  24.953   8.111   1.761
46743W        W11970  10.458  31.771   3.040
46744W        W11971  23.932  20.451  13.977
46745W        W11972  27.569   2.283   5.056
46746W        W11973  29.023  37.985  14.036
46747W        W11974  26.832  19.931  13.784
46748W        W11975   5.391   0.341  10.522
46749W        W11976   1.815  27.376  13.865
46750W        W11977  31.519  39.349  13.533
46751W        W11978  38.594  21.127  11.892
46752W        W11979  16.517   8.884   4.160
46753W        W11980   7.802  17.542  12.540
46754W        W11981   9.364  33.790  11.763
46755W        W11982  44.541  15.733  12.539
46756W        W11983  11.555  33.972  12.286
46757W        W11984  20.666  38.472   0.412
46758W        W11985  41.843  12.698   0.241
46759W        W11986  33.609  10.537   4.976
46760W        W11987   8.143  21.611  12.473
46761W        W11988  33.100   6.453  10.821
46762W        W11989  26.432  21.054   4.770
46763W        W11990   6.448  26.920   2.733
46764W        W11991  17.052  14.248  14.015
46765W        W11992  24.487   3.534  13.154
46766W        W11993  39.926   4.340  11.667
46767W        W11994  37.722  27.740  11.637
46768W        W11995  12.684  30.064  14.340
46769W        W11996   3.037  40.141  13.644
46770W        W11997  33.431  43.752   2.270
46771W        W11998  21.081   0.753   2.254
46772W        W11999  38.029   9.308   2.237
46773W        W12000  17.001  37.003   0.879
46774W        W12001  27.580   5.281   2.394
46775W        W12002   4.617  44.248  11.105
46776W        W12003  17.011  37.823   0.079
46777W        W12004  14.271  14.359  12.569
46778W        W12005  17.562  12.300   1.242
46779W        W12006  27.474  31.061  12.385
46780W        W12007  38.586  16.750  10.917
46781W        W12008  10.560   1.636  13.538
46782W        W12009   1.380  24.165  12.934
46783W        W12010  44.924  41.587  12.151
46784W        W12011  19.783   5.892  13.447
46785W        W12012  14.675  30.833  13.424
46786W        W12013  15.338  11.695   3.112
46787W        W12014  33.553  27.463  14.734
46788W        W12015  23.299   6.947  12.866
46789W        W12016  30.141  30.906   3.173
46790W        W12017  34.654   7.515  10.371
46791W        W12018  30.946  34.048  11.944
46792W        W12019  25.567  23.993   1.907
46793W        W12020  22.555  25.431  11.637
46794W        W12021   5.356   6.972  13.672
46795W        W12022  31.454  12.981   3.720
46796W        W12023  23.449   9.587  14.980
46797W        W12024  24.547   6.124   1.555
46798W        W12025  18.185  13.065   3.649
46799W        W12026  28.436   2.489   1.778
46800W        W12027  16.691  39.168   1.735
46801W        W12028  20.736   0.714  14.381
46802W        W12029  42.760  39.439   1.738
46803W        W12030  28.485  22.803  14.966
46804W        W12031  23.051  39.576  10.492
46805W        W12032  17.746  27.681   0.825
46806W        W12033   4.815  38.147  14.442
46807W        W12034  43.300   5.925  12.810
46808W        W12035   6.212  13.271   1.952
46809W        W12036  23.627  35.645   1.874
46810W        W12037  21.793  22.271   1.478
46811W        W12038   3.872  10.557   4.574
46812W        W12039  12.129  24.131  11.439
46813W        W12040   8.833  43.044   3.242
46814W        W12041  25.646  26.248   3.967
46815W        W12042  31.521  13.380  14.960
46816W        W12043  32.492  41.850  14.060
46817W        W12044  16.643  39.172   0.350
46818W        W12045   0.537  44.912   1.086
46819W        W12046   4.827  18.325  12.403
46820W        W12047  19.317  36.452  10.512
46821W        W12048  22.190  22.379  13.532
46822W        W12049   9.000  12.224   1.961
46823W        W12050   0.896  20.153   9.803
46824W        W12051  13.771  39.709  11.280
46825W        W12052  21.281  32.122   0.787
46826W        W12053   7.832   1.876   3.865
46827W        W12054  28.368  23.667  11.587
46828W        W12055  18.970   8.268  13.787
46829W        W12056   9.793  17.365   0.910
46830W        W12057  16.660  24.128   3.708
46831W        W12058  35.421  33.251  14.832
46832W        W12059  19.704  25.570  13.382
46833W        W12060   5.649  10.122   3.689
46834W        W12061   8.914  43.615   2.359
46835W        W12062  21.949  25.279   1.427
46836W        W12063  29.133  10.282  14.439
46837W        W12064   5.803  22.267  12.084
46838W        W12065  42.553  32.869  13.043
46839W        W12066  29.148  15.874   2.784
46840W        W12067   8.199   9.829  12.593
46841W        W12068  31.885  17.639  13.388
46842W        W12069  16.208   6.064  14.062
46843W        W12070  38.481  26.921   2.235
46844W        W12071  18.015  11.242   0.228
46845W        W12072  34.388   3.131   0.923
46846W        W12073  12.147   9.420   2.117
46847W        W12074  30.858  24.069  14.000
46848W        W12075   5.817  16.390   1.812
46849W        W12076  35.313   3.334   2.624
46850W        W12077  34.117   0.434   1.342
46851W        W12078  44.004  27.437  11.935
46852W        W12079  16.353  10.406  13.510
46853W        W12080   0.969  11.094   3.632
46854W        W12081  41.269  33.392   4.154
46855W        W12082   7.391  44.962   0.787
46856W        W12083   6.273  26.400  11.534
46857W        W12084   6.648  24.484   2.731
46858W        W12085  20.989   0.317   1.921
46859W        W12086  32.676  42.783   4.967
46860W        W12087  28.419  39.642  11.109
46861W        W12088  36.301  12.603   3.832
46862W        W12089  15.777   0.373   1.672
46863W        W12090   0.449  28.033  12.499
46864W        W12091  25.486  26.654   0.444
46865W        W12092   6.945  16.436  10.758
46866W        W12093  32.587  22.721  13.637
46867W        W12094  37.993  29.633   2.321
46868W        W12095  38.938  21.098   4.999
46869W        W12096   3.289  41.824  10.465
46870W        W12097  40.299  34.340  14.773
46871W        W12098   3.861  12.676  11.550
46872W        W12099  29.009   5.128   0.896
46873W        W12100  26.703   7.434   1.974
46874W        W12101  44.283  33.631   0.677
46875W        W12102  18.673  37.652   4.089
46876W        W12103  12.618  20.273   1.784
46877W        W12104  32.385  36.353  14.077
46878W        W12105  30.071   4.530   0.282
46879W        W12106  22.481   6.290   3.601
46880W        W12107  10.973   5.451   3.647
46881W        W12108  18.545   7.158   3.252
46882W        W12109   9.543  43.171   3.696
46883W        W12110  23.743  26.461   3.597
46884W        W12111  14.036  19.728   3.295
46885W        W12112  13.921  26.798  10.588
46886W        W12113  43.552  30.394   2.704
46887W        W12114  10.707   9.165   3.429
46888W        W12115  29.248  14.053  14.470
46889W        W12116  15.673  26.455   4.993
46890W        W12117   8.783  11.009   3.148
46891W        W12118  24.553  16.359  11.217
46892W        W12119   2.397  19.122  10.513
46893W        W12120  24.352  36.881  10.859
46894W        W12121  11.157  11.653   4.566
46895W        W12122  14.324  34.829   1.763
46896W        W12123  21.216  36.627  13.583
46897W        W12124  30.923  40.344  12.575
46898W        W12125  41.074  44.562  14.394
46899W        W12126  43.263   8.112  10.546
46900W        W12127  33.095   9.100  10.589
46901W        W12128  32.623  43.809   4.319
46902W        W12129  35.399  37.587  11.149
46903W        W12130  41.555  19.681   0.798
46904W        W12131  38.002  33.315  12.043
46905W        W12132  20.802  32.461  14.847
46906W        W12133  27.295  28.133  13.452
46907W        W12134  27.445  39.752  11.047
46908W        W12135  13.811  16.527  12.013
46909W        W12136  43.971  10.907   0.574
46910W        W12137  29.127  16.506  12.481
46911W        W12138  37.185   7.149   2.408
46912W        W12139  13.111   3.457  14.821
46913W        W12140  35.979   5.155  12.057
46914W        W12141  37.990  23.464   2.453
46915W        W12142  33.447  28.255  13.629
46916W        W12143  33.187  26.509  13.448
46917W        W12144   2.204  42.775   2.391
46918W        W12145  42.830   0.126   1.868
46919W        W12146  42.872  12.944  14.918
46920W        W12147  30.909  37.040  14.403
46921W        W12148  13.722  17.079  10.485
46922W        W12149  12.309  11.319   1.905
46923W        W12150  10.093   3.440  11.533
46924W        W12151  30.549  12.817   1.347
46925W        W12152  21.145  39.954   2.580
46926W        W12153  42.474   0.533  12.127
46927W        W12154   1.250  17.227   4.127
46928W        W12155  43.330  41.310  13.850
46929W        W12156  43.367   6.801   0.712
46930W        W12157  28.462  20.843  12.938
46931W        W12158  35.546  39.645   0.347
46932W        W12159  36.128  31.188   3.644
46933W        W12160  43.829  10.584  13.115
46934W        W12161  38.692  26.048   1.745
46935W        W12162  27.084  33.928  14.957
46936W        W12163  41.326  22.143  12.681
46937W        W12164  36.385  12.919   2.381
46938W        W12165  24.241  37.404  13.476
46939W        W12166   5.422  36.860  13.261
46940W        W12167   6.966  34.535  10.764
46941W        W12168  28.344  43.150   3.240
46942W        W12169  33.480  23.001  10.979
46943W        W12170  34.826  31.068   4.209
46944W        W12171  39.210  17.090  10.430
46945W        W12172  27.643  11.667   4.610
46946W        W12173  39.495  31.936   1.441
46947W        W12174   2.722   3.303  11.785
46948W        W12175  10.338  41.090  12.137
46949W        W12176  22.810  16.768   0.256
46950W        W12177  25.724  34.354  13.022
46951W        W12178  25.187  17.300   2.673
46952W        W12179  27.563  35.510  11.042
46953W        W12180   1.256   5.860  12.160
46954W        W12181  23.761  20.439   3.275
46955W        W12182   0.407  23.587   4.636
46956W        W12183   6.928   1.810  10.832
46957W        W12184  21.393   1.561   5.078
46958W        W12185  10.881   0.015  12.347
46959W        W12186  32.129  26.243  14.472
46960W        W12187  27.361  24.446  13.795
46961W        W12188  20.556  44.475  12.675
46962W        W12189  11.667  11.441   1.275
46963W        W12190  41.775   8.384  14.972
46964W        W12191   9.514   8.479  12.114
46965W        W12192  31.930  36.866  10.842
46966W        W12193   4.145  10.213  13.439
46967W        W12194  36.189   0.360  12.948
46968W        W12195  21.507  28.188   3.085
46969W        W12196  27.678  42.838  12.056
46970W        W12197  35.844  14.761  10.904
46971W        W12198  19.231  22.133  13.121
46972W        W12199  22.803   5.413  12.070
46973W        W12200  22.508  23.176  13.290
46974W        W12201  35.596  23.146   0.744
46975W        W12202  39.538  10.635  13.837
46976W        W12203   5.971  38.377   1.552
46977W        W12204  21.673  18.164   3.088
46978W        W12205  25.787   0.284   4.567
46979W        W12206  20.777   3.187   1.288
46980W        W12207  32.143  23.019   3.573
46981W        W12208  19.636  19.546   1.254
46982W        W12209  18.068  28.225   0.370
46983W        W12210  35.467  39.437   2.320
46984W        W12211   4.997   3.207   1.357
46985W        W12212  39.575  15.893   4.997
46986W        W12213   8.409  32.259  10.099
46987W        W12214   3.268   7.722   2.803
46988W        W12215  35.971  42.853   4.728
46989W        W12216   5.605  39.770   4.411
46990W        W12217  33.841  24.071   4.129
46991W        W12218   0.820  18.427   2.102
46992W        W12219  25.603  31.369  13.912
46993W        W12220  38.328  11.471   4.315
46994W        W12221  37.915   4.812  14.798
46995W        W12222  21.283  31.586  12.417
46996W        W12223  44.498  27.594  11.823
46997W        W12224  20.016  42.221   4.444
46998W        W12225  28.885  37.543  13.470
46999W        W12226  15.263  36.404  11.256
47000W        W12227   0.772  34.550   2.254
47001W        W12228  36.117  32.178  11.085
47002W        W12229  40.187   8.770   2.229
47003W        W12230  33.044  16.172   3.548
47004W        W12231  43.333  15.302  12.113
47005W        W12232  38.377  34.846   0.490
47006W        W12233   8.885   8.683  12.096
47007W        W12234  19.759  35.486  10.528
47008W        W12235   6.627  13.257   2.735
47009W        W12236   9.577  38.092  12.002
47010W        W12237  28.126   8.085  10.561
47011W        W12238  30.551  41.977  14.846
47012W        W12239  13.826  24.977  13.058
47013W        W12240   6.287  21.773   4.092
47014W        W12241  41.992  29.374  14.061
47015W        W12242  43.446  28.894  11.527
47016W        W12243  22.507  21.589   0.055
47017W        W12244   1.969  38.537   0.711
47018W        W12245  39.444  34.822   4.585
47019W        W12246  29.886  12.667  13.721
47020W        W12247  13.219  32.503   0.870
47021W        W12248   6.511  27.479  12.865
47022W        W12249   8.785   9.738  14.095
47023W        W12250  31.038  13.003   2.719
47024W        W12251  33.217  33.466  12.387
47025W        W12252  10.351  39.234  11.666
47026W        W12253  24.976   2.843   0.350
47027W        W12254  29.129  38.591  14.327
47028W        W12255   2.722  31.125  14.954
47029W        W12256  26.539  14.710  11.735
47030W        W12257  15.640  15.940  12.767
47031W        W12258  44.425  43.904  12.542
47032W        W12259  23.437   7.091  11.624
47033W        W12260  23.441  15.286   4.587
47034W        W12261  31.266  18.773   0.275
47035W        W12262  22.179   8.826  13.136
47036W        W12263  13.421  19.662  11.898
47037W        W12264  34.551  35.434  12.926
47038W        W12265  39.951  42.244   3.236
47039W        W12266  39.121  43.827  13.193
47040W        W12267   7.685  41.980   4.688
47041W        W12268  32.721  20.808  13.379
47042W        W12269   1.017  44.660   4.720
47043W        W12270  11.777  29.379  14.816
47044W        W12271  19.143  15.794  11.195
47045W        W12272  26.754  11.545  13.941
47046W        W12273  38.929  37.048   1.892
47047W        W12274  17.376  34.910  11.086
47048W        W12275   8.097  25.455   4.217
47049W        W12276  25.754  12.394   2.209
47050W        W12277  31.063  19.776  12.022
47051W        W12278  40.458   2.436  14.031
47052W        W12279  27.288  42.960  13.655
47053W        W12280   4.357   5.419   3.643
47054W        W12281  17.853   5.340   2.245
47055W        W12282  13.291  39.564  11.060
47056W        W12283  30.917  25.711   3.128
47057W        W12284  35.045   1.330   3.679
47058W        W12285  41.406  12.054  11.395
47059W        W12286  41.626   7.883  12.107
47060W        W12287  33.397  44.318  14.859
47061W        W12288  14.658  39.302  12.853
47062W        W12289  25.651  37.541  13.454
47063W        W12290  35.525  43.024  12.597
47064W        W12291  17.338  25.150   2.804
47065W        W12292  28.097   2.851   4.743
47066W        W12293  18.367  21.605   0.383
47067W        W12294  19.288  32.465  14.944
47068W        W12295  35.957   5.254  14.333
47069W        W12296  11.998  43.399   2.135
47070W        W12297  11.573  42.791  10.044
47071W        W12298  18.802  42.089   0.735
47072W        W12299  32.069  12.363   2.398
47073W        W12300  14.198  34.348   1.536
47074W        W12301   3.373  20.995  11.154
47075W        W12302  13.252  30.173  13.597
47076W        W12303  41.062  10.741  12.425
47077W        W12304  41.418  43.704  14.377
47078W        W12305   4.544  21.202  12.841
47079W        W12306  43.485  17.966   3.224
47080W        W12307  32.139   1.166   1.394
47081W        W12308  10.652  33.947  13.483
47082W        W12309  24.803  42.822   4.761
47083W        W12310  27.343  30.934  14.866
47084W        W12311  31.505  44.462  10.740
47085W        W12312  19.994  24.464   0.540
47086W        W12313  26.847  35.087  14.265
47087W        W12314  21.840   1.944   2.301
47088W        W12315   7.963  15.257  12.970
47089W        W12316  40.961  44.845   4.376
47090W        W12317  17.868  19.045   2.355
47091W        W12318  30.705  10.811  10.935
47092W        W12319   6.710  41.969  10.625
47093W        W12320  24.270  17.137  10.324
47094W        W12321  16.923  29.583  12.016
47095W        W12322  11.723   8.858   4.524
47096W        W12323  20.838  21.096  12.538
47097W        W12324  30.596  32.495   0.041
47098W        W12325  20.000  43.701  11.996
47099W        W12326  10.220  24.242   2.241
47100W        W12327  37.221   5.046   4.103
47101W        W12328  23.267  34.666  14.879
47102W        W12329  21.662  21.322  13.014
47103W        W12330  40.583  16.428  11.374
47104W        W12331  38.107  20.507   0.937
47105W        W12332  38.999  32.085  14.936
47106W        W12333  39.663  39.464   1.343
47107W        W12334  10.376   2.948   4.125
47108W        W12335   4.254  14.554  14.587
47109W        W12336  35.340   8.725  12.048
47110W        W12337  20.804  41.037   0.226
47111W        W12338  37.339  16.210  12.607
47112W        W12339  20.579  11.851  12.934
47113W        W12340  31.664  29.777  11.447
47114W        W12341  15.152  36.010  12.073
47115W        W12342   3.925  41.639  13.353
47116W        W12343  35.829  27.099   3.844
47117W        W12344  43.903   3.429  11.176
47118W        W12345  28.119  35.536   2.299
47119W        W12346   2.460  36.960   0.142
47120W        W12347  41.159  40.275  11.213
47121W        W12348  32.675  13.137   1.209
47122W        W12349  36.811  12.372   5.089
47123W        W12350  24.796  29.475  12.508
47124W        W12351  21.360  42.939  12.666
47125W        W12352  34.007   1.079   3.537
47126W        W12353  33.182  37.186   0.446
47127W        W12354  14.321   7.416   2.742
47128W        W12355  31.013  29.943  13.044
47129W        W12356  11.122  12.197   3.626
47130W        W12357  23.632  34.524  10.633
47131W        W12358  12.605   3.249  10.517
47132W        W12359   3.984   6.847   2.639
47133W        W12360  18.358  32.134   4.993
47134W        W12361  28.624   8.622  11.048
47135W        W12362   0.230  40.492  14.426
47136W        W12363  40.403  39.388   1.968
47137W        W12364  21.097  36.414  13.130
47138W        W12365   0.302  40.809   4.519
47139W        W12366  35.451  11.688  14.082
47140W        W12367  40.910  12.299  10.801
47141W        W12368  30.990  24.240   1.233
47142W        W12369  27.566  37.238   3.571
47143W        W12370  16.576  17.582  13.353
47144W        W12371  21.301  34.540   5.190
47145W        W12372  31.428  19.203   1.754
47146W        W12373  22.072  20.515   2.720
47147W        W12374  33.503  21.721   0.801
47148W        W12375  21.128  42.807   3.758
47149W        W12376  16.398  20.414   4.710
47150W        W12377   9.444  17.374   2.861
47151W        W12378  30.390  12.172  12.033
47152W        W12379  23.478  13.857   0.812
47153W        W12380   8.939  34.256  11.688
47154W        W12381   3.065  27.716   9.948
47155W        W12382  33.625  33.029   1.767
47156W        W12383  33.395  28.599  14.408
47157W        W12384  16.587  14.911   4.249
47158W        W12385  38.978  21.535  11.719
47159W        W12386   2.783  18.307   4.090
47160W        W12387   8.766   9.390   2.674
47161W        W12388  39.040   6.414   3.141
47162W        W12389  36.630  27.944   2.845
47163W        W12390   6.831  35.191   2.351
47164W        W12391  38.398   8.718  14.020
47165W        W12392  16.853   1.805   2.297
47166W        W12393  14.417  22.787  14.834
47167W        W12394  37.167  33.497  14.719
47168W        W12395  15.858  40.308   3.514
47169W        W12396  40.748  21.734  12.610
47170W        W12397   4.908  38.775   3.719
47171W        W12398   2.503   5.698   4.098
47172W        W12399  23.083  12.570  11.860
47173W        W12400  23.599  30.878   2.817
47174W        W12401   1.088  26.490   1.187
47175W        W12402  26.097  27.291   3.609
47176W        W12403  28.168  20.417   2.802
47177W        W12404  12.304  12.201  13.111
47178W        W12405  13.319  30.874   3.028
47179W        W12406  33.076   1.837  11.522
47180W        W12407  14.242  35.054  13.316
47181W        W12408  32.364   5.971   3.725
47182W        W12409   7.207  17.830   0.927
47183W        W12410  36.773  28.561   4.159
47184W        W12411  35.621  13.561  14.426
47185W        W12412  15.065  10.850   2.705
47186W        W12413   5.847  21.765   2.867
47187W        W12414   9.172  23.307   1.332
47188W        W12415  35.291  15.561   2.529
47189W        W12416   2.740  39.820   2.546
47190W        W12417  23.880  37.869  10.517
47191W        W12418  38.804  30.962   0.775
47192W        W12419   1.216  11.725   1.382
47193W        W12420   1.858  37.431  13.057
47194W        W12421   2.363  10.832   2.737
47195W        W12422  14.132  31.877   3.629
47196W        W12423   1.338  37.040   2.421
47197W        W12424  25.043  14.017  12.862
47198W        W12425  11.782  18.375  14.306
47199W        W12426   4.458  31.583  12.077
47200W        W12427  35.029  43.531   3.587
47201W        W12428  38.301  44.901   3.843
47202W        W12429  11.580  35.993   2.117
47203W        W12430  37.034  12.254  12.525
47204W        W12431  36.613   8.421   1.394
47205W        W12432  30.495   7.880  13.409
47206W        W12433  30.663  18.031   3.116
47207W        W12434  21.553  13.912  11.452
47208W        W12435   5.729   4.454   3.027
47209W        W12436   7.359  22.748  13.521
47210W        W12437  29.891  21.699  12.054
47211W        W12438  24.415  35.587   4.191
47212W        W12439  17.696  17.096  11.463
47213W        W12440  17.802  42.348  12.343
47214W        W12441  44.061  39.015   3.975
47215W        W12442   3.420   1.044   5.160
47216W        W12443  42.854  27.858  13.196
47217W        W12444  34.216  21.811   3.240
47218W        W12445   0.572  16.415  14.803
47219W        W12446  16.182  26.585   4.847
47220W        W12447  27.471  13.636   4.471
47221W        W12448  29.920  22.963   3.424
47222W        W12449  15.459  21.069   3.646
47223W        W12450  16.404  39.059   1.234
47224W        W12451   7.096  12.169   0.629
47225W        W12452   2.542  11.127  12.629
47226W        W12453  26.443  33.761   5.087
47227W        W12454  13.256   1.042  13.055
47228W        W12455  17.062  28.061   3.807
47229W        W12456  31.665  16.355   4.201
47230W        W12457  22.521  43.715   1.446
47231W        W12458  25.803  34.882  13.181
47232W        W12459  19.934  20.732   5.104
47233W        W12460  15.356   6.221   2.840
47234W        W12461  31.638  33.892   4.208
47235W        W12462   7.368   1.824   0.238
47236W        W12463   3.284   4.980  12.098
47237W        W12464   9.913  17.234  12.095
47238W        W12465  32.862   2.635  11.974
47239W        W12466  16.616   4.270   0.830
47240W        W12467  27.226  19.828  12.009
47241W        W12468  14.425  32.353  11.751
47242W        W12469   7.947  43.599   4.157
47243W        W12470   3.905  34.773  11.613
47244W        W12471  43.020   0.484  11.019
47245W        W12472   3.493   6.536   1.193
47246W        W12473  18.311  42.044  13.766
47247W        W12474  20.856  18.816   2.393
47248W        W12475  16.554  19.274   0.660
47249W        W12476  31.146  33.882   3.012
47250W        W12477  25.993  26.383  12.955
47251W        W12478  42.021  38.374  10.555
47252W        W12479  42.724  28.834  14.310
47253W        W12480   1.070  21.686   2.212
47254W        W12481   8.390  30.624   3.776
47255W        W12482  19.549  39.585  12.306
47256W        W12483  44.477   6.624   4.265
47257W        W12484  11.327  42.966  12.047
47258W        W12485  13.555   8.783  13.879
47259W        W12486  11.789  30.202  12.083
47260W        W12487   8.401  44.915   1.711
47261W        W12488  28.037  35.784   1.746
47262W        W12489   4.468   4.410  11.113
47263W        W12490  17.877  43.035   4.153
47264W        W12491  41.480  17.065  10.686
47265W        W12492  14.268  22.991   4.242
47266W        W12493  13.048  40.724  11.901
47267W        W12494   5.379  28.232  12.452
47268W        W12495  31.102  33.564   1.326
47269W        W12496   0.972  20.700  12.552
47270W        W12497  15.195  37.090   4.682
47271W        W12498  33.717  26.096  13.740
47272W        W12499  25.193  36.799  13.053
47273W        W12500  38.966  14.142  14.473
47274W        W12501  17.686  29.197  13.412
47275W        W12502   3.899  20.922  14.214
47276W        W12503  34.944  17.374  11.050
47277W        W12504  20.365  25.644  11.772
47278W        W12505  14.983  21.211   4.451
47279W        W12506  23.509  37.778   0.815
47280W        W12507  23.086   1.248  14.411
47281W        W12508  31.999  36.421  13.323
47282W        W12509  25.997   6.906  13.048
47283W        W12510  27.058  18.229  13.542
47284W        W12511  40.292  10.773  10.773
47285W        W12512  28.920  12.860   4.910
47286W        W12513  29.483  41.976   0.963
47287W        W12514   0.520  17.022   3.704
47288W        W12515  12.860   9.318  12.547
47289W        W12516  24.605   5.285  12.385
47290W        W12517  44.401  35.030  11.136
47291W        W12518  43.062   6.325   5.062
47292W        W12519  26.114  31.932  14.462
47293W        W12520  25.212  43.131   0.830
47294W        W12521  17.090  38.507   4.199
47295W        W12522   9.929   3.041  10.004
47296W        W12523  21.569  36.389  11.346
47297W        W12524  16.691   8.840   0.049
47298W        W12525  13.094  17.478   0.293
47299W        W12526  26.138   4.675   2.846
47300W        W12527  11.315  11.413  11.088
47301W        W12528  29.868  25.730   1.416
47302W        W12529   5.153   3.061   0.379
47303W        W12530  11.768  41.258   1.903
47304W        W12531  29.794  10.138   2.962
47305W        W12532  11.358   1.409   3.671
47306W        W12533  34.135  44.258  11.731
47307W        W12534  44.079  10.667   1.883
47308W        W12535   7.574  10.836  12.616
47309W        W12536  29.587  40.753  11.502
47310W        W12537   9.412  28.975   1.866
47311W        W12538  35.833  27.492   0.775
47312W        W12539  12.227   1.724   4.083
47313W        W12540  37.802  27.041   0.693
47314W        W12541  41.999  12.742  14.733
47315W        W12542  23.145  34.887  12.003
47316W        W12543  43.052  37.550  12.992
47317W        W12544  28.485  29.213  13.920
47318W        W12545  33.084  18.785  11.542
47319W        W12546  18.107  20.637  11.943
47320W        W12547   1.396  31.882  12.907
47321W        W12548  38.915  18.046  10.469
47322W        W12549  17.131   0.126  13.070
47323W        W12550  11.810   8.149  14.383
47324W        W12551  12.503  20.088  11.189
47325W        W12552   0.907  23.751   2.793
47326W        W12553  13.014  43.030  10.325
47327W        W12554  12.759  26.514   5.030
47328W        W12555  39.312  26.917  14.231
47329W        W12556  38.058  31.364  12.071
47330W        W12557  10.155   0.464   2.795
47331W        W12558  10.900  15.316   0.847
47332W        W12559   8.689   0.369  13.475
47333W        W12560  41.967  38.072   3.165
47334W        W12561  43.061  37.476   4.687
47335W        W12562   3.283  25.323  14.976
47336W        W12563  25.578  43.405   4.196
47337W        W12564  37.303  18.738   1.017
47338W        W12565   8.620  44.418   2.313
47339W        W12566  44.898   4.320   0.230
47340W        W12567  33.888  34.059   3.155
47341W        W12568  34.087  44.265   1.849
47342W        W12569  32.446  17.054   5.419
47343W        W12570   2.515   7.839  14.513
47344W        W12571  23.118  11.874  14.345
47345W        W12572  17.163  11.206  10.790
47346W        W12573   6.231  25.717   1.933
47347W        W12574  29.540  32.955   0.992
47348W        W12575  28.247   4.888   1.869
47349W        W12576   2.359  25.531  11.107
47350W        W12577   0.051  24.236  14.406
47351W        W12578  23.662  27.430  11.224
47352W        W12579  33.561   2.359   0.901
47353W        W12580  34.080  43.113   1.268
47354W        W12581   2.597   0.913   4.689
47355W        W12582  32.657   6.458  14.794
47356W        W12583   0.918  21.240   3.518
47357W        W12584  22.468  27.048   3.342
47358W        W12585  39.019  28.921   3.674
47359W        W12586  39.286  17.391   3.759
47360W        W12587  34.929  25.703  11.549
47361W        W12588  34.528  42.685   2.641
47362W        W12589  30.728  40.791  10.973
47363W        W12590  39.815  24.242   3.332
47364W        W12591  37.439   9.152  14.302
47365W        W12592  34.588   4.370   1.374
47366W        W12593   6.427   1.353   3.844
47367W        W12594  16.801  42.988   3.205
47368W        W12595  25.241  19.432   3.376
47369W        W12596  38.938  19.527  12.276
47370W        W12597  32.532  44.281   2.728
47371W        W12598  31.905  20.462   4.040
47372W        W12599  23.379  15.525  10.164
47373W        W12600  28.626  30.369  12.498
47374W        W12601  25.776  19.579  14.839
47375W        W12602  21.669   9.970  11.125
47376W        W12603   5.552  34.922   1.541
47377W        W12604   4.256   3.142  11.670
47378W        W12605  22.412   7.194   4.235
47379W        W12606  24.773  30.193   4.686
47380W        W12607  22.185  33.142  14.551
47381W        W12608   7.378   8.935  13.286
47382W        W12609  15.225  29.008  12.989
47383W        W12610  44.074  33.045   4.131
47384W        W12611  23.609  29.739   3.615
47385W        W12612  33.595  30.876  12.384
47386W        W12613  30.972  18.032   3.836
47387W        W12614  34.237   8.511  14.392
47388W        W12615   5.718  37.531  12.572
47389W        W12616  18.600   4.906   0.054
47390W        W12617  17.781  24.632   1.669
47391W        W12618  34.072   6.705  12.989
47392W        W12619   1.194  36.659   4.469
47393W        W12620  13.286  32.301  12.583
47394W        W12621  34.607  20.169   0.919
47395W        W12622  34.671  38.799  13.013
47396W        W12623  21.989  22.749  13.824
47397W        W12624  39.235   4.011  13.904
47398W        W12625  16.637  26.685   2.764
47399W        W12626  35.922  35.910   0.387
47400W        W12627   2.427  12.467   3.235
47401W        W12628  42.599  41.277  14.360
47402W        W12629  44.768  42.580   3.174
47403W        W12630   8.760  40.505  12.002
47404W        W12631   9.059   2.907  10.335
47405W        W12632  33.001  16.221   5.876
47406W        W12633  20.644  16.274  13.838
47407W        W12634  37.693  12.635   4.107
47408W        W12635  42.827  41.844   0.956
47409W        W12636   0.414  36.321   1.938
47410W        W12637  10.673  32.035  13.019
47411W        W12638   5.973  34.088   1.474
47412W        W12639  38.324  25.964  11.759
47413W        W12640  43.775   4.469   4.807
47414W        W12641  44.776  11.303   1.908
47415W        W12642  40.622   5.277  14.725
47416W        W12643   1.311  37.332   0.497
47417W        W12644   8.145  17.480   2.068
47418W        W12645  23.018  12.598  13.284
47419W        W12646   1.861   0.774   2.201
47420W        W12647  18.143  20.590   2.452
47421W        W12648  22.598  37.157   4.056
47422W        W12649  40.400  44.264   1.030
47423W        W12650  27.208  32.934   1.344
47424W        W12651  38.425   1.873   2.872
47425W        W12652   0.957   0.796  14.602
47426W        W12653  17.280  17.229   1.792
47427W        W12654  31.378   4.831   5.420
47428W        W12655  14.769  25.096  14.648
47429W        W12656  41.439  37.511  10.616
47430W        W12657   0.079  29.054   1.288
47431W        W12658  40.585  43.257   4.567
47432W        W12659  26.181  17.291   2.823
47433W        W12660  15.201   9.563   2.692
47434W        W12661  41.760   7.324   0.154
47435W        W12662   0.926  10.210   5.208
47436W        W12663  28.879   2.751  12.207
47437W        W12664  36.572  32.969  10.741
47438W        W12665   1.974   2.660  12.438
47439W        W12666   4.916  40.970  14.781
47440W        W12667  32.733  20.202  10.839
47441W        W12668  10.370   3.371   0.170
47442W        W12669   3.761  40.797   2.467
47443W        W12670  16.500  24.068   4.199
47444W        W12671  13.326   7.381   4.191
47445W        W12672   5.928  36.009  14.874
47446W        W12673  29.087  10.032   2.028
47447W        W12674  29.265  24.935   2.188
47448W        W12675   2.911  24.256   2.314
47449W        W12676  41.399  28.632  13.857
47450W        W12677  11.203  35.481  14.117
47451W        W12678  20.656  43.819   4.174
47452W        W12679  40.920  13.777   4.107
47453W        W12680  12.576  11.798  11.814
47454W        W12681  17.181  30.427  12.922
47455W        W12682  34.543  33.548   3.184
47456W        W12683   4.215  31.518  13.399
47457W        W12684  27.158  44.727   4.066
47458W        W12685  44.227  11.842   3.839
47459W        W12686  34.910  44.445   3.979
47460W        W12687  27.459  33.924  10.829
47461W        W12688  40.145  23.681  11.591
47462W        W12689   6.496  40.643   3.764
47463W        W12690  26.570  18.029   2.439
47464W        W12691  11.425  33.961   2.234
47465W        W12692   7.319  18.045  11.433
47466W        W12693  26.029   4.865   2.350
47467W        W12694  35.983  17.029   2.722
47468W        W12695  14.502  15.438  10.805
47469W        W12696  29.431  12.852  14.779
47470W        W12697  14.623  19.973  12.061
47471W        W12698  11.795  41.874  10.529
47472W        W12699  10.719  36.585  12.842
47473W        W12700  10.637  22.064  13.430
47474W        W12701   4.476  23.940  14.815
47475W        W12702  38.929  36.592   3.208
47476W        W12703   6.422  28.660   1.422
47477W        W12704  18.173  13.470  12.809
47478W        W12705  39.414  10.503   2.909
47479W        W12706   5.388  24.064   3.144
47480W        W12707  23.039   5.345  10.518
47481W        W12708  33.644  29.255  11.978
47482W        W12709   7.323  33.142   0.889
47483W        W12710  37.925  22.267   0.397
47484W        W12711  24.252  11.456   2.637
47485W        W12712  27.630  13.154   9.785
47486W        W12713  31.631  23.260   2.678
47487W        W12714  26.627  26.689   0.146
47488W        W12715  40.562  22.023   1.599
47489W        W12716  13.770  17.833  13.330
47490W        W12717  34.456  14.205   3.258
47491W        W12718  30.993  39.098  13.409
47492W        W12719  38.563  40.887  10.980
47493W        W12720  23.037  39.019   1.198
47494W        W12721  42.426   8.427  14.303
47495W        W12722  12.529   3.805  14.083
47496W        W12723  38.848  20.071  13.075
47497W        W12724  22.034  12.536   1.441
47498W        W12725  14.553  25.619  11.673
47499W        W12726  11.770  29.685  12.169
47500W        W12727  22.944  34.468   3.768
47501W        W12728  42.406  20.974   4.158
47502W        W12729  24.807  43.120   1.677
47503W        W12730  42.968   4.424   4.538
47504W        W12731  16.878   2.794   1.949
47505W        W12732  21.304  23.205   1.340
47506W        W12733  19.811  18.318   3.740
47507W        W12734  15.139   2.484   3.608
47508W        W12735  27.725   4.010   1.812
47509W        W12736  18.306  21.202   1.796
47510W        W12737  17.340  37.894  11.552
47511W        W12738  18.212  11.101  12.878
47512W        W12739  23.157  13.201  12.463
47513W        W12740  23.465  30.096  14.056
47514W        W12741   4.116   5.772  10.794
47515W        W12742  40.617  24.459   2.694
47516W        W12743  39.026   9.832  12.517
47517W        W12744  40.778  29.697   1.362
47518W        W12745  30.469  20.144   3.529
47519W        W12746   4.128   1.304   0.658
47520W        W12747  25.927  18.611   3.654
47521W        W12748  19.244  44.133  12.314
47522W        W12749  19.658  26.201   5.050
47523W        W12750  15.687   1.729  10.575
47524W        W12751  23.295   6.914  13.417
47525W        W12752  15.136  28.994  10.593
47526W        W12753   5.127  41.680   4.556
47527W        W12754  40.918  32.014   4.836
47528W        W12755  40.081   0.164  14.959
47529W        W12756   0.198   5.886  11.986
47530W        W12757  42.700  11.214  13.979
47531W        W12758  28.615  31.123  14.070
47532W        W12759   4.761  28.924   0.457
47533W        W12760  19.306  39.643  14.362
47534W        W12761  37.811  39.864   0.350
47535W        W12762  10.535   2.442  11.439
47536W        W12763  12.816   9.876  10.754
47537W        W12764   0.251  20.775  13.598
47538W        W12765  25.074  42.861  11.984
47539W        W12766  42.077   3.326   2.374
47540W        W12767  26.360  22.032  13.572
47541W        W12768  33.672   9.195  13.523
47542W        W12769  32.649   5.747  10.658
47543W        W12770  35.090   1.189   0.320
47544W        W12771   4.792  39.043  12.878
47545W        W12772  11.575  14.613   0.424
47546W        W12773  41.747  30.699  12.320
47547W        W12774  39.980  23.326   0.748
47548W        W12775  32.236   5.266   2.202
47549W        W12776  12.870  42.444   4.542
47550W        W12777  30.578  39.351  11.911
47551W        W12778  40.371  29.639  11.188
47552W        W12779  25.676  41.428  14.886
47553W        W12780  27.045  25.981   2.751
47554W        W12781  19.147  27.042  14.036
47555W        W12782  27.502   5.869  13.250
47556W        W12783  15.275   3.946   2.962
47557W        W12784  36.106  18.136   2.632
47558W        W12785  44.547  11.370  14.974
47559W        W12786   3.679  35.687  11.639
47560W        W12787   9.278  14.057   3.282
47561W        W12788  41.970   8.962   1.966
47562W        W12789  35.363  26.984  13.332
47563W        W12790   1.584  26.636  13.384
47564W        W12791   4.931  37.563   2.672
47565W        W12792  23.950  22.150   0.970
47566W        W12793   4.351  25.574   1.321
47567W        W12794  35.055   0.960   4.154
47568W        W12795  22.209  28.495  13.893
47569W        W12796  20.220  15.550  11.802
47570W        W12797   1.781  41.742   4.474
47571W        W12798  33.233  41.225  10.886
47572W        W12799   3.505   9.050  12.137
47573W        W12800  44.048  29.648   4.238
47574W        W12801   1.944  23.456   1.793
47575W        W12802  18.738  33.469  10.683
47576W        W12803  32.909  44.587   1.713
47577W        W12804   4.681  12.265  13.853
47578W        W12805  30.648   7.178  10.910
47579W        W12806  35.959   1.452  11.691
47580W        W12807  22.305  39.784   1.777
47581W        W12808  15.742  31.587   4.257
47582W        W12809  39.049  41.895  13.834
47583W        W12810  11.735  38.962   4.647
47584W        W12811   0.984  32.402   4.871
47585W        W12812  34.715   5.162  13.567
47586W        W12813  12.037  26.040   1.924
47587W        W12814  21.160  10.990   0.816
47588W        W12815  39.278  11.885  12.887
47589W        W12816  42.539  40.006  13.999
47590W        W12817  26.213  19.388   4.572
47591W        W12818   7.992   9.357   0.325
47592W        W12819  25.654  33.458   2.746
47593W        W12820  27.712  39.976  10.645
47594W        W12821  39.423  16.210   0.964
47595W        W12822  41.537  28.979   2.545
47596W        W12823  15.358  40.405  14.010
47597W        W12824  33.352  16.226   0.856
47598W        W12825  41.375   8.360  13.371
47599W        W12826  32.558   0.549   3.351
47600W        W12827  40.452  24.471  13.849
47601W        W12828   1.408  34.095  14.685
47602W        W12829  16.920  27.487   3.890
47603W        W12830  22.527  13.259   1.929
47604W        W12831  35.833   5.146  11.125
47605W        W12832  22.974   6.932   1.643
47606W        W12833  10.829  11.127   4.611
47607W        W12834   1.954  34.755  11.046
47608W        W12835  38.927  26.519   1.745
47609W        W12836  13.199  33.644  12.870
47610W        W12837  42.279  16.984   0.859
47611W        W12838  29.379  39.549   2.404
47612W        W12839  20.227  13.139  14.365
47613W        W12840  10.281  25.865  10.438
47614W        W12841   1.017  28.513  13.587
47615W        W12842   1.053  41.262   1.939
47616W        W12843  28.687   5.459  12.175
47617W        W12844  25.748   4.928   1.533
47618W        W12845   6.890   5.596   4.283
47619W        W12846  20.433  17.092   1.846
47620W        W12847  22.113   0.635  12.092
47621W        W12848  30.081  31.892  12.859
47622W        W12849  42.293   7.179  13.033
47623W        W12850  16.700  17.062  12.405
47624W        W12851  20.812  14.874   4.283
47625W        W12852   9.748  36.897  11.606
47626W        W12853  38.085  11.898  10.734
47627W        W12854  41.014  26.750  11.149
47628W        W12855   3.826  13.188  10.774
47629W        W12856   8.641  33.923  11.410
47630W        W12857   9.411  40.859   3.801
47631W        W12858  12.024  38.537   4.712
47632W        W12859  22.982  32.600  13.491
47633W        W12860  38.437   8.144  13.994
47634W        W12861  13.239   0.616  11.812
47635W        W12862  34.373  23.182  10.410
47636W        W12863  17.314   3.677   4.493
47637W        W12864  19.324  39.963  13.558
47638W        W12865  31.679  32.651  11.639
47639W        W12866  40.456   6.967   2.170
47640W        W12867  21.639   0.893  12.061
47641W        W12868  13.189  43.812   2.432
47642W        W12869  27.697  37.256   4.583
47643W        W12870  29.638  41.486   3.640
47644W        W12871   9.839  44.277  13.450
47645W        W12872  44.986  44.581  13.988
47646W        W12873  40.054  21.779   2.280
47647W        W12874  14.764   2.911  12.570
47648W        W12875   0.838   9.944  10.715
47649W        W12876  43.096  33.525   3.028
47650W        W12877   8.883  44.971  13.920
47651W        W12878  41.937  42.675   4.749
47652W        W12879  22.092   0.754   9.833
47653W        W12880  17.264  41.805   3.139
47654W        W12881   9.098   0.395   2.836
47655W        W12882  44.370   9.578  11.098
47656W        W12883  13.969  31.540   4.906
47657W        W12884  14.307  31.610   3.233
47658W        W12885  14.901  26.139   4.198
47659W        W12886  33.803  39.288   1.813
47660W        W12887  26.519  33.486  11.286
47661W        W12888   4.440  12.705   3.434
47662W        W12889  33.985  35.555   0.181
47663W        W12890  20.765  31.439   1.961
47664W        W12891  28.278  42.461   4.805
47665W        W12892  36.919  39.743  11.488
47666W        W12893  38.055  20.310  12.979
47667W        W12894  20.661  28.287   4.787
47668W        W12895  31.710   2.898   0.090
47669W        W12896  12.349  34.697  11.575
47670W        W12897  19.480  31.338  11.928
47671W        W12898  19.331  15.249   3.918
47672W        W12899  41.512   2.792   0.340
47673W        W12900  22.245  34.569  12.658
47674W        W12901  37.946  10.650  12.076
47675W        W12902   5.532   9.527  14.225
47676W        W12903  31.872  29.564  14.758
47677W        W12904   5.740  25.162   2.194
47678W        W12905  41.904  26.209   3.997
47679W        W12906  31.166   6.106   4.014
47680W        W12907   5.343  39.348  10.721
47681W        W12908   4.464  39.547  12.377
47682W        W12909  21.755  41.444   4.827
47683W        W12910  12.152  33.609   2.702
47684W        W12911  19.155  35.455  10.719
47685W        W12912  29.909  21.562  14.920
47686W        W12913  19.710  44.884  12.609
47687W        W12914  27.004   7.935  11.235
47688W        W12915  13.681  17.518  13.761
47689W        W12916  14.178  37.807  14.960
47690W        W12917  25.131   8.359   3.907
47691W        W12918   5.868  10.456  10.606
47692W        W12919  26.034  27.047  11.194
47693W        W12920  34.897  30.875   3.302
47694W        W12921  39.241  15.463   2.642
47695W        W12922  35.085  11.767   1.728
47696W        W12923  44.792  42.232  11.012
47697W        W12924  34.487  15.764  14.029
47698W        W12925  32.489   3.631  14.816
47699W        W12926  26.664  21.788   4.577
47700W        W12927  28.915   7.504  11.003
47701W        W12928   0.406  34.389  13.365
47702W        W12929  28.745  18.628   3.945
47703W        W12930  39.066  27.112  12.469
47704W        W12931  16.671  35.744  14.234
47705W        W12932  25.048  16.028   3.153
47706W        W12933  34.925  42.764   2.332
47707W        W12934  20.118  30.119  11.692
47708W        W12935   2.822  41.591  11.588
47709W        W12936  37.070   0.166   1.829
47710W        W12937  39.261   5.680  12.619
47711W        W12938  21.070  38.006   2.232
47712W        W12939  37.665  40.028  12.121
47713W        W12940   7.842  18.715   4.988
47714W        W12941  27.998  33.781   3.676
47715W        W12942   3.410   2.755   5.154
47716W        W12943  24.775  11.192  11.642
47717W        W12944  27.919  17.551   2.275
47718W        W12945  34.156  26.172  12.481
47719W        W12946  17.210  41.499   3.596
47720W        W12947  37.148  28.074   0.285
47721W        W12948  29.729  18.826   4.083
47722W        W12949   7.658  25.218  12.954
47723W        W12950   9.659  18.879  14.128
47724W        W12951  12.808  30.464   4.769
47725W        W12952  39.562  14.670  13.914
47726W        W12953   8.598  14.211  11.685
47727W        W12954  24.476  12.094  11.903
47728W        W12955  17.050  21.364  10.732
47729W        W12956  11.728  18.151   4.081
47730W        W12957  41.542  34.984  12.075
47731W        W12958  37.078   1.446  12.084
47732W        W12959  33.894  30.551  11.695
47733W        W12960   2.844  38.858   0.791
47734W        W12961  10.669  20.284  11.541
47735W        W12962  37.181  35.131   4.299
47736W        W12963  33.538   9.187   3.630
47737W        W12964   0.435   3.761  11.210
47738W        W12965  24.034  30.061   2.259
47739W        W12966  21.656  12.539  13.547
47740W        W12967  35.635  34.449  14.033
47741W        W12968  23.047  39.616  11.986
47742W        W12969   9.428  35.462  14.429
47743W        W12970  21.017  35.351   2.616
47744W        W12971   9.366  29.301   1.190
47745W        W12972  15.632   4.052  10.406
47746W        W12973  13.345  26.561   1.698
47747W        W12974  40.288  12.479   1.866
47748W        W12975  27.954  14.820  12.890
47749W        W12976  15.896  31.983   0.042
47750W        W12977  39.390  27.667   0.455
47751W        W12978   8.919  35.318  11.174
47752W        W12979  21.061  17.682  14.565
47753W        W12980  29.415  13.070   2.673
47754W        W12981   2.559  23.515   1.251
47755W        W12982  35.879  18.635  14.010
47756W        W12983  37.286  39.484   2.369
47757W        W12984   1.567  30.521   2.725
47758W        W12985  15.437  19.718   1.846
47759W        W12986   7.345  19.021   4.144
47760W        W12987  33.738  22.650  14.845
47761W        W12988   5.991  29.138   4.585
47762W        W12989  23.200  44.393  11.826
47763W        W12990  40.017  43.657   2.130
47764W        W12991  19.376   4.249  12.023
47765W        W12992  35.509   1.266   4.106
47766W        W12993  30.675  15.166  11.647
47767W        W12994  16.574  10.198  13.948
47768W        W12995   6.193   9.410  12.816
47769W        W12996  26.070   8.142  11.701
47770W        W12997  19.276  40.971  14.483
47771W        W12998   2.828   0.916  12.641
47772W        W12999   5.281  39.042  13.992
47773W        W13000  44.522   5.981  14.993
47774W        W13001  26.270  18.079   1.190
47775W        W13002  39.512   8.823  13.371
47776W        W13003  12.290  27.454  11.304
47777W        W13004  37.079  30.910   2.381
47778W        W13005  31.409  22.957   0.897
47779W        W13006  30.589  41.315   2.731
47780W        W13007  26.926  17.414   0.409
47781W        W13008  18.077   2.755   1.113
47782W        W13009   3.676  24.455  11.208
47783W        W13010  31.528  36.524   3.078
47784W        W13011  14.149   9.763  12.624
47785W        W13012  34.977  19.156   3.038
47786W        W13013  31.421  40.679  13.630
47787W        W13014   4.455  27.911   5.010
47788W        W13015  16.013  41.639  14.917
47789W        W13016  13.265   1.726   4.349
47790W        W13017  26.183  22.286  11.532
47791W        W13018  26.133  23.979   4.094
47792W        W13019  26.085  20.894  12.049
47793W        W13020   5.079  43.431  13.928
47794W        W13021  36.582  21.959   2.618
47795W        W13022  40.040   6.412  11.700
47796W        W13023  35.649  35.933  13.350
47797W        W13024  39.647  43.524  14.457
47798W        W13025  18.365   0.708   4.229
47799W        W13026   1.154  25.418  14.439
47800W        W13027   0.056  19.582   0.208
47801W        W13028  42.994  16.088   0.783
47802W        W13029   7.096  25.963  11.197
47803W        W13030   5.224  19.185   1.714
47804W        W13031  35.135  23.842   9.898
47805W        W13032  33.071   5.381   0.310
47806W        W13033  22.056  31.674  13.066
47807W        W13034  24.608  11.690   4.291
47808W        W13035  32.317  10.591   1.680
47809W        W13036   8.425  32.399  14.837
47810W        W13037  35.273  21.943  14.910
47811W        W13038  31.151  13.352   3.523
47812W        W13039  13.797   2.444   3.880
47813W        W13040  43.109  29.526  12.420
47814W        W13041  26.621  17.803   4.866
47815W        W13042  15.242  19.537   0.465
47816W        W13043  24.461  27.948  11.162
47817W        W13044  15.516  15.504  12.509
47818W        W13045  16.071   8.257   1.726
47819W        W13046   8.927  39.945   2.479
47820W        W13047  17.582  10.774  12.079
47821W        W13048  27.405  41.470   3.091
47822W        W13049   7.624   4.481   4.805
47823W        W13050  33.813  10.045   1.672
47824W        W13051  36.173  16.963   0.335
47825W        W13052  44.982  12.783  14.371
47826W        W13053   5.488   4.800  14.756
47827W        W13054  35.917  20.310   4.198
47828W        W13055   8.340  15.740  14.480
47829W        W13056   0.417  26.152  13.538
47830W        W13057  14.637  36.561   0.369
47831W        W13058   3.902  40.308  13.803
47832W        W13059  43.879   4.268  14.510
47833W        W13060  26.205  36.977  14.547
47834W        W13061  40.783  38.930  11.529
47835W        W13062  22.616   0.995  13.478
47836W        W13063   1.488   2.022   4.122
47837W        W13064   5.196  38.321   3.064
47838W        W13065  26.751   6.184  10.566
47839W        W13066  34.839  44.754  13.036
47840W        W13067  44.527  17.554   3.786
47841W        W13068  24.530  35.445   2.252
47842W        W13069  28.513  25.227  14.400
47843W        W13070  15.815   0.362   0.160
47844W        W13071  28.245   7.125  14.212
47845W        W13072  28.579  37.382   0.217
47846W        W13073  35.910   2.735  11.113
47847W        W13074  38.492   1.064   2.546
47848W        W13075  27.011  31.141   0.294
47849W        W13076  20.604  25.153   0.939
47850W        W13077  14.108  29.684  12.540
47851W        W13078  11.716  25.211  13.128
47852W        W13079  15.713  33.127  13.989
47853W        W13080  12.590  34.886  14.915
47854W        W13081  15.283  44.793  11.510
47855W        W13082   8.452   7.698   2.174
47856W        W13083  12.956  39.591  11.506
47857W        W13084  39.777   3.295   4.074
47858W        W13085  11.997  41.400   0.251
47859W        W13086  40.346   3.500  11.676
47860W        W13087   2.359   0.642  13.937
47861W        W13088  40.590   3.250  14.659
47862W        W13089   8.372   4.073  11.816
47863W        W13090   4.950  37.875   4.198
47864W        W13091  12.350  28.612  11.581
47865W        W13092  36.451  26.679   4.081
47866W        W13093  30.137  20.834   0.405
47867W        W13094   5.792  35.284   0.561
47868W        W13095  31.397  34.836   9.665
47869W        W13096   5.620  17.504   2.304
47870W        W13097  20.621   6.258   0.998
47871W        W13098  28.513  30.290   4.630
47872W        W13099  31.913  19.627   4.142
47873W        W13100  11.311  15.678  14.021
47874W        W13101   7.017  43.098  14.246
47875W        W13102   0.454  38.987   0.506
47876W        W13103  10.583  16.716  14.920
47877W        W13104  42.453   8.766  13.850
47878W        W13105  36.198  26.834  12.954
47879W        W13106   9.207  18.088  13.539
47880W        W13107   2.589  17.991   1.054
47881W        W13108   5.807  22.668   3.921
47882W        W13109  42.314  16.292  13.963
47883W        W13110  33.482   4.625   2.743
47884W        W13111   5.732  24.919  10.752
47885W        W13112  31.371  12.723   0.523
47886W        W13113  11.559   3.749  13.075
47887W        W13114  20.813   6.253   1.933
47888W        W13115   0.952  40.640  13.917
47889W        W13116  23.018   5.749   2.166
47890W        W13117  21.048   7.733  12.002
47891W        W13118  44.533  34.846   5.028
47892W        W13119  32.547  11.243  12.299
47893W        W13120  42.492  41.488   0.732
47894W        W13121  42.830  27.328   4.990
47895W        W13122  36.502   0.499   0.638
47896W        W13123   4.763   1.512   1.181
47897W        W13124  14.518   7.682  14.511
47898W        W13125   7.305  35.602   2.211
47899W        W13126  22.588  15.943   1.740
47900W        W13127   7.918   2.391  14.573
47901W        W13128  13.765   0.304  12.866
47902W        W13129  22.805   7.917  11.056
47903W        W13130  15.329  28.142   2.894
47904W        W13131  38.375  21.033   1.801
47905W        W13132   5.231  29.982   0.797
47906W        W13133  33.553  14.632  12.858
47907W        W13134  10.811  10.847   0.369
47908W        W13135  14.475  39.068   0.308
47909W        W13136  44.739  18.131   3.378
47910W        W13137   0.789  34.668  11.917
47911W        W13138  43.046   4.438   3.597
47912W        W13139   6.855   8.098  13.299
47913W        W13140   3.740  14.806   2.212
47914W        W13141  43.981   7.842   1.939
47915W        W13142  29.481  41.455   0.046
47916W        W13143  37.800   1.345   0.387
47917W        W13144  41.369  17.853  13.876
47918W        W13145  26.996   4.261   0.325
47919W        W13146  37.816   9.802   0.433
47920W        W13147  34.332  17.026   3.300
47921W        W13148  20.359   3.892  11.473
47922W        W13149   5.883  23.614   0.040
47923W        W13150  24.639  39.609   4.814
47924W        W13151  10.183  43.074  10.960
47925W        W13152  35.631  42.333   1.731
47926W        W13153  34.525  28.371  10.563
47927W        W13154  17.567  44.496  12.008
47928W        W13155  36.939  23.437   4.286
47929W        W13156   6.057  44.553   0.781
47930W        W13157   4.698  18.169   3.799
47931W        W13158  34.367  27.636  14.094
47932W        W13159  36.528  41.868   1.711
47933W        W13160  39.998  18.491   4.030
47934W        W13161   3.220  13.171  11.969
47935W        W13162  20.477   9.761   1.351
47936W        W13163  43.437  35.830  11.241
47937W        W13164  14.399  37.688   5.116
47938W        W13165  22.616  15.252  10.782
47939W        W13166  32.205  13.885  12.493
47940W        W13167  11.126  39.087   4.047
47941W        W13168   1.613  28.949  10.989
47942W        W13169  32.880  34.616  11.470
47943W        W13170  27.097   4.723  11.214
47944W        W13171   4.394  15.325   2.858
47945W        W13172  41.493   7.659   4.785
47946W        W13173  18.771  41.546  12.885
47947W        W13174  25.671  30.961   4.015
47948W        W13175   0.896  33.386   2.757
47949W        W13176  14.079  33.135   2.308
47950W        W13177   4.907  18.907  10.161
47951W        W13178  26.524  44.760  11.364
47952W        W13179  17.512  19.383   2.184
47953W        W13180  41.904  44.181  14.836
47954W        W13181  12.891  33.694  10.310
47955W        W13182  36.892  42.892   3.681
47956W        W13183  19.094  29.125   4.353
47957W        W13184  42.263  11.572   2.465
47958W        W13185  38.960   9.908  10.845
47959W        W13186  15.362   5.684  14.588
47960W        W13187   8.356  19.166  10.751
47961W        W13188  32.362  20.109   4.792
47962W        W13189  18.641  30.459   2.130
47963W        W13190  23.222  15.735  11.473
47964W        W13191  13.282  18.900   5.094
47965W        W13192  42.597  42.718   0.660
47966W        W13193  17.570   7.777   3.144
47967W        W13194  34.421  32.584  11.117
47968W        W13195   3.433  32.082   1.535
47969W        W13196  32.443   8.626   0.410
47970W        W13197  38.512  10.603  12.073
47971W        W13198  25.437  36.609  14.362
47972W        W13199  25.630  39.839  13.063
47973W        W13200  13.322  37.827  10.833
47974W        W13201  20.084  25.885   3.715
47975W        W13202   3.367  19.204  10.987
47976W        W13203  14.718  32.451   0.122
47977W        W13204  26.908  17.781  12.352
47978W        W13205  24.291  11.685   0.075
47979W        W13206  44.170   4.182   5.040
47980W        W13207  32.912   9.579  10.593
47981W        W13208  11.498  41.240   0.179
47982W        W13209  44.267   9.802  10.660
47983W        W13210   4.362  42.421  12.909
47984W        W13211   3.329  19.672  13.400
47985W        W13212  30.452  28.915   5.103
47986W        W13213   8.646  31.171  14.357
47987W        W13214  21.274  26.525  10.587
47988W        W13215  22.989  23.761   2.236
47989W        W13216   1.081  41.357  14.392
47990W        W13217   3.036   4.350  13.751
47991W        W13218  24.337   8.546   4.276
47992W        W13219   1.497  25.778   4.498
47993W        W13220  21.687  28.178  11.305
47994W        W13221  10.213   0.913   3.053
47995W        W13222  26.938  44.674   3.138
47996W        W13223   8.526  34.458   4.076
47997W        W13224   6.291  19.355  14.521
47998W        W13225  22.546  14.912   0.259
47999W        W13226  31.517  32.478  14.187
48000W        W13227  33.355  16.774   2.708
48001W        W13228  15.954  27.076  13.371
48002W        W13229  24.187   3.268  14.973
48003W        W13230  36.504  37.804   4.639
48004W        W13231  20.843  35.327  12.495
48005W        W13232  12.136  29.870  11.864
48006W        W13233  13.164  10.947  11.993
48007W        W13234  22.319  15.867  13.282
48008W        W13235  11.128   3.689  10.306
48009W        W13236  27.099  30.629   2.635
48010W        W13237  13.876  23.648   2.518
48011W        W13238  22.287  28.550   3.296
48012W        W13239   9.919   7.657   1.042
48013W        W13240   7.270  34.070   2.836
48014W        W13241  10.782   7.346   4.300
48015W        W13242  32.608  35.064   0.898
48016W        W13243  40.514  22.026  11.655
48017W        W13244   4.252  25.550  11.215
48018W        W13245  14.023  24.405  14.768
48019W        W13246  41.240  39.942  10.817
48020W        W13247  41.900  24.144   2.339
48021W        W13248  34.595  32.913   0.811
48022W        W13249  14.894   2.893   3.285
48023W        W13250  32.106  11.571  12.907
48024W        W13251  19.967  41.408   1.233
48025W        W13252  19.303  32.585   1.479
48026W        W13253  32.149  40.711  14.548
48027W        W13254  30.603  10.309  13.105
48028W        W13255  35.859  32.081   0.396
48029W        W13256  19.729  37.385  10.686
48030W        W13257  33.406  42.266  13.437
48031W        W13258  29.953  18.398  11.947
48032W        W13259  19.513   2.885   0.697
48033W        W13260   9.249   1.857  10.963
48034W        W13261  18.581   9.410   4.738
48035W        W13262  14.973   4.231  12.870
48036W        W13263   5.752  17.438  12.528
48037W        W13264  41.857  28.250   1.247
48038W        W13265  12.669   0.284   3.998
48039W        W13266  39.974  19.054  11.366
48040W        W13267  35.929  36.353   4.422
48041W        W13268  36.612   1.505   3.615
48042W        W13269  31.942  43.061   3.732
48043W        W13270  27.075  17.142   1.904
48044W        W13271  19.755  40.881  11.522
48045W        W13272  24.531  34.681   3.220
48046W        W13273  11.686  37.936   2.450
48047W        W13274  21.566  12.368   1.270
48048W        W13275  21.119  41.954   3.458
48049W        W13276   4.351  11.365   1.734
48050W        W13277  17.023  11.848  12.883
48051W        W13278   0.391  31.838  11.034
48052W        W13279  11.188  15.977  12.816
48053W        W13280  24.707   6.724   4.082
48054W        W13281  11.792  31.642   1.856
48055W        W13282  17.073  13.105   4.986
48056W        W13283  31.008  27.475  14.334
48057W        W13284  39.533   2.833  14.007
48058W        W13285   7.814  34.924   2.795
48059W        W13286  16.695  38.050  13.602
48060W        W13287  20.474  25.177   0.437
48061W        W13288  29.448   8.334  11.621
48062W        W13289  40.836  15.198   2.926
48063W        W13290  33.185  24.988   5.067
48064W        W13291   9.624  11.735  14.357
48065W        W13292  23.303  16.046  10.512
48066W        W13293   5.334  10.261   3.287
48067W        W13294  41.883  15.642  12.208
48068W        W13295  27.013  18.241  10.716
48069W        W13296  34.665  13.749  14.392
48070W        W13297  17.754  35.497   4.385
48071W        W13298  29.210  36.930  10.280
48072W        W13299  26.060  38.809  11.244
48073W        W13300  43.327  36.649  13.876
48074W        W13301  40.867  38.118   4.159
48075W        W13302  33.696  10.819  12.744
48076W        W13303  36.829  11.022  12.475
48077W        W13304   0.717  10.261   3.330
48078W        W13305   2.569   7.807   2.515
48079W        W13306  21.841  37.449  14.823
48080W        W13307  38.797  18.821  13.106
48081W        W13308  39.432  32.925  14.875
48082W        W13309  28.158   5.337  12.924
48083W        W13310   5.690  33.416   2.837
48084W        W13311  19.108  15.679   3.717
48085W        W13312   7.676  40.617  12.056
48086W        W13313  36.003  31.180  13.503
48087W        W13314  32.465  12.090   3.180
48088W        W13315   1.238  17.097  11.029
48089W        W13316   5.935  16.150   0.849
48090W        W13317  41.553   5.245  14.164
48091W        W13318  42.942   3.905   4.419
48092W        W13319  31.864  18.701   4.120
48093W        W13320  39.568   1.483  14.262
48094W        W13321  39.038  24.839   2.031
48095W        W13322  11.599  30.415  11.643
48096W        W13323  12.101  19.171   0.333
48097W        W13324  41.888   1.119   1.387
48098W        W13325  33.574  30.964   0.786
48099W        W13326  38.647   0.922   3.314
48100W        W13327   1.797   3.361   2.216
48101W        W13328  34.474   7.219   1.983
48102W        W13329  40.963  36.536   4.823
48103W        W13330  44.110  44.888  11.586
48104W        W13331  44.514  23.631   3.113
48105W        W13332   4.281  32.988   4.496
48106W        W13333  29.415  39.731  10.206
48107W        W13334  42.273  36.373   0.972
48108W        W13335   3.553  21.461  12.664
48109W        W13336  21.061  35.663  11.617
48110W        W13337  20.715  23.157  12.168
48111W        W13338  38.560  30.121  14.279
48112W        W13339  40.747   8.913  13.789
48113W        W13340  32.790   7.231   1.412
48114W        W13341  42.368  37.718   1.309
48115W        W13342  31.077  14.559  12.353
48116W        W13343   3.876  21.421  14.059
48117W        W13344   2.734  17.777  13.533
48118W        W13345  44.431  25.662   2.814
48119W        W13346  43.252  42.691  13.628
48120W        W13347   9.109  19.766   1.216
48121W        W13348  29.930  40.582  12.607
48122W        W13349   5.362  15.610   3.162
48123W        W13350   6.941   0.735  13.601
48124W        W13351   1.717  39.309   3.647
48125W        W13352  26.211  41.521  14.823
48126W        W13353  44.159  30.459  13.569
48127W        W13354  43.665   8.212   2.184
48128W        W13355  18.833  31.648   0.793
48129W        W13356  36.260  23.693  12.857
48130W        W13357  40.468   2.715  11.151
48131W        W13358  33.922  22.714  14.318
48132W        W13359  29.439  32.598  13.538
48133W        W13360  30.917  35.544   0.130
48134W        W13361  23.082   5.786  10.778
48135W        W13362  12.206  14.598   0.785
48136W        W13363  11.219  17.092  12.893
48137W        W13364  43.797  35.600  12.862
48138W        W13365   0.522  20.905   2.201
48139W        W13366   9.206  43.217  14.093
48140W        W13367  42.891  22.936  11.126
48141W        W13368   7.616  38.986   1.339
48142W        W13369  40.930  23.150  11.333
48143W        W13370  16.313   3.784  12.923
48144W        W13371  41.282  34.292   2.317
48145W        W13372  15.355  10.518   1.115
48146W        W13373   2.003   0.575   4.070
48147W        W13374  23.062  15.799   4.857
48148W        W13375   1.263  36.763   3.843
48149W        W13376  19.371  18.013   1.322
48150W        W13377  36.516   6.255   0.655
48151W        W13378  34.133   4.734  12.994
48152W        W13379  42.113  13.111  13.939
48153W        W13380   0.428   2.898   2.020
48154W        W13381  38.499  41.624  12.959
48155W        W13382  11.323  27.996  12.407
48156W        W13383  19.407  17.587   3.728
48157W        W13384  42.546  24.472  12.018
48158W        W13385   3.365  39.515   4.499
48159W        W13386  27.113  11.585   3.114
48160W        W13387   6.920   5.998  14.807
48161W        W13388   9.434   6.300   1.026
48162W        W13389   4.493  16.600   5.098
48163W        W13390  35.024  29.855   3.173
48164W        W13391  20.855  25.143   2.835
48165W        W13392   6.717  32.907   1.731
48166W        W13393  44.896   8.197  13.191
48167W        W13394  17.725  15.939   3.275
48168W        W13395   2.407  36.336  12.588
48169W        W13396  26.076  37.452   4.847
48170W        W13397  16.808  10.195   2.352
48171W        W13398   7.775  11.432   1.395
48172W        W13399  40.576  37.515   1.481
48173W        W13400   5.721   7.344  14.980
48174W        W13401  15.837  34.571   3.789
48175W        W13402  36.959  37.858  11.735
48176W        W13403   6.261  30.103   4.082
48177W        W13404  12.745  24.384   3.248
48178W        W13405  16.101  40.368  11.869
48179W        W13406  32.926  24.540   4.982
48180W        W13407  34.303  24.230   4.311
48181W        W13408  37.259  32.451  11.054
48182W        W13409   9.927   7.200   2.769
48183W        W13410   8.921  41.037   3.712
48184W        W13411  30.368  22.789  10.684
48185W        W13412  36.107   1.267   2.801
48186W        W13413  32.471  12.091  13.956
48187W        W13414  40.880   6.247   0.679
48188W        W13415  13.294  35.980  14.044
48189W        W13416  37.925  44.046  10.415
48190W        W13417  37.335  11.839  14.207
48191W        W13418  25.062   6.699  11.048
48192W        W13419  25.905  22.516  11.933
48193W        W13420  44.047  31.496   3.144
48194W        W13421   0.560  16.423   9.894
48195W        W13422   2.907  39.995   2.036
48196W        W13423   6.766  16.668   2.809
48197W        W13424  37.990  19.593   4.968
48198W        W13425  30.559  16.660   2.659
48199W        W13426  23.429  20.057  10.838
48200W        W13427  26.872  19.139  13.285
48201W        W13428  21.546  31.902  13.557
48202W        W13429  19.500  34.506  12.004
48203W        W13430   6.874   8.230  10.735
48204W        W13431  14.112  17.286   3.162
48205W        W13432  22.063  39.905   0.275
48206W        W13433  36.484   3.215  13.801
48207W        W13434  20.134  20.701  14.495
48208W        W13435  33.382  43.031  12.352
48209W        W13436  39.860  37.481   2.831
48210W        W13437  34.867  24.435   2.718
48211W        W13438  13.865   9.782  12.201
48212W        W13439   3.390  27.099  14.684
48213W        W13440  26.422  39.515  12.494
48214W        W13441  40.099  16.348  11.477
48215W        W13442   9.739  33.262  10.684
48216W        W13443   8.150  36.414  10.503
48217W        W13444  33.071  41.807  11.631
48218W        W13445   5.614   1.491   5.067
48219W        W13446  39.905   0.011   3.648
48220W        W13447  19.236  25.428   3.582
48221W        W13448  41.344   0.212  14.358
48222W        W13449   9.704  44.254  14.393
48223W        W13450   5.965  11.826  12.365
48224W        W13451  39.711  38.415  12.103
48225W        W13452  22.065  17.961   0.058
48226W        W13453  21.626  13.040  13.444
48227W        W13454  19.275  30.077  10.675
48228W        W13455  26.368  20.779  12.479
48229W        W13456   5.689  44.623  10.577
48230W        W13457  40.493  16.776   3.271
48231W        W13458  17.793   2.066  13.736
48232W        W13459  11.550  18.292  11.217
48233W        W13460   7.470   4.807   1.518
48234W        W13461  19.811   1.714  12.001
48235W        W13462  40.928  24.957  12.544
48236W        W13463  34.866  21.710  13.806
48237W        W13464   6.700   4.779   4.147
48238W        W13465  27.223  16.868   2.331
48239W        W13466  28.568  26.882   2.609
48240W        W13467  32.448  21.386  10.270
48241W        W13468  23.246  40.871  12.909
48242W        W13469  34.862  40.891  11.494
48243W        W13470   8.181  27.971  11.196
48244W        W13471   8.032  21.084   1.995
48245W        W13472  14.249   4.818  12.591
48246W        W13473  43.275  28.124  13.354
48247W        W13474   2.511  44.602   3.142
48248W        W13475  33.192   7.651  13.200
48249W        W13476   5.427  14.262  12.957
48250W        W13477  29.846   5.679   2.674
48251W        W13478  13.795  34.873   2.449
48252W        W13479   0.507   5.395  11.946
48253W        W13480  38.912  30.619   3.636
48254W        W13481  31.864  36.018  14.506
48255W        W13482  13.303   4.786  13.027
48256W        W13483  35.970   8.154   3.684
48257W        W13484  16.017  33.606   4.957
48258W        W13485  42.113   6.561   3.730
48259W        W13486   4.350  10.400   3.271
48260W        W13487  18.294  14.380  11.133
48261W        W13488  17.579  13.697   1.324
48262W        W13489   6.260  23.963   3.416
48263W        W13490   3.287  21.339  14.004
48264W        W13491  27.501  42.572  12.534
48265W        W13492  20.561  35.999   1.252
48266W        W13493  39.955  42.183   4.165
48267W        W13494   0.382  16.779   2.427
48268W        W13495  17.638  11.273  14.882
48269W        W13496  16.931  13.211  13.454
48270W        W13497   5.876   7.869  10.643
48271W        W13498  27.234  42.586  12.079
48272W        W13499  20.239  40.583  11.681
48273W        W13500  28.645   6.143   4.633
48274W        W13501  16.886  36.878   2.373
48275W        W13502  28.722  16.844  12.498
48276W        W13503  18.759  30.063   1.864
48277W        W13504  44.850  23.545   3.500
48278W        W13505  31.646  19.150   0.377
48279W        W13506  30.875  24.032  10.863
48280W        W13507   3.740  26.535  11.272
48281W        W13508  16.684  41.240   1.645
48282W        W13509  32.156  43.001   4.653
48283W        W13510  29.038  36.575   0.913
48284W        W13511  43.789  37.241   1.706
48285W        W13512  32.173  33.579   4.034
48286W        W13513  43.716  19.020   3.762
48287W        W13514  42.104   5.357  12.904
48288W        W13515   4.894  18.731   3.761
48289W        W13516  29.656  17.478  11.043
48290W        W13517  35.441  32.378  14.948
48291W        W13518  42.064  14.322  14.422
48292W        W13519  17.112  28.686  12.086
48293W        W13520   6.707  35.440  10.980
48294W        W13521  20.565  13.379  11.093
48295W        W13522  11.343   6.654  11.073
48296W        W13523  18.072  23.259  14.912
48297W        W13524  43.977  42.501  10.415
48298W        W13525  14.913  12.378  12.837
48299W        W13526   6.847   2.374   1.251
48300W        W13527  22.631  11.789  10.757
48301W        W13528  35.145   2.821   3.792
48302W        W13529  34.913  30.366   3.230
48303W        W13530  26.918  21.559  10.540
48304W        W13531  11.365   2.668  13.423
48305W        W13532   5.087  28.099   4.494
48306W        W13533  34.581   2.895   1.393
48307W        W13534  13.820  16.237  11.572
48308W        W13535  41.871  18.326  13.494
48309W        W13536  34.399  17.598   2.231
48310W        W13537  36.819  37.370  11.895
48311W        W13538   4.949  19.995   0.328
48312W        W13539   6.234  24.590   0.654
48313W        W13540  34.411  24.737   2.612
48314W        W13541   0.233   8.720   2.027
48315W        W13542  33.596  40.096  14.197
48316W        W13543  17.509  32.172  10.577
48317W        W13544  42.464  28.372   1.697
48318W        W13545   6.272  21.076   3.594
48319W        W13546  24.506  35.177  10.876
48320W        W13547   3.442  40.956  10.377
48321W        W13548  14.744  43.017  11.769
48322W        W13549   9.826  43.675  11.703
48323W        W13550  21.424  29.006  13.499
48324W        W13551  19.737  41.722  10.866
48325W        W13552  41.816  16.400  11.677
48326W        W13553  36.884  17.263   3.126
48327W        W13554  27.720   0.699   1.613
48328W        W13555  38.787  40.080  13.878
48329W        W13556  38.327  32.800   4.044
48330W        W13557  40.548  21.741  10.890
48331W        W13558  17.133  41.188  11.210
48332W        W13559  23.358  18.544   4.112
48333W        W13560  39.528   0.620  14.409
48334W        W13561  42.743  35.407  13.082
48335W        W13562  33.615  12.549  10.807
48336W        W13563  12.655  35.570   1.465
48337W        W13564  22.399  19.601   4.606
48338W        W13565  23.180  43.914   9.942
48339W        W13566  14.770  19.324  13.906
48340W        W13567  12.107  18.225   1.189
48341W        W13568  14.923  10.264   1.006
48342W        W13569   6.726  17.645   0.890
48343W        W13570  26.814   7.340   9.951
48344W        W13571  17.734  12.639  13.775
48345W        W13572  43.377  44.667  14.854
48346W        W13573   4.187  31.076   2.154
48347W        W13574  40.425   7.449   4.459
48348W        W13575  17.339  22.070   2.072
48349W        W13576  24.695   0.844  13.037
48350W        W13577  16.628  12.668  11.406
48351W        W13578  23.482  32.646  14.301
48352W        W13579  36.643  29.104   2.211
48353W        W13580  33.604  40.030   2.112
48354W        W13581  36.881  33.207   2.355
48355W        W13582  29.465   4.151   4.596
48356W        W13583  28.523   6.805  10.504
48357W        W13584  18.144  15.632   0.830
48358W        W13585  38.154  15.263  11.993
48359W        W13586  33.667  18.476  12.468
48360W        W13587  38.448  27.567   0.699
48361W        W13588   1.839  19.017   0.800
48362W        W13589  19.761   6.783   1.264
48363W        W13590  40.481  39.859   1.052
48364W        W13591   3.068   3.355  10.983
48365W        W13592  19.240   3.712   0.673
48366W        W13593  12.795   1.238  10.797
48367W        W13594  16.795  10.694   1.648
48368W        W13595   1.249  33.950   1.967
48369W        W13596  32.521  42.908   1.514
48370W        W13597  30.179  31.164  12.399
48371W        W13598  16.122  28.054   3.993
48372W        W13599  12.095  43.295  12.788
48373W        W13600  16.941  36.971   1.396
48374W        W13601  40.383  41.335  14.913
48375W        W13602   7.879   3.717   2.595
48376W        W13603  18.782  15.719   1.260
48377W        W13604  23.230  11.704   0.927
48378W        W13605  32.326  10.735  11.670
48379W        W13606  35.786   4.254   0.196
48380W        W13607   6.275  44.006   4.663
48381W        W13608   2.676  39.987  12.210
48382W        W13609  20.789  41.580   2.789
48383W        W13610  33.895   6.691  11.470
48384W        W13611   9.560  15.587  12.577
48385W        W13612   5.880   9.836   3.228
48386W        W13613  35.567  12.534  14.382
48387W        W13614  15.024  20.789   3.562
48388W        W13615  22.821  11.688   0.609
48389W        W13616  11.297  43.224  12.506
48390W        W13617  43.904  12.129  14.242
48391W        W13618  12.655  19.510   3.358
48392W        W13619  15.282  25.416   3.003
48393W        W13620   3.221  13.703  12.021
48394W        W13621  32.584   4.730  11.963
48395W        W13622  15.845  30.151  11.712
48396W        W13623  19.810  34.468  11.605
48397W        W13624  32.891  22.104  11.553
48398W        W13625  39.506  24.027   1.116
48399W        W13626  43.980  29.562   3.146
48400W        W13627  21.276  22.409   1.632
48401W        W13628  20.601  34.111  12.491
48402W        W13629  37.845   4.911  11.589
48403W        W13630   0.802  33.634   4.988
48404W        W13631  15.792  24.020   4.177
48405W        W13632  17.118  17.429  11.174
48406W        W13633  31.235   1.058  13.236
48407W        W13634  23.246   9.828  13.880
48408W        W13635  27.575  18.115   3.199
48409W        W13636  17.400  39.315   3.265
48410W        W13637  11.793  10.655  12.048
48411W        W13638  20.033  28.895  12.379
48412W        W13639  41.289  27.130  12.365
48413W        W13640  12.582  37.876   3.654
48414W        W13641  14.288   1.884   2.782
48415W        W13642  25.247   0.630  12.206
48416W        W13643  43.243  35.681   2.863
48417W        W13644  29.801  19.148  14.367
48418W        W13645  11.801  41.527   2.376
48419W        W13646  38.698  13.173   3.429
48420W        W13647   7.144  38.836   0.458
48421W        W13648  18.515  18.055   4.098
48422W        W13649  10.348   6.140   5.170
48423W        W13650  43.986  23.266  14.355
48424W        W13651  18.841  39.867  13.429
48425W        W13652   9.652  28.536  12.082
48426W        W13653   5.335  11.064   0.878
48427W        W13654  26.695  16.328  14.981
48428W        W13655  24.042  31.666   3.138
48429W        W13656  33.430  11.796  13.532
48430W        W13657  29.470  42.328  11.981
48431W        W13658  14.539  12.778  12.993
48432W        W13659  27.620  10.590   0.222
48433W        W13660   8.327   5.762   2.460
48434W        W13661  40.042  20.215  14.294
48435W        W13662  30.589   8.840   2.702
48436W        W13663  17.611   1.793   1.818
48437W        W13664  33.464   0.860  13.853
48438W        W13665   6.833  28.206  12.418
48439W        W13666  25.574  36.164   3.747
48440W        W13667  39.915   9.919  11.644
48441W        W13668  41.420  18.145  14.308
48442W        W13669  42.645   0.731   3.305
48443W        W13670  28.224  27.052  14.473
48444W        W13671  27.154  16.399  14.760
48445W        W13672  18.388  43.056   4.114
48446W        W13673  38.742  41.443   1.460
48447W        W13674   1.743  12.760   0.295
48448W        W13675   4.159  15.565   4.372
48449W        W13676   6.670  32.518  14.386
48450W        W13677   7.660   3.955   0.338
48451W        W13678  20.124  26.066  11.469
48452W        W13679  21.206  41.005   0.525
48453W        W13680  14.426  40.888   0.308
48454W        W13681  35.797  30.966   1.679
48455W        W13682  35.589  36.013   3.084
48456W        W13683   3.612   1.437   5.513
48457W        W13684  31.739  43.488  13.942
48458W        W13685   9.804  33.936  13.861
48459W        W13686   5.244  10.453   1.693
48460W        W13687  29.752  37.553   3.600
48461W        W13688  39.009  35.565   2.627
48462W        W13689  42.531   9.261   2.819
48463W        W13690  38.092   4.431  12.870
48464W        W13691  14.742  27.105  14.012
48465W        W13692   3.134  39.347   1.392
48466W        W13693  14.231  36.342  11.191
48467W        W13694   8.598  42.599  10.561
48468W        W13695  35.337   6.070   0.721
48469W        W13696  25.030  19.186   4.326
48470W        W13697  14.252   0.641  10.876
48471W        W13698  30.015   0.057   0.352
48472W        W13699  18.273  40.385  13.834
48473W        W13700  37.341  29.044   1.541
48474W        W13701  26.722   4.044  10.754
48475W        W13702  37.881   6.171   2.304
48476W        W13703  29.053  37.327  12.115
48477W        W13704  12.137  40.682  10.284
48478W        W13705  11.250   6.815  13.135
48479W        W13706  11.717  26.682   1.179
48480W        W13707  16.078  36.919   2.909
48481W        W13708  32.343   2.303  13.376
48482W        W13709  27.988  31.497   2.730
48483W        W13710   1.019  33.329   1.293
48484W        W13711  18.162  30.651  10.665
48485W        W13712  27.943  37.777  11.598
48486W        W13713  32.372  17.294   0.690
48487W        W13714  29.436  36.246   0.981
48488W        W13715  40.743  43.888   2.848
48489W        W13716  42.507  22.118   3.638
48490W        W13717  10.939   6.404  13.366
48491W        W13718  21.666  19.166   0.265
48492W        W13719  32.953  37.675   0.410
48493W        W13720  14.199  36.174  12.499
48494W        W13721  13.328   8.584   1.745
48495W        W13722  40.352  10.488   2.351
48496W        W13723  39.014  23.107  12.336
48497W        W13724  41.843  20.517  13.556
48498W        W13725  42.266  22.702   2.293
48499W        W13726  36.377  42.034  14.870
48500W        W13727   6.883  40.915  14.845
48501W        W13728  26.786  14.913  13.660
48502W        W13729  14.311  12.003  13.885
48503W        W13730  27.608  36.427   0.722
48504W        W13731  32.066  28.198   0.360
48505W        W13732   9.862  29.813  12.460
48506W        W13733  44.788  20.363   3.224
48507W        W13734  29.167  10.994  11.924
48508W        W13735   2.641  35.638  10.759
48509W        W13736  34.704  36.193  13.928
48510W        W13737   6.754  30.208  12.675
48511W        W13738   8.227  44.686   3.856
48512W        W13739   2.525  36.556  10.643
48513W        W13740  23.359  20.312   1.589
48514W        W13741   9.814  44.757  14.370
48515W        W13742   7.030  37.377   4.475
48516W        W13743   0.568  34.877  13.457
48517W        W13744   7.800  22.961  10.657
48518W        W13745  12.668  26.695  13.889
48519W        W13746   8.068  44.262  12.616
48520W        W13747  15.571  31.552  14.341
48521W        W13748   4.276  22.094   3.141
48522W        W13749  18.259  25.283  14.074
48523W        W13750  35.967  27.079   1.024
48524W        W13751  37.788  20.723  12.834
48525W        W13752   4.726  13.331  14.875
48526W        W13753  23.623  32.994   1.181
48527W        W13754  18.491   3.463   1.814
48528W        W13755  39.528  12.309  11.576
48529W        W13756   7.341  27.212   3.682
48530W        W13757   6.544  30.712   1.290
48531W        W13758  39.130  27.095   1.380
48532W        W13759  21.576  38.680   4.218
48533W        W13760  11.115  14.222  13.430
48534W        W13761   9.162  32.341  11.441
48535W        W13762  36.533  12.676   4.691
48536W        W13763   3.791  27.926  13.019
48537W        W13764  30.954  20.594  13.976
48538W        W13765   2.962  16.310  14.170
48539W        W13766  11.127   7.736  12.954
48540W        W13767  40.340  30.755   4.159
48541W        W13768  22.694   2.050   2.248
48542W        W13769  38.880   3.346   0.515
48543W        W13770  28.949  42.328  14.959
48544W        W13771  44.782  44.383   0.290
48545W        W13772   6.045  25.585   3.245
48546W        W13773  12.781  44.490  11.524
48547W        W13774  37.457  20.124   0.852
48548W        W13775  23.518  43.491   1.752
48549W        W13776  32.209  16.827   4.473
48550W        W13777  38.464   7.954   0.702
48551W        W13778  35.232  31.338  12.008
48552W        W13779  40.851  28.693  13.499
48553W        W13780  10.055  34.486   4.149
48554W        W13781   2.146  17.805  14.380
48555W        W13782  41.520  16.420  12.114
48556W        W13783  32.450  18.686  11.209
48557W        W13784  26.245  39.765  13.982
48558W        W13785  44.419   7.923   4.055
48559W        W13786  26.764  44.970   2.755
48560W        W13787   7.696  42.017  13.292
48561W        W13788  19.554   0.542   1.029
48562W        W13789  18.409  41.261   2.794
48563W        W13790  15.847  35.848   3.583
48564W        W13791  35.335   3.337   0.295
48565W        W13792  39.478  32.999  13.536
48566W        W13793  40.183  21.223   1.237
48567W        W13794  38.954   4.279  12.391
48568W        W13795  22.358  43.027   4.998
48569W        W13796  35.884  16.702  13.313
48570W        W13797  21.948  25.961  11.218
48571W        W13798  18.993  31.053   3.339
48572W        W13799  22.639  20.125   0.273
48573W        W13800  34.510  12.733   0.542
48574W        W13801  42.493  36.179   1.967
48575W        W13802   4.470  18.638  13.740
48576W        W13803  18.630  34.869  12.878
48577W        W13804   9.476  11.893   1.383
48578W        W13805   3.388  44.776   5.384
48579W        W13806  35.056   8.582   4.988
48580W        W13807   7.805  20.688  11.440
48581W        W13808  25.730   4.859  14.342
48582W        W13809  16.653  41.016  14.846
48583W        W13810  24.675  43.430  10.421
48584W        W13811  19.915  39.781   1.752
48585W        W13812  41.860  12.681   1.772
48586W        W13813  39.926  12.718  10.895
48587W        W13814  41.586  11.232  13.377
48588W        W13815   6.620  16.358   0.473
48589W        W13816   4.361   6.609   0.665
48590W        W13817  13.918  21.223  12.384
48591W        W13818  28.384   7.771   4.138
48592W        W13819  18.011  10.413  11.546
48593W        W13820  35.892  32.639  10.963
48594W        W13821  16.139  29.071   2.830
48595W        W13822  22.455  20.606  12.201
48596W        W13823   0.298  20.514   1.182
48597W        W13824  13.510   2.626   1.325
48598W        W13825  22.206   4.219   0.343
48599W        W13826   2.527   3.021  13.144
48600W        W13827  40.819  27.530   3.260
48601W        W13828  27.095  37.054   3.405
48602W        W13829  37.722  15.237  14.879
48603W        W13830  12.873  18.928  12.567
48604W        W13831  22.952  41.023   4.614
48605W        W13832  36.707   2.007  13.518
48606W        W13833   6.053  20.511  13.164
48607W        W13834   4.187  19.600   1.681
48608W        W13835  20.138  29.365   0.497
48609W        W13836  19.550   8.289   3.911
48610W        W13837  34.877  42.017   5.032
48611W        W13838  21.940   5.869   0.782
48612W        W13839  16.610  33.556  13.818
48613W        W13840  11.680  26.553  13.896
48614W        W13841  39.835  26.550  12.438
48615W        W13842  41.993  24.572  11.204
48616W        W13843  10.085  29.593   1.632
48617W        W13844  37.864   7.618  14.485
48618W        W13845  36.332   6.510  14.180
48619W        W13846  19.309  27.385  11.536
48620W        W13847  12.564   0.495   0.931
48621W        W13848  24.048  37.788  12.016
48622W        W13849  19.730  37.126   2.408
48623W        W13850  23.984  22.125   1.789
48624W        W13851  17.841   8.619   1.651
48625W        W13852  44.376  28.597  11.964
48626W        W13853  32.726   8.892  14.064
48627W        W13854  11.657  36.397  10.472
48628W        W13855  34.889  27.175  14.970
48629W        W13856   7.737  15.002  11.156
48630W        W13857  35.502  34.227   4.320
48631W        W13858  40.003  33.363   3.528
48632W        W13859  25.500   1.397   3.056
48633W        W13860  20.244  25.574  10.688
48634W        W13861  15.622  38.473  11.637
48635W        W13862  30.885  15.854   1.766
48636W        W13863  20.762  40.798  14.761
48637W        W13864  43.765  43.565  13.045
48638W        W13865  18.244  34.611   4.586
48639W        W13866  38.818   0.218   4.349
48640W        W13867  14.645  29.628  12.616
48641W        W13868  19.184  26.871   2.669
48642W        W13869  28.053  26.175  11.434
48643W        W13870  33.077   3.596   4.962
48644W        W13871  24.492   8.833   3.863
48645W        W13872  42.878  44.501   9.808
48646W        W13873  20.045  32.425   3.548
48647W        W13874   9.563  21.638  14.262
48648W        W13875   6.741  36.655  13.347
48649W        W13876  37.573   3.214  13.837
48650W        W13877  44.415  37.835   3.178
48651W        W13878   1.803  36.331  11.050
48652W        W13879  32.362   0.464   1.721
48653W        W13880  37.299   9.396  11.515
48654W        W13881  34.946  14.058  14.796
48655W        W13882  19.116   0.487  13.365
48656W        W13883   4.494  19.586   1.276
48657W        W13884   5.507   9.276  11.614
48658W        W13885   4.459  40.652   0.909
48659W        W13886  29.773  40.497  11.933
48660W        W13887  35.923  27.119  10.844
48661W        W13888  28.476  27.509  14.329
48662W        W13889  29.386   0.429  12.956
48663W        W13890  29.086  22.639   0.549
48664W        W13891   4.184  20.317   0.834
48665W        W13892  28.583  22.866  11.228
48666W        W13893  33.197  15.821   3.896
48667W        W13894   9.325   0.922   1.813
48668W        W13895  41.403  24.054  11.645
48669W        W13896  21.240  44.767  13.042
48670W        W13897  36.884  38.882  14.841
48671W        W13898  37.570  28.510  12.221
48672W        W13899  12.027   5.657   0.156
48673W        W13900   6.454   0.798   1.834
48674W        W13901  21.479   9.397  11.943
48675W        W13902   2.109  42.070   1.400
48676W        W13903  12.085   8.172  12.899
48677W        W13904  43.005  34.409   3.100
48678W        W13905  26.796  15.403  12.901
48679W        W13906  26.506  39.046   4.027
48680W        W13907  28.443  25.153   4.437
48681W        W13908  11.923  13.189  13.605
48682W        W13909  12.359  13.504  12.092
48683W        W13910  36.044  12.773  10.800
48684W        W13911  24.528   8.368   2.152
48685W        W13912  37.576  27.170   0.225
48686W        W13913   7.375  19.420  11.829
48687W        W13914  21.101  34.456  12.092
48688W        W13915  22.511  19.076   4.634
48689W        W13916   9.369  10.064  10.986
48690W        W13917  38.919  26.712  14.520
48691W        W13918  33.515  28.444  11.552
48692W        W13919  27.069  14.911   1.322
48693W        W13920   7.172  43.299  12.807
48694W        W13921  39.018  43.252   3.298
48695W        W13922  44.091  19.375  14.540
48696W        W13923  33.136  22.983  12.535
48697W        W13924   2.405   8.226   2.259
48698W        W13925  12.648   4.012  13.615
48699W        W13926  26.562  44.501   4.163
48700W        W13927  32.368  16.366   1.659
48701W        W13928   6.233  10.692   3.271
48702W        W13929  32.139   0.874   3.402
48703W        W13930  18.132  28.166  10.940
48704W        W13931   1.753  29.418  13.162
48705W        W13932  27.743   7.390   0.024
48706W        W13933  28.304  34.133   3.409
48707W        W13934   6.395   2.497  10.656
48708W        W13935  13.781  20.170   3.298
48709W        W13936  33.672  41.032   2.252
48710W        W13937  13.126   9.141  13.939
48711W        W13938  12.335  11.256   0.126
48712W        W13939  10.274   5.863  13.587
48713W        W13940  36.217  38.528   0.847
48714W        W13941  15.389  24.575   0.809
48715W        W13942   4.897  39.812   0.945
48716W        W13943   0.877  39.794  12.395
48717W        W13944   7.804  36.157  14.039
48718W        W13945  44.721   5.834  14.510
48719W        W13946   2.173  20.603  11.387
48720W        W13947   9.347  15.610   1.941
48721W        W13948   0.824  26.281   4.286
48722W        W13949  16.267  39.121  13.125
48723W        W13950  39.575   4.712   1.808
48724W        W13951  24.217  42.281   0.884
48725W        W13952  42.812   6.853   1.402
48726W        W13953   3.305   7.334   3.151
48727W        W13954  39.279  14.542  14.345
48728W        W13955   6.028   6.525  11.132
48729W        W13956  26.329  15.674   2.344
48730W        W13957  21.022  22.996  13.555
48731W        W13958  14.837  32.020   1.932
48732W        W13959  10.777   5.834   0.242
48733W        W13960  43.460  21.678   3.646
48734W        W13961   0.046   9.234   2.403
48735W        W13962  12.558  36.429  11.645
48736W        W13963  17.841  44.354   1.887
48737W        W13964  35.006   7.879   0.893
48738W        W13965  28.447  10.619   4.583
48739W        W13966   3.484   7.215  13.485
48740W        W13967   3.801  10.321   2.828
48741W        W13968  38.813   7.401   3.477
48742W        W13969  35.648   7.957   3.297
48743W        W13970  22.575  27.171   2.318
48744W        W13971  44.945  39.519  14.863
48745W        W13972   9.331  40.981   2.683
48746W        W13973  23.052  41.693  13.039
48747W        W13974   0.508   5.845   4.769
48748W        W13975   2.492  21.500  14.515
48749W        W13976  28.898   7.669   0.001
48750W        W13977   1.871  28.739  11.485
48751W        W13978  13.249  10.736   1.756
48752W        W13979  31.266  29.936  12.562
48753W        W13980  32.322   2.455   2.339
48754W        W13981   5.517  34.516   5.221
48755W        W13982  24.881  34.120   2.852
48756W        W13983  10.866  25.742  11.045
48757W        W13984  27.220  38.108  14.739
48758W        W13985  43.112  15.583   3.051
48759W        W13986  44.969  25.753   2.756
48760W        W13987   8.607  36.947  14.665
48761W        W13988   0.923  36.892   2.110
48762W        W13989  28.620  17.687   4.678
48763W        W13990  21.757  35.771  13.191
48764W        W13991  23.513  35.554  10.705
48765W        W13992  29.107  31.085  12.538
48766W        W13993  37.447  34.878  12.505
48767W        W13994  14.808  43.514  14.473
48768W        W13995   4.309  24.388  11.697
48769W        W13996  44.592  34.657  13.811
48770W        W13997  21.596   4.919   0.274
48771W        W13998  14.892  41.960   2.833
48772W        W13999   2.278  42.757  14.048
48773W        W14000  36.404  25.170   3.293
48774W        W14001   2.942  37.444  12.972
48775W        W14002   4.799   4.829   2.357
48776W        W14003   3.181   3.331   0.427
48777W        W14004  23.656   1.251   1.325
48778W        W14005  40.045  32.484   3.800
48779W        W14006   6.193   9.203   0.969
48780W        W14007  24.248   2.130   2.194
48781W        W14008  28.967  22.564  11.073
48782W        W14009   5.141  35.254  12.977
48783W        W14010  44.479  27.208  13.184
48784W        W14011  20.334  39.390  10.208
48785W        W14012  16.275   3.132   2.227
48786W        W14013   5.370  17.741   1.905
48787W        W14014  43.242  18.004   0.044
48788W        W14015  43.304  23.760   5.356
48789W        W14016  26.918  15.021   3.039
48790W        W14017  19.483  28.262   4.615
48791W        W14018  33.841  19.536  12.952
48792W        W14019  40.022  10.275   4.348
48793W        W14020  44.954  37.852   4.333
48794W        W14021  37.785  38.427   3.335
48795W        W14022  27.909  27.225  12.434
48796W        W14023  30.867  41.263   3.163
48797W        W14024  13.869  18.212   2.125
48798W        W14025  30.534  19.895  12.013
48799W        W14026  14.371  27.106   3.943
48800W        W14027  24.962  22.789   4.375
48801W        W14028  22.052  17.154  14.741
48802W        W14029   9.121  35.082   4.578
48803W        W14030   6.587   4.329  11.605
48804W        W14031  14.702  28.661  12.675
48805W        W14032  22.760   9.719   1.929
48806W        W14033  33.504  33.974  13.776
48807W        W14034  12.800  16.108  11.645
48808W        W14035  43.908  20.502   0.313
48809W        W14036  27.423  40.286   4.087
48810W        W14037  23.524  27.187  14.530
48811W        W14038  38.915  25.262  13.022
48812W        W14039  11.145  29.234  11.376
48813W        W14040   3.955  36.518   3.663
48814W        W14041  28.063  38.238   1.199
48815W        W14042  21.117  22.705  12.933
48816W        W14043  13.286  39.328  14.753
48817W        W14044   6.453  16.157  12.131
48818W        W14045   9.670  38.875   4.722
48819W        W14046  31.872  23.201   3.145
48820W        W14047   0.366  17.629   4.359
48821W        W14048   2.004   5.770   2.144
48822W        W14049  34.881  23.470   1.147
48823W        W14050  32.043  30.019   2.830
48824W        W14051  16.236  23.193   0.084
48825W        W14052   2.179   2.862   0.407
48826W        W14053  34.230   9.250  12.605
48827W        W14054  29.770  11.120  11.661
48828W        W14055  40.507  10.294   1.892
48829W        W14056   1.256   0.094   3.623
48830W        W14057   3.199   0.229  14.774
48831W        W14058   5.833   4.234  13.190
48832W        W14059  41.597  29.520  12.767
48833W        W14060  11.667  39.819  13.863
48834W        W14061   1.663  29.442   4.544
48835W        W14062  34.885  36.111   1.621
48836W        W14063   1.321  25.570  11.194
48837W        W14064  41.517   3.064  14.820
48838W        W14065  27.968   4.294   2.664
48839W        W14066  16.330   8.768   0.445
48840W        W14067  37.825  15.218   4.898
48841W        W14068  10.644  36.979  11.600
48842W        W14069  38.185  40.404   3.617
48843W        W14070  43.185  26.639   2.739
48844W        W14071   4.780  16.318   1.952
48845W        W14072   2.047  24.715   2.439
48846W        W14073  39.526   0.917   0.286
48847W        W14074   2.539  23.788  13.494
48848W        W14075   9.340   4.810   4.589
48849W        W14076   0.341  26.561   1.909
48850W        W14077  37.921  12.702   0.636
48851W        W14078  34.952  29.496  12.070
48852W        W14079  25.619  37.431  10.697
48853W        W14080  21.241  39.415   9.964
48854W        W14081  41.035  25.421   1.453
48855W        W14082   1.452  16.571   3.361
48856W        W14083  44.941  43.767   0.705
48857W        W14084  29.306  36.574  14.165
48858W        W14085   8.131  33.875  11.491
48859W        W14086  40.079   4.831   3.668
48860W        W14087  40.453   0.667  13.860
48861W        W14088  33.969  14.302   3.107
48862W        W14089  42.588  38.549   2.307
48863W        W14090  14.848  27.837  13.389
48864W        W14091  41.878  21.108   0.392
48865W        W14092   4.437  23.103  10.987
48866W        W14093   5.257  43.984   2.117
48867W        W14094  16.249  10.867  11.604
48868W        W14095   6.978  43.000  13.185
48869W        W14096  14.251  23.697  11.612
48870W        W14097  26.123  32.888   1.260
48871W        W14098  11.249  14.161   3.132
48872W        W14099  32.024  10.327  14.372
48873W        W14100  42.409  17.814  11.121
48874W        W14101  30.222  22.238  13.754
48875W        W14102  12.473  11.766  14.920
48876W        W14103   6.794  44.525   0.071
48877W        W14104  13.621   2.778  11.265
48878W        W14105  16.764  14.513  10.733
48879W        W14106  39.008  16.633  10.619
48880W        W14107  37.416  16.011   2.237
48881W        W14108  39.829   3.929  11.300
48882W        W14109  23.232  13.288  13.883
48883W        W14110  37.351   0.428  11.621
48884W        W14111  19.023  41.356   1.188
48885W        W14112  37.478  35.986   4.381
48886W        W14113  33.104  21.052  11.178
48887W        W14114  41.924  33.774  14.175
48888W        W14115  21.451  10.912   2.319
48889W        W14116  36.480  25.598   0.919
48890W        W14117  40.992  17.614  12.450
48891W        W14118  20.713  38.094  13.000
48892W        W14119  17.119  29.114   0.224
48893W        W14120  10.411  10.190  13.042
48894W        W14121   0.242   7.892   0.778
48895W        W14122  28.684   6.940  14.464
48896W        W14123  43.844  36.867  14.925
48897W        W14124  17.517  25.507   2.477
48898W        W14125  15.256  24.492  11.839
48899W        W14126  21.736   6.951   4.609
48900W        W14127  24.691   0.829   0.448
48901W        W14128   8.185  25.875  12.854
48902W        W14129  40.817  20.141   2.345
48903W        W14130  36.886  13.589  11.151
48904W        W14131  25.264   2.313   1.033
48905W        W14132  23.991  40.310   4.375
48906W        W14133  37.298   6.705  14.413
48907W        W14134  17.246  43.758   2.578
48908W        W14135  21.658  41.488  11.660
48909W        W14136  22.389   4.947  11.251
48910W        W14137  10.567   2.444  14.898
48911W        W14138  12.803   0.846  13.193
48912W        W14139  31.947   8.408   1.431
48913W        W14140  35.142  41.429  11.742
48914W        W14141  35.457  26.403  14.921
48915W        W14142  26.591  28.191  14.355
48916W        W14143   3.363  18.451  13.426
48917W        W14144  21.645  13.903  13.017
48918W        W14145  21.115  33.463  14.230
48919W        W14146  18.681  19.853  10.914
48920W        W14147  28.602  14.108   2.812
48921W        W14148  13.839   2.298   3.339
48922W        W14149  26.209  15.746  11.659
48923W        W14150  42.028  42.885   4.207
48924W        W14151  32.906  34.630  13.923
48925W        W14152  31.192  12.274  13.430
48926W        W14153  37.852  31.600  13.328
48927W        W14154   9.403  21.507   2.534
48928W        W14155  31.052  25.374  10.955
48929W        W14156  35.421  36.072   0.405
48930W        W14157  17.992  26.145   5.295
48931W        W14158  44.361  13.277  14.184
48932W        W14159  20.236  12.422   3.589
48933W        W14160  38.024  31.079  10.764
48934W        W14161  19.304   4.642   3.772
48935W        W14162   4.615  26.802  10.224
48936W        W14163  32.092  40.568   0.857
48937W        W14164  36.386  36.326  14.092
48938W        W14165  17.226   2.375   2.637
48939W        W14166  10.662  14.741  13.973
48940W        W14167  23.819  38.495  12.649
48941W        W14168  20.184  37.870  11.103
48942W        W14169  30.605  42.283   1.651
48943W        W14170  33.095  41.303   0.375
48944W        W14171  12.908   2.201  14.024
48945W        W14172   0.680  30.748   4.971
48946W        W14173   5.852  41.993   3.667
48947W        W14174  41.398  22.301   4.488
48948W        W14175  41.735  27.597  10.774
48949W        W14176  12.662  23.607   4.482
48950W        W14177   6.791  23.030   4.806
48951W        W14178  37.794  34.975  14.380
48952W        W14179  13.805  14.899  11.214
48953W        W14180  24.401   1.922   0.961
48954W        W14181  31.060  18.708   1.458
48955W        W14182  16.598  26.594  11.637
48956W        W14183  43.424  14.542  12.457
48957W        W14184  17.374  18.899   2.447
48958W        W14185  14.986  22.216  12.629
48959W        W14186  29.435  38.270  10.976
48960W        W14187  21.271  19.420  11.736
48961W        W14188  21.483  27.454  13.200
48962W        W14189  38.829  31.225   2.299
48963W        W14190  22.175  22.126   1.087
48964W        W14191  38.241  39.519  13.179
48965W        W14192   0.329   4.513  12.366
48966W        W14193  31.627   5.299  13.561
48967W        W14194  23.176  12.886  14.707
48968W        W14195  16.734  16.683   3.926
48969W        W14196  22.474  25.242   3.167
48970W        W14197   0.269  11.338   0.718
48971W        W14198  20.744  19.744   2.626
48972W        W14199  34.264  20.464   1.187
48973W        W14200   9.714  32.705   2.841
48974W        W14201  30.591   7.397  12.588
48975W        W14202   1.216  19.085  13.913
48976W        W14203  21.910  44.332   4.426
48977W        W14204  24.443   3.330  11.645
48978W        W14205  19.347  34.570   3.212
48979W        W14206  19.186  12.396   1.512
48980W        W14207  10.241  25.487  10.091
48981W        W14208  24.055   4.572   0.166
48982W        W14209  13.272   6.681   0.718
48983W        W14210  33.469  32.453  12.051
48984W        W14211   7.848  31.013  14.581
48985W        W14212  13.252  16.282   0.439
48986W        W14213   0.800  41.815  14.423
48987W        W14214  24.818   3.915   3.275
48988W        W14215  15.184  32.134   3.289
48989W        W14216  29.567  22.695   5.070
48990W        W14217  14.517  41.216  10.212
48991W        W14218  36.337  13.674  13.028
48992W        W14219  13.815  25.081  13.653
48993W        W14220  16.052  43.449  13.275
48994W        W14221  33.246  32.033  12.211
48995W        W14222  36.641  15.996  14.911
48996W        W14223  14.603  15.446   0.844
48997W        W14224  34.131  18.998   1.395
48998W        W14225  13.815  33.692   2.277
48999W        W14226  14.405  34.618   3.241
49000W        W14227  10.189   7.335   3.193
49001W        W14228   1.261  33.130  10.798
49002W        W14229  10.162   4.810   1.160
49003W        W14230   5.396   3.431  14.643
49004W        W14231  32.705   5.978  12.386
49005W        W14232   6.607  25.468   4.369
49006W        W14233  41.021  27.137  14.788
49007W        W14234  34.040  26.003   0.950
49008W        W14235   7.630  16.966  13.400
49009W        W14236  41.682  17.700   3.378
49010W        W14237   6.769  24.789  11.286
49011W        W14238  34.573  34.460  12.162
49012W        W14239  14.421  35.345  12.520
49013W        W14240  44.754   8.856   2.225
49014W        W14241  32.036  43.281  11.632
49015W        W14242  43.707  27.069   9.820
49016W        W14243   5.345   4.132  13.327
49017W        W14244  11.720  11.969   1.229
49018W        W14245   8.371  42.791  13.543
49019W        W14246   6.793  38.544   0.947
49020W        W14247  32.148  33.071  14.809
49021W        W14248  40.325  19.666   2.706
49022W        W14249   1.926   8.679  14.787
49023W        W14250   7.431   7.642   4.583
49024W        W14251  39.734  42.572  14.615
49025W        W14252  11.164   3.248  12.438
49026W        W14253  23.200  11.424   1.385
49027W        W14254  33.390   4.903   1.423
49028W        W14255  13.305  14.274  10.760
49029W        W14256  18.585  43.486   0.968
49030W        W14257  43.929   3.684   0.345
49031W        W14258   6.044  35.677   2.787
49032W        W14259  21.763  34.587  11.233
49033W        W14260   8.416  14.474   4.575
49034W        W14261  25.429  34.437  11.599
49035W        W14262   6.576   9.368   4.884
49036W        W14263  40.496  30.695  11.971
49037W        W14264   5.884  37.353   2.468
49038W        W14265  16.097  16.579  10.536
49039W        W14266   4.499  22.399  11.499
49040W        W14267   3.505  25.893   4.422
49041W        W14268  28.613  32.484  11.862
49042W        W14269   4.226   1.375   3.607
49043W        W14270  12.767  10.612  12.085
49044W        W14271   5.258  40.376   4.979
49045W        W14272  43.026  27.675   1.368
49046W        W14273  38.579   8.349  13.000
49047W        W14274  40.285  43.732   0.358
49048W        W14275  16.635  31.852   1.804
49049W        W14276  14.721  39.530   3.391
49050W        W14277   1.507  25.513  10.715
49051W        W14278  18.155   2.610  12.155
49052W        W14279  13.801   0.753   1.693
49053W        W14280  19.695  11.386  13.999
49054W        W14281  11.732  14.314  10.631
49055W        W14282  15.677   0.661  12.424
49056W        W14283  11.834   2.919  12.702
49057W        W14284   7.473   1.470   2.718
49058W        W14285   7.785  25.640   0.070
49059W        W14286  14.307   6.414  12.899
49060W        W14287   2.956  35.486   2.170
49061W        W14288  43.412  16.568   0.300
49062W        W14289  38.856   1.681   3.682
49063W        W14290   8.414   5.525  10.767
49064W        W14291  16.147  42.029   0.255
49065W        W14292   8.580  28.723   2.149
49066W        W14293  17.632   4.771  12.517
49067W        W14294  18.006  22.672   0.254
49068W        W14295  40.862  12.639   2.660
49069W        W14296  33.075  31.184  11.687
49070W        W14297  17.308  30.622   1.385
49071W        W14298   6.900  18.611   0.004
49072W        W14299  12.588  32.555   0.718
49073W        W14300  37.625  21.518   1.816
49074W        W14301  25.547  38.852  13.078
49075W        W14302  21.274  15.754   1.166
49076W        W14303  27.489  16.069   3.172
49077W        W14304  20.656  23.236  10.739
49078W        W14305  34.486  33.565  10.918
49079W        W14306  17.830  11.871  12.547
49080W        W14307   1.124   4.219   4.884
49081W        W14308   1.335  21.089   2.584
49082W        W14309   8.705  34.937   1.681
49083W        W14310  21.934  40.365  12.166
49084W        W14311   8.758  32.465   3.217
49085W        W14312  38.283  26.166   0.424
49086W        W14313  39.255   1.452   3.051
49087W        W14314   6.936  25.608  12.041
49088W        W14315  28.374  28.432  14.863
49089W        W14316  18.645  15.707  12.435
49090W        W14317  19.669  34.289  10.787
49091W        W14318  30.675  30.522  11.089
49092W        W14319  28.105  19.497   2.096
49093W        W14320   4.321  12.441  11.582
49094W        W14321  34.495  23.647  12.184
49095W        W14322  20.712  23.485  13.463
49096W        W14323  29.061  11.380   0.780
49097W        W14324  38.456  29.861   3.618
49098W        W14325   0.748  14.361   4.351
49099W        W14326  25.942  40.934  14.037
49100W        W14327  19.588   3.787  13.621
49101W        W14328   3.499  24.126  13.841
49102W        W14329   0.499  24.628  12.906
49103W        W14330  42.385   9.692   4.370
49104W        W14331   8.232  31.200   2.394
49105W        W14332  44.871  16.084   2.267
49106W        W14333   1.061  29.946  11.863
49107W        W14334  17.592  22.864  11.733
49108W        W14335  30.496   2.429  14.275
49109W        W14336   7.318  36.967   4.285
49110W        W14337   8.314  29.044   4.556
49111W        W14338  42.871  43.950  14.792
49112W        W14339  26.216   8.644   2.095
49113W        W14340  43.948  13.335  13.898
49114W        W14341  28.207  37.573  14.924
49115W        W14342  19.118   5.843   2.762
49116W        W14343  30.130  43.384  12.457
49117W        W14344  12.629  12.515   3.267
49118W        W14345   3.379  13.337  14.431
49119W        W14346  31.778   8.063  12.708
49120W        W14347  29.183  29.102  12.092
49121W        W14348  41.520  25.631   2.786
49122W        W14349   1.218  26.566   1.754
49123W        W14350  41.972   4.254   1.711
49124W        W14351  19.058   2.632  13.494
49125W        W14352   7.890  44.885   1.823
49126W        W14353   5.389  37.043   4.153
49127W        W14354  11.707  30.011   2.358
49128W        W14355  25.973  25.186  14.445
49129W        W14356   4.831  36.654   1.418
49130W        W14357  28.843  12.360  14.009
49131W        W14358  25.328  14.386   0.808
49132W        W14359  32.663  41.012  14.630
49133W        W14360  19.602  16.183  13.798
49134W        W14361   7.653  32.885  12.469
49135W        W14362  18.342  19.827   4.559
49136W        W14363  16.151  36.280  11.188
49137W        W14364  11.384  42.391   2.437
49138W        W14365  29.519   0.871  13.977
49139W        W14366  33.382   3.317  14.908
49140W        W14367  38.741  18.123  12.206
49141W        W14368  33.101  28.971  12.916
49142W        W14369   3.513  10.914  13.844
49143W        W14370  35.840  42.351   0.292
49144W        W14371  41.497  22.601  12.867
49145W        W14372   7.370  17.243  12.546
49146W        W14373  29.886  24.011   3.200
49147W        W14374  38.763   1.918  14.225
49148W        W14375  27.775  25.606  13.364
49149W        W14376  21.686  24.867   3.378
49150W        W14377   5.697  34.459   1.691
49151W        W14378   8.737  42.916  10.171
49152W        W14379  11.364  38.867   3.650
49153W        W14380   8.000  25.114   5.035
49154W        W14381  35.120  39.409  10.219
49155W        W14382  44.340  24.003   1.245
49156W        W14383  26.201  36.098   4.563
49157W        W14384   4.476   9.398   4.664
49158W        W14385   1.713  12.602  12.014
49159W        W14386  23.791  23.286  12.847
49160W        W14387  31.522  30.075  13.004
49161W        W14388  35.035   0.169  12.190
49162W        W14389   2.501   8.340  13.407
49163W        W14390  16.275  32.214  12.370
49164W        W14391  27.715  41.355  14.864
49165W        W14392  24.429  30.988  13.641
49166W        W14393  13.420   8.747   9.862
49167W        W14394  43.790  17.826  13.476
49168W        W14395  17.346  41.195  12.569
49169W        W14396  21.527  37.575  13.412
49170W        W14397  13.709  38.904  12.351
49171W        W14398   4.534  27.620   1.285
49172W        W14399  41.448  37.867  13.320
49173W        W14400  41.454  44.926   4.190
49174W        W14401  11.607  12.688  14.286
49175W        W14402  16.499  32.172  14.224
49176W        W14403  40.053  32.889  13.590
49177W        W14404  43.922  32.632  14.380
49178W        W14405  16.569   5.471   4.619
49179W        W14406  15.047  13.056   2.063
49180W        W14407   2.298  35.265  10.701
49181W        W14408  16.888  12.505  13.958
49182W        W14409   3.916  22.892  11.049
49183W        W14410  23.117   5.198  11.553
49184W        W14411   7.979  12.608   4.176
49185W        W14412  44.749  12.345  11.964
49186W        W14413  38.938  31.742  10.818
49187W        W14414  16.534   1.984   3.653
49188W        W14415  37.263   0.489   0.340
49189W        W14416  32.442   5.192   2.680
49190W        W14417  29.310  32.046  10.271
49191W        W14418   5.412  39.074   0.810
49192W        W14419  12.816   4.811   2.461
49193W        W14420  21.397  40.224   3.811
49194W        W14421   5.704   0.274   1.710
49195W        W14422  39.573  43.032  13.111
49196W        W14423  32.760  40.114   2.566
49197W        W14424  14.636   3.493  13.377
49198W        W14425  24.778   7.739  14.982
49199W        W14426   1.987  37.972  12.034
49200W        W14427  34.572  41.000  14.600
49201W        W14428  30.052   8.736   1.840
49202W        W14429  36.566  19.101  13.470
49203W        W14430  21.254   7.673  12.881
49204W        W14431  20.531  20.120   1.180
49205W        W14432  24.912  15.839  11.148
49206W        W14433  38.014  19.478   0.964
49207W        W14434  38.101  38.585  13.498
49208W        W14435  40.537  43.839  11.123
49209W        W14436  10.105  38.550  12.157
49210W        W14437  23.481  39.118   4.089
49211W        W14438  34.377  22.171  10.555
49212W        W14439  11.790  16.461   1.004
49213W        W14440   6.132  20.769   4.700
49214W        W14441   7.487  35.093   0.775
49215W        W14442  27.994  40.880   1.489
49216W        W14443  30.661  12.318  13.474
49217W        W14444  39.718  33.081   0.832
49218W        W14445  14.709  16.291   3.111
49219W        W14446  41.986  19.137  10.654
49220W        W14447  17.214   1.440   3.020
49221W        W14448  15.932  28.537   4.203
49222W        W14449  37.025  17.038   0.322
49223W        W14450   0.470  18.540  12.938
49224W        W14451   3.896  13.715  11.570
49225W        W14452  21.060  29.492   2.987
49226W        W14453   2.645  19.289  14.930
49227W        W14454  26.015  16.167  10.921
49228W        W14455  44.189   4.360   2.128
49229W        W14456  30.409  12.075  14.883
49230W        W14457  26.023  36.776   0.486
49231W        W14458  32.666  34.595   1.788
49232W        W14459  27.943   3.271  13.999
49233W        W14460  30.507  36.812   3.054
49234W        W14461  26.099   8.223   3.989
49235W        W14462  21.212   4.361   0.754
49236W        W14463  25.973  37.568   9.756
49237W        W14464  19.728  30.695   1.962
49238W        W14465  38.501   4.446  12.539
49239W        W14466  39.455  42.356   3.288
49240W        W14467  10.743   4.314   4.661
49241W        W14468  28.791  16.275   5.061
49242W        W14469  18.980  35.537  12.912
49243W        W14470  35.110  17.799   1.728
49244W        W14471   2.281  44.234  12.118
49245W        W14472  30.563  31.845  12.693
49246W        W14473   1.377  40.075   4.036
49247W        W14474   4.501  32.121  12.097
49248W        W14475  34.957  20.454  13.816
49249W        W14476  21.477  23.769   0.150
49250W        W14477   9.164  11.209  12.110
49251W        W14478  43.236  24.941  12.379
49252W        W14479  43.239  24.194   3.078
49253W        W14480  24.066  12.581   1.687
49254W        W14481  22.447   9.441   3.788
49255W        W14482  41.823   3.838  13.459
49256W        W14483  19.455  21.440  13.577
49257W        W14484  24.463  19.257   0.796
49258W        W14485  34.055  13.691  12.442
49259W        W14486  37.152   5.502  11.232
49260W        W14487  44.136  15.188   1.732
49261W        W14488  32.229  26.950  12.606
49262W        W14489  39.702   5.310  11.779
49263W        W14490  37.832  26.104   3.694
49264W        W14491  40.873   4.409   1.698
49265W        W14492   2.335  37.291   3.311
49266W        W14493  22.709  31.360   3.879
49267W        W14494   4.337  31.914   2.884
49268W        W14495  28.106  36.058   2.219
49269W        W14496  29.237  12.568   1.661
49270W        W14497  30.093  22.392   3.117
49271W        W14498  20.832  41.476  11.144
49272W        W14499  17.795  30.457   4.798
49273W        W14500  30.621  41.247   3.605
49274W        W14501  33.998   1.313   4.530
49275W        W14502   6.885   5.683  12.026
49276W        W14503   4.844   2.664  12.146
49277W        W14504  44.421  19.419   2.330
49278W        W14505  16.481  28.836  11.103
49279W        W14506   6.103  38.389  12.071
49280W        W14507  20.631  22.928   0.076
49281W        W14508   1.897  30.517   0.986
49282W        W14509  33.178  40.072   1.828
49283W        W14510  16.163  27.621  13.449
49284W        W14511  37.964  15.140  10.890
49285W        W14512   7.826   4.418   3.312
49286W        W14513   4.736   2.724   4.598
49287W        W14514  16.077  35.438  11.533
49288W        W14515   2.904  33.917  14.261
49289W        W14516   3.542  27.765   3.097
49290W        W14517  12.407  26.502  12.177
49291W        W14518  33.753   8.719  14.199
49292W        W14519   2.939  20.542  14.126
49293W        W14520   7.099  29.400  11.203
49294W        W14521  15.238  38.364  14.490
49295W        W14522  10.117  41.273  13.263
49296W        W14523  14.274   2.798  12.441
49297W        W14524   2.538  12.028  12.924
49298W        W14525  29.369  25.183   1.719
49299W        W14526   2.385  34.762  14.541
49300W        W14527   4.195   0.322   3.907
49301W        W14528   4.128   5.758   0.268
49302W        W14529   5.631  21.152  11.545
49303W        W14530  24.138  40.067   2.690
49304W        W14531  33.918   2.870  14.301
49305W        W14532  10.248  28.644   2.808
49306W        W14533  15.258  38.852  13.824
49307W        W14534  36.659  42.262  11.711
49308W        W14535  25.539  33.322  14.933
49309W        W14536  43.834  13.736   4.332
49310W        W14537  11.604  28.518   0.291
49311W        W14538  12.374  44.073  11.544
49312W        W14539  12.120  34.930  11.984
49313W        W14540  33.915  34.337  14.899
49314W        W14541  28.152   5.962   3.198
49315W        W14542  17.589  43.764  11.721
49316W        W14543   4.875  35.538  14.270
49317W        W14544  40.992   6.442  11.255
49318W        W14545   0.670  30.013  10.927
49319W        W14546  23.054  18.864   1.800
49320W        W14547  37.458  32.610   2.608
49321W        W14548  20.331  31.487   1.661
49322W        W14549   4.416   9.847  12.879
49323W        W14550  25.888  15.396   3.163
49324W        W14551   4.749   4.882  13.827
49325W        W14552   7.366   0.890   4.336
49326W        W14553  35.942  17.781   1.734
49327W        W14554   7.974  39.546  10.908
49328W        W14555  34.931  23.008   0.541
49329W        W14556  29.365  16.949   1.447
49330W        W14557  29.558  35.969  14.975
49331W        W14558  31.940  18.594  11.214
49332W        W14559  18.688  16.584  11.947
49333W        W14560  35.083   3.984   0.407
49334W        W14561  44.423   4.908  13.273
49335W        W14562  11.739  15.320  14.759
49336W        W14563   2.137  10.048   4.255
49337W        W14564  28.493   7.088   2.400
49338W        W14565  11.863  39.831  13.375
49339W        W14566   0.458  40.009   4.226
49340W        W14567  42.451  23.965  14.371
49341W        W14568  35.492   8.008  13.103
49342W        W14569  43.705  15.078  12.403
49343W        W14570  43.669  18.614   1.053
49344W        W14571  36.590   0.776   1.325
49345W        W14572  40.973  38.585  10.637
49346W        W14573   7.416  30.154  14.446
49347W        W14574  41.966  31.108  12.563
49348W        W14575  31.326   3.850  14.987
49349W        W14576   8.401  31.854  13.821
49350W        W14577  27.669  24.576   0.110
49351W        W14578  35.077  33.625   1.441
49352W        W14579  29.200  38.929   1.699
49353W        W14580  28.672  35.400  11.949
49354W        W14581  20.589   9.671   2.294
49355W        W14582  38.464  29.915  11.387
49356W        W14583  14.883  31.426  12.180
49357W        W14584   2.976  37.369  14.489
49358W        W14585  35.426  11.729  14.910
49359W        W14586   4.790  30.247   1.781
49360W        W14587  39.576  21.127   3.288
49361W        W14588   5.453   7.499  12.930
49362W        W14589  34.867  44.779  13.966
49363W        W14590  26.672  25.719  14.906
49364W        W14591  38.327  19.495  14.625
49365W        W14592  35.497  43.702  14.969
49366W        W14593  42.597  18.646   0.297
49367W        W14594  34.349  41.517  13.115
49368W        W14595   0.909   3.639  14.437
49369W        W14596  33.911  31.623   2.728
49370W        W14597  43.721  21.179   0.921
49371W        W14598  42.502  23.732  13.029
49372W        W14599  40.904  13.681   1.459
49373W        W14600  42.706  39.601  13.599
49374W        W14601  11.338  44.897   1.786
49375W        W14602  40.281  32.732   2.195
49376W        W14603  18.325   3.892   0.847
49377W        W14604  44.464  29.533   3.261
49378W        W14605  43.567  22.840   4.396
49379W        W14606  36.077   6.301   1.844
49380W        W14607  13.332  42.937   5.025
49381W        W14608  17.255  40.483  13.841
49382W        W14609  22.925  38.833   0.709
49383W        W14610  43.241  33.831  14.406
49384W        W14611  29.044   4.038   2.379
49385W        W14612  33.296  12.650   0.274
49386W        W14613  11.748   8.355   4.712
49387W        W14614   5.773  20.793  12.350
49388W        W14615   4.803  25.139  11.842
49389W        W14616  42.100  23.184  12.249
49390W        W14617   0.601  36.487   0.962
49391W        W14618  33.166  24.677  11.161
49392W        W14619  29.144  12.794   9.908
49393W        W14620  37.613  14.893  11.135
49394W        W14621  29.443  16.711   3.668
49395W        W14622  11.438  23.990   1.751
49396W        W14623  23.221   9.310   2.603
49397W        W14624  34.046  20.119  14.121
49398W        W14625  25.188  42.599   4.482
49399W        W14626  27.078  34.473  14.937
49400W        W14627   1.428  44.716   1.308
49401W        W14628  20.770  14.742  13.292
49402W        W14629  17.317  21.515   0.320
49403W        W14630  39.592  34.464   2.665
49404W        W14631  11.792   9.420   0.859
49405W        W14632   7.253   0.385   4.545
49406W        W14633  13.388  29.627  11.359
49407W        W14634  10.184  33.652   0.801
49408W        W14635   3.218  18.253   3.834
49409W        W14636  24.629   5.914  13.595
49410W        W14637  37.494  33.984  13.027
49411W        W14638  42.164   7.680  12.568
49412W        W14639   1.882  27.885  13.947
49413W        W14640  37.308  26.224  13.990
49414W        W14641  10.462  44.324   4.996
49415W        W14642   5.788  33.053   1.076
49416W        W14643  21.976  38.567  12.044
49417W        W14644  32.966   4.737   4.538
49418W        W14645  44.565  13.617  12.118
49419W        W14646  12.643  43.979   4.636
49420W        W14647  40.703  42.604   0.904
49421W        W14648  18.240  41.613  12.009
49422W        W14649  14.181  20.930   1.057
49423W        W14650  20.402   1.939   1.950
49424W        W14651  40.406  24.719  12.475
49425W        W14652   7.539  25.586   1.734
49426W        W14653   1.880   5.954  11.236
49427W        W14654   0.933  20.163  14.558
49428W        W14655   6.693  26.563  12.461
49429W        W14656   4.461  15.798   0.546
49430W        W14657  21.520   5.731   3.101
49431W        W14658  19.181   0.152  13.785
49432W        W14659  20.619  21.638   4.631
49433W        W14660   1.698  39.847   2.653
49434W        W14661  26.162  29.695  12.398
49435W        W14662  38.055  28.605  13.828
49436W        W14663  29.577  39.880   3.093
49437W        W14664  15.623   4.834   4.429
49438W        W14665   2.214  40.920  14.780
49439W        W14666  40.561  44.207  10.314
49440W        W14667   0.049  11.617   4.090
49441W        W14668   3.617   2.154  11.066
49442W        W14669  28.032  16.658   0.625
49443W        W14670  15.573  28.144  14.209
49444W        W14671  36.109  22.215  11.989
49445W        W14672  34.362   1.190  13.959
49446W        W14673  28.894  12.959  10.319
49447W        W14674  15.314  16.326  12.965
49448W        W14675  22.476  25.154  14.958
49449W        W14676  38.780   5.821   0.069
49450W        W14677  44.438  10.954  11.516
49451W        W14678   9.744  18.096  13.504
49452W        W14679  12.552  39.929   4.740
49453W        W14680  32.518  10.837  10.615
49454W        W14681  29.644  32.805  13.121
49455W        W14682  15.245   2.747   1.967
49456W        W14683  35.820  19.254  14.798
49457W        W14684  18.165  11.067   2.901
49458W        W14685  14.662  36.691   0.869
49459W        W14686  27.619  23.577  14.933
49460W        W14687  32.271  22.106   1.876
49461W        W14688   1.206  34.488  14.016
49462W        W14689  19.608  20.317  12.915
49463W        W14690  26.458  14.933   2.820
49464W        W14691  42.949  15.239   4.295
49465W        W14692  27.373  23.592   3.149
49466W        W14693   7.124  19.218   3.691
49467W        W14694  21.317  42.455   1.626
49468W        W14695  27.820  39.946   4.136
49469W        W14696   0.465   7.428   3.822
49470W        W14697  35.734  35.367  10.687
49471W        W14698   8.267  19.079   3.080
49472W        W14699  41.931   9.625   4.606
49473W        W14700  36.462  26.624  13.830
49474W        W14701  25.109  17.880  14.291
49475W        W14702  24.751  24.689  12.585
49476W        W14703  12.410   5.247   3.667
49477W        W14704  20.807  16.259  13.335
49478W        W14705  37.228  20.672  10.928
49479W        W14706  44.860  16.440   5.068
49480W        W14707   3.251  28.851  14.997
49481W        W14708  42.367  10.589  12.947
49482W        W14709  15.939  22.172   2.356
49483W        W14710   7.986  11.295   4.551
49484W        W14711  31.632  15.429   3.734
49485W        W14712  25.801   1.436  12.217
49486W        W14713  24.306  33.496  13.374
49487W        W14714   2.702  43.695   3.301
49488W        W14715  19.979  43.823  14.769
49489W        W14716   2.975   0.132   5.395
49490W        W14717  41.007  36.418  11.952
49491W        W14718  32.696  10.865   1.430
49492W        W14719  30.605  34.138  10.264
49493W        W14720  43.893  28.382  12.024
49494W        W14721  13.016  28.309  12.065
49495W        W14722  33.342  27.905   4.873
49496W        W14723  16.625  26.130  12.562
49497W        W14724  10.589   3.363  12.991
49498W        W14725  26.802  40.355   5.125
49499W        W14726   0.459  25.719   1.144
49500W        W14727  29.910  11.829   1.952
49501W        W14728   3.212   1.914   4.708
49502W        W14729  20.133  37.175   3.622
49503W        W14730  35.011  13.771   3.816
49504W        W14731  32.317  17.030  14.057
49505W        W14732  44.363  18.313   0.344
49506W        W14733   2.311  20.949   3.631
49507W        W14734  41.880  17.845   1.683
49508W        W14735  15.850  20.417   0.418
49509W        W14736  12.802   4.676  12.504
49510W        W14737  38.590  17.655   3.239
49511W        W14738  36.469  39.945  10.342
49512W        W14739  16.843  18.144  10.583
49513W        W14740  19.572   9.852  12.900
49514W        W14741   2.711  20.027   1.681
49515W        W14742  25.178  14.712  12.129
49516W        W14743  21.727   1.515   1.680
49517W        W14744   5.068   3.128  12.169
49518W        W14745  28.863  43.325   3.735
49519W        W14746  34.505  19.154   4.795
49520W        W14747  19.987  31.332  12.077
49521W        W14748   1.549  21.573   2.578
49522W        W14749   4.088   4.940  14.338
49523W        W14750  44.089  17.141   4.988
49524W        W14751  28.199   0.769  13.483
49525W        W14752  37.001  44.826  14.810
49526W        W14753  27.367  40.033  13.224
49527W        W14754  25.437  23.307   1.752
49528W        W14755  42.851  27.820   2.224
49529W        W14756  28.585  23.598  14.758
49530W        W14757  21.589  40.993  11.228
49531W        W14758  44.681  25.386  10.895
49532W        W14759  13.862  18.100   2.640
49533W        W14760  35.510  24.024   2.828
49534W        W14761  43.970  18.463   5.333
49535W        W14762   7.360  11.854  14.823
49536W        W14763  19.724   2.526  13.947
49537W        W14764  31.118  19.227   4.200
49538W        W14765  12.724  15.074  11.172
49539W        W14766  18.094  32.891  10.977
49540W        W14767  18.591   8.772  13.816
49541W        W14768  11.289   4.458   3.586
49542W        W14769   1.902  18.653  14.769
49543W        W14770   0.301  14.638   4.281
49544W        W14771  25.837  34.121   5.103
49545W        W14772   5.877  23.777   1.389
49546W        W14773  10.830  13.364   2.018
49547W        W14774  43.774  11.251  14.146
49548W        W14775  33.899  17.809   0.092
49549W        W14776  44.444   5.735  10.766
49550W        W14777  16.092  18.388  14.725
49551W        W14778  19.641  29.391  14.872
49552W        W14779  19.856  14.022  14.404
49553W        W14780  28.511  41.092   2.198
49554W        W14781   0.833  17.188   0.417
49555W        W14782  21.234   3.753  10.657
49556W        W14783   7.441   1.919  10.732
49557W        W14784  35.073   9.615  12.096
49558W        W14785  28.540  31.377   0.012
49559W        W14786   1.751  15.406  10.682
49560W        W14787  25.222  12.330   3.671
49561W        W14788  31.379   4.580   1.306
49562W        W14789  15.222  43.965   3.750
49563W        W14790  28.073  27.914   1.901
49564W        W14791  11.491  23.131   1.863
49565W        W14792  44.442  37.140  13.895
49566W        W14793   4.034  27.604   5.067
49567W        W14794  12.677  35.153   3.768
49568W        W14795  42.587  44.941  13.926
49569W        W14796   9.096  33.721  13.756
49570W        W14797   1.585  25.686   0.333
49571W        W14798   0.472  23.356  10.227
49572W        W14799  29.243  19.190   4.617
49573W        W14800  36.433  21.282   1.973
49574W        W14801  39.935  19.013   1.162
49575W        W14802  31.558  41.145   2.717
49576W        W14803   0.038  10.210  14.490
49577W        W14804  18.343  38.963  14.095
49578W        W14805  17.776  41.861   0.816
49579W        W14806  20.947  43.921   4.578
49580W        W14807   1.916  14.923   2.145
49581W        W14808  18.238  20.232   2.821
49582W        W14809  23.680  31.629  14.413
49583W        W14810  37.707  28.861   3.358
49584W        W14811  34.126  21.280   3.189
49585W        W14812   4.892  19.304  13.520
49586W        W14813  40.504   0.517   3.834
49587W        W14814  25.438   2.467  14.806
49588W        W14815  27.900  19.100  12.751
49589W        W14816  44.566  37.299   3.147
49590W        W14817  40.401  39.586  13.054
49591W        W14818  29.911  16.310   1.959
49592W        W14819  10.694   5.360   2.366
49593W        W14820  20.977   4.499   4.379
49594W        W14821  44.182  21.607   4.960
49595W        W14822   9.728  33.211  13.112
49596W        W14823  44.914  42.348   0.276
49597W        W14824  10.800  15.035   0.408
49598W        W14825   7.381  32.885  14.104
49599W        W14826   6.507  44.905  13.256
49600W        W14827  38.928  29.847   1.877
49601W        W14828  31.747  31.332   5.429
49602W        W14829   0.590  16.587  10.815
49603W        W14830  10.148  20.627   5.051
49604W        W14831  43.825  32.679  12.476
49605W        W14832  16.205   0.877   4.334
49606W        W14833   3.600  39.123   4.192
49607W        W14834   2.416  31.093  12.830
49608W        W14835   2.226  40.994   4.617
49609W        W14836  16.888  42.489   2.175
49610W        W14837  19.234  35.623  11.941
49611W        W14838   1.117  41.216  11.621
49612W        W14839  30.693  26.344   1.741
49613W        W14840  21.467  39.487   3.076
49614W        W14841  37.401  21.577  10.848
49615W        W14842  33.114   3.849  13.955
49616W        W14843  16.072  35.013   3.723
49617W        W14844  24.822  18.455  12.868
49618W        W14845  39.336  18.482  11.621
49619W        W14846  10.785  43.836  11.642
49620W        W14847   6.857   8.240   3.643
49621W        W14848  31.938  18.667  13.856
49622W        W14849   8.830  24.717  12.003
49623W        W14850  37.350   7.221   0.303
49624W        W14851  13.867   0.367   0.451
49625W        W14852   8.689  30.925   1.644
49626W        W14853  14.305  32.012   1.769
49627W        W14854   9.800   5.030   4.058
49628W        W14855  13.674   3.908  13.245
49629W        W14856  25.515  11.683   2.930
49630W        W14857  10.811  35.091  14.329
49631W        W14858  44.529  23.676  10.528
49632W        W14859  20.515  10.877  13.123
49633W        W14860  44.740  24.654  14.539
49634W        W14861  19.079   7.218  11.651
49635W        W14862   1.992  44.893   2.262
49636W        W14863   5.555  28.958  10.712
49637W        W14864  15.897  27.701  10.329
49638W        W14865   4.192  19.714   2.560
49639W        W14866  12.747   3.201  14.037
49640W        W14867   2.297  32.926   4.354
49641W        W14868  36.927  26.608  12.366
49642W        W14869  31.570  31.406   3.689
49643W        W14870  29.424  29.736  13.724
49644W        W14871  12.765  35.379   0.475
49645W        W14872   0.768  31.484   3.819
49646W        W14873   1.916  10.051   2.096
49647W        W14874  26.126  10.614   3.273
49648W        W14875  34.410   8.608   4.177
49649W        W14876  19.628  18.143  10.676
49650W        W14877   1.815  10.903  11.480
49651W        W14878  11.371  22.667   1.710
49652W        W14879  28.269   8.632   2.759
49653W        W14880  33.713  19.310  13.449
49654W        W14881  22.236  21.614  13.847
49655W        W14882  21.485  38.157  11.195
49656W        W14883   0.905   0.322   0.349
49657W        W14884   9.828  29.890   4.584
49658W        W14885   1.539  12.796  12.923
49659W        W14886  15.220  22.477  11.439
49660W        W14887  11.692  32.621   3.499
49661W        W14888  10.240  29.000   0.130
49662W        W14889  28.574  17.230  10.210
49663W        W14890  24.739  27.188  10.730
49664W        W14891  14.121   1.266   3.899
49665W        W14892   3.376  11.249   2.773
49666W        W14893  43.888  27.977  11.199
49667W        W14894  20.579  28.985   0.334
49668W        W14895  25.340  15.213  13.875
49669W        W14896   2.359  43.736   1.684
49670W        W14897  37.812   0.730  12.299
49671W        W14898  42.788  15.511  12.018
49672W        W14899  20.102  11.624  10.275
49673W        W14900  31.552   7.315   4.712
49674W        W14901  23.199  27.273   4.445
49675W        W14902  39.433  13.837  11.606
49676W        W14903  25.670  25.667  12.453
49677W        W14904  28.567  16.599  11.448
49678W        W14905   4.862  38.854   2.195
49679W        W14906  29.906  11.384   2.327
49680W        W14907  31.491  21.566   0.800
49681W        W14908   3.103  13.384  12.429
49682W        W14909  44.271  11.170  11.094
49683W        W14910  35.682  37.405  13.307
49684W        W14911  27.170  38.366   4.316
49685W        W14912  21.346  39.330  13.722
49686W        W14913  16.784  26.651   4.618
49687W        W14914  33.535  22.214   4.566
49688W        W14915  23.102  32.139  11.676
49689W        W14916  16.716   8.726  11.581
49690W        W14917   0.063  35.472   0.805
49691W        W14918  33.905  11.109   2.788
49692W        W14919  19.795  13.744  10.609
49693W        W14920   8.749  10.743   4.662
49694W        W14921  21.629   9.352   1.924
49695W        W14922   3.211   8.013   1.334
49696W        W14923  40.026  25.527   1.283
49697W        W14924  27.840  23.121   3.823
49698W        W14925   9.188  39.532  14.324
49699W        W14926  20.579  38.393   3.236
49700W        W14927   9.600  36.733  12.101
49701W        W14928  15.122   8.499   2.286
49702W        W14929  42.489  35.095  13.518
49703W        W14930  20.045  28.422   1.724
49704W        W14931   4.465  33.981  14.499
49705W        W14932  44.642  18.755   3.990
49706W        W14933  27.486  42.100   1.368
49707W        W14934  26.007  30.988   4.899
49708W        W14935   2.836  34.839  11.132
49709W        W14936  22.085   1.186   0.323
49710W        W14937   3.922  32.987   1.646
49711W        W14938  18.664  30.182  11.927
49712W        W14939   2.338  12.838   3.565
49713W        W14940  12.344  26.007  12.374
49714W        W14941  23.582  19.568  13.531
49715W        W14942  31.264  31.954  11.141
49716W        W14943  25.637  13.399   3.153
49717W        W14944   9.991  25.630   4.379
49718W        W14945  36.310  31.213  12.310
49719W        W14946  13.259  31.982   1.034
49720W        W14947   5.805  40.369  12.830
49721W        W14948  39.370  34.846   3.323
49722W        W14949  23.501  16.925   1.769
49723W        W14950   6.608  37.816  14.092
49724W        W14951  33.084  36.455  14.801
49725W        W14952  15.365   5.134   1.844
49726W        W14953  17.487  18.697  14.612
49727W        W14954  14.863  29.759   3.204
49728W        W14955  32.005  39.583   5.224
49729W        W14956   6.097  29.075  14.293
49730W        W14957  41.957  37.857  12.919
49731W        W14958  19.114  26.992  12.335
49732W        W14959   7.122  20.258   3.166
49733W        W14960  21.992  25.216   4.833
49734W        W14961  18.996  37.005   4.558
49735W        W14962  34.841  33.113   4.783
49736W        W14963   4.766  39.162  14.760
49737W        W14964  39.708   9.646  11.223
49738W        W14965  21.306  23.582  11.480
49739W        W14966  22.749   8.382   2.865
49740W        W14967  44.478  15.584  11.384
49741W        W14968  43.413  44.812  11.051
49742W        W14969  42.878  40.844   2.358
49743W        W14970  40.210  44.503   3.250
49744W        W14971  35.901  41.213   0.943
49745W        W14972  12.073  43.441   2.646
49746W        W14973  27.288  42.002   3.239
49747W        W14974  22.025   1.956   0.836
49748W        W14975  18.759  39.558  11.045
49749W        W14976  42.521  25.484   1.445
49750W        W14977  23.163  12.192   2.139
49751W        W14978  37.168  29.993   3.497
49752W        W14979   1.782  16.658  14.999
49753W        W14980  41.958   0.301  11.376
49754W        W14981  27.866  12.239  14.936
49755W        W14982  19.654  38.422   3.035
49756W        W14983  13.290  40.642  14.948
49757W        W14984  40.015  23.219   4.376
49758W        W14985   8.894   8.331   3.331
49759W        W14986  16.636  31.581  13.512
49760W        W14987  11.403  44.072   0.652
49761W        W14988  40.121  23.826   3.175
49762W        W14989   1.929  23.778  12.670
49763W        W14990  24.504  34.870   0.304
49764W        W14991  12.192  23.264   3.088
49765W        W14992  24.407   7.847  13.319
49766W        W14993  27.523  36.014   1.012
49767W        W14994  16.247  39.964   2.367
49768W        W14995  37.101  12.765  10.815
49769W        W14996  27.086  29.092   9.845
49770W        W14997  41.772  32.551   0.753
49771W        W14998  21.193   7.227  11.081
49772W        W14999  31.824  44.444   3.757
49773W        W15000  17.600  25.836   0.362
49774W        W15001  23.400  42.394   9.842
49775W        W15002  14.038   3.414  10.719
49776W        W15003   7.446  14.751   3.129
49777W        W15004  35.590  14.282   2.197
49778W        W15005  21.974  30.384   4.224
49779W        W15006  17.795  26.682  13.097
49780W        W15007   7.288  12.839  10.859
49781W        W15008   0.054  20.871   5.427
49782W        W15009  32.905  23.000  13.363
49783W        W15010  26.552  37.048   1.908
49784W        W15011  29.495  32.760   4.318
49785W        W15012  10.900   6.208  10.612
49786W        W15013  35.479  32.713  14.541
49787W        W15014  16.762   2.845  10.817
49788W        W15015  29.059  36.771  14.565
49789W        W15016  24.685  41.483   4.549
49790W        W15017  31.622  11.096  14.292
49791W        W15018  12.815  40.660  13.678
49792W        W15019  37.289   2.279  13.346
49793W        W15020  24.396  20.495   3.765
49794W        W15021   5.967  36.920   4.163
49795W        W15022   2.845  34.307  11.143
49796W        W15023  35.202   0.520   1.362
49797W        W15024  42.860   1.236  12.024
49798W        W15025  16.287  16.003  14.903
49799W        W15026  35.786  18.939   2.917
49800W        W15027  44.517  17.603  10.695
49801W        W15028  23.022  23.444  12.520
49802W        W15029  32.285  17.142  10.198
49803W        W15030  11.177  18.024  12.483
49804W        W15031   1.682  24.622  12.889
49805W        W15032  16.532   6.775  13.457
49806W        W15033  44.804  13.287  14.433
49807W        W15034  12.579  26.725  11.089
49808W        W15035  13.296  16.614  12.030
49809W        W15036  13.032  20.205  10.535
49810W        W15037  11.108  19.383   0.433
49811W        W15038  34.856   0.869   2.785
49812W        W15039  13.906   8.663   3.286
49813W        W15040  31.855  15.527   0.560
49814W        W15041  14.281  28.243  14.248
49815W        W15042  35.891  30.361   3.254
49816W        W15043  22.435   9.844  10.796
49817W        W15044  41.638  28.428   4.180
49818W        W15045  11.349  25.179  13.851
49819W        W15046  22.039  38.423   4.058
49820W        W15047  28.119   2.708   3.740
49821W        W15048  15.814  37.120   4.033
49822W        W15049   1.287   2.426  10.724
49823W        W15050   4.059  26.622   3.930
49824W        W15051  10.359  14.103  12.938
49825W        W15052  30.201   4.785  13.960
49826W        W15053  38.263  37.225  10.770
49827W        W15054  19.848  10.085   5.024
49828W        W15055  18.682  19.440  14.716
49829W        W15056  19.802  36.831  12.553
49830W        W15057   8.747  43.267  14.360
49831W        W15058  44.889  35.478  13.603
49832W        W15059  23.914  16.603   1.740
49833W        W15060   8.790   7.613  10.772
49834W        W15061  44.180  31.358  13.461
49835W        W15062  42.710  15.766   5.032
49836W        W15063  26.692   0.557  10.309
49837W        W15064  23.524  36.879   0.504
49838W        W15065  18.658   7.830   0.380
49839W        W15066  30.056  23.738   1.190
49840W        W15067  15.532   8.182   4.566
49841W        W15068  25.019  17.736   0.299
49842W        W15069  12.134  37.075   1.835
49843W        W15070   2.040   3.124  14.836
49844W        W15071  23.487   7.384   2.819
49845W        W15072  21.123  10.350  12.340
49846W        W15073  24.091  22.631   4.457
49847W        W15074  37.935  15.154   4.396
49848W        W15075   0.214  40.061  10.672
49849W        W15076   3.500  28.105   2.710
49850W        W15077  43.575  41.398   3.981
49851W        W15078  39.132  29.047  13.791
49852W        W15079  13.477  27.095   1.975
49853W        W15080  24.714  38.289   2.684
49854W        W15081  24.589   7.726   0.501
49855W        W15082   9.619   8.464   0.346
49856W        W15083  40.888  44.424  12.199
49857W        W15084  40.504   5.798  13.932
49858W        W15085  19.395  20.163   2.890
49859W        W15086   0.897  20.185  12.455
49860W        W15087   3.587  33.007  12.067
49861W        W15088  32.031  13.259   2.730
49862W        W15089  21.105   2.470   0.812
49863W        W15090  30.775  40.404  11.972
49864W        W15091  26.582  26.443   3.530
49865W        W15092  34.657  29.600   0.883
49866W        W15093  38.335  44.472   3.335
49867W        W15094  15.722   9.605   3.308
49868W        W15095  30.439  36.206  12.146
49869W        W15096   3.853   8.502   0.712
49870W        W15097  17.466  22.682   2.322
49871W        W15098  32.413  22.586  10.799
49872W        W15099  40.431  11.846   3.241
49873W        W15100  40.328   6.912   0.397
49874W        W15101  30.014  17.316   1.948
49875W        W15102  34.344   6.745   0.892
49876W        W15103  40.460  39.131  11.920
49877W        W15104   0.771  29.407   2.807
49878W        W15105  19.546  43.610   2.346
49879W        W15106  33.465  19.170   2.794
49880W        W15107  30.201   0.963   1.678
49881W        W15108  41.345   6.845  10.155
49882W        W15109  15.369  18.206  10.802
49883W        W15110  12.040  33.330   1.793
49884W        W15111  44.349   1.219  13.502
49885W        W15112  39.070  31.938   0.917
49886W        W15113  25.093  15.527  14.746
49887W        W15114  36.094   2.428   3.771
49888W        W15115  33.246  33.590   2.075
49889W        W15116  20.983  27.525  13.036
49890W        W15117  13.928  31.516   0.851
49891W        W15118   9.958   7.130   4.308
49892W        W15119  17.124  27.504   2.344
49893W        W15120  40.029  29.387   2.015
49894W        W15121  17.845   0.438  10.793
49895W        W15122  24.252  30.213  12.087
49896W        W15123  25.666  11.608  13.843
49897W        W15124  40.708   4.792  12.040
49898W        W15125  42.870   8.087   4.648
49899W        W15126   3.718  27.997   0.311
49900W        W15127  24.755  41.647   5.043
49901W        W15128  31.661  29.328   4.005
49902W        W15129   8.376  26.951  11.310
49903W        W15130   0.400  11.922  14.460
49904W        W15131  30.579   3.812   0.405
49905W        W15132  24.717  15.305   1.748
49906W        W15133  13.594  22.176  11.023
49907W        W15134  41.587  14.629  14.934
49908W        W15135  13.355   4.685  13.546
49909W        W15136  39.753  25.316   1.800
49910W        W15137  42.079  21.747  10.731
49911W        W15138  34.986  40.489  12.201
49912W        W15139  28.186  13.310   3.260
49913W        W15140   1.551  31.641   1.741
49914W        W15141  36.523  31.087  13.535
49915W        W15142  42.779  36.950   2.863
49916W        W15143   1.263  14.386  12.825
49917W        W15144  30.870  14.408  10.675
49918W        W15145  10.790   8.214  11.601
49919W        W15146  19.124   3.477   2.630
49920W        W15147   9.836  19.371   2.675
49921W        W15148  20.225  33.107   2.275
49922W        W15149  22.606  10.006   2.941
49923W        W15150  20.583  11.166  12.394
49924W        W15151   9.803  23.341  13.668
49925W        W15152  41.841  36.392  13.938
49926W        W15153   7.215   5.961   0.978
49927W        W15154  44.198   3.864   2.260
49928W        W15155   0.870  17.072  12.028
49929W        W15156  22.208  31.202  12.952
49930W        W15157   5.550  39.954   1.397
49931W        W15158  24.975  38.254  12.517
49932W        W15159  24.429  31.005   2.284
49933W        W15160  27.499  41.787   1.781
49934W        W15161  25.556  26.392   4.478
49935W        W15162  25.665  30.409  10.804
49936W        W15163   0.411  27.592   1.381
49937W        W15164  14.926  18.358   2.946
49938W        W15165  28.535   2.553   0.865
49939W        W15166   8.123  16.845  13.428
49940W        W15167  24.045  32.120  11.237
49941W        W15168  19.126   4.671   4.788
49942W        W15169  38.022   5.777  13.127
49943W        W15170  10.241  24.874   4.113
49944W        W15171   7.305   4.862  10.797
49945W        W15172  44.091  15.481   3.254
49946W        W15173  28.703  23.254   1.779
49947W        W15174  21.571  30.199   3.091
49948W        W15175   8.284  42.573  14.472
49949W        W15176   9.090  44.389  14.882
49950W        W15177   4.750  38.709  13.275
49951W        W15178  30.955  11.627   5.008
49952W        W15179   2.271   5.651  14.282
49953W        W15180  35.696  23.586   0.018
49954W        W15181  23.775   6.682   1.141
49955W        W15182  13.594  18.305  12.430
49956W        W15183   6.145  38.541  13.569
49957W        W15184  30.619   9.459  11.174
49958W        W15185  44.448  10.309  12.671
49959W        W15186  14.714   6.155   4.954
49960W        W15187  32.124  42.943  10.825
49961W        W15188  29.908  15.371   4.165
49962W        W15189  39.751   8.503  12.984
49963W        W15190  28.692  10.165  13.056
49964W        W15191  13.680  25.708  14.771
49965W        W15192  27.304  10.416  13.467
49966W        W15193  23.776  12.071  11.872
49967W        W15194   1.797  37.165   1.519
49968W        W15195  30.135   0.440   2.361
49969W        W15196  24.992  20.891   2.370
49970W        W15197  31.687  24.529  11.636
49971W        W15198   5.194  35.907   0.925
49972W        W15199  32.553   1.505   1.528
49973W        W15200  43.230  15.977  13.684
49974W        W15201  12.109  17.359   3.125
49975W        W15202  37.118  32.628   0.515
49976W        W15203  13.810  16.196  14.726
49977W        W15204  18.775  32.451  11.626
49978W        W15205  16.695   9.219   1.898
49979W        W15206  27.979  40.112   2.775
49980W        W15207   1.170   9.043  14.872
49981W        W15208  12.795  33.646  14.677
49982W        W15209  19.467   5.648   0.473
49983W        W15210  28.925  24.555  10.511
49984W        W15211  30.093  42.924   2.666
49985W        W15212  14.012  11.813  14.324
49986W        W15213   1.800  11.408   0.948
49987W        W15214  30.164  20.161   2.930
49988W        W15215  17.841   8.337   3.269
49989W        W15216  38.285   2.801  11.232
49990W        W15217  11.095  25.735  13.598
49991W        W15218   8.404   1.158   3.630
49992W        W15219   4.926  21.024  11.880
49993W        W15220   8.223  28.240  12.032
49994W        W15221  40.932  19.145  14.275
49995W        W15222   6.452   8.444   2.304
49996W        W15223  35.819  15.780   1.773
49997W        W15224  24.521  11.138   2.306
49998W        W15225  34.336   7.024  13.312
49999W        W15226  21.661  12.468  12.077
50000W        W15227  26.033  19.616   2.840
50001W        W15228   9.264   2.930  11.871
50002W        W15229  27.800  42.363  11.181
50003W        W15230  10.288  21.924  12.122
50004W        W15231  11.394   9.815   0.359
50005W        W15232  31.636   4.416  13.405
50006W        W15233  30.201  36.514   1.306
50007W        W15234  42.450   8.225  11.490
50008W        W15235  40.543  44.466  14.366
50009W        W15236  34.388  40.220  13.426
50010W        W15237  16.993  38.959   3.498
50011W        W15238  16.520  35.519   0.435
50012W        W15239  20.265  33.977   1.860
50013W        W15240   8.883   4.362   4.344
50014W        W15241  12.176  25.122   3.922
50015W        W15242   3.568  40.982  11.449
50016W        W15243  37.885  14.551  13.520
50017W        W15244  25.109  35.209  13.912
50018W        W15245  13.814  27.022   3.897
50019W        W15246  38.342  29.628  10.714
50020W        W15247  26.068   8.290  14.580
50021W        W15248  29.531  29.895  12.304
50022W        W15249  36.465  38.676   3.291
50023W        W15250   0.637   0.293   2.348
50024W        W15251  19.650  40.555   2.227
50025W        W15252  17.750   9.283  12.770
50026W        W15253  10.001  17.675  14.206
50027W        W15254  20.311   5.317  12.965
50028W        W15255   8.610  13.795   9.935
50029W        W15256   5.880   1.859  10.965
50030W        W15257  29.443  33.461   0.923
50031W        W15258  22.550  14.306   1.813
50032W        W15259  35.386   9.767   0.908
50033W        W15260   7.348  37.067  12.391
50034W        W15261  13.773  10.751   4.454
50035W        W15262  22.748  25.094   2.759
50036W        W15263  13.160  35.825   2.724
50037W        W15264  39.495  36.914  14.289
50038W        W15265   4.709  42.007  13.058
50039W        W15266  24.553  38.365   4.496
50040W        W15267  32.963   4.393  11.638
50041W        W15268  33.087  14.558   1.251
50042W        W15269  29.513   9.810  12.969
50043W        W15270  23.003   0.158  13.027
50044W        W15271  41.114   8.389   0.567
50045W        W15272  34.939   6.820   2.891
50046W        W15273   0.199  30.712   1.367
50047W        W15274   0.187  32.940   2.945
50048W        W15275   2.792  21.739  12.945
50049W        W15276  17.800  13.388   2.368
50050W        W15277  27.027   9.793  10.830
50051W        W15278  20.692  19.745   5.033
50052W        W15279  16.242   8.666   2.475
50053W        W15280  22.302  31.668   2.789
50054W        W15281  36.496  27.827   9.724
50055W        W15282  25.526  39.787   4.807
50056W        W15283  42.499  12.401   3.665
50057W        W15284  17.423  22.754   4.717
50058W        W15285  35.765  24.197   3.255
50059W        W15286   0.408  10.076   2.966
50060W        W15287  41.211   2.937   4.715
50061W        W15288  37.514  32.335   3.066
50062W        W15289  15.122  36.332   1.479
50063W        W15290  39.944  44.351  11.915
50064W        W15291  34.509   4.219   3.379
50065W        W15292  43.829  27.507  11.443
50066W        W15293  33.522  27.440   4.598
50067W        W15294  39.028   8.376   3.603
50068W        W15295  16.038  40.320   4.306
50069W        W15296  23.198  24.695  10.871
50070W        W15297  41.927  22.530   1.913
50071W        W15298  10.755  44.327   1.041
50072W        W15299  41.136  30.265  11.464
50073W        W15300  16.244   6.401  11.615
50074W        W15301  44.401   3.900   0.336
50075W        W15302   3.623  40.959  10.868
50076W        W15303  29.573   8.611   3.354
50077W        W15304   2.128  38.692   4.683
50078W        W15305  16.139   5.810   2.340
50079W        W15306   0.015  21.558  13.055
50080W        W15307   6.553  35.620   0.989
50081W        W15308  28.947  33.987  12.044
50082W        W15309  40.335  24.976  12.016
50083W        W15310   2.797  11.560   2.504
50084W        W15311   3.773  13.494   3.210
50085W        W15312   0.940  39.483   2.192
50086W        W15313  39.916   8.784  12.489
50087W        W15314  33.924  31.328   2.285
50088W        W15315  26.899  19.596  11.104
50089W        W15316  17.118  43.758  11.918
50090W        W15317  38.846  33.457   1.811
50091W        W15318  44.339   8.446  14.368
50092W        W15319   9.828  21.065   1.967
50093W        W15320   6.871  20.202   4.579
50094W        W15321  28.158  32.826   2.915
50095W        W15322  13.799  42.478   1.311
50096W        W15323  20.615  40.831   4.802
50097W        W15324  19.711   0.005  14.428
50098W        W15325  18.791  12.226  13.838
50099W        W15326   3.859  38.030   3.529
50100W        W15327   6.565  35.466   4.065
50101W        W15328  41.624   5.854  12.095
50102W        W15329  12.092  19.651   4.503
50103W        W15330  27.304  22.594   4.233
50104W        W15331  19.113  39.987  12.199
50105W        W15332  24.474   7.316   3.655
50106W        W15333  33.147   7.840  11.122
50107W        W15334  22.999  35.020   3.767
50108W        W15335   8.809  38.577   1.367
50109W        W15336  12.723  11.050   0.403
50110W        W15337  38.143  24.636   2.441
50111W        W15338  10.153   1.400  10.740
50112W        W15339  17.653  27.154  14.902
50113W        W15340  43.440  42.930   0.591
50114W        W15341  13.035  31.331  10.442
50115W        W15342  16.378  17.682   3.329
50116W        W15343  34.176   8.225   2.250
50117W        W15344  23.691  21.027  13.413
50118W        W15345  16.037  17.547  13.383
50119W        W15346  15.826  30.131  12.212
50120W        W15347   0.814  20.026   0.885
50121W        W15348  41.304  15.716  12.521
50122W        W15349  21.205  38.416  14.740
50123W        W15350  28.948  33.058  14.782
50124W        W15351   1.402   8.593  14.193
50125W        W15352   4.247   8.339  14.098
50126W        W15353  25.471  12.537   0.451
50127W        W15354   6.971  40.486   3.879
50128W        W15355  21.233  27.108   0.052
50129W        W15356   6.685  16.435   4.464
50130W        W15357  28.128  17.235   3.213
50131W        W15358  44.121  37.599  11.975
50132W        W15359  27.967  38.838   1.191
50133W        W15360  30.595  16.124   1.257
50134W        W15361  43.436  37.128  10.771
50135W        W15362  33.689   5.706   2.538
50136W        W15363  18.385  18.111   3.253
50137W        W15364  24.587  12.179   4.095
50138W        W15365  24.811  42.473  12.930
50139W        W15366   1.195  13.500   4.305
50140W        W15367  38.184  25.481   3.087
50141W        W15368  19.747   3.843   0.545
50142W        W15369  23.480  28.188   3.531
50143W        W15370  28.653  33.624  13.365
50144W        W15371  15.152  14.083   2.323
50145W        W15372  37.037  40.370   2.056
50146W        W15373   4.730   0.325  11.601
50147W        W15374  21.214  32.658  11.594
50148W        W15375   8.115  33.113  11.357
50149W        W15376  39.785  40.731  13.359
50150W        W15377  38.140  30.353  13.932
50151W        W15378   4.251  16.782  13.478
50152W        W15379  15.850  14.676  12.444
50153W        W15380   2.881  24.811   3.106
50154W        W15381  32.717   5.173   4.192
50155W        W15382   0.750   3.917   1.372
50156W        W15383  27.445  12.755   5.024
50157W        W15384  22.677  19.252  14.050
50158W        W15385  17.068  24.565  11.618
50159W        W15386  18.980   6.244   3.313
50160W        W15387  28.028  29.517   3.802
50161W        W15388   9.765  19.401  10.454
50162W        W15389  26.930   1.080  10.757
50163W        W15390  25.907  28.079   1.273
50164W        W15391  17.323   8.179   4.135
50165W        W15392  20.618  10.366  11.172
50166W        W15393  32.856  21.643  12.545
50167W        W15394  20.083  25.416  13.983
50168W        W15395   5.065  31.336   3.455
50169W        W15396  30.950  21.403   3.398
50170W        W15397   9.709  33.900   4.966
50171W        W15398  34.226  40.705  13.373
50172W        W15399   1.008   3.224  14.731
50173W        W15400   3.915   1.531   4.235
50174W        W15401  44.847   8.907   3.893
50175W        W15402  42.105  14.645   3.574
50176W        W15403   0.543  12.788  11.631
50177W        W15404  39.210  23.022   1.258
50178W        W15405  27.899  29.572   1.656
50179W        W15406  41.355  42.669  14.483
50180W        W15407   6.652   7.145   4.176
50181W        W15408   7.408  35.625   4.247
50182W        W15409  10.374  43.852  14.912
50183W        W15410  16.147  30.344  12.966
50184W        W15411  15.640  29.687  14.387
50185W        W15412   2.712  42.268   0.485
50186W        W15413  21.102  38.987  10.410
50187W        W15414  23.556  19.626  11.689
50188W        W15415  35.648  43.206  14.983
50189W        W15416  38.846  43.591   2.780
50190W        W15417  14.151   1.219  14.925
50191W        W15418  28.209  27.644  12.475
50192W        W15419  15.387   9.957   3.064
50193W        W15420  40.543  27.671  12.408
50194W        W15421  24.021  34.829  10.800
50195W        W15422  43.911  18.034  10.372
50196W        W15423  34.272  18.658   3.778
50197W        W15424   8.617  16.639   4.935
50198W        W15425  35.636  31.386  14.526
50199W        W15426  35.018  33.077  12.593
50200W        W15427   6.373  31.373  12.606
50201W        W15428  31.932   8.668   2.684
50202W        W15429   6.259  34.010  14.251
50203W        W15430   6.316  19.200   0.527
50204W        W15431   8.907   8.839  13.507
50205W        W15432  14.090  10.315   4.477
50206W        W15433  13.104  33.967   1.747
50207W        W15434  21.545  22.930  13.651
50208W        W15435   0.836  21.197   1.304
50209W        W15436  22.065  41.976  10.817
50210W        W15437  25.240  14.399   2.258
50211W        W15438  15.646  14.083  10.914
50212W        W15439  41.996  34.700  11.262
50213W        W15440  21.089  26.473   2.787
50214W        W15441  19.557  14.711   1.436
50215W        W15442  39.072  28.344   2.241
50216W        W15443   6.654   2.838   1.373
50217W        W15444  33.665  37.341   0.353
50218W        W15445  42.445   3.772  12.656
50219W        W15446  13.171  28.221  13.413
50220W        W15447  11.256  31.107   4.987
50221W        W15448   2.275  30.903   3.144
50222W        W15449   5.296  18.975   2.204
50223W        W15450  35.373  18.233   3.941
50224W        W15451  12.794  20.784  12.880
50225W        W15452   6.262  27.226  14.421
50226W        W15453  13.980  36.164   3.833
50227W        W15454  34.903  29.049  11.157
50228W        W15455  39.602   1.524   1.698
50229W        W15456   3.857  26.223   2.678
50230W        W15457   9.839  16.302  13.937
50231W        W15458  12.270  30.798   0.931
50232W        W15459   8.179  38.981   4.022
50233W        W15460   5.437   8.844   3.785
50234W        W15461  15.325  26.769   4.701
50235W        W15462  40.167  29.920   4.736
50236W        W15463  23.560  25.976   4.513
50237W        W15464  29.996  16.809  13.716
50238W        W15465  35.110   6.914   2.402
50239W        W15466   0.062   2.456   0.883
50240W        W15467   3.373  38.925  12.220
50241W        W15468   0.790  44.904  11.775
50242W        W15469  11.252  15.995  14.872
50243W        W15470   8.918  17.295   2.739
50244W        W15471  32.959  23.273   3.985
50245W        W15472  36.083  27.737   2.203
50246W        W15473   8.821  30.680  14.383
50247W        W15474  37.630  22.799  11.096
50248W        W15475  19.683  11.838   4.600
50249W        W15476  42.182   2.630   4.566
50250W        W15477  22.527  24.633  14.886
50251W        W15478  30.917  43.990   4.621
50252W        W15479   0.462  28.511   3.081
50253W        W15480  19.929  42.341  14.355
50254W        W15481  35.598  35.867   1.311
50255W        W15482  33.784   3.429  11.706
50256W        W15483  26.115  19.417   1.795
50257W        W15484  27.670  18.002   0.463
50258W        W15485  21.561  14.142   1.809
50259W        W15486  33.854  42.683   4.841
50260W        W15487  11.441  37.588  12.122
50261W        W15488   3.671  43.251   2.292
50262W        W15489   2.337  31.986   4.171
50263W        W15490  42.627  27.880   1.684
50264W        W15491  19.200  26.401  14.997
50265W        W15492   9.395  40.757  14.948
50266W        W15493  20.173   7.237  12.605
50267W        W15494  44.745  19.359  12.618
50268W        W15495  39.044  10.754   3.700
50269W        W15496  16.045  34.342   0.859
50270W        W15497  35.961  33.461  13.218
50271W        W15498  38.293  11.390   2.289
50272W        W15499  19.852  20.812  11.074
50273W        W15500   1.280  42.095  12.633
50274W        W15501  39.516  22.152   4.739
50275W        W15502  12.831  12.665   4.902
50276W        W15503  14.480  25.228  10.491
50277W        W15504  32.011  35.529   1.205
50278W        W15505  36.050  14.363   0.302
50279W        W15506   5.362  16.094  13.377
50280W        W15507  33.388   2.524  13.477
50281W        W15508  15.578  29.706  13.013
50282W        W15509  14.272  40.359  11.584
50283W        W15510  17.850  23.203   1.852
50284W        W15511  20.487  27.393  11.594
50285W        W15512  28.961  28.267  12.757
50286W        W15513   2.095  44.120  12.591
50287W        W15514  28.964  39.718  11.188
50288W        W15515  38.662  28.043   2.923
50289W        W15516  14.167  40.440   0.553
50290W        W15517   9.969   1.722  10.310
50291W        W15518  44.390   3.507   5.066
50292W        W15519  12.416  38.247   1.453
50293W        W15520  30.348  30.023  14.857
50294W        W15521  38.723  33.122  10.657
50295W        W15522  17.995  31.799   2.737
50296W        W15523  24.074   0.388   2.593
50297W        W15524  41.979  24.313   1.571
50298W        W15525  23.944  31.867  13.886
50299W        W15526  27.824  16.418   2.622
50300W        W15527  44.566  13.005   2.264
50301W        W15528  39.346  16.536  14.324
50302W        W15529  35.078  20.141  12.088
50303W        W15530  43.732  18.581  11.153
50304W        W15531   0.845   9.344   4.635
50305W        W15532  13.664   4.198  11.550
50306W        W15533  22.026  38.308  13.978
50307W        W15534  18.186  44.986  12.494
50308W        W15535  31.343  35.048   3.280
50309W        W15536   0.888  32.598  11.135
50310W        W15537  36.668  40.979  11.261
50311W        W15538  26.836   8.574   2.642
50312W        W15539  14.472  10.806  11.016
50313W        W15540  18.108  35.064   3.715
50314W        W15541  33.011   3.425   4.113
50315W        W15542  31.941  38.459   0.339
50316W        W15543  24.097  32.372   2.220
50317W        W15544   4.855  11.375   0.897
50318W        W15545  25.340  13.215   3.713
50319W        W15546  26.050   5.324   1.368
50320W        W15547  35.413   5.196   3.165
50321W        W15548  43.976  24.137   0.411
50322W        W15549  12.415  22.527  10.756
50323W        W15550   4.131   5.282  12.009
50324W        W15551  35.463  34.666   1.902
50325W        W15552  21.936   4.062  10.953
50326W        W15553   4.313   7.808  10.698
50327W        W15554  17.613  22.256  14.423
50328W        W15555  20.360  35.101  11.028
50329W        W15556  27.881  14.238   3.309
50330W        W15557   6.252  40.611   0.157
50331W        W15558  43.288  14.246  11.148
50332W        W15559   9.712  10.777  14.474
50333W        W15560   2.500  21.053  12.977
50334W        W15561  11.418  11.807   0.798
50335W        W15562  19.740  19.450   4.592
50336W        W15563  17.608  18.094   2.198
50337W        W15564   3.498  18.052  12.488
50338W        W15565  26.251  27.234   4.094
50339W        W15566  19.850  31.117  14.554
50340W        W15567  36.315  25.078   0.555
50341W        W15568  25.951  39.216  13.160
50342W        W15569  37.393  26.433  10.291
50343W        W15570  30.374   5.882  11.201
50344W        W15571  17.538  24.657  13.421
50345W        W15572  29.430  31.623  10.581
50346W        W15573  35.196  12.494   1.246
50347W        W15574  42.683  29.293  10.994
50348W        W15575  31.206   5.345  12.349
50349W        W15576  19.320   3.136   1.422
50350W        W15577  21.154  29.558  10.922
50351W        W15578  11.627  36.205   1.643
50352W        W15579  15.976   9.126   3.274
50353W        W15580  42.366  18.930   2.723
50354W        W15581  42.173  34.773  14.528
50355W        W15582  12.398   3.655  11.854
50356W        W15583  30.444  26.983   1.355
50357W        W15584  38.862  26.063  13.889
50358W        W15585  10.101  40.467   0.778
50359W        W15586  34.089  40.073   1.495
50360W        W15587  42.459  26.469   2.344
50361W        W15588  33.453  44.362   4.698
50362W        W15589  12.434   4.919  14.339
50363W        W15590  43.462   1.510   4.648
50364W        W15591  28.047  10.958  12.978
50365W        W15592  19.187  18.765   3.094
50366W        W15593  37.450  26.939   4.568
50367W        W15594  41.153  36.139  14.372
50368W        W15595  27.378  14.188   4.654
50369W        W15596  39.407   8.042  12.283
50370W        W15597  30.514  43.687  14.106
50371W        W15598  31.878  15.660   4.126
50372W        W15599   5.687  16.576   0.622
50373W        W15600   9.577  18.341   0.774
50374W        W15601  12.275  43.846   0.788
50375W        W15602  32.077  34.587  11.748
50376W        W15603  18.250  22.449   4.689
50377W        W15604   2.460   4.166  11.866
50378W        W15605  25.609   0.029   3.077
50379W        W15606  14.812  24.175   0.041
50380W        W15607  35.543  23.099  11.874
50381W        W15608   9.549  30.523   4.146
50382W        W15609   8.595  29.771   0.899
50383W        W15610  34.534  36.835  12.782
50384W        W15611   8.685  41.854  11.629
50385W        W15612  38.553  39.901  13.430
50386W        W15613  25.796  33.123  14.439
50387W        W15614  34.285   1.952  11.130
50388W        W15615  33.894  30.822   2.429
50389W        W15616  17.688  19.584   3.193
50390W        W15617  21.345   4.154   1.830
50391W        W15618   5.992  40.339   2.643
50392W        W15619  41.915  13.064   5.292
50393W        W15620   3.227  42.358   3.262
50394W        W15621   5.392  26.761   3.506
50395W        W15622  31.021  38.277   5.074
50396W        W15623  31.677  35.948  11.650
50397W        W15624  33.506  33.516  11.946
50398W        W15625   5.814  14.646   1.402
50399W        W15626  28.807  11.491  11.735
50400W        W15627   9.584  40.499   1.715
50401W        W15628  17.573  30.941  10.797
50402W        W15629  13.237  31.149  13.309
50403W        W15630   6.468   0.602   5.325
50404W        W15631   6.876  44.773  14.049
50405W        W15632  38.138  34.811  13.056
50406W        W15633  29.929  21.254  11.410
50407W        W15634   2.986   1.966  11.581
50408W        W15635  19.589  21.916  13.424
50409W        W15636  38.526   3.966  11.798
50410W        W15637   0.943   5.222  10.490
50411W        W15638  38.785  31.990  10.284
50412W        W15639  40.517  23.923   3.578
50413W        W15640   0.567  43.257  12.549
50414W        W15641   0.333   4.734   2.775
50415W        W15642  39.096  17.571   3.303
50416W        W15643  25.104  39.425  11.792
50417W        W15644  31.437  15.493   4.529
50418W        W15645  26.505  39.115   0.886
50419W        W15646  10.288  20.111   1.549
50420W        W15647  35.641   3.587  11.504
50421W        W15648  19.271  21.122  10.784
50422W        W15649   2.932  13.711  10.725
50423W        W15650   4.854  37.605  14.519
50424W        W15651  17.552  21.258  10.940
50425W        W15652  35.140  30.079  14.782
50426W        W15653   2.054  34.904   1.382
50427W        W15654  38.727  25.560   4.383
50428W        W15655  31.586  10.237  11.626
50429W        W15656  24.276   8.434  14.868
50430W        W15657  27.376  24.903  12.442
50431W        W15658   9.919  11.427  13.082
50432W        W15659  37.901  37.031  13.447
50433W        W15660  21.823   8.865  12.770
50434W        W15661  12.860  38.075  11.687
50435W        W15662  15.221   3.931   3.688
50436W        W15663  13.591  43.425   3.764
50437W        W15664  44.480  11.697   0.709
50438W        W15665   3.400  13.495  13.774
50439W        W15666   5.009  16.195  14.406
50440W        W15667  22.661  27.734  14.719
50441W        W15668  23.503  28.554  13.448
50442W        W15669  12.287  17.457   0.293
50443W        W15670  20.783  37.553  12.998
50444W        W15671   7.170  36.110   3.130
50445W        W15672  21.720  37.702  12.965
50446W        W15673  16.833   6.547   4.451
50447W        W15674  25.251  39.290  11.304
50448W        W15675  28.380  35.930  13.542
50449W        W15676   8.867  32.023  14.042
50450W        W15677  10.489  42.626  11.214
50451W        W15678  21.677  16.305  10.647
50452W        W15679   3.227  28.206   3.124
50453W        W15680  43.612  25.236  12.098
50454W        W15681  29.187  30.759  13.626
50455W        W15682  10.684  23.540   2.017
50456W        W15683   6.428  14.619   4.694
50457W        W15684  35.305  37.004  14.096
50458W        W15685  38.516  22.347  13.986
50459W        W15686   3.945  43.906   0.020
50460W        W15687  32.119  29.039   2.887
50461W        W15688   9.789  43.522   2.372
50462W        W15689  13.612  17.239   3.262
50463W        W15690  11.293  39.359   2.753
50464W        W15691  32.913  10.365  13.319
50465W        W15692   0.706  44.365   2.310
50466W        W15693  14.735  37.728   2.772
50467W        W15694  23.360  36.631  13.576
50468W        W15695  32.837  33.675   1.722
50469W        W15696  14.063  32.407  12.657
50470W        W15697  24.535  15.921   4.216
50471W        W15698  15.046   4.160   4.095
50472W        W15699  20.893   0.963  13.439
50473W        W15700   2.104  42.296  14.218
50474W        W15701  12.254  26.112  14.698
50475W        W15702  18.966  17.850  12.145
50476W        W15703  18.578  14.178  13.924
50477W        W15704  24.261  20.480   0.348
50478W        W15705  25.630  14.006  14.520
50479W        W15706  32.816   6.815  13.486
50480W        W15707  31.237  31.539  12.036
50481W        W15708  40.530   0.824  11.162
50482W        W15709  32.291  11.106   1.744
50483W        W15710  29.664  39.790  11.001
50484W        W15711  11.642  12.706  14.880
50485W        W15712  27.929  24.186  12.421
50486W        W15713  34.756   2.171  11.136
50487W        W15714  39.297  13.871  12.111
50488W        W15715  28.997  30.545   0.861
50489W        W15716  23.485  30.358   1.420
50490W        W15717  13.222  19.006  13.268
50491W        W15718   8.672  19.598  13.743
50492W        W15719  16.128   8.177  11.033
50493W        W15720  36.764  35.092  11.638
50494W        W15721  20.170  10.104   4.212
50495W        W15722  15.633  38.965   1.941
50496W        W15723   2.164  21.727   0.483
50497W        W15724   8.258  33.851  14.893
50498W        W15725   6.371  29.543  12.366
50499W        W15726   4.656  13.710   3.699
50500W        W15727  23.137   7.439  12.815
50501W        W15728  31.646   3.410   0.422
50502W        W15729   7.932  24.697  12.103
50503W        W15730  35.020  25.914  12.225
50504W        W15731  12.818  23.686  14.518
50505W        W15732   3.327  14.226  12.034
50506W        W15733  24.129   7.525   2.177
50507W        W15734  38.536   2.195  14.904
50508W        W15735  14.031  39.849  13.885
50509W        W15736  23.585  26.020  11.827
50510W        W15737  20.059  32.343   3.017
50511W        W15738  29.987   3.716   0.907
50512W        W15739  42.228  31.503   4.329
50513W        W15740  41.536  28.854   0.211
50514W        W15741  27.462  27.484  12.759
50515W        W15742  18.102  17.779   0.743
50516W        W15743  26.984   0.275  14.858
50517W        W15744  31.077  30.948  14.737
50518W        W15745  31.980  36.710  11.340
50519W        W15746  43.974  42.965   5.046
50520W        W15747  19.164   5.767   4.615
50521W        W15748   5.119  24.638  14.287
50522W        W15749  27.887  15.147  11.502
50523W        W15750  10.376   5.197  13.023
50524W        W15751  35.485  22.753   4.092
50525W        W15752   3.922  26.598   4.937
50526W        W15753  41.026  24.125   3.613
50527W        W15754  13.095  12.319   3.160
50528W        W15755  43.881  33.032  12.081
50529W        W15756   3.220  27.239  12.813
50530W        W15757   3.345  24.094  11.078
50531W        W15758   6.789  39.949  14.903
50532W        W15759  19.798  14.350  13.156
50533W        W15760  35.355  25.431  11.471
50534W        W15761  16.354  20.185   2.868
50535W        W15762   2.730  22.100  13.332
50536W        W15763  34.674  24.968   4.910
50537W        W15764  36.817  10.228  14.279
50538W        W15765  26.273  28.597  11.978
50539W        W15766   2.501   1.359  10.910
50540W        W15767  17.943  34.965  13.329
50541W        W15768  40.994  37.809   0.552
50542W        W15769  15.527  18.097   2.087
50543W        W15770  20.525  14.543   1.543
50544W        W15771  26.211  39.230   0.340
50545W        W15772  36.806  20.471   2.250
50546W        W15773  39.666  34.942   2.837
50547W        W15774  23.460  19.370  14.957
50548W        W15775  27.905  23.587  10.850
50549W        W15776  34.976  21.375  14.190
50550W        W15777  41.101   2.831   2.493
50551W        W15778   4.810   2.480  11.660
50552W        W15779  43.295  19.802   1.430
50553W        W15780  18.676  13.367  12.882
50554W        W15781  26.348   1.800  13.795
50555W        W15782  32.529  24.686  14.846
50556W        W15783  42.962  26.938   0.449
50557W        W15784  26.077   1.417  13.553
50558W        W15785   1.787  42.034  12.521
50559W        W15786  43.879  25.425  14.838
50560W        W15787  40.549   3.894   3.510
50561W        W15788  21.274  10.777   2.775
50562W        W15789  16.159   4.903  10.895
50563W        W15790  42.526  10.638  13.851
50564W        W15791  22.023  20.808   1.402
50565W        W15792  31.347  43.910   0.260
50566W        W15793  40.812  43.796   1.379
50567W        W15794  44.353  23.996   2.206
50568W        W15795  32.585   4.174  12.520
50569W        W15796  42.735  25.498   0.972
50570W        W15797  26.028  38.689  13.027
50571W        W15798  16.837  36.082  11.181
50572W        W15799  42.667  14.273  14.526
50573W        W15800   5.289  33.281  11.154
50574W        W15801  21.691   5.122   2.533
50575W        W15802  13.967  22.691  10.657
50576W        W15803  28.178  32.653   1.993
50577W        W15804  10.809   2.689   4.122
50578W        W15805  34.588  17.611  13.434
50579W        W15806  12.535  28.608   2.880
50580W        W15807  12.816  39.357  14.940
50581W        W15808  17.697  25.187  14.748
50582W        W15809  13.587  10.905   3.999
50583W        W15810  16.850  16.917   2.950
50584W        W15811  14.982  14.686  13.945
50585W        W15812  25.063   4.451  10.727
50586W        W15813  13.884  42.959  11.257
50587W        W15814  12.098   7.794  10.910
50588W        W15815  23.185  19.049   1.337
50589W        W15816  20.343  11.149  13.557
50590W        W15817  25.505  20.791  11.102
50591W        W15818  41.982  27.679  11.242
50592W        W15819  11.297  36.121   2.619
50593W        W15820  39.643  34.388   0.930
50594W        W15821  17.057  44.308  12.086
50595W        W15822   8.248  31.511  12.461
50596W        W15823  30.372  31.305  13.868
50597W        W15824  11.760  16.814   1.375
50598W        W15825  28.517   5.867  10.456
50599W        W15826  42.389   5.298   9.879
50600W        W15827  17.345  19.167  14.844
50601W        W15828  35.746  29.880  13.008
50602W        W15829  18.798  33.321   5.287
50603W        W15830  40.024  24.575   2.322
50604W        W15831  41.608   8.481  11.618
50605W        W15832  15.664  20.040  12.530
50606W        W15833  37.797  42.867  13.304
50607W        W15834  36.580  31.532  12.042
50608W        W15835  44.212  42.446   2.467
50609W        W15836  28.543  13.713  12.427
50610W        W15837  30.919  10.396  11.109
50611W        W15838   3.187  25.749  13.795
50612W        W15839  35.383   8.091   1.644
50613W        W15840  18.612   5.217  13.650
50614W        W15841  36.029  32.493   4.209
50615W        W15842   5.944  16.172  12.100
50616W        W15843   3.142  12.619  12.081
50617W        W15844  28.863  24.484  12.567
50618W        W15845  32.228  18.523  13.396
50619W        W15846  17.523  34.260   4.134
50620W        W15847  21.774  20.178   1.868
50621W        W15848   0.428  28.014   0.425
50622W        W15849   6.968  15.256  12.124
50623W        W15850   4.858  20.217  12.481
50624W        W15851  29.021   5.262   3.627
50625W        W15852  23.962  41.878  10.719
50626W        W15853  17.181  26.515   3.860
50627W        W15854   7.510  20.601  13.992
50628W        W15855  40.586  33.029  12.314
50629W        W15856  28.999  31.627   1.842
50630W        W15857  41.190  27.581   4.182
50631W        W15858  31.443  40.085  10.280
50632W        W15859  32.668   7.507  11.264
50633W        W15860  16.316   0.139  12.540
50634W        W15861  12.965  15.352  14.014
50635W        W15862   9.129  28.545  11.218
50636W        W15863   0.268  41.074   0.090
50637W        W15864  26.149  23.634  11.176
50638W        W15865   8.978  15.258   1.841
50639W        W15866   0.357  33.631  10.506
50640W        W15867  13.409   9.213   3.671
50641W        W15868  27.313   5.383  13.283
50642W        W15869  33.136   0.077   1.734
50643W        W15870  35.527  17.182   1.908
50644W        W15871  17.129  19.056   0.308
50645W        W15872  27.134  26.301   4.200
50646W        W15873  21.017  41.307  14.802
50647W        W15874   2.298  35.939   4.476
50648W        W15875  31.095  16.967  12.424
50649W        W15876  36.400  26.129  13.684
50650W        W15877  19.630  29.485  13.136
50651W        W15878  37.130   4.699   0.284
50652W        W15879  12.277  15.732  11.955
50653W        W15880  35.778  25.120  10.681
50654W        W15881  10.436  15.318   0.619
50655W        W15882  31.819  32.374   4.097
50656W        W15883  25.486  10.166  14.901
50657W        W15884  31.632  23.679  14.922
50658W        W15885  39.379  36.385  14.406
50659W        W15886  20.222   0.125  12.605
50660W        W15887  34.616  43.145   0.365
50661W        W15888  42.548  32.464   4.454
50662W        W15889  13.225   0.658   4.537
50663W        W15890  38.813  40.402   5.008
50664W        W15891  21.973  26.533   2.830
50665W        W15892  14.848  38.808  13.178
50666W        W15893  31.395  22.160   2.254
50667W        W15894  42.243  43.221  11.153
50668W        W15895  24.423   4.788   1.812
50669W        W15896   4.354  39.950  11.671
50670W        W15897   1.478  36.598  14.412
50671W        W15898  37.531  35.360   1.431
50672W        W15899   5.771  22.855   1.394
50673W        W15900  42.281  32.009   4.519
50674W        W15901  43.352  31.560  10.972
50675W        W15902  10.640  23.418  12.269
50676W        W15903  39.314  11.600  12.451
50677W        W15904  30.969  28.485   2.205
50678W        W15905   4.878  10.182   4.198
50679W        W15906  16.859  38.481  13.360
50680W        W15907  43.943  40.851  13.112
50681W        W15908  30.158  27.931  12.679
50682W        W15909  43.531  13.284  14.332
50683W        W15910  36.157   2.395   1.084
50684W        W15911   0.824  43.980  14.807
50685W        W15912  22.389   3.811  11.952
50686W        W15913  17.792  24.511   0.594
50687W        W15914  36.874  10.303   0.756
50688W        W15915  28.514   2.253   1.298
50689W        W15916   6.993  11.085   3.167
50690W        W15917  37.780  20.715   3.888
50691W        W15918  39.307  13.672  14.464
50692W        W15919  30.966   5.592   1.898
50693W        W15920   5.507  14.923   5.307
50694W        W15921  13.874  23.159  12.312
50695W        W15922  18.281  16.756   0.556
50696W        W15923  32.105   2.351  12.923
50697W        W15924  28.873   5.302  12.621
50698W        W15925  22.284  41.265   3.637
50699W        W15926  26.500  23.463  11.942
50700W        W15927  29.725   1.755  13.464
50701W        W15928  43.253  30.276   0.475
50702W        W15929   3.355  43.931  14.344
50703W        W15930  38.267  44.056  14.470
50704W        W15931  21.000  38.385   1.299
50705W        W15932  35.449  32.151   3.109
50706W        W15933   9.953  13.642   1.311
50707W        W15934   7.369  17.199   0.754
50708W        W15935  44.569   6.443  14.739
50709W        W15936  36.821   8.440   1.885
50710W        W15937  31.141  33.198  12.172
50711W        W15938  41.507   8.931  13.047
50712W        W15939   0.758  23.235   3.726
50713W        W15940  32.411  12.821  10.287
50714W        W15941  28.994   8.147  13.654
50715W        W15942  42.321  14.746   4.555
50716W        W15943  40.732  27.059   4.526
50717W        W15944   0.077  35.367  11.801
50718W        W15945  41.923  41.845  14.277
50719W        W15946  12.800   3.682   0.816
50720W        W15947  26.245  35.407   0.457
50721W        W15948  15.325  42.495  12.179
50722W        W15949  28.046   3.338   5.012
50723W        W15950   8.598  36.343   1.481
50724W        W15951  40.507   3.798  13.052
50725W        W15952   1.742  36.107  12.354
50726W        W15953  10.267   2.205   1.207
50727W        W15954   5.469  20.374   0.509
50728W        W15955   3.418  38.859  13.035
50729W        W15956  33.570  38.786   4.608
50730W        W15957  15.895  23.401  14.709
50731W        W15958  27.066   3.347   1.597
50732W        W15959  43.892  33.650  13.932
50733W        W15960  41.535   7.676  11.242
50734W        W15961  16.999  26.626  11.127
50735W        W15962   2.200  17.204   0.701
50736W        W15963  15.406  36.119   2.745
50737W        W15964  32.187  40.972   4.057
50738W        W15965  39.992  39.409  14.231
50739W        W15966  21.196  38.935  13.397
50740W        W15967   1.734  41.373   0.290
50741W        W15968  34.916  36.046  12.327
50742W        W15969  27.044   6.277  14.733
50743W        W15970  27.627  23.390   1.783
50744W        W15971  33.331  27.194   3.569
50745W        W15972  18.477   0.514   4.954
50746W        W15973   6.648  27.664  14.304
50747W        W15974  13.184   4.439  11.602
50748W        W15975  32.081  39.570   4.232
50749W        W15976  33.175  21.969   2.261
50750W        W15977  44.394  37.386  13.429
50751W        W15978  35.138   3.279  10.255
50752W        W15979  17.694   0.259   1.924
50753W        W15980   3.938   9.157   1.312
50754W        W15981  34.952  14.946  10.631
50755W        W15982  42.798  35.985   0.327
50756W        W15983   1.043   9.475  10.986
50757W        W15984  10.901  34.834  13.901
50758W        W15985  12.064  25.542   3.639
50759W        W15986   9.026   6.561  11.993
50760W        W15987   6.226  43.453  12.531
50761W        W15988  12.699  33.419  11.165
50762W        W15989  35.718  26.651  13.093
50763W        W15990  26.963  41.746  12.439
50764W        W15991  32.974  29.174  11.584
50765W        W15992  16.713  21.523   3.136
50766W        W15993   9.662  18.155   3.336
50767W        W15994  39.994  32.156   4.249
50768W        W15995  11.520  13.754   0.364
50769W        W15996  21.511  30.947   0.514
50770W        W15997   2.209  30.082   3.638
50771W        W15998  10.773  42.794  11.630
50772W        W15999  43.776  36.103   2.340
50773W        W16000   4.379  17.257   4.176
50774W        W16001   7.934  41.365  11.616
50775W        W16002  10.383   0.821  10.384
50776W        W16003  41.895  25.416   1.878
50777W        W16004  25.493  44.276  11.721
50778W        W16005  21.644  27.581  14.859
50779W        W16006   4.789  28.515   4.448
50780W        W16007  10.149  36.672  14.921
50781W        W16008   7.103  13.886  14.707
50782W        W16009  27.981  13.371   2.786
50783W        W16010  42.638  35.685   3.599
50784W        W16011   4.294  37.879   1.653
50785W        W16012  23.197  36.472  12.128
50786W        W16013  27.444  37.956  13.453
50787W        W16014  19.639  33.751   4.270
50788W        W16015  28.617  28.618   3.219
50789W        W16016   3.897  34.437   2.373
50790W        W16017  20.639  29.735  14.775
50791W        W16018  39.222  23.130  10.497
50792W        W16019  21.547  13.824  13.914
50793W        W16020  39.694   7.174   5.478
50794W        W16021   8.886  36.085   0.194
50795W        W16022   3.835  19.960  14.535
50796W        W16023  42.272  32.371   0.191
50797W        W16024  14.068  12.379   3.121
50798W        W16025  44.929  19.734  13.439
50799W        W16026   2.500  11.345  12.171
50800W        W16027  22.449   8.156  13.910
50801W        W16028  39.797  35.103  13.438
50802W        W16029  21.131  13.171  13.375
50803W        W16030  22.987   7.090   3.747
50804W        W16031  28.623  15.361  13.482
50805W        W16032   8.350  17.755   1.665
50806W        W16033  26.122   4.649  14.596
50807W        W16034   3.999   8.710  14.800
50808W        W16035  43.269  11.142  12.703
50809W        W16036  15.787  40.578  11.525
50810W        W16037   3.190  18.996  12.521
50811W        W16038  21.346   6.302   1.850
50812W        W16039  21.684   3.935   4.550
50813W        W16040   4.217  10.673   1.422
50814W        W16041   1.367   3.125   1.614
50815W        W16042  15.046  10.255   2.080
50816W        W16043  35.494  35.400   3.625
50817W        W16044  32.715  43.339  11.029
50818W        W16045  26.512   2.744  14.669
50819W        W16046  19.257  13.281  12.101
50820W        W16047  38.865  25.836   2.607
50821W        W16048  32.684   0.299   1.313
50822W        W16049  38.563  23.092  12.096
50823W        W16050  41.871  24.131  10.770
50824W        W16051  22.463  42.677  12.532
50825W        W16052   1.286  20.418   5.460
50826W        W16053  29.485  38.158   2.594
50827W        W16054  31.658  32.866   4.042
50828W        W16055   2.945   1.788  10.631
50829W        W16056  11.200  24.951   4.204
50830W        W16057  33.969  27.182   4.743
50831W        W16058  17.099   7.284   0.457
50832W        W16059  17.707  19.733  12.383
50833W        W16060  31.510   3.851   1.872
50834W        W16061  38.546  23.128  13.388
50835W        W16062  13.060  25.949  11.171
50836W        W16063   5.227   2.941   4.570
50837W        W16064  31.989  24.067   0.323
50838W        W16065  23.983  29.488  12.917
50839W        W16066   4.724   7.374  11.701
50840W        W16067  26.962  38.378   3.607
50841W        W16068  25.412  22.552   3.707
50842W        W16069  38.825   0.355   0.326
50843W        W16070  20.217  37.097  12.224
50844W        W16071   3.892  13.270  11.285
50845W        W16072  35.432  33.094   3.900
50846W        W16073  43.352  17.914   2.342
50847W        W16074  44.352  38.400  12.662
50848W        W16075  25.214  10.898   4.517
50849W        W16076  24.941   8.718  10.718
50850W        W16077   4.250  19.143   1.473
50851W        W16078  27.983  13.851  10.768
50852W        W16079  18.540  20.259   0.976
50853W        W16080   1.835  41.853  11.179
50854W        W16081  26.456  10.520  10.766
50855W        W16082   1.299  41.821   4.649
50856W        W16083   7.418  33.835   4.499
50857W        W16084  21.383  20.754   3.802
50858W        W16085  33.182  30.577  13.817
50859W        W16086  42.267  27.543  10.806
50860W        W16087  16.596  40.053  12.554
50861W        W16088   7.432  11.237  13.109
50862W        W16089  33.425  23.802  11.572
50863W        W16090  27.893  37.274  13.278
50864W        W16091   9.666   6.463  12.914
50865W        W16092   1.848   7.264   4.332
50866W        W16093  39.414  19.612   4.341
50867W        W16094  17.142  39.550   4.088
50868W        W16095  29.085  32.227  13.463
50869W        W16096  39.532  31.656   2.825
50870W        W16097  11.932  11.756   5.113
50871W        W16098  13.316  16.001   3.140
50872W        W16099  42.048   2.806   2.389
50873W        W16100  11.070  11.327   2.531
50874W        W16101  14.188  10.182   0.436
50875W        W16102   4.021  25.503  14.484
50876W        W16103  19.462  30.395   0.808
50877W        W16104  38.482  36.017  12.670
50878W        W16105  28.583  30.936  11.576
50879W        W16106   3.054  32.072   2.374
50880W        W16107   3.411  21.773   0.781
50881W        W16108  41.836  18.071   4.078
50882W        W16109  11.844  35.080   2.685
50883W        W16110  20.332  44.446  11.062
50884W        W16111  28.524  17.470   2.231
50885W        W16112   1.203   5.317   1.123
50886W        W16113  38.648  20.413  12.700
50887W        W16114  31.268  43.578  14.719
50888W        W16115  10.309  19.356  13.482
50889W        W16116  14.356   5.875  14.989
50890W        W16117   7.635  17.623   3.268
50891W        W16118  27.888  43.019   5.078
50892W        W16119  13.505  41.462  12.208
50893W        W16120  14.540  25.474   0.478
50894W        W16121  43.092  35.886   1.451
50895W        W16122  22.745  38.577   1.451
50896W        W16123   9.166  42.775   1.429
50897W        W16124  22.855  29.794   0.394
50898W        W16125  26.893  37.954  13.437
50899W        W16126  35.338  35.545   2.194
50900W        W16127   0.737  16.373   1.221
50901W        W16128  22.678   8.958   3.821
50902W        W16129   2.483  32.716   2.663
50903W        W16130  22.754   1.209   1.702
50904W        W16131  32.024  21.895   3.687
50905W        W16132  24.906  34.972  13.453
50906W        W16133   0.768   6.600  12.237
50907W        W16134  12.825  36.814   1.485
50908W        W16135  25.307  32.992  12.878
50909W        W16136  18.819  44.324   4.023
50910W        W16137   1.747  21.520   1.758
50911W        W16138   4.223  15.931   4.726
50912W        W16139  30.625  13.409  14.573
50913W        W16140   3.457  21.733   1.618
50914W        W16141  28.104  26.468   4.910
50915W        W16142   4.205   7.568   3.320
50916W        W16143   4.793   5.308  10.681
50917W        W16144   1.617  26.683   4.321
50918W        W16145  31.182  33.454   4.258
50919W        W16146   4.834   0.195  13.964
50920W        W16147  18.097  13.640  14.549
50921W        W16148   2.338  18.586   0.046
50922W        W16149  19.367   9.118  14.127
50923W        W16150   2.261  39.514   4.485
50924W        W16151  27.501   9.169  13.143
50925W        W16152  26.928  22.602  12.152
50926W        W16153  17.121  10.418   1.287
50927W        W16154  23.504  27.958   4.784
50928W        W16155   7.708  31.137   1.938
50929W        W16156   3.268  13.217   1.775
50930W        W16157  43.240  36.855  11.163
50931W        W16158  43.829  41.440   1.009
50932W        W16159  10.220  29.533  13.942
50933W        W16160  29.039   0.395  12.106
50934W        W16161   9.037  32.023   3.312
50935W        W16162  20.710  34.983   2.852
50936W        W16163  44.236  33.165  11.580
50937W        W16164  17.370  10.155  13.394
50938W        W16165  21.380   4.108  11.702
50939W        W16166  12.737  17.556  13.905
50940W        W16167   6.235  33.049   4.961
50941W        W16168  21.160  28.673  10.644
50942W        W16169   3.042   2.768  12.442
50943W        W16170  16.790  39.648  14.041
50944W        W16171  27.156   5.232  11.065
50945W        W16172  23.490  21.598  14.310
50946W        W16173  42.341   0.929   2.119
50947W        W16174  42.039  15.016   3.004
50948W        W16175  24.668   4.927   3.671
50949W        W16176   4.926  21.546   4.550
50950W        W16177   7.679   5.139   1.896
50951W        W16178  24.071  30.602   2.184
50952W        W16179  41.839  12.684   3.766
50953W        W16180   5.895   5.664  13.897
50954W        W16181  41.826  35.464  14.862
50955W        W16182   3.904  44.396   0.939
50956W        W16183  39.076  23.945   1.401
50957W        W16184   8.559  39.666   3.276
50958W        W16185   8.206  28.951  14.489
50959W        W16186  29.980  20.570   0.815
50960W        W16187  40.770  32.352   0.933
50961W        W16188   3.773  38.097  12.926
50962W        W16189   9.199  44.265   2.908
50963W        W16190  30.621  11.169  12.069
50964W        W16191   7.853  13.221  11.682
50965W        W16192  33.512  17.312  10.546
50966W        W16193  21.968  44.421   3.639
50967W        W16194  44.278  31.123   2.887
50968W        W16195  37.071  23.664   1.211
50969W        W16196  21.550  34.435   1.813
50970W        W16197  29.340   4.921  13.441
50971W        W16198  15.414  11.495   0.875
50972W        W16199  13.719  29.613  12.171
50973W        W16200  31.893  14.364  10.695
50974W        W16201  16.266  41.788   3.002
50975W        W16202   0.215  42.331   2.337
50976W        W16203  35.535  19.621   2.415
50977W        W16204  42.914   2.014  13.023
50978W        W16205  22.204  14.818   1.029
50979W        W16206   7.134   8.225  13.729
50980W        W16207  39.712   9.116  11.952
50981W        W16208   7.507  24.863   0.215
50982W        W16209  31.860  15.138   4.109
50983W        W16210  11.056  42.469   3.426
50984W        W16211  36.284  11.852   4.262
50985W        W16212  41.815  24.928  14.420
50986W        W16213  29.262   3.772  14.354
50987W        W16214  27.700  24.676   2.104
50988W        W16215   0.017   3.126   0.783
50989W        W16216  15.012  23.703  12.102
50990W        W16217  12.992  16.402  14.126
50991W        W16218  44.269  19.461  11.114
50992W        W16219  18.178  27.992  12.588
50993W        W16220  22.241  32.939   4.254
50994W        W16221  44.864  32.753   1.786
50995W        W16222  29.963  24.247   1.231
50996W        W16223  29.035  23.114  14.097
50997W        W16224  16.090  25.104   1.754
50998W        W16225   6.487  38.316  13.907
50999W        W16226  35.548  28.661   3.660
51000W        W16227   2.957  11.708   4.205
51001W        W16228  36.789   5.401  11.593
51002W        W16229  41.692  10.601  13.509
51003W        W16230  39.121   4.790   0.617
51004W        W16231  20.825  26.218   0.358
51005W        W16232  33.382  24.160  14.597
51006W        W16233  34.394   9.092  11.229
51007W        W16234  11.857   4.084   4.193
51008W        W16235  35.157  33.606  14.477
51009W        W16236   4.028  10.312  10.920
51010W        W16237   5.516  18.265   1.996
51011W        W16238  17.221  38.367   1.193
51012W        W16239  18.130  12.641   0.541
51013W        W16240  26.227  41.238   4.455
51014W        W16241  43.915   9.146   4.288
51015W        W16242  24.761  11.636  14.850
51016W        W16243   1.502  29.091   0.430
51017W        W16244  35.386  23.123  10.481
51018W        W16245  11.324  29.976   9.836
51019W        W16246  39.125  40.941  12.673
51020W        W16247   7.683  11.644   3.198
51021W        W16248  11.924  34.212  10.749
51022W        W16249  10.738  11.948   4.264
51023W        W16250   5.719  44.662   3.730
51024W        W16251  43.348  18.384  12.359
51025W        W16252   6.713  25.094  12.086
51026W        W16253  10.773   1.400   0.442
51027W        W16254  28.689  32.230  11.019
51028W        W16255  20.735  38.517   2.647
51029W        W16256  43.159  24.607   2.359
51030W        W16257  17.629  41.156  12.170
51031W        W16258  44.605   2.885   4.700
51032W        W16259  31.345  26.241   0.636
51033W        W16260  12.694   3.492  13.585
51034W        W16261  34.331   0.843   2.930
51035W        W16262  25.796  18.608   2.787
51036W        W16263  31.640  26.138  14.656
51037W        W16264  36.349   8.309  13.416
51038W        W16265  11.395  38.298  14.911
51039W        W16266   9.543  30.088  12.739
51040W        W16267  12.011  11.066   1.503
51041W        W16268  12.591  17.777  13.451
51042W        W16269  42.321  31.166  14.827
51043W        W16270  27.002  29.086   2.575
51044W        W16271  35.454   9.875   3.182
51045W        W16272  17.203  10.917  13.821
51046W        W16273  40.911  10.840   0.181
51047W        W16274  17.160   1.545  12.062
51048W        W16275  35.965   6.513  10.267
51049W        W16276  29.331  44.513   3.736
51050W        W16277   3.707  38.294  11.918
51051W        W16278   9.320   8.614   1.109
51052W        W16279  27.934  32.556  11.089
51053W        W16280  26.489   7.919  11.515
51054W        W16281  33.025   9.624  12.882
51055W        W16282   9.734  23.307   4.663
51056W        W16283  39.522  14.315  11.712
51057W        W16284  11.421  12.574  12.984
51058W        W16285  10.009  10.641   0.880
51059W        W16286  15.822  22.725  12.508
51060W        W16287  39.182   8.226   3.137
51061W        W16288  25.929  22.440  12.862
51062W        W16289  16.237  20.957  12.160
51063W        W16290   0.266  33.808  12.206
51064W        W16291  44.486  11.477   3.584
51065W        W16292  31.576   0.372  10.785
51066W        W16293  37.452   6.436   2.193
51067W        W16294  23.045  14.066   1.777
51068W        W16295  11.418  24.143   4.242
51069W        W16296  31.476  42.992  11.996
51070W        W16297  24.949  26.215   1.708
51071W        W16298  30.527  44.521   4.001
51072W        W16299  18.635  42.423   1.128
51073W        W16300   7.884  44.046  11.170
51074W        W16301   8.707   8.126   3.759
51075W        W16302  14.684  29.674  10.777
51076W        W16303  11.124  15.761   1.495
51077W        W16304   0.727  26.123   1.343
51078W        W16305  17.891  38.797   4.515
51079W        W16306  33.166  29.419   4.208
51080W        W16307  30.419  12.786  12.832
51081W        W16308  24.479  23.272  10.462
51082W        W16309  31.838   6.239  11.657
51083W        W16310   6.632  12.736  13.871
51084W        W16311  31.559  40.692  13.099
51085W        W16312  26.201  34.705  11.236
51086W        W16313  31.363  28.159   2.842
51087W        W16314  26.690  38.959  12.940
51088W        W16315  16.267  43.399   2.243
51089W        W16316  29.045   9.334   3.702
51090W        W16317  27.291  15.077  13.736
51091W        W16318  25.625  10.392   3.189
51092W        W16319   9.076  26.757  10.878
51093W        W16320   4.203  34.676  10.922
51094W        W16321  21.062  14.330   1.706
51095W        W16322  16.394  20.066   2.333
51096W        W16323  38.727  29.566  12.202
51097W        W16324   6.123  20.024   2.297
51098W        W16325  39.816  22.394   2.916
51099W        W16326  38.836  28.695  14.744
51100W        W16327  39.439   3.793  10.533
51101W        W16328  15.564  10.068  13.856
51102W        W16329  14.050  28.156   2.212
51103W        W16330  25.704   3.752  14.936
51104W        W16331  35.382   2.699  11.794
51105W        W16332  22.308  34.899   2.076
51106W        W16333  35.644  34.608  11.087
51107W        W16334  21.782  30.456   5.059
51108W        W16335  13.513  14.383  12.902
51109W        W16336  27.512  20.302  13.057
51110W        W16337  43.767  31.101  12.091
51111W        W16338  23.162  22.976  14.418
51112W        W16339  14.834  42.791   4.641
51113W        W16340  34.660  19.030   1.374
51114W        W16341   0.881  22.004   0.720
51115W        W16342  33.043  21.454   2.896
51116W        W16343  22.306  44.688  11.524
51117W        W16344  40.360  36.047  12.179
51118W        W16345  27.402  11.849   4.162
51119W        W16346  26.007  22.790  12.428
51120W        W16347  43.860  34.486   2.896
51121W        W16348   7.186  19.635  13.768
51122W        W16349  25.711   7.247   1.230
51123W        W16350  39.965  35.683   3.305
51124W        W16351  20.789  18.240   4.052
51125W        W16352  37.452  32.528   4.606
51126W        W16353  40.546   6.633   0.847
51127W        W16354  35.495  16.276  10.676
51128W        W16355   6.148  36.157   2.168
51129W        W16356  10.761  21.183   3.318
51130W        W16357  34.325  42.597  13.554
51131W        W16358  24.396   9.161  11.173
51132W        W16359  32.630  15.755  13.898
51133W        W16360   1.728   1.908  11.155
51134W        W16361  23.085   1.686  12.100
51135W        W16362  38.840  16.083  13.723
51136W        W16363  18.479  26.171  12.839
51137W        W16364   2.232  23.966   3.770
51138W        W16365  28.532  28.157   0.295
51139W        W16366   7.846  28.030   2.609
51140W        W16367  28.542  21.873  13.904
51141W        W16368  22.510  38.892   1.032
51142W        W16369  43.040  17.541  11.817
51143W        W16370  20.132   7.598   1.791
51144W        W16371  32.165   1.762  13.462
51145W        W16372  17.865  37.066  13.857
51146W        W16373  40.031  24.780  13.566
51147W        W16374  18.208   8.570   2.193
51148W        W16375  33.100  21.274   0.842
51149W        W16376   2.340  32.505  12.054
51150W        W16377  27.474  18.957   0.880
51151W        W16378  39.793   2.012  14.880
51152W        W16379  24.635  31.390   0.378
51153W        W16380  11.693  38.469   3.611
51154W        W16381  42.612  14.778   3.665
51155W        W16382  12.066  17.636  10.803
51156W        W16383  10.165  19.000   0.890
51157W        W16384  22.812  40.908   2.339
51158W        W16385  32.128  34.627  14.396
51159W        W16386  23.151  37.746  12.442
51160W        W16387  24.113  12.430  12.033
51161W        W16388  38.633  20.349   1.005
51162W        W16389   9.862   9.890  11.847
51163W        W16390  16.274  12.623   0.412
51164W        W16391  42.413  29.393  12.013
51165W        W16392   1.198  37.338  14.994
51166W        W16393  27.782   5.974  12.529
51167W        W16394  19.445  33.995   1.277
51168W        W16395  12.368  15.239   0.359
51169W        W16396  26.761  14.041  13.109
51170W        W16397   8.369  27.499   1.094
51171W        W16398  30.299   8.632  12.975
51172W        W16399  13.717  39.798   3.699
51173W        W16400  10.233  23.236  13.988
51174W        W16401  20.306  36.515   2.209
51175W        W16402  23.102  26.508  13.015
51176W        W16403   3.907  19.342   0.169
51177W        W16404  14.965  34.302   1.583
51178W        W16405  13.389  23.045  12.157
51179W        W16406   1.380  13.033   4.106
51180W        W16407  11.652   4.457   1.839
51181W        W16408   8.727  23.466  14.923
51182W        W16409  28.600  39.731   0.285
51183W        W16410  42.967  18.154  14.477
51184W        W16411  25.548   4.662   2.323
51185W        W16412  31.778  14.823   3.718
51186W        W16413  33.453  13.343  12.691
51187W        W16414  18.619  23.918   4.396
51188W        W16415  31.984  25.522   0.716
51189W        W16416  17.185  20.061   1.155
51190W        W16417   3.964  35.353  14.275
51191W        W16418  18.188  43.086   0.352
51192W        W16419  44.759  22.417  10.258
51193W        W16420   8.880  27.974  10.681
51194W        W16421  37.008  29.596  10.744
51195W        W16422  39.632  41.885   3.045
51196W        W16423  23.293  12.070  11.739
51197W        W16424  40.314  21.911  14.790
51198W        W16425  15.672  26.607  13.150
51199W        W16426  36.068   1.358   0.361
51200W        W16427  27.635  28.955   4.667
51201W        W16428  35.882   3.099  13.026
51202W        W16429  20.282  26.580  13.101
51203W        W16430  13.142   0.012   3.059
51204W        W16431   1.757  23.707  14.159
51205W        W16432   5.275  27.656  11.429
51206W        W16433  36.082  11.666   1.838
51207W        W16434  22.446  36.663   1.321
51208W        W16435  23.558  26.663  13.354
51209W        W16436   1.631   4.053   4.924
51210W        W16437  25.038  12.760   4.363
51211W        W16438  17.134   9.909  10.977
51212W        W16439  31.478  15.662  11.637
51213W        W16440  44.558  32.364   4.622
51214W        W16441   3.989  33.943   0.398
51215W        W16442  36.000  31.846  14.048
51216W        W16443   9.439  34.332  11.685
51217W        W16444  36.095  43.199  13.467
51218W        W16445   4.442  32.970  13.033
51219W        W16446  13.637  15.175   2.353
51220W        W16447  36.334  31.603   4.082
51221W        W16448  28.164  10.164   2.161
51222W        W16449   3.782  32.071  12.421
51223W        W16450  12.525   5.462  14.535
51224W        W16451  41.271  36.024   0.262
51225W        W16452   8.241  20.544   3.874
51226W        W16453   9.138  25.479  13.049
51227W        W16454  39.247  31.645   4.163
51228W        W16455  25.000  37.560  14.226
51229W        W16456  25.247  39.798  11.446
51230W        W16457  10.763  21.011  13.932
51231W        W16458  38.831  44.878  14.103
51232W        W16459  11.567  25.996   1.724
51233W        W16460  23.912  43.883  11.350
51234W        W16461  27.282  25.635  12.035
51235W        W16462   7.075  41.561  11.926
51236W        W16463  23.394  31.075  12.809
51237W        W16464  18.559  26.197  13.405
51238W        W16465   2.999   5.429   2.949
51239W        W16466  31.410  38.521   4.220
51240W        W16467  17.316  30.471  11.984
51241W        W16468   2.737  31.882  12.367
51242W        W16469  16.180  35.857  14.970
51243W        W16470  39.042  28.113   0.376
51244W        W16471   2.308   9.355   3.231
51245W        W16472  36.804  31.807  13.115
51246W        W16473  26.133  41.292   1.288
51247W        W16474  24.538   9.468   1.637
51248W        W16475  43.224  28.920  12.428
51249W        W16476  33.520  15.487   0.471
51250W        W16477  34.868  17.564  14.741
51251W        W16478  19.500  39.050  11.259
51252W        W16479  28.167  33.246   4.523
51253W        W16480  30.686  13.280   3.320
51254W        W16481  18.951  44.586   1.476
51255W        W16482   8.058  32.117  12.876
51256W        W16483  33.161  44.355   1.277
51257W        W16484  13.629  12.855   3.161
51258W        W16485  43.949  26.632  13.983
51259W        W16486   7.286  36.453  12.165
51260W        W16487  11.713  20.042   1.844
51261W        W16488  43.205  16.176  11.654
51262W        W16489  41.058  43.744  13.776
51263W        W16490   7.510  26.673  11.146
51264W        W16491  33.298  34.232   1.229
51265W        W16492   1.354   1.037   0.941
51266W        W16493  15.174  17.614  14.999
51267W        W16494   9.661   2.658  12.562
51268W        W16495  33.654  28.694  11.990
51269W        W16496  36.023  40.709   0.938
51270W        W16497  26.538  27.559   1.429
51271W        W16498   8.384   9.376   1.263
51272W        W16499  13.881  14.063   4.579
51273W        W16500  41.265   3.275   4.314
51274W        W16501  35.402  10.038   0.439
51275W        W16502  26.938  25.587   3.616
51276W        W16503  38.216  32.474  14.972
51277W        W16504   8.736  37.256   2.817
51278W        W16505   5.007  31.647  12.419
51279W        W16506   5.501  23.240   0.169
51280W        W16507  31.678   3.378   2.764
51281W        W16508  22.075  25.766   4.802
51282W        W16509  33.425  37.414  14.467
51283W        W16510  30.660   4.687  14.182
51284W        W16511  24.899   7.583  12.484
51285W        W16512  24.100  44.800  10.693
51286W        W16513  22.355  39.306  11.623
51287W        W16514  14.925  24.473  12.950
51288W        W16515  24.230  15.961   0.613
51289W        W16516   2.314  33.910   4.582
51290W        W16517  22.074  32.533   4.812
51291W        W16518  15.650  44.518   3.293
51292W        W16519  13.359  38.882   3.560
51293W        W16520   8.181  43.075   3.738
51294W        W16521  28.869  40.460  10.215
51295W        W16522  33.002  20.545   0.034
51296W        W16523  33.914  28.727  14.817
51297W        W16524  27.540  28.565  13.287
51298W        W16525  44.323  27.084  11.759
51299W        W16526   7.183  18.279   1.224
51300W        W16527  14.470  40.908   3.602
51301W        W16528  44.774  44.826  10.642
51302W        W16529  21.818  42.028  11.673
51303W        W16530  12.193   1.178  11.746
51304W        W16531   3.894   9.299  12.920
51305W        W16532  21.795  35.013  12.063
51306W        W16533  36.356   0.019  11.661
51307W        W16534  41.410  37.110  12.890
51308W        W16535  10.340   2.033  12.529
51309W        W16536  28.381  38.269   0.430
51310W        W16537  16.486  32.005   0.965
51311W        W16538  10.681  19.821   4.953
51312W        W16539  35.984  16.428  14.246
51313W        W16540  44.510  39.821  14.716
51314W        W16541  33.237  38.521   2.047
51315W        W16542   8.881  27.423   2.664
51316W        W16543   1.539   8.796   0.187
51317W        W16544  44.346  25.716   1.876
51318W        W16545  25.848  36.390   2.413
51319W        W16546  14.700   6.886  13.463
51320W        W16547  35.195  39.737   9.782
51321W        W16548  11.821  37.369  13.435
51322W        W16549  24.920  20.493   1.469
51323W        W16550  30.976  38.370  10.469
51324W        W16551  14.540  19.210   2.556
51325W        W16552   4.656   0.403   4.106
51326W        W16553  43.435  44.969  13.302
51327W        W16554   3.534   5.979   1.266
51328W        W16555   7.623   0.575   1.354
51329W        W16556   9.702  18.016  14.479
51330W        W16557  43.069  40.356   3.961
51331W        W16558   4.332  32.389   1.181
51332W        W16559  23.511  19.271  11.315
51333W        W16560   6.788   5.455   2.915
51334W        W16561  19.439  13.117  12.543
51335W        W16562   6.657   2.957  10.082
51336W        W16563  21.768  12.847  10.839
51337W        W16564  30.969  30.118  10.511
51338W        W16565  35.078   3.183  14.822
51339W        W16566  41.389  28.030  13.963
51340W        W16567  28.729  33.206  13.971
51341W        W16568  39.028  11.894   3.764
51342W        W16569  34.835   5.407   0.980
51343W        W16570  44.671   6.307  11.605
51344W        W16571  26.526   7.125  12.080
51345W        W16572  12.207  40.058  13.070
51346W        W16573   0.058   4.389   0.735
51347W        W16574   3.824  40.051  13.125
51348W        W16575  25.169  11.671  13.531
51349W        W16576  19.493  28.935  13.115
51350W        W16577  43.418  33.679  13.125
51351W        W16578  28.843  20.464  12.526
51352W        W16579  18.556   9.462  10.738
51353W        W16580   9.907   3.698   1.758
51354W        W16581  38.021  32.155   3.564
51355W        W16582   9.187  17.655   4.594
51356W        W16583  34.675  36.364  13.111
51357W        W16584  15.318  18.839  11.260
51358W        W16585   3.337  25.727   1.267
51359W        W16586  13.077  10.053   4.533
51360W        W16587  23.092   0.993  14.864
51361W        W16588  11.564  16.113  13.877
51362W        W16589  44.702  24.029   1.605
51363W        W16590   4.435  21.197  11.987
51364W        W16591  34.139  23.122  12.565
51365W        W16592  26.058  42.301   4.633
51366W        W16593  18.258   6.253   0.079
51367W        W16594  42.962  18.972  13.334
51368W        W16595   4.993   1.574  12.882
51369W        W16596   5.377  38.153   4.096
51370W        W16597  11.544   8.314   1.424
51371W        W16598  31.921  27.303   1.711
51372W        W16599   0.100  19.994  12.155
51373W        W16600  38.914  25.288   1.753
51374W        W16601  38.903  33.953   1.635
51375W        W16602  27.596  28.446   4.590
51376W        W16603  30.074  12.224  11.135
51377W        W16604  31.863  34.264  12.107
51378W        W16605   2.533  36.474   2.790
51379W        W16606  44.853  24.093  11.017
51380W        W16607  41.613  30.725  10.642
51381W        W16608   9.000  31.047   3.811
51382W        W16609  32.090  26.429   2.989
51383W        W16610  28.019   7.972   1.648
51384W        W16611  12.698  11.159   0.927
51385W        W16612  19.578  33.478   4.696
51386W        W16613   8.267  37.869  11.047
51387W        W16614  37.321  42.248  13.541
51388W        W16615  15.649  30.167   3.055
51389W        W16616  17.113  13.036  12.148
51390W        W16617  43.072  25.291   3.794
51391W        W16618   3.381  32.675   2.274
51392W        W16619  40.897  20.509  12.772
51393W        W16620  44.838   2.070   0.016
51394W        W16621  12.316   7.398   0.262
51395W        W16622  29.432  23.809   3.328
51396W        W16623  22.521   4.813  13.012
51397W        W16624   1.708  10.279   0.518
51398W        W16625   8.681  26.965  10.620
51399W        W16626  38.318   4.329  13.419
51400W        W16627  18.667  18.350  13.950
51401W        W16628  28.015  28.487  12.106
51402W        W16629  10.715  18.158   2.158
51403W        W16630  36.339  32.036  14.436
51404W        W16631  39.638  36.389   2.746
51405W        W16632  44.025   0.848   4.468
51406W        W16633  32.721  43.180  14.079
51407W        W16634  38.388  13.208   4.651
51408W        W16635  12.824  29.496  11.587
51409W        W16636   5.455  29.925  14.264
51410W        W16637  34.613  40.963   2.293
51411W        W16638   2.715  28.078   1.429
51412W        W16639  16.686  25.072   3.788
51413W        W16640  37.078  30.025   2.986
51414W        W16641  20.319   8.647  11.662
51415W        W16642  30.124  30.052   0.888
51416W        W16643  31.099  26.224   2.254
51417W        W16644   2.559   4.838   4.353
51418W        W16645   4.905  40.922   3.495
51419W        W16646  14.318  19.193   3.887
51420W        W16647  10.923  34.772  12.514
51421W        W16648  17.430   2.776  11.678
51422W        W16649  24.511  41.450   1.062
51423W        W16650  41.328  35.296  11.679
51424W        W16651  42.031   8.648   0.992
51425W        W16652  39.026  14.568  11.513
51426W        W16653  19.602  10.165   4.559
51427W        W16654  13.429  26.638   2.212
51428W        W16655  13.729   5.111  14.751
51429W        W16656  31.069  37.587   2.315
51430W        W16657  25.432  35.285   4.577
51431W        W16658  10.804  39.312  13.957
51432W        W16659  29.067  23.999   4.761
51433W        W16660   6.888   5.050   1.413
51434W        W16661  37.118  24.594   1.269
51435W        W16662  22.714  26.876   3.792
51436W        W16663  43.206   0.095   2.213
51437W        W16664  21.676  42.923  12.263
51438W        W16665  21.434  34.912  12.949
51439W        W16666  15.064  23.780  11.201
51440W        W16667   4.898  32.648  13.269
51441W        W16668  29.874  32.686   3.748
51442W        W16669  21.112   1.400  13.638
51443W        W16670  35.177  24.987  13.442
51444W        W16671   6.236  31.511  10.983
51445W        W16672  23.772   8.998   1.077
51446W        W16673  29.426  31.668  13.423
51447W        W16674  13.474  31.020   0.429
51448W        W16675  34.920   5.382   3.720
51449W        W16676  42.420   5.675  13.229
51450W        W16677  24.222  39.806   4.130
51451W        W16678  38.877   8.857   2.354
51452W        W16679  14.796  25.448   0.029
51453W        W16680  40.437   5.201   3.148
51454W        W16681  25.275  40.883  13.419
51455W        W16682  28.684   5.732   4.316
51456W        W16683  26.970  40.918   2.659
51457W        W16684  14.128  21.984   4.628
51458W        W16685   3.431  17.196  12.538
51459W        W16686   4.935   3.206  14.781
51460W        W16687  10.409  27.518   2.751
51461W        W16688  28.689  43.342  14.846
51462W        W16689   5.244  12.651  13.029
51463W        W16690  10.088  43.295  13.483
51464W        W16691  15.083   8.749  11.052
51465W        W16692  40.311  35.554   1.317
51466W        W16693  15.726  26.981  14.001
51467W        W16694  34.180  13.572  13.970
51468W        W16695  21.738  19.912   2.302
51469W        W16696  10.088  28.511   0.372
51470W        W16697  25.983  34.391   3.011
51471W        W16698  35.367   3.830   2.898
51472W        W16699   0.821  44.341   0.347
51473W        W16700  43.849   0.329  12.151
51474W        W16701  12.720  31.658  14.421
51475W        W16702  27.505   8.402   4.031
51476W        W16703  40.556   9.706  10.177
51477W        W16704  27.941  28.505   4.969
51478W        W16705  40.019   8.847  13.365
51479W        W16706  25.386  44.776  11.084
51480W        W16707  11.492  44.282   2.820
51481W        W16708   9.255   2.345  12.728
51482W        W16709  44.193   9.190   1.936
51483W        W16710  30.702  27.870   0.861
51484W        W16711   5.819  13.607  11.697
51485W        W16712   0.708  25.641  13.596
51486W        W16713  26.762   1.251  12.580
51487W        W16714  37.444  42.375  12.078
51488W        W16715  42.588   6.124  11.990
51489W        W16716  25.278  14.168  10.681
51490W        W16717  29.110  43.805   3.622
51491W        W16718   0.892   8.475  13.154
51492W        W16719  22.599  20.283   0.872
51493W        W16720   1.318  33.195  13.598
51494W        W16721  36.589  22.127  13.981
51495W        W16722  13.840   3.204  14.404
51496W        W16723  27.387  13.189  12.857
51497W        W16724  35.035  28.899  12.831
51498W        W16725   6.255   2.223   4.895
51499W        W16726  36.370  39.587  11.541
51500W        W16727  17.585  38.608  12.884
51501W        W16728  37.673  30.075  13.481
51502W        W16729  22.561  38.813  13.834
51503W        W16730  30.008  10.695   2.124
51504W        W16731   2.200  11.529   4.157
51505W        W16732  31.069   5.184  11.148
51506W        W16733  40.034   7.489  11.733
51507W        W16734   4.550  32.183  14.481
51508W        W16735   6.426  21.569  13.961
51509W        W16736  26.557  19.538   2.164
51510W        W16737  36.096  20.581  11.614
51511W        W16738  15.980  14.169  14.643
51512W        W16739   6.739  43.354   0.423
51513W        W16740  14.339  24.281   4.064
51514W        W16741  24.339   9.809  11.634
51515W        W16742  10.997  16.563  11.676
51516W        W16743  27.806  25.711  11.114
51517W        W16744  43.444   4.459   0.268
51518W        W16745  33.624  14.722   2.777
51519W        W16746  27.358  39.744   4.143
51520W        W16747  30.114  14.900   1.066
51521W        W16748  13.853  19.530  12.996
51522W        W16749  28.225  31.755  12.386
51523W        W16750  21.283  28.595   3.319
51524W        W16751  40.875  11.493   2.572
51525W        W16752  36.439   1.549  11.550
51526W        W16753  41.372  24.401   2.319
51527W        W16754  41.555  15.812  13.006
51528W        W16755   9.611   1.722  11.283
51529W        W16756   3.757  16.713  13.436
51530W        W16757  39.196  39.067   4.132
51531W        W16758  29.298  14.378   2.116
51532W        W16759  35.385  37.975   1.872
51533W        W16760  14.211  37.877   4.372
51534W        W16761   8.873  31.834   4.910
51535W        W16762  32.478  17.054  13.028
51536W        W16763  10.535  24.274  11.091
51537W        W16764  13.314   9.943   4.991
51538W        W16765   2.374   3.682   2.719
51539W        W16766  39.340   7.297  13.433
51540W        W16767   0.835   7.116  12.129
51541W        W16768  41.098  35.141   2.229
51542W        W16769   3.395  33.858   1.858
51543W        W16770  14.922  35.592  11.825
51544W        W16771  36.824  12.309  10.762
51545W        W16772  39.439   0.818  12.982
51546W        W16773  26.703   2.025  12.092
51547W        W16774  41.127   2.972  13.050
51548W        W16775   1.009  19.634   0.530
51549W        W16776   8.293  10.605   4.345
51550W        W16777   4.711  30.026  14.052
51551W        W16778  17.714  29.551  14.690
51552W        W16779  37.864  42.853   3.693
51553W        W16780  35.436  23.056  11.392
51554W        W16781  29.433   2.776   3.705
51555W        W16782   8.916   8.358   0.901
51556W        W16783   0.328   8.021  12.430
51557W        W16784   0.849  12.094   3.234
51558W        W16785  20.192  40.076  11.564
51559W        W16786   1.527   7.948   2.742
51560W        W16787  27.074   5.227   1.152
51561W        W16788  36.065   3.866  12.411
51562W        W16789  40.456  33.501  10.012
51563W        W16790  14.178   8.220   3.225
51564W        W16791  17.502   8.726   3.138
51565W        W16792  33.559  36.581  13.031
51566W        W16793  34.870  17.847  14.305
51567W        W16794  13.186   5.088  11.228
51568W        W16795  13.023   6.354   0.397
51569W        W16796  42.553  14.620   1.221
51570W        W16797  19.605   6.711   2.728
51571W        W16798  38.582   3.293  14.122
51572W        W16799  27.398  23.518   0.859
51573W        W16800  42.853  13.336   0.714
51574W        W16801   3.632  39.921   2.742
51575W        W16802  14.074   9.582   4.024
51576W        W16803  16.545  27.509  12.953
51577W        W16804  12.645  16.490  13.748
51578W        W16805  41.692  41.836  11.686
51579W        W16806  14.593   0.951  13.659
51580W        W16807   4.014  36.446   1.689
51581W        W16808  22.939  37.458  13.490
51582W        W16809  18.340  24.081  14.537
51583W        W16810  27.416  28.143   2.411
51584W        W16811  22.104  39.745  13.794
51585W        W16812  10.480  12.675  11.558
51586W        W16813   2.251  11.647  14.757
51587W        W16814  43.160  38.415  11.133
51588W        W16815  12.913   6.566   3.104
51589W        W16816  21.715  38.362   0.955
51590W        W16817  35.271  36.290   0.846
51591W        W16818   3.765  15.721  12.053
51592W        W16819  17.208  11.378   4.870
51593W        W16820  29.976  17.998  14.801
51594W        W16821  11.188  21.523  13.357
51595W        W16822  37.570  31.906   2.813
51596W        W16823  10.018  43.072   2.675
51597W        W16824  15.665   7.463   3.799
51598W        W16825  16.498  21.361  14.847
51599W        W16826  42.041  26.923   3.180
51600W        W16827  15.202  10.322  12.089
51601W        W16828  25.401  34.001   1.940
51602W        W16829  12.815  18.353  11.701
51603W        W16830  13.354  43.067  13.359
51604W        W16831   7.889  35.845   1.847
51605W        W16832  33.736  34.545  12.639
51606W        W16833  26.451  24.043  14.335
51607W        W16834  14.528  25.015   0.116
51608W        W16835  38.703  19.222  13.425
51609W        W16836  35.843   4.438   0.692
51610W        W16837  42.532  31.580   1.437
51611W        W16838  22.699  21.032  12.432
51612W        W16839  17.760   1.269  10.643
51613W        W16840   0.450   6.479   1.864
51614W        W16841  16.600  11.990  12.684
51615W        W16842  37.328  40.677  12.824
51616W        W16843  23.643  44.675   4.938
51617W        W16844   2.973  43.546  12.569
51618W        W16845  38.103  14.787   4.783
51619W        W16846  43.989   1.755  12.834
51620W        W16847  32.527  17.773  10.676
51621W        W16848  13.647  38.046  13.900
51622W        W16849  23.148  37.841   4.406
51623W        W16850   5.350  32.784  13.032
51624W        W16851   1.464  22.358  12.250
51625W        W16852  28.998  37.938   2.654
51626W        W16853   2.368  26.610   0.813
51627W        W16854   3.319   1.419  10.640
51628W        W16855   7.087  13.268  11.034
51629W        W16856  25.486  38.010  13.373
51630W        W16857   0.667  22.436   4.502
51631W        W16858  20.085  31.496  13.404
51632W        W16859  32.204  14.717  12.575
51633W        W16860   4.952  14.081   1.435
51634W        W16861  40.426  37.070  14.144
51635W        W16862   4.802  25.637  12.037
51636W        W16863  33.155  42.812  14.913
51637W        W16864  36.545   4.693   2.696
51638W        W16865  36.853  35.844   0.848
51639W        W16866  32.315  25.440  11.706
51640W        W16867  32.091   7.812   0.363
51641W        W16868  44.750   7.176  14.916
51642W        W16869  32.827  25.947  14.326
51643W        W16870  17.826   4.448   2.158
51644W        W16871  13.872  34.386   0.700
51645W        W16872   6.569  43.634  13.151
51646W        W16873  44.271  17.298   3.345
51647W        W16874  36.403  38.530  12.833
51648W        W16875  13.251  29.454   4.919
51649W        W16876  16.386  38.489  12.119
51650W        W16877  44.940   2.672  10.807
51651W        W16878  12.684   0.915   2.339
51652W        W16879   6.203   0.248  10.252
51653W        W16880  15.419  30.171  14.746
51654W        W16881  32.862  18.463   1.337
51655W        W16882  32.457  27.073  13.420
51656W        W16883  38.880  30.156   1.466
51657W        W16884  44.794  43.557  11.258
51658W        W16885   8.245   8.636   0.864
51659W        W16886  14.350   9.140   0.639
51660W        W16887  42.482   5.765  11.223
51661W        W16888  23.691  31.527   4.552
51662W        W16889  24.854  44.566   1.893
51663W        W16890  27.144  20.576  10.746
51664W        W16891  31.879  16.315   0.915
51665W        W16892  41.272  41.987  14.999
51666W        W16893  31.940  25.327  12.140
51667W        W16894  39.954  43.047  14.571
51668W        W16895  36.796  27.943   3.687
51669W        W16896  35.424  37.257  14.809
51670W        W16897  10.419  42.369  11.660
51671W        W16898  38.056  18.076   4.042
51672W        W16899  29.172  43.334   1.893
51673W        W16900  25.640  22.231  10.652
51674W        W16901   9.327   4.235   1.302
51675W        W16902   2.855   2.207   0.416
51676W        W16903  14.199   1.839  12.621
51677W        W16904  24.984  32.554  12.160
51678W        W16905   4.622  26.221  12.496
51679W        W16906  20.131   3.105  11.149
51680W        W16907  19.966  41.587  11.671
51681W        W16908  34.498  42.404  12.031
51682W        W16909  29.283  26.951   1.844
51683W        W16910  39.058  14.665   0.343
51684W        W16911  25.382  35.145   0.369
51685W        W16912  36.913   3.040   1.261
51686W        W16913  30.041  12.219  10.253
51687W        W16914  17.004   1.947  11.184
51688W        W16915  33.798  26.286   5.064
51689W        W16916   7.405  34.411  13.978
51690W        W16917  24.618   3.653   1.183
51691W        W16918  34.479  24.894  14.980
51692W        W16919  27.523  24.820   0.741
51693W        W16920  35.211  25.246   1.394
51694W        W16921  37.334   4.897  14.834
51695W        W16922  24.787   3.832  12.425
51696W        W16923  15.223  29.691   1.276
51697W        W16924   4.964   5.137   2.785
51698W        W16925  20.511  15.646   0.669
51699W        W16926  30.127  44.522  10.868
51700W        W16927  43.641  44.237  11.491
51701W        W16928  12.787  13.045  12.348
51702W        W16929  39.275  29.094   4.527
51703W        W16930   2.775  27.038   0.244
51704W        W16931  25.250  11.494  10.873
51705W        W16932  37.763  40.870  13.582
51706W        W16933   3.951  34.206   4.459
51707W        W16934  20.530  25.088  14.543
51708W        W16935  19.487  14.115  12.349
51709W        W16936   0.281   1.454  13.114
51710W        W16937  39.540  20.620  11.081
51711W        W16938  25.468  42.349   3.345
51712W        W16939  19.663  18.337   4.642
51713W        W16940  15.934   5.017   9.819
51714W        W16941  38.478   2.366   4.643
51715W        W16942   6.478  39.636   1.641
51716W        W16943  17.763   0.902   2.548
51717W        W16944  40.629  39.961  14.233
51718W        W16945   3.127  40.747  10.715
51719W        W16946   5.050  35.595   2.928
51720W        W16947   3.984  25.195  11.472
51721W        W16948  18.633  20.722  14.485
51722W        W16949  22.894  10.719  12.743
51723W        W16950  35.580  18.978  10.722
51724W        W16951   8.782  31.474  11.723
51725W        W16952  43.210  23.903  12.609
51726W        W16953   2.784  18.725   3.101
51727W        W16954   4.024  29.100   3.626
51728W        W16955  40.692  34.306   2.698
51729W        W16956   7.490  25.578  12.035
51730W        W16957  35.047  35.535   2.902
51731W        W16958  32.060  31.747   0.386
51732W        W16959  15.910  11.947   1.277
51733W        W16960  34.288  35.823   1.361
51734W        W16961  10.113  44.066   3.792
51735W        W16962  13.646  31.608  14.355
51736W        W16963   8.739  16.286   5.354
51737W        W16964   7.781  12.776  14.544
51738W        W16965  16.606  26.854   5.062
51739W        W16966  42.074  28.138   4.171
51740W        W16967  18.615  32.220  11.201
51741W        W16968  26.770   6.903   4.380
51742W        W16969  17.132   1.500  13.865
51743W        W16970  37.389   2.299  12.839
51744W        W16971  21.079  29.843  12.968
51745W        W16972  34.399  24.071   4.831
51746W        W16973  28.015   3.245   1.917
51747W        W16974  11.774  32.602  12.860
51748W        W16975  30.713  10.412   1.132
51749W        W16976  24.919  20.041  12.202
51750W        W16977  13.047  44.966   0.334
51751W        W16978  14.926  30.304  14.954
51752W        W16979   5.026  42.983   4.545
51753W        W16980   2.898  23.784   3.098
51754W        W16981  26.630  14.114  14.951
51755W        W16982  42.179  44.846   1.338
51756W        W16983  32.664  34.328  14.935
51757W        W16984   7.464  36.589  12.630
51758W        W16985   6.194  32.081  13.505
51759W        W16986  40.870  16.414  10.412
51760W        W16987  24.208  17.322   2.209
51761W        W16988  43.227  30.573  14.453
51762W        W16989  31.111  32.839   3.199
51763W        W16990   1.324  28.918  14.517
51764W        W16991   7.638   1.134   1.465
51765W        W16992  26.930  26.935   1.892
51766W        W16993  25.700  39.478   2.723
51767W        W16994   3.980  38.992   2.104
51768W        W16995  23.992  35.855   3.219
51769W        W16996   5.090  11.875  13.635
51770W        W16997  15.931   0.815   3.556
51771W        W16998  35.104  43.691  12.071
51772W        W16999  35.372  32.490  13.072
51773W        W17000  23.147  38.491  10.720
51774W        W17001   6.676  43.882   2.191
51775W        W17002  24.680   2.233  13.339
51776W        W17003  18.680  13.012  12.036
51777W        W17004  12.435  14.602   4.099
51778W        W17005  43.737  25.456   0.844
51779W        W17006  41.719  43.206  11.103
51780W        W17007   6.450  38.607  14.345
51781W        W17008  15.547  32.049  14.083
51782W        W17009  19.295  42.160  11.524
51783W        W17010  38.913  30.367   0.633
51784W        W17011   9.173  26.202   3.287
51785W        W17012  38.774  12.708   2.738
51786W        W17013  24.501  13.033  11.302
51787W        W17014  12.752  13.353  11.008
51788W        W17015  40.109   0.466   3.496
51789W        W17016  37.780  41.834  10.743
51790W        W17017   3.741  30.092   2.171
51791W        W17018   6.982  14.827   0.085
51792W        W17019   6.861  12.871   0.814
51793W        W17020  40.538  35.857   2.635
51794W        W17021  32.081   2.159   4.537
51795W        W17022   3.295   9.832   4.557
51796W        W17023  19.536  16.074  11.968
51797W        W17024  21.893  14.856   1.447
51798W        W17025   5.786  34.119  14.963
51799W        W17026   1.440  15.306   2.276
51800W        W17027  31.052  21.232  10.755
51801W        W17028  12.087   0.319   2.671
51802W        W17029   2.037  16.248  13.817
51803W        W17030   6.952  21.384   0.799
51804W        W17031  16.307  18.307   1.765
51805W        W17032   7.314  32.917   4.491
51806W        W17033  15.600  26.627   0.976
51807W        W17034  11.264  13.410  10.736
51808W        W17035  20.534   5.764   1.769
51809W        W17036  42.829  12.811   2.412
51810W        W17037   2.862   4.843   1.144
51811W        W17038  43.091  19.337   1.320
51812W        W17039  25.761  12.126   2.806
51813W        W17040  25.241  34.153   1.451
51814W        W17041  13.088  34.934   0.892
51815W        W17042  16.256  40.820   4.283
51816W        W17043   5.342  25.137  12.128
51817W        W17044  42.875   8.351  12.197
51818W        W17045  10.357  25.511  14.585
51819W        W17046  17.085  23.960   4.534
51820W        W17047  16.421  25.487  13.157
51821W        W17048   4.405  24.635   0.257
51822W        W17049   5.589  12.541  13.997
51823W        W17050   8.962   4.719  11.334
51824W        W17051  22.922   9.800  10.569
51825W        W17052  28.942   2.418  11.383
51826W        W17053  36.314  26.160  11.653
51827W        W17054  20.246   8.508  12.945
51828W        W17055  43.948  16.184  12.981
51829W        W17056  31.425  29.682  11.960
51830W        W17057  31.919   9.813  11.499
51831W        W17058  17.644   1.509   3.312
51832W        W17059  14.628   7.730   0.420
51833W        W17060   5.680  21.113   0.025
51834W        W17061  23.576   5.300   3.016
51835W        W17062  39.821  23.689   3.597
51836W        W17063   4.885  15.205  12.919
51837W        W17064  12.181  27.266   2.191
51838W        W17065  30.152  27.766  12.195
51839W        W17066  28.076   6.993  11.368
51840W        W17067   2.883  19.209  11.146
51841W        W17068  43.827  40.101  12.604
51842W        W17069  28.155  26.098  11.950
51843W        W17070  11.828   9.028  13.067
51844W        W17071  39.008  22.805  13.083
51845W        W17072  43.831  21.656  10.333
51846W        W17073  34.440  11.359   2.102
51847W        W17074  32.339   0.436  13.177
51848W        W17075  28.504   7.313  12.192
51849W        W17076  24.003  30.229   1.391
51850W        W17077   3.401  32.987  13.364
51851W        W17078  17.111  25.451   3.172
51852W        W17079  30.023  44.472   0.414
51853W        W17080  23.566  21.031   2.379
51854W        W17081   4.417  28.867   4.539
51855W        W17082  44.907   9.771   0.686
51856W        W17083  39.037  10.764  12.023
51857W        W17084   6.420  25.568   0.916
51858W        W17085   0.562  25.998  14.390
51859W        W17086  14.408  33.939  12.332
51860W        W17087   9.266  28.107  10.991
51861W        W17088  34.118  12.331  13.410
51862W        W17089   6.414  13.840  14.288
51863W        W17090  24.233  38.963   0.420
51864W        W17091  25.136  18.009   4.833
51865W        W17092  41.109   1.121  12.292
51866W        W17093  15.917  15.184  12.508
51867W        W17094  22.170  35.306   2.352
51868W        W17095  39.503  11.891   0.835
51869W        W17096  30.552  18.746  12.507
51870W        W17097  13.767  27.661  13.109
51871W        W17098  20.056  11.134  13.088
51872W        W17099  33.712  31.106   2.844
51873W        W17100  16.335  43.231   3.197
51874W        W17101  10.134  25.058  12.451
51875W        W17102  42.397   6.172   2.140
51876W        W17103  24.527  22.523   3.647
51877W        W17104  40.234  39.573  11.610
51878W        W17105  23.794  33.182   2.097
51879W        W17106  34.646  41.356   2.616
51880W        W17107  13.612  13.130  11.525
51881W        W17108  16.134  24.048   3.764
51882W        W17109  35.639  41.816   1.682
51883W        W17110  14.595  29.127  11.711
51884W        W17111  43.480   1.360   1.915
51885W        W17112  32.123  40.490  14.038
51886W        W17113  14.183  27.910  12.873
51887W        W17114   5.618  38.845   1.241
51888W        W17115  30.324  35.090   0.852
51889W        W17116   6.232  43.898  12.849
51890W        W17117   1.953  39.347   1.698
51891W        W17118   6.153  39.120   2.794
51892W        W17119  17.091   5.397  11.208
51893W        W17120   6.438  10.253  11.245
51894W        W17121  43.783   5.007  11.986
51895W        W17122   8.441  25.706  10.997
51896W        W17123  40.046   3.014  11.122
51897W        W17124  17.277   7.586   1.364
51898W        W17125  43.396  29.828  12.746
51899W        W17126   4.074  11.587  13.830
51900W        W17127  19.236   1.200  11.541
51901W        W17128  34.628  24.887  11.456
51902W        W17129  27.158  34.586  13.413
51903W        W17130  30.615  17.193   1.711
51904W        W17131  21.041  11.630  13.013
51905W        W17132   7.725  20.725   1.631
51906W        W17133  13.644  15.582  13.566
51907W        W17134  10.776  19.236   2.232
51908W        W17135  13.628  35.755   2.341
51909W        W17136  33.236  37.565  13.982
51910W        W17137  43.526  29.003   2.160
51911W        W17138  19.359  44.908   1.349
51912W        W17139  41.016  35.417  12.071
51913W        W17140  34.315  34.668   2.403
51914W        W17141  30.461  13.862  11.916
51915W        W17142  32.956   5.926   3.080
51916W        W17143  38.299  31.178   4.160
51917W        W17144   7.127   3.030  11.511
51918W        W17145  38.049  24.793   1.941
51919W        W17146  32.420  34.455   2.645
51920W        W17147   1.436   9.150  10.767
51921W        W17148  38.420  26.668   3.485
51922W        W17149  42.546  19.224  13.517
51923W        W17150  16.987  18.746  14.819
51924W        W17151  15.005  24.943  11.980
51925W        W17152   7.781  13.387   0.825
51926W        W17153  43.670  39.534  14.360
51927W        W17154  24.849  22.614  12.026
51928W        W17155  42.393  14.489  13.790
51929W        W17156  23.023  26.755  11.612
51930W        W17157   5.130  20.672  13.567
51931W        W17158  12.566  15.719  12.434
51932W        W17159  39.850  12.825   1.797
51933W        W17160  29.367  13.490   0.487
51934W        W17161  43.893  15.040  14.942
51935W        W17162  19.026  28.167  10.831
51936W        W17163  38.800  10.922  11.585
51937W        W17164  17.952  18.544  10.853
51938W        W17165  26.048  43.028  13.270
51939W        W17166  26.823  16.090   1.206
51940W        W17167   5.382  26.781   1.675
51941W        W17168  10.632  30.434  11.559
51942W        W17169  29.560  30.981  14.373
51943W        W17170  43.285  30.601  11.481
51944W        W17171  24.667  42.306  10.500
51945W        W17172  22.508   7.324  11.537
51946W        W17173  22.494   8.647   1.397
51947W        W17174   3.321  16.800   4.274
51948W        W17175  26.471  34.188  10.533
51949W        W17176  18.577   0.632  14.957
51950W        W17177  12.576  21.599   3.344
51951W        W17178  33.512  18.482  13.809
51952W        W17179  23.220  39.992   0.280
51953W        W17180  43.263  41.261  11.530
51954W        W17181  42.904  28.503  12.462
51955W        W17182  34.152  41.223   2.416
51956W        W17183  36.930   7.726  14.511
51957W        W17184  25.952  11.641  12.210
51958W        W17185   2.764  10.716  11.563
51959W        W17186  26.209   6.669  11.551
51960W        W17187   2.348  25.547   4.693
51961W        W17188   1.699  37.590   1.267
51962W        W17189  22.776   3.296  14.038
51963W        W17190  35.932   7.817  11.129
51964W        W17191  17.026   3.906   2.440
51965W        W17192  11.150  23.278   0.401
51966W        W17193  14.863  33.913   4.132
51967W        W17194   2.950  10.550  12.002
51968W        W17195   3.300   2.931  11.147
51969W        W17196  43.040   9.365  11.939
51970W        W17197   0.206  11.131   4.072
51971W        W17198  35.962  22.069  13.138
51972W        W17199  25.553  32.831  14.800
51973W        W17200  38.484  32.856  10.156
51974W        W17201  28.233  29.410   2.799
51975W        W17202  44.206  32.738   0.831
51976W        W17203  15.453  16.050   1.250
51977W        W17204  27.997  40.869  14.367
51978W        W17205   4.262  10.533  12.121
51979W        W17206  18.486   8.669   4.064
51980W        W17207  43.937  23.461  13.880
51981W        W17208  34.835  13.674  11.162
51982W        W17209  25.604  38.346  10.767
51983W        W17210   2.007  36.142   3.656
51984W        W17211  29.454  39.582   1.917
51985W        W17212  15.197  10.970  13.855
51986W        W17213  11.907   7.759  14.770
51987W        W17214  16.262  18.646   4.682
51988W        W17215  33.427  10.435   1.792
51989W        W17216  38.090  38.062  13.542
51990W        W17217  31.939  24.680  12.972
51991W        W17218  20.238  36.549   4.905
51992W        W17219  17.091  19.550  11.072
51993W        W17220  14.261  29.601   4.684
51994W        W17221   0.224  10.898  11.187
51995W        W17222  25.972  14.299  12.865
51996W        W17223  31.647  43.941  12.985
51997W        W17224  43.806  22.799   3.335
51998W        W17225  32.090  33.603   4.564
51999W        W17226  32.849  23.459   3.179
52000W        W17227   5.862   1.754  10.465
52001W        W17228  18.500   0.181   3.376
52002W        W17229  36.128   3.347   0.703
52003W        W17230  40.896  12.427   4.290
52004W        W17231   8.306  23.960  14.779
52005W        W17232   8.162  35.835   2.330
52006W        W17233  43.301  38.449  12.925
52007W        W17234   2.020   2.221  13.443
52008W        W17235  38.704  11.410  10.253
52009W        W17236  24.890  24.889  11.617
52010W        W17237  20.014   7.137  13.106
52011W        W17238   2.982  32.984   2.296
52012W        W17239   1.372   7.094   3.625
52013W        W17240  19.100   9.944   4.564
52014W        W17241  25.032  35.562  11.633
52015W        W17242  22.030   1.540  14.923
52016W        W17243   2.218  35.004   0.869
52017W        W17244  26.940  21.824   0.698
52018W        W17245   8.587  31.066  10.572
52019W        W17246  20.947  32.471  13.864
52020W        W17247  35.457  36.869   4.314
52021W        W17248  20.588  27.472   0.333
52022W        W17249   4.429  43.192   3.369
52023W        W17250  39.020  29.151  14.975
52024W        W17251  35.094  32.531   3.067
52025W        W17252   7.188  38.344   0.660
52026W        W17253  14.154  10.571  14.333
52027W        W17254  35.073  21.198   0.854
52028W        W17255  42.761  20.335  13.440
52029W        W17256  41.498  12.587  11.441
52030W        W17257  26.982   5.415   1.620
52031W        W17258  14.226  31.475   1.919
52032W        W17259  33.938   7.018  10.742
52033W        W17260   0.652  16.265   1.767
52034W        W17261  35.635  37.563  11.622
52035W        W17262  12.352  10.730   0.249
52036W        W17263  43.394  44.791   3.122
52037W        W17264   1.066  29.987  14.532
52038W        W17265   4.115  30.330  10.245
52039W        W17266  39.417  44.635   4.655
52040W        W17267  25.281   4.280   4.068
52041W        W17268  24.497  16.957  10.783
52042W        W17269  20.493   3.876  13.839
52043W        W17270   0.885  36.983  14.749
52044W        W17271  33.226   4.887   3.120
52045W        W17272  13.794  15.884   4.466
52046W        W17273  26.081  22.013   4.636
52047W        W17274  41.960   8.028   3.671
52048W        W17275  43.732  29.011   2.797
52049W        W17276  17.559  40.250  12.721
52050W        W17277  33.073  10.795  14.951
52051W        W17278  35.010  24.246   0.111
52052W        W17279  35.572  13.255  11.178
52053W        W17280  11.348   0.934   1.799
52054W        W17281   7.898  30.973  11.673
52055W        W17282  42.479  16.061   0.723
52056W        W17283  36.629  23.047   0.864
52057W        W17284  42.320   0.396   1.828
52058W        W17285  28.417  32.660  11.003
52059W        W17286   3.230  25.913   3.174
52060W        W17287   9.678  39.458  14.546
52061W        W17288  15.522  18.063   1.346
52062W        W17289  32.526  26.945  11.966
52063W        W17290  18.913   1.271  13.537
52064W        W17291  10.303  16.795   4.477
52065W        W17292  16.291  10.201   0.882
52066W        W17293  16.278  17.754   1.905
52067W        W17294  41.494  44.502   1.854
52068W        W17295  36.926  42.728   1.696
52069W        W17296  37.376  36.851  13.408
52070W        W17297  31.022   2.939   3.188
52071W        W17298  35.538  43.562  14.017
52072W        W17299  40.458  17.761  13.477
52073W        W17300  21.729  31.298   1.887
52074W        W17301  33.891  30.540   0.114
52075W        W17302  21.109   1.104  12.113
52076W        W17303   9.805   5.225  11.524
52077W        W17304  24.498  34.177   1.961
52078W        W17305   4.939  31.348  12.027
52079W        W17306   3.355  24.471  13.476
52080W        W17307  26.090  30.565   3.644
52081W        W17308  12.259  43.160  14.317
52082W        W17309  41.406  39.102   2.833
52083W        W17310  14.643  26.451   0.097
52084W        W17311   5.034  13.724   4.426
52085W        W17312  32.288  35.327   4.165
52086W        W17313  16.674  43.388   4.167
52087W        W17314  14.526  28.001  12.032
52088W        W17315  40.406  40.269  10.377
52089W        W17316  15.648  39.229  13.540
52090W        W17317   7.391  12.065   3.130
52091W        W17318  28.069  41.942   3.613
52092W        W17319  33.979  16.746  10.902
52093W        W17320  14.403  22.024  14.340
52094W        W17321   7.236  26.096  13.942
52095W        W17322  12.606  36.838  14.739
52096W        W17323  39.496   1.635   0.821
52097W        W17324  29.264   9.888   2.852
52098W        W17325  40.761  44.674   2.432
52099W        W17326  13.823  29.514   2.082
52100W        W17327   7.821  11.684   2.328
52101W        W17328  34.408  12.124   1.748
52102W        W17329  21.557  10.812  10.456
52103W        W17330  17.187  42.763   0.395
52104W        W17331  28.032  15.997   3.696
52105W        W17332  32.562  10.793   2.086
52106W        W17333   6.279   1.177  13.110
52107W        W17334  37.421  19.778   0.362
52108W        W17335  33.379  21.422   1.248
52109W        W17336  16.348  13.208  13.777
52110W        W17337  43.662   6.828  13.800
52111W        W17338  27.723   4.376   2.195
52112W        W17339  15.764  12.440  12.600
52113W        W17340   4.242   7.176   4.118
52114W        W17341  36.981  12.035  11.175
52115W        W17342  29.500  40.998   3.430
52116W        W17343  18.636   3.900  13.497
52117W        W17344  12.182  33.959  14.758
52118W        W17345  41.286  20.011   1.388
52119W        W17346   0.991  21.283  14.726
52120W        W17347  26.771  34.972  13.458
52121W        W17348   1.458   4.081   3.166
52122W        W17349  22.744  20.270  14.355
52123W        W17350  32.666  37.102   0.369
52124W        W17351  41.064   0.690  11.942
52125W        W17352  24.087   3.575   0.382
52126W        W17353  20.243  30.160   3.739
52127W        W17354  33.053  24.783   3.609
52128W        W17355  34.281   0.521  12.603
52129W        W17356  42.266  25.042   0.243
52130W        W17357  30.382  28.945   1.673
52131W        W17358  19.176  44.766  10.749
52132W        W17359  25.164  38.570   2.719
52133W        W17360  11.828  26.794   2.898
52134W        W17361  38.349  18.074  13.406
52135W        W17362  15.736  36.569  11.386
52136W        W17363  32.407  17.660  10.167
52137W        W17364  16.397  16.522  10.973
52138W        W17365  30.391   7.773   4.067
52139W        W17366  35.451  18.581  12.794
52140W        W17367  31.194  21.030  11.228
52141W        W17368  28.733  40.407  13.676
52142W        W17369  17.937  32.171   3.728
52143W        W17370  15.252  35.757  14.412
52144W        W17371  35.056   2.667  14.390
52145W        W17372  10.945   7.772   3.762
52146W        W17373  23.347  27.972  14.842
52147W        W17374  42.265  26.701   2.765
52148W        W17375   6.365  32.965   2.459
52149W        W17376  23.501  28.495   1.667
52150W        W17377  36.905  33.403  13.770
52151W        W17378  18.287  28.983  14.019
52152W        W17379  21.278   9.362  10.653
52153W        W17380   7.228   8.749  14.465
52154W        W17381   1.996   1.830   3.392
52155W        W17382   8.696  10.202   0.785
52156W        W17383   4.308  43.319  12.892
52157W        W17384  29.957  28.197   1.724
52158W        W17385  38.905  14.792  11.980
52159W        W17386  43.526  31.943   0.838
52160W        W17387   8.646  34.009   0.899
52161W        W17388  23.472   0.732   0.439
52162W        W17389  30.853  20.204  10.782
52163W        W17390   7.651   0.084   1.238
52164W        W17391  10.160  28.377  11.207
52165W        W17392  43.556  15.509  10.918
52166W        W17393  14.209  20.599  13.375
52167W        W17394   8.362  14.763  13.727
52168W        W17395  17.826  39.564   2.433
52169W        W17396  11.735  37.133  12.982
52170W        W17397   6.846  15.303   0.791
52171W        W17398  44.804  11.789   0.248
52172W        W17399  38.600  20.911   2.270
52173W        W17400  21.604   4.296   1.091
52174W        W17401   8.919   6.286   5.094
52175W        W17402  36.933   6.167  12.848
52176W        W17403   9.446   3.580  11.147
52177W        W17404  10.863   3.816   0.859
52178W        W17405   0.011  41.783   1.620
52179W        W17406  33.126  10.214  11.630
52180W        W17407  24.063  18.446  11.548
52181W        W17408  33.365  16.095   3.140
52182W        W17409  42.955  24.893   3.533
52183W        W17410  23.992  42.959   0.091
52184W        W17411  31.958  18.369   0.172
52185W        W17412  24.538  37.978  11.187
52186W        W17413  15.121   9.400   2.196
52187W        W17414  11.836  42.345  11.734
52188W        W17415  35.348  44.027  14.106
52189W        W17416  13.256  18.003  11.631
52190W        W17417   3.258  37.546   5.056
52191W        W17418  13.860   5.186   2.662
52192W        W17419  40.635   3.813  10.798
52193W        W17420  33.525  41.044  12.927
52194W        W17421   9.623  34.145   0.392
52195W        W17422  33.697  44.394   2.217
52196W        W17423   6.389  41.882  12.902
52197W        W17424   5.745  11.830   4.882
52198W        W17425  30.927  23.567   4.609
52199W        W17426   5.007  24.185  12.928
52200W        W17427  20.380  35.130   1.275
52201W        W17428  22.983  31.466   0.731
52202W        W17429  26.650  44.073   1.847
52203W        W17430  16.556  25.013  13.300
52204W        W17431   7.670  36.027   2.310
52205W        W17432   0.974  36.406  13.522
52206W        W17433  27.627  40.525  12.462
52207W        W17434  41.433  31.068  11.622
52208W        W17435  13.655  41.013  12.022
52209W        W17436  36.552  20.367   0.292
52210W        W17437  29.069   7.945   4.572
52211W        W17438   3.873   3.149  12.464
52212W        W17439  44.392  19.827  10.552
52213W        W17440  32.533   6.174   3.261
52214W        W17441   6.122  11.377   0.308
52215W        W17442  18.186  38.915   3.563
52216W        W17443  27.753   3.299  11.602
52217W        W17444  16.324  38.430   4.023
52218W        W17445  21.025  42.280  12.162
52219W        W17446  20.666  37.626  10.694
52220W        W17447  25.240  20.699   3.668
52221W        W17448  24.003  14.783  13.368
52222W        W17449  12.265   2.367   1.156
52223W        W17450  39.335   4.178   3.701
52224W        W17451  13.800   3.943  11.978
52225W        W17452   3.818  11.925   2.185
52226W        W17453   6.725   5.307  13.163
52227W        W17454  16.877   8.243  12.488
52228W        W17455  35.145  44.714  10.927
52229W        W17456   0.531  12.417   2.233
52230W        W17457  40.276  26.513  12.155
52231W        W17458  38.648   3.144  11.164
52232W        W17459  14.234  13.473  13.448
52233W        W17460  18.296   1.426  11.518
52234W        W17461   5.249  25.919   0.590
52235W        W17462   7.009  38.466  13.840
52236W        W17463  13.087  29.635  10.568
52237W        W17464  30.635   5.976  13.032
52238W        W17465   3.401  37.462  11.896
52239W        W17466  35.324  16.545  12.495
52240W        W17467  30.653   2.408   1.694
52241W        W17468  43.033  22.774   2.758
52242W        W17469  23.755  18.973   4.079
52243W        W17470  28.381  26.166  10.096
52244W        W17471  28.925   4.377   4.021
52245W        W17472   0.941  11.576   3.198
52246W        W17473  20.456  24.622   0.387
52247W        W17474  11.688  44.027  10.113
52248W        W17475   3.058  43.448  11.209
52249W        W17476   5.789  30.047  11.548
52250W        W17477  25.206   2.061  12.156
52251W        W17478  44.105  26.630  11.609
52252W        W17479  29.179   6.284  10.688
52253W        W17480  15.514  31.118  14.634
52254W        W17481  11.608  21.700   3.336
52255W        W17482  31.663  28.165  13.743
52256W        W17483  14.830  30.371  11.092
52257W        W17484  20.811  16.065  11.206
52258W        W17485  10.337  44.036   2.647
52259W        W17486  37.588   7.601   4.431
52260W        W17487  43.336  32.215  13.166
52261W        W17488  26.812  23.022  10.877
52262W        W17489  35.440  10.488  11.600
52263W        W17490  20.686  39.597  10.831
52264W        W17491  20.518  23.882   3.399
52265W        W17492  39.877   8.205   0.549
52266W        W17493  10.095  12.419   2.849
52267W        W17494  44.401  18.380   3.035
52268W        W17495  24.103  36.072  11.294
52269W        W17496  42.407  25.705  12.398
52270W        W17497  27.782  18.988  13.458
52271W        W17498  34.147  35.878  12.029
52272W        W17499  20.076   7.786   0.890
52273W        W17500  23.146  19.122   3.557
52274W        W17501  30.132   6.048   3.987
52275W        W17502   9.680   1.324   2.093
52276W        W17503  32.084  29.057   3.882
52277W        W17504  32.124  41.560   4.676
52278W        W17505  14.287  28.066  11.147
52279W        W17506  36.429  37.669  14.961
52280W        W17507  28.170   2.341  13.005
52281W        W17508  23.585  25.280  14.549
52282W        W17509  14.126  11.164   1.948
52283W        W17510   3.404  31.473  14.873
52284W        W17511  12.393  30.401  11.169
52285W        W17512   6.325  11.814   0.549
52286W        W17513  41.275  41.439  11.520
52287W        W17514   9.929  32.617   2.338
52288W        W17515   0.179   8.198   2.213
52289W        W17516   2.870  39.891  10.766
52290W        W17517   9.092  25.738   2.309
52291W        W17518  35.051   5.665  14.515
52292W        W17519  38.179  44.575   4.261
52293W        W17520  15.058  19.786  13.279
52294W        W17521  17.491  20.622  12.406
52295W        W17522  27.439  21.684   1.989
52296W        W17523  30.843  22.527  10.619
52297W        W17524  10.434  42.510   0.759
52298W        W17525  26.549  42.979   3.191
52299W        W17526  17.725  18.816   2.817
52300W        W17527  32.045  19.112  14.529
52301W        W17528   5.193  29.016   0.730
52302W        W17529   0.982  35.153  11.794
52303W        W17530  42.472  36.062  13.635
52304W        W17531  35.242  40.895  12.445
52305W        W17532  18.212  22.447  12.481
52306W        W17533  11.924  21.703  14.783
52307W        W17534  16.056  12.694   4.392
52308W        W17535  37.977   1.986   3.124
52309W        W17536  37.776  37.369   4.117
52310W        W17537   2.423  20.187   2.168
52311W        W17538  31.789   9.156  10.411
52312W        W17539  11.844  18.978  12.831
52313W        W17540  34.456  25.826   2.778
52314W        W17541  11.805  24.284   3.116
52315W        W17542  18.066   1.199   3.332
52316W        W17543  32.209  19.611  14.688
52317W        W17544  13.670  33.509  14.978
52318W        W17545  11.528   8.395   2.289
52319W        W17546  32.224  31.591  11.182
52320W        W17547  15.790   7.101   4.442
52321W        W17548  30.599  23.141   1.950
52322W        W17549  31.583  18.057   3.236
52323W        W17550  24.651  26.130  13.527
52324W        W17551  29.089   5.117   2.688
52325W        W17552  29.971  13.238  12.324
52326W        W17553  39.642  43.947  13.155
52327W        W17554  13.143   1.421  12.616
52328W        W17555  14.771  13.703  14.376
52329W        W17556  30.837  17.941  12.523
52330W        W17557  33.031  23.232   1.704
52331W        W17558   9.147   7.205   1.988
52332W        W17559  18.867  35.152  11.106
52333W        W17560  24.673  30.465  12.329
52334W        W17561  40.557   4.290  11.980
52335W        W17562   3.319  30.031   0.767
52336W        W17563  26.709  20.673  10.453
52337W        W17564  41.357  27.480  11.988
52338W        W17565  14.679  42.777  13.027
52339W        W17566  39.467  42.567  13.401
52340W        W17567  18.184   7.649   0.526
52341W        W17568   3.482  29.533  13.829
52342W        W17569  17.258  14.916  12.357
52343W        W17570  21.012  21.312   3.149
52344W        W17571  33.899  12.099  11.045
52345W        W17572  36.428   0.939  14.836
52346W        W17573   6.611  26.700   4.612
52347W        W17574   9.042  42.285  10.674
52348W        W17575  43.919  22.229   5.583
52349W        W17576  43.038  39.595   4.514
52350W        W17577  17.376  26.908   0.831
52351W        W17578  11.084  44.533  12.077
52352W        W17579   6.770   0.638   0.982
52353W        W17580  43.558  39.615   0.710
52354W        W17581  12.311  33.196   5.044
52355W        W17582  36.826  17.760   3.726
52356W        W17583  23.470  33.394  13.069
52357W        W17584  42.490   9.308   0.927
52358W        W17585   7.434  34.287  11.477
52359W        W17586  23.500  23.605  13.118
52360W        W17587  36.052   5.058   1.299
52361W        W17588  34.860  12.190   1.505
52362W        W17589  26.669  43.859  11.603
52363W        W17590  19.110  26.409   3.887
52364W        W17591  27.780  21.304   3.736
52365W        W17592  29.264  32.453  13.017
52366W        W17593   1.858  25.438   4.541
52367W        W17594  15.739   1.211  10.667
52368W        W17595  40.313   9.171   4.986
52369W        W17596  18.541   9.615   3.143
52370W        W17597  40.751  23.508  13.968
52371W        W17598  30.569  24.031  13.353
52372W        W17599  16.065  38.856   2.923
52373W        W17600  43.710  24.247   3.333
52374W        W17601  14.347  25.632   4.649
52375W        W17602  22.728  43.724  14.674
52376W        W17603   2.462  14.266  13.312
52377W        W17604  20.408  30.267  12.088
52378W        W17605  10.641  35.054   2.341
52379W        W17606  21.068  39.862  13.053
52380W        W17607  32.990  35.286  11.579
52381W        W17608  15.609  43.576  11.565
52382W        W17609   3.845  44.069  11.753
52383W        W17610   5.762   5.220  14.843
52384W        W17611  15.231   5.709  13.935
52385W        W17612  44.479   8.246  14.932
52386W        W17613  11.004   7.180  12.142
52387W        W17614   2.284  11.196   0.944
52388W        W17615  38.775   3.957  13.635
52389W        W17616   2.281  40.071  12.510
52390W        W17617   7.259  15.358   1.514
52391W        W17618  34.050  11.065   1.188
52392W        W17619   8.228  27.545   4.596
52393W        W17620   2.962  14.281  13.426
52394W        W17621   0.898   7.434   1.725
52395W        W17622  14.121  41.298   3.689
52396W        W17623   1.377   4.574   0.179
52397W        W17624  17.209   0.931   0.852
52398W        W17625  34.060  20.273   3.893
52399W        W17626  41.511  41.450  13.406
52400W        W17627  32.414   7.877   3.361
52401W        W17628  25.566   5.474  12.368
52402W        W17629  37.493  35.188  12.085
52403W        W17630  13.802  21.982  11.863
52404W        W17631  30.947  32.447   1.925
52405W        W17632  33.138  10.307   0.829
52406W        W17633   9.386  33.955  10.895
52407W        W17634  25.759  21.582   4.583
52408W        W17635   3.177  33.457   3.628
52409W        W17636  10.429  23.414  11.353
52410W        W17637  10.967  42.647  12.955
52411W        W17638  27.079   9.466  13.117
52412W        W17639   3.674  34.856   3.204
52413W        W17640  28.214  32.873   1.349
52414W        W17641  14.625  23.245   1.734
52415W        W17642  37.870   3.222  14.522
52416W        W17643  19.573   2.516  12.604
52417W        W17644  38.451   0.156  13.871
52418W        W17645   2.234  10.178   1.699
52419W        W17646  10.054  44.910   2.105
52420W        W17647  31.345  14.942   1.812
52421W        W17648  36.601  19.606  12.985
52422W        W17649  31.395  13.759   3.298
52423W        W17650  26.977   3.275   2.090
52424W        W17651  24.501  38.171  13.963
52425W        W17652  39.918  26.522  11.397
52426W        W17653  13.287  36.331  14.533
52427W        W17654   6.795  27.459   4.143
52428W        W17655   2.998   8.146   0.799
52429W        W17656  34.023  39.814  13.461
52430W        W17657  13.167  33.286   1.281
52431W        W17658  19.568  36.780  14.074
52432W        W17659  34.639   2.900   3.775
52433W        W17660  29.905   5.849  12.357
52434W        W17661  29.563  14.625   1.192
52435W        W17662  12.627  42.923   4.515
52436W        W17663  14.970  34.331  13.311
52437W        W17664  21.977  22.246   2.814
52438W        W17665   6.895  41.415   3.864
52439W        W17666  13.995   6.545   1.743
52440W        W17667  21.551  33.983   4.212
52441W        W17668  40.925  36.934  12.900
52442W        W17669  43.650   0.332   2.373
52443W        W17670  28.043  43.981   2.649
52444W        W17671  15.738  42.928   0.019
52445W        W17672  11.751  43.905   2.115
52446W        W17673  20.333   0.236  13.092
52447W        W17674  30.316  19.021   4.588
52448W        W17675  26.261  21.162   0.412
52449W        W17676  22.366  25.943  12.935
52450W        W17677  43.813   6.977  11.512
52451W        W17678   4.853  10.904  12.035
52452W        W17679  23.290  17.622   3.721
52453W        W17680  39.346  20.355  10.528
52454W        W17681   3.894   0.545  12.109
52455W        W17682  36.812  25.775   2.838
52456W        W17683  42.172  15.634   0.760
52457W        W17684  37.056   8.384  13.932
52458W        W17685   5.189   5.708  12.517
52459W        W17686  20.641  11.370   1.222
52460W        W17687  10.301  42.027   1.879
52461W        W17688  15.784  20.469  13.961
52462W        W17689   4.674  34.859   2.242
52463W        W17690  16.261  32.441  12.825
52464W        W17691  29.752  37.806  11.732
52465W        W17692  29.468  28.992  14.029
52466W        W17693  19.273  28.729   1.221
52467W        W17694  22.724   0.048   1.539
52468W        W17695  34.090  43.538   0.636
52469W        W17696  31.593   4.423   1.798
52470W        W17697  36.652   6.733   0.533
52471W        W17698  41.411  11.347  14.717
52472W        W17699  11.824  35.479   2.240
52473W        W17700  36.446  44.371   2.270
52474W        W17701   9.731  16.786  11.943
52475W        W17702   8.735  32.651   4.442
52476W        W17703  24.987  32.016  13.009
52477W        W17704  42.003  30.854  14.341
52478W        W17705  25.721   4.464  14.028
52479W        W17706   2.461  19.588   1.796
52480W        W17707  20.664  11.969   2.809
52481W        W17708  24.043  38.823   1.358
52482W        W17709  37.280  28.558   4.191
52483W        W17710   5.194  33.458   4.444
52484W        W17711  16.733  14.110   1.373
52485W        W17712  42.363  26.956  12.902
52486W        W17713  43.939   5.026   2.602
52487W        W17714   6.170  38.740  12.491
52488W        W17715   5.732  37.312  13.055
52489W        W17716  33.117  17.288  11.352
52490W        W17717  18.722   2.826   4.493
52491W        W17718   0.057  17.029  11.592
52492W        W17719  44.306  40.172   0.781
52493W        W17720  21.792  42.321   1.860
52494W        W17721   2.480   1.905   3.222
52495W        W17722   3.517  31.869  14.154
52496W        W17723  41.417   3.685   1.632
52497W        W17724  15.757  29.968  13.846
52498W        W17725  35.392   6.917   3.681
52499W        W17726  16.571  20.955   2.360
52500W        W17727  33.915   7.908   1.701
52501W        W17728  21.955  43.328  12.164
52502W        W17729  17.068  31.974   3.084
52503W        W17730  24.733   5.647  11.275
52504W        W17731   6.041  35.423   1.037
52505W        W17732  25.456  15.129  11.695
52506W        W17733  22.536  30.886  14.826
52507W        W17734  11.239  32.561   3.171
52508W        W17735  37.833  24.489  12.602
52509W        W17736  38.446   5.865   2.864
52510W        W17737  22.180  28.039   1.791
52511W        W17738  18.261  32.518  12.143
52512W        W17739  43.579  43.717   3.290
52513W        W17740  26.691  30.390   1.864
52514W        W17741   0.340   8.403   1.359
52515W        W17742  13.237  29.237  13.498
52516W        W17743   8.631   9.090  14.919
52517W        W17744   2.162  25.510   1.819
52518W        W17745  26.505  29.038   2.273
52519W        W17746  20.655  18.491  14.463
52520W        W17747  34.492  19.235  14.276
52521W        W17748  20.438  24.640   4.277
52522W        W17749  42.468  27.308  10.386
52523W        W17750   6.492   4.368  11.108
52524W        W17751  10.846   1.721   2.820
52525W        W17752  16.148   9.928  13.448
52526W        W17753   5.132  22.137   1.804
52527W        W17754  25.710   4.669  13.290
52528W        W17755  10.767  35.864  11.615
52529W        W17756  39.399  28.877  12.380
52530W        W17757  38.859  21.581  11.126
52531W        W17758  21.311  27.744   4.599
52532W        W17759  36.896  39.416   4.141
52533W        W17760  39.917   0.864   2.729
52534W        W17761  17.616  17.582  10.615
52535W        W17762  43.235  34.513  13.499
52536W        W17763  39.328  22.471  12.627
52537W        W17764  39.609  44.587  11.124
52538W        W17765  11.850   3.665  12.645
52539W        W17766  26.426  34.601   0.338
52540W        W17767  30.739  28.107  13.559
52541W        W17768  41.628  30.073   2.918
52542W        W17769  41.015  28.693   3.725
52543W        W17770  40.899  39.497   4.306
52544W        W17771   7.675  23.184   1.399
52545W        W17772  27.345   4.842  10.762
52546W        W17773  22.161  26.233   4.584
52547W        W17774  40.290  32.923  14.574
52548W        W17775   7.422  31.539  10.539
52549W        W17776  42.493  32.064   0.889
52550W        W17777   4.569  29.116  10.606
52551W        W17778  28.651   8.758   2.401
52552W        W17779  36.221  25.709  14.375
52553W        W17780   0.746   7.670  14.878
52554W        W17781  29.836   7.373   2.037
52555W        W17782   8.267  17.329  12.520
52556W        W17783  43.823   6.819  12.459
52557W        W17784  17.428  34.987  13.376
52558W        W17785  11.933   1.663  11.220
52559W        W17786  16.266  26.458  10.625
52560W        W17787  20.771  36.907   3.101
52561W        W17788  16.298   1.963  14.800
52562W        W17789  24.291  16.130  13.118
52563W        W17790  18.866  12.217   4.498
52564W        W17791  26.194  31.782   2.719
52565W        W17792  20.297   3.002   5.553
52566W        W17793  34.926  23.732   0.269
52567W        W17794  18.654  10.627   1.733
52568W        W17795  23.554  35.082   3.349
52569W        W17796   2.219   1.429  11.686
52570W        W17797   8.443  15.536   0.355
52571W        W17798  40.780  13.198  11.909
52572W        W17799  37.091  21.983  13.910
52573W        W17800   6.663  23.696   0.705
52574W        W17801  23.154  37.708   3.154
52575W        W17802  43.872  19.317  13.841
52576W        W17803  24.306  12.572  11.147
52577W        W17804   6.465   1.223  13.970
52578W        W17805  28.083  12.316   2.770
52579W        W17806  20.646   0.075  11.467
52580W        W17807  42.924  10.556   4.136
52581W        W17808  28.007  39.932  10.220
52582W        W17809   6.796  16.240   2.348
52583W        W17810  35.456  35.749   0.815
52584W        W17811  16.540  25.931  11.271
52585W        W17812   6.588  11.824  11.413
52586W        W17813  18.040  34.374   4.138
52587W        W17814  31.709  35.429  11.671
52588W        W17815  43.934  32.390  12.894
52589W        W17816   8.678   3.439   2.196
52590W        W17817   5.293  22.966   1.559
52591W        W17818  10.199  26.040   4.638
52592W        W17819  23.663   2.459  12.549
52593W        W17820  41.507   7.954   0.862
52594W        W17821  29.142  33.136   1.791
52595W        W17822  24.291  21.141   2.740
52596W        W17823  29.226   5.565   3.236
52597W        W17824  23.030  36.780  12.895
52598W        W17825  16.124   2.516  13.537
52599W        W17826   0.528  23.315   3.241
52600W        W17827  41.036  11.169   0.560
52601W        W17828  37.998   9.280   4.000
52602W        W17829  32.629  38.307   4.594
52603W        W17830  21.596  30.417  10.431
52604W        W17831  24.821  12.949  11.761
52605W        W17832  17.376  38.105   2.640
52606W        W17833  38.039  15.513   1.281
52607W        W17834   8.877  28.519   1.720
52608W        W17835  25.776   3.191  14.260
52609W        W17836  41.700  25.741   3.938
52610W        W17837  40.651   7.966   0.334
52611W        W17838  12.671   2.711  12.627
52612W        W17839  25.154  21.669   1.914
52613W        W17840  42.787  30.081  12.118
52614W        W17841  22.372  24.455  12.323
52615W        W17842  18.364  15.071   3.784
52616W        W17843  43.468  35.342  10.968
52617W        W17844  30.670  26.927  11.254
52618W        W17845  27.245  24.521   2.879
52619W        W17846   7.418  28.468  11.640
52620W        W17847  26.282   9.162   0.401
52621W        W17848   1.270  39.845   4.534
52622W        W17849  11.568  17.520  10.735
52623W        W17850  17.998   1.788  12.234
52624W        W17851  20.906  14.366   5.201
52625W        W17852   5.315  37.933   4.560
52626W        W17853  31.534  17.081   1.276
52627W        W17854  18.650   1.751  10.874
52628W        W17855   1.222  12.812  11.155
52629W        W17856  31.231  18.714  13.457
52630W        W17857  26.635  11.373   3.211
52631W        W17858  23.990  35.606  14.250
52632W        W17859  13.189   9.540  14.905
52633W        W17860   7.708   1.591  14.938
52634W        W17861   1.872  11.420   0.114
52635W        W17862  24.416  33.878  12.559
52636W        W17863  41.577  36.853  11.237
52637W        W17864  18.390   6.969   1.278
52638W        W17865  35.997  17.046  12.930
52639W        W17866  14.274   9.593   2.834
52640W        W17867  31.911  40.971  14.135
52641W        W17868  25.573   9.644  12.031
52642W        W17869  10.441   3.039   5.044
52643W        W17870   6.111   7.792  14.302
52644W        W17871  29.124  41.534  13.930
52645W        W17872  28.056   9.808   1.761
52646W        W17873   6.268  36.934   2.831
52647W        W17874   3.239   9.376   1.847
52648W        W17875  44.995  32.561  14.858
52649W        W17876   1.043   5.473  12.996
52650W        W17877  20.933  37.051  12.849
52651W        W17878  11.889  20.755  11.278
52652W        W17879  10.325  14.161   4.586
52653W        W17880  30.550  24.554  12.967
52654W        W17881  41.053  18.288  14.771
52655W        W17882  19.081  28.230   4.084
52656W        W17883  37.516  34.215   0.334
52657W        W17884  21.330  14.555   1.267
52658W        W17885  31.593   4.845  11.713
52659W        W17886   1.832   4.853  12.039
52660W        W17887  14.740  15.116   3.773
52661W        W17888  33.540  17.485   3.219
52662W        W17889  31.039  29.609  13.458
52663W        W17890  19.983  17.770  13.525
52664W        W17891  38.989  24.321   3.211
52665W        W17892  23.628  10.924  14.950
52666W        W17893  37.019   2.003   1.176
52667W        W17894  31.425   8.714  12.093
52668W        W17895  12.690  35.816  13.323
52669W        W17896  37.645  34.061  10.695
52670W        W17897  18.076   6.281   1.477
52671W        W17898  14.335  40.825   2.786
52672W        W17899  31.271  15.560  12.974
52673W        W17900  18.854  12.742   2.899
52674W        W17901   5.462  21.532  10.842
52675W        W17902   8.275  11.587  14.854
52676W        W17903  17.010  34.918  14.410
52677W        W17904  25.477  22.801   1.652
52678W        W17905  29.125  11.132  13.633
52679W        W17906   7.262   5.081   0.089
52680W        W17907  30.910   8.161  13.490
52681W        W17908   9.346   3.213   4.932
52682W        W17909   7.980  21.533  10.499
52683W        W17910  39.825   9.653   1.658
52684W        W17911  11.048   1.788   2.357
52685W        W17912   8.554  21.042   1.908
52686W        W17913  27.729  20.264   0.370
52687W        W17914  40.545  35.177  12.061
52688W        W17915  33.016  44.246   3.646
52689W        W17916  30.997   0.861   2.967
52690W        W17917  42.792  23.620  12.517
52691W        W17918  12.909   8.440   0.911
52692W        W17919  13.742  34.381  11.614
52693W        W17920  19.544  40.911  12.072
52694W        W17921  11.359  21.264  14.565
52695W        W17922   8.439  18.346  10.810
52696W        W17923   8.200  23.485  12.061
52697W        W17924  43.740  17.232   3.548
52698W        W17925   5.926  34.553   1.237
52699W        W17926   7.280  41.067   3.334
52700W        W17927   7.371  30.379  12.082
52701W        W17928  12.443  30.860  12.499
52702W        W17929  16.967  26.128  12.967
52703W        W17930  30.296  26.529   1.178
52704W        W17931  10.748   2.474   3.660
52705W        W17932  26.534  41.618   1.252
52706W        W17933  30.945   6.111  12.045
52707W        W17934  41.862  37.618   0.901
52708W        W17935  44.584   4.252   0.669
52709W        W17936  38.546  18.730   0.047
52710W        W17937  35.702  33.959   0.356
52711W        W17938  41.578  27.042  14.723
52712W        W17939  11.227  42.869   3.140
52713W        W17940  40.397   4.516  11.543
52714W        W17941  19.754   8.138   5.001
52715W        W17942   1.446  25.378  12.486
52716W        W17943  11.749  13.271   4.145
52717W        W17944  17.170  11.323   3.860
52718W        W17945  32.925  29.116   3.688
52719W        W17946  37.820   4.180  14.543
52720W        W17947  28.638  21.510  14.269
52721W        W17948   0.109   4.327  13.309
52722W        W17949   8.202  35.686  14.567
52723W        W17950  32.654   7.998   4.592
52724W        W17951  17.514  43.049  14.932
52725W        W17952  33.246  27.882  14.614
52726W        W17953  40.765  42.953  11.725
52727W        W17954  12.193  32.166   2.493
52728W        W17955   9.170   6.262  12.980
52729W        W17956  24.698  31.141  14.909
52730W        W17957  34.313  21.553  14.931
52731W        W17958   3.683  20.831   4.054
52732W        W17959  36.668  16.226  12.176
52733W        W17960  10.753  19.129  10.395
52734W        W17961  17.433  35.955   2.945
52735W        W17962  43.931  27.980  10.274
52736W        W17963  29.069   5.187  13.089
52737W        W17964  14.863  24.626   0.916
52738W        W17965  10.232   4.435  11.510
52739W        W17966  23.825  28.236   3.903
52740W        W17967   0.001   3.790   1.855
52741W        W17968  24.765  18.213   0.340
52742W        W17969   6.585   7.125  10.765
52743W        W17970  44.333  41.310   0.859
52744W        W17971  42.608  44.705  12.487
52745W        W17972   6.312   7.279   4.606
52746W        W17973  13.698  32.383   1.050
52747W        W17974  31.339  16.651   3.155
52748W        W17975  43.310  12.095   0.358
52749W        W17976  20.583  21.039  12.978
52750W        W17977  22.044   9.752   1.200
52751W        W17978  13.255  34.835  13.370
52752W        W17979  20.029  40.111   0.853
52753W        W17980  35.879  38.281   4.096
52754W        W17981  19.962  35.002  12.493
52755W        W17982  15.586  14.757  11.111
52756W        W17983  19.089  35.536   4.189
52757W        W17984  10.223  36.343  14.523
52758W        W17985  25.247  25.690   1.858
52759W        W17986  10.368   1.131   1.340
52760W        W17987  29.544  14.015   1.798
52761W        W17988  32.211  10.804   2.518
52762W        W17989  26.415   4.891  11.092
52763W        W17990   2.904  15.998   4.544
52764W        W17991  42.941  11.756   4.006
52765W        W17992  32.355  30.953   2.808
52766W        W17993  37.332   6.037  11.958
52767W        W17994  10.138  28.993  12.477
52768W        W17995  13.267  24.089   3.245
52769W        W17996   8.844  31.438   1.702
52770W        W17997  24.056   8.671  12.448
52771W        W17998  39.439  20.834  14.998
52772W        W17999  16.115  38.048  12.100
52773W        W18000   5.552  14.376   1.923
52774W        W18001   4.914  18.346  10.605
52775W        W18002   6.881  22.261   0.928
52776W        W18003   1.075  19.177  14.393
52777W        W18004  37.548  28.982   4.211
52778W        W18005  44.835  16.714   3.710
52779W        W18006  13.888  20.049  12.942
52780W        W18007  28.350   2.889   0.495
52781W        W18008  42.537   6.755  10.615
52782W        W18009  37.431   6.032   1.817
52783W        W18010  13.015  14.513   0.179
52784W        W18011  27.528   2.528   0.800
52785W        W18012  34.490  11.160  13.925
52786W        W18013  17.550  25.604   4.196
52787W        W18014   5.329  15.310   5.645
52788W        W18015  30.255  28.327   1.298
52789W        W18016  18.341  25.315  11.631
52790W        W18017   1.234  29.206  14.965
52791W        W18018  43.784  40.867  12.373
52792W        W18019  17.807  12.920  13.348
52793W        W18020   1.779  31.786  12.542
52794W        W18021  20.837  38.826   3.080
52795W        W18022  41.374   6.224  14.349
52796W        W18023  42.036  40.496   2.841
52797W        W18024   5.075   9.894   0.408
52798W        W18025   6.268  26.761   2.245
52799W        W18026  34.562  40.061  10.665
52800W        W18027  23.454  41.030   4.611
52801W        W18028   6.160  24.210  13.484
52802W        W18029   2.306  33.153   2.409
52803W        W18030   6.154   1.397   4.278
52804W        W18031  33.558  15.342  14.066
52805W        W18032  38.522  26.158   4.427
52806W        W18033  36.448   3.417   2.727
52807W        W18034  38.019  15.173  12.840
52808W        W18035   9.240  22.542  13.878
52809W        W18036   0.646  43.276   5.372
52810W        W18037  18.377  28.614   2.752
52811W        W18038  21.073   4.010  12.602
52812W        W18039  26.184   0.565  10.367
52813W        W18040  24.204  30.316   4.079
52814W        W18041  43.021  20.681   2.408
52815W        W18042  39.880  30.559   3.110
52816W        W18043  28.637  22.902   0.467
52817W        W18044  34.899  15.813   0.782
52818W        W18045   2.157  12.908  14.014
52819W        W18046   7.656  28.325  12.895
52820W        W18047  12.060  20.216  13.873
52821W        W18048   1.206   9.024  12.340
52822W        W18049  18.278  28.711   0.484
52823W        W18050  26.044  21.186  13.529
52824W        W18051  39.458   4.646  10.656
52825W        W18052   7.457  23.540   0.373
52826W        W18053  43.895  39.351   2.631
52827W        W18054   7.773  42.649  14.336
52828W        W18055  39.810   5.195   1.420
52829W        W18056  44.262  22.592  12.999
52830W        W18057   2.154  33.533  12.162
52831W        W18058  19.508  28.080  11.052
52832W        W18059  15.557  42.934  12.608
52833W        W18060  20.649   7.591  11.729
52834W        W18061  26.923  20.108  10.894
52835W        W18062  41.676  33.828   3.664
52836W        W18063  14.528  25.896  11.251
52837W        W18064  17.546  39.156  13.758
52838W        W18065  39.337   2.835   3.687
52839W        W18066   3.215  10.029  13.102
52840W        W18067  41.697  38.510   4.678
52841W        W18068  10.814  32.203   3.205
52842W        W18069   3.846  26.545  13.672
52843W        W18070   9.698  12.782  12.599
52844W        W18071  41.260   0.627   3.138
52845W        W18072  23.726  39.568   3.267
52846W        W18073  42.598   7.001   4.570
52847W        W18074   7.249  37.916   3.771
52848W        W18075  16.320  33.873   1.851
52849W        W18076  35.517  29.659   1.883
52850W        W18077  25.402  33.601   3.175
52851W        W18078   4.212  36.494  14.987
52852W        W18079  34.564  26.767   3.716
52853W        W18080   6.228  14.166  14.843
52854W        W18081   9.706  40.965   1.468
52855W        W18082   1.282   4.391   4.418
52856W        W18083   0.383  23.598   2.846
52857W        W18084  38.404  23.236   2.712
52858W        W18085  13.326  28.046  12.486
52859W        W18086  28.774   8.442   2.814
52860W        W18087  18.198  28.116  11.467
52861W        W18088   7.917  27.131   1.693
52862W        W18089  18.141  31.367   3.541
52863W        W18090  21.792  23.685   3.061
52864W        W18091   4.610  24.660  14.294
52865W        W18092  30.650  24.979   3.626
52866W        W18093  29.577  43.915   2.297
52867W        W18094  15.634   6.826  10.839
52868W        W18095  42.636  10.362   2.867
52869W        W18096  33.650  11.555  11.635
52870W        W18097  28.431  24.998  14.893
52871W        W18098  25.296  13.851  11.086
52872W        W18099  30.939  30.882  11.504
52873W        W18100  43.899   3.931   0.820
52874W        W18101  40.466  29.185   4.667
52875W        W18102  41.253  11.223   2.319
52876W        W18103  19.991  20.978   0.912
52877W        W18104  21.263  43.482   1.126
52878W        W18105  10.778  20.232  11.017
52879W        W18106  26.158  37.451   1.754
52880W        W18107  16.266   0.052   0.932
52881W        W18108  32.624   2.302   2.750
52882W        W18109  18.933  40.465   2.213
52883W        W18110  41.060   4.393  11.997
52884W        W18111  20.323  42.973   5.011
52885W        W18112   4.343   9.384  13.734
52886W        W18113  15.084  36.919   1.755
52887W        W18114  23.865  44.873  11.150
52888W        W18115  17.068  12.717   4.206
52889W        W18116   5.634  22.560   1.001
52890W        W18117  35.316   0.917   2.449
52891W        W18118   4.540  28.625   1.404
52892W        W18119  44.379  43.483  10.589
52893W        W18120  17.112  34.977  12.971
52894W        W18121   4.673   2.863  14.439
52895W        W18122  31.374  41.366   3.176
52896W        W18123  40.396   3.288   4.576
52897W        W18124   2.036  22.792  14.043
52898W        W18125  32.485   5.246  11.275
52899W        W18126  29.947  42.904   1.785
52900W        W18127  38.802   3.486   2.157
52901W        W18128  31.162   0.556   2.189
52902W        W18129   9.005  29.479   5.016
52903W        W18130  19.944  26.064  12.478
52904W        W18131  26.368  36.336   2.466
52905W        W18132  22.655  32.322   3.692
52906W        W18133   3.587  31.249   4.893
52907W        W18134   6.712   4.002  13.992
52908W        W18135  28.511  13.223  11.544
52909W        W18136  19.956  27.825   9.816
52910W        W18137  18.378  24.564  14.759
52911W        W18138   9.911  15.695  14.422
52912W        W18139  43.852   1.926  10.966
52913W        W18140  30.175   0.191   1.470
52914W        W18141  11.069  20.681   4.523
52915W        W18142  24.291  18.434  13.858
52916W        W18143  42.851  30.170  13.086
52917W        W18144  11.346  13.868  14.364
52918W        W18145  41.226  19.669  12.924
52919W        W18146   6.203  13.416   2.450
52920W        W18147  22.200  33.092  11.649
52921W        W18148  27.969  36.883  11.133
52922W        W18149  11.908  23.284  11.153
52923W        W18150  17.839  17.224  12.898
52924W        W18151   8.688   5.302  11.148
52925W        W18152  18.687  43.380   0.424
52926W        W18153  18.145  29.134  10.570
52927W        W18154   2.418   8.628  14.969
52928W        W18155   1.976  14.882   0.626
52929W        W18156   8.485  15.736   1.237
52930W        W18157  13.507   7.353   3.187
52931W        W18158  15.323  33.961   3.711
52932W        W18159  20.982  30.469   2.607
52933W        W18160  37.888  36.397   2.675
52934W        W18161  15.769  29.942   2.159
52935W        W18162  20.718  20.598   0.826
52936W        W18163   1.480   5.401  12.028
52937W        W18164  28.497  19.110   4.121
52938W        W18165  32.600   2.387   4.639
52939W        W18166  28.946  36.052   0.883
52940W        W18167  23.387  28.659   2.628
52941W        W18168  38.931  37.520   0.942
52942W        W18169  19.667  40.313  10.840
52943W        W18170   6.178  17.236   3.637
52944W        W18171  22.659  11.311   1.555
52945W        W18172  33.268   0.005  12.013
52946W        W18173  10.247  10.158  11.607
52947W        W18174  16.597   0.467   2.402
52948W        W18175  27.507  30.744   2.353
52949W        W18176  23.434  44.004   1.766
52950W        W18177  42.611  27.838   4.948
52951W        W18178   3.018  39.840  14.477
52952W        W18179  10.256  26.242   1.928
52953W        W18180  18.015  20.552  10.575
52954W        W18181   9.402   9.544  11.107
52955W        W18182  35.474   8.986   0.391
52956W        W18183  26.872  13.191  13.459
52957W        W18184  24.126  27.578   3.642
52958W        W18185  43.794  26.039   1.429
52959W        W18186  36.802  16.849   4.226
52960W        W18187  27.343  38.304  11.051
52961W        W18188  38.299  13.925  10.094
52962W        W18189  21.065  24.917  11.122
52963W        W18190  12.277  27.974  11.398
52964W        W18191   7.720   5.845   0.262
52965W        W18192  10.830  43.561  14.310
52966W        W18193  43.418   7.881  14.397
52967W        W18194  15.057  29.106   4.421
52968W        W18195  14.694   2.521   0.815
52969W        W18196  37.419  33.898  12.000
52970W        W18197  11.299  25.469  11.032
52971W        W18198  26.247  35.422   4.236
52972W        W18199  42.097  33.661  13.295
52973W        W18200  25.987  11.133  14.565
52974W        W18201  36.993  22.914   4.285
52975W        W18202   8.979  37.537  13.439
52976W        W18203  18.837  34.517   3.280
52977W        W18204   5.204  24.625   1.919
52978W        W18205  34.211  11.939   3.611
52979W        W18206  17.368   8.553  12.067
52980W        W18207   4.766  38.576   3.220
52981W        W18208  17.680   1.797   2.870
52982W        W18209   1.449  14.530   0.433
52983W        W18210  26.927  33.838   0.965
52984W        W18211  17.090  17.924  11.356
52985W        W18212  27.366  29.354   0.425
52986W        W18213  13.187   9.596  11.593
52987W        W18214  11.114  36.392   1.390
52988W        W18215  22.401  39.503   1.363
52989W        W18216  19.058  25.019  14.453
52990W        W18217  23.202  44.527   2.202
52991W        W18218  32.344   4.245   2.441
52992W        W18219  23.482   3.018  11.379
52993W        W18220  11.804  11.304   4.329
52994W        W18221  24.702   6.805   0.435
52995W        W18222  19.183  10.698   3.836
52996W        W18223  13.220  25.823   3.848
52997W        W18224  15.130   6.175  12.878
52998W        W18225   5.201  23.720  13.849
52999W        W18226  38.796  15.169   1.706
53000W        W18227  34.330  34.156  12.916
53001W        W18228   7.840  16.395  10.338
53002W        W18229  26.327  42.341  12.834
53003W        W18230  12.750   6.307  14.534
53004W        W18231  43.286  20.754  14.688
53005W        W18232  36.449  36.388   2.359
53006W        W18233  30.090  17.371   2.874
53007W        W18234  20.152  22.395   1.438
53008W        W18235  36.358  37.943  11.161
53009W        W18236  33.403  26.957   1.382
53010W        W18237  33.498  26.691  11.184
53011W        W18238  37.431  30.304   4.238
53012W        W18239   4.299   1.415  11.051
53013W        W18240  18.597  35.517   4.361
53014W        W18241  17.725  31.704  12.018
53015W        W18242  23.522  14.706  13.193
53016W        W18243   2.056  17.695   3.022
53017W        W18244  38.033  27.986  10.641
53018W        W18245  28.484  28.178  13.992
53019W        W18246  40.803  21.467  12.142
53020W        W18247  36.809  23.664  14.295
53021W        W18248   9.649  39.085  10.907
53022W        W18249   3.452  35.436   2.205
53023W        W18250  11.225   0.806   0.304
53024W        W18251  30.100  35.449  12.572
53025W        W18252  31.141  21.740  11.421
53026W        W18253  38.023   5.787   2.590
53027W        W18254  36.728  43.832   4.118
53028W        W18255  14.635   6.666   2.361
53029W        W18256  43.073  20.891   3.781
53030W        W18257  14.567  19.721   3.153
53031W        W18258  25.105   1.478   0.621
53032W        W18259  33.164   7.958   4.536
53033W        W18260  24.550  24.179   0.045
53034W        W18261  27.553  42.927   4.697
53035W        W18262  15.691   1.697   2.815
53036W        W18263   1.381  24.304  14.277
53037W        W18264  10.579  25.727  13.523
53038W        W18265  18.966  35.024  13.247
53039W        W18266  43.886  30.815   2.706
53040W        W18267  41.958   5.444  13.424
53041W        W18268  10.983   9.646  11.102
53042W        W18269  37.527  26.724  11.576
53043W        W18270  37.545  41.421  12.365
53044W        W18271  21.292  17.565   0.049
53045W        W18272  34.061   8.333  10.912
53046W        W18273  42.699  27.051  13.699
53047W        W18274   8.193  10.267  10.548
53048W        W18275  23.999  26.469  13.579
53049W        W18276   9.184   9.296  11.956
53050W        W18277  24.012  14.343   4.468
53051W        W18278  41.263  38.218   4.553
53052W        W18279  34.617   2.859  14.092
53053W        W18280  36.637   1.489  12.374
53054W        W18281  29.067   9.658   2.431
53055W        W18282   8.679  40.070  14.860
53056W        W18283   6.200   5.947  13.507
53057W        W18284   6.809  22.202   1.439
53058W        W18285  21.955  32.460  11.093
53059W        W18286  25.540  39.303   0.736
53060W        W18287  21.263  36.454  10.638
53061W        W18288  16.591  44.463  14.366
53062W        W18289   8.730  32.301   2.367
53063W        W18290  34.078  42.554  13.022
53064W        W18291   9.349  22.476   3.805
53065W        W18292  39.707   5.356   2.217
53066W        W18293  31.204  15.678   1.321
53067W        W18294  38.038  40.363   1.632
53068W        W18295  21.028  32.090  11.134
53069W        W18296  10.903   4.373   0.000
53070W        W18297  27.016   7.903  14.473
53071W        W18298  13.968   9.869   4.758
53072W        W18299  41.131  11.871   1.698
53073W        W18300   7.109  22.990   3.628
53074W        W18301  43.440  22.427   0.714
53075W        W18302  24.712  20.156   3.101
53076W        W18303   3.246  10.890  11.687
53077W        W18304   2.514  18.773   3.907
53078W        W18305   4.290  19.444   0.496
53079W        W18306  41.594   2.720   2.610
53080W        W18307  41.148   1.088  12.898
53081W        W18308  15.742  44.941   2.320
53082W        W18309  29.225   6.030   1.355
53083W        W18310  25.389  15.174   3.290
53084W        W18311  18.068  20.538   3.435
53085W        W18312   9.951  21.207  13.249
53086W        W18313  21.042  13.990   0.902
53087W        W18314  26.222  30.767   2.715
53088W        W18315   9.300   5.663   2.614
53089W        W18316  20.248  27.921  12.746
53090W        W18317  11.749  41.442  10.222
53091W        W18318   3.362  23.010  12.347
53092W        W18319  29.210   4.242  11.983
53093W        W18320   0.865  29.100   1.878
53094W        W18321   2.085  23.606  14.548
53095W        W18322   0.537  10.518  13.337
53096W        W18323  14.308   1.984  12.113
53097W        W18324  24.133  22.654   0.937
53098W        W18325  10.765   5.342   0.056
53099W        W18326   6.741  12.638   1.521
53100W        W18327  15.813  16.844   1.685
53101W        W18328  14.819  12.820  12.547
53102W        W18329  13.124   2.529   1.958
53103W        W18330   6.647  38.905  12.527
53104W        W18331  10.922  18.447   3.627
53105W        W18332  13.809  31.596  14.887
53106W        W18333  34.844  24.529  12.531
53107W        W18334  11.811  24.614   4.640
53108W        W18335   6.319   9.830   4.996
53109W        W18336   8.510   7.723  13.889
53110W        W18337  35.313  38.085  10.259
53111W        W18338  27.157  17.510  12.851
53112W        W18339  15.667   5.826   3.417
53113W        W18340  24.073   5.040  11.171
53114W        W18341  12.880  44.926   4.308
53115W        W18342  18.243  42.271  11.498
53116W        W18343   6.255  15.903   1.308
53117W        W18344   0.764  36.297  11.180
53118W        W18345   0.474   3.461   3.677
53119W        W18346  41.349  39.643   4.070
53120W        W18347  17.259   2.714   4.337
53121W        W18348   7.423  24.489  14.864
53122W        W18349   3.156   1.367   0.813
53123W        W18350  11.984  14.988  13.971
53124W        W18351   4.661   3.955  11.631
53125W        W18352  20.887  25.162   2.307
53126W        W18353  12.294  34.626   0.299
53127W        W18354   3.963  37.240  12.655
53128W        W18355  30.132  32.605  11.613
53129W        W18356  13.842   5.172  12.473
53130W        W18357  19.157   9.561  13.896
53131W        W18358  26.152  38.944   4.419
53132W        W18359   8.897   4.218  11.923
53133W        W18360   4.457  23.650   3.343
53134W        W18361   1.476   7.655   3.756
53135W        W18362  21.076  44.584   2.576
53136W        W18363  12.739  21.072   4.606
53137W        W18364  36.124  21.927  13.966
53138W        W18365  33.495  24.296  11.386
53139W        W18366  34.463  31.480  13.296
53140W        W18367  33.161   6.350   2.840
53141W        W18368  39.517  13.649   3.159
53142W        W18369   5.420  25.185   2.684
53143W        W18370  33.579   6.858  13.006
53144W        W18371  37.446   6.670  12.418
53145W        W18372  12.102  25.742   0.984
53146W        W18373  16.503  10.250  14.875
53147W        W18374  30.392  10.543   5.414
53148W        W18375   7.753  29.592   3.390
53149W        W18376   1.457  32.202  11.818
53150W        W18377   6.792  40.711   2.118
53151W        W18378  28.161  19.802  13.420
53152W        W18379  15.251  16.182   3.118
53153W        W18380  14.715  33.125  12.035
53154W        W18381  10.053  18.092   2.996
53155W        W18382  38.404  10.590  11.540
53156W        W18383   7.670  17.839   3.726
53157W        W18384  20.245  31.463  10.713
53158W        W18385  33.136  43.950  10.472
53159W        W18386   0.755  16.648   5.056
53160W        W18387  12.636   7.445   0.941
53161W        W18388   5.267  33.851  11.129
53162W        W18389  20.786  23.770   4.391
53163W        W18390  30.940  15.469   0.886
53164W        W18391  40.959  18.723  11.017
53165W        W18392   9.260  40.055  14.409
53166W        W18393  10.909  43.359   0.755
53167W        W18394  12.583   0.851  14.203
53168W        W18395  15.176  32.829  10.135
53169W        W18396  15.762  38.297  14.424
53170W        W18397  39.883  31.968   2.189
53171W        W18398  18.722  39.172   0.998
53172W        W18399  13.689  28.526   4.765
53173W        W18400  41.462  36.413   3.298
53174W        W18401  27.131  17.416   4.982
53175W        W18402  24.029   6.458  13.908
53176W        W18403  36.432   5.309   4.576
53177W        W18404  32.217   6.438   4.011
53178W        W18405  30.078  33.492   4.860
53179W        W18406  31.105  41.517  13.895
53180W        W18407   6.837  14.113   2.206
53181W        W18408  24.700  41.577   3.164
53182W        W18409  16.035  22.452   4.256
53183W        W18410  10.109  22.947  13.572
53184W        W18411  25.714  41.961   1.666
53185W        W18412  35.365  16.691   1.813
53186W        W18413  18.906  28.162   2.388
53187W        W18414  22.704   0.340  14.447
53188W        W18415   5.715  26.025   2.611
53189W        W18416  36.324   6.120  11.939
53190W        W18417   1.262  28.545   3.552
53191W        W18418  19.250  21.691  11.236
53192W        W18419  42.440  44.805   1.795
53193W        W18420  25.965  27.369   2.781
53194W        W18421  14.024  25.332  12.341
53195W        W18422  35.778  31.339   3.234
53196W        W18423  44.076  25.693  11.619
53197W        W18424   4.929  15.707  14.817
53198W        W18425  31.945  22.129  10.351
53199W        W18426  43.113  12.746   3.848
53200W        W18427   0.074  33.477  11.580
53201W        W18428  39.788  24.802   1.851
53202W        W18429  23.179  18.156   2.332
53203W        W18430  21.986  41.284  14.812
53204W        W18431   7.394   4.820   2.264
53205W        W18432  35.945  10.378  13.906
53206W        W18433  14.668  44.347  14.313
53207W        W18434  14.844   0.261   2.503
53208W        W18435  27.049  19.347  12.833
53209W        W18436  35.808   0.354  11.612
53210W        W18437   7.466  15.805   1.367
53211W        W18438  35.851  38.905  10.061
53212W        W18439  24.149  37.335  10.733
53213W        W18440  11.387  44.329  14.102
53214W        W18441  43.877  34.433  11.617
53215W        W18442  18.510   4.442  11.630
53216W        W18443  11.161  27.961   1.830
53217W        W18444   1.047  28.855   0.296
53218W        W18445  34.477  30.707  10.798
53219W        W18446  32.251   1.944  13.957
53220W        W18447  32.589  20.073   2.711
53221W        W18448  41.717  32.076   2.143
53222W        W18449  31.290  21.893   1.795
53223W        W18450   2.819  20.729   2.696
53224W        W18451  29.401  13.544   2.536
53225W        W18452  37.024   0.476   0.825
53226W        W18453  13.595  11.661   3.629
53227W        W18454   8.458  10.915  13.530
53228W        W18455   3.269  29.831   0.244
53229W        W18456   4.140  26.045   1.223
53230W        W18457   5.758  43.430  10.208
53231W        W18458   4.448  19.489   2.959
53232W        W18459   4.300  28.953   0.707
53233W        W18460  23.712  20.751   2.872
53234W        W18461  15.075  29.813  14.869
53235W        W18462  21.624  19.653   2.744
53236W        W18463  18.565  17.855  13.961
53237W        W18464   6.802   0.966   0.001
53238W        W18465  39.970  39.985  14.921
53239W        W18466  22.148  42.006   2.396
53240W        W18467  26.718  14.089  10.312
53241W        W18468  40.921  23.919   0.160
53242W        W18469  38.975  43.994  12.734
53243W        W18470  36.921  43.045   2.676
53244W        W18471  23.908  14.830  10.659
53245W        W18472  15.091  14.030   3.227
53246W        W18473  17.795  29.669  12.651
53247W        W18474  17.222  14.734  14.311
53248W        W18475  17.108  13.919  12.641
53249W        W18476  19.095  16.581  12.564
53250W        W18477  10.635  18.609   1.651
53251W        W18478  36.156  31.655   0.413
53252W        W18479  42.446   6.849   2.285
53253W        W18480   1.903  23.289   5.266
53254W        W18481  31.493  42.916   3.000
53255W        W18482  26.515  43.753   4.616
53256W        W18483  23.188  42.498   4.072
53257W        W18484  28.726  33.960   3.161
53258W        W18485  15.537  10.618   3.303
53259W        W18486  40.379  38.349   2.568
53260W        W18487  15.722   1.289   1.773
53261W        W18488   4.284  12.955  11.524
53262W        W18489  44.111  25.028   2.289
53263W        W18490  16.299  42.906   2.363
53264W        W18491  21.758  15.658   3.276
53265W        W18492  38.825  38.255  11.980
53266W        W18493  26.998  22.630   4.628
53267W        W18494   7.105  26.193  11.648
53268W        W18495  38.223  19.676   1.912
53269W        W18496   6.122  21.353   4.333
53270W        W18497  38.829   6.739  14.476
53271W        W18498  41.858  42.226  11.971
53272W        W18499   0.385  38.438  13.464
53273W        W18500  37.556  26.155  12.891
53274W        W18501  38.779  29.251   4.622
53275W        W18502  43.812   1.869   4.475
53276W        W18503  44.666  21.699  13.398
53277W        W18504  28.267  14.287  14.418
53278W        W18505   2.645   5.417   0.466
53279W        W18506  11.524  12.014  14.873
53280W        W18507  26.016  44.782  13.433
53281W        W18508  16.373  30.711  11.582
53282W        W18509   6.847  39.294   1.494
53283W        W18510  40.986   4.147   2.136
53284W        W18511  24.202  37.791   3.342
53285W        W18512  16.128  18.494   2.647
53286W        W18513  15.337  22.632   0.765
53287W        W18514  13.369   6.695   0.196
53288W        W18515   0.284  20.637   0.262
53289W        W18516  36.436  38.098   4.147
53290W        W18517  40.345  19.227   2.363
53291W        W18518  11.798   9.174   2.947
53292W        W18519  23.087  35.524   4.718
53293W        W18520  10.686   4.944  10.951
53294W        W18521   6.384  17.643  11.368
53295W        W18522  40.691   1.256   3.066
53296W        W18523   7.350  12.457  12.640
53297W        W18524  30.831   1.396   1.095
53298W        W18525  35.677  22.759   0.244
53299W        W18526   8.638  37.393   3.683
53300W        W18527  36.139   5.175  14.827
53301W        W18528  21.780  44.304  13.573
53302W        W18529  13.890  13.741   4.160
53303W        W18530  22.820  25.641   3.180
53304W        W18531  16.174  40.429   1.429
53305W        W18532  10.363  20.163   4.724
53306W        W18533  34.640  34.695  10.127
53307W        W18534  40.766   8.408  14.568
53308W        W18535  10.147  28.468  12.979
53309W        W18536  18.089  27.872  10.529
53310W        W18537  39.923  15.136   1.406
53311W        W18538   0.224  28.750   0.884
53312W        W18539  31.056  42.114   1.119
53313W        W18540  30.905  10.683  14.888
53314W        W18541  15.885  44.097  10.548
53315W        W18542   2.850   9.324  14.976
53316W        W18543  43.086  27.733  14.703
53317W        W18544  40.148   6.844   1.336
53318W        W18545   6.624   3.340   0.531
53319W        W18546  16.168  40.930  11.615
53320W        W18547   2.251   7.112   1.312
53321W        W18548  21.723   9.018  14.274
53322W        W18549  30.716  41.846   1.392
53323W        W18550  41.729  18.253  11.236
53324W        W18551  12.320  40.417   2.252
53325W        W18552   3.737  10.840  14.958
53326W        W18553   4.712  33.977  12.855
53327W        W18554  10.118  30.448   1.647
53328W        W18555  17.502  35.076   3.712
53329W        W18556  25.236  30.160  12.931
53330W        W18557   0.968   4.320  12.980
53331W        W18558  29.587  42.534   3.262
53332W        W18559   9.114  39.081  13.361
53333W        W18560   9.192  19.428  14.408
53334W        W18561   6.515   3.398  12.060
53335W        W18562  18.154  13.381   2.810
53336W        W18563  27.482  10.387  14.758
53337W        W18564  26.407  14.899   0.519
53338W        W18565  20.126   2.590  11.973
53339W        W18566  40.437   8.434  10.779
53340W        W18567  43.933  25.550   2.552
53341W        W18568  28.003  42.238   0.942
53342W        W18569  24.299  42.718   4.872
53343W        W18570  28.394   9.761   1.306
53344W        W18571  37.349   0.597  12.111
53345W        W18572  33.125  38.770  14.490
53346W        W18573  33.578   4.963  11.732
53347W        W18574  41.894  40.653   4.691
53348W        W18575  14.795  28.553  11.700
53349W        W18576  35.673  37.419   4.116
53350W        W18577   5.745   7.345   0.914
53351W        W18578  41.572  35.914  13.629
53352W        W18579  27.148  36.239   0.416
53353W        W18580   4.453  12.883  14.947
53354W        W18581   0.537   3.968  14.529
53355W        W18582  13.817  29.130  10.756
53356W        W18583   8.636  37.421   1.939
53357W        W18584  27.950   3.931  14.662
53358W        W18585  14.947  32.006   9.855
53359W        W18586  26.223   5.041   3.247
53360W        W18587  23.226  13.749   4.762
53361W        W18588  10.849   9.136   1.206
53362W        W18589  10.184  10.326   2.169
53363W        W18590  29.036  44.681  14.592
53364W        W18591  39.348  15.828   1.336
53365W        W18592  25.560  39.565   1.845
53366W        W18593  32.639  18.474  13.070
53367W        W18594  30.363   0.454   1.901
53368W        W18595  21.926   6.666   3.284
53369W        W18596   8.328   1.003  13.579
53370W        W18597  36.976   3.314  12.616
53371W        W18598   7.976  35.377   0.980
53372W        W18599  23.893  37.360  13.040
53373W        W18600  23.267  44.500   2.721
53374W        W18601  38.463  25.540   3.892
53375W        W18602  12.637  15.913   1.819
53376W        W18603   4.223  39.897  11.184
53377W        W18604  27.676  36.653   4.719
53378W        W18605  23.025  33.348   4.319
53379W        W18606  24.960  19.584   4.705
53380W        W18607  38.466  37.859  14.410
53381W        W18608  28.192  42.849   1.224
53382W        W18609  39.336  15.872   3.718
53383W        W18610  18.322  32.172  11.626
53384W        W18611   9.026   7.856   0.863
53385W        W18612  21.793  20.125  14.354
53386W        W18613   6.214  19.766   1.804
53387W        W18614  11.893  42.062  13.599
53388W        W18615  35.805   5.903  12.520
53389W        W18616   8.289  12.644  14.668
53390W        W18617  24.433  35.445  13.329
53391W        W18618  10.301  31.645  12.574
53392W        W18619   0.254  25.532  14.862
53393W        W18620  15.213  23.143  10.631
53394W        W18621   9.314   7.270   4.770
53395W        W18622  34.038  24.610   2.197
53396W        W18623  29.496  35.353  13.698
53397W        W18624  21.637  34.631   0.266
53398W        W18625  24.699  28.419  11.988
53399W        W18626   6.176   3.027   1.268
53400W        W18627  26.459  39.781  12.032
53401W        W18628   7.849   8.617   1.228
53402W        W18629   3.158  35.057  13.990
53403W        W18630   8.975  40.599  10.247
53404W        W18631  14.744  11.894  11.687
53405W        W18632  30.595  26.074  11.629
53406W        W18633  19.159  15.591   0.937
53407W        W18634  14.567  15.840  14.944
53408W        W18635  30.371  39.408   2.016
53409W        W18636  20.609  43.445  12.808
53410W        W18637  28.859  12.378  11.544
53411W        W18638  10.044  13.382   0.431
53412W        W18639  37.769  26.733   2.925
53413W        W18640  35.517  27.969  13.536
53414W        W18641  41.584   8.145   2.871
53415W        W18642  34.573  19.594   4.512
53416W        W18643  24.041   9.588  11.238
53417W        W18644  25.455   8.614  10.675
53418W        W18645  42.940   2.274  11.553
53419W        W18646  29.435  14.375  10.180
53420W        W18647   5.072   5.055  11.198
53421W        W18648  31.758  36.277  10.633
53422W        W18649   6.927   9.710   4.693
53423W        W18650  19.023  21.581  10.794
53424W        W18651   4.023  37.074  14.106
53425W        W18652  16.331  24.651   4.628
53426W        W18653  19.608  12.466  10.525
53427W        W18654   6.681   3.040   3.284
53428W        W18655  42.798  10.788   3.176
53429W        W18656  33.966  17.149  12.496
53430W        W18657  24.840   1.446  12.541
53431W        W18658  35.814  30.224  11.625
53432W        W18659  20.818  21.550  12.810
53433W        W18660  24.386   2.490  12.422
53434W        W18661   4.962  10.784  10.735
53435W        W18662  41.765  18.102   0.443
53436W        W18663  39.571  33.455  11.585
53437W        W18664  38.310  14.781  10.715
53438W        W18665   7.867  10.773   4.560
53439W        W18666  22.648  28.824   3.549
53440W        W18667  25.552  28.776  14.306
53441W        W18668  14.642   1.718   1.625
53442W        W18669  15.893  30.298   1.805
53443W        W18670  28.458   6.301  11.253
53444W        W18671   8.069  39.224   0.643
53445W        W18672  42.889  19.916   2.133
53446W        W18673  34.302  42.761   1.726
53447W        W18674  21.149   8.142  13.100
53448W        W18675  23.360  25.067   2.905
53449W        W18676  14.750  23.630  12.578
53450W        W18677  18.219   4.479  13.333
53451W        W18678  17.978  12.389  14.315
53452W        W18679  24.624  37.353  10.515
53453W        W18680  28.576  39.415  11.549
53454W        W18681  33.408  27.694  12.923
53455W        W18682  32.456  32.964   1.350
53456W        W18683  18.392  14.169   1.150
53457W        W18684  14.808   1.571  10.631
53458W        W18685   4.391  25.319  12.160
53459W        W18686  42.869  26.752  14.958
53460W        W18687  10.539  35.109  11.247
53461W        W18688  32.534  31.506   0.350
53462W        W18689  29.001  16.094   4.073
53463W        W18690  24.128   6.483   2.353
53464W        W18691  11.339  31.368   0.243
53465W        W18692   3.227  17.135  14.890
53466W        W18693  15.612  29.821  11.286
53467W        W18694  20.561   0.267   0.714
53468W        W18695   6.172  14.608   0.727
53469W        W18696  33.411  19.766   4.169
53470W        W18697  21.996  43.246  14.419
53471W        W18698   5.665  19.939  11.665
53472W        W18699  10.969  10.610   3.688
53473W        W18700  13.271  29.618   0.705
53474W        W18701  16.057  13.826  11.104
53475W        W18702  27.708  21.965  13.837
53476W        W18703  38.178  22.443  10.049
53477W        W18704  33.422  24.360   4.109
53478W        W18705  15.565   8.751  12.502
53479W        W18706  22.692   8.934  12.510
53480W        W18707   2.389  43.494  13.007
53481W        W18708  11.660  14.340   1.896
53482W        W18709  11.247  30.966  14.296
53483W        W18710  25.156  22.083   1.077
53484W        W18711  23.405  32.535   1.395
53485W        W18712   6.941  11.784   1.887
53486W        W18713  14.673  32.453   9.949
53487W        W18714  34.949  30.721  12.727
53488W        W18715  18.807  29.619  13.844
53489W        W18716  36.905  27.114  12.421
53490W        W18717   9.163  22.287  12.090
53491W        W18718  30.531  20.707  11.857
53492W        W18719  34.895   5.210   4.564
53493W        W18720  22.685  26.765  14.422
53494W        W18721  21.749   0.126   2.453
53495W        W18722   0.420   5.513  12.447
53496W        W18723  39.515   5.867  13.600
53497W        W18724  31.355   4.096   4.520
53498W        W18725  25.041  29.998  13.388
53499W        W18726  35.834  27.601  14.212
53500W        W18727   7.856  37.686  10.303
53501W        W18728   7.619   4.746   2.874
53502W        W18729  31.529  30.749  13.134
53503W        W18730  32.211  32.712   4.066
53504W        W18731  42.425  37.490   1.785
53505W        W18732   7.526   8.545   4.216
53506W        W18733  36.131  21.766  10.866
53507W        W18734  16.910  27.999   2.253
53508W        W18735  43.884  17.536  12.591
53509W        W18736  35.984  27.144  13.973
53510W        W18737  31.605  36.596  12.998
53511W        W18738  14.685   3.800  12.970
53512W        W18739  14.560  19.187  12.589
53513W        W18740   0.028  33.569   1.204
53514W        W18741  13.799  15.258   3.870
53515W        W18742  31.889  24.120  14.810
53516W        W18743  37.043  26.039  11.121
53517W        W18744  38.872  27.964   1.369
53518W        W18745  44.801  26.956   1.011
53519W        W18746  35.922  40.828  11.603
53520W        W18747  34.529   0.862  12.162
53521W        W18748  31.566  14.234   0.399
53522W        W18749  17.260  31.847   4.791
53523W        W18750  22.225  26.729   3.703
53524W        W18751  39.166  31.200   0.415
53525W        W18752  19.035  34.844   2.426
53526W        W18753  36.255   5.928   9.866
53527W        W18754   6.695  14.268  13.491
53528W        W18755  23.052  32.060  13.494
53529W        W18756   7.281  30.556  13.348
53530W        W18757  21.971  42.722  12.660
53531W        W18758  29.411  39.855  14.762
53532W        W18759  41.008  40.561   4.014
53533W        W18760  41.504  36.781   1.265
53534W        W18761   1.688  39.353   0.290
53535W        W18762  43.364   2.494  11.271
53536W        W18763  34.757   6.647  11.161
53537W        W18764   8.659  35.917  11.115
53538W        W18765  33.068  39.343   1.210
53539W        W18766  32.688  12.388  10.436
53540W        W18767   6.968  28.459   3.052
53541W        W18768  39.897  19.956  12.056
53542W        W18769  27.165  22.626  12.963
53543W        W18770  10.730  34.802  11.656
53544W        W18771   4.357  42.885   0.411
53545W        W18772  21.926   0.205   4.178
53546W        W18773   3.658  11.227  14.575
53547W        W18774  19.556  29.056  12.216
53548W        W18775  44.094   4.230   3.489
53549W        W18776  36.904  44.206   0.313
53550W        W18777  34.022  39.766  14.277
53551W        W18778  26.964  10.205   0.750
53552W        W18779  12.550  41.963   2.355
53553W        W18780  34.363  34.018  12.040
53554W        W18781  43.172   5.710   3.265
53555W        W18782   4.714  41.375  13.896
53556W        W18783  32.893  42.312   0.414
53557W        W18784  28.916  43.925  12.680
53558W        W18785   4.456  33.305   2.267
53559W        W18786  12.127  28.116   3.988
53560W        W18787  30.161  25.913   3.460
53561W        W18788  11.439   8.728  10.408
53562W        W18789   8.202   6.104   1.637
53563W        W18790   4.148  25.314  13.923
53564W        W18791  11.113  26.641   3.271
53565W        W18792  12.465  18.594   1.316
53566W        W18793  33.911  18.351   3.238
53567W        W18794  41.511  19.573  11.194
53568W        W18795  34.553  28.140   4.087
53569W        W18796  16.542  29.439   3.696
53570W        W18797  38.383  18.726   3.285
53571W        W18798   0.836  21.560   0.969
53572W        W18799  39.791  25.677  10.413
53573W        W18800   0.328  20.074   1.442
53574W        W18801  41.488   0.967   1.751
53575W        W18802  41.536  13.271   2.437
53576W        W18803  40.556  35.312   2.686
53577W        W18804  30.925   4.290   1.320
53578W        W18805  33.058  17.241   2.686
53579W        W18806  30.168  35.652  12.113
53580W        W18807  20.603   2.459   3.857
53581W        W18808  29.962  32.424   2.007
53582W        W18809  24.994  34.504   3.169
53583W        W18810  22.144  18.340   0.888
53584W        W18811  26.714   4.352   0.837
53585W        W18812  31.510  25.944  11.609
53586W        W18813  22.993  29.414   1.650
53587W        W18814   5.377  20.237   4.980
53588W        W18815  31.177   1.476   2.479
53589W        W18816  24.513  11.778   3.290
53590W        W18817  35.303  11.666   4.332
53591W        W18818  16.286  15.729   4.133
53592W        W18819  41.831   0.248  14.632
53593W        W18820   7.871  39.279   3.663
53594W        W18821   0.680  37.952  12.579
53595W        W18822  27.580  17.530   4.407
53596W        W18823  41.711  18.849  13.647
53597W        W18824   0.936  14.829   4.476
53598W        W18825  11.119  38.462   1.760
53599W        W18826  26.715  19.767   0.396
53600W        W18827  34.878  44.485  11.296
53601W        W18828  25.648  33.571   0.443
53602W        W18829  25.169   6.853   0.660
53603W        W18830  34.877  38.353  14.091
53604W        W18831  29.656   1.281   2.346
53605W        W18832   0.726  39.313   3.971
53606W        W18833  29.987  19.218  13.390
53607W        W18834  13.291  34.510   4.542
53608W        W18835  30.404   1.062   1.197
53609W        W18836   1.427   8.359   0.640
53610W        W18837  25.991  24.280  13.802
53611W        W18838   2.950   9.533  10.797
53612W        W18839  15.091  28.108  10.689
53613W        W18840  10.556  11.028   4.109
53614W        W18841  32.549  12.341  11.974
53615W        W18842  18.173  36.808   1.758
53616W        W18843   0.295  18.111   0.539
53617W        W18844  34.592   9.739  12.621
53618W        W18845   3.896  12.121  11.542
53619W        W18846  16.733  19.724  14.842
53620W        W18847   6.840  43.891  13.499
53621W        W18848   6.131  22.047   1.813
53622W        W18849  22.413   5.166   1.798
53623W        W18850   7.360  27.479  11.883
53624W        W18851   0.660  15.170  13.520
53625W        W18852   3.366   8.379  11.651
53626W        W18853  14.022   3.466   1.099
53627W        W18854  34.820   9.405   4.502
53628W        W18855  21.167   6.721  11.160
53629W        W18856  28.420  22.396  13.040
53630W        W18857  14.160  39.300  14.522
53631W        W18858  10.658  15.867   1.314
53632W        W18859  13.575  34.018  11.949
53633W        W18860  40.084  26.190   3.375
53634W        W18861  42.331  20.262  12.146
53635W        W18862  44.478  14.670   3.052
53636W        W18863  13.574  28.854  14.770
53637W        W18864   9.872  36.266  10.757
53638W        W18865   1.874  23.055   4.418
53639W        W18866  44.413  35.263  12.942
53640W        W18867   7.293  21.806   0.814
53641W        W18868  17.502  34.153   2.678
53642W        W18869  40.499   2.804  10.203
53643W        W18870  32.521  38.912   2.698
53644W        W18871  21.635  15.362   0.457
53645W        W18872  27.120  30.418  12.088
53646W        W18873  13.530  22.965   2.676
53647W        W18874  16.606  17.808   2.880
53648W        W18875  14.614  14.867   1.871
53649W        W18876   3.620  40.834  12.355
53650W        W18877  16.590   1.177   4.220
53651W        W18878   8.672  27.011   0.995
53652W        W18879  26.210  40.296  11.454
53653W        W18880  42.110  27.127  11.961
53654W        W18881  15.172  34.617   4.739
53655W        W18882   1.314  42.970   2.140
53656W        W18883  41.646  36.779   4.923
53657W        W18884  17.229   6.707   2.387
53658W        W18885   6.425  25.012  14.390
53659W        W18886  29.219  41.930   1.398
53660W        W18887  11.054  23.933  13.512
53661W        W18888   8.917  13.059  14.555
53662W        W18889  37.543  19.554  14.015
53663W        W18890  41.583  44.936  10.679
53664W        W18891  41.794  35.834   4.703
53665W        W18892  41.018  41.093   1.793
53666W        W18893  43.425  42.250   3.449
53667W        W18894  36.860  28.540   3.247
53668W        W18895  26.058   2.960   1.821
53669W        W18896  16.267   9.817   4.047
53670W        W18897   9.863  19.370   1.713
53671W        W18898   7.151  17.485   3.140
53672W        W18899  29.734  24.256  12.550
53673W        W18900  38.856   7.629   0.849
53674W        W18901  25.147  29.834   4.792
53675W        W18902   1.701   7.670  12.509
53676W        W18903  34.461   4.124  14.462
53677W        W18904  31.602  10.533  13.512
53678W        W18905  11.051  16.130  13.860
53679W        W18906  24.558  44.162   4.942
53680W        W18907  26.668  39.008   0.402
53681W        W18908  41.195  42.473   0.794
53682W        W18909   3.708  42.740  14.856
53683W        W18910  31.742   9.882   4.384
53684W        W18911  44.522   2.746  11.937
53685W        W18912  22.612  22.105   0.754
53686W        W18913   4.759  33.075  14.476
53687W        W18914   7.353  36.045  14.828
53688W        W18915  37.236   9.551  12.852
53689W        W18916   5.915   4.204   2.627
53690W        W18917  30.197  18.645   2.650
53691W        W18918  44.806  40.066  11.503
53692W        W18919  27.746  39.430   4.302
53693W        W18920  27.383  42.412  13.458
53694W        W18921  42.594  40.737  11.037
53695W        W18922  28.601  41.737  12.895
53696W        W18923  12.049  22.932  14.368
53697W        W18924   4.367   5.246   0.277
53698W        W18925  37.427  38.510   3.717
53699W        W18926  22.034  44.694   0.270
53700W        W18927  16.319  13.653   1.938
53701W        W18928  22.120  18.581   1.972
53702W        W18929   9.348  39.793  12.979
53703W        W18930   9.456  35.880  14.746
53704W        W18931  36.802   9.562   0.340
53705W        W18932  19.172  43.015   1.882
53706W        W18933  26.106  43.228   1.379
53707W        W18934  18.028   3.287  12.403
53708W        W18935   8.099   7.412   3.298
53709W        W18936  11.636   3.785   3.788
53710W        W18937  16.565  27.567   3.510
53711W        W18938  17.354  21.185   3.947
53712W        W18939  24.518  13.778   0.021
53713W        W18940  10.892  28.179  12.675
53714W        W18941  30.217   3.444   0.491
53715W        W18942  36.502  14.350   0.926
53716W        W18943  27.887  10.052   3.088
53717W        W18944  42.645   5.807   4.253
53718W        W18945  18.467  30.452   3.664
53719W        W18946   2.313   4.150  10.961
53720W        W18947  24.582  21.180   2.233
53721W        W18948   3.945   2.595  10.739
53722W        W18949  16.569   8.516  11.127
53723W        W18950  10.822  43.984   4.861
53724W        W18951   7.216   9.871   0.353
53725W        W18952   2.963   6.498  13.548
53726W        W18953  25.276  14.307  12.470
53727W        W18954  41.334  16.611  11.678
53728W        W18955   5.683  36.252  11.623
53729W        W18956  33.251  32.674   3.220
53730W        W18957  21.738  42.249  12.991
53731W        W18958  39.318  23.564   3.505
53732W        W18959  23.780  10.657  13.642
53733W        W18960   1.462  15.406  14.402
53734W        W18961  11.991  39.076  10.357
53735W        W18962  18.797   1.250   1.279
53736W        W18963   3.091  10.490   3.729
53737W        W18964  24.578  17.994  12.955
53738W        W18965   3.973  13.703  14.983
53739W        W18966  17.191  27.592   2.856
53740W        W18967   9.693  44.340   3.187
53741W        W18968   0.790  22.699  12.051
53742W        W18969  26.133  32.072  11.140
53743W        W18970   7.229  23.537  12.451
53744W        W18971  16.773  43.503   2.302
53745W        W18972  37.619  14.757   4.609
53746W        W18973  21.881  26.340  12.460
53747W        W18974  23.220   0.252   0.307
53748W        W18975  39.499  33.908  10.955
53749W        W18976  13.167  27.659  11.540
53750W        W18977  19.445  39.535   2.228
53751W        W18978  44.550  33.205   4.406
53752W        W18979   1.433  43.936  13.877
53753W        W18980  23.527  25.063   0.030
53754W        W18981  24.941  40.104   0.825
53755W        W18982  13.284   3.858  11.520
53756W        W18983  34.789  22.203   3.678
53757W        W18984  40.457   0.772  10.335
53758W        W18985  28.446  18.589  11.518
53759W        W18986   9.577  24.210   1.287
53760W        W18987  31.612  15.263   4.953
53761W        W18988  13.281  23.250   4.511
53762W        W18989  14.811  24.475   3.711
53763W        W18990  11.607  23.061  11.626
53764W        W18991   8.188  38.230   2.222
53765W        W18992  22.222  30.066   1.860
53766W        W18993  40.899   4.869   1.917
53767W        W18994  10.924  13.243  11.235
53768W        W18995  35.238   2.497  13.715
53769W        W18996  30.140   9.042   0.971
53770W        W18997  12.962  42.433  14.094
53771W        W18998  14.769  39.027   3.247
53772W        W18999  22.571  16.120   2.402
53773W        W19000  16.691  40.858   1.999
53774W        W19001   3.735   3.661   0.063
53775W        W19002  12.279  14.760   1.520
53776W        W19003  10.238  38.600   4.157
53777W        W19004  24.155  12.830  10.734
53778W        W19005  30.565   8.923   0.224
53779W        W19006  29.082  18.745   4.904
53780W        W19007  22.251  23.955  13.150
53781W        W19008  11.596  39.861   1.186
53782W        W19009  10.453   5.515   1.810
53783W        W19010  38.510  32.053  14.771
53784W        W19011  13.914  37.284  10.400
53785W        W19012  31.546  35.381  12.175
53786W        W19013  23.571   3.315   4.445
53787W        W19014  41.427  31.334  13.538
53788W        W19015  23.446  15.402   3.607
53789W        W19016   8.533   7.660   0.995
53790W        W19017  39.300  24.956   4.779
53791W        W19018  39.635  42.389   3.799
53792W        W19019  27.372   8.671   1.661
53793W        W19020  19.174  12.153  10.642
53794W        W19021   3.649  26.994  12.904
53795W        W19022  11.696  43.996  13.825
53796W        W19023  36.440  33.059  12.694
53797W        W19024   3.338   1.162   2.068
53798W        W19025  19.296  32.425  13.330
53799W        W19026   0.131  41.447  10.715
53800W        W19027  28.629  30.583  12.008
53801W        W19028   7.209  27.535   2.203
53802W        W19029  11.385  34.883  12.714
53803W        W19030  32.120  42.180  12.618
53804W        W19031  30.906  27.506  12.141
53805W        W19032  26.540  34.954   3.634
53806W        W19033  12.315   5.679  11.166
53807W        W19034  10.208  21.157  14.527
53808W        W19035   5.825   6.365  11.634
53809W        W19036   5.177   0.398  13.344
53810W        W19037   2.804  19.195   3.750
53811W        W19038   7.145  29.250   2.943
53812W        W19039  18.661  29.698  12.080
53813W        W19040  24.034  30.782  14.490
53814W        W19041  19.697  17.568  13.909
53815W        W19042  23.817  14.844   2.137
53816W        W19043   7.784  15.645  13.257
53817W        W19044   3.692  37.953  11.173
53818W        W19045   7.762  43.339   3.742
53819W        W19046  44.203  38.564  10.297
53820W        W19047  38.415   7.961   2.115
53821W        W19048  32.864  37.837  14.866
53822W        W19049  43.502  38.395  13.993
53823W        W19050  18.811  36.936   3.866
53824W        W19051  35.451  21.130  13.427
53825W        W19052   8.920  38.308  14.504
53826W        W19053  33.732  43.468   1.625
53827W        W19054  39.518  36.819  12.832
53828W        W19055  10.704  23.978   3.302
53829W        W19056  11.275   0.540   3.197
53830W        W19057  33.349  41.451   2.169
53831W        W19058  43.422  36.513   0.104
53832W        W19059  25.937   9.286   4.455
53833W        W19060  32.808  15.711   0.069
53834W        W19061   5.334  24.269   2.272
53835W        W19062   9.424  37.415   2.391
53836W        W19063  42.789  44.549   1.007
53837W        W19064   2.507  27.644   3.105
53838W        W19065  44.756  29.566   2.829
53839W        W19066  16.138  27.144  11.076
53840W        W19067  14.605  11.148  13.568
53841W        W19068  15.500  22.529   1.822
53842W        W19069  27.059   8.579  13.623
53843W        W19070  27.153  18.163   2.453
53844W        W19071   5.298  29.037   1.752
53845W        W19072  22.096  37.757   0.940
53846W        W19073   7.467  37.241  11.565
53847W        W19074  11.212  28.650  14.413
53848W        W19075  14.095   0.343   2.865
53849W        W19076  41.288  40.155   4.150
53850W        W19077  16.042   2.014  13.517
53851W        W19078  40.346  20.102   3.268
53852W        W19079  20.416  44.068  10.725
53853W        W19080  43.608  44.836  13.763
53854W        W19081  12.326   2.965   3.708
53855W        W19082  17.375  22.476   1.763
53856W        W19083  25.349  17.277   1.353
53857W        W19084   5.412  27.701   1.453
53858W        W19085  10.887  33.187   2.240
53859W        W19086  11.453   6.283   0.755
53860W        W19087  12.446  29.002  10.769
53861W        W19088  43.441  14.440  10.675
53862W        W19089  32.479   2.321   0.977
53863W        W19090  22.695  27.820   3.686
53864W        W19091   1.864  38.902  14.338
53865W        W19092  25.284  37.862  14.971
53866W        W19093   5.366  20.143  13.654
53867W        W19094  11.951  23.792  11.102
53868W        W19095   3.884  12.388  11.979
53869W        W19096  28.712  11.817   3.099
53870W        W19097  41.522  19.059   9.796
53871W        W19098  39.002  18.968   4.085
53872W        W19099   2.687  32.550  12.985
53873W        W19100  35.823  39.271  13.090
53874W        W19101  19.461  39.120  14.445
53875W        W19102  22.548  26.366   9.855
53876W        W19103   3.930  13.312   3.712
53877W        W19104  10.260  12.600  14.393
53878W        W19105  22.652   6.259   1.293
53879W        W19106  20.858  14.824   2.524
53880W        W19107  23.256  15.782   0.792
53881W        W19108   8.659   7.338   1.801
53882W        W19109   7.810  12.719  14.011
53883W        W19110  32.462   0.062   3.251
53884W        W19111  39.270  10.633  13.389
53885W        W19112  31.000  27.942   9.775
53886W        W19113  10.799   5.928   0.779
53887W        W19114  44.150  30.495   0.318
53888W        W19115  36.877  24.195  11.603
53889W        W19116  44.872  18.591  11.432
53890W        W19117  29.194  14.310  12.726
53891W        W19118   4.707  12.663  12.212
53892W        W19119  13.077  40.711   1.007
53893W        W19120  31.470  30.649   2.732
53894W        W19121  39.083  19.536  14.930
53895W        W19122  18.029  39.286   4.459
53896W        W19123  12.041  17.047   9.813
53897W        W19124  40.304   6.411   3.459
53898W        W19125  25.130   5.384   1.175
53899W        W19126  22.814  12.662   4.082
53900W        W19127  44.176  11.704  11.695
53901W        W19128  40.288  32.051   3.686
53902W        W19129   5.612  40.682   4.122
53903W        W19130  33.333   0.726   2.671
53904W        W19131  44.350  23.959  11.087
53905W        W19132  19.576  13.534   2.783
53906W        W19133  33.144   2.425  13.039
53907W        W19134  18.849  26.490  13.113
53908W        W19135  40.312  35.799  11.379
53909W        W19136  14.572  22.088   2.805
53910W        W19137   6.340   6.202   4.639
53911W        W19138  10.369  38.346   1.472
53912W        W19139  23.736  29.066   0.391
53913W        W19140  20.524  26.668   2.054
53914W        W19141  44.128  11.673  14.085
53915W        W19142   2.716   2.395  11.751
53916W        W19143  29.362   2.365   1.210
53917W        W19144  28.307  22.985  10.462
53918W        W19145   9.767   5.156  12.419
53919W        W19146   1.893  34.842  11.930
53920W        W19147  10.379  26.121   2.426
53921W        W19148  43.583  22.861   4.948
53922W        W19149  32.243  40.149  10.675
53923W        W19150  17.837  13.235   1.381
53924W        W19151  39.709  38.815  13.701
53925W        W19152  39.526  21.070  12.394
53926W        W19153  27.216  36.847   0.820
53927W        W19154   5.879   5.523  11.987
53928W        W19155   0.841   6.764  14.987
53929W        W19156  37.051   3.436   3.576
53930W        W19157  27.043  21.459  11.020
53931W        W19158  44.275  14.532  12.054
53932W        W19159  10.617  31.437   4.340
53933W        W19160  14.106  23.417  11.119
53934W        W19161   3.115  35.848  14.427
53935W        W19162  34.367  42.621  12.534
53936W        W19163   1.817  40.279   1.339
53937W        W19164   8.305   9.564  13.916
53938W        W19165   9.401  21.723  11.570
53939W        W19166  16.036  39.298  10.617
53940W        W19167  27.165   0.485   2.121
53941W        W19168  13.812  37.101   2.217
53942W        W19169  26.299  30.878   1.067
53943W        W19170   2.310  37.892  13.528
53944W        W19171  14.335  14.795   3.267
53945W        W19172  20.066   5.423   1.926
53946W        W19173  13.865  18.382   3.991
53947W        W19174  11.691  25.086   4.094
53948W        W19175  21.204   8.170  14.386
53949W        W19176  42.769  15.242  13.360
53950W        W19177  20.721   7.049  10.425
53951W        W19178  40.062  40.822   2.131
53952W        W19179   9.325   0.976   4.065
53953W        W19180  44.732  44.856   4.061
53954W        W19181  32.613   0.270   2.340
53955W        W19182   2.509   5.909   3.183
53956W        W19183  22.182  19.327   1.306
53957W        W19184  18.620  21.155  11.578
53958W        W19185  15.343   8.158  14.956
53959W        W19186  37.490   4.655   3.876
53960W        W19187  11.287   7.850   2.869
53961W        W19188  35.984  35.505  12.027
53962W        W19189  13.411  34.253   1.451
53963W        W19190  30.546  44.452  12.072
53964W        W19191  23.882  28.588   2.662
53965W        W19192  41.942  13.333  13.501
53966W        W19193   9.642  28.545  13.969
53967W        W19194  32.075  22.894  12.413
53968W        W19195   0.919  26.491   0.244
53969W        W19196  21.440   1.847   1.953
53970W        W19197  41.102  24.343  14.264
53971W        W19198  38.599  29.624  14.771
53972W        W19199   4.207  36.283   0.481
53973W        W19200  20.075  41.344  14.198
53974W        W19201  14.332  25.060  11.649
53975W        W19202   7.893  19.860   2.043
53976W        W19203  22.008  20.843  14.343
53977W        W19204  24.771   0.139  13.467
53978W        W19205  18.428  40.013   0.129
53979W        W19206  20.168  29.426   1.893
53980W        W19207  10.706  38.627  12.467
53981W        W19208  31.463  33.065   4.475
53982W        W19209  12.720   9.337  11.664
53983W        W19210  26.553  26.678  10.727
53984W        W19211   4.418  20.198  12.176
53985W        W19212   1.798  16.771   4.109
53986W        W19213  22.785  36.701   0.937
53987W        W19214   9.253  19.684   4.469
53988W        W19215  32.395   6.819  12.544
53989W        W19216  26.104  18.790  13.851
53990W        W19217   4.187  25.140  10.423
53991W        W19218   2.753   0.579  11.293
53992W        W19219   5.758   4.759  13.421
53993W        W19220  43.572  40.313   3.593
53994W        W19221  25.736  37.874   0.918
53995W        W19222   5.181  11.257  10.596
53996W        W19223  13.619   3.658   1.363
53997W        W19224  38.021  44.249   4.629
53998W        W19225   2.845   0.182   1.840
53999W        W19226  41.241  25.627   4.143
54000W        W19227  29.788  14.088  14.452
54001W        W19228   9.210   7.251  14.995
54002W        W19229   6.933  32.801  11.028
54003W        W19230  26.941  25.527   2.083
54004W        W19231  26.106   8.400   2.527
54005W        W19232  35.880  21.708  13.526
54006W        W19233  18.187  39.093  14.943
54007W        W19234  37.042   5.364  12.434
54008W        W19235  14.658  15.916  10.616
54009W        W19236   5.700   9.638   1.831
54010W        W19237   9.261  33.796   0.487
54011W        W19238   9.324  29.380  14.879
54012W        W19239  14.703  41.567  11.711
54013W        W19240  43.106  38.598   2.263
54014W        W19241  16.800  16.962   4.370
54015W        W19242  23.087   2.812  14.931
54016W        W19243  32.702  27.841  10.708
54017W        W19244   4.009  37.900  13.390
54018W        W19245  44.861  30.846  11.647
54019W        W19246  18.546   7.419  13.568
54020W        W19247   9.378  14.534   1.951
54021W        W19248  33.383  39.563  14.854
54022W        W19249  28.589  24.292   4.304
54023W        W19250  24.281  33.238   0.191
54024W        W19251  10.032  10.364   0.431
54025W        W19252  16.376  30.507  11.113
54026W        W19253  11.537  43.445   1.913
54027W        W19254  10.900  38.330  10.762
54028W        W19255  44.003  15.219   2.721
54029W        W19256   0.284  42.475  12.360
54030W        W19257  10.148  21.675   3.711
54031W        W19258  40.163  30.292  14.898
54032W        W19259   5.914  38.160  11.615
54033W        W19260  34.097   7.641  12.062
54034W        W19261   1.658  40.184   4.496
54035W        W19262  13.100  25.650  10.731
54036W        W19263  20.614   1.857  11.009
54037W        W19264  31.550  13.516  14.443
54038W        W19265   3.067  27.639  12.377
54039W        W19266  23.716   3.309   5.477
54040W        W19267  43.497   6.762   0.221
54041W        W19268  18.820   4.277  12.679
54042W        W19269  16.042  33.039  11.557
54043W        W19270  41.819   5.779   0.791
54044W        W19271  43.112  31.128  11.140
54045W        W19272   8.894  29.458  12.541
54046W        W19273  42.872  21.779   2.803
54047W        W19274   1.565  15.263   3.856
54048W        W19275  34.662  17.074   1.281
54049W        W19276  14.064   2.777   0.140
54050W        W19277  13.348  29.092   2.702
54051W        W19278   0.293  40.220  13.007
54052W        W19279  27.108   1.782  11.869
54053W        W19280  40.242  42.834   4.526
54054W        W19281   5.377  31.655  11.960
54055W        W19282  39.881  16.166  13.782
54056W        W19283  20.187   0.875   2.740
54057W        W19284  41.181  44.262   0.364
54058W        W19285   8.930  19.699   3.633
54059W        W19286  11.205  14.892   0.748
54060W        W19287   9.967  29.586  12.006
54061W        W19288  33.711   0.820  10.836
54062W        W19289   5.163  27.015   4.463
54063W        W19290  28.557  27.641   0.238
54064W        W19291  39.985  32.519  13.948
54065W        W19292  32.252   8.771  10.741
54066W        W19293  24.732   5.782  14.912
54067W        W19294  24.013  33.523   4.277
54068W        W19295  28.003  36.698   0.429
54069W        W19296  32.036  31.719   1.639
54070W        W19297  20.169  29.990   2.783
54071W        W19298  28.480  23.445  12.421
54072W        W19299  23.417  19.716   3.770
54073W        W19300  27.511  23.586  12.171
54074W        W19301  42.310  36.830   2.577
54075W        W19302  29.961   0.308  14.865
54076W        W19303  29.851  40.944  10.453
54077W        W19304  39.418  35.262  11.300
54078W        W19305  44.505  13.143   4.162
54079W        W19306  23.670  26.234   2.086
54080W        W19307  31.106  21.106  13.995
54081W        W19308  40.920  12.563   3.189
54082W        W19309  38.868   3.008   3.847
54083W        W19310  16.644  37.892   0.467
54084W        W19311  23.109   3.719   3.984
54085W        W19312  26.468  25.635   3.404
54086W        W19313  43.949  25.633   3.576
54087W        W19314  35.252  29.807   2.404
54088W        W19315  22.738  39.007  11.965
54089W        W19316   6.961   7.901   4.450
54090W        W19317  34.701  38.603   0.782
54091W        W19318  20.549  21.942   3.784
54092W        W19319   3.345  26.754   0.532
54093W        W19320  19.060  24.577   3.504
54094W        W19321  34.652  13.347   9.752
54095W        W19322  37.879  37.881   4.076
54096W        W19323  23.949  27.586  12.527
54097W        W19324   7.892  22.062  13.577
54098W        W19325  31.470  33.016   0.925
54099W        W19326  28.386  39.926   4.914
54100W        W19327  33.398  24.073   2.162
54101W        W19328  24.154  17.128   1.277
54102W        W19329  13.499  24.921  14.529
54103W        W19330  27.280  40.496  10.116
54104W        W19331  26.956   4.840   0.833
54105W        W19332  19.449   1.164  12.863
54106W        W19333   5.218  43.308   2.705
54107W        W19334   3.660  43.026  13.499
54108W        W19335  44.514   9.328  10.661
54109W        W19336   0.963  27.426   3.114
54110W        W19337   3.218  24.544  12.108
54111W        W19338  43.114  41.917   3.187
54112W        W19339  24.214  29.632  10.900
54113W        W19340  29.326  22.763  12.498
54114W        W19341  18.770  18.328  12.195
54115W        W19342  13.724   0.167  12.379
54116W        W19343  29.950  22.699   4.699
54117W        W19344  28.089  13.379   1.179
54118W        W19345  22.532  13.886  12.133
54119W        W19346  37.376  35.761  14.293
54120W        W19347   7.069  30.611   2.671
54121W        W19348  24.135  14.763  11.975
54122W        W19349   6.555  41.481   0.903
54123W        W19350  19.121  24.310  11.471
54124W        W19351  38.854  12.183   0.699
54125W        W19352  44.316  36.284   4.465
54126W        W19353  14.377  14.793   1.402
54127W        W19354   1.490  29.012  11.758
54128W        W19355  34.810  18.187   4.510
54129W        W19356   1.384   1.962   2.803
54130W        W19357  15.070  26.092   1.642
54131W        W19358  26.369   1.386  12.913
54132W        W19359  24.580   2.965  14.832
54133W        W19360  32.320  26.337   3.959
54134W        W19361   8.792  22.455   1.729
54135W        W19362  26.601  10.767  13.961
54136W        W19363   7.651  44.294   3.693
54137W        W19364   9.222   8.783  10.914
54138W        W19365   9.174  37.407   3.735
54139W        W19366  26.596   2.279   4.644
54140W        W19367  13.573  25.121  12.193
54141W        W19368  12.920  24.010  12.804
54142W        W19369  40.487   1.043   4.577
54143W        W19370  20.062  38.909  13.382
54144W        W19371  20.707   7.507  14.115
54145W        W19372   9.838  34.628  14.567
54146W        W19373  20.077  16.936   4.563
54147W        W19374  11.232  13.527  12.097
54148W        W19375  18.799  14.299  12.934
54149W        W19376  20.160  22.650  11.724
54150W        W19377  22.513  38.031   0.197
54151W        W19378   2.850   9.612  14.516
54152W        W19379  25.443   1.850   0.850
54153W        W19380   6.960  17.885   2.299
54154W        W19381  36.114   2.917   3.923
54155W        W19382  15.094   2.807  11.150
54156W        W19383  42.507  41.806   4.485
54157W        W19384  27.554  18.484   3.962
54158W        W19385  26.677  10.256  12.813
54159W        W19386  40.519   6.311  12.864
54160W        W19387  30.450  25.989  10.448
54161W        W19388  16.055  40.326  12.386
54162W        W19389  14.725  17.904   2.668
54163W        W19390  29.159  14.580   3.298
54164W        W19391  39.545  39.610  14.059
54165W        W19392  24.939   8.038  11.686
54166W        W19393   4.384  15.240   4.696
54167W        W19394  28.072  23.682  14.702
54168W        W19395  19.240  30.555  10.902
54169W        W19396   6.449  16.553   3.193
54170W        W19397   2.472  31.859  12.804
54171W        W19398   9.804  11.781  11.938
54172W        W19399  36.063   7.130   3.602
54173W        W19400  35.759   5.520   0.716
54174W        W19401   5.351   0.371  11.040
54175W        W19402  22.469  20.252  13.908
54176W        W19403   4.041  36.059  11.650
54177W        W19404  22.798  14.122  12.492
54178W        W19405  12.393  12.666   0.757
54179W        W19406   3.207  16.259  12.158
54180W        W19407  40.574  23.241   2.243
54181W        W19408  24.009  42.061   4.115
54182W        W19409   9.632  13.631  13.875
54183W        W19410  40.007  15.649  13.951
54184W        W19411  18.947  36.548   2.863
54185W        W19412  13.343  29.887   1.582
54186W        W19413  14.135  16.112   2.438
54187W        W19414  36.637  23.251  13.400
54188W        W19415  25.124  24.270   1.765
54189W        W19416  38.952  40.695   3.317
54190W        W19417  13.380  11.237  14.041
54191W        W19418  32.670  35.948  13.382
54192W        W19419   4.549  15.983   1.023
54193W        W19420   4.669   2.173  13.642
54194W        W19421  13.089   6.381  12.058
54195W        W19422  13.184  22.410   4.683
54196W        W19423   0.910  26.158   3.722
54197W        W19424  11.778  21.775  13.931
54198W        W19425  22.897  37.207   1.215
54199W        W19426  32.883  20.147   4.846
54200W        W19427  18.911  44.038  11.929
54201W        W19428   8.638  33.419   2.654
54202W        W19429  21.623  32.758  10.835
54203W        W19430   3.876  10.024   0.422
54204W        W19431  34.320  19.815  10.446
54205W        W19432  13.645  19.672   2.347
54206W        W19433  32.057  34.965  10.489
54207W        W19434  39.253  40.991   4.624
54208W        W19435   5.204  30.987  10.781
54209W        W19436  32.556   1.949   3.810
54210W        W19437  18.814  36.057  11.217
54211W        W19438  41.598   9.606   1.346
54212W        W19439  37.244  41.551  11.979
54213W        W19440  43.375  38.621   1.724
54214W        W19441   6.178  11.517   4.818
54215W        W19442  34.943  37.040  13.712
54216W        W19443  31.061   8.775   1.857
54217W        W19444  24.635  24.282  14.041
54218W        W19445  42.296   0.786   4.165
54219W        W19446  43.046   3.458   0.705
54220W        W19447  40.166   7.421   2.788
54221W        W19448  35.219  44.153   1.398
54222W        W19449  21.236  15.156   1.852
54223W        W19450  40.658  26.112   1.307
54224W        W19451  37.551   6.692  13.931
54225W        W19452  20.928  29.924   1.412
54226W        W19453  43.576   6.783  12.919
54227W        W19454   7.939  20.780  10.463
54228W        W19455  41.963  37.779  12.070
54229W        W19456  26.138  10.745  14.890
54230W        W19457   5.993  42.210   4.109
54231W        W19458  17.270   0.080   2.182
54232W        W19459  12.263  43.123  13.798
54233W        W19460  37.406  21.479   3.449
54234W        W19461  22.673  42.833   0.909
54235W        W19462   9.938  19.632  14.249
54236W        W19463  41.675  18.636   1.169
54237W        W19464  35.516  35.539   0.315
54238W        W19465  39.446   3.157  12.399
54239W        W19466   2.449  25.752  14.367
54240W        W19467   0.109   1.317   9.625
54241W        W19468  15.260  12.753   0.312
54242W        W19469   3.983  37.622  14.539
54243W        W19470  40.369  29.093   3.242
54244W        W19471  14.299  41.037  13.897
54245W        W19472  20.045  37.979   4.633
54246W        W19473  11.435   4.838   2.345
54247W        W19474  27.108  36.372   3.616
54248W        W19475  41.570  23.594   0.236
54249W        W19476  43.233  27.167   2.724
54250W        W19477   1.226  41.463   0.357
54251W        W19478   8.272  41.910  13.862
54252W        W19479  24.305  28.167   0.294
54253W        W19480  44.227   8.092   3.610
54254W        W19481   9.780  23.794   4.507
54255W        W19482   6.237   9.948   3.603
54256W        W19483  39.833  32.731   3.353
54257W        W19484  17.044  16.160   1.338
54258W        W19485  41.128  14.253   4.071
54259W        W19486  37.589  39.853   3.128
54260W        W19487  16.503  36.541   2.197
54261W        W19488  44.795  22.692   3.272
54262W        W19489  22.667   4.353  14.742
54263W        W19490   8.052  17.694  12.123
54264W        W19491   3.782  22.779  13.608
54265W        W19492  30.157  35.446  11.528
54266W        W19493  24.585  18.288   4.879
54267W        W19494  13.255  23.283   1.725
54268W        W19495  11.323   3.222  13.309
54269W        W19496  30.627   6.621  14.893
54270W        W19497   1.885  11.283  13.852
54271W        W19498  16.953  13.878   3.601
54272W        W19499  29.589   1.164   3.278
54273W        W19500  31.309  34.066   4.578
54274W        W19501  33.211  36.179   4.825
54275W        W19502  16.155  27.980   0.620
54276W        W19503   2.303  37.842  10.763
54277W        W19504  34.929   9.923   1.875
54278W        W19505  10.227  13.789   3.237
54279W        W19506  28.232  43.453  13.094
54280W        W19507  42.445  14.280   3.724
54281W        W19508  12.760  38.534   1.707
54282W        W19509  26.692  39.528   0.412
54283W        W19510  32.600   2.019   2.294
54284W        W19511  35.436  43.105   1.388
54285W        W19512  37.269  21.524  14.394
54286W        W19513  22.511   9.246  13.851
54287W        W19514  31.393  10.444  14.897
54288W        W19515  11.673  26.938   4.868
54289W        W19516  18.176  18.019  11.028
54290W        W19517  36.141  18.664   4.531
54291W        W19518  19.779  20.536   0.640
54292W        W19519  22.777  42.906   2.706
54293W        W19520  26.390  22.565  12.169
54294W        W19521  13.061  30.623   1.380
54295W        W19522  44.033   3.222  12.991
54296W        W19523  44.006  40.999  14.114
54297W        W19524   9.776   0.206   0.642
54298W        W19525  23.786  34.638  14.977
54299W        W19526  27.395  10.359   1.801
54300W        W19527  11.208  13.953   4.052
54301W        W19528   1.994  26.997   2.686
54302W        W19529   7.070  19.851  11.627
54303W        W19530  14.632  23.490  13.128
54304W        W19531  20.990  24.929   1.594
54305W        W19532  37.417   0.962  12.488
54306W        W19533  14.860  34.898  11.686
54307W        W19534   2.880  38.574  11.874
54308W        W19535  40.354  27.331   3.804
54309W        W19536  31.550  37.035   2.140
54310W        W19537  26.002  10.824  11.654
54311W        W19538  38.039  16.308   0.803
54312W        W19539  19.693  26.133  10.149
54313W        W19540  29.257  20.911  12.025
54314W        W19541  37.807  26.119  10.453
54315W        W19542  39.581  27.037   1.662
54316W        W19543   0.524  25.317   9.995
54317W        W19544  11.863  27.726  11.207
54318W        W19545  21.695  31.222   0.095
54319W        W19546   8.733  25.935   1.038
54320W        W19547  39.756  37.072   4.575
54321W        W19548  16.110  38.344   3.098
54322W        W19549   0.435  33.802  11.733
54323W        W19550  12.698  43.896  10.362
54324W        W19551  26.573  31.424  13.385
54325W        W19552   5.769  17.552   0.334
54326W        W19553  44.258   9.872  11.592
54327W        W19554  17.274  24.295  14.697
54328W        W19555   3.504  10.108   3.718
54329W        W19556  24.622  12.867   3.360
54330W        W19557  42.919  36.498   0.237
54331W        W19558   0.756  15.190  10.610
54332W        W19559   0.287  11.978  11.987
54333W        W19560  15.515  37.618   4.075
54334W        W19561  23.438  13.230  12.024
54335W        W19562  29.701   9.671   2.698
54336W        W19563   9.671  27.860   2.523
54337W        W19564  34.983  22.993  14.144
54338W        W19565   8.525   6.706   1.092
54339W        W19566   7.846  11.967  14.946
54340W        W19567  27.189  15.276   4.962
54341W        W19568  34.142  22.729  13.853
54342W        W19569   2.041   4.820   4.349
54343W        W19570   9.939  25.039   0.817
54344W        W19571  13.587  32.662   2.033
54345W        W19572  41.830  25.185   2.348
54346W        W19573  19.477   1.277  14.316
54347W        W19574   1.827  38.071   1.296
54348W        W19575   2.452  30.383  14.416
54349W        W19576  11.437  27.954  11.046
54350W        W19577  18.198  36.113  13.592
54351W        W19578  39.043   2.991  14.028
54352W        W19579  26.054   8.286  13.007
54353W        W19580  37.435  31.588  11.438
54354W        W19581  21.072  35.146  11.529
54355W        W19582   9.859  23.779   3.511
54356W        W19583   4.815  31.765   0.344
54357W        W19584   4.731   2.286   2.401
54358W        W19585   4.990   3.193   2.883
54359W        W19586   4.546  10.286  11.082
54360W        W19587  14.844  17.108  10.349
54361W        W19588  13.099  25.385   3.551
54362W        W19589  32.832   6.894   3.830
54363W        W19590   4.278  30.821  10.988
54364W        W19591  29.526  27.680  14.605
54365W        W19592  44.027  35.144   2.223
54366W        W19593  34.731  36.998  11.066
54367W        W19594  11.699  40.059   0.690
54368W        W19595  17.815  33.613   0.537
54369W        W19596   5.934  33.584  14.902
54370W        W19597  39.352  25.030   1.668
54371W        W19598  31.322   4.799  12.600
54372W        W19599  21.417  44.549   4.480
54373W        W19600   3.916  23.099   1.428
54374W        W19601  20.190  10.613   4.182
54375W        W19602  37.008  18.629   2.362
54376W        W19603  22.122  37.393   4.098
54377W        W19604   8.786  15.898   3.041
54378W        W19605  11.225  23.279  13.911
54379W        W19606  37.925  23.477  14.956
54380W        W19607  11.073  43.594   1.669
54381W        W19608   2.484  10.273  14.893
54382W        W19609   5.823  33.052   3.191
54383W        W19610  38.436  34.031   2.943
54384W        W19611  27.453  31.012   4.850
54385W        W19612  32.366  21.541  12.456
54386W        W19613  15.649  25.531   2.231
54387W        W19614  14.188  42.965  13.035
54388W        W19615  34.828  41.395  12.164
54389W        W19616  38.167  39.440  13.729
54390W        W19617  11.576  41.034   4.637
54391W        W19618  40.880   6.624   2.083
54392W        W19619  14.525   5.273   3.271
54393W        W19620  38.967  40.468  12.566
54394W        W19621  23.140   8.403  12.918
54395W        W19622  43.979  13.982  14.739
54396W        W19623   3.729  40.049   4.479
54397W        W19624  39.501  12.663   4.343
54398W        W19625   2.844  30.182   3.259
54399W        W19626   2.910  33.824   1.301
54400W        W19627   8.695   1.973   3.359
54401W        W19628  24.654  13.694   1.395
54402W        W19629  36.880   0.562  10.802
54403W        W19630  37.082  21.641  14.989
54404W        W19631  38.420  44.037   3.627
54405W        W19632  12.312  35.491   2.448
54406W        W19633  26.236   9.668   2.239
54407W        W19634  12.975  43.575  14.088
54408W        W19635  27.160  28.037   3.599
54409W        W19636  31.652  31.038   1.309
54410W        W19637   0.760  37.931  14.867
54411W        W19638  30.226   2.254   0.662
54412W        W19639   5.991  21.052   1.740
54413W        W19640  38.982  44.454   0.283
54414W        W19641  28.244  17.255   0.395
54415W        W19642  35.342  42.626  13.926
54416W        W19643   1.441  17.328   2.816
54417W        W19644  25.603   7.871  14.343
54418W        W19645  37.175  29.495   3.678
54419W        W19646  20.107  30.340  11.233
54420W        W19647   4.136  18.335  14.010
54421W        W19648  20.783   2.415   3.372
54422W        W19649  34.638   4.402  10.794
54423W        W19650  18.335  11.200  13.765
54424W        W19651  17.915   1.218  14.954
54425W        W19652  43.999  36.446   3.246
54426W        W19653   9.830  22.159  12.217
54427W        W19654   9.661  14.105   0.575
54428W        W19655   0.586  42.469   5.005
54429W        W19656   2.595  39.191   9.859
54430W        W19657   4.286  42.053   0.217
54431W        W19658   8.927  37.481   0.584
54432W        W19659  22.986  32.642  11.621
54433W        W19660  25.052   9.384   2.844
54434W        W19661   7.590  27.112   0.002
54435W        W19662   6.715  31.251  12.072
54436W        W19663  29.523  17.059  10.632
54437W        W19664  36.453  19.333   0.348
54438W        W19665  11.984   5.888   2.657
54439W        W19666  29.158  15.309  11.757
54440W        W19667   9.764   9.706   4.595
54441W        W19668  22.237  24.257  11.862
54442W        W19669  22.539   6.931   1.922
54443W        W19670  10.172  31.583   0.357
54444W        W19671  25.019  42.063   3.823
54445W        W19672  16.460   8.278   0.276
54446W        W19673  33.590  43.070  14.015
54447W        W19674  39.986  29.125  10.501
54448W        W19675   5.460  24.862  12.542
54449W        W19676   4.369   8.713   2.828
54450W        W19677  35.112   4.375   4.101
54451W        W19678   8.895  30.617   1.287
54452W        W19679  29.167  29.612   1.149
54453W        W19680  23.530  38.637  11.973
54454W        W19681  10.812  22.437  13.829
54455W        W19682  38.595  14.178   3.781
54456W        W19683  30.308  21.001  12.773
54457W        W19684  22.946   2.752   2.892
54458W        W19685  12.837   3.149   0.147
54459W        W19686  34.976  40.404   4.053
54460W        W19687   8.226  44.396  14.499
54461W        W19688  20.680   5.859   3.746
54462W        W19689  24.675  41.924  13.962
54463W        W19690  36.830   8.841   0.919
54464W        W19691  12.421  28.100   2.970
54465W        W19692  44.492  28.183  14.868
54466W        W19693  34.591  11.100  12.418
54467W        W19694  24.686  19.614  10.853
54468W        W19695  28.155  15.544  14.091
54469W        W19696  22.262   7.671   4.111
54470W        W19697  44.485  19.253   2.817
54471W        W19698  38.845  18.248   4.546
54472W        W19699   2.273  11.792  13.813
54473W        W19700  18.922  11.947   4.069
54474W        W19701  44.237  35.854  11.555
54475W        W19702  22.947  15.370   3.310
54476W        W19703  17.538  32.109  12.326
54477W        W19704  32.680  38.570   5.053
54478W        W19705  20.338  15.101  13.200
54479W        W19706   4.522  43.929   3.517
54480W        W19707  34.065  14.078   4.879
54481W        W19708  39.558  19.302  14.920
54482W        W19709  32.427   5.297   0.865
54483W        W19710  41.572  13.637   0.104
54484W        W19711  42.201  33.875   3.554
54485W        W19712  27.961   7.837  14.914
54486W        W19713   8.637   8.943   1.768
54487W        W19714  15.342  42.704  11.415
54488W        W19715   1.987  36.997  14.911
54489W        W19716   4.100  14.531   9.977
54490W        W19717  17.744  15.686  12.539
54491W        W19718   6.233  35.995   3.189
54492W        W19719  43.231   6.213   2.441
54493W        W19720  43.523  27.578  11.872
54494W        W19721  24.642  37.499  10.999
54495W        W19722   1.232  43.951  12.888
54496W        W19723  11.859  37.004   1.380
54497W        W19724  30.854  38.932  14.873
54498W        W19725  31.033   3.668  12.159
54499W        W19726  20.042  15.185   3.255
54500W        W19727  30.088   7.134   1.626
54501W        W19728  29.013  36.379   3.842
54502W        W19729  41.333  12.557   3.813
54503W        W19730   4.384  10.497   2.295
54504W        W19731   7.644  15.328   1.201
54505W        W19732  12.158   0.770  12.036
54506W        W19733  26.755  16.653   2.366
54507W        W19734   2.930  28.705  12.041
54508W        W19735  24.995  22.657   2.390
54509W        W19736  40.733  33.342   1.230
54510W        W19737   4.708   9.895   0.781
54511W        W19738   3.339  33.433  12.584
54512W        W19739  32.878  40.976  11.158
54513W        W19740  39.226  36.231   3.030
54514W        W19741  15.391  17.370   3.699
54515W        W19742  25.117   6.113   4.851
54516W        W19743  40.779  15.893   0.871
54517W        W19744  34.302   1.283   0.818
54518W        W19745   4.341   9.444   2.214
54519W        W19746  33.143  30.811   1.811
54520W        W19747  41.201  31.687   3.229
54521W        W19748  14.816  10.138   4.520
54522W        W19749  27.611   2.276   1.239
54523W        W19750  25.097  12.269   4.212
54524W        W19751  18.149  38.488  13.961
54525W        W19752  13.831  43.189   1.804
54526W        W19753  42.538   0.265   0.429
54527W        W19754  28.122  25.108   3.697
54528W        W19755  15.519  25.120  10.255
54529W        W19756  26.717  20.291   1.866
54530W        W19757  42.808  40.908  12.617
54531W        W19758  43.394   8.090   9.552
54532W        W19759  32.329   8.175   4.210
54533W        W19760  14.358  25.447   1.346
54534W        W19761  42.932  17.673   4.516
54535W        W19762  42.458   2.959   1.151
54536W        W19763   2.205  39.447  13.576
54537W        W19764   3.023  36.572   1.259
54538W        W19765  42.413  12.441  11.973
54539W        W19766  28.201  35.139  12.667
54540W        W19767  24.210  14.086  12.340
54541W        W19768   1.671  24.213   2.964
54542W        W19769  18.524  38.975  13.525
54543W        W19770  21.120  36.302   4.060
54544W        W19771   1.319  10.414   0.839
54545W        W19772  21.553  29.953  10.728
54546W        W19773  30.082  15.833   4.323
54547W        W19774  43.658  27.098  12.186
54548W        W19775  37.725  44.508  10.256
54549W        W19776  20.257  24.029  12.870
54550W        W19777   2.645  31.708  14.515
54551W        W19778  43.187  39.941  12.105
54552W        W19779   5.186  20.248   0.921
54553W        W19780   2.462  14.741   2.836
54554W        W19781  43.220  39.573  13.529
54555W        W19782   0.131  24.051   9.745
54556W        W19783  42.069   3.082  12.688
54557W        W19784  26.419   8.908  14.935
54558W        W19785  10.746  29.896   4.819
54559W        W19786  11.192  40.333  14.448
54560W        W19787  30.334  13.690   3.325
54561W        W19788  38.420  24.518   1.637
54562W        W19789  18.538  19.576   4.968
54563W        W19790  13.873  17.320   0.943
54564W        W19791  27.422   1.781  10.740
54565W        W19792  29.613   3.727   1.765
54566W        W19793  25.446  22.478   1.240
54567W        W19794   7.027  19.095   2.804
54568W        W19795  10.797  10.925  13.366
54569W        W19796  43.998  39.059  10.306
54570W        W19797   2.924   7.621   0.751
54571W        W19798  20.644  26.583  14.986
54572W        W19799  31.714  28.905  14.739
54573W        W19800  27.605   5.287  10.789
54574W        W19801  32.560  41.479  13.719
54575W        W19802  15.880   5.442  14.312
54576W        W19803  14.884  25.507  10.638
54577W        W19804  38.380  23.753   2.642
54578W        W19805   2.813  32.154  14.748
54579W        W19806  27.917  13.822  11.265
54580W        W19807  34.576  11.641   1.676
54581W        W19808  39.660  11.840   1.689
54582W        W19809  39.573   2.917  12.872
54583W        W19810  18.131  31.696   0.230
54584W        W19811   7.129  13.753   4.568
54585W        W19812   3.577  13.638   1.888
54586W        W19813  27.930  39.751  13.463
54587W        W19814  23.223  13.700   2.150
54588W        W19815  43.997  31.654  11.183
54589W        W19816  30.064  38.341   1.813
54590W        W19817  23.272   3.384   3.582
54591W        W19818  31.195  24.709   5.541
54592W        W19819  12.644  13.554   4.083
54593W        W19820   5.281  27.092   3.134
54594W        W19821  15.302  25.890   2.098
54595W        W19822  41.316  34.787  11.642
54596W        W19823  12.228  13.583   2.951
54597W        W19824  26.833   7.789   3.011
54598W        W19825   9.590   6.309   1.910
54599W        W19826  39.041  22.752  14.748
54600W        W19827  27.000  29.116  10.861
54601W        W19828  17.251  25.373   2.024
54602W        W19829  37.013   9.380  10.600
54603W        W19830  35.073  20.127   1.234
54604W        W19831  17.224  19.737   2.428
54605W        W19832   5.496  12.089  14.881
54606W        W19833  27.637   3.299  10.295
54607W        W19834   7.920  22.922   1.883
54608W        W19835  24.711   6.970   1.825
54609W        W19836  18.156   5.621   4.985
54610W        W19837   7.867  41.195  12.931
54611W        W19838  22.856  29.528  12.199
54612W        W19839  25.973  30.542   3.133
54613W        W19840   3.900  43.844   1.838
54614W        W19841  41.447  25.888   0.803
54615W        W19842  41.942   3.690  13.987
54616W        W19843   5.156  11.669  14.981
54617W        W19844  16.602   1.602   0.019
54618W        W19845  23.790  10.758  14.474
54619W        W19846   8.933  22.164   4.597
54620W        W19847  14.819  32.494  13.126
54621W        W19848  16.555   7.193   1.677
54622W        W19849   0.475  10.848  14.041
54623W        W19850  15.671   7.825   2.253
54624W        W19851  37.031   3.577  12.185
54625W        W19852  20.065   6.649  11.254
54626W        W19853  32.622   6.915  13.982
54627W        W19854  14.401  32.856  14.093
54628W        W19855  20.146  16.671  12.339
54629W        W19856  44.488  28.980   0.337
54630W        W19857  38.902  11.269  12.845
54631W        W19858   0.329  35.619   3.460
54632W        W19859  25.236  16.710  12.516
54633W        W19860  11.602  18.822   3.266
54634W        W19861  38.466  42.507   3.217
54635W        W19862  25.337   2.896   4.269
54636W        W19863  36.053  29.286  11.648
54637W        W19864  31.352  38.046   1.626
54638W        W19865  10.638  32.040  12.517
54639W        W19866  36.610   6.934   2.243
54640W        W19867   1.826  26.414   0.117
54641W        W19868   1.445  18.770  10.731
54642W        W19869  23.615  12.604  13.409
54643W        W19870  25.993  13.122  14.464
54644W        W19871  25.679   7.360   1.767
54645W        W19872  20.631   2.263   1.575
54646W        W19873  13.097  28.403   0.603
54647W        W19874  26.939  26.200  14.844
54648W        W19875  43.458  42.087  11.166
54649W        W19876  41.070  22.193   0.943
54650W        W19877  40.399  32.509  14.232
54651W        W19878  35.258  32.643  14.080
54652W        W19879  17.243  39.065  12.139
54653W        W19880  30.930  28.421  12.307
54654W        W19881  39.813  13.979  11.947
54655W        W19882  26.644   5.973   3.102
54656W        W19883  19.787  27.332  11.664
54657W        W19884   0.128  34.345   1.222
54658W        W19885   6.513   2.048  14.271
54659W        W19886  30.270  10.226   9.885
54660W        W19887  28.768  36.926   1.938
54661W        W19888   2.347  30.347  10.202
54662W        W19889  42.551  25.270  14.832
54663W        W19890  16.003  16.039  14.459
54664W        W19891  44.421  12.559  11.107
54665W        W19892   2.369  42.246  10.103
54666W        W19893  31.906  22.641  10.678
54667W        W19894   6.540  20.300   2.213
54668W        W19895   5.467  39.739  14.531
54669W        W19896  21.060  18.284   1.912
54670W        W19897  19.922  15.223   2.004
54671W        W19898  29.899  32.658  12.480
54672W        W19899  22.323  12.344  11.538
54673W        W19900  13.068  26.170   1.960
54674W        W19901  16.891  26.723  12.037
54675W        W19902  41.070  44.879  13.936
54676W        W19903  14.858  34.455  14.824
54677W        W19904   5.047  20.580   4.801
54678W        W19905  31.186  10.842  13.542
54679W        W19906  28.143  44.929  11.980
54680W        W19907  10.632  22.626  14.459
54681W        W19908  25.177   3.423   2.236
54682W        W19909  18.877   3.056  11.398
54683W        W19910  26.131  26.340   5.054
54684W        W19911  35.174  44.394  13.780
54685W        W19912   4.125  35.192  10.788
54686W        W19913  17.615  24.505  10.776
54687W        W19914  13.574  28.360  14.886
54688W        W19915  34.434  20.147  14.467
54689W        W19916   7.870   4.948   3.294
54690W        W19917  11.288  10.594  12.507
54691W        W19918  29.198   7.294  13.804
54692W        W19919  11.251  21.883  11.112
54693W        W19920   7.099  33.088  14.906
54694W        W19921  44.437  16.231  12.591
54695W        W19922  24.120  22.626  11.478
54696W        W19923  14.523  34.199  13.543
54697W        W19924  43.376  20.785   2.808
54698W        W19925  25.531  44.456  14.060
54699W        W19926  27.051  39.038   1.217
54700W        W19927  34.601  33.376  12.532
54701W        W19928  40.315  14.246  10.468
54702W        W19929  26.492  17.761  13.960
54703W        W19930  17.765   1.382   0.425
54704W        W19931  33.636  21.650   9.850
54705W        W19932  19.599   9.168  12.507
54706W        W19933   9.139  18.859  10.223
54707W        W19934  38.284   1.568  12.893
54708W        W19935  37.583  30.122   1.054
54709W        W19936  18.299  12.692  10.779
54710W        W19937  22.003  25.966   0.971
54711W        W19938  19.601   0.976   5.059
54712W        W19939  30.420  18.118  13.557
54713W        W19940  38.018  43.311  13.474
54714W        W19941  15.854  10.343  10.800
54715W        W19942  39.236  32.613  10.927
54716W        W19943  21.537  32.786   1.862
54717W        W19944   3.892  11.349   0.864
54718W        W19945  33.183  21.256  12.559
54719W        W19946  26.925  34.223  10.273
54720W        W19947  12.124   9.162   1.661
54721W        W19948  37.830   0.241  11.581
54722W        W19949  21.588  41.225   3.204
54723W        W19950   9.454  11.074  12.491
54724W        W19951  44.812  17.860   2.959
54725W        W19952   4.363  23.655  12.882
54726W        W19953  10.452  35.477   4.068
54727W        W19954  39.056  26.486  10.786
54728W        W19955  35.590   3.349   3.063
54729W        W19956   0.114  20.174  14.751
54730W        W19957  39.835   8.023  13.128
54731W        W19958   8.850  25.724  12.138
54732W        W19959  29.233  39.784  10.718
54733W        W19960  21.746   3.782   3.559
54734W        W19961  37.441  10.954   1.188
54735W        W19962  19.825   6.750   3.240
54736W        W19963   1.733  26.072   3.155
54737W        W19964  21.988   7.791   1.735
54738W        W19965  25.211  22.085   0.049
54739W        W19966  29.404  10.898   2.630
54740W        W19967  26.650  22.410  11.207
54741W        W19968  16.584  24.052   0.747
54742W        W19969  35.479  18.929   1.138
54743W        W19970  30.845  19.652   1.274
54744W        W19971  40.097   2.295   3.029
54745W        W19972  28.720  38.959   3.555
54746W        W19973  44.690  32.252  14.526
54747W        W19974  40.304   2.994  11.623
54748W        W19975   8.898  39.503   3.635
54749W        W19976   7.779  23.822   2.802
54750W        W19977   4.223  20.085   1.875
54751W        W19978  18.282  31.647   3.143
54752W        W19979  25.468  16.107   2.302
54753W        W19980  44.789  43.907   5.016
54754W        W19981  36.458  42.779  12.943
54755W        W19982   8.785  11.479   2.923
54756W        W19983   2.217   2.400  11.594
54757W        W19984  28.136  26.396   2.218
54758W        W19985  24.969  27.052   1.028
54759W        W19986   9.215  36.579   4.397
54760W        W19987  30.627  11.592   2.848
54761W        W19988  19.111  44.369   4.428
54762W        W19989   9.126  42.050  13.359
54763W        W19990  35.036  27.994  12.000
54764W        W19991  22.061  26.001  14.752
54765W        W19992  17.789  36.548   0.696
54766W        W19993  42.764  36.508  12.212
54767W        W19994  25.514   7.752   1.368
54768W        W19995  32.097   9.934   1.311
54769W        W19996  10.586  20.403   4.299
54770W        W19997  14.851  42.416  12.368
54771W        W19998  42.110  30.141   3.137
54772W        W19999   1.753  39.118  14.823
54773W        W20000  39.956  16.693   2.899
54774W        W20001  17.406  16.340  11.154
54775W        W20002   8.197  33.568   1.893
54776W        W20003  37.328  25.211   2.392
54777W        W20004  14.541  38.160  12.116
54778W        W20005   3.425  40.396   0.101
54779W        W20006  29.013   6.924   0.524
54780W        W20007  33.680  14.720   0.202
54781W        W20008  22.794  14.711  13.935
54782W        W20009  26.517  27.856   2.785
54783W        W20010   0.779  19.945   2.730
54784W        W20011  11.820   4.182  11.441
54785W        W20012  30.403  15.641   1.744
54786W        W20013   2.871  10.860  10.593
54787W        W20014  24.987  34.498  10.715
54788W        W20015  34.426   2.389  12.482
54789W        W20016  34.042  27.127  10.607
54790W        W20017  43.096   1.405  12.430
54791W        W20018  37.278   4.721  12.743
54792W        W20019  44.726   4.629   1.989
54793W        W20020   1.659   9.385  14.184
54794W        W20021  32.145  39.322  11.000
54795W        W20022  25.608  32.880   1.327
54796W        W20023  26.500  18.530   2.344
54797W        W20024  44.415   1.129  14.013
54798W        W20025  32.256  44.341   5.004
54799W        W20026  29.461  23.371  14.226
54800W        W20027  21.956  16.713   0.002
54801W        W20028  24.801  43.478  12.381
54802W        W20029  16.395   0.862  11.623
54803W        W20030  10.651  38.398   4.379
54804W        W20031  27.481  11.205  14.403
54805W        W20032  19.865   3.145   1.341
54806W        W20033  27.862  25.652   2.881
54807W        W20034  40.105  43.850   4.770
54808W        W20035  43.499  21.199  13.989
54809W        W20036  27.930  21.652   3.354
54810W        W20037  13.753  38.074  11.792
54811W        W20038  30.816   5.309   0.989
54812W        W20039  13.630  21.078   3.706
54813W        W20040  42.320   0.351  13.025
54814W        W20041  40.955  44.895   3.367
54815W        W20042   8.410  37.962  14.878
54816W        W20043   7.963  40.001   4.075
54817W        W20044  41.113  22.131  14.032
54818W        W20045  35.840  43.289  14.346
54819W        W20046   7.943  40.442  14.430
54820W        W20047  11.225  29.991  13.876
54821W        W20048   8.135  37.373  11.936
54822W        W20049  23.296  40.446   1.711
54823W        W20050   8.454  23.025   3.210
54824W        W20051   4.402  37.347  11.378
54825W        W20052  39.926  41.823  14.339
54826W        W20053  42.030   4.544   0.350
54827W        W20054  41.949   9.799   2.565
54828W        W20055  15.557   8.868  10.814
54829W        W20056  11.321  29.937  12.050
54830W        W20057  32.340  38.903  12.653
54831W        W20058  30.348  31.353  11.954
54832W        W20059  16.059   8.329  13.819
54833W        W20060  39.351  10.364   5.098
54834W        W20061  43.831  26.618  12.051
54835W        W20062  42.297   0.068   2.222
54836W        W20063  12.813  31.596   1.717
54837W        W20064  24.523  29.297  11.144
54838W        W20065  33.719  31.457   4.985
54839W        W20066  11.819  36.051  10.813
54840W        W20067   7.905  35.343  11.548
54841W        W20068  35.381  22.612  11.141
54842W        W20069   2.299   0.101   4.081
54843W        W20070  33.094  30.746   0.930
54844W        W20071  39.499  39.065  11.001
54845W        W20072  10.275  29.500  12.431
54846W        W20073   7.292  26.231  14.940
54847W        W20074  34.526  20.443   3.347
54848W        W20075  33.062  34.922   0.683
54849W        W20076   8.424  24.187  11.596
54850W        W20077  17.809  26.518  10.773
54851W        W20078  19.601  22.067   0.343
54852W        W20079   7.821  16.861   3.548
54853W        W20080   7.951  43.901   2.732
54854W        W20081  11.268  12.059   2.725
54855W        W20082  25.224  11.490  11.537
54856W        W20083  33.585  13.167  12.238
54857W        W20084  35.277  14.466   4.312
54858W        W20085  40.741   9.325   1.209
54859W        W20086  13.039  36.007  10.809
54860W        W20087  37.070   4.242   2.443
54861W        W20088   5.277  16.279   2.069
54862W        W20089  44.350  15.922   3.165
54863W        W20090   4.342  40.123   0.889
54864W        W20091  40.397  40.370  14.473
54865W        W20092  22.692  32.966   4.537
54866W        W20093   4.203  33.848  13.561
54867W        W20094  13.268   3.634   4.303
54868W        W20095  37.313  34.842   5.104
54869W        W20096   1.102  28.252   1.701
54870W        W20097   3.219   6.778  10.840
54871W        W20098   1.855  44.772  13.504
54872W        W20099  44.939   4.754  12.582
54873W        W20100  35.510  15.092   2.498
54874W        W20101  35.948   2.661   2.931
54875W        W20102  41.749   6.447  14.017
54876W        W20103   4.577  20.329  12.924
54877W        W20104  36.889  41.314  14.533
54878W        W20105  11.302  39.268   0.067
54879W        W20106  26.553   3.923   4.642
54880W        W20107  44.050  11.472  14.898
54881W        W20108  30.453  37.284  12.127
54882W        W20109  23.198  10.762   3.143
54883W        W20110  41.793  23.023   4.708
54884W        W20111  28.437   2.324  11.220
54885W        W20112  17.767  38.791  14.945
54886W        W20113  33.893  32.150  11.606
54887W        W20114   4.636  16.742   0.472
54888W        W20115  24.190   9.794   3.304
54889W        W20116  20.479  22.719   1.139
54890W        W20117  42.999   9.134   5.031
54891W        W20118   4.296  19.560   4.589
54892W        W20119  40.876   7.311  12.099
54893W        W20120  43.109  29.681   4.650
54894W        W20121  34.416  13.174   3.722
54895W        W20122   5.825   2.566   1.346
54896W        W20123  11.859   2.760   1.925
54897W        W20124  34.316  21.004  11.384
54898W        W20125  30.707  37.002   1.703
54899W        W20126   1.747  34.665   3.727
54900W        W20127  10.845  20.093  14.332
54901W        W20128  31.985  18.401   1.496
54902W        W20129  42.380  11.865   2.870
54903W        W20130  40.954  18.029   3.992
54904W        W20131  28.069  44.008  12.448
54905W        W20132  38.866  17.127   3.541
54906W        W20133  27.022   0.858  11.704
54907W        W20134  35.881  35.142   4.448
54908W        W20135  43.486  19.576   0.217
54909W        W20136  34.573  22.430   1.834
54910W        W20137  18.134  35.802   4.197
54911W        W20138  18.821  26.111  13.868
54912W        W20139  15.309  23.997   0.346
54913W        W20140  25.201   4.164  11.172
54914W        W20141  16.681  13.169  14.975
54915W        W20142  33.668  17.242   4.953
54916W        W20143  27.468  32.922   3.541
54917W        W20144   9.159  35.624  13.030
54918W        W20145   1.653  25.777  12.183
54919W        W20146  33.664  32.842  12.362
54920W        W20147  33.920  34.601   3.184
54921W        W20148  28.487  29.907   0.855
54922W        W20149  44.972  30.157   3.595
54923W        W20150  41.466  17.423  14.401
54924W        W20151  21.044   5.943   0.955
54925W        W20152   8.863   1.270  14.529
54926W        W20153  27.481  37.359   0.115
54927W        W20154  34.851  12.459   2.433
54928W        W20155  36.020   7.230  13.020
54929W        W20156  12.761  29.604  12.585
54930W        W20157  25.162  34.957  10.541
54931W        W20158  30.330  43.335   3.879
54932W        W20159  12.628  25.157   0.485
54933W        W20160   1.682  13.021   2.765
54934W        W20161   5.369   9.808  12.900
54935W        W20162  43.916  44.571  11.174
54936W        W20163  17.556  42.273   1.054
54937W        W20164  30.879   9.111   3.740
54938W        W20165  20.198  36.588   3.590
54939W        W20166  27.477  36.025   0.037
54940W        W20167  37.162  16.705  13.317
54941W        W20168  24.060  13.126  12.692
54942W        W20169  13.857  20.087   2.572
54943W        W20170  15.186  10.464  13.854
54944W        W20171  36.789  17.290   4.940
54945W        W20172  27.962  16.153  14.469
54946W        W20173  16.637  25.620   4.512
54947W        W20174  18.441  43.915  13.289
54948W        W20175   8.352   8.348   3.293
54949W        W20176  26.526   2.657   2.468
54950W        W20177  34.987  15.125  14.805
54951W        W20178  20.056  18.351  10.879
54952W        W20179  24.018  30.031  12.944
54953W        W20180  15.872  15.059   4.918
54954W        W20181  18.797  43.420  12.807
54955W        W20182  32.558  21.703  13.481
54956W        W20183  26.933  35.294   0.851
54957W        W20184  41.473  12.117   1.302
54958W        W20185   7.156   3.218  13.185
54959W        W20186  44.771  29.025  11.228
54960W        W20187  39.092  24.267  12.178
54961W        W20188  14.615  44.548  14.808
54962W        W20189   3.601   5.682  10.892
54963W        W20190   5.886  34.902   2.379
54964W        W20191  12.684  44.933  12.339
54965W        W20192  34.936   2.564   4.210
54966W        W20193  27.219  24.399   0.933
54967W        W20194  41.612   6.793   3.614
54968W        W20195  17.367  35.818   5.070
54969W        W20196   8.034  20.977  14.739
54970W        W20197  19.652  16.019   1.610
54971W        W20198   4.158  10.281   4.904
54972W        W20199  44.561  26.609  12.525
54973W        W20200  30.836  27.497   3.594
54974W        W20201  15.980   9.874   2.282
54975W        W20202  27.713  25.836   3.330
54976W        W20203  25.534   8.258   1.750
54977W        W20204  36.803  13.632  11.941
54978W        W20205  41.707  14.341   4.098
54979W        W20206  44.619  14.908   1.177
54980W        W20207  23.163  30.989   1.430
54981W        W20208  33.435  44.805   1.382
54982W        W20209  10.667  37.045   2.455
54983W        W20210  37.788  30.562  14.379
54984W        W20211  39.348  39.055   1.334
54985W        W20212  12.554   8.653  12.125
54986W        W20213   5.848  42.868  12.879
54987W        W20214  41.041  41.525  14.948
54988W        W20215  15.855  20.556  11.138
54989W        W20216   7.248  21.783  12.140
54990W        W20217  17.647  21.254   4.980
54991W        W20218   6.338  20.722   2.438
54992W        W20219   1.529  39.354  11.084
54993W        W20220  11.426  19.815  12.986
54994W        W20221   2.210  39.908   2.550
54995W        W20222  10.199   0.014  10.640
54996W        W20223  29.046  32.822  10.467
54997W        W20224  15.157  41.280   0.011
54998W        W20225  21.521  42.662   4.671
54999W        W20226   0.078  16.173   3.210
55000W        W20227  10.651   9.234   1.680
55001W        W20228  41.369  16.393   1.459
55002W        W20229  21.026  20.253  13.999
55003W        W20230  10.986   4.849   2.889
55004W        W20231  37.282  23.450  12.849
55005W        W20232  31.150   2.815   2.267
55006W        W20233   5.400  21.887   0.134
55007W        W20234  32.659  29.135  14.625
55008W        W20235  36.271  39.511   0.871
55009W        W20236   5.422  26.366   0.376
55010W        W20237   6.815   4.519   1.462
55011W        W20238  18.317  30.894   1.271
55012W        W20239  31.997  36.079  12.071
55013W        W20240  27.539  15.141   1.392
55014W        W20241  43.522  15.767  10.381
55015W        W20242   5.915  13.346  10.849
55016W        W20243   6.455   0.713  10.294
55017W        W20244  10.002  26.967   2.098
55018W        W20245  41.004  17.773  10.914
55019W        W20246  40.156  31.461   4.522
55020W        W20247   5.119  21.891  11.091
55021W        W20248  40.575  42.437  11.202
55022W        W20249   5.202  28.969  12.946
55023W        W20250   1.060   2.505   0.969
55024W        W20251   1.197  22.780   1.764
55025W        W20252  32.811  31.338   2.881
55026W        W20253  25.740  44.370  13.574
55027W        W20254  30.167  26.071  11.305
55028W        W20255  40.411  41.806   0.485
55029W        W20256  16.089  28.961   4.617
55030W        W20257  33.599  39.957  13.722
55031W        W20258  38.512   2.919  11.687
55032W        W20259  25.000   6.369  12.597
55033W        W20260   5.725   8.146  11.054
55034W        W20261   7.205   0.500  11.070
55035W        W20262   5.011  30.169   3.687
55036W        W20263  13.754  24.469  12.857
55037W        W20264   1.892  20.587   4.567
55038W        W20265  29.471   7.417   2.424
55039W        W20266  34.041  44.781   2.778
55040W        W20267  16.287   1.817   3.149
55041W        W20268  13.916  25.324   3.265
55042W        W20269  34.567  12.324  12.480
55043W        W20270  30.189   4.359  13.536
55044W        W20271  31.441  18.789  13.928
55045W        W20272   2.198  34.410   1.413
55046W        W20273  13.726  41.835  10.600
55047W        W20274  38.167  20.592  10.630
55048W        W20275   0.736   6.322   1.272
55049W        W20276  30.669  32.998  14.839
55050W        W20277  30.666  29.707   4.974
55051W        W20278  15.147  28.445   3.292
55052W        W20279  42.756  43.082   0.335
55053W        W20280  41.997  10.436  14.616
55054W        W20281  10.048  41.917  12.075
55055W        W20282  14.672  18.262   1.008
55056W        W20283  41.806   9.383  11.234
55057W        W20284   3.294  16.604   3.260
55058W        W20285  37.972  12.282   0.976
55059W        W20286  42.933  15.310   4.851
55060W        W20287  15.345  35.519  12.106
55061W        W20288  33.805  18.189   1.643
55062W        W20289  28.824  16.145   0.081
55063W        W20290  11.083  24.568   1.844
55064W        W20291  31.839  15.164  13.899
55065W        W20292  22.674  11.581  14.274
55066W        W20293   3.302  19.455   4.662
55067W        W20294  29.103  12.878   4.429
55068W        W20295  29.463   7.730  12.849
55069W        W20296   2.677  21.108  11.566
55070W        W20297  32.526  31.732   2.639
55071W        W20298   1.731   6.706   0.817
55072W        W20299  25.500  28.025  12.004
55073W        W20300  25.962  26.088   1.824
55074W        W20301  25.207   3.130  11.179
55075W        W20302  36.972  28.255  11.183
55076W        W20303  28.623  31.768  12.964
55077W        W20304  25.040  14.133   3.226
55078W        W20305  15.152  38.106   4.758
55079W        W20306  22.499  25.446   1.754
55080W        W20307  17.603  44.311   1.430
55081W        W20308  27.585  21.173   2.395
55082W        W20309   4.795  11.924   3.779
55083W        W20310  26.051  42.315  14.461
55084W        W20311  15.648   0.052  13.049
55085W        W20312   6.734  31.127  11.576
55086W        W20313   5.824   6.748  13.880
55087W        W20314   6.604   9.203  14.027
55088W        W20315   6.569  10.655  12.509
55089W        W20316  38.553  29.452  11.143
55090W        W20317  19.085   8.476   2.007
55091W        W20318  23.606  17.115  11.690
55092W        W20319  37.807  37.557   0.763
55093W        W20320  26.947  35.459   3.608
55094W        W20321  32.619  36.626  12.585
55095W        W20322   7.639  23.056   2.303
55096W        W20323  23.261  27.790   2.541
55097W        W20324  32.573  38.827  12.198
55098W        W20325  42.612  22.164  13.598
55099W        W20326   3.144  36.088  11.094
55100W        W20327   8.295  31.878  14.719
55101W        W20328  33.476  33.144   2.794
55102W        W20329  20.259   6.127   3.850
55103W        W20330  38.323  23.297  10.744
55104W        W20331  20.498  43.415   1.690
55105W        W20332  33.008  41.071   2.414
55106W        W20333  30.643  15.001  14.949
55107W        W20334  30.393  41.749  12.359
55108W        W20335  23.122  14.154   3.956
55109W        W20336  20.942  12.313   1.278
55110W        W20337  39.280  34.158  12.086
55111W        W20338  25.507  28.024   4.571
55112W        W20339   3.813  33.808   4.152
55113W        W20340  30.646  23.741   4.179
55114W        W20341  41.559   8.216   3.945
55115W        W20342   1.844  21.514  12.992
55116W        W20343   5.781   6.130  14.690
55117W        W20344  11.478  20.471   4.823
55118W        W20345  17.168  14.295   3.376
55119W        W20346  38.745  17.499   1.761
55120W        W20347  24.224  34.431  13.570
55121W        W20348  11.499  11.702  12.593
55122W        W20349  26.568  35.668  10.784
55123W        W20350  25.845   1.723   4.612
55124W        W20351  12.211  22.576   2.962
55125W        W20352  29.174  35.043   3.595
55126W        W20353  19.790  15.323  11.613
55127W        W20354  19.171  24.207  14.056
55128W        W20355  24.526  21.958   4.584
55129W        W20356  34.170  36.685   3.882
55130W        W20357   5.613   6.264   1.427
55131W        W20358  43.038   0.339   0.492
55132W        W20359   4.347   7.096  12.155
55133W        W20360  30.887  15.141   2.321
55134W        W20361  13.568  15.593  12.609
55135W        W20362  43.481  18.111  14.562
55136W        W20363  35.078   5.364  10.724
55137W        W20364   0.480  21.412  14.630
55138W        W20365  43.052  26.634  12.516
55139W        W20366  32.990  32.362   4.528
55140W        W20367  17.037  13.288   1.795
55141W        W20368  34.590  20.227  12.887
55142W        W20369   1.787   1.168   0.673
55143W        W20370  37.946  34.441  14.462
55144W        W20371   2.034  16.613  12.439
55145W        W20372   3.342   0.281  12.974
55146W        W20373  17.499   6.978   2.739
55147W        W20374   9.057  34.983  12.621
55148W        W20375  10.889  21.779  14.913
55149W        W20376  35.915  11.753  13.058
55150W        W20377  27.852  43.308  13.420
55151W        W20378  29.863  41.312  10.922
55152W        W20379  43.141  16.185   1.732
55153W        W20380  18.711  11.913   2.415
55154W        W20381  35.094   1.183   1.707
55155W        W20382  20.145   6.729  13.889
55156W        W20383   9.036  21.674   2.844
55157W        W20384  15.365  43.841  14.937
55158W        W20385  16.701  19.043   2.145
55159W        W20386  37.419  41.341   0.812
55160W        W20387  21.555  24.087  14.341
55161W        W20388   8.681   4.129  12.996
55162W        W20389  35.584  12.445  11.630
55163W        W20390   4.627  33.508  11.554
55164W        W20391  37.083  14.208   2.437
55165W        W20392  34.257   7.303   1.149
55166W        W20393  18.823  29.131   3.087
55167W        W20394  32.608  38.452  14.971
55168W        W20395   4.839  21.553  13.089
55169W        W20396  28.596  22.089  12.190
55170W        W20397  27.936  12.100   4.538
55171W        W20398  30.386  17.096  14.203
55172W        W20399  41.951  32.759  13.534
55173W        W20400  20.118  34.692   3.466
55174W        W20401  33.034   2.834   2.394
55175W        W20402  27.531  26.040   2.867
55176W        W20403  41.320   1.848  10.936
55177W        W20404  24.038  44.006   2.720
55178W        W20405  19.762  12.340  14.174
55179W        W20406  33.696  33.501   4.837
55180W        W20407  43.173   5.486   5.134
55181W        W20408  15.977  13.262   1.824
55182W        W20409  14.343  13.721   1.918
55183W        W20410  35.362  14.646   3.631
55184W        W20411  26.411  14.352   2.734
55185W        W20412  27.938   6.826  12.995
55186W        W20413  29.144   9.492   1.950
55187W        W20414   6.714  16.542   1.912
55188W        W20415   4.658  23.610  11.666
55189W        W20416   1.553  23.284  12.198
55190W        W20417  32.588  41.594  11.470
55191W        W20418   4.965  43.517   9.579
55192W        W20419   1.295   9.291  11.541
55193W        W20420  23.481  24.125  13.367
55194W        W20421  19.067   1.463  11.098
55195W        W20422  44.447  14.323  10.733
55196W        W20423  36.524  10.546  12.162
55197W        W20424  20.660  31.246   3.043
55198W        W20425  28.459  44.782  11.319
55199W        W20426  12.294  27.392   0.497
55200W        W20427  41.946  20.620   4.085
55201W        W20428  17.180  34.019   9.815
55202W        W20429  18.564  27.920  10.741
55203W        W20430  23.687  26.766   2.134
55204W        W20431  18.421   1.009  12.539
55205W        W20432   3.399  10.630   0.320
55206W        W20433  23.778  10.661   0.398
55207W        W20434  44.540  24.457   0.401
55208W        W20435  12.596   9.178   3.312
55209W        W20436  12.132  31.017  12.883
55210W        W20437  44.181  12.120   0.628
55211W        W20438  42.991  41.464  10.436
55212W        W20439  36.946  40.847  14.925
55213W        W20440   5.734  34.561   0.754
55214W        W20441  20.161  40.451   3.197
55215W        W20442  25.648   1.510  11.723
55216W        W20443  33.368  24.458   1.337
55217W        W20444  33.877  16.309  12.684
55218W        W20445  21.821  12.625   0.877
55219W        W20446  27.001  34.569  11.221
55220W        W20447  38.370  37.696  13.860
55221W        W20448  31.748  43.300   1.141
55222W        W20449  40.641  23.821  10.207
55223W        W20450  18.021  36.799  11.636
55224W        W20451  31.330   6.214   1.043
55225W        W20452   1.371  22.193   1.389
55226W        W20453  15.923  26.162   4.174
55227W        W20454  15.463   5.864  11.597
55228W        W20455  18.886  38.341  13.501
55229W        W20456  17.637   0.387  14.965
55230W        W20457  35.622  16.352   4.170
55231W        W20458   3.699   5.399  13.020
55232W        W20459   3.758   1.589   1.307
55233W        W20460  10.942  37.900  12.024
55234W        W20461  39.844  21.459   1.921
55235W        W20462  35.040  27.723   1.409
55236W        W20463   2.914  21.194  14.834
55237W        W20464   6.975  17.868  13.848
55238W        W20465  25.696   4.442   2.761
55239W        W20466   9.688  35.401   1.482
55240W        W20467  39.899  22.234  11.152
55241W        W20468   4.710  27.294  14.964
55242W        W20469  28.559  19.543   2.358
55243W        W20470  43.177   1.261   4.310
55244W        W20471  29.622  19.490  10.455
55245W        W20472  11.329   0.293   1.456
55246W        W20473  33.522  11.156  10.688
55247W        W20474  23.158  19.649   0.723
55248W        W20475  12.448  20.529  11.873
55249W        W20476  34.222  36.893  11.110
55250W        W20477  33.995   5.989  14.771
55251W        W20478   0.306  28.646   3.565
55252W        W20479  29.401  10.293  13.965
55253W        W20480   3.330   4.991   1.283
55254W        W20481  32.464   9.557  11.165
55255W        W20482  32.445  38.560   0.457
55256W        W20483   2.687  15.212  13.296
55257W        W20484  33.380  35.432   3.909
55258W        W20485  27.619  36.515  11.072
55259W        W20486  10.645  11.650   1.681
55260W        W20487  44.583  41.908   1.367
55261W        W20488  30.171  12.115   3.619
55262W        W20489  42.302  22.986  13.380
55263W        W20490  18.163  25.751  12.928
55264W        W20491  35.333  17.520  12.969
55265W        W20492   2.368  30.618  12.634
55266W        W20493   8.604  17.355  11.578
55267W        W20494  38.116  17.858   3.081
55268W        W20495  29.131   3.880   3.198
55269W        W20496  14.215  39.438  13.605
55270W        W20497  13.268  19.120  13.759
55271W        W20498  22.073  18.942   0.046
55272W        W20499  40.110  11.533   4.551
55273W        W20500  17.121   8.434   2.802
55274W        W20501  44.320  27.555  13.887
55275W        W20502   7.330  39.709   3.175
55276W        W20503  30.367   3.875   4.668
55277W        W20504  28.012  29.137   1.389
55278W        W20505  15.016   6.509   4.704
55279W        W20506  30.623  34.920   1.340
55280W        W20507  28.996  28.841   1.542
55281W        W20508  19.488  36.479  11.270
55282W        W20509   6.166  30.009  14.007
55283W        W20510  28.574  34.546  13.382
55284W        W20511  30.779   3.267   3.571
55285W        W20512   8.631  13.365   3.433
55286W        W20513  38.816  37.876   2.266
55287W        W20514  40.958  17.753   2.598
55288W        W20515   5.504  38.348  10.810
55289W        W20516   1.930   0.391   1.870
55290W        W20517  36.283  33.635   1.924
55291W        W20518  40.346  34.298   4.862
55292W        W20519  22.477   2.391  11.990
55293W        W20520  41.326  14.436   1.792
55294W        W20521  27.191  27.549   0.009
55295W        W20522  14.039  44.787  11.463
55296W        W20523  40.474   9.067   4.196
55297W        W20524  40.915   5.139   2.368
55298W        W20525  19.669  16.129   4.513
55299W        W20526   9.137  31.828  11.666
55300W        W20527   6.797  28.017  13.838
55301W        W20528  20.002  33.971   2.927
55302W        W20529  32.898  42.208   4.973
55303W        W20530  15.766  18.206   3.588
55304W        W20531  18.368  40.889   1.410
55305W        W20532  24.985  36.518  13.434
55306W        W20533  17.576  31.588  12.483
55307W        W20534  19.223  44.252   0.787
55308W        W20535  17.146  37.031   3.561
55309W        W20536  38.472  28.918   4.399
55310W        W20537  34.899   0.012  11.727
55311W        W20538  20.735  33.484   2.908
55312W        W20539  18.537  32.992  14.575
55313W        W20540  44.650   6.141   4.396
55314W        W20541  28.704  19.820  14.673
55315W        W20542  35.901  39.035  13.526
55316W        W20543   5.868  22.069  14.946
55317W        W20544  38.571  37.028   2.293
55318W        W20545  24.473  15.989   2.380
55319W        W20546  11.380  29.569   2.228
55320W        W20547  32.964   4.801  14.835
55321W        W20548   8.385  40.505   2.943
55322W        W20549  21.458  28.871   1.869
55323W        W20550   2.764  30.700   5.039
55324W        W20551  26.457  33.599  12.224
55325W        W20552  34.040  33.911   4.777
55326W        W20553  42.054  32.081  11.148
55327W        W20554  31.640  40.828  10.641
55328W        W20555  31.571  21.298  10.623
55329W        W20556   6.977  32.447  11.427
55330W        W20557   8.651  21.323   2.811
55331W        W20558  41.163  21.354  11.612
55332W        W20559  39.448  42.959   2.625
55333W        W20560   6.736  40.938   2.590
55334W        W20561  43.761   2.199  13.026
55335W        W20562  13.500  18.563   1.918
55336W        W20563  20.286  25.022  13.730
55337W        W20564   3.232  27.062   1.241
55338W        W20565  22.666  43.074  11.597
55339W        W20566  35.432  35.781   2.657
55340W        W20567  17.845  15.236  13.176
55341W        W20568  23.234  42.607  10.318
55342W        W20569  11.642  39.185   2.410
55343W        W20570  21.424   1.680  13.349
55344W        W20571  39.145  42.309   3.690
55345W        W20572  39.808  29.456  14.366
55346W        W20573  43.465  33.588  11.785
55347W        W20574  30.625  35.525  12.896
55348W        W20575  30.334  41.575  11.411
55349W        W20576   2.789   7.760  10.703
55350W        W20577  41.281   9.366  10.688
55351W        W20578  39.346  31.925   4.844
55352W        W20579  31.449   3.039  12.768
55353W        W20580   4.882  18.552  12.871
55354W        W20581  27.966  14.929   1.151
55355W        W20582  41.308  38.593  12.836
55356W        W20583   9.171  28.028   2.763
55357W        W20584  33.091  41.419  11.321
55358W        W20585  12.601   9.149  12.131
55359W        W20586  19.601   7.250  13.400
55360W        W20587  14.616  39.230  13.360
55361W        W20588  12.198  28.702   1.914
55362W        W20589   0.420  24.073   4.467
55363W        W20590  22.761   0.260   0.574
55364W        W20591   9.339  32.595   5.058
55365W        W20592  25.186  13.995   2.598
55366W        W20593  35.448  15.078   1.441
55367W        W20594  23.907   4.810   1.795
55368W        W20595   2.529  15.561   2.830
55369W        W20596   1.934   9.766   2.863
55370W        W20597  40.567   5.221   0.984
55371W        W20598   5.121   6.142  13.419
55372W        W20599   5.372  42.666  12.916
55373W        W20600  36.554  34.174   4.263
55374W        W20601  32.694  18.683   1.908
55375W        W20602  26.519  16.158   2.305
55376W        W20603   7.491   7.925   0.850
55377W        W20604  28.524  28.243   1.227
55378W        W20605   9.218  35.012   1.009
55379W        W20606   1.328  17.218  14.506
55380W        W20607  23.064  17.610   2.303
55381W        W20608  14.689  20.479  11.190
55382W        W20609  30.479   0.704  11.676
55383W        W20610  35.779  30.452  10.776
55384W        W20611  33.600   1.456   2.766
55385W        W20612  24.150  11.840   3.979
55386W        W20613   9.094  18.202  10.779
55387W        W20614   3.843  34.643  12.141
55388W        W20615   9.232   4.071   2.769
55389W        W20616  17.594  28.104   3.561
55390W        W20617   7.753   8.393   1.722
55391W        W20618  35.054  17.155  12.019
55392W        W20619  29.852  43.538   0.815
55393W        W20620   5.323   5.156  13.331
55394W        W20621  24.520  18.721   0.759
55395W        W20622  28.303  44.734  12.609
55396W        W20623  15.116  19.013   0.447
55397W        W20624  32.537  16.923   9.815
55398W        W20625  10.809   6.495  14.420
55399W        W20626  26.001  43.014  12.326
55400W        W20627  40.009  20.746   1.228
55401W        W20628  28.933  16.874   3.640
55402W        W20629  19.754   5.197   2.303
55403W        W20630  21.219  18.756  13.234
55404W        W20631  14.300   1.540  10.779
55405W        W20632  28.973  36.313   0.435
55406W        W20633  36.372  43.300  14.348
55407W        W20634  22.655  20.241   3.724
55408W        W20635  43.481  40.124   0.677
55409W        W20636  10.517  25.410   2.899
55410W        W20637  28.799  43.908  10.674
55411W        W20638   7.861   0.295  12.702
55412W        W20639   4.244  12.477   4.148
55413W        W20640   2.349  40.500   4.637
55414W        W20641   7.644  36.010  11.242
55415W        W20642  22.531  20.569   2.172
55416W        W20643  40.638  13.180  14.426
55417W        W20644  18.994  10.292   1.528
55418W        W20645  24.618  44.905  10.629
55419W        W20646  27.860   0.887   5.106
55420W        W20647  20.512  34.248   4.172
55421W        W20648  16.195  22.656   0.035
55422W        W20649  39.382  12.362  12.747
55423W        W20650   2.851  26.488   0.361
55424W        W20651   3.639  24.943   2.620
55425W        W20652  11.704  20.942   4.751
55426W        W20653  24.024  28.414  13.377
55427W        W20654  30.059  23.468   2.607
55428W        W20655  22.011  35.814   3.200
55429W        W20656  16.345  19.475   0.120
55430W        W20657  42.873  29.744   0.329
55431W        W20658   9.422  12.137  11.833
55432W        W20659  43.459  24.964   4.488
55433W        W20660   4.843  32.618  11.504
55434W        W20661   6.211  44.325   1.230
55435W        W20662  10.350  44.478  12.565
55436W        W20663  14.722  29.255   3.237
55437W        W20664  13.679  17.589   3.652
55438W        W20665  23.709  32.596   0.176
55439W        W20666  38.845   9.918   3.260
55440W        W20667  19.802  44.491  11.565
55441W        W20668  18.499   0.825   1.331
55442W        W20669  29.212  30.557   3.379
55443W        W20670  21.127  11.829   2.013
55444W        W20671  38.505  24.998  14.290
55445W        W20672  42.947   9.876   0.825
55446W        W20673   4.041  33.587  14.446
55447W        W20674  12.166  21.500  13.743
55448W        W20675  19.665  32.640   2.816
55449W        W20676  30.131   2.452   2.967
55450W        W20677   1.286  11.812  13.280
55451W        W20678  10.422  34.426  14.806
55452W        W20679   0.071  43.286  13.512
55453W        W20680   0.218   1.883   4.514
55454W        W20681  41.033   1.862  12.948
55455W        W20682   1.461  11.640   3.127
55456W        W20683  24.388  13.975   5.181
55457W        W20684   6.438  12.675   1.111
55458W        W20685   9.427   3.355  12.094
55459W        W20686  33.854   0.007   2.351
55460W        W20687   9.593  21.793   0.827
55461W        W20688  44.300  40.174  13.133
55462W        W20689  37.821  38.671   2.477
55463W        W20690   0.987  17.750   1.261
55464W        W20691  27.722  19.250   2.876
55465W        W20692  19.182  24.153   1.944
55466W        W20693  20.982   1.845   4.953
55467W        W20694  24.033  30.157  11.627
55468W        W20695   3.477   4.913  12.941
55469W        W20696  10.254  43.308   2.248
55470W        W20697  19.301  34.764   1.431
55471W        W20698  38.369  28.417   1.945
55472W        W20699  16.615  31.566   0.401
55473W        W20700   1.511   9.882  13.559
55474W        W20701  12.229  40.607   3.124
55475W        W20702  39.717   0.970   1.907
55476W        W20703  36.846  23.681   1.691
55477W        W20704  31.917  18.234  14.659
55478W        W20705  12.234  10.567   4.647
55479W        W20706  15.032  43.841   4.228
55480W        W20707  13.170  24.336  13.451
55481W        W20708  40.905  19.621   3.534
55482W        W20709  35.575  10.285  14.937
55483W        W20710  40.552  29.678  13.855
55484W        W20711  39.358  14.475  13.467
55485W        W20712  43.347  43.709  10.753
55486W        W20713  39.658  25.223  14.933
55487W        W20714  10.070  22.481   2.729
55488W        W20715  43.263  36.317   3.654
55489W        W20716  38.288  14.355  13.879
55490W        W20717   2.248  17.715   0.778
55491W        W20718  14.352  37.948  14.478
55492W        W20719  40.421  35.305  11.506
55493W        W20720  15.170   7.992   2.178
55494W        W20721   7.794  13.657  11.415
55495W        W20722   4.381  11.585   1.071
55496W        W20723  15.246  32.630  11.531
55497W        W20724  43.160  30.096   1.412
55498W        W20725  14.249   0.982   1.795
55499W        W20726  31.801   8.878   3.573
55500W        W20727  30.140   6.759  12.052
55501W        W20728  19.827  37.693  12.731
55502W        W20729  38.102  43.293   3.210
55503W        W20730  30.719   2.181  12.987
55504W        W20731   6.627  32.264   4.375
55505W        W20732  10.920  32.840   3.534
55506W        W20733  19.729  30.212   3.307
55507W        W20734  18.450   9.022  11.757
55508W        W20735  41.156  13.813   0.988
55509W        W20736   0.018  17.571  12.864
55510W        W20737  31.151   4.910   0.990
55511W        W20738  14.735  31.966  11.147
55512W        W20739  40.818   6.802  12.227
55513W        W20740  11.902  29.736  12.950
55514W        W20741  22.780  24.129   4.200
55515W        W20742   9.666  29.664  11.096
55516W        W20743  44.763  23.702  12.172
55517W        W20744  24.693  38.341  13.523
55518W        W20745  12.759  43.285  14.998
55519W        W20746   1.639  33.292  13.015
55520W        W20747  14.780  10.130   3.710
55521W        W20748  12.322  26.051  10.542
55522W        W20749   9.261  17.790   5.519
55523W        W20750   3.254  11.837   4.668
55524W        W20751  22.572  20.803  13.893
55525W        W20752  31.563  36.055   0.482
55526W        W20753  40.357   3.150   9.801
55527W        W20754  35.846  25.721   4.169
55528W        W20755  22.216   4.361  13.005
55529W        W20756   9.412   9.645   4.207
55530W        W20757  28.033   4.320  11.680
55531W        W20758  12.649  30.518   2.720
55532W        W20759  42.182   4.496   0.876
55533W        W20760  16.846   1.852  10.703
55534W        W20761  16.593  17.776  14.222
55535W        W20762   9.434  18.258   5.309
55536W        W20763  16.814  31.581   0.889
55537W        W20764   1.794  22.059   1.749
55538W        W20765  11.651  17.301   1.259
55539W        W20766   4.487   3.316   2.765
55540W        W20767  43.262  26.798  10.341
55541W        W20768  31.629  39.797  14.458
55542W        W20769  26.780  21.804  12.741
55543W        W20770  30.658  13.138  12.521
55544W        W20771  29.923  13.698   0.068
55545W        W20772  16.181   1.330  14.807
55546W        W20773  17.251  21.751  14.265
55547W        W20774  27.416   3.376  13.911
55548W        W20775   7.641  22.524   4.321
55549W        W20776   0.843   9.457  14.897
55550W        W20777  41.626  37.767   4.606
55551W        W20778   6.424  21.294  13.505
55552W        W20779   8.436   8.863  11.947
55553W        W20780   4.386  44.115   3.050
55554W        W20781  21.264   0.850   3.549
55555W        W20782  41.992   1.255   2.898
55556W        W20783  42.757   0.374  14.971
55557W        W20784  14.173  35.602   2.854
55558W        W20785  30.191  31.625   0.404
55559W        W20786   6.035  33.203  12.274
55560W        W20787   6.322  24.100   0.440
55561W        W20788  18.161  17.019   3.730
55562W        W20789  24.717   7.387   4.734
55563W        W20790   0.535  40.999  12.427
55564W        W20791  31.561   8.522  12.808
55565W        W20792  18.031   6.929   2.716
55566W        W20793   7.875   2.402  12.208
55567W        W20794   9.883  14.567  12.479
55568W        W20795   4.668  23.075   0.362
55569W        W20796  44.379  16.732   2.866
55570W        W20797  31.588  28.129   1.926
55571W        W20798  40.693  40.827   4.786
55572W        W20799  39.070  42.913   1.271
55573W        W20800   5.341  30.065   4.104
55574W        W20801  16.827  13.146   2.307
55575W        W20802   2.793  11.218   4.210
55576W        W20803  43.326  14.793  12.024
55577W        W20804  14.313  11.644   1.873
55578W        W20805   0.412  15.579   4.564
55579W        W20806  44.150   9.404   3.334
55580W        W20807  37.126  30.377   1.211
55581W        W20808  21.079   3.925   2.784
55582W        W20809   3.701  40.759   2.980
55583W        W20810  14.523  26.529  11.105
55584W        W20811  40.420  32.822   0.050
55585W        W20812  18.708  44.745   4.338
55586W        W20813  16.097   1.037   1.094
55587W        W20814  12.497  35.562  11.589
55588W        W20815  40.554  16.091   1.846
55589W        W20816  32.898  39.468   0.224
55590W        W20817  10.308  32.572   0.701
55591W        W20818  40.945  14.584  13.882
55592W        W20819  24.446  18.113  11.641
55593W        W20820   1.045  34.836  11.413
55594W        W20821  25.149  25.306   3.711
55595W        W20822  29.315   6.272  11.591
55596W        W20823   9.843  36.983   1.462
55597W        W20824  42.737  36.069   3.224
55598W        W20825  42.388   9.581   2.416
55599W        W20826  27.826  43.381   4.686
55600W        W20827  18.783  27.197   2.650
55601W        W20828   9.771  36.483  11.231
55602W        W20829  35.496  33.294  12.457
55603W        W20830  35.526   7.201   0.536
55604W        W20831  17.728  43.722   0.691
55605W        W20832  17.319  21.209   2.886
55606W        W20833  20.107  33.994  13.290
55607W        W20834  27.046  28.132  10.219
55608W        W20835   5.415  24.753  14.702
55609W        W20836  35.561   9.969  11.468
55610W        W20837  12.542  17.122  12.494
55611W        W20838  28.549  10.829   2.375
55612W        W20839  19.820  18.575   4.185
55613W        W20840  34.278  44.886  11.164
55614W        W20841  17.483  32.327  13.151
55615W        W20842  10.154  14.508  10.357
55616W        W20843  36.062  23.252   3.014
55617W        W20844  27.654  21.833   0.182
55618W        W20845  21.993  42.959  13.939
55619W        W20846  10.696  25.001  10.660
55620W        W20847  15.546  25.864   0.365
55621W        W20848  21.413  16.694  11.483
55622W        W20849  34.549   5.811   4.352
55623W        W20850  11.174   2.164  14.126
55624W        W20851  35.768  16.506   2.768
55625W        W20852   3.972  25.967  11.158
55626W        W20853  39.872   2.877  14.952
55627W        W20854  43.343  24.625  13.064
55628W        W20855  17.892   4.164   1.169
55629W        W20856  24.150  29.015   0.677
55630W        W20857  38.840  27.024   1.844
55631W        W20858  39.597  34.762  11.331
55632W        W20859  27.662  27.987   0.843
55633W        W20860  19.805   0.928  12.574
55634W        W20861  37.772   9.919   3.307
55635W        W20862  13.501  23.234  11.348
55636W        W20863  35.051  33.403   2.965
55637W        W20864  22.285   9.185   5.106
55638W        W20865  26.398  27.517  14.603
55639W        W20866  12.450  28.955   4.902
55640W        W20867  37.844  12.131   4.175
55641W        W20868   8.472  30.892   2.729
55642W        W20869  34.381  41.844  14.915
55643W        W20870   2.039  14.003  13.457
55644W        W20871  13.162  29.097  14.986
55645W        W20872  38.363   6.583   1.204
55646W        W20873  36.605  33.598  12.658
55647W        W20874  35.986  22.797   4.207
55648W        W20875  10.267   0.742   4.063
55649W        W20876  31.436  11.477   0.062
55650W        W20877  40.784  35.647  13.774
55651W        W20878  17.655  12.750  12.855
55652W        W20879  19.247  26.391   4.801
55653W        W20880  19.354   0.233  12.964
55654W        W20881  13.794  44.400  11.733
55655W        W20882  41.394   5.368   3.103
55656W        W20883  17.888  36.507  12.520
55657W        W20884  31.906  41.511  14.832
55658W        W20885   3.381  31.939  10.644
55659W        W20886  24.245  38.601  14.355
55660W        W20887   3.063  39.997   1.551
55661W        W20888   4.578  22.428  12.665
55662W        W20889  40.325  41.392  14.028
55663W        W20890   1.343  35.124   0.619
55664W        W20891  12.276  22.973  13.648
55665W        W20892  30.576  21.198  12.064
55666W        W20893   5.296  27.555   1.936
55667W        W20894  12.801  30.729   0.942
55668W        W20895  20.234  19.239   3.410
55669W        W20896   1.523  39.513  10.601
55670W        W20897  32.244  10.587   4.527
55671W        W20898  14.376  26.253   2.238
55672W        W20899  41.007  14.056   4.550
55673W        W20900  13.568  23.941  14.310
55674W        W20901  41.821   4.365   1.225
55675W        W20902  23.770  24.015   3.683
55676W        W20903  15.074   1.019  11.826
55677W        W20904   0.869  18.791   1.218
55678W        W20905  25.240  40.427   2.458
55679W        W20906  11.192  22.511  12.856
55680W        W20907   8.892  35.232  11.688
55681W        W20908  26.099  29.663  10.586
55682W        W20909  13.829  32.558   0.033
55683W        W20910  41.644  34.472   2.723
55684W        W20911  25.045  25.591   2.885
55685W        W20912   5.031  27.593   3.276
55686W        W20913  21.619  43.889   3.286
55687W        W20914  32.822  23.224  11.199
55688W        W20915  18.450   0.025  11.202
55689W        W20916  31.569  34.645  12.821
55690W        W20917  21.640  35.528   0.172
55691W        W20918   9.777  41.643   3.634
55692W        W20919  34.095  31.891   0.118
55693W        W20920  44.640  31.532   4.616
55694W        W20921  13.709   1.803  12.757
55695W        W20922  42.564  40.771  11.955
55696W        W20923  41.163  41.384  12.526
55697W        W20924  10.140   3.538  12.442
55698W        W20925  11.425  33.888  12.781
55699W        W20926  33.525  36.268   3.977
55700W        W20927   8.430  35.467   3.175
55701W        W20928  40.111  39.266   4.946
55702W        W20929  12.610  19.560  12.073
55703W        W20930  35.724  16.105  11.680
55704W        W20931   2.404  22.449   4.821
55705W        W20932  23.905  25.775  13.125
55706W        W20933   7.629  10.281   0.248
55707W        W20934  23.220   9.669  12.402
55708W        W20935  38.066  16.161   2.882
55709W        W20936  25.933   4.674   1.083
55710W        W20937  37.443  20.347   4.737
55711W        W20938   3.469   5.544  10.395
55712W        W20939  13.494  12.811   1.739
55713W        W20940  41.863  27.427  14.510
55714W        W20941  44.366  12.415  14.755
55715W        W20942  23.108   8.221  10.769
55716W        W20943   8.363  38.300  13.917
55717W        W20944  17.043  23.634  12.911
55718W        W20945  44.382  17.830  10.269
55719W        W20946  14.232   5.703   0.479
55720W        W20947  40.177  43.525  14.500
55721W        W20948   7.840   5.272  13.322
55722W        W20949  42.860  22.975  13.480
55723W        W20950   0.176  36.400  13.998
55724W        W20951  15.550  25.918   3.704
55725W        W20952   9.913  15.679  11.744
55726W        W20953  30.418  25.602   3.153
55727W        W20954   7.396  33.927  13.763
55728W        W20955  16.224  22.731   3.446
55729W        W20956  16.179  21.692   2.535
55730W        W20957  26.979  16.002   3.113
55731W        W20958  21.660  19.130  12.945
55732W        W20959  16.859  27.537   4.909
55733W        W20960  16.797   0.423  11.676
55734W        W20961  10.885  31.759  13.986
55735W        W20962  27.998  42.737  12.444
55736W        W20963  20.355  12.876  11.567
55737W        W20964  11.212  13.630   3.112
55738W        W20965   8.125  13.646   4.742
55739W        W20966   4.163   3.947   4.835
55740W        W20967  31.452   5.967   3.612
55741W        W20968  43.489   9.207  12.963
55742W        W20969  42.907  32.697   2.627
55743W        W20970  23.204  39.110   0.333
55744W        W20971  10.645  24.238   1.459
55745W        W20972  44.524  33.957  14.930
55746W        W20973  25.177   5.684  12.724
55747W        W20974  14.979  34.307  11.008
55748W        W20975  28.482  25.286   1.109
55749W        W20976  14.685  36.450  13.989
55750W        W20977  25.430  39.437   3.211
55751W        W20978  44.291  41.980  14.497
55752W        W20979  18.065  44.860   1.921
55753W        W20980  21.135  17.112   5.032
55754W        W20981  10.911  24.100   4.283
55755W        W20982  30.256  14.356  13.511
55756W        W20983  17.748   7.668  11.628
55757W        W20984  30.706  16.900  12.761
55758W        W20985  31.175  44.709   0.804
55759W        W20986   4.435  43.456   1.779
55760W        W20987  17.810  36.558   3.544
55761W        W20988  11.222  11.156  13.189
55762W        W20989   4.346  18.081  12.988
55763W        W20990  22.068  34.390   0.111
55764W        W20991  14.498  22.441   0.346
55765W        W20992  38.140  16.342   1.672
55766W        W20993  35.990  32.602  14.499
55767W        W20994  22.576  17.653   0.234
55768W        W20995  19.140  25.438   4.644
55769W        W20996  40.468  38.927  14.430
55770W        W20997   7.316  29.650  10.798
55771W        W20998  14.862   0.195   0.417
55772W        W20999  27.247   0.290   1.239
55773W        W21000   0.620  24.146  14.671
55774W        W21001  11.490  44.221   3.824
55775W        W21002  23.083  32.877  11.159
55776W        W21003  29.427  40.038   2.218
55777W        W21004  43.172   0.763  13.043
55778W        W21005  19.300  28.608   0.728
55779W        W21006  33.403   2.873  12.888
55780W        W21007  26.697  19.843  10.292
55781W        W21008  43.160  10.762  14.533
55782W        W21009   8.436   9.677   4.661
55783W        W21010  30.173  43.806   3.595
55784W        W21011  43.497  25.234   4.074
55785W        W21012  22.952  27.791  11.593
55786W        W21013  19.681  33.555  13.420
55787W        W21014  24.341  30.018   0.562
55788W        W21015  16.333  10.224  10.545
55789W        W21016  37.034  37.263   0.228
55790W        W21017  39.850  37.627   2.311
55791W        W21018  26.421  37.940  11.707
55792W        W21019  39.122   7.176  12.667
55793W        W21020   1.004   4.482   3.220
55794W        W21021  41.302  38.005   2.277
55795W        W21022  43.301  29.801  10.168
55796W        W21023  15.484   3.476  12.580
55797W        W21024   5.718  29.798  13.819
55798W        W21025   5.927  29.658   0.674
55799W        W21026  20.003  14.656  11.135
55800W        W21027  14.189  20.223  10.950
55801W        W21028  23.929   5.757   1.762
55802W        W21029  33.754  37.399   0.867
55803W        W21030   5.185   9.297   3.095
55804W        W21031   7.757  19.221  11.486
55805W        W21032  36.434  28.592  12.443
55806W        W21033  30.735  28.575   4.148
55807W        W21034  15.627  11.744   2.674
55808W        W21035  18.785  39.819  11.495
55809W        W21036  36.970  30.120  10.962
55810W        W21037  15.982  37.395   1.747
55811W        W21038   2.668   0.804  13.520
55812W        W21039  34.389  34.980  14.411
55813W        W21040   0.872  39.888  14.412
55814W        W21041   2.186  35.629  13.551
55815W        W21042  36.818  28.151   2.386
55816W        W21043  12.791  21.355   4.180
55817W        W21044  18.312   4.480   1.206
55818W        W21045  39.917  22.581  14.036
55819W        W21046  14.620  29.042   2.217
55820W        W21047   3.681  18.497   4.973
55821W        W21048  11.633  38.330   1.711
55822W        W21049  37.195  22.393  11.254
55823W        W21050  24.066   7.656   4.550
55824W        W21051  39.614  44.488  14.317
55825W        W21052   4.124   4.610  14.730
55826W        W21053  27.362  39.234  11.130
55827W        W21054  27.400  17.712  12.451
55828W        W21055  42.291  28.539  14.292
55829W        W21056   0.635   5.316   0.311
55830W        W21057  23.584  44.977  10.708
55831W        W21058  16.003  42.015   2.116
55832W        W21059  36.523  36.886   0.216
55833W        W21060  25.447   7.939  11.710
55834W        W21061  16.240  10.859  12.974
55835W        W21062  20.217  39.539   4.480
55836W        W21063  36.545  31.987   4.344
55837W        W21064   5.606  37.807  10.701
55838W        W21065  21.884  34.763  13.888
55839W        W21066  32.217  43.886  10.518
55840W        W21067  31.863  23.845   4.978
55841W        W21068  41.965  40.527  10.717
55842W        W21069  22.656  14.656   2.765
55843W        W21070  18.529  40.468   4.168
55844W        W21071  24.574  14.354  10.655
55845W        W21072  38.912   8.932   1.424
55846W        W21073  40.051  38.604   2.266
55847W        W21074  28.419  33.600  13.815
55848W        W21075  23.907  16.255  11.168
55849W        W21076  37.017   3.000  11.202
55850W        W21077  37.223  18.955  14.689
55851W        W21078  26.123  36.089  14.672
55852W        W21079  34.376  40.980  11.643
55853W        W21080  22.983  15.070   4.731
55854W        W21081  25.765   7.880  11.329
55855W        W21082   2.373  42.853   1.163
55856W        W21083   0.932   8.244   0.511
55857W        W21084  14.909  30.952   4.674
55858W        W21085  10.951  16.167   3.628
55859W        W21086  34.961  32.380   2.569
55860W        W21087  17.386  43.182   1.418
55861W        W21088  15.398  36.911  12.453
55862W        W21089   6.939  25.040  12.571
55863W        W21090  36.769  18.679  14.082
55864W        W21091   5.151  23.577   0.892
55865W        W21092  13.476  27.563  12.671
55866W        W21093  33.514  41.974  12.984
55867W        W21094  17.253  40.369   3.030
55868W        W21095  34.737  16.816   4.029
55869W        W21096  18.806  42.124   2.525
55870W        W21097   9.328  33.362  11.439
55871W        W21098  10.458  33.684   4.567
55872W        W21099  17.067  12.164  14.785
55873W        W21100   3.227   9.430   2.911
55874W        W21101  29.911  16.642   4.306
55875W        W21102  34.859  12.654  10.268
55876W        W21103  41.350  27.166   2.780
55877W        W21104  23.211  28.043   1.556
55878W        W21105  17.149  40.845   4.813
55879W        W21106  35.120  41.381   2.873
55880W        W21107   4.211  17.787   1.649
55881W        W21108   7.763  35.488  14.173
55882W        W21109  28.696   8.875  14.259
55883W        W21110  17.701  28.852   1.668
55884W        W21111  11.807   6.717   0.929
55885W        W21112  25.420   6.930  14.802
55886W        W21113  41.059  21.807   4.170
55887W        W21114  22.976  44.932   1.970
55888W        W21115  11.913  15.121  11.434
55889W        W21116  33.926   0.636   3.199
55890W        W21117  27.031  19.273   3.270
55891W        W21118  30.486  18.767  13.042
55892W        W21119  30.889  17.737   1.256
55893W        W21120  20.700  17.568   2.779
55894W        W21121   1.703  26.194   4.080
55895W        W21122  30.896  11.727   2.164
55896W        W21123  37.540  25.650   3.624
55897W        W21124  41.514   4.721  12.431
55898W        W21125  14.347   5.845  12.541
55899W        W21126  38.879   1.864  10.683
55900W        W21127   8.269  36.552  14.764
55901W        W21128  21.842  37.385   1.216
55902W        W21129  34.184   3.093  11.653
55903W        W21130  14.753  30.575  12.440
55904W        W21131  34.112   0.298   2.845
55905W        W21132  40.231  41.728   2.437
55906W        W21133  42.352  30.380  13.534
55907W        W21134   5.140  25.196  14.806
55908W        W21135  20.632  26.497   0.947
55909W        W21136   0.824  17.143  14.325
55910W        W21137  33.908   6.533   0.655
55911W        W21138  30.947  26.427   3.606
55912W        W21139  13.709  27.519   3.737
55913W        W21140   5.350  33.016   3.372
55914W        W21141  38.225  39.086   3.744
55915W        W21142   0.698   4.618  14.299
55916W        W21143  16.026  34.325  13.436
55917W        W21144  26.288  42.207  12.024
55918W        W21145  30.247  25.713   0.214
55919W        W21146  40.268  24.578   0.153
55920W        W21147  25.295   0.051   3.908
55921W        W21148  15.014  27.407  14.346
55922W        W21149  40.306   9.825   1.765
55923W        W21150  20.615  36.906  11.573
55924W        W21151  33.694  25.608   2.587
55925W        W21152  40.841  19.846  10.573
55926W        W21153  25.498  18.591   2.353
55927W        W21154  25.172  30.390   0.731
55928W        W21155  39.952  38.978  14.519
55929W        W21156  19.831  37.509  11.168
55930W        W21157  40.795  35.315  11.138
55931W        W21158  37.753  35.296   4.082
55932W        W21159  15.540  31.351   3.282
55933W        W21160  23.828   3.521   2.987
55934W        W21161  24.716  19.962  14.475
55935W        W21162  23.197  43.003   5.310
55936W        W21163  24.971  40.272  11.504
55937W        W21164  17.788  17.828   1.182
55938W        W21165  16.018   4.220  12.919
55939W        W21166  24.739  26.633   1.962
55940W        W21167  33.299  42.008   4.594
55941W        W21168  18.579  31.592  12.658
55942W        W21169   4.341   2.209  12.878
55943W        W21170  43.218   4.057   1.325
55944W        W21171  16.043  27.621   3.707
55945W        W21172  44.682  35.636  11.653
55946W        W21173  10.360  19.109   4.588
55947W        W21174  44.346  13.635   4.379
55948W        W21175  36.408  24.123   0.382
55949W        W21176  38.737   1.914   1.596
55950W        W21177  32.912  44.649  13.077
55951W        W21178   0.767  23.571  11.890
55952W        W21179  36.198  27.337  13.097
55953W        W21180  29.372   4.346   3.188
55954W        W21181  30.415  44.708  11.648
55955W        W21182   8.860  38.138  14.026
55956W        W21183  26.523  16.246  14.077
55957W        W21184  16.282  43.457  11.006
55958W        W21185  42.237  34.360  12.984
55959W        W21186  14.202  29.450   5.195
55960W        W21187  35.917  43.420  12.606
55961W        W21188  37.936  36.264  10.836
55962W        W21189  14.887   2.938  10.690
55963W        W21190  42.040  27.477   1.834
55964W        W21191  39.021  40.067   1.576
55965W        W21192   5.066  43.937  14.924
55966W        W21193  36.359   6.723   0.947
55967W        W21194  35.262   6.519  11.206
55968W        W21195  41.394  30.515   3.750
55969W        W21196  36.914  28.426  14.719
55970W        W21197  43.705  33.391   4.188
55971W        W21198  14.032  25.395  14.023
55972W        W21199  44.188   1.575   4.243
55973W        W21200  36.807  27.608  12.478
55974W        W21201  43.691   3.372  14.957
55975W        W21202  16.272  23.505   5.061
55976W        W21203  28.028  12.432  10.791
55977W        W21204  43.068  31.980  14.032
55978W        W21205  28.761  34.707   1.147
55979W        W21206  15.643  44.544  12.877
55980W        W21207   8.149  17.532  10.384
55981W        W21208   1.557   1.487  13.771
55982W        W21209  39.091   2.856  12.698
55983W        W21210  35.722  40.490   1.300
55984W        W21211  24.171  23.720   1.714
55985W        W21212  44.653   3.923  13.148
55986W        W21213  30.065  25.926   2.918
55987W        W21214   3.754  15.161  14.522
55988W        W21215  28.667  35.564  13.788
55989W        W21216  21.247  21.523   2.722
55990W        W21217   7.590  35.394   2.932
55991W        W21218   5.962  39.715  12.076
55992W        W21219  36.368  40.426  11.034
55993W        W21220  44.679   7.500   2.171
55994W        W21221  40.848  34.075   1.862
55995W        W21222   4.414  42.352  13.404
55996W        W21223  41.443  43.578   2.268
55997W        W21224  29.422  38.874   1.232
55998W        W21225  25.113  28.640   0.240
55999W        W21226  22.677  40.336  11.617
56000W        W21227   8.232  39.015  13.514
56001W        W21228  18.692  13.228  11.593
56002W        W21229  20.916  11.885   3.302
56003W        W21230  19.276  34.382   4.841
56004W        W21231  15.672  24.506  11.106
56005W        W21232  11.895   6.227   4.422
56006W        W21233  44.780  40.320   3.513
56007W        W21234  13.216  14.824  12.581
56008W        W21235  18.754   1.681  13.155
56009W        W21236   5.863   6.176  13.840
56010W        W21237   4.785  13.658   3.192
56011W        W21238  18.997   4.314  11.533
56012W        W21239  23.055  13.603  12.087
56013W        W21240   2.822  16.299   2.684
56014W        W21241  31.009  24.279   0.307
56015W        W21242  44.057  22.762   4.579
56016W        W21243   5.637   1.356   0.969
56017W        W21244   2.501   6.387  10.931
56018W        W21245   8.180  27.249  13.066
56019W        W21246  44.397  44.381   2.731
56020W        W21247  24.215   1.746   3.161
56021W        W21248  25.188  17.632   1.008
56022W        W21249   9.367   5.891   1.668
56023W        W21250  13.505  40.306  13.046
56024W        W21251  17.513   4.841   1.749
56025W        W21252  30.110  22.947   1.865
56026W        W21253   5.921   2.454   4.086
56027W        W21254  23.517  18.272   3.636
56028W        W21255   2.914  15.815   4.055
56029W        W21256  21.734  18.927   2.050
56030W        W21257  37.732  34.489   2.947
56031W        W21258  25.686  22.150  11.600
56032W        W21259   5.273  37.512  12.856
56033W        W21260  18.273  25.978  10.624
56034W        W21261  12.271  18.212   3.198
56035W        W21262  23.348  43.395   5.003
56036W        W21263  41.118   5.680  12.955
56037W        W21264   1.253  34.598   3.889
56038W        W21265  10.422  33.434   2.637
56039W        W21266   1.879  27.649   4.046
56040W        W21267  31.840  38.946   0.751
56041W        W21268  15.221  20.045   1.440
56042W        W21269  34.245   2.340  14.593
56043W        W21270  24.162  11.849  11.567
56044W        W21271  39.166  39.016  13.868
56045W        W21272  37.325  26.903  12.592
56046W        W21273  38.805   0.861  14.785
56047W        W21274  41.316  34.953  14.300
56048W        W21275  34.765  26.444   1.239
56049W        W21276  25.169  33.853  14.360
56050W        W21277  44.543   4.515  14.904
56051W        W21278   8.191  29.100  10.500
56052W        W21279   7.177  10.292   1.000
56053W        W21280   1.421  41.374  14.869
56054W        W21281   5.820   7.710   1.280
56055W        W21282   4.186   0.268   4.413
56056W        W21283   7.440  29.508   3.826
56057W        W21284  14.327  21.524  14.319
56058W        W21285  26.987  33.632  11.109
56059W        W21286  18.719  10.623   3.490
56060W        W21287  18.096  24.533  14.314
56061W        W21288  17.381  23.685  11.100
56062W        W21289   5.878   2.113  14.795
56063W        W21290  42.497  22.604  14.967
56064W        W21291  12.101   6.370   2.886
56065W        W21292  13.620  36.330  14.978
56066W        W21293  23.480  35.608   2.360
56067W        W21294   9.154  26.695   2.254
56068W        W21295  37.311  44.426   3.205
56069W        W21296  21.551  41.718   1.201
56070W        W21297   3.382  42.280   2.252
56071W        W21298  33.921   3.427  14.249
56072W        W21299   8.796  36.229   2.819
56073W        W21300  20.230  20.868  13.845
56074W        W21301  32.834  10.063  12.321
56075W        W21302   1.503  14.775   2.410
56076W        W21303  21.530  39.504   1.589
56077W        W21304  14.252  18.806   3.253
56078W        W21305   5.085   9.964  13.540
56079W        W21306  43.349  28.695   4.265
56080W        W21307  36.961  32.001   4.024
56081W        W21308  44.618   5.757  12.867
56082W        W21309   6.700  38.549  12.900
56083W        W21310   0.867   0.561  13.385
56084W        W21311   2.912  19.170  10.627
56085W        W21312  26.837  23.208  12.983
56086W        W21313  30.126   8.813  10.619
56087W        W21314  12.517   4.726   1.205
56088W        W21315  18.779  40.653   0.653
56089W        W21316  23.195   2.850   3.342
56090W        W21317  15.007  11.628  11.244
56091W        W21318  12.882  37.265   4.465
56092W        W21319   9.460  43.685  10.545
56093W        W21320   6.884  16.627  14.345
56094W        W21321  10.838  33.683   0.395
56095W        W21322  20.188   5.943  14.981
56096W        W21323  35.465   0.399  11.241
56097W        W21324  10.598   3.488  11.612
56098W        W21325   9.190  37.671   5.052
56099W        W21326   4.943  33.491   4.920
56100W        W21327  35.393  43.407  14.568
56101W        W21328  44.313  15.734   0.757
56102W        W21329  17.107  33.057  11.657
56103W        W21330  15.403  44.943  10.255
56104W        W21331  13.084  22.784   4.371
56105W        W21332  31.357  44.213   0.746
56106W        W21333  29.853  36.895   0.073
56107W        W21334  36.509  23.047  14.951
56108W        W21335   6.493  15.090   1.703
56109W        W21336  24.315   4.278   4.056
56110W        W21337  20.062  10.439  13.973
56111W        W21338  13.183   5.566  13.273
56112W        W21339  11.359  22.533  11.540
56113W        W21340   0.329  39.801  13.308
56114W        W21341  39.634   1.092   4.129
56115W        W21342  28.001  37.726   1.348
56116W        W21343  25.175  39.459   2.676
56117W        W21344  31.105  39.476  11.791
56118W        W21345  16.066  18.219  11.531
56119W        W21346   2.897  21.643   4.788
56120W        W21347   4.036  40.636  10.699
56121W        W21348  13.739   8.814   3.779
56122W        W21349   1.692  38.255   0.352
56123W        W21350  36.009  28.732  14.226
56124W        W21351  31.850  30.605  13.946
56125W        W21352  28.440  35.284   3.256
56126W        W21353  35.998  41.774   3.235
56127W        W21354  15.586   7.153  13.649
56128W        W21355  32.631   5.941  12.905
56129W        W21356  36.362  29.508  12.541
56130W        W21357  14.829   6.462   4.182
56131W        W21358  26.768  41.472  13.535
56132W        W21359  40.095  37.794   3.157
56133W        W21360   9.226   1.882  13.991
56134W        W21361  34.913   4.674  11.166
56135W        W21362  13.922  40.775   4.414
56136W        W21363  40.291  22.105  12.529
56137W        W21364  35.889  40.298   4.089
56138W        W21365  31.373  27.437   0.299
56139W        W21366  29.729   0.975   0.868
56140W        W21367  15.236  23.357   1.260
56141W        W21368  39.775  11.102   3.312
56142W        W21369  11.563  25.137   0.354
56143W        W21370  15.407   0.826  11.512
56144W        W21371  39.234  19.719   1.877
56145W        W21372  12.798   5.874   1.750
56146W        W21373   0.401  33.046   4.468
56147W        W21374  12.532   6.779   4.080
56148W        W21375  21.177  37.676   3.586
56149W        W21376  31.693   3.397  11.569
56150W        W21377  16.133  15.294   1.049
56151W        W21378  23.998  41.913  14.898
56152W        W21379  42.020  34.818  12.964
56153W        W21380  33.557  26.177  11.063
56154W        W21381   5.521  19.333  11.224
56155W        W21382  25.937  28.959   3.127
56156W        W21383  11.257  13.663  11.209
56157W        W21384  23.667   6.380   2.598
56158W        W21385  26.680  32.401   4.876
56159W        W21386  23.429  35.553   0.671
56160W        W21387  31.007  18.773  12.993
56161W        W21388  40.426  34.116   0.254
56162W        W21389  40.425  23.981   2.770
56163W        W21390  11.387  28.159  14.327
56164W        W21391   9.082  16.656   1.812
56165W        W21392   7.425  36.489  14.569
56166W        W21393  29.976  43.939  12.584
56167W        W21394  22.228  23.010   1.059
56168W        W21395  35.459  15.827   4.209
56169W        W21396  33.340  43.115  11.847
56170W        W21397  39.820   6.483   2.784
56171W        W21398  42.230  31.998   1.329
56172W        W21399  21.195  25.955   1.304
56173W        W21400  14.763  20.748  14.043
56174W        W21401  21.150  44.279   3.964
56175W        W21402   5.546  26.376  13.628
56176W        W21403  37.343  25.343  10.343
56177W        W21404  16.043  12.750  13.054
56178W        W21405  10.839  16.639  14.009
56179W        W21406  26.191  32.152   0.514
56180W        W21407  22.505  31.330  11.180
56181W        W21408  28.970  39.498   3.646
56182W        W21409  21.755  37.257   0.292
56183W        W21410  29.353   3.850  11.036
56184W        W21411  18.778   5.255   2.347
56185W        W21412   7.492  14.272  10.358
56186W        W21413  12.459  37.495   1.592
56187W        W21414  17.349  24.949  13.904
56188W        W21415  28.758  34.387  12.915
56189W        W21416  17.198   6.702   1.458
56190W        W21417  35.164  22.692  11.624
56191W        W21418  23.705  36.405  12.150
56192W        W21419  11.176  22.620   0.327
56193W        W21420  36.229  26.361  11.158
56194W        W21421   6.416  19.500  12.101
56195W        W21422  32.954  19.778   0.436
56196W        W21423  22.266  42.970   4.072
56197W        W21424  16.502  29.450   2.805
56198W        W21425  20.687  38.356   4.598
56199W        W21426  43.492  25.108   3.576
56200W        W21427  30.062   1.980  12.012
56201W        W21428  38.825  34.898  13.460
56202W        W21429  35.024  23.939   2.623
56203W        W21430  23.415  29.744  12.449
56204W        W21431  43.051  44.306   1.414
56205W        W21432  28.365   0.706   3.376
56206W        W21433  33.654  25.368  10.629
56207W        W21434  11.282  37.822   0.556
56208W        W21435  18.707   4.392   0.053
56209W        W21436  19.405  42.486  14.350
56210W        W21437  38.904  24.672   0.032
56211W        W21438  30.662  43.919  11.154
56212W        W21439  11.216   8.661   4.259
56213W        W21440  26.913   5.158   0.314
56214W        W21441  10.876  22.218   2.321
56215W        W21442  38.104   2.029  13.059
56216W        W21443   4.993  36.338  12.233
56217W        W21444   9.652  32.528  11.357
56218W        W21445  19.516  13.276   3.282
56219W        W21446  23.223   7.152   2.413
56220W        W21447  36.359  18.546   1.757
56221W        W21448  35.024  40.909  12.937
56222W        W21449   3.296  18.818   3.046
56223W        W21450  17.267  12.258   0.786
56224W        W21451  34.976  28.162   4.703
56225W        W21452  24.224  29.354  13.340
56226W        W21453  19.099  28.249  11.315
56227W        W21454   7.481   9.934  11.685
56228W        W21455  18.703  33.689  13.811
56229W        W21456   6.756  20.720  12.542
56230W        W21457   3.899  18.820   1.240
56231W        W21458  30.361  12.114  10.719
56232W        W21459   2.335  16.004   3.016
56233W        W21460  12.853  42.416   2.321
56234W        W21461  38.329   9.852  10.179
56235W        W21462  27.433  21.684   2.617
56236W        W21463  28.561  28.878  13.495
56237W        W21464  40.754   6.733  14.812
56238W        W21465  22.122  13.502   4.546
56239W        W21466  37.149  15.324   1.357
56240W        W21467  44.756  36.598   0.320
56241W        W21468  37.359  25.570   4.104
56242W        W21469  13.419  32.954   2.850
56243W        W21470   1.324  41.853  11.122
56244W        W21471  42.285  38.306   3.623
56245W        W21472   8.155  43.326   0.000
56246W        W21473   8.464  38.550  14.361
56247W        W21474  24.149  42.618  14.128
56248W        W21475  16.006  32.653   0.314
56249W        W21476  15.141  34.592  12.413
56250W        W21477   8.994  33.329   1.321
56251W        W21478   3.966  25.489   3.877
56252W        W21479   3.239   8.224   5.114
56253W        W21480  40.793  33.385  11.052
56254W        W21481   1.955  29.503   4.084
56255W        W21482   2.838  43.309  14.794
56256W        W21483  37.077  17.451  12.069
56257W        W21484  16.824   5.218   2.437
56258W        W21485  15.136  44.463  13.089
56259W        W21486   1.504  32.257   0.863
56260W        W21487   8.215  29.620  13.863
56261W        W21488  22.113  14.648  13.020
56262W        W21489  34.237   4.324   0.272
56263W        W21490   2.533  42.245   3.986
56264W        W21491  30.513  22.139   3.279
56265W        W21492   1.163  41.370   1.413
56266W        W21493   3.952   8.446  10.804
56267W        W21494  28.892  41.526   3.348
56268W        W21495  37.900  11.404   1.402
56269W        W21496  38.494   3.058   0.695
56270W        W21497  12.307  39.367  10.737
56271W        W21498   3.365  12.251  13.078
56272W        W21499  44.998   1.257   3.658
56273W        W21500  23.562  40.058   4.022
56274W        W21501  41.914  30.250   0.825
56275W        W21502   7.327  12.586   3.119
56276W        W21503  29.857  11.769  11.145
56277W        W21504   2.811  10.412   0.446
56278W        W21505  21.091  33.591   4.271
56279W        W21506  18.818  25.289  11.819
56280W        W21507   0.846  34.455  13.631
56281W        W21508   9.020   1.974   2.512
56282W        W21509  44.476  31.329   1.932
56283W        W21510  15.576  38.001  12.090
56284W        W21511  35.705   2.271  12.885
56285W        W21512   0.216  11.108   3.243
56286W        W21513  16.273  27.491   4.492
56287W        W21514   9.822  32.546  13.015
56288W        W21515   1.982  34.829   2.697
56289W        W21516   6.012  32.835   3.789
56290W        W21517  15.912  32.895   4.490
56291W        W21518  24.718  15.125   0.317
56292W        W21519  26.349  17.222   1.240
56293W        W21520  43.981   8.330   1.739
56294W        W21521   6.405  14.305   0.331
56295W        W21522  23.930  39.070  12.689
56296W        W21523   5.470  11.874  14.018
56297W        W21524  37.463  20.725  11.837
56298W        W21525  29.013  17.184  12.002
56299W        W21526  15.805  10.825   2.315
56300W        W21527  36.087  21.008   2.301
56301W        W21528   6.500   7.129   1.762
56302W        W21529   4.877  44.792  12.808
56303W        W21530   0.391  10.143  10.896
56304W        W21531  34.089  15.866   1.689
56305W        W21532  14.865  12.169   1.837
56306W        W21533  38.391  42.310   0.617
56307W        W21534  35.085  13.357   0.212
56308W        W21535   2.345  18.300   2.376
56309W        W21536  36.958  11.452   4.945
56310W        W21537   9.424  19.546  13.459
56311W        W21538   5.818  42.051   2.074
56312W        W21539  23.978  31.260  14.743
56313W        W21540  10.211  21.600  14.252
56314W        W21541  12.632   9.441   4.517
56315W        W21542  14.338  31.430   3.773
56316W        W21543  41.740  33.478  10.126
56317W        W21544  12.084  13.726  10.776
56318W        W21545  11.907  11.241  14.345
56319W        W21546  36.345  15.116  12.571
56320W        W21547  10.596  41.503   2.192
56321W        W21548  43.529  37.824   4.676
56322W        W21549  27.104  12.801  14.978
56323W        W21550  15.054  19.945  14.451
56324W        W21551  32.562  40.830   0.961
56325W        W21552  40.065   8.709   1.534
56326W        W21553  11.925   6.186   0.939
56327W        W21554  40.228  27.432   1.429
56328W        W21555  23.547  15.610   0.377
56329W        W21556   8.176  38.021  10.548
56330W        W21557  32.674  23.461   2.221
56331W        W21558  43.973  20.324   4.103
56332W        W21559  30.921  44.807  11.136
56333W        W21560  32.968  33.438  12.839
56334W        W21561   2.828  11.713  12.523
56335W        W21562   6.658  12.844  12.985
56336W        W21563  26.510  37.435  11.942
56337W        W21564   4.740  30.770  14.306
56338W        W21565  39.355  24.513   1.808
56339W        W21566  21.622  38.875  12.459
56340W        W21567  30.106  15.250   0.669
56341W        W21568  28.983  41.782   0.889
56342W        W21569  32.650  34.055   4.338
56343W        W21570  17.719  20.717  11.443
56344W        W21571  32.123  43.515   2.657
56345W        W21572  31.675  39.059  10.239
56346W        W21573  20.521  41.446  14.457
56347W        W21574   2.022  19.910   3.988
56348W        W21575  34.064  11.670  13.994
56349W        W21576   8.675  44.005  12.833
56350W        W21577  35.292  32.342  10.689
56351W        W21578  26.454   5.184   2.237
56352W        W21579  32.413  37.858  12.130
56353W        W21580   2.477   4.126   2.376
56354W        W21581  37.440   4.661   2.380
56355W        W21582  18.158  41.231   4.049
56356W        W21583  38.821   3.217   1.269
56357W        W21584   3.527  34.155   0.413
56358W        W21585   0.560   9.963   4.751
56359W        W21586  36.830  17.985  12.432
56360W        W21587   5.764  32.426   1.958
56361W        W21588  30.709  26.659  13.472
56362W        W21589  17.807  20.223  12.456
56363W        W21590  40.927  37.911  13.395
56364W        W21591  23.171   5.333   0.808
56365W        W21592  43.890  10.662   4.869
56366W        W21593  10.901  31.865   1.901
56367W        W21594  14.850   6.037   0.776
56368W        W21595   9.751  43.726   4.575
56369W        W21596  19.261  15.298   2.755
56370W        W21597  36.170  24.174  14.462
56371W        W21598  17.833   2.362   3.748
56372W        W21599   1.337   2.639  11.204
56373W        W21600  32.612  26.485  11.220
56374W        W21601  21.065  13.900  11.683
56375W        W21602  13.377  34.908  12.431
56376W        W21603  21.701   2.933   1.349
56377W        W21604  23.122  11.687   2.230
56378W        W21605  36.049   3.916  11.581
56379W        W21606   7.320  42.683  12.943
56380W        W21607  30.655  25.446  13.895
56381W        W21608   4.404   9.839  10.876
56382W        W21609   8.488   4.875  11.387
56383W        W21610  15.855   1.218   0.684
56384W        W21611  23.147  29.175  11.883
56385W        W21612  13.130  13.101   3.744
56386W        W21613  40.067   4.898   4.469
56387W        W21614  32.157  28.276  14.336
56388W        W21615  14.269  21.826  13.055
56389W        W21616  20.489  21.567   2.302
56390W        W21617  20.662  20.595  13.920
56391W        W21618  41.573   1.067  10.264
56392W        W21619  33.872  11.184  13.960
56393W        W21620  14.389  31.474  12.057
56394W        W21621  33.994  41.603   1.163
56395W        W21622  11.015  30.031  12.859
56396W        W21623   9.321  25.609   1.306
56397W        W21624  43.792   0.496  14.035
56398W        W21625  16.209  10.629  14.429
56399W        W21626  36.446  21.913   4.205
56400W        W21627  32.992  25.289   3.664
56401W        W21628  20.728  12.920   4.084
56402W        W21629  11.832  37.429   2.186
56403W        W21630  21.399  43.674   4.616
56404W        W21631  13.104  28.660   2.873
56405W        W21632   9.748  35.544  11.159
56406W        W21633  22.902  10.410  11.993
56407W        W21634   7.722   5.496  14.282
56408W        W21635  11.727  33.098   0.131
56409W        W21636  16.107  17.212   2.302
56410W        W21637  12.007  32.324   3.837
56411W        W21638  11.912  44.945   4.832
56412W        W21639  24.170  28.443  11.984
56413W        W21640  37.729  40.096   9.716
56414W        W21641  16.395   0.078   2.704
56415W        W21642  23.823  28.977  13.572
56416W        W21643  22.758  15.352  13.098
56417W        W21644  34.159  11.770  10.747
56418W        W21645   2.190  31.575  11.523
56419W        W21646  10.635  39.719   1.463
56420W        W21647   4.739  26.692  14.046
56421W        W21648  17.324  35.921  13.527
56422W        W21649  40.502  18.728  10.775
56423W        W21650   0.735   9.951   0.064
56424W        W21651  44.286   1.665  11.899
56425W        W21652   7.616   3.182   4.988
56426W        W21653  19.562   2.705  14.435
56427W        W21654  27.479  42.255  14.343
56428W        W21655  21.580  18.457  11.478
56429W        W21656  44.224  38.969  13.893
56430W        W21657  15.077  20.796   0.742
56431W        W21658  41.897  21.049   0.907
56432W        W21659  14.406   5.198   4.030
56433W        W21660  21.292  23.538  12.551
56434W        W21661  18.252  37.523  10.498
56435W        W21662   9.842  21.135   1.147
56436W        W21663  24.952  36.290  11.301
56437W        W21664  16.008  30.115  11.168
56438W        W21665  29.057  23.705   1.787
56439W        W21666  29.579   8.364  10.637
56440W        W21667   0.423  32.852  11.109
56441W        W21668  36.817  23.026  14.068
56442W        W21669   2.430  30.082   1.873
56443W        W21670  28.233  26.845  13.982
56444W        W21671  21.729  21.687  11.210
56445W        W21672  29.028  24.499   1.269
56446W        W21673   5.727  42.943  11.909
56447W        W21674   4.418   0.485   3.495
56448W        W21675  18.834  26.605  14.021
56449W        W21676   4.991  11.472   5.104
56450W        W21677   4.894  38.391   4.065
56451W        W21678  43.568  28.959  12.818
56452W        W21679  12.271  40.543  11.330
56453W        W21680  39.772  40.929   3.733
56454W        W21681  21.009   3.189   3.881
56455W        W21682  22.808  12.634   1.047
56456W        W21683  29.851  19.805  13.124
56457W        W21684  18.757  27.376  14.355
56458W        W21685  25.180  39.887   3.225
56459W        W21686  25.652  33.613  14.504
56460W        W21687  20.800  10.575   2.723
56461W        W21688  15.071  40.011   1.396
56462W        W21689  17.133  12.193   3.727
56463W        W21690  44.946  42.924   0.456
56464W        W21691  41.937  34.376   0.802
56465W        W21692  13.119  35.378  12.454
56466W        W21693  42.165  42.858   3.049
56467W        W21694   6.267  38.295   3.751
56468W        W21695  44.318   6.394   2.744
56469W        W21696  24.212  39.586   1.793
56470W        W21697  22.161  33.826   3.036
56471W        W21698  31.655  18.771  10.803
56472W        W21699  15.552  15.588   4.621
56473W        W21700  42.653   0.724  13.183
56474W        W21701  23.277  42.370  14.871
56475W        W21702  42.757  15.848   1.659
56476W        W21703  16.706  23.041   2.869
56477W        W21704  11.361  36.874   1.319
56478W        W21705  11.388  42.082  14.838
56479W        W21706  11.297   2.007  14.628
56480W        W21707  24.189  26.359  10.416
56481W        W21708  18.202  30.399   1.381
56482W        W21709  41.104  38.456   1.385
56483W        W21710   2.255  30.652  10.598
56484W        W21711  20.287  25.695  12.296
56485W        W21712  21.504   8.294   0.653
56486W        W21713  28.467  14.721  14.619
56487W        W21714  29.942  43.513   0.278
56488W        W21715  36.802  11.749   4.140
56489W        W21716  20.819  18.811  10.737
56490W        W21717   1.464   1.886  14.548
56491W        W21718  27.153  18.953   3.697
56492W        W21719  26.147  24.019  10.836
56493W        W21720  33.503  29.732   4.008
56494W        W21721   8.412  29.145  14.063
56495W        W21722   4.837  16.046   0.290
56496W        W21723  11.837   4.422  14.529
56497W        W21724  33.169   8.434  11.048
56498W        W21725  10.615  29.679   0.427
56499W        W21726  41.128  24.648  11.723
56500W        W21727  15.782  24.911   3.663
56501W        W21728  17.556  14.311  14.947
56502W        W21729  25.069  20.699  12.942
56503W        W21730  32.805  25.426  11.459
56504W        W21731  28.714  23.847  11.014
56505W        W21732  41.964  33.615  14.767
56506W        W21733   5.761  25.913  13.806
56507W        W21734  17.037  12.122  14.274
56508W        W21735   1.842  14.076  11.203
56509W        W21736   9.431  40.859   4.358
56510W        W21737   1.911  31.698   4.142
56511W        W21738  34.139  31.272   3.644
56512W        W21739  34.895  35.045   2.813
56513W        W21740  23.678  12.863  14.823
56514W        W21741  38.370   1.578   2.459
56515W        W21742  43.622   0.896   3.508
56516W        W21743  13.383  29.017   1.645
56517W        W21744  42.426  37.947  12.152
56518W        W21745   9.552   7.702  13.947
56519W        W21746  44.298  18.217  13.109
56520W        W21747  25.314  25.265   4.756
56521W        W21748  25.370   2.330  12.605
56522W        W21749  44.731  13.125   3.173
56523W        W21750   0.364  32.236  13.944
56524W        W21751  17.151   9.406  10.813
56525W        W21752  31.073  24.525  13.895
56526W        W21753  28.178  20.525   0.314
56527W        W21754  18.230  30.718   1.847
56528W        W21755  41.813  14.250   0.252
56529W        W21756  29.663   7.783  12.382
56530W        W21757  16.743  39.958   2.499
56531W        W21758   0.593  11.588  12.154
56532W        W21759   9.145  41.430  12.163
56533W        W21760  11.615  37.227   5.014
56534W        W21761  10.109  27.396   0.377
56535W        W21762  42.628   7.286  11.612
56536W        W21763  21.116  35.861  14.003
56537W        W21764   5.832  11.704  10.498
56538W        W21765  17.070  35.041  10.670
56539W        W21766  25.078   9.438  14.968
56540W        W21767  37.059  15.767   0.132
56541W        W21768  20.242  29.850   0.418
56542W        W21769  35.876  10.734  11.696
56543W        W21770   5.511  41.126  10.781
56544W        W21771  40.341  41.843  14.932
56545W        W21772  28.865  29.600  12.151
56546W        W21773  28.409  12.259  13.651
56547W        W21774  43.908  22.157  10.206
56548W        W21775   0.802  22.664  14.907
56549W        W21776  43.575  34.459  12.038
56550W        W21777  15.706  38.593   3.241
56551W        W21778  32.836  27.288   0.757
56552W        W21779  22.074  34.938  13.012
56553W        W21780  28.593  27.885   2.633
56554W        W21781  40.447  26.527  11.167
56555W        W21782  27.447  33.450  12.461
56556W        W21783   8.138   6.704  14.838
56557W        W21784  43.474  13.889   2.730
56558W        W21785  26.484  21.638  12.332
56559W        W21786   6.890  23.073   1.859
56560W        W21787  28.806  21.532   2.379
56561W        W21788  31.996  22.146  13.949
56562W        W21789   8.985   3.577   5.026
56563W        W21790  25.511   2.315   2.622
56564W        W21791  34.561  32.821   1.786
56565W        W21792   4.258  30.836  10.452
56566W        W21793  42.523   8.044  12.416
56567W        W21794  16.647  36.583  13.302
56568W        W21795  32.971  12.666   1.058
56569W        W21796  28.041  37.434   3.707
56570W        W21797   4.789  35.617  12.419
56571W        W21798  23.019  25.820   4.511
56572W        W21799  40.071  20.952   0.753
56573W        W21800  31.975  34.480  13.562
56574W        W21801  39.715  41.484   1.384
56575W        W21802  15.629  14.235   0.030
56576W        W21803   8.122   1.937  12.177
56577W        W21804   4.358   8.572  13.264
56578W        W21805  20.721  13.324  14.346
56579W        W21806   9.697  16.119  13.463
56580W        W21807  35.066   0.746   3.254
56581W        W21808  44.818  25.166   4.389
56582W        W21809  11.660   4.918   1.626
56583W        W21810  15.322   9.564  13.695
56584W        W21811  34.626   5.258   4.129
56585W        W21812   4.851   9.099  12.605
56586W        W21813  33.565  33.537   1.610
56587W        W21814  24.611  26.845   4.801
56588W        W21815  36.715  16.354   1.535
56589W        W21816  36.382  38.062   0.962
56590W        W21817   1.455  11.191  12.637
56591W        W21818  32.937  24.528  12.642
56592W        W21819  38.557   3.115   0.167
56593W        W21820  25.680  34.520  13.510
56594W        W21821   9.666  44.374  11.110
56595W        W21822   9.123   5.230  13.035
56596W        W21823  40.964  36.891  14.971
56597W        W21824  22.178  34.544   2.730
56598W        W21825  44.884  34.528  13.420
56599W        W21826  11.569  34.878  14.864
56600W        W21827  25.478  16.606   3.606
56601W        W21828  12.309  33.472  14.593
56602W        W21829   2.400  37.546  13.086
56603W        W21830  43.278  33.006  13.475
56604W        W21831   9.771  24.955  11.580
56605W        W21832  39.839   9.459   1.160
56606W        W21833  27.522  28.708  12.801
56607W        W21834  32.846   0.523   1.871
56608W        W21835   4.670  11.275  10.586
56609W        W21836   0.590  16.472  11.475
56610W        W21837   4.371  28.173  14.092
56611W        W21838  36.466   9.198  11.062
56612W        W21839   1.333  22.148  12.699
56613W        W21840  32.419  21.863   2.357
56614W        W21841  27.753  41.979  13.987
56615W        W21842  21.911  37.864  10.755
56616W        W21843  33.726  26.796   0.320
56617W        W21844  28.977   2.651   2.852
56618W        W21845  28.470  13.822   0.081
56619W        W21846  35.917  18.231   3.245
56620W        W21847   6.985  24.925  10.841
56621W        W21848   0.089  35.363   4.174
56622W        W21849  33.845   3.032   4.137
56623W        W21850  40.441   0.327  14.250
56624W        W21851  36.056  12.654   1.075
56625W        W21852  10.373  44.817  14.580
56626W        W21853  21.041  23.901  13.333
56627W        W21854  40.065  44.485  14.598
56628W        W21855   6.801   9.789   3.566
56629W        W21856   3.369  28.678   2.101
56630W        W21857  25.189  37.237  12.472
56631W        W21858  30.950  44.288   4.195
56632W        W21859  32.401   6.537   2.356
56633W        W21860   7.180   2.970   1.162
56634W        W21861   0.863  42.542  11.590
56635W        W21862  38.581  14.261   4.700
56636W        W21863  38.921  17.217   0.483
56637W        W21864  42.324  44.748   3.207
56638W        W21865  21.429  23.707  10.068
56639W        W21866  26.165  11.156   3.273
56640W        W21867  39.800  19.634   0.484
56641W        W21868  23.700   0.684   1.364
56642W        W21869  26.669  36.284   3.294
56643W        W21870  36.671  39.136   0.958
56644W        W21871  16.774  13.152   1.354
56645W        W21872  31.697  17.787  13.848
56646W        W21873  44.728  17.844   1.562
56647W        W21874  29.011  19.859  14.248
56648W        W21875   9.952  20.623   2.177
56649W        W21876  32.559  21.593  10.747
56650W        W21877  43.298  27.436   4.276
56651W        W21878  37.888  39.482   4.335
56652W        W21879   8.395  26.120   3.686
56653W        W21880   6.558  11.663   4.159
56654W        W21881  20.686  15.668  12.920
56655W        W21882  21.727  28.652  13.763
56656W        W21883  44.807  17.312  14.256
56657W        W21884  33.516   5.618  10.406
56658W        W21885  35.907   7.839   4.069
56659W        W21886  38.031  27.057   1.316
56660W        W21887  15.614   0.441   2.183
56661W        W21888  29.116   4.213  14.600
56662W        W21889  21.157   8.623  11.161
56663W        W21890  21.997   6.312  11.943
56664W        W21891   9.059  20.077  10.634
56665W        W21892  25.986  12.063   1.202
56666W        W21893  24.769  11.434  12.570
56667W        W21894   9.218  23.625  10.698
56668W        W21895  16.209  13.190  14.273
56669W        W21896  29.920  32.106   1.573
56670W        W21897  36.572  26.422  12.020
56671W        W21898   4.648   9.468  11.195
56672W        W21899  21.561  30.652  12.554
56673W        W21900  27.715  19.648  12.099
56674W        W21901  31.538  32.126   1.028
56675W        W21902   6.532  18.482  11.276
56676W        W21903  38.559  20.762  10.902
56677W        W21904  33.995   8.945   4.057
56678W        W21905  31.932  38.613   1.718
56679W        W21906  26.420  11.765   2.381
56680W        W21907  12.856  16.160   0.130
56681W        W21908  23.460  19.100  12.932
56682W        W21909  29.048   9.695  11.599
56683W        W21910  13.328  38.784  12.706
56684W        W21911  10.190   7.976  12.342
56685W        W21912  23.364  23.024  11.784
56686W        W21913  20.134   9.566  12.937
56687W        W21914  23.543  34.664   1.711
56688W        W21915   6.403  28.669  14.444
56689W        W21916  24.072  10.549   2.765
56690W        W21917  18.417  33.514   2.651
56691W        W21918  28.153  30.535   0.395
56692W        W21919   4.748   2.545   5.073
56693W        W21920  11.678  29.902   1.458
56694W        W21921  26.806   4.792  12.479
56695W        W21922  42.800  42.566  10.495
56696W        W21923  43.129  42.846  10.804
56697W        W21924  13.380  38.624   2.278
56698W        W21925  17.260  38.914  11.667
56699W        W21926   0.715  16.690   2.036
56700W        W21927  11.126   3.729  13.368
56701W        W21928  20.648  20.186   3.537
56702W        W21929  41.851   2.833  13.550
56703W        W21930  25.003  21.021   1.411
56704W        W21931  39.152  27.458   2.020
56705W        W21932  41.736   7.915  12.990
56706W        W21933  36.513  33.397   2.836
56707W        W21934  15.230  32.585  10.654
56708W        W21935  41.733   0.333   2.525
56709W        W21936  33.073  39.122  14.873
56710W        W21937   5.057   1.222  11.922
56711W        W21938  39.601  42.813  13.926
56712W        W21939  35.303   3.607   0.745
56713W        W21940  37.489  33.504  13.216
56714W        W21941   6.735  19.914  12.060
56715W        W21942  34.484  25.689  11.234
56716W        W21943  25.202  39.489  14.115
56717W        W21944  26.447  36.484  14.422
56718W        W21945  27.126  31.713   1.663
56719W        W21946  31.295   5.873  11.171
56720W        W21947  12.078  25.556  12.532
56721W        W21948  40.228  20.167   3.761
56722W        W21949  28.582  16.756  10.424
56723W        W21950  26.070  11.330  11.564
56724W        W21951  40.031   9.938   1.274
56725W        W21952  25.983  34.104  13.383
56726W        W21953  15.669  11.414   1.321
56727W        W21954   4.939  23.608   1.882
56728W        W21955  18.277  34.456  11.655
56729W        W21956  20.028  13.673   1.321
56730W        W21957  23.110  30.019   1.367
56731W        W21958  32.150  31.666   9.968
56732W        W21959  12.891  22.535  12.375
56733W        W21960  23.159  16.238  11.374
56734W        W21961  31.622  22.196  13.003
56735W        W21962   9.202   4.338   4.774
56736W        W21963  12.530  16.546  11.496
56737W        W21964  19.702  33.522  10.624
56738W        W21965  37.083  33.016  14.052
56739W        W21966  30.728  21.500   2.454
56740W        W21967  37.652  32.383   1.740
56741W        W21968   3.599   0.410   0.781
56742W        W21969  26.261   4.056   3.158
56743W        W21970   0.234  27.809  14.362
56744W        W21971  10.300  27.543  13.208
56745W        W21972  36.238  21.587   3.875
56746W        W21973  28.944  35.836  12.043
56747W        W21974  27.789  14.156  13.528
56748W        W21975  35.603  20.018  12.824
56749W        W21976  32.322   3.012  11.114
56750W        W21977   9.778  28.998   1.414
56751W        W21978  26.530  32.834   4.582
56752W        W21979  40.054  17.575  12.001
56753W        W21980  38.491  16.827  11.422
56754W        W21981  37.863  21.671  14.495
56755W        W21982   1.773  25.798  10.249
56756W        W21983   2.785  30.669  10.612
56757W        W21984  20.286  10.896   4.650
56758W        W21985  42.353  23.679  14.808
56759W        W21986  44.107  27.505  11.011
56760W        W21987  41.249  38.116  13.756
56761W        W21988  30.834  17.420  12.567
56762W        W21989  20.065  32.726  13.780
56763W        W21990  20.678   8.661   2.231
56764W        W21991  36.291  35.688  12.414
56765W        W21992  26.698  36.666  13.031
56766W        W21993  34.921  29.102   0.026
56767W        W21994   6.439  17.185  11.111
56768W        W21995   8.293  28.935  12.693
56769W        W21996   4.931  33.098   1.742
56770W        W21997  24.465  23.999   3.165
56771W        W21998  16.757  11.237  12.054
56772W        W21999  17.220   2.800  13.409
56773W        W22000  30.443  38.861   0.168
56774W        W22001  21.586  34.809   3.011
56775W        W22002  31.735  36.820   1.650
56776W        W22003  21.492  25.333   4.899
56777W        W22004  35.642  19.123   3.680
56778W        W22005  38.885  44.827  13.597
56779W        W22006  35.962  17.181   0.770
56780W        W22007  20.154  16.205   1.864
56781W        W22008  43.665  18.781  10.691
56782W        W22009  19.145  22.910  12.535
56783W        W22010  42.763  11.838   2.516
56784W        W22011  21.956   8.577   1.361
56785W        W22012  35.596  32.182  11.089
56786W        W22013  44.533   1.463  14.378
56787W        W22014  34.430  17.054  12.158
56788W        W22015  23.516  21.309  13.843
56789W        W22016   6.373  36.161  10.861
56790W        W22017  29.317  25.882   5.062
56791W        W22018  20.533   2.411   4.380
56792W        W22019  30.388  40.535   3.154
56793W        W22020  20.417  24.145   4.569
56794W        W22021  10.909  34.375  13.346
56795W        W22022  21.311  30.896   1.318
56796W        W22023  37.041  38.291  12.488
56797W        W22024   1.464   4.298   1.019
56798W        W22025  12.349   1.925   1.990
56799W        W22026   5.314   4.345   3.836
56800W        W22027   9.226  12.896   1.298
56801W        W22028  38.465  44.816  11.531
56802W        W22029  17.576   7.655  14.849
56803W        W22030   9.373   5.359  10.700
56804W        W22031   7.898  38.797   0.920
56805W        W22032  13.905  43.804  12.348
56806W        W22033   0.315  28.574   1.356
56807W        W22034  44.244  18.666  11.246
56808W        W22035  16.685  27.523  14.674
56809W        W22036  36.604   6.892  13.858
56810W        W22037  17.651  14.715  12.022
56811W        W22038  41.355   0.530  13.934
56812W        W22039   8.694  41.716  12.661
56813W        W22040   3.808  40.354  14.747
56814W        W22041  39.370  25.676   0.790
56815W        W22042  23.993  25.487   0.952
56816W        W22043  25.614   6.621   0.799
56817W        W22044  15.135   0.600   2.251
56818W        W22045  38.628  35.519   1.825
56819W        W22046   4.789   6.245   1.977
56820W        W22047  16.287  41.854  13.730
56821W        W22048  30.750  12.765  10.156
56822W        W22049  28.314   8.170  12.777
56823W        W22050  28.998  18.415   2.899
56824W        W22051  22.973  33.787   0.365
56825W        W22052  38.277  44.815   0.834
56826W        W22053  42.540  31.005   0.265
56827W        W22054  16.244  10.412   3.360
56828W        W22055  20.150   4.640  12.217
56829W        W22056  42.606  38.195   4.352
56830W        W22057  15.688  23.271  10.791
56831W        W22058  40.982  28.006   3.212
56832W        W22059  27.679  44.689  12.075
56833W        W22060  15.755  30.440   2.340
56834W        W22061  34.530  33.624  10.413
56835W        W22062  40.463   5.133   2.652
56836W        W22063  19.798  38.732  11.540
56837W        W22064  30.872  16.749   3.311
56838W        W22065  18.449  23.705   0.711
56839W        W22066   0.217  25.535  13.512
56840W        W22067  27.063  26.654   1.288
56841W        W22068   4.410  44.300   0.327
56842W        W22069  37.852  19.986  13.946
56843W        W22070  40.941   5.247   3.306
56844W        W22071   7.509  26.983   2.743
56845W        W22072  38.776  44.019   1.213
56846W        W22073  20.224   0.014  13.918
56847W        W22074  27.078  11.707   1.364
56848W        W22075  37.853  12.661  14.241
56849W        W22076  30.136  21.632   3.751
56850W        W22077   1.682   4.144   2.689
56851W        W22078   1.220   6.215   1.372
56852W        W22079  29.970  13.110  13.235
56853W        W22080  38.400  37.986   2.608
56854W        W22081  41.993  11.656   3.700
56855W        W22082   6.136  11.689  12.823
56856W        W22083  18.588  12.385   4.087
56857W        W22084   1.982  32.404  14.847
56858W        W22085   4.711  21.687   4.061
56859W        W22086  32.620  15.167   0.604
56860W        W22087  32.847  17.055  13.971
56861W        W22088  18.480  39.116  11.021
56862W        W22089  34.404   5.787  10.421
56863W        W22090  25.575  18.526   3.242
56864W        W22091  17.676   4.298  14.296
56865W        W22092  34.207  19.669   2.758
56866W        W22093  22.632  36.131  13.165
56867W        W22094  10.343  39.905  12.518
56868W        W22095  32.631  33.878  12.991
56869W        W22096  31.868   9.970  10.037
56870W        W22097  36.915  14.417   4.147
56871W        W22098   8.394  16.043  13.063
56872W        W22099  21.205   1.974   2.776
56873W        W22100  41.819  40.415   3.367
56874W        W22101  35.934  21.763   2.771
56875W        W22102  15.674  11.338   5.069
56876W        W22103  16.061   5.231  12.950
56877W        W22104  33.039  28.037   0.078
56878W        W22105   7.844  30.279   4.920
56879W        W22106  10.671   4.253   3.304
56880W        W22107  30.649  17.207   0.706
56881W        W22108  39.801  20.266   1.334
56882W        W22109   7.211  23.946  12.115
56883W        W22110  18.987  31.492  11.933
56884W        W22111   7.353  14.212   0.020
56885W        W22112  35.446  16.880  11.739
56886W        W22113  37.903   7.356   0.474
56887W        W22114  37.890  17.782  13.092
56888W        W22115  41.741   6.937  11.137
56889W        W22116  17.618  39.885  10.402
56890W        W22117   2.928  20.682   9.830
56891W        W22118  12.558   0.555   2.709
56892W        W22119  41.055  11.275  13.514
56893W        W22120  15.446   7.861  12.502
56894W        W22121  10.134  31.797  14.903
56895W        W22122  34.043  33.285  14.087
56896W        W22123  36.536  37.625  11.533
56897W        W22124  26.216  44.494   1.676
56898W        W22125  17.716  28.236  14.940
56899W        W22126   5.575   9.028  13.882
56900W        W22127  31.359   8.314  13.747
56901W        W22128   7.287  25.432   4.658
56902W        W22129   7.791  32.674   2.236
56903W        W22130  41.949  42.019   3.923
56904W        W22131   0.870  24.434   0.456
56905W        W22132  39.443  38.365  13.570
56906W        W22133   4.813  19.966  11.437
56907W        W22134   6.955   5.771   3.801
56908W        W22135  44.974  38.337  12.051
56909W        W22136  22.939   9.207   2.178
56910W        W22137  28.568  12.442  12.023
56911W        W22138  24.618  26.177   2.596
56912W        W22139  15.315  10.743   1.913
56913W        W22140  22.379  10.290  13.013
56914W        W22141  34.542  35.904   3.914
56915W        W22142  22.524  24.942  12.411
56916W        W22143  27.331  31.079  13.131
56917W        W22144   8.832  10.181  12.586
56918W        W22145  19.152  22.198   4.069
56919W        W22146  36.395  36.379   1.344
56920W        W22147  43.907  27.949   0.905
56921W        W22148   2.520   1.241   2.449
56922W        W22149  23.200  10.337   4.105
56923W        W22150  29.416  28.528   1.663
56924W        W22151   9.951  15.619   2.644
56925W        W22152  13.428  40.400   0.789
56926W        W22153  26.527  43.624   4.012
56927W        W22154  29.643  12.346  14.631
56928W        W22155  30.568   5.619  14.817
56929W        W22156  14.162  23.925  11.066
56930W        W22157   6.783  25.407  11.578
56931W        W22158  10.430  27.802  14.874
56932W        W22159   1.734   4.811  14.256
56933W        W22160   6.467  26.190  13.651
56934W        W22161  31.061  15.802  14.924
56935W        W22162   1.463  29.612   0.944
56936W        W22163   3.716   2.478  11.975
56937W        W22164  21.693  37.126   4.132
56938W        W22165  10.293  35.884   1.360
56939W        W22166  24.729  27.579   4.845
56940W        W22167  16.368  38.318   3.528
56941W        W22168  18.482  30.207  14.583
56942W        W22169  20.779   6.710  11.520
56943W        W22170  44.739  44.377   4.290
56944W        W22171  27.672   8.813   3.164
56945W        W22172  34.345  44.932   1.405
56946W        W22173  29.062  33.810   2.773
56947W        W22174  11.076  10.392   4.144
56948W        W22175   5.928  14.223  12.973
56949W        W22176  40.391  24.778   3.047
56950W        W22177  43.084  28.469   2.536
56951W        W22178  16.221  26.108   4.607
56952W        W22179  23.611  24.052  14.319
56953W        W22180  19.217  12.807  14.166
56954W        W22181   0.084  16.744  10.740
56955W        W22182  34.910  27.615  12.867
56956W        W22183   0.050  43.867  14.344
56957W        W22184  37.339  16.127   0.377
56958W        W22185  41.000  44.043   4.684
56959W        W22186   3.720   4.648  12.512
56960W        W22187  18.652   2.541   4.056
56961W        W22188   2.411   7.687   0.013
56962W        W22189  43.312   9.562  13.519
56963W        W22190  25.640  14.751   3.399
56964W        W22191  13.329   0.887   4.099
56965W        W22192   2.794   0.899  14.103
56966W        W22193  11.974  35.321   3.129
56967W        W22194  27.755  37.462   2.342
56968W        W22195   3.322  30.552   5.416
56969W        W22196  11.907  26.311   3.702
56970W        W22197  26.183  37.817  12.159
56971W        W22198  31.454  40.373   2.116
56972W        W22199  11.332  31.591   3.678
56973W        W22200  20.630  13.552   2.784
56974W        W22201  17.478  23.883  14.412
56975W        W22202  44.974   8.921  13.949
56976W        W22203  36.363  39.969   0.666
56977W        W22204  37.382   0.285   2.811
56978W        W22205  38.996  31.122   3.681
56979W        W22206  41.276  12.594  10.564
56980W        W22207  19.542  24.570   2.244
56981W        W22208  26.604  19.088  12.810
56982W        W22209  30.264  39.067   3.362
56983W        W22210   5.657  14.170  12.503
56984W        W22211   3.669  34.988  14.473
56985W        W22212  19.486   7.838   4.652
56986W        W22213   3.426   5.779  14.550
56987W        W22214  41.477  17.181   4.105
56988W        W22215  16.182  41.156  14.986
56989W        W22216  34.064   0.910   0.513
56990W        W22217  27.000  25.027  13.539
56991W        W22218  44.960  44.791  11.744
56992W        W22219  26.851   9.727  11.686
56993W        W22220   0.756   6.226  11.469
56994W        W22221  18.647  35.677   1.099
56995W        W22222  11.302   0.003   3.177
56996W        W22223  33.303  14.171   5.413
56997W        W22224  34.016  39.823   2.407
56998W        W22225  19.345   7.722  13.477
56999W        W22226  44.371  20.576   1.256
57000W        W22227   8.727   7.715  14.380
57001W        W22228  39.589  40.521   3.482
57002W        W22229  17.631  43.816   1.193
57003W        W22230  35.153  31.266  11.079
57004W        W22231  10.486  21.166   3.810
57005W        W22232  16.788  21.650  11.119
57006W        W22233  36.412  30.895  11.268
57007W        W22234  13.904  28.775   0.947
57008W        W22235  41.855  23.130   3.302
57009W        W22236  43.706  31.080  13.389
57010W        W22237  27.020  17.371   1.406
57011W        W22238  15.100   2.021  14.942
57012W        W22239   2.521  42.896   1.651
57013W        W22240  43.588   6.898  14.308
57014W        W22241  22.245  14.674   2.328
57015W        W22242  15.305  34.379  14.562
57016W        W22243   4.420  21.889  11.547
57017W        W22244  33.165  16.279   2.596
57018W        W22245  43.270  36.054  10.817
57019W        W22246  43.395  21.235  12.578
57020W        W22247  42.477  38.347  13.993
57021W        W22248  26.576  16.329   3.227
57022W        W22249  31.657  17.228   4.205
57023W        W22250  41.150  18.678   3.907
57024W        W22251  23.499   4.217  13.458
57025W        W22252   3.977   5.894   4.239
57026W        W22253  13.264  26.222  10.806
57027W        W22254  38.881   7.192   1.852
57028W        W22255  40.376  18.713   1.283
57029W        W22256   4.305   3.149   4.160
57030W        W22257  41.880  33.560   3.269
57031W        W22258  15.739   6.515   3.600
57032W        W22259  22.975  16.836  12.890
57033W        W22260  27.790   2.367  10.076
57034W        W22261   7.897  41.727  11.999
57035W        W22262   6.620  10.103  12.052
57036W        W22263  24.894   0.404  11.871
57037W        W22264  26.150  27.354  12.934
57038W        W22265  37.583   4.296  14.038
57039W        W22266  44.558  14.280  13.659
57040W        W22267  23.624  13.415   4.792
57041W        W22268  26.922  42.835   1.684
57042W        W22269   0.337  24.161  10.764
57043W        W22270  38.806  38.442  10.994
57044W        W22271  22.585   0.278   3.602
57045W        W22272   7.328   4.102  12.820
57046W        W22273  23.692  16.735   4.090
57047W        W22274   6.597  23.213   1.440
57048W        W22275  18.423   1.140  14.905
57049W        W22276  10.629  40.583   4.061
57050W        W22277   4.733  14.796   2.192
57051W        W22278   3.220  44.940   3.639
57052W        W22279  10.027   2.809  10.507
57053W        W22280   2.768  20.772   1.276
57054W        W22281  30.417  12.370   3.225
57055W        W22282   1.632  38.025   3.598
57056W        W22283  32.417   5.072   1.767
57057W        W22284   1.733   3.015   1.237
57058W        W22285  39.252   3.760   3.265
57059W        W22286  11.628  40.667  14.793
57060W        W22287  38.162  17.745  11.606
57061W        W22288  39.173  25.846  13.513
57062W        W22289  14.674   1.125   0.027
57063W        W22290  31.957  15.107   1.477
57064W        W22291  23.566  36.253   4.098
57065W        W22292  33.179  22.718  10.526
57066W        W22293  26.916  32.485   2.327
57067W        W22294  30.372  40.790   3.615
57068W        W22295  44.364   5.842   4.730
57069W        W22296  42.053  40.613  13.766
57070W        W22297  25.053  43.329   2.550
57071W        W22298  44.899   5.614   1.773
57072W        W22299  29.987  37.016  14.599
57073W        W22300  26.232  15.298   1.241
57074W        W22301  38.934  12.641  13.392
57075W        W22302  37.406  24.241   4.555
57076W        W22303  40.856  27.895  12.808
57077W        W22304  26.555  19.112  14.698
57078W        W22305  24.210  37.575  12.477
57079W        W22306  38.574  37.502   0.203
57080W        W22307  11.074  31.383   4.097
57081W        W22308  13.266  42.010  12.838
57082W        W22309   5.696  29.774   1.587
57083W        W22310  43.097  43.170  13.502
57084W        W22311  18.825   8.975   0.877
57085W        W22312   5.225   5.195  12.485
57086W        W22313  20.940  40.128   1.775
57087W        W22314   2.917   6.326  11.199
57088W        W22315  37.581  17.884  10.729
57089W        W22316  19.339  37.404  11.052
57090W        W22317  23.849  25.891   3.722
57091W        W22318  15.545  32.168  10.584
57092W        W22319  23.106  20.106  12.949
57093W        W22320  37.650   2.747   0.357
57094W        W22321  34.523  39.560  10.692
57095W        W22322  36.725  15.563  10.881
57096W        W22323  28.655  34.087  13.664
57097W        W22324  13.830  28.101  11.620
57098W        W22325  40.041  28.065  14.400
57099W        W22326  11.570  21.634   2.285
57100W        W22327  43.033  15.152   2.783
57101W        W22328  16.364  37.784  13.939
57102W        W22329  21.294  16.014   4.305
57103W        W22330  26.717   1.866   3.728
57104W        W22331  26.629  38.527   0.206
57105W        W22332  23.695  12.685   4.139
57106W        W22333   4.020   4.603   2.797
57107W        W22334  32.176  23.887  12.408
57108W        W22335  33.543  12.193   0.266
57109W        W22336  15.627  24.642   3.263
57110W        W22337  35.023  44.105  13.397
57111W        W22338  19.523  15.866   0.491
57112W        W22339  33.189   7.653  11.946
57113W        W22340  35.650   8.798  14.435
57114W        W22341  42.237   0.463  13.522
57115W        W22342  37.498  44.863  11.567
57116W        W22343  35.132  37.969  13.819
57117W        W22344  31.920  19.169  10.575
57118W        W22345  20.062  36.000  10.567
57119W        W22346  39.640  22.018  12.020
57120W        W22347   1.762   5.634  14.465
57121W        W22348  13.665   7.721  10.636
57122W        W22349  33.553  18.168  12.005
57123W        W22350   3.777  20.349   3.847
57124W        W22351  34.062  42.369  10.777
57125W        W22352  29.009   9.387   4.595
57126W        W22353  22.259  12.185  13.925
57127W        W22354  44.702   4.702   0.960
57128W        W22355   8.667  44.927   2.208
57129W        W22356  23.348  44.713   5.354
57130W        W22357   3.876  42.833  11.914
57131W        W22358  33.355  23.752  13.328
57132W        W22359  22.138  19.572   1.763
57133W        W22360  22.251   6.455   2.638
57134W        W22361  25.295  42.350  12.819
57135W        W22362  40.506   4.696   0.960
57136W        W22363  38.963  40.193   4.576
57137W        W22364  29.539  15.844  11.927
57138W        W22365  13.784  35.569  11.080
57139W        W22366   2.206  13.197   0.711
57140W        W22367   6.338  31.976   4.042
57141W        W22368  22.139  32.086   3.962
57142W        W22369  28.237  12.475   1.424
57143W        W22370  28.589   8.372  11.488
57144W        W22371  44.421  24.403  13.487
57145W        W22372  44.802  29.915  13.907
57146W        W22373  41.411  13.624   4.692
57147W        W22374  18.322  34.805   4.102
57148W        W22375  31.629   9.372   3.571
57149W        W22376  10.760  14.659  11.160
57150W        W22377  43.921  40.987   0.716
57151W        W22378  15.760  26.337  10.763
57152W        W22379  25.126  17.759   1.984
57153W        W22380  14.740  37.308  11.214
57154W        W22381  36.932   5.828   1.614
57155W        W22382  10.171  29.381   3.322
57156W        W22383  10.815  24.687  14.885
57157W        W22384  40.120   1.703   4.022
57158W        W22385  11.527  39.527  10.666
57159W        W22386  43.560  34.651   1.347
57160W        W22387   5.914  43.887  14.646
57161W        W22388  27.475  44.529   2.290
57162W        W22389  22.424  14.185   2.308
57163W        W22390  23.288  12.403   4.028
57164W        W22391  21.234  21.255  10.486
57165W        W22392   1.217   5.027   1.542
57166W        W22393  27.388  26.272   1.490
57167W        W22394  36.092   7.156   1.520
57168W        W22395  11.689  22.318  12.813
57169W        W22396  43.028  23.637  14.356
57170W        W22397  11.903  30.908   0.519
57171W        W22398   3.777   4.755   0.560
57172W        W22399   4.809   5.396  12.684
57173W        W22400  34.122  16.696  11.903
57174W        W22401  41.309  21.082   4.624
57175W        W22402  28.279  41.164  10.281
57176W        W22403  36.758  39.649   0.927
57177W        W22404  32.681  33.558  12.364
57178W        W22405  24.730  29.461   3.758
57179W        W22406  21.671  35.885  11.587
57180W        W22407  11.191   5.286   2.246
57181W        W22408  15.267  35.264  11.642
57182W        W22409   6.400  38.968  13.395
57183W        W22410   3.406  43.870  11.120
57184W        W22411  13.401  22.206  11.549
57185W        W22412  35.599  11.455  12.759
57186W        W22413  15.714  35.659   1.765
57187W        W22414  29.297  20.000   1.370
57188W        W22415   1.519  26.037  11.344
57189W        W22416  43.316  44.171  14.938
57190W        W22417  32.931   0.667  11.139
57191W        W22418   8.257  34.949   1.940
57192W        W22419   8.656   1.919   1.670
57193W        W22420  21.375  13.334  13.823
57194W        W22421  24.313  30.480  10.870
57195W        W22422   6.578  43.763  10.477
57196W        W22423  31.380  14.728  11.521
57197W        W22424  36.065   3.382  10.698
57198W        W22425   7.929  43.902  13.316
57199W        W22426   3.821  36.968   4.594
57200W        W22427  16.703  15.640   1.604
57201W        W22428  18.136   2.525   4.138
57202W        W22429  32.924   6.281  11.801
57203W        W22430  31.830  20.925   1.276
57204W        W22431  11.540  38.444   4.509
57205W        W22432  32.967  14.855  14.489
57206W        W22433  23.673  26.171  12.843
57207W        W22434   4.034  19.858   4.194
57208W        W22435  10.379  20.311  14.284
57209W        W22436  44.797  44.151   3.057
57210W        W22437  32.117  42.716  14.257
57211W        W22438  32.649  35.458   1.246
57212W        W22439  16.816  13.043  11.038
57213W        W22440  12.753  20.262   0.386
57214W        W22441  16.141  27.912  10.782
57215W        W22442  15.696  16.600  14.005
57216W        W22443  39.838  40.238   4.530
57217W        W22444   0.987  31.521   0.951
57218W        W22445  33.874  33.379  11.024
57219W        W22446  12.196   9.110   0.722
57220W        W22447  16.702  15.658   2.620
57221W        W22448  40.753   5.980  13.475
57222W        W22449  24.957  17.296  11.252
57223W        W22450  10.114  17.226  14.431
57224W        W22451  44.741  31.938   4.927
57225W        W22452  29.156  12.345  14.874
57226W        W22453  20.091  38.287   4.226
57227W        W22454   0.360  30.838  11.004
57228W        W22455  30.209  40.887  14.083
57229W        W22456  42.147  15.932   5.083
57230W        W22457   5.101  36.558   0.509
57231W        W22458  28.475  18.829  13.560
57232W        W22459  29.565  37.281  13.024
57233W        W22460  32.399  41.396   3.031
57234W        W22461  35.289  22.208  11.488
57235W        W22462  17.406  15.603   0.832
57236W        W22463  26.789   0.097   1.397
57237W        W22464  30.119  44.724   3.719
57238W        W22465  37.299   3.676   4.359
57239W        W22466  33.876  10.733  11.784
57240W        W22467  29.058  36.981   4.952
57241W        W22468   4.234  27.641   3.643
57242W        W22469   5.207  31.064   2.644
57243W        W22470  44.600  22.500   3.711
57244W        W22471  42.784  29.140   1.754
57245W        W22472  37.914  26.815  11.126
57246W        W22473  31.004  11.568  10.567
57247W        W22474   4.028   2.473   1.135
57248W        W22475   2.011  21.042  12.879
57249W        W22476  37.030  37.902   1.731
57250W        W22477  25.905  33.635   2.301
57251W        W22478   0.478  14.716  14.094
57252W        W22479  17.804  30.558  13.734
57253W        W22480  35.864  20.770   2.714
57254W        W22481   0.709  28.895   3.797
57255W        W22482  25.368   6.919   3.657
57256W        W22483  40.734   7.748  12.347
57257W        W22484  17.122  44.695  14.380
57258W        W22485  29.579  43.411  14.546
57259W        W22486  33.528  30.707   3.154
57260W        W22487  35.165   1.671  14.220
57261W        W22488  31.829   9.626   3.951
57262W        W22489   1.091  10.803   1.480
57263W        W22490  19.457  14.062   4.562
57264W        W22491   3.879  15.060   4.099
57265W        W22492   1.058  23.190  12.066
57266W        W22493  29.650  33.532  12.040
57267W        W22494   2.313   2.344   0.379
57268W        W22495  13.335  42.366   2.167
57269W        W22496  18.559  36.375   2.536
57270W        W22497   4.777  27.148   3.151
57271W        W22498  37.957   0.878   1.935
57272W        W22499  16.127  15.697  10.668
57273W        W22500  13.158  37.479  14.421
57274W        W22501  22.113   6.252   2.168
57275W        W22502  20.878  13.184  13.844
57276W        W22503  32.599  27.449   0.244
57277W        W22504  28.948  16.446  10.238
57278W        W22505  26.647   1.651   4.179
57279W        W22506  10.232  16.502   2.492
57280W        W22507  36.182   0.435   2.185
57281W        W22508  32.999  35.660   0.286
57282W        W22509  28.963  13.578  14.333
57283W        W22510  24.262  20.316  10.700
57284W        W22511   6.755   8.164   3.150
57285W        W22512   8.610  23.247   2.447
57286W        W22513  13.734   7.892   3.741
57287W        W22514  16.187  11.213  13.692
57288W        W22515  15.596  10.587  11.966
57289W        W22516   4.474  12.135   0.191
57290W        W22517  19.820  27.600  13.425
57291W        W22518  42.083  38.286  11.983
57292W        W22519   2.549   6.769   0.298
57293W        W22520  10.116  31.177  12.376
57294W        W22521  12.333  19.121  14.505
57295W        W22522  16.780  42.045  11.137
57296W        W22523  18.258  27.423   0.753
57297W        W22524   0.407  26.835  14.154
57298W        W22525   1.441  19.489   3.335
57299W        W22526  16.722  15.537  14.828
57300W        W22527  23.491  27.622   0.349
57301W        W22528  36.604  37.662  13.494
57302W        W22529  34.358   6.325  11.145
57303W        W22530  22.164  38.496  12.981
57304W        W22531  10.961  16.332   2.570
57305W        W22532  18.705   5.564   4.919
57306W        W22533  10.232   0.835  13.736
57307W        W22534  40.950  31.164  12.320
57308W        W22535  17.445  25.169  13.423
57309W        W22536  31.568  10.216   3.985
57310W        W22537   9.952   6.894  11.235
57311W        W22538   9.046  36.542   3.378
57312W        W22539  30.243  25.355   3.573
57313W        W22540  31.941  20.723   1.748
57314W        W22541  41.232  18.247  11.057
57315W        W22542  44.946   7.036   2.196
57316W        W22543  34.104  10.405  12.096
57317W        W22544  39.753  15.885   0.422
57318W        W22545  25.670  10.157  12.986
57319W        W22546  35.057  18.767  13.507
57320W        W22547  36.951   8.831   3.029
57321W        W22548  32.868  25.395   1.197
57322W        W22549  12.376  31.339   4.561
57323W        W22550  11.353   9.345   0.573
57324W        W22551  13.982   5.014  14.319
57325W        W22552  15.464   5.723  13.473
57326W        W22553  17.752  18.075  13.284
57327W        W22554  11.197  34.191  11.975
57328W        W22555  11.902   4.916  14.301
57329W        W22556  44.070  34.211  13.069
57330W        W22557  38.782  44.008  14.445
57331W        W22558  18.798  25.952  10.604
57332W        W22559   9.336  17.176   4.716
57333W        W22560  41.275  19.532   9.884
57334W        W22561   4.254  10.787   3.663
57335W        W22562  30.198  12.255   1.900
57336W        W22563  10.673  42.399   3.783
57337W        W22564  25.221   0.843   2.919
57338W        W22565   3.956  30.333   2.618
57339W        W22566  22.807  36.811   3.633
57340W        W22567   8.251  19.892  11.237
57341W        W22568  43.023   4.691   2.636
57342W        W22569  34.672  17.174  13.693
57343W        W22570  37.909  22.965  10.684
57344W        W22571  18.790  18.056  13.542
57345W        W22572   9.389  42.496   2.730
57346W        W22573  43.560  32.454   1.316
57347W        W22574   7.394  38.317   2.652
57348W        W22575   7.836  35.787   4.661
57349W        W22576   3.483  24.929   0.688
57350W        W22577  22.217  18.589   4.557
57351W        W22578  24.563  23.451  12.482
57352W        W22579  21.407  41.568   0.733
57353W        W22580  15.620   2.664   1.594
57354W        W22581  16.809  35.057  12.543
57355W        W22582  42.513  25.638   4.453
57356W        W22583  44.077  33.407  14.652
57357W        W22584  10.788  20.932  12.576
57358W        W22585  38.900  16.371  13.281
57359W        W22586  42.082  28.974   2.600
57360W        W22587  13.403  38.912  10.415
57361W        W22588   5.403  14.591  10.362
57362W        W22589  22.811  15.886   3.056
57363W        W22590   8.971   3.159   3.558
57364W        W22591   8.628   0.990  11.217
57365W        W22592  21.237  28.170  10.694
57366W        W22593   2.259  37.966  14.918
57367W        W22594  26.906  44.331  11.542
57368W        W22595  42.065  15.777  13.153
57369W        W22596  28.366   3.264   2.327
57370W        W22597  35.562  35.370  14.747
57371W        W22598  12.194  22.498  12.889
57372W        W22599  32.467  27.960   5.361
57373W        W22600  35.351   4.451   0.386
57374W        W22601  32.397  41.482  10.574
57375W        W22602   6.003  14.797   5.022
57376W        W22603  28.100  36.461   4.032
57377W        W22604  32.439  40.035  10.212
57378W        W22605  22.645  23.129   2.405
57379W        W22606  12.698   4.844  13.913
57380W        W22607  33.613  39.926   1.581
57381W        W22608  30.798   5.085  13.294
57382W        W22609  16.266  42.882  14.073
57383W        W22610  25.088  10.353   3.981
57384W        W22611  20.977  17.577   3.295
57385W        W22612   5.923  21.612   4.773
57386W        W22613   1.286   3.391  13.441
57387W        W22614  42.434  26.713  13.380
57388W        W22615  39.824  39.734   4.680
57389W        W22616  28.701  31.171  12.884
57390W        W22617   5.159  36.352  14.176
57391W        W22618  29.822  40.052   3.850
57392W        W22619  13.374  41.638  10.953
57393W        W22620  12.463   7.029   0.570
57394W        W22621  33.776  24.137  12.740
57395W        W22622  16.366  36.615  10.835
57396W        W22623   6.366  34.422   0.034
57397W        W22624  33.440  12.853  10.385
57398W        W22625  42.324  21.316   3.246
57399W        W22626   1.328   1.903  10.741
57400W        W22627  30.885   4.226  12.052
57401W        W22628   8.775   4.714  11.812
57402W        W22629  28.008  25.226  11.168
57403W        W22630  31.040  22.579  11.089
57404W        W22631  10.534  14.536   0.305
57405W        W22632  27.714  10.086   0.320
57406W        W22633  32.084  41.731   2.608
57407W        W22634  41.779  21.568   0.817
57408W        W22635  20.096  41.588  12.502
57409W        W22636  32.887  22.428   2.327
57410W        W22637   3.406  31.565   4.126
57411W        W22638   2.941  34.556  12.873
57412W        W22639  14.166  19.262   2.915
57413W        W22640  10.730   0.361  10.602
57414W        W22641  35.564  14.648  13.803
57415W        W22642  37.982  19.706   2.373
57416W        W22643  28.292  35.321  13.546
57417W        W22644   1.102   4.846   4.654
57418W        W22645  38.519  13.892  12.485
57419W        W22646   1.480   9.789   3.099
57420W        W22647  11.329  33.460  14.285
57421W        W22648   7.338   0.735  13.260
57422W        W22649  23.369  21.602  13.021
57423W        W22650   1.010  24.207   3.668
57424W        W22651  32.863  12.894  13.967
57425W        W22652  42.537   5.736   1.839
57426W        W22653  37.368  30.880  14.472
57427W        W22654  33.347  35.974   3.126
57428W        W22655   7.781  14.342  14.741
57429W        W22656  21.731  42.579   0.899
57430W        W22657  18.469  18.131   2.743
57431W        W22658   7.532   0.077   4.200
57432W        W22659  22.702   9.042  14.282
57433W        W22660   5.614  40.846  12.442
57434W        W22661  22.082  40.279   4.128
57435W        W22662  20.050  22.570   3.291
57436W        W22663  44.897  30.914  14.112
57437W        W22664  26.936  41.851   0.313
57438W        W22665  22.262  20.680   0.914
57439W        W22666   9.562  21.207   4.106
57440W        W22667  30.990  10.133  12.795
57441W        W22668   8.699  35.813   4.564
57442W        W22669   2.510   4.309  13.790
57443W        W22670   8.580   9.894  14.547
57444W        W22671   7.857  42.984  12.340
57445W        W22672  27.238   0.889   2.727
57446W        W22673   7.170  43.952   0.854
57447W        W22674  26.642  37.564  14.990
57448W        W22675  33.145  34.937   4.144
57449W        W22676  19.607   3.430  11.438
57450W        W22677   2.876   8.564   5.005
57451W        W22678  34.830  34.051  12.964
57452W        W22679  33.266  10.000   4.220
57453W        W22680  34.028  31.415   0.340
57454W        W22681  18.802  30.596   3.115
57455W        W22682  28.658  38.676   0.616
57456W        W22683  26.713   3.396   2.817
57457W        W22684  22.760   4.942   3.623
57458W        W22685  19.027  30.708   2.360
57459W        W22686  20.047   4.917  14.031
57460W        W22687  42.868  10.345   2.324
57461W        W22688  24.642  10.139   0.933
57462W        W22689  10.589  42.000  13.478
57463W        W22690   8.376   5.013  10.708
57464W        W22691  20.735  10.873   1.366
57465W        W22692   1.523  27.451  11.556
57466W        W22693  17.232  17.662  13.930
57467W        W22694   0.963  29.136  11.842
57468W        W22695  16.689  36.408   3.666
57469W        W22696  15.656  36.571   5.098
57470W        W22697  22.975  44.307  10.324
57471W        W22698  13.926  39.219  11.228
57472W        W22699  14.636   4.695   3.326
57473W        W22700  31.064  41.985   3.673
57474W        W22701   9.381  10.328  14.385
57475W        W22702  43.180  13.806   0.032
57476W        W22703  41.274  44.553   3.866
57477W        W22704   6.257   8.632   0.293
57478W        W22705  35.287  34.062  13.879
57479W        W22706   0.963   9.261   3.590
57480W        W22707  38.106   1.386   4.245
57481W        W22708   0.833  18.687   5.370
57482W        W22709  33.487  32.521   4.650
57483W        W22710   7.005  32.122  12.978
57484W        W22711  28.437  39.403   3.588
57485W        W22712  24.555  31.574   3.114
57486W        W22713  31.132  35.131   1.285
57487W        W22714  17.194   2.181  12.913
57488W        W22715  29.063   0.860  10.988
57489W        W22716  38.009  17.024  12.497
57490W        W22717   9.110  21.100   2.742
57491W        W22718  40.628  11.780  12.052
57492W        W22719  29.060  39.927   4.696
57493W        W22720  37.520  26.550   3.663
57494W        W22721  15.073  23.060  13.018
57495W        W22722  38.884   2.278  10.993
57496W        W22723  12.182  32.648  13.399
57497W        W22724  21.716   4.803  12.627
57498W        W22725   9.516  29.067  11.867
57499W        W22726   3.099  13.219  12.923
57500W        W22727  26.224  42.100  14.000
57501W        W22728   7.197  31.904  12.542
57502W        W22729  10.540  39.816  14.857
57503W        W22730  38.479  33.360   0.440
57504W        W22731  23.228  21.168  14.470
57505W        W22732  20.610  26.254  10.676
57506W        W22733  24.113  18.196  13.048
57507W        W22734   3.820  43.112  14.004
57508W        W22735  18.126  15.116   0.759
57509W        W22736  40.810  35.549   2.311
57510W        W22737  26.051  11.696   1.637
57511W        W22738  32.479  36.128  12.552
57512W        W22739  35.951  31.645  12.977
57513W        W22740   8.197  40.309   0.788
57514W        W22741  43.101   0.206   3.232
57515W        W22742   9.251  26.008   4.940
57516W        W22743  41.506   1.875   3.768
57517W        W22744  25.528  20.567  13.164
57518W        W22745   6.790  12.613  12.079
57519W        W22746   0.834  19.233   1.512
57520W        W22747  35.371  36.400   2.201
57521W        W22748  37.922  11.351   1.924
57522W        W22749  43.292  36.018   4.991
57523W        W22750  36.371  36.826  11.082
57524W        W22751   9.482   7.611   0.742
57525W        W22752  37.409  33.942  13.999
57526W        W22753  15.739  43.575   0.988
57527W        W22754  28.026  24.649   0.475
57528W        W22755  22.924  12.197  10.633
57529W        W22756  34.634  26.236   3.035
57530W        W22757  12.268  21.720   0.193
57531W        W22758  44.226  36.590  11.972
57532W        W22759  24.657  10.102  10.798
57533W        W22760  29.860   8.892  12.913
57534W        W22761  25.976   0.966   3.664
57535W        W22762  30.412  16.713   1.780
57536W        W22763  41.903   1.987  14.426
57537W        W22764  17.262  33.922  14.236
57538W        W22765   9.943   0.864   1.365
57539W        W22766  41.253  43.919   2.907
57540W        W22767  40.791  43.845  11.576
57541W        W22768  24.257  18.183   4.298
57542W        W22769  19.768  20.377   3.662
57543W        W22770   0.215   7.075   3.510
57544W        W22771  15.194  38.769  11.594
57545W        W22772  12.419  43.792  11.997
57546W        W22773   1.169   6.624   3.804
57547W        W22774  22.668  11.741   3.097
57548W        W22775  43.490  42.457  14.041
57549W        W22776   3.511  40.827   4.160
57550W        W22777  31.054  32.633  14.774
57551W        W22778  19.926  19.081  10.802
57552W        W22779   5.751   6.945  11.973
57553W        W22780  42.817  12.662  11.751
57554W        W22781   6.925   7.034  11.165
57555W        W22782  37.881  37.868  13.973
57556W        W22783  19.490  16.267  12.796
57557W        W22784  36.136   3.333  12.195
57558W        W22785  14.316  37.444   2.630
57559W        W22786   4.467  14.222  10.207
57560W        W22787  19.891  18.200   1.226
57561W        W22788  26.995  33.148   4.518
57562W        W22789  44.346   6.738   0.663
57563W        W22790  43.761  13.809   3.837
57564W        W22791  44.857  22.922  10.265
57565W        W22792  34.952  10.717  14.400
57566W        W22793  15.034  22.503   1.587
57567W        W22794   8.127  18.084  14.479
57568W        W22795  20.628  35.938  11.729
57569W        W22796  10.443  15.764   2.705
57570W        W22797  14.630   5.468  11.590
57571W        W22798  34.147   3.977   2.616
57572W        W22799  26.569  41.961   0.886
57573W        W22800  25.443   5.802  13.310
57574W        W22801  14.338  27.774   3.244
57575W        W22802  29.305  13.619  11.529
57576W        W22803  41.270  42.260   2.221
57577W        W22804  18.408  15.493   2.008
57578W        W22805  24.977  27.702   1.695
57579W        W22806  35.288  24.291  13.364
57580W        W22807   9.756   3.406  13.823
57581W        W22808  37.815  40.814   1.868
57582W        W22809   4.680  25.703  12.950
57583W        W22810  19.625   6.385   4.101
57584W        W22811  16.630  33.439   4.344
57585W        W22812  37.637  24.106  12.930
57586W        W22813  41.500  44.641   0.521
57587W        W22814  33.361  39.592   3.236
57588W        W22815  41.319  30.397   2.671
57589W        W22816   1.994  18.297  13.071
57590W        W22817  19.542  42.354   3.607
57591W        W22818  12.594  18.065   1.715
57592W        W22819   5.889  25.363  13.719
57593W        W22820  15.313  38.498  12.030
57594W        W22821  31.442  23.605   3.621
57595W        W22822   9.311  34.620   4.480
57596W        W22823  20.871  26.546  12.361
57597W        W22824   4.207  17.418   4.622
57598W        W22825  36.734  40.400   1.368
57599W        W22826  40.246  37.967   2.252
57600W        W22827  34.160  22.527  11.595
57601W        W22828  42.551   7.864  14.904
57602W        W22829   8.846  34.433   1.790
57603W        W22830  26.004  26.514   4.233
57604W        W22831  18.987  40.388  13.441
57605W        W22832  33.464  13.836  13.589
57606W        W22833   1.175  23.592  14.854
57607W        W22834  14.862  17.741  12.052
57608W        W22835  13.787  36.097  11.096
57609W        W22836   7.492  30.672  10.832
57610W        W22837  31.970   9.860   0.424
57611W        W22838  28.021   5.728  11.200
57612W        W22839  10.883  11.772   3.788
57613W        W22840  32.359   1.716   2.778
57614W        W22841  32.916  16.390  13.362
57615W        W22842  13.092   9.338  12.048
57616W        W22843  16.098   8.715  14.419
57617W        W22844  35.880   2.317   4.656
57618W        W22845   8.466  11.072  10.542
57619W        W22846  42.364   2.885  14.171
57620W        W22847  26.470  26.540   4.022
57621W        W22848  44.736   1.389   3.165
57622W        W22849  36.842  31.147  11.264
57623W        W22850  30.795  42.225   2.886
57624W        W22851   7.409  18.722   3.734
57625W        W22852  13.052  18.229   1.878
57626W        W22853  30.208  24.022   4.840
57627W        W22854   3.722   3.851  11.659
57628W        W22855  29.450  41.441  14.518
57629W        W22856  16.508  36.961  11.636
57630W        W22857  20.852  39.906  12.589
57631W        W22858  10.800  39.901  13.398
57632W        W22859   4.262  17.196  14.849
57633W        W22860  17.410   1.457   3.813
57634W        W22861  16.134  20.070   4.101
57635W        W22862   8.852  34.384  12.837
57636W        W22863  27.458  34.593   1.258
57637W        W22864  21.253  14.155  12.095
57638W        W22865  43.269   7.048  11.033
57639W        W22866   1.181   8.505  12.386
57640W        W22867  42.356  35.454   1.434
57641W        W22868   5.906  43.835   4.311
57642W        W22869  42.739  30.614   3.837
57643W        W22870  11.790   1.475  13.114
57644W        W22871  32.130  36.689  12.905
57645W        W22872   2.382  32.406  14.053
57646W        W22873  25.520  20.984  12.858
57647W        W22874  24.822  42.526   3.971
57648W        W22875  15.810   0.702  10.757
57649W        W22876  14.756  41.204   4.858
57650W        W22877  24.405  18.591   0.271
57651W        W22878   3.414  42.753  13.864
57652W        W22879   4.838  36.442   5.005
57653W        W22880  32.787  33.305  11.447
57654W        W22881  20.828  42.664  14.742
57655W        W22882  43.014  34.532  11.150
57656W        W22883   7.904  12.471   1.307
57657W        W22884  36.143  20.232  14.506
57658W        W22885  20.683   0.122   0.215
57659W        W22886  39.650   2.359  10.600
57660W        W22887   0.855  26.501  11.973
57661W        W22888   4.875  20.117  11.960
57662W        W22889   0.236  16.258  13.396
57663W        W22890   0.303  32.463   0.903
57664W        W22891  24.071   6.361  11.192
57665W        W22892   6.983  28.047   2.115
57666W        W22893  33.997  21.339  10.066
57667W        W22894   2.426  41.934   3.575
57668W        W22895   3.876   0.644   4.552
57669W        W22896  32.972   7.318  11.623
57670W        W22897  15.328   1.450   2.328
57671W        W22898  10.200   6.731  13.047
57672W        W22899  26.418  42.412   2.283
57673W        W22900  30.374   9.297  10.752
57674W        W22901  23.304  23.040  11.267
57675W        W22902   6.728  30.998  12.519
57676W        W22903  43.840   7.243   4.084
57677W        W22904   2.173   5.817  12.647
57678W        W22905  19.068  33.516  14.370
57679W        W22906   0.262  24.514   4.660
57680W        W22907  34.165   4.478  10.637
57681W        W22908  32.994   0.879  11.591
57682W        W22909  34.160  43.747   0.033
57683W        W22910  34.928  13.238   3.612
57684W        W22911  30.617  34.952  12.138
57685W        W22912  38.071   9.558   3.562
57686W        W22913   1.386  39.347  14.006
57687W        W22914  42.367  18.221  13.528
57688W        W22915  25.052  39.055   0.706
57689W        W22916  29.106  18.475  10.341
57690W        W22917  26.984  29.121   2.078
57691W        W22918  36.840   3.057   2.822
57692W        W22919  31.370  34.428   2.807
57693W        W22920  18.586  28.577  13.938
57694W        W22921   1.756  31.501   1.290
57695W        W22922  24.581  42.162   1.801
57696W        W22923  20.226  37.032   2.234
57697W        W22924  11.831  12.228   1.855
57698W        W22925  44.241   5.622   3.813
57699W        W22926   8.698  32.946   9.826
57700W        W22927  43.366  33.993  13.520
57701W        W22928  16.571   8.258  13.847
57702W        W22929   3.885  25.706  10.674
57703W        W22930  23.733  34.951   4.197
57704W        W22931  38.345  37.569   3.227
57705W        W22932  14.556  18.346   3.313
57706W        W22933   5.190  42.732   1.291
57707W        W22934  19.732  36.556   2.990
57708W        W22935   6.264  37.782   3.638
57709W        W22936  21.448  16.965   0.700
57710W        W22937  44.137   3.600  14.875
57711W        W22938  15.121  38.434   4.358
57712W        W22939  29.595  19.737  12.368
57713W        W22940  40.818  21.539   2.736
57714W        W22941  31.764  23.308  12.410
57715W        W22942  36.522  24.535  12.575
57716W        W22943  28.388   7.614   1.704
57717W        W22944   9.753   3.191  12.513
57718W        W22945  41.288  18.335   4.269
57719W        W22946  26.367  43.257   4.533
57720W        W22947   9.084   3.235  11.183
57721W        W22948  39.542  14.259   4.604
57722W        W22949  33.661  24.248   3.647
57723W        W22950  42.743  13.570  13.015
57724W        W22951  41.305  30.326   4.234
57725W        W22952  16.081  24.100   2.828
57726W        W22953  31.519  13.885  14.921
57727W        W22954  43.555   0.812   2.191
57728W        W22955   1.389  18.547  12.063
57729W        W22956  44.474   3.755  11.997
57730W        W22957  21.340  15.545   4.974
57731W        W22958   0.778  18.407  14.798
57732W        W22959  23.972  35.925   4.156
57733W        W22960  21.067  10.635  11.117
57734W        W22961   0.218  28.914   1.761
57735W        W22962  27.563  40.116   2.154
57736W        W22963  12.011   2.032  10.880
57737W        W22964   2.215  38.003   2.745
57738W        W22965  16.791  32.047   1.362
57739W        W22966  22.195  41.273  10.658
57740W        W22967  20.893  39.436  13.492
57741W        W22968  18.524  26.925   4.099
57742W        W22969  34.910  29.108   1.445
57743W        W22970  21.017   5.866  11.763
57744W        W22971   6.387  19.043   4.921
57745W        W22972  42.711  30.847  14.738
57746W        W22973  34.076  37.065   3.510
57747W        W22974  13.095  40.008   4.866
57748W        W22975  16.644   4.387   3.516
57749W        W22976  34.770  35.008   0.928
57750W        W22977  32.233  33.752  11.546
57751W        W22978   9.866  13.157  10.898
57752W        W22979  25.459  18.082  11.559
57753W        W22980  41.487  12.726  14.873
57754W        W22981  25.736  30.114   3.405
57755W        W22982  19.888  38.303  11.864
57756W        W22983  21.509  18.790  14.463
57757W        W22984   7.443   1.364  11.030
57758W        W22985   8.390  25.630   1.294
57759W        W22986   3.221  34.473   4.817
57760W        W22987  15.392   8.740  11.996
57761W        W22988  35.241  36.803  14.590
57762W        W22989  30.003  31.148   3.900
57763W        W22990  23.664  40.439  13.466
57764W        W22991  39.223  11.395  11.988
57765W        W22992  37.138   9.432   4.990
57766W        W22993  44.055  27.136  14.027
57767W        W22994  18.682   9.814  13.826
57768W        W22995  31.456  29.706   4.312
57769W        W22996  33.946   6.365  12.590
57770W        W22997  38.813  27.159   4.718
57771W        W22998  35.524  34.667  11.939
57772W        W22999   8.620  23.543  13.909
57773W        W23000  12.851  10.962  13.936
57774W        W23001  35.009   0.141  14.303
57775W        W23002  22.056   0.084   3.269
57776W        W23003  32.678   3.938   4.778
57777W        W23004   0.851  11.626   4.650
57778W        W23005  26.603  17.947  10.831
57779W        W23006  39.097  29.442  11.860
57780W        W23007  18.722   7.005   0.793
57781W        W23008   2.197   3.367  11.482
57782W        W23009   5.897  33.639  14.043
57783W        W23010  37.054  39.480   0.218
57784W        W23011  29.098  23.555  13.818
57785W        W23012  13.792  11.656   1.313
57786W        W23013  30.429   1.399  13.335
57787W        W23014  19.808  23.630   2.182
57788W        W23015  21.126  35.834   1.397
57789W        W23016  35.824   0.366  12.580
57790W        W23017  15.306  11.154  13.391
57791W        W23018  25.170  29.199  14.707
57792W        W23019  37.087   5.378  13.915
57793W        W23020  36.390  14.854   0.990
57794W        W23021  43.960  13.232   1.400
57795W        W23022  39.955  42.984   0.833
57796W        W23023  41.254  39.101  12.807
57797W        W23024  23.792  11.888  12.897
57798W        W23025  19.247  29.701   1.478
57799W        W23026  41.485  32.660   4.659
57800W        W23027  32.940  40.472  14.884
57801W        W23028  21.029  38.853   0.440
57802W        W23029  28.482  29.476  10.615
57803W        W23030  24.044  34.611   1.437
57804W        W23031  42.705  25.359  10.720
57805W        W23032   5.902   1.431   2.351
57806W        W23033  10.557  42.380  13.893
57807W        W23034  13.791  20.682   3.374
57808W        W23035  26.241  30.554  12.113
57809W        W23036  13.755   6.479   3.258
57810W        W23037  37.890  30.674   2.150
57811W        W23038  18.810  10.653   0.314
57812W        W23039   8.962  37.819   1.842
57813W        W23040  21.797  23.113  14.120
57814W        W23041  17.650  39.349   0.680
57815W        W23042   4.256  36.331  14.493
57816W        W23043   2.410  35.271   1.304
57817W        W23044  35.403   7.649   4.192
57818W        W23045  38.369   1.259   3.023
57819W        W23046   7.854   2.383   1.429
57820W        W23047  10.846  32.699  13.737
57821W        W23048  13.844  32.877   1.660
57822W        W23049  34.893  24.914   3.688
57823W        W23050  31.978  43.056  12.096
57824W        W23051  24.294  34.643  14.883
57825W        W23052  30.406  17.579   3.200
57826W        W23053  44.496  31.616   2.889
57827W        W23054   4.767   2.373  14.615
57828W        W23055  30.238  42.393  12.970
57829W        W23056   2.907   3.521   4.233
57830W        W23057  17.465  37.534   1.902
57831W        W23058   9.595  11.132   4.172
57832W        W23059  14.589  35.927  14.002
57833W        W23060  12.379  16.651   5.204
57834W        W23061  26.372  37.772   3.299
57835W        W23062  12.738  29.534  13.603
57836W        W23063  44.324  16.676  10.615
57837W        W23064  27.791  44.053  14.928
57838W        W23065  30.513  24.110   0.440
57839W        W23066  11.904   5.623   1.808
57840W        W23067  27.154  37.969   1.229
57841W        W23068  37.147  33.658   2.184
57842W        W23069  22.004   8.745  12.246
57843W        W23070  25.662  35.838   0.910
57844W        W23071   7.341  39.353   2.118
57845W        W23072  26.243  18.453  11.452
57846W        W23073  16.240  18.641  13.027
57847W        W23074  24.104   6.341  14.922
57848W        W23075  41.451  34.597   0.819
57849W        W23076  28.048  18.490   0.329
57850W        W23077   4.970  16.395  13.557
57851W        W23078  32.053   2.682   4.598
57852W        W23079  21.808  17.315   3.369
57853W        W23080  31.194  12.338   0.920
57854W        W23081  15.929  31.129  14.302
57855W        W23082  37.107  11.816   2.846
57856W        W23083  20.270  43.725   0.202
57857W        W23084   7.291  13.811  10.290
57858W        W23085  14.196   2.480   0.957
57859W        W23086  14.267  35.982  14.848
57860W        W23087  43.545  39.787  13.884
57861W        W23088  12.108  30.103   4.713
57862W        W23089  29.617  29.657   3.434
57863W        W23090   0.708  36.916   0.700
57864W        W23091  17.033  44.593  13.105
57865W        W23092  30.167  17.715   0.503
57866W        W23093  30.560  17.259   3.587
57867W        W23094   8.174  26.413   3.172
57868W        W23095  10.891  24.746   1.412
57869W        W23096  28.523  23.273  14.177
57870W        W23097  10.237  12.880   3.036
57871W        W23098  16.705  21.534   4.614
57872W        W23099   0.822   6.329   0.269
57873W        W23100  20.306  37.395   1.444
57874W        W23101  42.471   3.884  12.175
57875W        W23102   9.648  35.474   4.771
57876W        W23103  16.275  17.719  11.608
57877W        W23104  11.249  13.073   1.777
57878W        W23105   8.289  39.385   2.293
57879W        W23106  28.369   5.668  13.435
57880W        W23107  36.499   4.752  12.840
57881W        W23108   3.313   5.986  11.182
57882W        W23109  12.326  15.898   1.420
57883W        W23110  19.687  36.392  12.289
57884W        W23111  15.598   8.482   1.614
57885W        W23112  18.743  41.032  12.945
57886W        W23113  27.608  40.941   2.839
57887W        W23114   7.754  27.815   3.898
57888W        W23115   1.714  32.591   0.531
57889W        W23116  32.458  41.440   3.874
57890W        W23117  35.796  15.522   2.373
57891W        W23118   8.675   3.706  14.992
57892W        W23119  18.160  44.531  11.662
57893W        W23120  20.682   8.391  13.301
57894W        W23121  16.385  29.947   2.800
57895W        W23122  13.638  19.646   4.762
57896W        W23123  16.140  25.838   2.929
57897W        W23124  43.275  39.874   1.090
57898W        W23125  31.649   5.631   3.270
57899W        W23126  15.960  40.021   3.918
57900W        W23127  37.372  11.507   3.199
57901W        W23128  32.502  31.263   2.435
57902W        W23129  35.088  30.559   1.217
57903W        W23130  40.019  28.602  12.935
57904W        W23131   9.876  17.114   0.418
57905W        W23132  12.079  22.559  11.923
57906W        W23133  31.430  19.697   0.435
57907W        W23134  31.794  15.447  13.026
57908W        W23135   6.619  14.289   2.797
57909W        W23136  26.704   0.404   4.448
57910W        W23137  14.503   8.625  10.311
57911W        W23138  27.553  10.894   4.158
57912W        W23139  14.866  28.915  12.082
57913W        W23140  21.557  12.982   0.586
57914W        W23141   1.091  16.330   2.083
57915W        W23142  43.009  42.843   2.287
57916W        W23143  14.441  37.583  11.614
57917W        W23144  35.229  16.021  11.227
57918W        W23145  43.881  20.813  11.098
57919W        W23146  12.649  32.896   2.377
57920W        W23147  23.216  31.927   1.839
57921W        W23148  12.333   5.483   2.766
57922W        W23149   6.343  28.127   1.362
57923W        W23150  41.454  12.354  10.989
57924W        W23151  24.209  21.155  14.473
57925W        W23152  33.107  20.964   1.300
57926W        W23153  21.653  11.145   1.308
57927W        W23154   1.969  38.680  11.509
57928W        W23155  38.292   7.887  14.433
57929W        W23156  24.729   9.297   4.745
57930W        W23157   4.287  36.353   2.233
57931W        W23158  28.521   9.431  12.385
57932W        W23159   5.292  36.566  11.884
57933W        W23160  44.225  31.379   0.588
57934W        W23161   7.343  43.469  10.706
57935W        W23162  28.474  10.103   4.416
57936W        W23163   9.648  39.370  12.864
57937W        W23164  14.292  32.142   4.595
57938W        W23165  11.891  28.218   4.455
57939W        W23166  23.932  26.705  11.616
57940W        W23167  21.746  41.358  10.903
57941W        W23168  14.038  15.808  12.485
57942W        W23169  32.046  30.723   0.372
57943W        W23170  40.160  32.496  10.561
57944W        W23171  38.760  43.970  13.569
57945W        W23172   8.367  19.322   0.779
57946W        W23173  19.508   6.276   3.264
57947W        W23174  37.823  22.708   1.326
57948W        W23175  12.296   7.438   2.843
57949W        W23176  43.318  21.999   2.181
57950W        W23177  24.403  33.307  11.966
57951W        W23178  31.106  17.648   4.754
57952W        W23179  29.366  23.580   4.622
57953W        W23180   0.559  18.602   4.425
57954W        W23181  21.439  16.224  12.850
57955W        W23182  10.431   6.360  13.464
57956W        W23183  23.304   7.860  11.150
57957W        W23184  41.972  35.823  10.688
57958W        W23185  12.643   8.832  12.606
57959W        W23186   6.424  28.493  14.941
57960W        W23187   0.123  16.244   1.813
57961W        W23188  24.223  10.718  13.373
57962W        W23189   9.792  43.993  12.106
57963W        W23190  11.563   6.194   1.799
57964W        W23191  31.409  44.251  12.661
57965W        W23192  24.303  24.048   4.231
57966W        W23193  41.285  14.603  13.485
57967W        W23194  29.903   0.536   1.736
57968W        W23195  23.914   8.332  14.007
57969W        W23196   9.740   5.234   4.803
57970W        W23197  36.192   2.190  12.742
57971W        W23198   0.139  25.423   1.453
57972W        W23199  27.922  40.687   4.736
57973W        W23200   1.878   2.465  13.866
57974W        W23201   0.990  34.080   2.407
57975W        W23202   4.578  19.874   4.009
57976W        W23203  14.242   2.590   3.147
57977W        W23204  33.268  30.138  10.573
57978W        W23205  11.676   7.941  10.610
57979W        W23206  28.566  32.658   4.317
57980W        W23207  28.469  23.964   1.041
57981W        W23208  27.490  41.715  14.514
57982W        W23209  43.909  23.191  11.281
57983W        W23210  34.106  38.125   1.263
57984W        W23211  34.167   8.859   4.558
57985W        W23212   6.291  22.662  10.367
57986W        W23213  25.929  37.805  11.633
57987W        W23214  19.016  19.046  11.287
57988W        W23215  11.323  25.939  11.230
57989W        W23216   6.569  34.559  13.117
57990W        W23217   6.236   6.903   3.990
57991W        W23218   5.373  32.054   3.717
57992W        W23219   4.111  25.124   1.231
57993W        W23220  35.955  38.594   1.701
57994W        W23221  37.130  11.877  10.697
57995W        W23222  20.219  20.521   0.999
57996W        W23223  39.851  21.785   0.921
57997W        W23224  16.067  40.138  13.745
57998W        W23225  23.692   7.157   1.396
57999W        W23226  13.121  35.593   0.134
58000W        W23227   5.260  15.583  13.298
58001W        W23228  36.839  10.216   4.522
58002W        W23229  13.585  38.285  13.420
58003W        W23230  23.744   2.976  11.830
58004W        W23231  29.490  17.982  13.439
58005W        W23232  30.062  38.772  13.921
58006W        W23233  43.086   2.581   4.251
58007W        W23234  23.853  33.320   0.743
58008W        W23235  21.123  37.913  12.121
58009W        W23236  28.737  39.977   2.794
58010W        W23237  42.907   8.650   2.736
58011W        W23238  17.283   5.699  11.630
58012W        W23239  11.648  35.623  14.402
58013W        W23240  29.702  12.825   1.908
58014W        W23241  10.261  11.691  10.703
58015W        W23242  14.918   9.887  14.419
58016W        W23243  43.449  32.818  14.470
58017W        W23244   6.848  43.305  10.419
58018W        W23245  17.626  40.486   4.285
58019W        W23246   2.010  28.548   0.366
58020W        W23247   6.241  40.525  13.337
58021W        W23248  27.906  14.262   2.317
58022W        W23249   8.869  35.405   0.872
58023W        W23250   9.173  38.020  13.561
58024W        W23251   1.672  41.333   1.282
58025W        W23252  44.599  38.489   4.788
58026W        W23253  18.975  26.062  12.856
58027W        W23254  32.532  26.868   1.375
58028W        W23255  22.097  33.109  13.624
58029W        W23256  31.677  19.522   3.681
58030W        W23257  29.111  37.141  11.627
58031W        W23258  28.656   9.318   1.352
58032W        W23259  34.958  36.411  10.516
58033W        W23260   6.364  44.369  11.158
58034W        W23261  24.046  33.981  13.407
58035W        W23262  31.576  24.213   2.416
58036W        W23263  28.102  32.559   0.709
58037W        W23264   0.875  34.630   1.757
58038W        W23265  12.598   9.079   1.385
58039W        W23266  43.725  43.553  14.356
58040W        W23267   3.914  34.278  11.777
58041W        W23268  17.829   6.019   2.667
58042W        W23269  42.929   2.789   1.911
58043W        W23270  41.791  13.202   1.409
58044W        W23271  33.387  38.350   3.688
58045W        W23272  17.634   7.411   0.307
58046W        W23273   4.034  40.973   0.920
58047W        W23274   6.799  18.684  14.482
58048W        W23275  20.615  35.659  14.035
58049W        W23276  33.474  21.820  13.724
58050W        W23277  34.175  18.812   4.510
58051W        W23278   9.961   4.776   3.058
58052W        W23279  39.732   9.150   2.643
58053W        W23280  27.436   3.812  13.005
58054W        W23281  28.320   8.910   1.968
58055W        W23282  19.027   1.466  12.744
58056W        W23283  17.961  35.523  11.764
58057W        W23284  42.996  16.141  14.877
58058W        W23285   2.664  37.843  11.219
58059W        W23286   7.747  21.714  14.437
58060W        W23287  17.238  28.248   4.257
58061W        W23288  11.436  23.832  11.178
58062W        W23289  41.537  29.612   0.854
58063W        W23290  26.188  30.654   1.728
58064W        W23291   5.340  15.358  10.736
58065W        W23292  28.913  21.242  12.205
58066W        W23293  11.635  10.440  11.618
58067W        W23294  44.368  21.234   0.499
58068W        W23295  26.402   1.441   4.971
58069W        W23296   6.234   5.015   4.017
58070W        W23297  38.834  11.877   3.267
58071W        W23298  30.582  33.962   2.812
58072W        W23299   2.473  12.437  10.132
58073W        W23300  33.642   9.675  14.579
58074W        W23301   1.860  15.877   3.107
58075W        W23302  23.756   3.562  14.996
58076W        W23303  22.755  40.979   3.829
58077W        W23304  40.016   9.432  12.898
58078W        W23305  35.557  34.435   1.424
58079W        W23306   9.294  42.765   3.191
58080W        W23307  15.618  38.744  14.623
58081W        W23308  15.564   3.901   4.664
58082W        W23309  30.627   5.886   0.272
58083W        W23310  19.683  35.551   3.090
58084W        W23311   4.697  44.034   1.221
58085W        W23312  36.532   5.631   3.690
58086W        W23313  38.552  21.230   2.669
58087W        W23314   4.995   2.605  13.086
58088W        W23315   4.868  16.463  10.299
58089W        W23316   5.979   4.298   0.798
58090W        W23317  10.609  34.178   4.385
58091W        W23318  30.915  41.515   4.570
58092W        W23319  30.249  30.411  10.169
58093W        W23320  31.086  29.662  14.400
58094W        W23321   1.379  41.939   0.487
58095W        W23322   3.735   2.487  14.356
58096W        W23323  30.790  15.723  12.137
58097W        W23324  15.616  35.357  14.382
58098W        W23325  20.361  18.710  11.063
58099W        W23326   5.359  28.478  14.943
58100W        W23327  33.755  14.669  14.314
58101W        W23328  33.078   6.441   3.866
58102W        W23329  23.910  32.263   0.502
58103W        W23330  19.342  43.896   2.711
58104W        W23331  13.534  17.189   4.581
58105W        W23332  11.147  41.146   3.823
58106W        W23333  42.700  33.541   1.681
58107W        W23334  26.035   4.343  12.096
58108W        W23335  43.553  14.218   0.046
58109W        W23336  39.372  10.675  10.641
58110W        W23337  19.929  26.042   1.516
58111W        W23338  38.671  35.427   3.637
58112W        W23339  13.585  44.967   0.300
58113W        W23340  41.958   3.659  10.788
58114W        W23341   8.826   8.952   0.399
58115W        W23342  21.164  20.453  13.524
58116W        W23343   4.417  44.571   2.118
58117W        W23344  24.537  42.885   1.294
58118W        W23345  32.447  31.872   1.323
58119W        W23346  19.499   0.163  12.107
58120W        W23347  31.062  25.300  11.670
58121W        W23348  30.101  24.229  13.044
58122W        W23349  35.238  22.618   2.758
58123W        W23350  25.789  32.033  13.559
58124W        W23351   3.979   9.222   3.582
58125W        W23352  38.243  10.232   0.606
58126W        W23353  19.771  34.328   2.619
58127W        W23354   8.964  38.375   4.943
58128W        W23355  18.065   4.459   2.663
58129W        W23356  14.267  19.669  11.658
58130W        W23357  41.749  27.325  13.279
58131W        W23358  36.597  15.575  11.630
58132W        W23359  18.619  42.590   4.057
58133W        W23360  24.596  15.597   0.473
58134W        W23361  11.680  23.778   0.183
58135W        W23362  23.154  29.811   4.170
58136W        W23363  20.549  42.721   2.225
58137W        W23364  20.851   8.220  11.155
58138W        W23365  24.100  27.891   1.936
58139W        W23366  27.407   1.877   3.256
58140W        W23367   0.297  20.837   0.776
58141W        W23368  14.626  37.011   3.232
58142W        W23369  38.972  29.907   3.742
58143W        W23370  14.866  41.019   1.953
58144W        W23371  15.805  16.235  14.902
58145W        W23372  12.332   8.954   2.232
58146W        W23373  23.487  22.344  13.215
58147W        W23374  40.326  38.515  11.299
58148W        W23375  10.229  18.017   2.022
58149W        W23376  14.257  29.899  14.514
58150W        W23377  31.540  18.542  14.871
58151W        W23378   6.733  29.127   1.784
58152W        W23379  22.750  38.898   0.208
58153W        W23380  27.770  32.267   4.272
58154W        W23381  27.408   9.454  13.608
58155W        W23382  16.688  15.700  11.528
58156W        W23383   6.859  19.277   4.655
58157W        W23384  25.050   5.531  12.246
58158W        W23385  30.914  23.095   1.113
58159W        W23386  35.412  11.986   0.373
58160W        W23387   2.064  23.437   4.726
58161W        W23388   2.513   3.373  12.773
58162W        W23389   4.421  31.892   1.267
58163W        W23390  37.795  11.401   2.896
58164W        W23391  25.256  37.433   0.273
58165W        W23392  17.175  16.231  13.919
58166W        W23393   9.721  38.198  13.091
58167W        W23394  39.230  43.266   3.773
58168W        W23395  22.716   4.077   3.229
58169W        W23396  38.131  15.317   2.337
58170W        W23397  33.500  10.217   0.439
58171W        W23398  43.426  29.672  11.899
58172W        W23399  35.512  20.312  12.403
58173W        W23400  18.930  44.341  11.358
58174W        W23401  42.375   6.233  11.519
58175W        W23402   8.814   6.880   0.701
58176W        W23403  29.631  42.849   3.678
58177W        W23404  17.115   0.058   4.041
58178W        W23405  32.948  11.805   1.357
58179W        W23406  29.511   1.477   0.031
58180W        W23407  37.413  32.853  12.576
58181W        W23408  20.998  16.157  14.336
58182W        W23409  32.149  27.518  14.840
58183W        W23410  42.909  13.831   4.802
58184W        W23411  25.006  14.843  13.515
58185W        W23412   8.471  13.258   4.557
58186W        W23413  36.903  34.120   0.007
58187W        W23414  40.034  15.830  12.952
58188W        W23415  20.296  18.351  14.807
58189W        W23416  26.110  24.687  14.487
58190W        W23417  17.546  24.789   3.685
58191W        W23418  37.357  37.762  14.539
58192W        W23419   3.963  26.765  11.682
58193W        W23420   6.727  35.433  12.470
58194W        W23421  42.932  16.155  13.288
58195W        W23422   1.097  32.495  11.596
58196W        W23423  39.970  15.868   4.189
58197W        W23424  15.390  41.890   2.707
58198W        W23425  22.111   2.459  10.739
58199W        W23426   9.336   2.658   1.435
58200W        W23427  40.725  20.063   3.709
58201W        W23428  40.408  27.983  11.217
58202W        W23429  16.348  14.668   2.357
58203W        W23430  41.526  42.415  14.939
58204W        W23431   0.896  17.851  13.418
58205W        W23432  22.697  10.136  11.576
58206W        W23433  39.270  20.184  13.334
58207W        W23434  34.639  43.816  14.834
58208W        W23435  12.861  13.100   1.219
58209W        W23436  41.803  13.551  13.944
58210W        W23437  40.087  16.654   1.069
58211W        W23438  24.520  43.551   0.023
58212W        W23439  39.422  11.434  14.384
58213W        W23440  28.078  43.807   4.354
58214W        W23441  42.898  10.254  11.666
58215W        W23442  13.691  23.407  13.059
58216W        W23443  14.727  10.739  13.873
58217W        W23444  37.784  24.844  11.909
58218W        W23445  29.132   1.840  14.433
58219W        W23446  37.644   8.994  13.433
58220W        W23447  41.691  22.911  11.160
58221W        W23448  12.210  19.512   1.771
58222W        W23449  37.859   8.838   3.801
58223W        W23450   6.910  43.289  12.373
58224W        W23451   4.699  36.487  13.902
58225W        W23452  22.796  33.962  12.210
58226W        W23453  27.635  13.845  13.970
58227W        W23454  13.117  44.266  11.060
58228W        W23455  19.623  14.323  10.882
58229W        W23456  18.272  15.652   1.340
58230W        W23457  33.614  29.002  12.875
58231W        W23458  32.444  34.598  12.682
58232W        W23459  41.886  43.784   2.457
58233W        W23460  43.497   5.170  11.584
58234W        W23461  25.399  19.689   1.975
58235W        W23462  13.669   6.745  10.964
58236W        W23463  29.941  38.414   2.703
58237W        W23464  15.860  31.945  12.363
58238W        W23465  16.090  21.196  11.718
58239W        W23466  22.970  15.507   4.443
58240W        W23467  29.253  30.001   0.385
58241W        W23468  23.556  31.140  13.299
58242W        W23469  30.729  24.869   5.428
58243W        W23470  41.114  19.394  13.853
58244W        W23471  12.564   1.646   1.436
58245W        W23472   6.452  42.065  11.050
58246W        W23473  37.010  16.533   0.231
58247W        W23474  14.603  19.247  11.677
58248W        W23475  28.589  34.989  14.992
58249W        W23476  27.698  42.334  12.097
58250W        W23477   3.505  17.285  11.282
58251W        W23478  16.642  35.623  13.393
58252W        W23479  24.153   5.284  10.341
58253W        W23480   8.951  35.337   3.057
58254W        W23481  24.175  32.141  14.307
58255W        W23482  42.903   1.348   3.786
58256W        W23483  12.706   2.689  14.808
58257W        W23484  33.373   2.672  11.953
58258W        W23485   8.993   0.014  11.998
58259W        W23486  42.101   5.384  10.306
58260W        W23487   5.344  28.519  10.992
58261W        W23488   1.896  13.469  14.813
58262W        W23489  29.145   1.387   2.295
58263W        W23490  13.532  10.397  13.593
58264W        W23491  39.047   1.759   9.877
58265W        W23492  33.447  26.102   4.731
58266W        W23493  26.062   0.646   0.468
58267W        W23494  27.745  30.239  12.806
58268W        W23495   9.364  29.255   2.752
58269W        W23496   6.434  43.890  14.721
58270W        W23497  38.963   7.973  13.044
58271W        W23498  36.285  40.422  14.363
58272W        W23499  37.947  12.109  11.254
58273W        W23500   6.221  26.910  11.552
58274W        W23501  42.357   3.806   1.702
58275W        W23502  41.450  28.668   1.765
58276W        W23503  12.815  28.009   1.462
58277W        W23504  27.932   2.875  10.140
58278W        W23505   9.595   5.529   0.294
58279W        W23506  32.967   6.802  11.681
58280W        W23507  32.878  32.016  11.863
58281W        W23508   8.417   1.949  10.348
58282W        W23509  34.251   6.516   1.358
58283W        W23510  42.239  38.043  13.659
58284W        W23511   0.530  20.380  10.106
58285W        W23512  30.980   2.830  10.219
58286W        W23513  42.983  39.817  13.132
58287W        W23514  12.817  41.513  11.606
58288W        W23515  32.373   9.669  11.670
58289W        W23516  39.097  22.276   3.527
58290W        W23517  34.717   0.367   3.235
58291W        W23518  10.725  38.850   1.248
58292W        W23519  27.659  36.405  12.819
58293W        W23520  29.534  41.405  13.616
58294W        W23521  34.012  15.657   2.163
58295W        W23522  12.667  21.143  14.883
58296W        W23523   9.262   0.386  11.763
58297W        W23524  17.551   4.246   4.189
58298W        W23525  27.187  44.299  13.052
58299W        W23526  20.292  39.998   4.707
58300W        W23527  41.342   5.713  14.245
58301W        W23528  29.472  41.250  10.238
58302W        W23529  20.604  27.597   1.638
58303W        W23530  41.527   1.946   1.545
58304W        W23531  15.733  38.731  12.640
58305W        W23532  31.627   0.364   2.341
58306W        W23533  33.962  39.236  14.264
58307W        W23534  30.930  15.303  10.732
58308W        W23535   4.286  38.034   3.798
58309W        W23536   2.800  18.228  11.688
58310W        W23537   8.642  11.480   1.819
58311W        W23538  22.490  34.567  11.624
58312W        W23539  32.020  19.348  12.022
58313W        W23540   9.323  10.126   3.189
58314W        W23541  29.828  23.722  14.347
58315W        W23542   4.394  33.620  12.017
58316W        W23543  31.186  24.527   2.225
58317W        W23544   4.724  17.732  13.373
58318W        W23545   7.322  41.423   4.170
58319W        W23546  20.000  13.110   1.384
58320W        W23547  22.235   9.113   1.356
58321W        W23548   3.057   8.332  13.543
58322W        W23549   6.497  31.989  14.493
58323W        W23550  17.585  30.112  13.008
58324W        W23551   0.781  32.406  10.663
58325W        W23552   6.321  16.257   1.715
58326W        W23553   2.659  37.646  12.590
58327W        W23554  44.406  35.493   3.593
58328W        W23555   9.683   5.745  11.564
58329W        W23556   8.316  34.279   3.326
58330W        W23557  32.774  36.918   2.947
58331W        W23558  35.648  20.133   0.221
58332W        W23559   6.710  41.946  14.722
58333W        W23560  26.959  27.921  13.824
58334W        W23561  27.690  40.840   1.904
58335W        W23562  36.221   0.391  14.818
58336W        W23563  17.636  10.379   1.923
58337W        W23564  13.264  29.446   1.898
58338W        W23565   5.108  33.481   1.438
58339W        W23566  44.333  12.779   2.660
58340W        W23567  21.226  22.263   1.121
58341W        W23568  36.697  25.104  10.907
58342W        W23569   3.921  23.835  12.139
58343W        W23570  14.073   6.871  12.925
58344W        W23571  10.757  10.489   3.074
58345W        W23572  27.341  15.280   5.482
58346W        W23573   1.560  39.842  13.198
58347W        W23574  20.552  31.159  11.098
58348W        W23575  17.200  14.034  10.112
58349W        W23576  17.279   0.015  13.550
58350W        W23577  18.977  38.850  12.690
58351W        W23578  18.325  37.578   1.430
58352W        W23579  44.114  11.679   3.317
58353W        W23580  27.668   1.347  12.397
58354W        W23581   6.376  41.343   4.678
58355W        W23582  28.426  34.881  12.246
58356W        W23583  20.110  26.013   1.028
58357W        W23584  44.528  22.191  13.743
58358W        W23585  20.906  20.645   3.608
58359W        W23586   7.199  10.109  13.949
58360W        W23587  14.274  21.625  11.705
58361W        W23588   3.726  27.557   3.559
58362W        W23589  41.421  20.332  13.958
58363W        W23590  12.645  26.215  10.965
58364W        W23591   0.396   0.083   1.601
58365W        W23592  16.053  40.529  14.504
58366W        W23593   4.258  23.156   1.797
58367W        W23594   7.788  21.331   2.800
58368W        W23595  26.580  39.277   4.477
58369W        W23596  17.090  32.554   9.908
58370W        W23597  38.209  11.112   1.101
58371W        W23598  29.338   4.751   1.076
58372W        W23599  32.980  16.663  10.721
58373W        W23600  31.448  25.638  14.795
58374W        W23601  12.169  37.722   4.599
58375W        W23602  26.428  35.451  13.398
58376W        W23603   7.221   5.969   1.486
58377W        W23604   9.596   3.748   0.841
58378W        W23605  29.720  13.226   2.227
58379W        W23606  43.829  22.152  11.616
58380W        W23607  19.333  41.015  12.908
58381W        W23608  41.014  43.830   2.404
58382W        W23609  42.816  26.587  12.067
58383W        W23610  38.899  13.882   4.059
58384W        W23611  12.341  40.863  13.620
58385W        W23612  30.541   1.856   4.495
58386W        W23613  28.507  15.587  11.028
58387W        W23614  41.536  39.909  11.234
58388W        W23615  33.288   2.962  13.821
58389W        W23616   1.380  21.282  14.376
58390W        W23617  41.495   2.610   5.043
58391W        W23618  14.225   4.700  11.006
58392W        W23619  38.846   2.941   1.720
58393W        W23620  37.472  24.834  12.521
58394W        W23621  40.723   6.414   2.671
58395W        W23622   0.822  32.910  13.380
58396W        W23623   5.824  37.683   2.878
58397W        W23624  35.403  12.264   3.105
58398W        W23625  44.651  29.080   3.060
58399W        W23626  18.354  17.075  12.089
58400W        W23627  23.535  35.474  13.084
58401W        W23628  35.034   8.367  10.586
58402W        W23629  19.021  33.473   4.788
58403W        W23630  33.748  19.258  11.116
58404W        W23631  40.918  41.381   4.061
58405W        W23632  15.079  29.925  10.544
58406W        W23633  24.989  25.778   3.887
58407W        W23634  33.187  22.634   0.479
58408W        W23635  31.589  13.270  12.562
58409W        W23636  14.782  42.673  14.969
58410W        W23637   3.044   9.906  11.174
58411W        W23638   0.813  31.593  15.000
58412W        W23639  15.638  22.136   0.131
58413W        W23640   7.575  12.085  10.392
58414W        W23641  19.768   4.308   3.062
58415W        W23642  43.336  24.640   2.842
58416W        W23643  13.377  15.337   9.800
58417W        W23644  35.794  17.483   3.654
58418W        W23645   8.804  26.024  11.716
58419W        W23646  27.151  11.623  14.486
58420W        W23647  36.501   5.875   0.309
58421W        W23648  33.137  25.796  11.312
58422W        W23649  38.066  20.832   4.823
58423W        W23650  25.038  18.961   3.293
58424W        W23651  27.315  20.749  12.135
58425W        W23652  36.918  44.566   2.749
58426W        W23653  44.250   1.761   1.824
58427W        W23654  35.282   5.610   3.442
58428W        W23655  19.656   4.753  12.108
58429W        W23656   0.856   1.214  14.321
58430W        W23657  16.799  37.670   4.505
58431W        W23658  11.080   2.338  14.966
58432W        W23659   2.503  43.453   3.700
58433W        W23660  44.330  13.036  11.279
58434W        W23661  13.853  17.124   0.437
58435W        W23662  32.881  14.775   1.706
58436W        W23663   1.340  10.935  13.103
58437W        W23664  21.688  11.385  13.042
58438W        W23665  10.747  23.151   0.790
58439W        W23666  39.398  41.439   3.151
58440W        W23667  43.703   7.165   2.269
58441W        W23668  35.499  18.475   1.359
58442W        W23669  43.349  43.792   2.031
58443W        W23670   0.059   8.876  14.787
58444W        W23671   8.124   4.475  14.968
58445W        W23672  17.997  30.377  11.904
58446W        W23673   3.881  25.134   4.747
58447W        W23674   4.918  43.995  14.409
58448W        W23675   7.554  33.686   5.083
58449W        W23676  14.099  25.706   3.616
58450W        W23677  42.482  11.590   4.168
58451W        W23678  15.785  32.919  11.999
58452W        W23679  25.155  23.992   1.300
58453W        W23680  28.987  19.758   2.536
58454W        W23681  36.576  30.613  13.836
58455W        W23682  33.687  11.734   1.658
58456W        W23683   9.449  12.158  12.328
58457W        W23684  44.215  24.534  14.429
58458W        W23685  30.244   9.536  14.909
58459W        W23686  19.015  16.499   3.047
58460W        W23687   6.244  23.735   1.014
58461W        W23688   2.865  36.607  12.486
58462W        W23689  12.625  17.195   3.128
58463W        W23690   5.785  35.076   3.885
58464W        W23691  23.373  41.826  12.652
58465W        W23692  23.524   6.810  12.347
58466W        W23693   8.890   8.069   2.885
58467W        W23694  15.286  10.231  14.302
58468W        W23695  12.293  11.683  10.559
58469W        W23696  24.232  12.122  14.789
58470W        W23697   5.490  31.756   0.684
58471W        W23698  31.697   0.458  13.347
58472W        W23699  39.912  23.731  12.430
58473W        W23700  43.412  12.586   1.869
58474W        W23701  13.906  26.664  14.501
58475W        W23702  29.187   3.924   3.980
58476W        W23703  22.634   1.434  12.244
58477W        W23704   6.610  19.040  13.358
58478W        W23705  40.970   0.211  13.081
58479W        W23706   4.928  30.603  11.562
58480W        W23707  44.940  41.375   4.296
58481W        W23708   5.159  41.513  10.790
58482W        W23709  34.099  39.708   4.633
58483W        W23710   0.511  11.373   2.189
58484W        W23711  27.133  44.743  10.350
58485W        W23712  38.387   2.793   2.618
58486W        W23713  19.770  26.566   4.689
58487W        W23714   3.499  16.533  10.252
58488W        W23715  31.610  29.022  13.921
58489W        W23716  18.710  11.331  12.941
58490W        W23717   2.017  31.116  10.422
58491W        W23718  17.838  28.629   0.734
58492W        W23719  12.543  30.896   4.729
58493W        W23720  28.378  20.824   1.909
58494W        W23721   1.280  28.932  10.550
58495W        W23722  24.458  44.463  12.564
58496W        W23723  40.241  34.059   3.995
58497W        W23724  23.987  38.734  12.210
58498W        W23725  20.760   5.375   2.797
58499W        W23726   9.314  23.590   4.555
58500W        W23727  42.568   5.307  11.940
58501W        W23728  42.702  31.556  11.926
58502W        W23729  44.775  22.248  10.758
58503W        W23730  29.466  21.995  12.033
58504W        W23731  33.186   5.888   0.413
58505W        W23732  28.838  24.070  14.048
58506W        W23733  27.086  37.526  12.381
58507W        W23734  42.824   8.455   0.953
58508W        W23735   1.431   1.494   1.899
58509W        W23736   6.052  29.145  11.689
58510W        W23737  15.777   1.292   3.628
58511W        W23738  25.217  25.540  14.043
58512W        W23739   9.401   6.227  14.931
58513W        W23740  35.167  26.252   2.178
58514W        W23741   6.453  35.865   1.873
58515W        W23742   2.459  39.763   2.086
58516W        W23743   0.568  13.346   3.619
58517W        W23744  38.467   0.727   0.307
58518W        W23745   8.252   5.414  12.068
58519W        W23746  13.659  18.028  11.991
58520W        W23747  14.242  38.903  14.836
58521W        W23748   5.380  30.487   0.808
58522W        W23749  13.998   6.020  12.200
58523W        W23750   1.249  32.494   4.151
58524W        W23751  16.723  43.531   0.918
58525W        W23752  41.620  11.166  11.515
58526W        W23753  36.315   4.701  14.905
58527W        W23754  34.168  18.644   0.035
58528W        W23755  44.973   3.057   2.241
58529W        W23756  30.059  36.122  10.130
58530W        W23757  27.663  15.143   2.441
58531W        W23758  32.371   6.256  10.954
58532W        W23759  31.555  14.251   3.215
58533W        W23760  42.872  34.918   1.809
58534W        W23761  17.213  38.852   2.480
58535W        W23762  32.998   8.065   0.782
58536W        W23763   0.530   5.402  12.966
58537W        W23764  17.885  24.050  10.715
58538W        W23765  18.883  41.273   3.644
58539W        W23766   8.260  15.912  12.384
58540W        W23767  14.375  19.622   1.057
58541W        W23768  14.019   7.572  14.375
58542W        W23769  14.834  33.538   0.017
58543W        W23770  24.278  17.284  13.418
58544W        W23771  24.959  25.265  14.426
58545W        W23772   0.492   6.307  11.921
58546W        W23773  28.495  20.043  10.782
58547W        W23774  10.523   8.407   1.376
58548W        W23775  32.303  33.655  13.367
58549W        W23776  35.968   9.290   3.156
58550W        W23777  10.753  12.286   4.671
58551W        W23778  18.492   8.520  14.904
58552W        W23779  12.476  40.686  14.105
58553W        W23780  21.156  30.516  14.787
58554W        W23781  38.401  27.198  12.131
58555W        W23782  27.057  22.115   4.660
58556W        W23783   5.776   6.660   4.073
58557W        W23784   3.696  13.601   4.149
58558W        W23785  33.671  19.124   1.196
58559W        W23786  11.708  40.029  11.818
58560W        W23787   2.943   1.344   2.728
58561W        W23788  20.217  15.249   0.465
58562W        W23789  21.227   7.844  14.801
58563W        W23790   6.986   7.445   2.680
58564W        W23791  42.917   0.768  12.280
58565W        W23792  11.132  26.507  12.533
58566W        W23793  44.490  27.104  12.657
58567W        W23794  23.226  28.688  11.028
58568W        W23795   1.877  36.289   0.463
58569W        W23796  35.552   5.441  12.073
58570W        W23797   4.640  19.186  13.944
58571W        W23798  29.136   2.777  12.666
58572W        W23799  21.101   8.670  14.483
58573W        W23800  31.829   8.911  13.026
58574W        W23801   1.437  18.249   3.691
58575W        W23802   1.596  26.470   1.428
58576W        W23803  19.176  21.460  12.080
58577W        W23804  18.707  27.425  12.154
58578W        W23805   2.205  33.009  12.174
58579W        W23806  29.110   9.940  11.139
58580W        W23807   7.615  12.850   1.494
58581W        W23808  21.629  34.954  11.579
58582W        W23809  13.607  30.696  11.579
58583W        W23810   2.472  10.408   4.546
58584W        W23811  28.369  16.819  13.273
58585W        W23812  25.125  32.188  12.494
58586W        W23813  39.504  12.768   4.872
58587W        W23814  21.903   9.650  11.668
58588W        W23815  39.019  33.384   3.848
58589W        W23816  22.048  13.647  12.184
58590W        W23817  14.674  17.479  11.618
58591W        W23818  19.538  32.820  12.037
58592W        W23819  19.687  44.503  14.462
58593W        W23820   7.645  33.174   0.463
58594W        W23821  36.226  42.434  12.602
58595W        W23822   9.207  37.610  11.527
58596W        W23823  26.986  29.181  10.355
58597W        W23824  40.745   7.855   4.412
58598W        W23825  32.353  18.105  12.430
58599W        W23826  17.918  35.492   1.818
58600W        W23827  39.756  24.521  12.670
58601W        W23828  40.719  39.207   2.852
58602W        W23829  38.917  13.212   2.914
58603W        W23830  43.503  41.076  12.982
58604W        W23831  40.299  19.527  13.080
58605W        W23832  42.950  26.089  11.429
58606W        W23833   8.809   2.948   0.412
58607W        W23834  41.532  13.694  11.534
58608W        W23835  19.657  19.563   0.747
58609W        W23836   5.717  10.774  13.705
58610W        W23837  27.583   1.811  12.651
58611W        W23838  32.633  27.231  12.430
58612W        W23839  31.500  38.439   1.951
58613W        W23840  37.774  42.670  11.110
58614W        W23841  25.680  30.117   4.291
58615W        W23842   8.845  35.119  10.645
58616W        W23843  21.219  12.005   0.342
58617W        W23844   8.914  20.720  14.883
58618W        W23845   9.200  37.844   0.362
58619W        W23846  18.356  19.567   4.056
58620W        W23847  18.772  23.728   0.279
58621W        W23848  37.616  35.523   3.643
58622W        W23849  43.299  36.181  10.323
58623W        W23850  13.209  31.890  14.467
58624W        W23851  44.423  17.048   3.795
58625W        W23852   2.382   4.728   1.012
58626W        W23853   5.395  39.425  12.617
58627W        W23854  30.638  21.300  13.081
58628W        W23855   1.626  20.145   4.487
58629W        W23856  20.066  22.220   4.517
58630W        W23857  12.313  31.483   1.740
58631W        W23858  30.991  14.195  13.945
58632W        W23859  10.958   6.425   0.786
58633W        W23860  16.076  37.410  13.473
58634W        W23861  14.721   3.374   2.483
58635W        W23862  31.257  42.875   2.543
58636W        W23863  38.601   6.142  13.874
58637W        W23864  33.028  11.616  11.086
58638W        W23865   3.002  39.479   3.174
58639W        W23866  33.361  26.589   4.016
58640W        W23867  43.408  20.071   1.000
58641W        W23868  22.523   2.345  13.352
58642W        W23869  15.802  41.643  12.261
58643W        W23870  26.720  32.547  14.394
58644W        W23871  33.607  17.572   0.460
58645W        W23872  33.107  20.671   2.227
58646W        W23873   9.036  33.953  12.572
58647W        W23874  16.206  35.718   1.917
58648W        W23875  22.145  30.877  13.349
58649W        W23876  35.042  22.996   4.206
58650W        W23877   4.940  36.608   2.806
58651W        W23878  10.867  19.774   2.332
58652W        W23879  17.079  37.515   0.916
58653W        W23880  20.848   8.610   4.125
58654W        W23881  40.799   3.686  14.409
58655W        W23882  41.239   4.693  13.181
58656W        W23883  21.004  20.219  11.277
58657W        W23884  21.225  11.468  14.031
58658W        W23885  44.885  43.401  10.793
58659W        W23886  27.108   6.805  13.427
58660W        W23887  21.119  20.372  12.056
58661W        W23888  32.769   2.072  14.007
58662W        W23889  36.983  32.870   4.242
58663W        W23890  10.192   1.634   4.739
58664W        W23891   0.117  17.039  13.926
58665W        W23892   5.108  32.071   4.567
58666W        W23893  17.393  14.227  11.187
58667W        W23894  37.617  14.202   2.425
58668W        W23895  42.861  12.136  11.804
58669W        W23896  26.639  21.761  13.229
58670W        W23897   4.236   3.451   4.806
58671W        W23898  28.001   9.921  10.755
58672W        W23899   1.909  34.205   4.346
58673W        W23900   7.494   6.345  13.478
58674W        W23901  19.191   3.890   2.192
58675W        W23902  36.969  27.918  14.537
58676W        W23903   9.212  15.612   0.717
58677W        W23904  44.679  43.048  10.492
58678W        W23905  44.370  29.707   0.972
58679W        W23906  24.973  26.709  11.576
58680W        W23907   9.028  15.210   0.984
58681W        W23908   6.693  37.605   4.814
58682W        W23909   1.650  25.616   1.753
58683W        W23910   6.176   6.835  13.089
58684W        W23911   0.341  41.235  12.986
58685W        W23912  41.592   3.495   2.185
58686W        W23913  21.203   1.322   0.509
58687W        W23914  36.226  10.718   1.890
58688W        W23915  33.924  18.545  12.917
58689W        W23916  25.758   6.425  10.650
58690W        W23917  17.488  34.377  10.426
58691W        W23918   0.460  36.396  12.525
58692W        W23919  14.869   4.298   0.358
58693W        W23920   3.585  24.322  13.017
58694W        W23921  33.977  15.269  11.988
58695W        W23922  17.124   7.911  12.840
58696W        W23923   9.773   6.293   4.390
58697W        W23924  15.824  26.074  14.959
58698W        W23925  29.620  30.007   3.801
58699W        W23926  43.475  31.585  10.463
58700W        W23927  26.038   9.899   4.020
58701W        W23928   1.269  32.636   2.742
58702W        W23929  40.521  15.975  11.555
58703W        W23930  16.837  17.285  14.941
58704W        W23931  38.110  23.652   1.260
58705W        W23932  28.136   2.179  10.427
58706W        W23933  30.702  33.998  11.030
58707W        W23934  36.873  24.340  13.736
58708W        W23935  26.543  25.216   1.756
58709W        W23936  42.429  28.902  11.874
58710W        W23937   9.629  16.711  11.437
58711W        W23938  41.300   7.158   0.320
58712W        W23939  40.974  39.465   4.871
58713W        W23940   4.479  43.093  14.631
58714W        W23941  28.623  25.008   3.749
58715W        W23942  31.056   9.501  11.628
58716W        W23943  38.975   2.485   3.756
58717W        W23944   5.927  27.594  13.739
58718W        W23945  36.645  34.403  12.000
58719W        W23946  41.030   8.220  11.221
58720W        W23947  38.574  44.440  13.431
58721W        W23948  40.288   3.336   4.061
58722W        W23949  39.744   3.603   3.148
58723W        W23950   7.195  29.877  12.040
58724W        W23951  12.862   7.437  14.011
58725W        W23952  31.636  41.267   3.617
58726W        W23953   0.274  14.921  14.974
58727W        W23954   9.318  23.062   4.441
58728W        W23955   9.656   6.738   4.114
58729W        W23956  15.209  11.978  13.786
58730W        W23957  22.676   4.223   1.989
58731W        W23958  39.530  14.420   0.240
58732W        W23959  34.370   8.842  13.381
58733W        W23960  31.110  28.778   3.653
58734W        W23961  39.410   1.878  10.725
58735W        W23962  30.477  18.244   1.700
58736W        W23963  39.837  33.328  13.751
58737W        W23964  30.960  13.854   4.223
58738W        W23965  10.058   8.701   2.751
58739W        W23966  19.674  44.925   4.736
58740W        W23967  15.864  40.595   3.092
58741W        W23968  20.040  42.568  13.512
58742W        W23969  33.400   0.285  11.594
58743W        W23970   3.845   7.466   0.804
58744W        W23971  14.635  25.158   2.260
58745W        W23972  31.874  42.952  14.675
58746W        W23973  11.829  18.077  13.860
58747W        W23974  11.803  38.705  14.488
58748W        W23975   2.732  25.593  13.587
58749W        W23976  13.313   9.383  13.512
58750W        W23977  39.887  42.874  13.488
58751W        W23978   3.356  27.717  14.337
58752W        W23979  38.345  17.403   3.620
58753W        W23980   1.728  24.091   0.094
58754W        W23981   8.830  26.076   4.212
58755W        W23982  42.471   6.219   3.598
58756W        W23983  27.240   1.413  12.716
58757W        W23984   5.779  25.561  11.510
58758W        W23985   8.630  20.060  14.496
58759W        W23986  39.367  11.930  14.447
58760W        W23987  24.112  38.526   2.667
58761W        W23988  15.693  12.615  13.579
58762W        W23989   3.311  32.538  12.177
58763W        W23990  16.426  29.978  14.859
58764W        W23991  13.054  31.183  11.981
58765W        W23992  25.845  41.933  14.808
58766W        W23993  23.660   3.087   3.308
58767W        W23994  37.326   8.008  11.619
58768W        W23995   6.992   5.433  11.597
58769W        W23996  12.969   2.566  11.193
58770W        W23997  38.994  17.269   2.184
58771W        W23998  37.082   8.427  11.482
58772W        W23999  43.950  28.940  14.902
58773W        W24000  13.160   5.734   3.351
58774W        W24001   8.951  13.164   0.094
58775W        W24002  24.574  44.243  12.058
58776W        W24003  30.134  17.627   2.340
58777W        W24004  35.121   9.334   2.764
58778W        W24005   8.719  22.041  10.754
58779W        W24006  42.206   6.769  13.834
58780W        W24007   4.248  30.422   0.063
58781W        W24008  43.526  27.563   1.517
58782W        W24009  23.024  16.733   1.639
58783W        W24010  24.695   8.276   3.113
58784W        W24011  25.544  22.704  13.843
58785W        W24012  18.043  16.544   4.591
58786W        W24013  28.068  10.793   4.242
58787W        W24014   0.978   3.054  11.643
58788W        W24015  43.059  22.471   1.838
58789W        W24016  35.951  12.293  11.271
58790W        W24017   4.819  26.524   2.722
58791W        W24018   4.289  38.088  12.998
58792W        W24019  29.677  23.057   2.757
58793W        W24020   0.005  37.444  11.721
58794W        W24021   0.146   4.403   1.232
58795W        W24022  32.189  41.804  12.991
58796W        W24023  15.351  35.633   3.590
58797W        W24024  20.594  10.905  11.967
58798W        W24025   4.300   1.373   3.091
58799W        W24026  17.104  24.166   0.712
58800W        W24027  15.104  19.871  11.234
58801W        W24028  36.673  16.230   2.791
58802W        W24029  43.357  30.391   1.863
58803W        W24030  41.888  30.764   0.735
58804W        W24031  24.265  29.862   3.238
58805W        W24032  24.274  43.779  11.705
58806W        W24033   2.102   1.293   2.725
58807W        W24034  44.297  32.167   1.551
58808W        W24035   1.919   4.511   0.980
58809W        W24036  42.382  37.646   0.362
58810W        W24037  20.273  34.740  11.837
58811W        W24038  26.131  10.400   2.756
58812W        W24039   2.015  39.923  13.462
58813W        W24040   6.906  12.073   2.354
58814W        W24041  15.121  27.470  12.897
58815W        W24042  26.526  18.129  12.446
58816W        W24043  14.221  35.737  14.399
58817W        W24044  29.917  22.143  11.269
58818W        W24045   8.426  24.403   3.227
58819W        W24046  33.873   5.795   3.040
58820W        W24047  26.237  37.985   0.782
58821W        W24048  40.980  30.608   2.312
58822W        W24049   6.233  23.537  12.374
58823W        W24050  12.261   6.306  14.360
58824W        W24051  16.112  29.719   1.813
58825W        W24052   6.829  17.997  14.833
58826W        W24053  17.737  44.194   3.301
58827W        W24054   0.016   3.649  10.574
58828W        W24055  42.322   9.360  13.498
58829W        W24056  33.184  11.285  13.377
58830W        W24057  11.244  24.062   0.910
58831W        W24058  44.077  16.619  14.844
58832W        W24059   9.091  22.093   4.095
58833W        W24060  40.060  27.191   1.857
58834W        W24061  38.397   7.164   1.681
58835W        W24062   3.196  40.022   4.544
58836W        W24063  44.948   3.269   4.741
58837W        W24064  36.489  39.068   4.244
58838W        W24065  25.307  43.259   1.661
58839W        W24066  44.022  23.647   4.320
58840W        W24067   5.502  32.250  13.060
58841W        W24068  20.674  44.560  11.417
58842W        W24069  25.765  35.871  13.896
58843W        W24070  32.925  43.781  11.488
58844W        W24071   8.724  27.908   3.551
58845W        W24072  39.463  40.013   3.405
58846W        W24073  21.927   9.761  10.738
58847W        W24074   2.880   5.895  11.463
58848W        W24075  16.122  39.340   3.197
58849W        W24076  11.641   9.237  10.393
58850W        W24077  10.830  27.038   2.171
58851W        W24078  15.408   6.926   1.290
58852W        W24079  35.550  12.255  14.914
58853W        W24080  22.181  19.718  13.445
58854W        W24081  14.052  25.950  13.956
58855W        W24082  39.829  41.241   3.323
58856W        W24083  19.742   4.344  14.884
58857W        W24084   9.613  39.757  14.119
58858W        W24085  36.146  42.791   4.208
58859W        W24086  10.752  16.063  12.501
58860W        W24087  43.913  35.531  13.533
58861W        W24088  10.210  23.970  13.409
58862W        W24089  29.393  41.510   3.183
58863W        W24090  10.580   4.455  10.732
58864W        W24091  35.008  22.664   1.956
58865W        W24092  30.633  11.611  14.849
58866W        W24093  14.170   6.714  11.134
58867W        W24094  10.818   3.288  14.437
58868W        W24095  33.234   8.828   4.881
58869W        W24096  15.467  23.558   0.841
58870W        W24097  20.943   1.867  13.401
58871W        W24098  40.359   4.484   0.328
58872W        W24099  41.511  41.959   3.633
58873W        W24100  37.733  21.388  10.471
58874W        W24101   0.520   7.092   4.549
58875W        W24102  10.063  30.456   4.162
58876W        W24103  16.127  35.079   1.220
58877W        W24104   0.771  11.152  13.351
58878W        W24105  30.161   5.882   0.448
58879W        W24106  37.476   8.748  12.250
58880W        W24107  23.817   6.946  13.392
58881W        W24108  28.720  13.174   9.862
58882W        W24109   2.445  35.117  14.920
58883W        W24110  10.294  32.745   1.753
58884W        W24111  25.224  19.262   3.863
58885W        W24112  11.633  43.295   3.703
58886W        W24113   1.878  27.330   3.529
58887W        W24114  10.071  25.684   3.828
58888W        W24115   6.912  20.576   4.219
58889W        W24116  24.796  35.901   2.390
58890W        W24117  28.022  31.681   1.736
58891W        W24118  14.659  35.978   3.293
58892W        W24119  37.528  25.034   1.925
58893W        W24120  11.178   7.186   1.190
58894W        W24121  33.550  12.623  12.139
58895W        W24122  32.064  40.348  12.168
58896W        W24123  42.722  22.797   4.022
58897W        W24124   3.541  38.379   3.737
58898W        W24125   5.468  25.473  13.974
58899W        W24126   2.858  41.922   1.843
58900W        W24127   7.864   4.654   3.767
58901W        W24128   6.663  11.089  14.406
58902W        W24129  39.438  16.233   2.855
58903W        W24130   3.300  10.926  12.728
58904W        W24131  39.840  41.249  13.144
58905W        W24132   1.300  44.234   0.528
58906W        W24133   8.048  32.583   2.705
58907W        W24134   0.339  20.714  12.591
58908W        W24135  23.526   2.553  12.052
58909W        W24136   8.272   8.385  14.380
58910W        W24137  25.080  36.782  11.297
58911W        W24138  27.526   5.879   3.597
58912W        W24139  40.322  29.099  14.435
58913W        W24140  14.447  34.964   0.178
58914W        W24141  31.901  33.977  13.402
58915W        W24142  22.034  33.654   1.758
58916W        W24143  33.819   7.897   2.715
58917W        W24144  38.921  21.767   2.266
58918W        W24145  32.297  25.048  13.039
58919W        W24146  33.648   6.192   2.724
58920W        W24147  13.352   3.249   0.232
58921W        W24148  38.356   3.816  13.329
58922W        W24149  23.171  13.399  11.609
58923W        W24150  10.677  23.932  11.522
58924W        W24151  19.092  34.188  12.006
58925W        W24152  42.495  23.951  13.523
58926W        W24153  43.015  32.734  14.745
58927W        W24154  24.088  26.778   2.831
58928W        W24155  31.209  44.276  13.978
58929W        W24156  11.263  15.506  12.069
58930W        W24157  17.031  34.763   0.746
58931W        W24158  34.063  42.529  14.392
58932W        W24159  36.782  31.101  13.967
58933W        W24160  38.880  18.814   1.946
58934W        W24161  25.812  24.779  14.062
58935W        W24162  39.216  29.581  10.574
58936W        W24163  10.863  33.066  14.493
58937W        W24164  35.536  26.999   1.841
58938W        W24165  27.099   5.704   3.862
58939W        W24166  43.301  13.692   4.425
58940W        W24167   5.171  12.829   1.157
58941W        W24168   6.137   3.117   3.425
58942W        W24169  42.117   0.396   3.351
58943W        W24170   1.415  28.121   0.721
58944W        W24171   1.505   7.874   0.421
58945W        W24172  14.268  19.687   4.124
58946W        W24173  21.074  35.326  14.043
58947W        W24174  22.363  21.082  10.558
58948W        W24175  26.562  29.332  10.638
58949W        W24176  42.795  26.162   3.405
58950W        W24177  18.619  15.650   4.610
58951W        W24178  40.012  18.769   0.278
58952W        W24179   0.177  26.395   5.392
58953W        W24180  28.862  19.708   1.520
58954W        W24181  35.084  24.028  11.753
58955W        W24182  13.229  41.876  12.343
58956W        W24183  27.000  25.286   4.047
58957W        W24184   2.384  41.087   2.866
58958W        W24185  13.855  39.038  12.820
58959W        W24186  36.041   0.143   3.690
58960W        W24187   0.244  14.266   0.993
58961W        W24188  26.597  12.026  14.052
58962W        W24189  34.858  24.663   3.230
58963W        W24190  30.929  32.608   3.630
58964W        W24191   8.808   7.501   4.690
58965W        W24192  12.855  11.607   1.193
58966W        W24193  40.508  18.078   3.732
58967W        W24194  39.309  23.806   2.659
58968W        W24195  18.638   4.768  13.418
58969W        W24196  16.302  32.888  12.022
58970W        W24197  31.358  39.023  14.839
58971W        W24198   0.451   0.534   2.809
58972W        W24199  24.594   0.733   1.305
58973W        W24200   3.172  22.647   4.186
58974W        W24201  43.545  17.710   3.661
58975W        W24202  39.104  14.680   3.257
58976W        W24203  26.628  40.337  14.993
58977W        W24204  32.614  22.262  14.772
58978W        W24205  22.183  28.648  14.928
58979W        W24206  42.710  20.812  10.322
58980W        W24207  25.419  35.311   1.743
58981W        W24208  42.505  18.546  12.625
58982W        W24209  38.344  41.241   1.734
58983W        W24210   2.753  12.755  13.407
58984W        W24211  29.629   5.267   3.406
58985W        W24212  34.262  30.259   3.608
58986W        W24213  37.166  43.208  13.340
58987W        W24214  34.823  16.009  11.555
58988W        W24215   7.383  37.707  11.125
58989W        W24216  20.220  10.794  14.440
58990W        W24217   4.941  40.430  10.729
58991W        W24218  14.157  29.683  13.431
58992W        W24219  11.468   9.848   0.864
58993W        W24220  11.704  33.351   2.728
58994W        W24221  39.378  20.895   0.841
58995W        W24222  14.478  33.439  11.083
58996W        W24223  39.261  37.354  14.449
58997W        W24224  35.974  31.953   4.146
58998W        W24225   9.814  14.632   2.215
58999W        W24226  40.056  30.437   2.068
59000W        W24227  35.569   9.669  11.923
59001W        W24228   4.223  35.693  10.704
59002W        W24229  33.130  18.149  13.807
59003W        W24230   6.655  15.796   2.707
59004W        W24231  12.241  28.095   1.576
59005W        W24232  25.222  17.178  13.170
59006W        W24233  15.838  43.908  13.056
59007W        W24234  41.847  36.378   4.577
59008W        W24235  10.130  34.560  12.884
59009W        W24236  44.489  11.535   2.966
59010W        W24237  10.666  11.623   3.346
59011W        W24238   7.710  14.106  11.683
59012W        W24239   1.768  27.127   3.984
59013W        W24240  19.336  38.504   0.477
59014W        W24241  35.345   3.751   3.417
59015W        W24242  42.768  40.513  13.276
59016W        W24243   4.983  12.407   1.871
59017W        W24244  44.932   0.572   2.860
59018W        W24245  28.729  34.438   3.343
59019W        W24246  35.638   1.980   2.195
59020W        W24247  13.046  31.454  11.546
59021W        W24248  13.280  38.553   1.444
59022W        W24249   1.531  42.326   3.751
59023W        W24250  28.436   0.360   4.252
59024W        W24251   0.617  44.470  11.415
59025W        W24252   2.893  32.955  11.485
59026W        W24253  18.531  28.018  12.985
59027W        W24254  22.876   8.101   4.203
59028W        W24255   0.208  12.385   4.536
59029W        W24256   8.469  41.013   2.829
59030W        W24257   4.486  20.391   4.119
59031W        W24258  19.158  16.862  12.101
59032W        W24259  40.691  10.666  14.397
59033W        W24260  13.759  13.582   3.652
59034W        W24261  20.421   8.842   3.192
59035W        W24262  41.335  32.823   3.578
59036W        W24263  23.379  23.533  11.113
59037W        W24264  33.934  12.576  13.881
59038W        W24265   3.056  41.422  14.963
59039W        W24266  17.846  21.596   0.298
59040W        W24267   8.275   0.262  13.093
59041W        W24268  25.200   4.977  10.695
59042W        W24269  19.530  37.677   5.288
59043W        W24270   3.176  28.250   2.333
59044W        W24271  28.493  30.694  12.916
59045W        W24272   4.182  14.141  13.882
59046W        W24273  13.284  37.833   1.964
59047W        W24274  44.721  37.780   3.868
59048W        W24275  25.144  37.327   1.742
59049W        W24276   8.364  19.546  11.594
59050W        W24277  19.735  17.523   2.778
59051W        W24278  27.050  27.464  14.061
59052W        W24279  26.176  22.142   0.473
59053W        W24280  38.893  39.110   0.708
59054W        W24281  44.517  17.361   1.546
59055W        W24282  17.470  13.848   0.395
59056W        W24283  31.986   3.497  12.793
59057W        W24284  29.018  18.593  10.865
59058W        W24285  16.254   4.839  11.422
59059W        W24286  17.833  35.806  13.397
59060W        W24287  36.628  22.310  14.455
59061W        W24288  18.356  33.097   0.959
59062W        W24289  42.361  37.554  10.370
59063W        W24290  37.535  43.214   3.984
59064W        W24291   6.947  25.063  14.346
59065W        W24292   3.737  36.863  11.016
59066W        W24293   7.797   7.708  13.467
59067W        W24294  38.131  10.223  11.826
59068W        W24295  26.026  24.569  12.932
59069W        W24296  29.674  17.322   3.242
59070W        W24297  20.474   7.789   4.724
59071W        W24298  23.438  37.306   4.080
59072W        W24299  18.271  37.534  12.094
59073W        W24300  34.129  39.838  10.853
59074W        W24301  23.205   9.351   4.469
59075W        W24302  23.764  23.742  13.538
59076W        W24303   8.134   3.493  13.103
59077W        W24304  43.189  12.467  11.487
59078W        W24305  29.464   5.814  10.673
59079W        W24306  22.221   2.417  12.653
59080W        W24307   5.457  27.473  12.906
59081W        W24308  11.583  42.358  10.391
59082W        W24309  36.555  38.273   2.329
59083W        W24310  19.241   7.757   3.334
59084W        W24311  10.145  27.999   0.229
59085W        W24312  10.149  34.404   3.652
59086W        W24313   7.678   2.989  12.536
59087W        W24314   0.393  22.473  13.695
59088W        W24315  41.384  20.552   1.400
59089W        W24316  33.415  39.805  11.404
59090W        W24317  14.674  36.202  13.531
59091W        W24318  30.388  20.792  14.603
59092W        W24319  30.884  19.246   2.022
59093W        W24320  13.900  42.831   0.093
59094W        W24321  10.139  22.030   0.802
59095W        W24322  14.883   1.267   0.513
59096W        W24323   0.796  17.439   0.878
59097W        W24324   7.739  17.830  10.850
59098W        W24325  43.830  17.180  13.516
59099W        W24326  17.338  24.170  13.414
59100W        W24327   2.820  36.150  11.665
59101W        W24328   7.236  36.083   4.412
59102W        W24329  37.962  36.033   3.602
59103W        W24330  41.831  28.192  13.057
59104W        W24331  25.294  27.005   3.250
59105W        W24332  17.760  27.307   3.688
59106W        W24333  10.013  25.006  13.485
59107W        W24334  33.993  37.868   0.781
59108W        W24335   1.816   3.417  14.400
59109W        W24336  37.515  18.706   4.783
59110W        W24337  39.019  41.039   1.297
59111W        W24338  39.624  12.023  12.445
59112W        W24339  13.755  36.637   3.821
59113W        W24340  34.614  32.112  11.219
59114W        W24341  40.290  21.980   0.724
59115W        W24342  42.065   4.642   3.446
59116W        W24343   8.320  38.601  12.478
59117W        W24344  19.078  19.209   1.315
59118W        W24345   1.793  25.437  14.854
59119W        W24346  13.946  44.443  13.146
59120W        W24347  10.181  42.560   3.697
59121W        W24348  42.812  33.649  12.620
59122W        W24349   6.842   3.076  14.155
59123W        W24350  35.390  30.468  12.624
59124W        W24351  40.299  31.835   3.220
59125W        W24352  30.481  40.010  12.128
59126W        W24353  25.618   7.098  12.177
59127W        W24354  31.037   7.356   1.274
59128W        W24355  28.276  33.278  10.345
59129W        W24356  43.490  31.529  12.025
59130W        W24357  25.568  43.412   2.742
59131W        W24358  12.343  24.198  13.909
59132W        W24359  20.009   5.309   4.899
59133W        W24360  19.130  30.218  12.195
59134W        W24361  40.911  39.086  12.421
59135W        W24362   6.127  28.072   2.860
59136W        W24363   2.178  10.276   0.773
59137W        W24364  32.922  22.919   4.392
59138W        W24365  26.233  38.571   4.772
59139W        W24366  35.516   8.979   3.058
59140W        W24367  44.854  18.224   0.202
59141W        W24368  25.695   5.272  13.382
59142W        W24369   8.806   5.040   0.308
59143W        W24370  34.884  42.257   2.273
59144W        W24371  23.752  28.682   0.833
59145W        W24372   6.364   8.945  14.825
59146W        W24373  27.924  14.219  12.081
59147W        W24374  28.443  14.267  13.044
59148W        W24375   9.758  11.420  11.578
59149W        W24376   1.572  14.525  14.246
59150W        W24377  24.825  40.651  13.446
59151W        W24378   9.748  30.449   3.159
59152W        W24379   1.496  15.734  12.500
59153W        W24380   4.454  26.778   5.026
59154W        W24381  13.572  27.394  11.325
59155W        W24382  12.679   5.450  13.380
59156W        W24383  41.787  23.873   0.625
59157W        W24384  28.978  43.149  12.011
59158W        W24385  29.461  30.125   3.232
59159W        W24386  30.751  41.970   2.424
59160W        W24387  28.491  20.575   0.968
59161W        W24388  27.895   7.509  12.208
59162W        W24389   8.291  28.992  13.194
59163W        W24390  11.662  44.920  13.802
59164W        W24391  37.861  11.627   4.124
59165W        W24392  14.262  11.671  11.639
59166W        W24393   6.666  33.661   0.451
59167W        W24394  41.753  17.147  11.385
59168W        W24395  20.205  22.694  12.637
59169W        W24396   1.923  34.958  10.559
59170W        W24397  16.256  29.206   2.345
59171W        W24398   6.136   6.633  14.924
59172W        W24399  22.544  14.354  12.902
59173W        W24400  40.432  29.598   3.803
59174W        W24401  28.067  41.216   1.924
59175W        W24402  13.711  13.618  11.328
59176W        W24403  31.980  15.650  10.077
59177W        W24404  28.894  14.299  11.738
59178W        W24405  44.484   9.826   3.282
59179W        W24406  22.172  10.780   1.856
59180W        W24407  33.701  22.555   4.182
59181W        W24408  20.530  23.974   2.300
59182W        W24409  41.418  42.786   4.841
59183W        W24410  17.219   5.413  14.006
59184W        W24411  13.839  28.052  14.434
59185W        W24412  21.109   8.908   1.284
59186W        W24413   2.759  36.440  11.256
59187W        W24414   7.218  40.066  13.883
59188W        W24415   3.670  11.559   0.424
59189W        W24416  43.396  23.304   2.215
59190W        W24417   6.354  18.747   2.705
59191W        W24418  30.945  40.318   1.531
59192W        W24419   5.424   6.454  13.735
59193W        W24420  22.560  14.388   0.330
59194W        W24421  41.252  30.008   3.840
59195W        W24422  13.830  22.724  13.667
59196W        W24423  30.935  10.996  14.019
59197W        W24424  41.895  33.504   4.666
59198W        W24425  35.449  38.745   2.714
59199W        W24426  11.700  19.920  13.466
59200W        W24427  31.887   9.114   4.839
59201W        W24428  22.642  19.840   5.067
59202W        W24429  23.409  29.509   3.209
59203W        W24430  17.996  15.859   2.846
59204W        W24431   1.133  31.388  12.987
59205W        W24432  10.397  18.720  14.467
59206W        W24433  13.952  35.257   1.030
59207W        W24434   9.344  37.840   3.388
59208W        W24435  28.636  21.701  13.083
59209W        W24436  39.572  22.827  11.775
59210W        W24437  24.464  41.928  10.799
59211W        W24438   3.863  19.205   2.364
59212W        W24439  36.306  10.123  13.043
59213W        W24440  26.520  41.108   0.345
59214W        W24441  37.313  37.259   4.291
59215W        W24442   4.457  17.541   3.762
59216W        W24443  22.997  17.797   0.523
59217W        W24444  17.493   1.346   4.628
59218W        W24445  10.207  14.616   0.709
59219W        W24446  28.416  34.523  13.884
59220W        W24447  37.224  36.513  12.359
59221W        W24448  17.776  32.810  13.083
59222W        W24449  25.939  33.570   3.215
59223W        W24450  14.958  15.120  14.301
59224W        W24451   3.837  29.041   4.480
59225W        W24452  26.078  27.626  10.743
59226W        W24453   0.818  32.377   3.861
59227W        W24454  41.109   4.442  14.372
59228W        W24455  29.044  37.115   2.336
59229W        W24456  31.536  39.830   0.373
59230W        W24457  26.680  35.504  14.785
59231W        W24458  25.101   9.198   3.332
59232W        W24459  13.217  27.756  14.378
59233W        W24460  14.771  11.990  12.522
59234W        W24461  43.942  15.730   3.680
59235W        W24462  25.247   5.991  12.317
59236W        W24463  22.581  15.042  13.488
59237W        W24464  19.776  12.261   3.852
59238W        W24465  10.393   1.198  12.076
59239W        W24466  34.592  11.414   3.017
59240W        W24467   1.779  41.053  13.958
59241W        W24468  29.141   1.957  12.178
59242W        W24469   0.905  41.516   2.376
59243W        W24470   5.441  32.269   0.761
59244W        W24471  25.612  13.417   2.262
59245W        W24472   2.988  21.000   4.057
59246W        W24473   6.834  34.499   0.248
59247W        W24474  11.189  36.343   2.162
59248W        W24475  35.419  39.070  10.888
59249W        W24476  27.428   2.209  12.369
59250W        W24477   8.210  23.469   3.436
59251W        W24478   1.524  19.286  10.771
59252W        W24479  40.546  39.484   2.458
59253W        W24480  38.384   3.679   2.786
59254W        W24481  39.788  21.905   2.728
59255W        W24482  16.092  44.520   3.525
59256W        W24483  42.633  43.328   1.399
59257W        W24484   3.363  10.516  13.043
59258W        W24485   7.305  44.145  11.369
59259W        W24486  37.981  28.942  13.427
59260W        W24487  26.865   4.488   1.749
59261W        W24488  19.552  41.822  12.552
59262W        W24489  23.334   6.326  10.054
59263W        W24490  23.919  14.729  14.344
59264W        W24491  33.050  10.428   2.224
59265W        W24492  18.748   6.347   3.822
59266W        W24493  38.491  19.475   5.192
59267W        W24494  19.946  18.731   1.329
59268W        W24495  35.266  19.533  10.490
59269W        W24496   0.488  28.540  13.537
59270W        W24497  20.203   2.727   4.669
59271W        W24498  44.757   8.845   0.219
59272W        W24499  17.505  22.401  12.004
59273W        W24500  38.262  13.268  10.574
59274W        W24501  37.448  18.681   3.148
59275W        W24502  36.123  32.166   4.600
59276W        W24503  35.845  25.301  11.188
59277W        W24504   4.447  22.160  14.405
59278W        W24505   6.752  21.843  14.279
59279W        W24506  34.381  32.166   2.334
59280W        W24507  40.914   3.393   4.681
59281W        W24508  21.348   9.840   3.654
59282W        W24509  43.518  34.022   4.244
59283W        W24510  21.751   5.449  12.056
59284W        W24511  41.083  11.835  13.824
59285W        W24512  20.827   3.254  13.179
59286W        W24513  44.816   0.024  12.973
59287W        W24514  15.420  36.383   4.331
59288W        W24515  13.155  39.460   4.768
59289W        W24516  23.000  35.693  13.861
59290W        W24517  29.030  11.719   3.551
59291W        W24518  14.209   5.461   3.635
59292W        W24519   2.901  26.548  10.302
59293W        W24520  30.178  30.666   3.632
59294W        W24521  36.261  19.235   2.379
59295W        W24522  20.618  31.605   0.470
59296W        W24523  17.288  37.429  10.772
59297W        W24524   5.423  25.500   1.436
59298W        W24525  21.719   7.696  14.862
59299W        W24526  21.530   8.781  14.773
59300W        W24527  19.211  41.067   4.469
59301W        W24528  41.411  42.697   0.354
59302W        W24529   4.944   2.408   4.232
59303W        W24530   6.263  25.449  14.048
59304W        W24531  22.255  33.093   3.715
59305W        W24532  14.191   7.709  11.841
59306W        W24533   7.394  26.498  10.564
59307W        W24534   8.364  34.225   0.312
59308W        W24535  31.050   8.770   0.305
59309W        W24536   2.689  29.655  11.599
59310W        W24537  16.145  40.472   2.404
59311W        W24538  42.030  26.330  13.442
59312W        W24539  41.413   4.935   2.275
59313W        W24540  26.750  33.318   9.942
59314W        W24541  11.264  35.584  14.955
59315W        W24542  14.279  39.327  12.032
59316W        W24543  42.087  42.510  12.328
59317W        W24544  30.684  25.180   5.023
59318W        W24545  37.972  37.580  11.019
59319W        W24546  13.266   6.406  10.860
59320W        W24547  44.111  18.032   2.229
59321W        W24548  11.874   9.345   0.355
59322W        W24549  29.241  20.400  12.124
59323W        W24550  39.494  12.420  14.549
59324W        W24551  16.279  32.622  10.710
59325W        W24552  25.350  34.499  10.354
59326W        W24553  33.543  35.075  11.145
59327W        W24554   7.321  28.126   3.252
59328W        W24555   4.379  43.706  12.515
59329W        W24556  12.677  44.660   0.634
59330W        W24557  28.392  22.436  12.508
59331W        W24558  29.553  27.066   3.396
59332W        W24559  38.586  19.216   3.936
59333W        W24560   8.661  22.536   3.999
59334W        W24561   7.571  25.409   4.201
59335W        W24562   5.299  38.817   4.886
59336W        W24563   9.804   5.848   4.117
59337W        W24564   0.747  11.802   3.654
59338W        W24565  18.686  40.898   2.413
59339W        W24566  31.198   3.214  12.341
59340W        W24567   2.713  29.001  12.388
59341W        W24568   2.525  20.090  13.005
59342W        W24569  15.700  10.574  13.837
59343W        W24570  24.983  34.801   0.458
59344W        W24571  28.754  42.152   1.206
59345W        W24572  39.803  40.242  11.126
59346W        W24573  14.423  34.206   3.999
59347W        W24574  19.178  13.666   1.044
59348W        W24575  15.274  34.472   1.986
59349W        W24576   3.374  29.446   3.238
59350W        W24577  21.570  17.177  11.501
59351W        W24578  41.267  41.704  11.961
59352W        W24579  33.127  11.039   3.530
59353W        W24580  13.514  27.362  13.442
59354W        W24581   3.297   1.657   1.658
59355W        W24582  28.868  19.595  12.852
59356W        W24583  32.929  16.587  14.830
59357W        W24584  25.616  33.325   4.580
59358W        W24585  41.233  34.517  10.788
59359W        W24586  16.515   1.190   2.384
59360W        W24587  16.301  15.076  13.910
59361W        W24588  19.766   4.678   2.222
59362W        W24589  12.696  40.823   0.517
59363W        W24590  40.114  14.522   3.757
59364W        W24591  14.223  13.153   5.013
59365W        W24592  15.190  27.287   3.533
59366W        W24593  31.600  39.113  12.184
59367W        W24594  25.279  11.216   1.918
59368W        W24595  36.993  15.068   4.012
59369W        W24596  23.460  35.556   0.154
59370W        W24597  16.306  10.250   0.356
59371W        W24598  43.949  40.608   3.373
59372W        W24599  27.841   6.834   1.142
59373W        W24600  37.842  21.101   4.454
59374W        W24601  24.693  40.718  11.600
59375W        W24602   4.303   6.044  10.408
59376W        W24603  14.001  18.339  14.798
59377W        W24604   3.926   6.480   0.893
59378W        W24605  39.384  19.728  12.026
59379W        W24606   7.084   8.301   4.104
59380W        W24607  21.234   0.680   9.832
59381W        W24608  25.126  39.018   1.955
59382W        W24609   4.933  16.147  11.761
59383W        W24610  26.753   0.047   0.390
59384W        W24611  36.483  23.818  11.540
59385W        W24612  32.048  13.213  13.794
59386W        W24613  27.524  38.775  11.031
59387W        W24614  43.332  37.325   0.520
59388W        W24615   2.685  32.927   3.241
59389W        W24616  35.161  17.728   4.077
59390W        W24617  29.485   5.756  14.304
59391W        W24618  16.273  42.514  14.786
59392W        W24619  21.992  11.069  12.128
59393W        W24620  18.129  27.690  11.170
59394W        W24621  36.692   6.636  11.159
59395W        W24622  25.042  41.560   3.742
59396W        W24623   5.946  36.348   4.176
59397W        W24624   3.466   6.875   3.350
59398W        W24625  38.916  23.304  13.038
59399W        W24626  13.281   9.364  11.138
59400W        W24627  36.322   5.919  13.806
59401W        W24628  13.632  19.181   0.210
59402W        W24629  11.835  36.805  11.207
59403W        W24630  17.708  25.810  12.689
59404W        W24631  21.190  41.054  11.559
59405W        W24632  18.180   9.110  13.812
59406W        W24633  34.197  22.672   4.205
59407W        W24634  18.780  37.284   0.261
59408W        W24635  31.341  21.333  11.650
59409W        W24636  25.856  36.796   3.029
59410W        W24637  39.049  27.534  10.725
59411W        W24638   9.547  19.797  14.544
59412W        W24639  24.399  14.289  11.926
59413W        W24640  29.929  32.814  13.748
59414W        W24641  23.849  23.599   4.479
59415W        W24642   2.451  22.538  10.156
59416W        W24643  16.667   4.706   2.545
59417W        W24644   5.597  23.557  11.677
59418W        W24645  34.928  43.931   4.126
59419W        W24646  11.074  18.756   0.812
59420W        W24647  40.468   7.822  14.416
59421W        W24648   9.377   2.788   1.946
59422W        W24649  11.154  10.029  13.335
59423W        W24650  12.851  14.384  10.512
59424W        W24651  40.084  11.131  13.386
59425W        W24652  43.653  38.844  12.962
59426W        W24653  43.939  14.720  11.517
59427W        W24654  13.704  20.976   2.737
59428W        W24655  17.219  34.445  11.273
59429W        W24656   5.874  32.954   2.694
59430W        W24657  14.123  34.968  13.852
59431W        W24658  38.485   9.809   1.155
59432W        W24659  26.371  16.856  14.873
59433W        W24660  26.608   5.942  14.789
59434W        W24661   8.609  28.679  11.200
59435W        W24662  22.232  37.632   1.442
59436W        W24663  34.918  31.504  13.993
59437W        W24664  35.347  34.927  14.033
59438W        W24665  17.221  37.746  13.743
59439W        W24666  22.056   3.205   2.335
59440W        W24667  22.346  26.599  10.826
59441W        W24668  30.586   9.229  11.971
59442W        W24669   7.395  19.832   4.574
59443W        W24670   5.181  19.009   1.220
59444W        W24671  35.038   6.676  12.888
59445W        W24672  29.578  13.267   1.291
59446W        W24673  38.594  42.135  12.914
59447W        W24674   2.859  41.537  10.590
59448W        W24675  34.175  35.568   3.135
59449W        W24676  42.380  41.098   2.502
59450W        W24677  14.259  13.662   3.735
59451W        W24678  23.776   6.152   3.639
59452W        W24679  41.035  22.260   2.775
59453W        W24680  29.838  34.736   2.676
59454W        W24681  36.220  30.978  13.933
59455W        W24682  33.482  35.868   3.637
59456W        W24683  32.220  43.734   2.102
59457W        W24684  38.885   9.205  13.405
59458W        W24685  18.805  13.003  14.430
59459W        W24686   8.752  29.006  10.537
59460W        W24687  20.341  41.633   3.695
59461W        W24688  10.086  25.128   5.206
59462W        W24689   5.291  13.778  10.769
59463W        W24690  15.740  10.893   4.674
59464W        W24691  23.384  28.435   4.562
59465W        W24692  44.320  37.555  14.309
59466W        W24693  36.018  23.606   4.647
59467W        W24694   4.912  11.313  13.698
59468W        W24695   9.961  31.861   3.216
59469W        W24696  25.076  37.432  14.760
59470W        W24697   7.194  32.945  11.732
59471W        W24698  17.241  17.171  13.718
59472W        W24699  27.934   0.236   1.778
59473W        W24700  18.348  11.891   3.393
59474W        W24701   5.448  18.970  14.865
59475W        W24702   3.870  24.703   3.372
59476W        W24703  40.816  42.899   2.908
59477W        W24704  22.243  26.217   0.290
59478W        W24705  10.360  40.273   0.372
59479W        W24706  19.198  23.947   0.552
59480W        W24707   3.574  26.415   4.571
59481W        W24708  34.788  44.990  11.232
59482W        W24709  39.514  10.131  11.138
59483W        W24710  18.857  28.653  11.129
59484W        W24711  14.813  28.225   0.324
59485W        W24712  32.709  22.789   0.557
59486W        W24713  11.671  35.381  12.516
59487W        W24714  25.088  21.443   2.360
59488W        W24715  16.993   5.113   4.634
59489W        W24716  33.567  35.628   1.489
59490W        W24717  39.839  23.579  11.200
59491W        W24718   3.779  23.580  11.625
59492W        W24719  14.471   5.164   1.487
59493W        W24720  29.403  21.498  12.112
59494W        W24721  34.324   1.347  13.426
59495W        W24722  32.689  14.335   1.920
59496W        W24723  32.362  34.185   0.820
59497W        W24724  19.275  20.567   1.384
59498W        W24725  19.067   9.660  12.925
59499W        W24726  44.418  30.846  11.071
59500W        W24727   4.648  38.570  11.052
59501W        W24728   8.850  11.231   4.518
59502W        W24729  24.678  36.693  13.018
59503W        W24730  17.710  32.520   3.410
59504W        W24731  40.859  40.551  14.878
59505W        W24732  15.236   0.071   2.218
59506W        W24733  10.448   8.696   0.048
59507W        W24734  19.753  32.651  13.344
59508W        W24735  31.132  17.188  12.922
59509W        W24736   0.998   2.949  12.452
59510W        W24737  28.934  12.858  14.915
59511W        W24738   2.915  22.106  14.384
59512W        W24739  22.626   8.670  11.691
59513W        W24740  33.754  35.865  11.134
59514W        W24741  17.299   7.212  14.961
59515W        W24742  24.198  28.846   4.378
59516W        W24743   4.326  11.819   2.064
59517W        W24744  26.588  36.047   2.852
59518W        W24745  18.855  10.228  12.074
59519W        W24746   7.138  24.389  11.684
59520W        W24747  11.307  23.988  14.859
59521W        W24748  39.065  19.643   1.394
59522W        W24749  36.098  44.245   3.831
59523W        W24750   5.788  21.756   4.245
59524W        W24751  38.453  42.237   1.120
59525W        W24752  32.214  18.737   5.123
59526W        W24753  28.557  18.173   4.138
59527W        W24754  38.321  22.512  14.476
59528W        W24755  42.782  33.615  14.400
59529W        W24756  36.330   5.198   0.393
59530W        W24757  34.311  35.941  12.952
59531W        W24758  36.826  27.638   4.104
59532W        W24759  10.296  19.547   4.111
59533W        W24760  14.092  10.974   2.425
59534W        W24761   3.523  24.941  11.532
59535W        W24762  30.216  19.113   0.472
59536W        W24763  31.333  20.757   3.439
59537W        W24764  33.630   5.818  11.432
59538W        W24765   4.335  12.608  14.013
59539W        W24766  15.246  35.525   2.264
59540W        W24767  30.133  34.763  13.033
59541W        W24768  22.673  20.036   4.574
59542W        W24769  19.354  38.351  10.716
59543W        W24770  29.577  34.038   0.151
59544W        W24771  27.996   1.153   1.706
59545W        W24772  12.001   3.370  12.015
59546W        W24773  20.052  38.764   0.512
59547W        W24774   5.377  10.727   0.040
59548W        W24775  35.596   4.755   3.393
59549W        W24776  11.661  23.414   3.376
59550W        W24777  22.449  13.189   3.283
59551W        W24778  29.721  35.834   0.826
59552W        W24779  41.073  16.757  10.775
59553W        W24780  17.265   3.443  14.026
59554W        W24781  43.281  26.461  14.442
59555W        W24782  39.256   3.694  12.504
59556W        W24783   2.946  29.511  11.182
59557W        W24784  37.607  14.568   2.781
59558W        W24785   7.356  33.178   2.731
59559W        W24786   5.426  30.554   1.659
59560W        W24787  21.623   4.684  14.284
59561W        W24788  15.059   0.444   4.015
59562W        W24789  15.335  33.439   1.404
59563W        W24790   0.007   1.184  14.840
59564W        W24791  12.179  24.678   3.685
59565W        W24792  24.680   2.699  13.533
59566W        W24793   7.662  27.465   0.851
59567W        W24794   7.822  19.741  11.499
59568W        W24795   7.778  33.419   3.740
59569W        W24796  20.166   3.418  11.544
59570W        W24797   8.416  40.574  13.461
59571W        W24798  17.293  33.313  14.022
59572W        W24799   6.761  11.761  12.813
59573W        W24800  24.840  38.361   4.072
59574W        W24801   2.825   0.936   1.273
59575W        W24802  18.071  36.452   2.685
59576W        W24803  27.559  29.664   0.812
59577W        W24804  40.874  41.605   4.880
59578W        W24805  26.238   4.363  13.971
59579W        W24806  14.732  22.949  10.771
59580W        W24807   7.950  22.389   1.895
59581W        W24808  27.693  44.783  11.555
59582W        W24809  26.554  43.806  13.380
59583W        W24810  43.940  30.867  10.788
59584W        W24811  28.601   9.850   2.256
59585W        W24812  35.640  31.438   3.713
59586W        W24813  15.829  22.272  10.699
59587W        W24814   2.736  35.950  12.156
59588W        W24815  42.489  32.113   4.061
59589W        W24816  17.894   8.148  11.709
59590W        W24817  22.212  16.612   3.571
59591W        W24818  22.549  16.856   9.894
59592W        W24819   4.980  15.833   0.746
59593W        W24820   9.412   7.138   2.887
59594W        W24821  26.979   1.075   3.434
59595W        W24822   9.166  28.534   0.214
59596W        W24823  18.173  35.304   4.179
59597W        W24824   6.306  35.200   0.464
59598W        W24825  16.637   6.361  13.937
59599W        W24826  20.099  31.057   1.879
59600W        W24827  43.332   3.755  13.206
59601W        W24828  19.080  40.816   1.824
59602W        W24829  34.055  30.183   2.816
59603W        W24830  11.571   1.687  14.984
59604W        W24831   5.991  15.243   9.913
59605W        W24832  20.475  39.330  12.060
59606W        W24833  17.340  14.173  10.663
59607W        W24834  31.142   8.413   2.364
59608W        W24835  31.308  36.903  14.796
59609W        W24836   2.347  33.031   0.523
59610W        W24837  34.082  23.299  12.070
59611W        W24838  23.195   7.335   1.395
59612W        W24839  43.429   3.228   3.908
59613W        W24840   2.977  11.132  12.341
59614W        W24841  15.327  20.577  13.011
59615W        W24842  43.336   9.541  12.589
59616W        W24843  23.808  21.145   3.842
59617W        W24844   7.381  25.738  14.765
59618W        W24845   7.746  15.517   1.677
59619W        W24846  27.280  41.451  12.752
59620W        W24847  25.587  15.045  11.189
59621W        W24848  32.617  37.067  14.313
59622W        W24849  14.457  23.066   0.812
59623W        W24850  28.610   5.806   2.987
59624W        W24851  25.173   0.133  12.201
59625W        W24852  29.707  33.234   4.139
59626W        W24853  17.210  13.146  11.628
59627W        W24854  39.210  30.207  11.132
59628W        W24855  18.694  25.067   2.905
59629W        W24856  25.467   5.222   4.070
59630W        W24857   5.185   1.812  14.910
59631W        W24858  19.187   6.591   0.527
59632W        W24859  33.501  36.637  13.985
59633W        W24860  26.888  22.462  10.753
59634W        W24861  17.659  17.061  14.407
59635W        W24862  30.263   7.577   2.606
59636W        W24863   1.469  25.332   0.754
59637W        W24864  44.717  33.062   2.735
59638W        W24865  35.985   8.008   4.632
59639W        W24866  44.664  33.596   1.673
59640W        W24867  24.242  27.607  13.999
59641W        W24868  12.815  20.289  11.561
59642W        W24869  19.578   6.175  14.921
59643W        W24870  21.128   3.883  12.089
59644W        W24871  33.507   9.621  13.786
59645W        W24872  28.739  35.399   4.124
59646W        W24873  27.937  37.387  11.100
59647W        W24874  40.224  25.572   4.025
59648W        W24875   4.658   9.255  11.708
59649W        W24876   9.841  11.154   4.628
59650W        W24877  10.988  26.318  13.010
59651W        W24878  34.512  32.821  11.552
59652W        W24879  38.933  12.823  13.904
59653W        W24880   7.264  34.007  13.285
59654W        W24881   6.217  35.482  12.616
59655W        W24882  28.679  12.959  11.967
59656W        W24883  16.691  20.896  11.364
59657W        W24884  16.128   3.905  10.524
59658W        W24885  41.744  26.632  14.417
59659W        W24886   4.989  14.213  14.318
59660W        W24887  36.703  35.813  11.174
59661W        W24888  43.697  37.769  11.649
59662W        W24889  38.653  15.427  11.133
59663W        W24890  12.331  11.358  14.630
59664W        W24891  44.667  23.764  11.666
59665W        W24892   3.824  24.645  14.551
59666W        W24893  18.227  26.885   0.766
59667W        W24894  39.605   3.307   2.538
59668W        W24895  42.977  32.304   0.023
59669W        W24896  12.225  11.609   2.605
59670W        W24897  34.892   6.299  14.883
59671W        W24898   9.429  21.513  12.466
59672W        W24899  17.099  13.584   2.215
59673W        W24900  31.562  15.193  14.400
59674W        W24901  30.694  30.870  13.944
59675W        W24902  23.079  22.080   0.452
59676W        W24903  32.285  43.388  14.875
59677W        W24904  36.613  21.968   1.192
59678W        W24905  33.915  21.624  12.460
59679W        W24906   0.285  17.156   4.172
59680W        W24907  30.356   3.272   2.207
59681W        W24908  15.140  10.912  12.952
59682W        W24909  38.031  40.876   1.403
59683W        W24910  36.967   8.906   4.177
59684W        W24911  38.117  20.725  13.261
59685W        W24912  37.546  32.579  11.485
59686W        W24913  19.807   2.810   3.754
59687W        W24914   7.115   6.892   3.312
59688W        W24915   5.062   9.597   2.695
59689W        W24916  22.709  40.060  13.410
59690W        W24917  43.520  11.413  10.667
59691W        W24918   6.124  12.819   0.248
59692W        W24919  43.782  17.706  11.253
59693W        W24920  10.682   3.465  10.753
59694W        W24921   9.841  21.833   4.556
59695W        W24922  40.167  35.695   4.370
59696W        W24923   7.771  40.707   5.096
59697W        W24924  23.972  14.193   3.979
59698W        W24925  13.246  11.825  11.490
59699W        W24926  29.894  14.688  10.170
59700W        W24927   6.776  34.546   1.755
59701W        W24928  24.208   5.152   3.557
59702W        W24929  26.512   4.934   4.564
59703W        W24930   0.833  36.320   1.392
59704W        W24931  39.370  10.931  14.257
59705W        W24932   9.400  24.158  14.846
59706W        W24933   6.719  35.666   0.503
59707W        W24934  18.061   8.231  10.855
59708W        W24935  33.986  12.581  11.191
59709W        W24936  14.231  17.777  13.045
59710W        W24937  28.064  12.523  11.978
59711W        W24938   7.547  26.971   3.266
59712W        W24939  17.674   4.820   2.772
59713W        W24940   0.984  22.804   2.309
59714W        W24941   9.070  35.502  10.348
59715W        W24942   6.077   9.428   4.777
59716W        W24943   1.363  34.501  12.948
59717W        W24944   1.292  24.095   4.108
59718W        W24945  20.038  41.533   2.108
59719W        W24946  10.106  26.539   4.737
59720W        W24947   9.161  18.615  14.828
59721W        W24948  14.097  16.813  10.775
59722W        W24949  24.117  19.583  11.066
59723W        W24950  14.588  14.406  14.996
59724W        W24951  38.441  44.965   4.649
59725W        W24952  33.927  28.286  10.220
59726W        W24953   4.229  18.375  11.145
59727W        W24954  44.593  20.990   2.258
59728W        W24955  31.000  19.655  12.513
59729W        W24956  32.582  42.128  12.904
59730W        W24957   4.643  13.343  12.602
59731W        W24958  40.291  23.719   1.357
59732W        W24959  31.638  34.926   2.875
59733W        W24960  26.436  10.480  13.476
59734W        W24961  19.870  12.225  13.644
59735W        W24962  20.966   8.739  14.971
59736W        W24963   7.414   6.069  13.031
59737W        W24964   0.357  29.150  14.744
59738W        W24965   9.545  36.557   3.243
59739W        W24966   5.485  15.783   4.964
59740W        W24967   1.362  32.595  12.578
59741W        W24968  42.196  29.746   5.081
59742W        W24969  14.108  24.324   1.870
59743W        W24970   2.814  26.497  14.320
59744W        W24971  20.716  12.184   4.605
59745W        W24972  30.975  12.802  14.108
59746W        W24973  10.882  42.319   1.599
59747W        W24974  39.005  40.288  13.038
59748W        W24975  26.714  25.485   0.386
59749W        W24976   5.915   8.653   3.798
59750W        W24977  19.640  11.291   2.399
59751W        W24978  19.182  18.278  11.889
59752W        W24979  12.288  16.086  11.543
59753W        W24980  30.490   3.325   4.005
59754W        W24981   5.753  44.282  14.251
59755W        W24982  12.296  15.371   3.799
59756W        W24983  31.294   6.224  10.774
59757W        W24984  41.726  41.103   0.298
59758W        W24985  25.933   7.375   4.092
59759W        W24986  15.820  36.397   3.020
59760W        W24987  31.147  31.189  10.607
59761W        W24988   5.345  25.651  12.170
59762W        W24989  37.355  23.796  12.447
59763W        W24990  27.094  17.599  14.966
59764W        W24991  42.488  14.659   2.256
59765W        W24992   5.626  15.072   3.881
59766W        W24993  32.876  43.033  14.546
59767W        W24994  19.040  43.690  11.583
59768W        W24995  31.575  22.690  14.982
59769W        W24996  17.010  22.449   2.240
59770W        W24997  14.154  43.380  11.191
59771W        W24998  44.385  23.418   4.016
59772W        W24999  21.287  39.406  13.184
59773W        W25000   8.639   4.306   1.723
59774W        W25001   5.142  16.836  10.847
59775W        W25002  20.718  34.311  10.648
59776W        W25003  12.246  15.480   2.306
59777W        W25004  15.571   5.721   1.024
59778W        W25005  21.660  22.423  13.599
59779W        W25006  31.262  20.257  12.731
59780W        W25007  13.293   5.396  14.701
59781W        W25008   8.436  41.525   2.797
59782W        W25009  21.191  43.150  12.228
59783W        W25010  11.255  12.798   3.122
59784W        W25011   4.502  36.053   1.798
59785W        W25012  34.547  16.632   3.026
59786W        W25013  11.218  39.722  11.066
59787W        W25014  30.928   2.782  12.163
59788W        W25015  20.518  43.085   1.265
59789W        W25016  25.323  15.742  13.797
59790W        W25017  36.910  28.109  11.682
59791W        W25018  20.524   6.487  11.133
59792W        W25019  29.848  16.029  15.000
59793W        W25020  38.707  44.685   1.173
59794W        W25021  14.026  35.422  13.575
59795W        W25022  42.463   4.467   4.577
59796W        W25023  33.125  44.422   0.315
59797W        W25024  34.828  32.572  10.773
59798W        W25025   6.533   4.146   3.336
59799W        W25026   6.894  41.817  11.095
59800W        W25027  40.359   5.898   0.454
59801W        W25028  22.087  20.608   4.515
59802W        W25029  33.664  18.952   4.538
59803W        W25030  22.490   7.837   1.896
59804W        W25031   6.804   9.384  13.544
59805W        W25032  33.271  29.994   1.428
59806W        W25033  16.623  11.883  14.506
59807W        W25034  28.968  23.234  12.917
59808W        W25035  21.516   6.470   3.667
59809W        W25036  34.438  20.234   4.717
59810W        W25037  38.467   5.270  14.146
59811W        W25038   4.814  17.041  14.181
59812W        W25039   3.869  33.863   1.630
59813W        W25040  15.020  25.548  13.368
59814W        W25041  33.969  13.351   1.798
59815W        W25042  27.449  27.433  11.228
59816W        W25043  19.672  25.934  14.987
59817W        W25044  40.339  10.332   0.383
59818W        W25045  26.871  25.483   2.612
59819W        W25046  44.566  36.896  13.460
59820W        W25047   3.697  10.721  11.266
59821W        W25048  28.540  13.351   3.685
59822W        W25049   5.320  28.413   2.458
59823W        W25050  43.116   1.920   2.397
59824W        W25051  40.392  33.618   3.749
59825W        W25052  39.550  20.064   4.064
59826W        W25053  36.156  15.613   1.398
59827W        W25054  28.941  12.910  11.530
59828W        W25055  38.652   3.965   0.365
59829W        W25056  26.611   7.867  13.910
59830W        W25057  44.706  26.722   1.678
59831W        W25058  37.831  22.884  13.929
59832W        W25059  34.541  18.546   4.226
59833W        W25060  37.933  16.537   0.331
59834W        W25061  24.517  44.823  12.967
59835W        W25062  33.024   4.274  14.949
59836W        W25063  43.865  36.455   1.572
59837W        W25064   0.041  43.353  14.919
59838W        W25065  38.845  36.219  13.877
59839W        W25066  27.424  17.015  14.078
59840W        W25067   2.715  30.186   5.049
59841W        W25068   7.544   2.761  10.373
59842W        W25069   7.245  14.354  11.668
59843W        W25070  13.961  39.474   4.551
59844W        W25071  29.881   8.019  14.037
59845W        W25072  39.807   2.391   2.080
59846W        W25073  11.831  41.373  11.778
59847W        W25074  42.980  38.979   3.083
59848W        W25075  16.957  19.713   4.428
59849W        W25076  20.509  35.432   0.856
59850W        W25077   4.879  34.159  14.236
59851W        W25078  17.774  14.636   1.887
59852W        W25079  17.973  25.370   2.246
59853W        W25080   1.564  14.151  12.483
59854W        W25081   9.784  32.434  12.525
59855W        W25082  42.829  39.155  14.961
59856W        W25083  22.707   8.157   3.352
59857W        W25084   2.262  23.353  12.746
59858W        W25085  23.095  16.369   2.396
59859W        W25086  15.681  41.282   3.626
59860W        W25087  34.368  38.054   4.447
59861W        W25088  26.928   9.261  11.289
59862W        W25089  15.069  37.896   4.127
59863W        W25090  41.678  42.543  13.061
59864W        W25091  13.736  20.536   4.383
59865W        W25092  13.480  37.661   3.586
59866W        W25093   5.359   5.992  12.115
59867W        W25094  41.787  39.952  11.722
59868W        W25095   3.252  17.259   0.944
59869W        W25096  41.134  21.964  12.253
59870W        W25097  37.812  44.937   4.289
59871W        W25098   4.387  36.017  12.016
59872W        W25099  24.686  35.626  14.807
59873W        W25100   4.355   9.060  11.157
59874W        W25101  41.047   4.957   2.831
59875W        W25102  18.703  28.657  14.853
59876W        W25103  21.122  29.040   2.678
59877W        W25104  33.461  12.408   2.756
59878W        W25105  13.085  10.817   0.737
59879W        W25106  42.805  10.388  14.387
59880W        W25107  16.484  26.920  14.253
59881W        W25108  36.305   4.816   0.823
59882W        W25109  41.049  25.140   3.574
59883W        W25110   6.675  32.581   1.305
59884W        W25111   2.858  11.204   2.895
59885W        W25112  31.268  36.599   2.169
59886W        W25113  16.153   2.879   0.731
59887W        W25114   1.915   7.710  10.415
59888W        W25115  20.325   5.963  14.449
59889W        W25116  37.309  15.723  14.691
59890W        W25117   4.374   3.017   5.023
59891W        W25118   2.759   7.743  11.210
59892W        W25119  40.005   9.416  11.633
59893W        W25120  44.444  18.699  11.714
59894W        W25121  31.459   9.593  14.385
59895W        W25122  30.836  35.026   0.870
59896W        W25123  31.853  29.432  11.779
59897W        W25124   6.353  36.670   2.046
59898W        W25125  26.640   4.667  13.800
59899W        W25126   7.262  32.083   0.570
59900W        W25127  23.462  20.767   0.253
59901W        W25128  26.936   0.957  12.197
59902W        W25129  30.891   1.960  11.631
59903W        W25130  42.745  15.038   1.464
59904W        W25131  11.217   2.155   0.437
59905W        W25132   2.402  41.753  14.401
59906W        W25133   7.010  36.484  11.688
59907W        W25134  34.912  20.166  11.188
59908W        W25135  30.308  37.066   2.656
59909W        W25136   3.992   8.077   3.346
59910W        W25137  27.698  33.123  14.299
59911W        W25138  38.755  29.760  13.373
59912W        W25139  29.506   1.060  11.113
59913W        W25140  39.812  44.955  14.519
59914W        W25141  15.792  40.942   1.768
59915W        W25142  33.412  29.530   1.641
59916W        W25143  28.969   2.669  10.666
59917W        W25144  30.887  21.217   2.067
59918W        W25145  44.690  21.661  12.139
59919W        W25146  28.130  13.827   2.587
59920W        W25147   6.552  11.086   3.434
59921W        W25148  19.573  39.659   3.231
59922W        W25149  33.369  21.652  14.933
59923W        W25150   7.658  19.626   2.458
59924W        W25151  20.622   1.529   1.705
59925W        W25152  14.802  33.351   4.989
59926W        W25153  12.538   1.249  13.437
59927W        W25154  34.241  24.921  11.777
59928W        W25155  42.319   6.229   4.954
59929W        W25156  24.875  44.780  11.071
59930W        W25157   6.398  25.067  11.509
59931W        W25158   7.294  26.625   0.931
59932W        W25159  34.564   6.857  10.724
59933W        W25160  29.915   0.227   4.228
59934W        W25161  19.516   9.262  10.745
59935W        W25162  43.628   4.402   1.270
59936W        W25163  40.085  38.909   4.118
59937W        W25164  38.935  31.989   2.587
59938W        W25165  15.189  31.073   1.434
59939W        W25166  44.333  39.017  12.034
59940W        W25167  35.740  31.030   0.755
59941W        W25168  10.262  23.282  12.619
59942W        W25169  13.600  34.530   2.147
59943W        W25170   0.432   2.733  14.923
59944W        W25171   8.159  18.555   3.196
59945W        W25172  25.201  20.123  13.684
59946W        W25173  24.186  41.636  12.289
59947W        W25174   1.015  21.237  11.117
59948W        W25175  27.408  26.765   1.877
59949W        W25176  39.596  21.044   2.801
59950W        W25177  31.908  39.270   1.162
59951W        W25178  42.967   1.702   0.268
59952W        W25179  15.515   9.322  11.678
59953W        W25180  17.086  28.951   0.715
59954W        W25181   4.443  21.223   3.198
59955W        W25182  40.620  33.581  11.514
59956W        W25183  21.306  38.362  13.350
59957W        W25184   3.937  37.479  11.170
59958W        W25185   6.600  44.036   0.202
59959W        W25186  21.167  11.402   4.690
59960W        W25187   4.268  21.061   3.655
59961W        W25188   3.227   3.854   0.328
59962W        W25189  31.808  20.889   3.645
59963W        W25190  31.965  29.518   3.616
59964W        W25191  43.135   4.460  12.734
59965W        W25192   7.576  22.122   0.422
59966W        W25193  23.624  15.756   4.453
59967W        W25194  13.058  19.290  11.966
59968W        W25195  32.121  20.135   0.886
59969W        W25196   3.786   0.326  11.632
59970W        W25197  43.404  24.709  14.841
59971W        W25198  23.245  28.595   0.862
59972W        W25199  37.604  25.036  11.075
59973W        W25200  12.558  25.173  14.545
59974W        W25201  32.677  21.125  12.484
59975W        W25202   2.353  13.843  14.482
59976W        W25203   9.722  12.373   3.653
59977W        W25204   2.002  36.080  12.812
59978W        W25205  37.616  20.250  11.628
59979W        W25206  38.929  41.212  11.282
59980W        W25207  43.270  38.577   3.684
59981W        W25208  13.105  18.272  14.090
59982W        W25209  38.474  27.322   2.585
59983W        W25210  36.480  22.633  14.080
59984W        W25211  44.138  28.544  11.533
59985W        W25212  19.652  13.866   0.944
59986W        W25213  11.145  18.976   3.105
59987W        W25214  24.853  25.012   4.011
59988W        W25215  10.425  39.567  12.130
59989W        W25216  31.587   6.291  12.120
59990W        W25217  38.535   9.659   1.623
59991W        W25218  12.113  26.271  13.729
59992W        W25219   0.378  31.979   4.489
59993W        W25220  44.473  26.641   2.824
59994W        W25221  18.109  36.600  13.420
59995W        W25222  42.790   7.946   0.790
59996W        W25223  19.670  40.054   1.343
59997W        W25224  13.353  39.643   4.064
59998W        W25225  22.679  32.819   3.581
59999W        W25226  29.448  38.291   0.719
60000W        W25227  44.864  23.193  14.270
60001W        W25228  14.044  25.935  11.572
60002W        W25229  21.869  43.636  13.095
60003W        W25230  20.946   3.711  11.077
60004W        W25231  39.555  10.138   4.220
60005W        W25232  24.037  19.672  13.855
60006W        W25233  33.797  41.001  12.464
60007W        W25234  23.742  12.812  12.965
60008W        W25235   2.867  43.876   1.768
60009W        W25236  33.406  40.297  11.299
60010W        W25237  15.634  25.471   4.622
60011W        W25238  18.297  34.026  13.767
60012W        W25239  35.700  38.548  11.241
60013W        W25240  30.474  17.959   4.574
60014W        W25241   7.183  31.975  10.365
60015W        W25242  34.308  23.042  13.475
60016W        W25243  10.687  30.733  12.821
60017W        W25244  20.370  18.416   1.325
60018W        W25245   8.890   4.517   1.269
60019W        W25246  13.050   4.375   0.444
60020W        W25247  29.501  31.525  13.979
60021W        W25248  36.841  10.082   0.290
60022W        W25249  13.782  19.884  11.608
60023W        W25250   4.552  39.024  12.410
60024W        W25251  19.102  28.865   1.708
60025W        W25252   4.929  33.161  13.965
60026W        W25253  21.637  27.957  13.355
60027W        W25254  13.326  44.285   4.236
60028W        W25255  36.081  12.669   2.006
60029W        W25256  38.808  27.865  11.689
60030W        W25257  36.579   5.509  14.010
60031W        W25258  42.889  35.859  10.418
60032W        W25259  41.754  21.252  14.882
60033W        W25260  20.774  18.410   3.216
60034W        W25261   7.289  23.519  11.419
60035W        W25262  39.003  22.454   0.671
60036W        W25263  39.089   1.977  12.897
60037W        W25264  14.126   4.506  13.002
60038W        W25265  14.807  23.365  10.352
60039W        W25266  40.568  15.455   0.610
60040W        W25267  36.596   8.359  11.621
60041W        W25268  41.906  17.714  10.940
60042W        W25269  44.831  11.302   0.407
60043W        W25270  38.004   8.420  11.685
60044W        W25271  17.323  40.905   1.429
60045W        W25272  31.847   7.695  13.406
60046W        W25273  33.598  27.637   2.275
60047W        W25274  16.839  24.665  11.170
60048W        W25275  37.055  11.428  13.600
60049W        W25276  44.479  27.984  12.589
60050W        W25277   9.838   0.265   0.120
60051W        W25278  14.118  24.930  14.796
60052W        W25279  26.931  23.604   2.922
60053W        W25280  43.496  35.776   0.671
60054W        W25281  23.782   4.786   3.590
60055W        W25282  34.442  30.599  14.454
60056W        W25283  11.362  39.876  14.282
60057W        W25284   2.511   1.367  13.470
60058W        W25285  19.094  31.077  13.598
60059W        W25286  42.630   3.686  11.104
60060W        W25287  27.261  28.865   3.810
60061W        W25288  11.610  26.434   3.291
60062W        W25289   8.396   9.350   2.208
60063W        W25290   6.427  44.277   1.970
60064W        W25291  13.032  23.007  12.550
60065W        W25292   3.261  41.898  11.997
60066W        W25293  26.314  14.320  13.249
60067W        W25294  25.676   1.482   3.565
60068W        W25295  39.675  31.317   0.411
60069W        W25296   8.690  24.651   1.368
60070W        W25297   7.429  12.226   0.209
60071W        W25298  36.848  13.574   1.273
60072W        W25299  26.912  25.905  11.117
60073W        W25300  22.291  43.504  14.921
60074W        W25301  37.825  29.906  11.111
60075W        W25302  25.155  31.432   1.397
60076W        W25303  37.512   6.214   3.089
60077W        W25304  43.394   2.927   2.642
60078W        W25305  28.157  24.145  11.628
60079W        W25306   4.862  43.227  11.989
60080W        W25307  31.013  31.996   1.646
60081W        W25308  14.376  27.970  10.285
60082W        W25309   2.926   8.488  13.080
60083W        W25310  43.049  19.371   0.007
60084W        W25311  20.485   1.988   4.087
60085W        W25312  15.330  13.862   1.899
60086W        W25313   0.997  22.826   5.335
60087W        W25314  23.497  35.590   3.430
60088W        W25315  36.231   0.708  14.397
60089W        W25316  28.711   9.814   2.821
60090W        W25317  38.475   6.049  12.933
60091W        W25318  38.627  20.321  10.647
60092W        W25319   7.264   3.587   0.460
60093W        W25320  22.694  36.905  14.778
60094W        W25321  13.589  11.854  12.167
60095W        W25322  36.544   4.490  12.371
60096W        W25323  20.628  40.674  10.605
60097W        W25324   2.393  32.645   3.573
60098W        W25325  15.156  18.579  11.677
60099W        W25326  20.643  29.568   2.194
60100W        W25327  33.618  28.987  10.646
60101W        W25328  31.900  34.953  11.398
60102W        W25329  43.295  26.432  11.177
60103W        W25330  21.973  33.053  10.599
60104W        W25331  41.052  14.821  14.344
60105W        W25332  23.715   0.867   3.170
60106W        W25333  42.965  33.227   2.613
60107W        W25334   5.906  27.140  12.493
60108W        W25335  36.918  15.363   1.832
60109W        W25336  10.630   5.315  12.013
60110W        W25337  22.082  30.107  11.585
60111W        W25338  26.574   7.859   4.555
60112W        W25339  25.980   3.317  14.819
60113W        W25340  43.555  26.519   4.703
60114W        W25341  22.535  23.129   4.781
60115W        W25342   2.639  33.127  13.001
60116W        W25343   5.717  40.384  10.985
60117W        W25344   8.882  11.119  12.532
60118W        W25345  21.097   1.737   2.348
60119W        W25346  34.083  13.122  11.557
60120W        W25347  10.267  11.627   5.008
60121W        W25348  10.482  41.345   4.457
60122W        W25349  16.551   5.075   2.881
60123W        W25350   7.741   7.654   0.444
60124W        W25351   9.181   4.227   2.261
60125W        W25352  25.135  39.656   3.675
60126W        W25353  24.518  44.468   4.074
60127W        W25354  21.721  19.102  11.078
60128W        W25355   9.182  36.096   1.338
60129W        W25356  32.474  17.285   4.583
60130W        W25357  38.037   7.918  12.134
60131W        W25358  34.823  27.525  12.000
60132W        W25359  13.553  14.685   0.973
60133W        W25360  26.424   5.187   4.124
60134W        W25361  22.523  17.214   2.807
60135W        W25362  17.656  35.974   4.207
60136W        W25363   9.289  36.999  12.505
60137W        W25364  29.519  11.475   1.981
60138W        W25365  19.732  37.321  12.400
60139W        W25366  41.274  29.859  13.527
60140W        W25367  40.856  34.158  13.454
60141W        W25368  16.239  38.507  14.408
60142W        W25369  32.199  21.789  10.026
60143W        W25370  17.852  31.025   0.384
60144W        W25371  12.855   2.699  13.881
60145W        W25372  30.022   2.954  11.691
60146W        W25373  44.459  38.484  12.148
60147W        W25374   3.739  13.555   4.667
60148W        W25375  10.208  20.051   4.218
60149W        W25376   7.357   6.081   4.605
60150W        W25377  34.686  42.833  14.955
60151W        W25378   2.468  13.591   2.897
60152W        W25379  34.488  28.050  13.799
60153W        W25380  32.428  38.378  12.553
60154W        W25381  31.806  10.013   2.186
60155W        W25382  17.238   0.216   1.661
60156W        W25383  30.993  19.229   3.334
60157W        W25384   5.500  21.203   0.864
60158W        W25385  41.404  23.299   3.545
60159W        W25386  32.474  29.186   0.954
60160W        W25387  13.853  30.853   3.176
60161W        W25388  36.512  33.126   4.222
60162W        W25389  22.111  33.353   2.816
60163W        W25390  37.817  40.724  12.081
60164W        W25391  37.656  35.954  12.440
60165W        W25392   2.114  26.334   1.442
60166W        W25393  44.412  18.085  14.867
60167W        W25394  23.292  39.643   4.159
60168W        W25395  37.906  11.418   3.411
60169W        W25396  28.060  25.327   1.968
60170W        W25397  29.112  18.745  12.387
60171W        W25398  35.832   3.804   3.158
60172W        W25399  35.234  12.831  13.716
60173W        W25400   5.674  25.931   1.150
60174W        W25401  38.044   9.953   1.449
60175W        W25402  19.688  31.470   4.484
60176W        W25403  11.628  40.298  13.646
60177W        W25404  19.073  11.813  13.858
60178W        W25405  42.966  24.589   4.420
60179W        W25406  30.630  22.648   4.159
60180W        W25407  29.744   5.776   4.203
60181W        W25408   7.088   2.109  13.705
60182W        W25409   6.214  18.746  11.609
60183W        W25410  19.064  29.201  14.406
60184W        W25411  22.571  18.092  13.261
60185W        W25412  35.406  16.834   0.393
60186W        W25413  41.893  43.098  13.839
60187W        W25414  26.211  31.255   1.890
60188W        W25415  11.683  21.067  11.663
60189W        W25416  20.144  23.451  13.440
60190W        W25417  28.924   4.619   3.239
60191W        W25418  34.389  42.046  11.675
60192W        W25419  44.575   0.972   0.752
60193W        W25420  42.504  34.663  11.202
60194W        W25421  14.891  11.273   2.420
60195W        W25422  38.432  41.499  12.125
60196W        W25423   5.726  26.756   0.477
60197W        W25424  18.268  33.082   0.421
60198W        W25425  17.906  36.046   3.734
60199W        W25426   6.568   2.202   0.211
60200W        W25427  18.378  44.311  14.920
60201W        W25428   9.675  31.868   4.529
60202W        W25429   8.974  11.721   4.627
60203W        W25430   1.034  22.256  11.986
60204W        W25431  30.971  38.093  12.009
60205W        W25432  15.377  20.626   1.658
60206W        W25433  22.564  29.204  12.590
60207W        W25434  18.726  34.470   4.732
60208W        W25435   3.195   4.421  11.179
60209W        W25436   3.768  32.727   3.998
60210W        W25437  14.144  16.046   4.808
60211W        W25438  42.117  42.511   3.822
60212W        W25439  43.274  44.954   3.636
60213W        W25440  21.731  28.796   1.418
60214W        W25441  21.493   2.784  13.601
60215W        W25442  18.800   3.157   1.447
60216W        W25443  13.772   4.425   4.141
60217W        W25444  15.790  15.704   3.137
60218W        W25445  34.141  24.064   3.724
60219W        W25446   5.107  26.565   3.139
60220W        W25447  34.183  34.866  10.623
60221W        W25448  44.976  28.074  13.865
60222W        W25449   6.285  34.934   4.679
60223W        W25450  32.046  16.723  13.060
60224W        W25451  15.669  10.390  14.862
60225W        W25452  26.009  10.242  12.557
60226W        W25453   5.876  37.069  14.019
60227W        W25454  35.894  12.204   0.850
60228W        W25455  33.903  17.490   1.146
60229W        W25456  25.225   8.183  11.300
60230W        W25457   3.264  41.910  13.915
60231W        W25458  23.442  26.897  11.919
60232W        W25459  20.784  27.720   3.463
60233W        W25460   7.472  40.535   3.778
60234W        W25461  11.815   6.584  12.373
60235W        W25462  15.954   8.416   0.299
60236W        W25463   5.949   2.622  13.107
60237W        W25464  33.825  24.283   1.797
60238W        W25465  38.605  31.317  13.793
60239W        W25466  21.714  38.636  11.179
60240W        W25467  36.875  14.438   1.502
60241W        W25468   9.689  16.809   3.248
60242W        W25469   4.370   6.100   0.599
60243W        W25470  39.098   2.839  12.171
60244W        W25471  35.072  18.565   4.262
60245W        W25472  38.815  12.848  12.073
60246W        W25473  23.606  42.952  11.936
60247W        W25474  37.911  17.079   0.312
60248W        W25475  25.142  36.809  12.176
60249W        W25476  34.421  39.041   3.335
60250W        W25477   3.768  29.793   1.743
60251W        W25478  35.254  35.091   4.367
60252W        W25479   0.232  40.422   2.740
60253W        W25480  31.616   8.043   0.333
60254W        W25481  31.597   3.403  14.462
60255W        W25482  11.946  37.296  12.539
60256W        W25483   3.950  29.456   4.088
60257W        W25484  11.641  23.768   3.004
60258W        W25485   7.104  17.930  13.067
60259W        W25486  37.812  44.377  11.617
60260W        W25487  37.110  38.491   4.168
60261W        W25488  31.134   0.017  14.862
60262W        W25489   6.345  12.245  11.621
60263W        W25490  23.095  11.104   3.542
60264W        W25491  44.150  18.033  11.203
60265W        W25492  40.527  32.996  13.330
60266W        W25493  14.251  39.847  11.558
60267W        W25494  20.796   8.395  12.353
60268W        W25495  44.403  15.052   4.865
60269W        W25496   9.124  17.003   0.346
60270W        W25497  42.509  23.046  14.682
60271W        W25498  27.262  20.544  12.618
60272W        W25499   2.196  32.135   0.987
60273W        W25500  14.303  23.519   2.257
60274W        W25501  42.559   8.035  11.024
60275W        W25502  20.058  30.102  14.396
60276W        W25503  41.573  44.910  11.995
60277W        W25504   8.156  37.571   3.592
60278W        W25505  38.020  38.352   2.830
60279W        W25506   9.173  38.854   3.360
60280W        W25507  33.461  43.898  13.538
60281W        W25508   0.636  40.862  11.916
60282W        W25509   0.027  16.497   9.898
60283W        W25510  17.790   8.818   4.451
60284W        W25511  21.390   3.988  11.117
60285W        W25512  31.549  27.654   1.655
60286W        W25513   9.120   0.671   1.072
60287W        W25514  29.777  20.269  10.871
60288W        W25515  37.752  21.626  11.831
60289W        W25516  31.733  37.147   4.453
60290W        W25517  27.432  26.210   4.646
60291W        W25518  12.188  43.993  14.008
60292W        W25519  20.682  22.426  11.747
60293W        W25520   4.994  15.620  11.490
60294W        W25521  42.522  31.621   4.748
60295W        W25522   4.040  19.081   4.617
60296W        W25523  12.371   7.808   2.282
60297W        W25524   4.893  28.462  14.255
60298W        W25525  38.564  27.707  10.571
60299W        W25526  16.063  27.304  11.573
60300W        W25527  16.335  21.121  13.042
60301W        W25528  43.957  21.015  13.734
60302W        W25529  10.868  10.143  10.326
60303W        W25530  21.809  21.095   3.854
60304W        W25531  38.817  23.773   1.829
60305W        W25532   2.705   4.603   3.624
60306W        W25533  22.206   3.535   3.782
60307W        W25534  20.957   3.699   3.245
60308W        W25535   5.820  27.246  13.350
60309W        W25536  28.194  44.033   3.900
60310W        W25537  27.024  34.060   4.881
60311W        W25538  41.838   2.689  12.441
60312W        W25539   7.853  26.005   3.561
60313W        W25540  35.043   4.085   1.142
60314W        W25541  17.955  27.987   3.187
60315W        W25542  15.687  16.192  11.254
60316W        W25543  28.420   2.450   2.665
60317W        W25544  25.581  15.849   0.857
60318W        W25545  17.826  39.766   3.337
60319W        W25546  16.083  37.974  10.943
60320W        W25547  34.407  34.102  11.224
60321W        W25548  11.231   5.905  14.979
60322W        W25549   5.965   5.466   2.429
60323W        W25550  39.870  27.060  13.405
60324W        W25551  37.959  15.630  13.101
60325W        W25552  41.316  37.091   0.385
60326W        W25553   3.778   5.000   1.886
60327W        W25554   2.029  13.969  14.870
60328W        W25555  32.426  19.846  13.390
60329W        W25556  22.537  39.160  12.435
60330W        W25557   4.747  22.033  11.933
60331W        W25558  29.725  20.198  13.886
60332W        W25559  26.979   5.475  12.902
60333W        W25560   3.765  37.067   1.232
60334W        W25561  27.745  27.660   1.215
60335W        W25562  27.081  32.687   0.442
60336W        W25563  15.322  12.380   0.864
60337W        W25564  23.817  38.377   1.495
60338W        W25565  42.539  29.331  13.580
60339W        W25566  25.422  24.175  11.565
60340W        W25567  10.889   2.686   0.804
60341W        W25568  10.923  17.854   4.197
60342W        W25569   7.192  38.980  11.657
60343W        W25570  21.911  24.547  10.527
60344W        W25571   9.770   0.691  12.498
60345W        W25572  24.194  36.341   2.354
60346W        W25573  21.663   9.669   0.816
60347W        W25574  15.565  12.797  14.338
60348W        W25575  34.030  25.193   1.249
60349W        W25576  29.524  31.119   2.465
60350W        W25577  22.112  36.894  10.762
60351W        W25578  30.021  42.293  10.925
60352W        W25579  26.408  33.427   1.329
60353W        W25580  31.352  17.370  13.930
60354W        W25581   8.581  14.167   3.608
60355W        W25582  11.115   4.866   1.397
60356W        W25583  32.115   3.368   1.280
60357W        W25584  25.567  22.536  12.374
60358W        W25585  33.153  28.646  13.794
60359W        W25586  25.707  10.731   2.766
60360W        W25587   0.647   8.225  11.630
60361W        W25588  18.948  30.588  12.910
60362W        W25589  29.664  32.303   5.189
60363W        W25590  20.495   5.024  12.043
60364W        W25591   0.385   3.292   3.186
60365W        W25592  25.227  36.117   0.103
60366W        W25593  17.806  11.822  11.580
60367W        W25594  13.203  38.337   1.900
60368W        W25595  14.596   9.396   2.061
60369W        W25596   7.615  17.121  14.437
60370W        W25597   8.641  38.507   2.283
60371W        W25598  34.661   7.545   0.349
60372W        W25599   2.320  10.480  11.446
60373W        W25600  11.163   7.769  10.830
60374W        W25601   7.996  27.852   0.881
60375W        W25602   1.884  39.762  12.382
60376W        W25603  36.304  20.647   3.082
60377W        W25604   7.114  22.688  11.982
60378W        W25605   7.687  23.054  13.271
60379W        W25606   3.016   9.271  13.570
60380W        W25607  25.812  16.261   1.279
60381W        W25608  18.062   0.383   0.762
60382W        W25609   0.092  40.330   4.525
60383W        W25610   0.958  10.182  13.388
60384W        W25611   7.353  41.811  14.436
60385W        W25612  26.904  15.078  11.205
60386W        W25613  42.046  24.979   3.567
60387W        W25614  11.461  29.639  10.306
60388W        W25615  37.439  33.109   0.428
60389W        W25616  22.121  19.754   0.841
60390W        W25617  13.864  32.054   4.030
60391W        W25618  43.706  26.633  10.086
60392W        W25619  44.903  39.555  13.176
60393W        W25620   7.687   0.010   0.358
60394W        W25621  43.013   2.361   1.661
60395W        W25622  18.336  26.331  11.474
60396W        W25623  42.154   4.242  13.387
60397W        W25624  39.808  34.946   4.217
60398W        W25625   1.131  10.304  14.874
60399W        W25626  14.869  26.147   2.126
60400W        W25627  23.538  26.899   1.237
60401W        W25628  28.873   6.698  10.869
60402W        W25629  17.364   5.234  10.798
60403W        W25630  11.977  20.937   2.974
60404W        W25631  20.712  44.953   2.551
60405W        W25632   6.964  25.027   0.280
60406W        W25633  13.833  39.893   2.805
60407W        W25634  37.407   0.410  13.441
60408W        W25635  39.606  12.861   0.857
60409W        W25636  16.315  11.150  11.184
60410W        W25637   5.863  26.382  10.798
60411W        W25638  39.866   0.343   2.547
60412W        W25639  11.638  35.939  12.532
60413W        W25640  14.064   8.815  10.550
60414W        W25641   0.161  21.294   4.156
60415W        W25642  24.102  25.435   3.885
60416W        W25643  12.369  29.794   0.782
60417W        W25644  19.120  24.160  12.017
60418W        W25645  31.847  34.819  14.807
60419W        W25646   3.387   6.205  11.655
60420W        W25647  35.943  26.511  11.645
60421W        W25648   9.240  11.680  11.568
60422W        W25649   9.130  35.855   0.750
60423W        W25650  25.527   9.148   4.825
60424W        W25651  26.037  42.636   5.014
60425W        W25652  23.530  15.821   3.939
60426W        W25653  12.673  36.821   3.199
60427W        W25654  34.530  29.128   1.805
60428W        W25655  33.703  10.120   4.563
60429W        W25656  39.812  35.588  10.840
60430W        W25657  39.834  38.344  13.902
60431W        W25658  38.145  36.473  14.968
60432W        W25659  22.196  32.367   0.132
60433W        W25660  29.062   8.629  12.496
60434W        W25661  43.412  22.809  13.502
60435W        W25662  36.757  28.656   1.817
60436W        W25663  26.623  39.818   3.646
60437W        W25664   4.528  38.401  14.798
60438W        W25665  33.897  39.809   2.892
60439W        W25666  32.372  10.589   0.587
60440W        W25667   6.177   7.777   2.807
60441W        W25668  15.614   1.961  11.384
60442W        W25669   6.323  44.019  13.368
60443W        W25670  29.113  14.017  10.409
60444W        W25671  42.779  37.336   4.257
60445W        W25672  33.353   8.871  13.248
60446W        W25673  17.512  26.001   1.232
60447W        W25674  11.868   5.099  11.645
60448W        W25675  12.869  35.481  12.930
60449W        W25676  37.748  30.363   4.954
60450W        W25677  27.014  24.183  14.080
60451W        W25678  21.703   6.155  14.795
60452W        W25679   9.899  43.226   1.015
60453W        W25680   5.594  42.837   2.173
60454W        W25681  27.222  44.789   1.394
60455W        W25682  26.034  17.819   2.916
60456W        W25683   2.278   9.947   1.165
60457W        W25684  13.187  38.821   2.701
60458W        W25685  27.977  35.972   0.750
60459W        W25686  13.287   5.827   1.639
60460W        W25687  44.998   0.045   2.628
60461W        W25688  28.037  39.005  10.153
60462W        W25689   5.449  42.984   5.033
60463W        W25690   8.608  19.687  14.972
60464W        W25691  25.150  43.871  11.672
60465W        W25692  24.259  44.110  13.702
60466W        W25693   2.912  33.898   3.581
60467W        W25694  36.655  20.301  14.386
60468W        W25695  31.576  44.997  12.141
60469W        W25696  24.651   0.818  14.030
60470W        W25697  36.876  20.665  12.011
60471W        W25698  17.315  25.686  13.527
60472W        W25699   4.241  26.774  13.935
60473W        W25700  41.779  22.937  13.531
60474W        W25701  11.378  32.675  13.790
60475W        W25702   3.283   5.036   3.136
60476W        W25703  11.641  29.194   4.481
60477W        W25704  28.026  10.541   3.230
60478W        W25705  10.112  22.797  14.378
60479W        W25706  25.064  37.794   2.890
60480W        W25707  26.110   3.349  11.500
60481W        W25708  15.114  23.106  14.006
60482W        W25709  24.945  12.450   1.902
60483W        W25710   9.667  21.505  12.922
60484W        W25711  17.759  40.443  13.812
60485W        W25712  42.694  44.997  12.888
60486W        W25713  19.230   7.673   0.981
60487W        W25714   0.399  35.468  12.794
60488W        W25715  28.141   3.212   3.758
60489W        W25716  12.129  22.609  14.936
60490W        W25717   1.007   7.731   0.337
60491W        W25718  44.787  32.221   1.779
60492W        W25719  31.545  37.318  13.459
60493W        W25720   7.361  41.933   2.750
60494W        W25721   1.566  39.497  14.513
60495W        W25722   5.607  25.945   4.129
60496W        W25723  33.369  17.029  13.418
60497W        W25724  14.572  41.520   2.724
60498W        W25725  26.366  19.899   1.785
60499W        W25726   6.860  34.410  14.739
60500W        W25727  34.091  33.040   0.840
60501W        W25728  16.234  39.721  13.968
60502W        W25729  24.966  37.477   4.219
60503W        W25730   3.733  27.097   3.275
60504W        W25731  33.906  41.671  11.104
60505W        W25732  24.971  39.101  14.929
60506W        W25733  43.560  33.337   1.475
60507W        W25734  40.597  25.673  14.364
60508W        W25735  44.026   5.799   2.251
60509W        W25736   8.918  37.618   4.142
60510W        W25737  31.748  14.614   4.188
60511W        W25738   2.935  15.199  12.025
60512W        W25739   2.103  40.443  10.541
60513W        W25740   5.421  36.346   2.789
60514W        W25741  34.383  40.046  14.499
60515W        W25742  29.876  30.254  14.968
60516W        W25743   2.844   1.020   2.135
60517W        W25744  35.125   8.203  12.802
60518W        W25745  22.164  28.203  11.577
60519W        W25746  18.516  15.312   3.336
60520W        W25747  16.819  17.062   0.871
60521W        W25748   6.151   2.761   0.339
60522W        W25749  33.568  12.500   5.470
60523W        W25750   1.872  38.794   4.247
60524W        W25751   5.765  31.853   0.282
60525W        W25752  26.457  10.596  11.674
60526W        W25753  19.601  25.211   4.743
60527W        W25754  32.086  34.904   3.137
60528W        W25755  21.787  22.394  12.431
60529W        W25756  10.604  42.095  11.258
60530W        W25757  10.777  11.208   0.757
60531W        W25758  25.205  38.476  11.589
60532W        W25759  42.783  17.228   3.548
60533W        W25760  41.802  29.512  14.532
60534W        W25761  40.762   6.712  13.941
60535W        W25762   2.180   2.148  11.145
60536W        W25763  36.128   0.772  12.504
60537W        W25764  26.438  43.782  11.133
60538W        W25765  23.531  39.059  13.638
60539W        W25766  10.252  40.044   3.674
60540W        W25767  36.406  42.260  14.402
60541W        W25768  40.563  19.086  13.005
60542W        W25769  27.018   5.085   3.118
60543W        W25770   1.678  15.806   3.960
60544W        W25771  14.281  38.830   1.336
60545W        W25772  26.162  30.596  14.085
60546W        W25773   3.314  32.905  10.543
60547W        W25774  18.178  22.945  12.476
60548W        W25775  26.285   8.160  12.536
60549W        W25776  12.670  44.090   1.757
60550W        W25777  12.111  44.106   1.202
60551W        W25778  38.014  42.839  14.286
60552W        W25779  32.675  20.008   1.648
60553W        W25780   2.845  18.123   2.249
60554W        W25781  29.857  39.985  11.855
60555W        W25782  21.474   3.505  12.120
60556W        W25783  18.145   1.223  13.944
60557W        W25784  18.815  14.566   0.304
60558W        W25785  41.154  42.313   3.551
60559W        W25786  18.634   7.008  12.340
60560W        W25787  31.123  27.195  11.320
60561W        W25788  29.175  18.972  11.171
60562W        W25789  15.606  35.215   2.000
60563W        W25790  32.651  40.867  10.297
60564W        W25791  15.542   2.868   2.376
60565W        W25792  38.863  13.160   4.951
60566W        W25793   6.875  25.961  14.844
60567W        W25794  40.844   0.324  12.529
60568W        W25795  42.759  41.379   3.230
60569W        W25796  42.605  10.226   1.048
60570W        W25797  34.255  12.813  13.474
60571W        W25798   9.877   5.908   1.798
60572W        W25799  24.545  36.318  11.697
60573W        W25800  26.996  32.664   3.546
60574W        W25801  11.521   9.242  11.637
60575W        W25802  28.193  20.188  13.820
60576W        W25803  10.819  18.732   2.108
60577W        W25804  32.464  40.812   3.640
60578W        W25805  29.575  23.578   1.752
60579W        W25806   9.252  43.457   4.597
60580W        W25807   2.249   3.996   4.597
60581W        W25808  28.115  31.684   3.529
60582W        W25809  23.639  22.605  11.667
60583W        W25810  15.350  27.074  14.842
60584W        W25811  22.706  32.415   4.625
60585W        W25812  21.032  18.875   2.872
60586W        W25813  10.699  29.423  11.519
60587W        W25814  42.069  43.886   1.967
60588W        W25815  36.449  27.537   1.421
60589W        W25816  33.307  36.508   0.736
60590W        W25817  15.126  26.258   3.727
60591W        W25818  24.263   6.236   4.545
60592W        W25819  10.157  43.095  13.981
60593W        W25820  38.187  38.933  12.392
60594W        W25821  33.016  16.610   3.264
60595W        W25822  22.974  14.250  11.481
60596W        W25823  20.134  18.897   4.443
60597W        W25824  41.473  24.418   0.779
60598W        W25825  30.071  31.172  10.685
60599W        W25826  13.824   1.749   4.215
60600W        W25827   3.321  37.794   4.375
60601W        W25828   7.299  41.495   0.219
60602W        W25829  28.452  41.947  14.305
60603W        W25830  13.600  39.075  11.888
60604W        W25831  33.881  42.803  12.593
60605W        W25832  35.314  25.517   0.173
60606W        W25833  15.218  37.498   2.629
60607W        W25834  38.545  40.901  10.476
60608W        W25835   7.943   0.759  12.453
60609W        W25836  16.021   4.989  10.399
60610W        W25837  38.909  17.762  10.945
60611W        W25838  29.098  27.409   1.460
60612W        W25839  15.405  22.307  10.992
60613W        W25840   7.117  39.464  11.454
60614W        W25841  34.418   0.771   1.946
60615W        W25842  10.223  19.389   3.272
60616W        W25843  21.639  31.654  14.004
60617W        W25844  43.854  11.810   1.970
60618W        W25845  40.966  26.260  12.051
60619W        W25846  40.846   0.793   2.850
60620W        W25847   9.188  38.038  12.364
60621W        W25848  13.107  22.745   2.923
60622W        W25849  11.955  26.267  12.089
60623W        W25850   6.738  32.041   0.524
60624W        W25851   5.145  18.054  10.215
60625W        W25852  42.725   8.022  14.443
60626W        W25853  14.176  16.546   3.935
60627W        W25854  23.246  12.717   2.234
60628W        W25855   2.711  37.289  13.409
60629W        W25856  19.374  33.907  13.193
60630W        W25857  10.614  18.908   1.188
60631W        W25858   8.317  27.719  12.013
60632W        W25859  17.852  15.370   1.162
60633W        W25860  20.789  35.584   0.368
60634W        W25861  20.167  22.770   0.274
60635W        W25862  39.098  27.946   1.830
60636W        W25863  24.735   5.501   5.880
60637W        W25864  27.448  27.354   5.078
60638W        W25865  42.310   3.956  11.696
60639W        W25866   3.161  31.411   4.581
60640W        W25867  20.183   3.210   9.650
60641W        W25868   7.577  27.513   1.732
60642W        W25869  31.220  32.342  11.547
60643W        W25870  26.349  28.453  11.173
60644W        W25871  35.947  12.293  12.002
60645W        W25872  24.310  23.927   2.155
60646W        W25873  31.491   7.512  11.126
60647W        W25874  13.664  20.695   4.888
60648W        W25875   0.526  32.572   4.697
60649W        W25876  36.508  16.405   3.254
60650W        W25877  36.310  23.576   1.716
60651W        W25878  13.846  23.937  12.973
60652W        W25879  29.654  31.932   3.750
60653W        W25880  17.205  44.656   1.386
60654W        W25881  42.522   6.424   4.089
60655W        W25882   1.730  42.371   1.199
60656W        W25883   4.921   8.332  14.480
60657W        W25884  13.370  35.403  14.172
60658W        W25885  41.327  43.786   1.356
60659W        W25886  42.427  43.617  13.839
60660W        W25887  11.709  28.578  14.301
60661W        W25888  19.291   6.253  12.958
60662W        W25889  11.433   5.726   2.010
60663W        W25890  16.241  12.736  14.914
60664W        W25891  36.998   0.681  12.600
60665W        W25892  41.078  35.881   0.782
60666W        W25893   3.297  44.438   1.484
60667W        W25894  28.558   7.638   2.630
60668W        W25895  32.686  21.461   3.293
60669W        W25896   1.278  33.873   0.516
60670W        W25897  21.506  35.550  11.938
60671W        W25898  16.316  14.400   2.817
60672W        W25899  32.557  40.003   1.345
60673W        W25900  22.394  29.805  13.144
60674W        W25901  15.657  22.164  11.628
60675W        W25902  11.749   1.826  11.678
60676W        W25903  18.097   5.833   3.443
60677W        W25904  30.073  36.259  10.625
60678W        W25905  15.813   7.319   2.347
60679W        W25906  39.526  13.752   4.666
60680W        W25907   4.160  41.424  11.968
60681W        W25908  44.193  11.713   5.104
60682W        W25909  18.555  22.568   0.432
60683W        W25910   0.387  19.046  13.668
60684W        W25911  16.252  19.310  10.787
60685W        W25912   7.690  29.590   0.630
60686W        W25913  23.447   7.725   3.369
60687W        W25914  18.292  44.967   2.441
60688W        W25915  35.405   9.656   1.851
60689W        W25916  14.272  38.621   4.491
60690W        W25917   0.799   3.625   2.916
60691W        W25918  12.569   7.652  14.381
60692W        W25919  15.755  40.709   4.513
60693W        W25920  12.183   5.494   1.405
60694W        W25921  36.790  13.914   4.201
60695W        W25922   3.953  39.262  11.580
60696W        W25923  19.589  28.495  13.858
60697W        W25924  19.740   5.669   1.335
60698W        W25925   5.000  11.285   2.423
60699W        W25926  27.155  40.565  11.142
60700W        W25927  17.279   1.295  11.630
60701W        W25928   8.270   6.709  11.548
60702W        W25929   8.459  26.157  11.253
60703W        W25930  12.051  30.547  12.389
60704W        W25931   9.897  28.092  14.252
60705W        W25932  28.189  18.698  11.038
60706W        W25933   6.139  44.804  11.396
60707W        W25934   6.180  29.692  14.459
60708W        W25935  17.824  22.681   1.952
60709W        W25936  33.469  15.853   2.680
60710W        W25937  40.892  16.197  11.894
60711W        W25938  44.349  35.261   3.116
60712W        W25939  22.721  18.445  11.967
60713W        W25940  19.223   5.748   0.013
60714W        W25941  35.069  26.561  13.494
60715W        W25942  21.424  17.020  11.040
60716W        W25943  29.982  43.064  13.132
60717W        W25944  17.753   6.191  14.278
60718W        W25945  16.343  34.841  13.887
60719W        W25946  32.992  40.660   2.774
60720W        W25947  16.235  43.536   1.738
60721W        W25948   1.701  26.475  12.927
60722W        W25949  17.275  28.574   1.522
60723W        W25950  23.249  42.632   4.963
60724W        W25951  34.929   3.230   0.657
60725W        W25952  30.849   7.895  11.879
60726W        W25953  20.147  22.775   3.765
60727W        W25954   3.477  28.586  12.395
60728W        W25955  29.154   6.346   3.740
60729W        W25956  38.598  30.054  10.511
60730W        W25957  36.938   4.397  11.516
60731W        W25958  44.994  12.726   1.016
60732W        W25959  43.086   6.715  14.312
60733W        W25960  36.474  18.139  10.270
60734W        W25961  42.027   8.747   1.503
60735W        W25962   1.904  21.772  11.783
60736W        W25963  14.988  19.154   2.274
60737W        W25964  33.860   3.688  14.938
60738W        W25965  24.194  32.734   0.391
60739W        W25966  14.441   0.819   5.020
60740W        W25967   2.202  32.490   4.058
60741W        W25968   5.151  41.285   3.778
60742W        W25969  22.276  17.651   4.656
60743W        W25970   3.190  26.725  12.863
60744W        W25971   0.914  13.809   0.862
60745W        W25972  24.757  26.250  14.155
60746W        W25973  18.251  29.654   0.456
60747W        W25974  33.178  36.822  13.285
60748W        W25975  13.792   4.203   1.692
60749W        W25976  15.264  10.128  11.159
60750W        W25977   0.590  23.686   2.384
60751W        W25978  37.284  40.782   1.817
60752W        W25979  42.815  37.748  13.430
60753W        W25980   8.884  21.586  13.732
60754W        W25981  12.730   6.132   1.317
60755W        W25982  42.498   4.897   3.349
60756W        W25983  15.631  43.735   1.477
60757W        W25984   8.510   6.390  14.338
60758W        W25985  11.225  18.274   4.143
60759W        W25986  12.094   9.249   3.367
60760W        W25987  10.811  13.564   2.489
60761W        W25988  18.434  23.502  12.922
60762W        W25989  41.532  10.187  14.585
60763W        W25990  44.286  44.141   1.704
60764W        W25991   5.916  10.943   1.506
60765W        W25992  26.665   6.416   3.574
60766W        W25993  36.896  29.340  14.363
60767W        W25994  35.082  37.916   0.130
60768W        W25995  19.806  35.400   4.121
60769W        W25996   3.511   1.552  12.975
60770W        W25997  19.172   5.380  13.083
60771W        W25998  18.834  26.622  11.098
60772W        W25999  32.456  14.251  12.861
60773W        W26000   6.562   9.551  11.972
60774W        W26001  33.930   5.098   0.116
60775W        W26002  17.004  12.280  11.476
60776W        W26003  35.077  10.270   3.832
60777W        W26004  22.686  17.939  11.802
60778W        W26005  28.403  43.424  14.071
60779W        W26006  15.514  14.142   1.482
60780W        W26007   0.272   2.138   0.433
60781W        W26008   2.672  18.492   0.915
60782W        W26009   6.912  10.526   2.270
60783W        W26010  22.295  11.421  10.859
60784W        W26011  43.751  31.256  13.865
60785W        W26012  20.490  35.547  11.274
60786W        W26013   2.694  21.459   4.072
60787W        W26014  15.155  26.711  12.179
60788W        W26015  16.025  17.265  11.633
60789W        W26016  38.407  33.845   0.567
60790W        W26017   3.692  24.018   0.196
60791W        W26018  41.233   9.433  12.575
60792W        W26019  18.023  38.760   2.769
60793W        W26020  29.233  40.500   0.937
60794W        W26021  43.576   9.112  13.498
60795W        W26022  11.170   7.180   4.606
60796W        W26023  36.637  21.643   1.647
60797W        W26024  18.716  20.243   4.478
60798W        W26025  26.034  43.490   0.924
60799W        W26026  16.514  19.264   3.259
60800W        W26027   3.491  31.170   3.794
60801W        W26028  38.144  16.166  11.924
60802W        W26029  20.424  38.199   1.762
60803W        W26030  31.288  31.448   1.324
60804W        W26031  30.386  32.655   3.690
60805W        W26032  26.531  18.833  12.010
60806W        W26033  14.226  13.579  12.091
60807W        W26034  32.183   2.637   0.145
60808W        W26035   4.040  23.664   0.006
60809W        W26036  13.830   5.199   1.851
60810W        W26037   2.903  40.963   0.960
60811W        W26038  27.263  19.283  14.509
60812W        W26039  25.100  17.616  13.410
60813W        W26040  40.076  10.547   1.705
60814W        W26041  38.940  19.517  13.894
60815W        W26042   2.639  17.670  14.501
60816W        W26043  40.587   4.624   2.773
60817W        W26044   0.558  10.172   1.247
60818W        W26045   2.200  26.013  10.515
60819W        W26046  39.274  24.556  10.937
60820W        W26047  38.120  20.527  12.493
60821W        W26048  20.882   4.328  10.048
60822W        W26049  26.144  25.377   2.096
60823W        W26050  30.186   4.448  14.372
60824W        W26051  20.708  18.619   3.681
60825W        W26052  15.782  44.058  11.559
60826W        W26053  40.769  34.035   3.862
60827W        W26054  44.719  22.042   2.695
60828W        W26055  23.743  39.469  13.893
60829W        W26056  24.467  32.616   4.314
60830W        W26057   3.766  42.706   2.254
60831W        W26058  40.961  39.112  10.597
60832W        W26059  32.471  23.936   1.995
60833W        W26060   5.045  22.979   2.913
60834W        W26061   7.278  16.587   2.775
60835W        W26062   2.690  24.640  14.048
60836W        W26063   6.777  36.051   4.631
60837W        W26064  38.383  17.120  14.887
60838W        W26065  19.777  14.968   0.483
60839W        W26066  32.104  28.637   4.643
60840W        W26067  10.350  25.059  11.985
60841W        W26068  44.968   0.953   2.272
60842W        W26069  39.959  15.658  12.080
60843W        W26070  42.454  18.585   3.668
60844W        W26071  42.861  36.065  11.856
60845W        W26072   2.584  18.636   5.383
60846W        W26073   3.034   4.929   2.652
60847W        W26074  32.246  32.635   2.563
60848W        W26075   9.852   8.062   2.419
60849W        W26076  13.603  39.454  12.971
60850W        W26077  11.624   6.972   1.363
60851W        W26078   0.443   0.948   4.515
60852W        W26079   7.897  28.182   2.090
60853W        W26080  25.501  37.184  12.877
60854W        W26081  27.226   8.237  10.645
60855W        W26082   0.013  17.617  10.572
60856W        W26083  30.387  28.514  14.831
60857W        W26084  29.093  43.776   2.178
60858W        W26085  20.586  21.046   3.823
60859W        W26086  16.805  11.595  10.709
60860W        W26087  26.708  15.201   1.079
60861W        W26088   3.575  13.300  12.698
60862W        W26089  33.886  43.016  14.434
60863W        W26090   7.441  22.469   1.851
60864W        W26091  44.810   9.711   2.211
60865W        W26092  40.499  15.529  13.831
60866W        W26093  40.104   8.306   2.458
60867W        W26094  11.247  36.914   4.494
60868W        W26095  12.967  35.419   1.869
60869W        W26096  24.460  29.892   5.015
60870W        W26097  12.126  35.369   4.585
60871W        W26098  20.912  29.086  13.472
60872W        W26099  39.618   6.047   0.299
60873W        W26100  10.815  41.884  14.854
60874W        W26101  39.357  42.789   3.588
60875W        W26102  36.279  27.678  12.487
60876W        W26103  44.941  37.122  13.787
60877W        W26104  17.370  17.181  13.221
60878W        W26105  14.588  32.478   1.833
60879W        W26106  16.080  33.010   2.466
60880W        W26107  15.224  28.865  14.478
60881W        W26108  42.817  21.995   2.295
60882W        W26109   3.446  34.947  12.262
60883W        W26110  13.696  18.751  14.925
60884W        W26111  35.626  41.513   2.134
60885W        W26112  29.126  38.506  11.752
60886W        W26113  18.085  10.689  11.999
60887W        W26114   9.872  39.468   4.307
60888W        W26115  18.469  42.482   0.635
60889W        W26116  23.651  42.397   1.689
60890W        W26117   1.997  43.782  11.710
60891W        W26118  41.968  20.158  11.754
60892W        W26119  27.593  38.964   0.307
60893W        W26120  40.963  29.324   4.600
60894W        W26121   4.267  12.241  14.363
60895W        W26122  21.333  36.878  13.120
60896W        W26123  24.300  21.732   1.836
60897W        W26124  42.804  30.844   4.762
60898W        W26125  26.174  36.685   2.144
60899W        W26126  26.655  27.104  14.404
60900W        W26127  22.176   4.125   1.879
60901W        W26128  37.884  35.162   3.220
60902W        W26129  33.504   1.743   0.289
60903W        W26130  29.409   2.336  12.398
60904W        W26131  39.979  41.711  12.047
60905W        W26132  22.530   5.437   3.580
60906W        W26133  12.752  24.980   4.826
60907W        W26134  18.679  28.925  11.842
60908W        W26135  43.895  24.275   1.787
60909W        W26136  18.238  27.698   1.497
60910W        W26137   4.216   0.509   1.940
60911W        W26138   2.746  10.396   2.776
60912W        W26139   1.393  39.360   3.246
60913W        W26140  21.754  17.647   0.864
60914W        W26141  40.243   9.418  12.130
60915W        W26142  20.090  37.491   3.193
60916W        W26143   0.387  36.876  13.857
60917W        W26144  39.887   0.456   3.040
60918W        W26145  44.759  19.908  12.977
60919W        W26146  19.826  11.213   4.866
60920W        W26147  29.946  21.578   2.863
60921W        W26148  32.547  16.902   4.936
60922W        W26149  18.176  19.841  12.587
60923W        W26150  18.269  36.419  10.424
60924W        W26151  10.055  23.345   0.429
60925W        W26152   0.753   9.739   3.853
60926W        W26153   5.224  34.288  13.871
60927W        W26154  11.936  34.419  13.442
60928W        W26155  14.823   5.350  10.733
60929W        W26156   0.281  11.794   2.796
60930W        W26157  26.017  39.488   2.236
60931W        W26158  41.104   7.455   3.151
60932W        W26159  35.484  29.357  10.869
60933W        W26160   2.343   3.217   1.885
60934W        W26161  37.339  19.406  14.951
60935W        W26162   0.987  43.640   2.683
60936W        W26163  19.209   9.208  13.160
60937W        W26164   4.644  40.475   1.421
60938W        W26165   3.666  30.269   3.094
60939W        W26166   1.822   1.726  13.339
60940W        W26167  38.353  15.480   3.762
60941W        W26168  27.692   5.122  12.151
60942W        W26169   8.405  16.597  11.209
60943W        W26170  32.922  25.402  13.836
60944W        W26171  27.571  40.567   1.309
60945W        W26172  12.752  24.761  12.548
60946W        W26173  34.544  11.946   3.182
60947W        W26174  13.814  28.996  14.333
60948W        W26175  29.229   0.223   0.918
60949W        W26176  30.815  31.070   2.577
60950W        W26177   7.415  15.139  12.331
60951W        W26178  30.593  10.847   0.336
60952W        W26179   6.721  12.034   0.292
60953W        W26180   4.424  26.582  10.672
60954W        W26181  20.008  44.507   4.677
60955W        W26182  31.977  19.997   3.768
60956W        W26183  10.194  30.939  11.168
60957W        W26184   8.368  43.331   3.199
60958W        W26185  29.426   3.237   1.807
60959W        W26186  44.911  31.380   3.143
60960W        W26187  40.302  14.122  13.853
60961W        W26188   5.693  41.357   1.355
60962W        W26189  33.919  36.921  14.785
60963W        W26190  24.071   9.416   4.342
60964W        W26191  27.172  43.864  11.562
60965W        W26192  11.790  22.759  13.737
60966W        W26193  38.503  41.017   3.283
60967W        W26194   3.805  33.905  11.444
60968W        W26195  39.887  17.119   1.272
60969W        W26196   2.883  10.757   1.428
60970W        W26197  28.776  30.479  13.502
60971W        W26198  38.827   1.972   4.634
60972W        W26199   0.683  18.713   0.366
60973W        W26200  11.984  23.314   1.758
60974W        W26201  29.996  22.982  12.863
60975W        W26202  18.218  35.867   1.975
60976W        W26203   9.423  39.788   0.313
60977W        W26204   8.390  38.935  12.054
60978W        W26205   1.956   0.867   1.673
60979W        W26206  10.466  29.334   4.093
60980W        W26207  33.013  29.641   3.762
60981W        W26208  41.312  20.590  12.079
60982W        W26209  21.108  16.752  12.209
60983W        W26210  22.737  38.640   3.294
60984W        W26211  22.065   0.131  11.640
60985W        W26212  36.455  25.047  14.043
60986W        W26213  16.356   0.567   3.713
60987W        W26214  42.153  13.181   1.791
60988W        W26215  20.657  33.584   0.430
60989W        W26216  35.456  40.424   2.088
60990W        W26217  14.878  30.557  11.929
60991W        W26218  19.042  20.569   4.195
60992W        W26219  40.453  16.567   2.759
60993W        W26220  15.104   5.923   2.128
60994W        W26221  38.773  44.307   2.158
60995W        W26222  24.216  10.725  12.574
60996W        W26223  17.944  38.121   4.510
60997W        W26224  10.751  28.866  14.363
60998W        W26225  19.863  21.918   0.798
60999W        W26226  16.305   8.268  14.293
61000W        W26227  36.877  35.308   3.076
61001W        W26228  15.875   3.203   4.488
61002W        W26229  19.292  22.596  12.911
61003W        W26230  40.850  25.765  12.108
61004W        W26231   8.719   4.920  13.389
61005W        W26232  27.474  37.596   2.845
61006W        W26233  44.753  28.529  10.466
61007W        W26234  33.311   8.752   2.745
61008W        W26235  38.975  16.972   1.782
61009W        W26236   0.866  38.767   1.667
61010W        W26237  42.110  43.389   1.454
61011W        W26238  32.585  24.920   1.466
61012W        W26239   7.322  26.565   1.452
61013W        W26240  19.158   5.623   4.115
61014W        W26241  38.284  17.314  10.309
61015W        W26242   4.238  42.858  13.164
61016W        W26243  35.506  34.913   2.969
61017W        W26244  10.015  36.488  12.330
61018W        W26245  33.601  44.554  10.686
61019W        W26246   4.955  29.700   4.156
61020W        W26247   0.430  16.261  13.905
61021W        W26248  27.392  19.738  13.793
61022W        W26249  11.592  31.385   4.095
61023W        W26250  13.093  24.087   1.040
61024W        W26251   4.269  38.161  11.038
61025W        W26252  31.924  17.887  11.685
61026W        W26253  17.284  22.821  12.389
61027W        W26254  34.636  32.057   3.689
61028W        W26255  30.904  10.659   0.721
61029W        W26256  22.964  33.313  13.037
61030W        W26257  19.160  18.260  10.872
61031W        W26258  25.873  20.069  12.301
61032W        W26259   4.173   1.470   1.620
61033W        W26260  41.742  31.972   3.537
61034W        W26261  23.374  31.936  13.062
61035W        W26262   5.097  19.683   4.076
61036W        W26263  31.963  25.045   0.262
61037W        W26264   2.302  43.711  12.113
61038W        W26265  23.762   0.362  14.438
61039W        W26266   6.772  26.309  14.028
61040W        W26267  29.618  33.620  13.565
61041W        W26268   6.260  30.984   1.879
61042W        W26269  23.123   1.800   2.374
61043W        W26270  39.813  20.744  11.588
61044W        W26271  17.116   2.332   1.755
61045W        W26272  33.176  24.880  14.052
61046W        W26273  11.277   6.970  11.480
61047W        W26274  15.345  21.786  11.158
61048W        W26275   9.612  32.922   5.378
61049W        W26276  11.271  12.278   2.188
61050W        W26277  21.167  34.833   2.666
61051W        W26278  41.875   3.769   1.858
61052W        W26279  21.673  36.627   4.151
61053W        W26280   4.503  15.686  11.326
61054W        W26281  43.959   1.313  11.212
61055W        W26282  31.880   7.151   3.574
61056W        W26283  34.362  25.800  13.109
61057W        W26284  18.804  10.608  13.367
61058W        W26285   5.320  32.435  13.515
61059W        W26286  19.260  20.684   2.821
61060W        W26287  34.847  31.440  14.978
61061W        W26288  44.914   0.384   3.706
61062W        W26289  21.056  24.688  10.652
61063W        W26290   0.328   6.315  12.871
61064W        W26291  11.769  11.271   3.781
61065W        W26292   6.760  31.091   0.335
61066W        W26293   4.114  26.428  10.295
61067W        W26294  34.905  32.717  13.255
61068W        W26295  35.400  33.141   2.165
61069W        W26296  25.216   6.218   2.799
61070W        W26297  17.866  38.819   0.830
61071W        W26298  12.505  26.519  10.437
61072W        W26299  25.215  33.114   4.335
61073W        W26300  28.466  27.584  12.909
61074W        W26301  38.979  38.879  13.000
61075W        W26302  16.069   7.873  13.574
61076W        W26303  20.522  20.405  13.091
61077W        W26304  31.545  26.662  12.403
61078W        W26305  28.670  11.224   4.121
61079W        W26306  17.353  25.276  12.092
61080W        W26307  26.705  28.098   0.871
61081W        W26308  18.083  41.128  11.973
61082W        W26309  15.754  42.482  14.749
61083W        W26310  35.805  32.739   3.812
61084W        W26311   5.284  28.735  12.491
61085W        W26312  11.752  28.220  12.137
61086W        W26313  35.658  22.277   4.121
61087W        W26314  32.088  22.845  11.118
61088W        W26315  29.816  41.154   1.340
61089W        W26316   9.833  18.581   1.261
61090W        W26317  15.287   3.792  12.995
61091W        W26318  18.765   8.398   4.920
61092W        W26319  14.825  34.427  11.491
61093W        W26320  19.756  31.904   3.072
61094W        W26321  22.728  27.652   4.170
61095W        W26322   0.195  17.227  10.871
61096W        W26323  33.138  16.926  11.706
61097W        W26324  24.477  41.553  14.255
61098W        W26325   9.804  35.533   0.436
61099W        W26326  20.598  19.097   4.245
61100W        W26327  36.514  26.913   2.793
61101W        W26328  12.484   7.524   1.459
61102W        W26329  34.947  26.173  13.100
61103W        W26330  32.547   2.802  10.692
61104W        W26331  12.009   5.387  14.510
61105W        W26332  19.756   6.994  11.061
61106W        W26333  29.067  31.690   0.587
61107W        W26334  35.427  33.073  13.793
61108W        W26335  24.170  27.228   0.676
61109W        W26336  15.230  14.766   4.586
61110W        W26337  22.063  29.790   4.886
61111W        W26338  20.150  26.084  11.992
61112W        W26339  11.293  19.146   4.555
61113W        W26340   1.031  41.893   1.300
61114W        W26341  23.307   9.910  12.852
61115W        W26342  22.278  16.045  11.618
61116W        W26343  18.027  16.702  13.509
61117W        W26344  20.591   7.169   4.380
61118W        W26345  26.756  27.470  11.343
61119W        W26346   0.214  33.772   0.553
61120W        W26347  28.014   7.213  11.823
61121W        W26348  32.494  26.253   2.291
61122W        W26349  30.636  30.162   1.206
61123W        W26350  24.699  14.295  11.511
61124W        W26351  24.728  28.712  13.613
61125W        W26352  10.904  28.165   3.225
61126W        W26353   9.866  44.062   2.393
61127W        W26354  27.340  32.094   2.449
61128W        W26355  44.424  28.128  10.342
61129W        W26356  22.611  21.684   4.449
61130W        W26357  44.458   0.959   3.224
61131W        W26358  16.695   8.865   2.370
61132W        W26359  41.282  37.848  11.016
61133W        W26360   0.429   9.804   3.419
61134W        W26361  31.549  17.721  10.699
61135W        W26362   4.265   0.212  14.855
61136W        W26363  34.260  11.532   9.967
61137W        W26364  37.206  33.961   2.902
61138W        W26365  38.399  30.609  14.316
61139W        W26366  23.556  31.826   3.114
61140W        W26367  22.824  41.725  12.572
61141W        W26368  37.027  28.193   1.861
61142W        W26369  30.646  20.841   0.561
61143W        W26370   9.160  43.523  14.557
61144W        W26371   4.668  24.384   1.863
61145W        W26372  31.588  25.376  14.365
61146W        W26373  19.649  39.453  14.794
61147W        W26374   8.282   4.271   2.177
61148W        W26375   5.161  39.596   3.576
61149W        W26376   0.392   2.628   0.486
61150W        W26377  27.508  26.736  14.362
61151W        W26378  12.327  15.426  11.083
61152W        W26379  17.666  10.201  14.801
61153W        W26380  21.327  14.653   2.682
61154W        W26381   4.421  22.019  10.674
61155W        W26382  20.128  16.401   1.398
61156W        W26383  40.443   1.933   2.256
61157W        W26384  22.538  43.656   0.898
61158W        W26385   6.183  35.667   0.613
61159W        W26386  30.636  30.739   4.540
61160W        W26387  14.023  31.911  13.906
61161W        W26388   4.659  15.773  14.352
61162W        W26389   1.508  32.017   4.071
61163W        W26390  44.421  38.416  10.765
61164W        W26391  22.014  11.123   0.912
61165W        W26392   8.900  19.089   1.941
61166W        W26393  44.927  20.244  13.444
61167W        W26394  28.641  12.450   0.003
61168W        W26395  41.196  33.158  12.567
61169W        W26396  43.350  34.608   2.249
61170W        W26397  29.184  42.432   1.310
61171W        W26398  23.656  27.573  14.839
61172W        W26399  44.734  10.190   1.878
61173W        W26400   1.244  17.670  14.803
61174W        W26401  40.519   3.236  11.236
61175W        W26402  17.125  37.735  11.993
61176W        W26403  26.505  41.610   0.238
61177W        W26404  38.943  42.714   3.295
61178W        W26405   0.024  34.793   0.471
61179W        W26406  34.054   5.550   2.202
61180W        W26407  20.374  12.626  10.715
61181W        W26408  18.906   2.306   0.256
61182W        W26409  10.679  24.843   4.683
61183W        W26410  18.536  25.870   0.304
61184W        W26411   9.300  11.701  14.948
61185W        W26412  17.617   9.618   4.126
61186W        W26413  26.725  10.622   1.009
61187W        W26414  24.378  44.348   9.756
61188W        W26415   6.870   0.373   3.241
61189W        W26416  16.570  12.911  14.538
61190W        W26417  16.262   3.238  12.998
61191W        W26418  12.573  19.558   1.400
61192W        W26419   3.929  17.215  12.612
61193W        W26420   1.418  22.063   3.628
61194W        W26421  27.860   9.920  11.626
61195W        W26422   6.973  16.182   2.825
61196W        W26423  40.331   2.779   4.489
61197W        W26424  20.543  15.285   3.293
61198W        W26425  17.248  37.222  12.116
61199W        W26426  23.601  14.299   3.188
61200W        W26427  29.593  18.245  11.608
61201W        W26428  20.991  19.688   4.614
61202W        W26429  17.412   8.681   4.088
61203W        W26430   3.812  11.632   1.724
61204W        W26431   5.496  11.136   2.365
61205W        W26432  37.132  18.312   0.759
61206W        W26433  23.681  36.421  13.939
61207W        W26434  28.973   1.010   1.183
61208W        W26435   5.242  23.193  12.600
61209W        W26436  31.954  43.816  13.552
61210W        W26437  28.579  23.683  13.799
61211W        W26438  25.988  12.062  14.528
61212W        W26439  39.394  38.082   1.334
61213W        W26440   1.764   2.502  12.863
61214W        W26441   0.991   2.366   1.716
61215W        W26442  18.890  10.661   2.966
61216W        W26443   0.862  38.852   3.116
61217W        W26444  34.391  10.473   2.182
61218W        W26445  38.669  13.826   0.431
61219W        W26446  40.958  31.679  12.412
61220W        W26447  20.761  25.279  11.695
61221W        W26448  41.427   6.891   4.103
61222W        W26449  34.910   6.411  13.324
61223W        W26450  39.924  43.895  10.899
61224W        W26451   1.905  33.704  13.213
61225W        W26452   4.669  40.289  11.462
61226W        W26453   6.756  15.694  13.391
61227W        W26454  42.428  29.736   4.209
61228W        W26455   5.269  16.308   0.435
61229W        W26456  19.500  25.381  14.811
61230W        W26457  38.579  20.071  14.501
61231W        W26458  25.421  20.143  12.060
61232W        W26459  18.104   0.287  12.089
61233W        W26460  16.838  31.991   4.184
61234W        W26461  43.590  28.596   0.033
61235W        W26462   7.659  36.194   9.925
61236W        W26463   1.118  19.581  13.810
61237W        W26464  29.974  27.662  13.085
61238W        W26465  43.963   3.890   3.069
61239W        W26466   2.873  29.022   0.751
61240W        W26467  10.808  27.872   1.311
61241W        W26468   5.990  37.423   4.351
61242W        W26469  19.768   4.314   0.860
61243W        W26470  17.630  37.413   0.069
61244W        W26471  16.515  14.631  11.209
61245W        W26472  17.060  28.967   3.659
61246W        W26473   7.740   7.882   2.596
61247W        W26474  32.391  16.307   0.842
61248W        W26475  21.446  26.905  14.200
61249W        W26476   8.919  41.760   1.862
61250W        W26477  42.870  15.018  12.041
61251W        W26478  31.950  40.760   2.809
61252W        W26479   1.254   9.560  13.918
61253W        W26480  20.725   7.937   3.280
61254W        W26481  11.155   2.252   1.839
61255W        W26482  39.037   9.372  11.641
61256W        W26483  15.462  13.656   3.250
61257W        W26484  20.746  28.589   3.198
61258W        W26485  12.255  10.208   2.695
61259W        W26486   0.414  44.548   1.646
61260W        W26487  39.047  38.442   4.755
61261W        W26488  25.211  28.458   4.626
61262W        W26489  13.395  34.575   3.296
61263W        W26490   2.976  40.041  11.813
61264W        W26491  29.460  26.275  12.021
61265W        W26492  27.525  27.740   0.396
61266W        W26493  17.541  17.639  13.068
61267W        W26494  13.691   4.221   4.640
61268W        W26495  29.709  11.822   1.117
61269W        W26496  12.912   2.115   3.646
61270W        W26497  39.456  16.354  12.601
61271W        W26498  17.682  31.820  11.048
61272W        W26499   6.923  38.418   2.425
61273W        W26500  20.779  12.703   4.567
61274W        W26501  42.571  12.083  14.009
61275W        W26502  38.296   6.464  14.767
61276W        W26503   6.161  22.687  11.217
61277W        W26504  22.051  37.868  12.581
61278W        W26505  24.831  41.057   0.938
61279W        W26506  32.165  40.719   2.289
61280W        W26507  27.439  42.289   1.881
61281W        W26508  43.244  27.125  11.814
61282W        W26509   9.331  41.931  10.917
61283W        W26510  33.526   3.878  11.662
61284W        W26511  32.176  30.306  14.240
61285W        W26512   3.240  32.467   4.236
61286W        W26513   0.251  14.131   4.621
61287W        W26514  18.880  39.916   1.816
61288W        W26515  39.639  29.102  13.707
61289W        W26516   1.283  38.558   0.409
61290W        W26517  44.310  18.773  13.878
61291W        W26518  11.613  30.423   1.397
61292W        W26519   9.867  23.356  14.941
61293W        W26520  23.127  15.822  13.798
61294W        W26521   4.146  26.135  10.711
61295W        W26522   0.948  14.408   1.442
61296W        W26523  16.168  18.622   3.163
61297W        W26524  17.716   6.250  13.750
61298W        W26525  25.029  18.434  12.391
61299W        W26526  35.039  28.357  10.680
61300W        W26527  43.956  31.179  12.576
61301W        W26528  16.173  19.110   4.448
61302W        W26529   7.920  14.050  12.149
61303W        W26530  16.166   2.848  12.030
61304W        W26531   0.301   3.884  14.025
61305W        W26532  20.422   4.812  13.006
61306W        W26533  17.272  16.761   3.237
61307W        W26534  21.248  15.590   4.016
61308W        W26535  24.661  15.136   2.221
61309W        W26536   9.364  17.880   9.698
61310W        W26537  32.119  18.584   3.660
61311W        W26538  28.191  12.960  11.138
61312W        W26539  38.377  17.282  11.667
61313W        W26540   4.887  24.325   3.068
61314W        W26541   0.179  41.831   3.156
61315W        W26542  32.206  40.368   3.644
61316W        W26543  34.538   4.135   0.914
61317W        W26544   5.918  26.941   2.787
61318W        W26545  18.011  34.148   2.803
61319W        W26546   9.649  26.335   4.604
61320W        W26547  21.657   2.315  10.535
61321W        W26548   3.874  16.809   3.798
61322W        W26549  12.451   2.922   5.071
61323W        W26550  24.709  22.590  13.448
61324W        W26551   9.905  33.659   5.395
61325W        W26552  21.518   4.621  11.773
61326W        W26553   5.209  32.964  12.513
61327W        W26554  43.920  32.894  10.684
61328W        W26555   3.253   3.681   4.654
61329W        W26556  21.397  16.368  11.918
61330W        W26557   0.663   1.961   1.674
61331W        W26558   3.274  29.551   2.741
61332W        W26559  36.828  37.043   2.713
61333W        W26560  32.227  20.621   2.205
61334W        W26561  16.992  10.429  11.651
61335W        W26562  12.079  32.821  12.464
61336W        W26563  39.614   1.590   4.034
61337W        W26564  28.244  26.705   5.352
61338W        W26565  18.016   9.766  12.049
61339W        W26566   5.428   7.130  11.413
61340W        W26567   8.655   6.357   4.163
61341W        W26568  16.820  33.383  14.786
61342W        W26569  33.419  16.023   2.198
61343W        W26570   8.903  17.204  14.883
61344W        W26571  19.065  38.220   2.201
61345W        W26572  21.040  35.363  12.029
61346W        W26573   9.983  13.647  12.530
61347W        W26574  31.518  16.170  10.704
61348W        W26575  10.124  36.431   1.369
61349W        W26576  23.430   3.320  10.440
61350W        W26577  43.429  20.166  14.069
61351W        W26578   4.961   8.154  12.561
61352W        W26579  23.262   2.248   1.206
61353W        W26580  21.058  29.649  10.391
61354W        W26581  40.668  42.381  13.020
61355W        W26582   8.218   6.006  10.898
61356W        W26583  37.491  15.170  10.693
61357W        W26584  44.216  44.274   2.229
61358W        W26585  17.845  33.538   3.590
61359W        W26586  28.087  27.839  14.022
61360W        W26587   3.714  15.072   1.740
61361W        W26588   4.876   6.697   3.760
61362W        W26589  40.987  26.256  14.728
61363W        W26590  24.957  19.987   1.271
61364W        W26591  19.063   2.649   3.766
61365W        W26592  38.710  23.189  10.403
61366W        W26593  20.752  30.500   2.135
61367W        W26594  24.458  43.322  11.958
61368W        W26595  35.433  37.125  11.448
61369W        W26596  10.109   1.717  11.202
61370W        W26597  29.444   5.525  11.110
61371W        W26598   4.885  20.413  11.190
61372W        W26599  37.858  38.155   1.807
61373W        W26600  22.697  43.988  14.233
61374W        W26601  29.382   8.211   4.910
61375W        W26602  26.247  43.270   0.482
61376W        W26603  39.342  20.145  10.994
61377W        W26604  35.029  42.810   0.405
61378W        W26605  26.766  27.185   3.182
61379W        W26606  40.518  26.934   4.066
61380W        W26607   0.605  36.171  14.367
61381W        W26608  36.541  19.280   3.751
61382W        W26609  40.614  24.977   2.619
61383W        W26610   8.216  14.120   4.953
61384W        W26611   1.357  24.447  13.764
61385W        W26612  18.528  11.174   1.169
61386W        W26613  25.837  20.809   1.715
61387W        W26614   1.852  42.697   0.376
61388W        W26615  42.732  18.368  11.922
61389W        W26616  14.338  28.051   1.205
61390W        W26617  28.191  41.087  14.806
61391W        W26618  12.780  36.283  11.182
61392W        W26619   4.491   0.129   2.177
61393W        W26620  39.720  29.430   0.256
61394W        W26621  21.286   2.826   0.457
61395W        W26622  26.980  37.240  11.062
61396W        W26623  38.394  20.158   4.397
61397W        W26624  21.534  36.965  11.511
61398W        W26625  22.597   3.159  13.116
61399W        W26626  40.670  40.626   0.949
61400W        W26627   5.014  35.126   0.075
61401W        W26628  20.622  17.605  11.158
61402W        W26629   9.839   2.195  10.482
61403W        W26630  16.810  30.364  14.037
61404W        W26631  28.037  24.868  10.332
61405W        W26632  33.931   2.556   3.405
61406W        W26633  30.335  26.250  13.498
61407W        W26634  30.600  40.892  12.108
61408W        W26635  15.051  14.607  11.930
61409W        W26636  18.761   8.978  13.360
61410W        W26637  17.668  28.130  12.745
61411W        W26638   8.388  29.162   1.328
61412W        W26639  11.823  11.366   2.865
61413W        W26640  35.912  28.390   3.387
61414W        W26641  17.008  26.166  14.314
61415W        W26642  41.806  27.340  11.588
61416W        W26643  18.838  16.398  14.953
61417W        W26644  17.554  23.919  13.012
61418W        W26645  14.631  42.786   2.464
61419W        W26646  28.739   7.458  13.545
61420W        W26647   5.378   0.019   4.590
61421W        W26648   1.926  31.008  13.043
61422W        W26649   8.226  13.649   3.273
61423W        W26650  16.179  12.120   0.306
61424W        W26651  18.250  12.920   1.480
61425W        W26652  13.952  21.281  11.452
61426W        W26653   1.467  40.903   1.910
61427W        W26654  10.058  39.116  13.006
61428W        W26655   6.436  24.976   0.358
61429W        W26656  12.649  28.471   1.219
61430W        W26657  26.921   3.471  11.422
61431W        W26658  44.285  19.680   1.297
61432W        W26659  14.521  40.037  13.936
61433W        W26660  11.916  27.203  12.924
61434W        W26661  34.559  14.359   5.024
61435W        W26662  18.831   4.668   1.315
61436W        W26663  18.510   0.606   1.825
61437W        W26664  35.681  40.941   4.192
61438W        W26665  36.787   8.833   3.507
61439W        W26666  21.866  20.150  11.442
61440W        W26667  26.679  13.591  14.994
61441W        W26668  42.377  44.155   4.152
61442W        W26669  37.344  42.264   2.772
61443W        W26670   7.039  26.259   3.830
61444W        W26671  18.598  10.694  12.020
61445W        W26672  26.844   9.757   1.503
61446W        W26673  14.697  40.240  13.477
61447W        W26674  19.144   7.335  13.181
61448W        W26675   8.214  15.059   5.114
61449W        W26676  25.964  14.865   1.297
61450W        W26677   1.562  18.046  11.114
61451W        W26678  15.492  19.797  12.085
61452W        W26679  30.432  27.321  12.202
61453W        W26680  18.383  25.333   0.822
61454W        W26681  20.017   8.702  10.088
61455W        W26682  36.017  16.548   3.228
61456W        W26683  13.704  17.049   3.739
61457W        W26684   6.135  18.296   2.697
61458W        W26685   5.011  41.742   2.333
61459W        W26686  41.918  42.857   1.208
61460W        W26687  10.096   5.925   3.650
61461W        W26688   3.272  16.188   3.606
61462W        W26689  14.091  22.017  10.856
61463W        W26690   1.418  15.824  11.561
61464W        W26691  19.660  24.079   3.344
61465W        W26692  17.691   6.477   4.583
61466W        W26693  37.667  18.481   2.210
61467W        W26694  13.043  25.396  12.062
61468W        W26695   7.037  21.211   3.530
61469W        W26696  14.133  22.981  14.442
61470W        W26697  23.070  25.456   4.145
61471W        W26698  37.452  20.830   1.282
61472W        W26699  27.896  40.788   0.981
61473W        W26700  24.601   3.207   0.292
61474W        W26701  41.373   5.011   5.011
61475W        W26702  25.611  19.252  11.537
61476W        W26703  34.036   6.176  13.079
61477W        W26704  44.771  39.569   4.660
61478W        W26705  33.830  20.432   1.480
61479W        W26706  43.377  10.086  10.967
61480W        W26707  29.742   3.331  13.085
61481W        W26708  24.567  13.830  12.643
61482W        W26709  43.893  28.903  11.827
61483W        W26710  20.016   9.330  10.646
61484W        W26711   0.962  19.628   2.359
61485W        W26712   0.509   0.530  12.530
61486W        W26713   5.688  14.682  13.087
61487W        W26714  39.973  29.487   2.518
61488W        W26715  25.970  38.449   2.254
61489W        W26716  40.151   5.925   3.562
61490W        W26717  42.703   2.984  13.172
61491W        W26718  39.377  21.496  12.658
61492W        W26719  44.262  42.008   4.133
61493W        W26720  11.263  22.315   3.493
61494W        W26721  24.660  10.125  12.982
61495W        W26722   2.051  21.719   2.378
61496W        W26723  40.977  44.324   4.244
61497W        W26724  34.357  39.635   0.964
61498W        W26725  35.465  29.358  14.397
61499W        W26726  33.090  30.939   0.048
61500W        W26727  44.534  33.514  12.485
61501W        W26728  15.645  31.483   4.762
61502W        W26729  44.762  31.018   5.332
61503W        W26730  27.092  31.657   0.347
61504W        W26731  20.004   2.902   1.826
61505W        W26732  15.641  16.806   0.455
61506W        W26733  28.142  20.968  11.593
61507W        W26734  21.234  37.389   0.324
61508W        W26735  18.733  27.217  11.270
61509W        W26736  20.559  21.567   1.531
61510W        W26737   1.791  32.118   1.298
61511W        W26738  26.382  43.030  14.782
61512W        W26739  17.199  29.755   0.949
61513W        W26740  15.702  14.901  12.926
61514W        W26741   6.280  42.561   5.065
61515W        W26742  15.305  23.458   2.925
61516W        W26743  42.740  34.388  12.999
61517W        W26744  17.022  43.538  14.807
61518W        W26745  42.755  27.873   3.707
61519W        W26746  30.132   3.546  14.039
61520W        W26747  39.404  44.437   1.733
61521W        W26748  44.243  25.817   1.367
61522W        W26749   7.186  42.957  10.670
61523W        W26750  14.992  15.222   1.693
61524W        W26751  10.386   2.839   2.853
61525W        W26752  10.926  42.609  14.330
61526W        W26753  36.274  22.808  14.510
61527W        W26754   2.243   3.689  11.881
61528W        W26755  33.372  38.602   3.107
61529W        W26756   3.274   3.251   4.943
61530W        W26757   7.301  23.427   1.124
61531W        W26758  29.836  39.537   3.686
61532W        W26759  10.828  17.182   0.196
61533W        W26760   9.339  29.005  13.932
61534W        W26761  43.818  29.574  14.343
61535W        W26762  31.826   3.853  12.467
61536W        W26763  31.974   0.028   2.530
61537W        W26764  35.115  30.911   3.797
61538W        W26765   1.312   7.232  11.933
61539W        W26766  28.970   1.118   4.037
61540W        W26767  31.507  42.262   3.717
61541W        W26768  23.731  21.389  11.062
61542W        W26769  22.507  13.606  11.236
61543W        W26770  34.651  35.877   3.020
61544W        W26771  15.094  17.489  12.940
61545W        W26772  26.704  10.189  11.829
61546W        W26773  39.942  18.563  12.631
61547W        W26774  18.525  11.920   2.907
61548W        W26775  41.740  26.010  11.663
61549W        W26776  39.780  16.155  11.128
61550W        W26777  43.803   2.556   2.272
61551W        W26778  16.457  22.187   2.294
61552W        W26779  34.898  28.609  10.259
61553W        W26780   0.493   3.770  10.693
61554W        W26781  20.250   0.841  14.358
61555W        W26782  39.080  39.309  11.225
61556W        W26783  32.606  31.391  11.548
61557W        W26784   0.992   1.875   4.086
61558W        W26785   0.547   4.413  13.823
61559W        W26786  37.215  38.503   1.218
61560W        W26787  30.645  23.747   3.290
61561W        W26788   0.088  38.702   4.813
61562W        W26789   2.354   7.817  12.149
61563W        W26790  36.163  38.560  11.022
61564W        W26791  37.529  39.410   0.415
61565W        W26792  39.552  38.595  10.756
61566W        W26793  31.206  25.755   0.580
61567W        W26794  19.175  19.811   1.973
61568W        W26795  43.236  20.542   1.942
61569W        W26796  29.315  36.094  13.299
61570W        W26797  24.753   9.284  13.310
61571W        W26798  22.936   6.946   0.326
61572W        W26799  29.569   2.079  11.053
61573W        W26800  22.976   0.240   3.218
61574W        W26801  12.734  44.521   4.610
61575W        W26802  10.396   7.633   1.353
61576W        W26803  40.434  23.471   1.794
61577W        W26804   3.530  21.547   2.436
61578W        W26805  24.183  16.772   3.495
61579W        W26806  25.041  20.994   0.533
61580W        W26807  13.275  11.161   2.776
61581W        W26808  33.506   8.438  10.181
61582W        W26809  19.320  16.266  14.815
61583W        W26810  41.425  10.252  12.439
61584W        W26811   5.737  43.790  13.000
61585W        W26812   1.528  15.235  11.115
61586W        W26813  22.468  13.291   4.159
61587W        W26814   0.855  24.919   1.440
61588W        W26815  42.468   1.924   1.844
61589W        W26816  19.442  41.835  10.452
61590W        W26817  10.715  41.077   4.082
61591W        W26818  11.542   7.486   1.377
61592W        W26819   5.197  14.886   3.612
61593W        W26820   5.024  17.486  11.466
61594W        W26821  34.909  43.289   2.291
61595W        W26822  30.451  39.392   2.998
61596W        W26823  13.865   7.895   1.610
61597W        W26824  14.742  26.956   3.594
61598W        W26825  19.290  32.262   2.889
61599W        W26826  16.230  21.956  14.517
61600W        W26827  21.540  38.067   1.968
61601W        W26828   6.254  20.079  12.033
61602W        W26829   2.824   0.436  13.846
61603W        W26830  22.005  37.605   3.641
61604W        W26831   4.267  22.919   2.293
61605W        W26832  17.186  31.543  13.718
61606W        W26833   9.440  15.593   2.491
61607W        W26834  14.697   4.056  14.928
61608W        W26835  21.267  11.725   0.779
61609W        W26836  16.869  28.676   0.287
61610W        W26837  39.721  23.050   2.774
61611W        W26838  29.875  19.094   1.894
61612W        W26839  24.501  36.794  14.366
61613W        W26840  31.653   1.885   4.383
61614W        W26841  31.237  27.916  13.512
61615W        W26842  24.266  19.486  12.949
61616W        W26843  43.977  37.766   1.780
61617W        W26844  14.922  16.752  12.032
61618W        W26845  20.603  26.171  11.203
61619W        W26846  35.265   6.576   1.987
61620W        W26847  35.342  10.112   4.256
61621W        W26848  35.532   0.237   0.923
61622W        W26849  44.694  30.067  12.418
61623W        W26850  30.173   4.573  12.532
61624W        W26851  12.623  36.132  12.901
61625W        W26852  25.364  22.159  11.080
61626W        W26853  22.625   8.903   0.597
61627W        W26854  29.817   2.248   1.999
61628W        W26855  21.207  10.980  14.456
61629W        W26856  43.305   6.603   5.437
61630W        W26857  27.465   8.319   3.179
61631W        W26858  18.564   1.356   4.510
61632W        W26859  28.571   4.037  10.585
61633W        W26860  35.224   0.803  11.446
61634W        W26861  10.603   4.787   1.451
61635W        W26862  18.589   2.916   1.869
61636W        W26863  43.935  35.175  13.165
61637W        W26864  29.868  36.902   3.568
61638W        W26865  20.222   3.638   0.504
61639W        W26866  23.470  36.445   1.287
61640W        W26867  26.552   9.273  13.237
61641W        W26868  27.154   3.727  12.084
61642W        W26869  24.210   2.019  13.170
61643W        W26870  36.402  18.191  12.629
61644W        W26871  11.329  43.047  13.008
61645W        W26872  29.265   4.431   4.966
61646W        W26873  36.947  22.134  11.661
61647W        W26874  24.494  42.824   2.486
61648W        W26875  30.957  30.343  11.520
61649W        W26876   1.435  21.903  10.681
61650W        W26877  20.014  34.915  14.743
61651W        W26878  23.697   5.287   3.521
61652W        W26879  18.540  29.952   0.844
61653W        W26880  29.929  31.676  10.708
61654W        W26881  10.937  15.600  13.344
61655W        W26882  35.399  44.910  11.918
61656W        W26883   5.169  26.962  12.024
61657W        W26884  32.368   4.699  12.483
61658W        W26885  40.155  24.418   0.644
61659W        W26886  24.652  27.593   2.282
61660W        W26887   0.142  22.839  12.944
61661W        W26888   4.387  19.259  11.692
61662W        W26889  34.385  30.342  11.609
61663W        W26890  23.977  24.971   0.954
61664W        W26891   8.434   9.080  11.434
61665W        W26892  22.947  43.949  11.612
61666W        W26893  26.355  23.486   1.897
61667W        W26894  37.061  21.513   4.572
61668W        W26895  18.597   6.351  14.203
61669W        W26896  22.977  15.670   1.942
61670W        W26897  27.563   2.739  11.659
61671W        W26898  18.544  20.438  14.915
61672W        W26899  40.581  20.231  11.612
61673W        W26900  28.909  22.766   1.908
61674W        W26901  35.419   2.628  11.261
61675W        W26902  17.150  32.240   0.040
61676W        W26903  39.703  28.621   3.693
61677W        W26904  20.955  15.720  12.455
61678W        W26905  22.414  29.935  13.782
61679W        W26906   8.513   1.713   4.568
61680W        W26907  34.986  34.957  11.112
61681W        W26908  17.425  32.058  11.826
61682W        W26909  38.280  40.805   0.937
61683W        W26910   0.851  16.032  11.569
61684W        W26911  40.712  30.200   0.098
61685W        W26912  27.685   5.800  10.810
61686W        W26913  27.547  36.106   2.867
61687W        W26914  36.413  25.079   4.554
61688W        W26915  18.049  22.762  14.745
61689W        W26916  11.186  31.971   0.965
61690W        W26917  41.343   2.045  14.880
61691W        W26918  31.360   4.230  11.246
61692W        W26919  13.345  14.873  11.500
61693W        W26920  19.256  15.974   1.270
61694W        W26921   0.638  17.075  13.844
61695W        W26922  15.680   7.304   0.937
61696W        W26923   0.793   1.267   2.368
61697W        W26924  43.346  33.200   4.541
61698W        W26925  28.421  18.634   4.355
61699W        W26926  31.816  29.075  10.668
61700W        W26927  20.771  19.477  14.469
61701W        W26928   5.821   0.067   1.181
61702W        W26929  36.833  18.332   1.598
61703W        W26930  17.116  16.878  10.312
61704W        W26931   7.298   3.455   0.972
61705W        W26932  22.742  25.172  12.024
61706W        W26933   0.135  39.798  12.760
61707W        W26934   2.836  21.235  13.767
61708W        W26935   5.812  37.508   1.033
61709W        W26936   5.452   0.936   3.256
61710W        W26937  10.835   4.036   0.387
61711W        W26938  14.965   2.789   2.403
61712W        W26939  33.850  11.605  12.614
61713W        W26940  34.668  34.892   3.272
61714W        W26941  37.340  23.667  14.378
61715W        W26942  40.879  16.517   3.066
61716W        W26943  37.143  33.338   0.815
61717W        W26944  40.890  17.656   4.593
61718W        W26945   5.495  22.542  10.667
61719W        W26946  42.124  16.230   3.657
61720W        W26947  43.831  29.770  13.877
61721W        W26948  19.661   2.680   4.256
61722W        W26949   5.238  32.487   4.044
61723W        W26950  26.868  16.123   0.443
61724W        W26951   8.619  41.491  10.999
61725W        W26952   3.980  18.768  12.250
61726W        W26953  31.125  38.227  14.284
61727W        W26954  30.622  20.123   2.237
61728W        W26955  27.172  32.253  14.401
61729W        W26956  33.647   7.395  12.061
61730W        W26957  33.495  23.440   0.315
61731W        W26958  29.115  32.874   1.292
61732W        W26959   2.241  29.561   3.619
61733W        W26960   4.502  35.523  11.999
61734W        W26961  29.645  38.513  11.826
61735W        W26962  35.504   0.782  11.922
61736W        W26963   0.112  31.985   4.010
61737W        W26964  37.012  19.689   1.218
61738W        W26965  34.813  13.254  13.295
61739W        W26966  17.553  21.654   4.132
61740W        W26967  27.219  16.429   1.259
61741W        W26968  10.623  26.484   4.749
61742W        W26969  11.382   8.105  12.176
61743W        W26970   0.231   0.257  14.704
61744W        W26971  23.263  35.872   2.739
61745W        W26972  10.580  25.971   0.739
61746W        W26973  20.488   3.058  10.776
61747W        W26974  14.159  20.364   0.637
61748W        W26975  42.725  13.413  11.239
61749W        W26976   3.231   2.730  14.308
61750W        W26977  20.778   1.669   2.773
61751W        W26978   5.590  26.387   1.376
61752W        W26979  38.042  35.171  14.798
61753W        W26980  10.577  22.178   1.888
61754W        W26981  12.643  44.297   5.068
61755W        W26982  44.377   4.197   3.051
61756W        W26983  22.105  39.076   1.335
61757W        W26984  28.796  25.024  11.551
61758W        W26985  19.820  34.981  13.816
61759W        W26986   5.649  15.162   0.043
61760W        W26987  42.991  28.895  11.801
61761W        W26988   2.247  40.588  14.386
61762W        W26989  18.293  41.029  13.695
61763W        W26990  10.307  26.905   0.357
61764W        W26991  17.197  18.729   2.925
61765W        W26992  19.481  29.943   1.083
61766W        W26993   3.077  43.324   2.111
61767W        W26994   4.196  14.393   5.013
61768W        W26995  27.517  32.520  12.589
61769W        W26996   5.183  24.277  14.709
61770W        W26997   4.516  19.283  12.197
61771W        W26998   0.318   3.525  12.550
61772W        W26999  21.017   9.943   4.496
61773W        W27000   1.476  15.221  12.202
61774W        W27001   9.747  13.684  12.082
61775W        W27002  13.734  42.396  14.805
61776W        W27003   0.654  31.908   2.927
61777W        W27004  37.353  29.199   1.025
61778W        W27005  29.569  34.550  10.641
61779W        W27006  26.599  10.773   5.041
61780W        W27007  42.206  33.625   1.584
61781W        W27008  18.565  14.691  12.102
61782W        W27009  24.631  36.302   0.342
61783W        W27010  36.586  25.518   0.397
61784W        W27011  10.949  29.923   3.311
61785W        W27012  31.408  17.003  12.007
61786W        W27013  40.131  21.975  12.036
61787W        W27014   1.265   0.964   2.828
61788W        W27015   0.780  18.779  13.919
61789W        W27016   4.305  41.843   3.701
61790W        W27017  33.538   3.646  14.533
61791W        W27018  17.073   4.338   2.745
61792W        W27019  15.086  11.594  14.417
61793W        W27020   3.430  16.881   1.893
61794W        W27021  42.170  10.873   0.668
61795W        W27022  29.526  37.310   2.281
61796W        W27023  42.083  17.894  11.908
61797W        W27024   3.511  11.447   3.632
61798W        W27025   1.398   7.449  11.079
61799W        W27026  39.296  15.727   0.643
61800W        W27027  23.647   3.680  14.520
61801W        W27028  34.416  19.407  11.634
61802W        W27029   8.291  34.413  10.393
61803W        W27030  20.107   6.742   4.555
61804W        W27031  30.927  18.143   4.701
61805W        W27032  43.074  26.567  11.625
61806W        W27033  16.766  34.648   0.309
61807W        W27034  23.108  23.085   2.690
61808W        W27035  24.613  36.184  13.010
61809W        W27036  25.148   4.671  11.207
61810W        W27037  25.439  12.362  14.332
61811W        W27038  20.057   6.542   1.637
61812W        W27039  14.830  15.346   4.224
61813W        W27040   3.181  18.481  12.545
61814W        W27041  15.208  38.503  12.914
61815W        W27042  29.544  35.872  13.748
61816W        W27043  33.627  16.624  11.738
61817W        W27044  10.610   6.673  13.927
61818W        W27045  33.111   4.359   1.824
61819W        W27046  41.465  31.424  14.555
61820W        W27047   7.633  21.984   1.703
61821W        W27048  22.753  37.869  13.753
61822W        W27049   8.413   2.903   1.904
61823W        W27050  21.979   0.410  10.391
61824W        W27051  35.142  38.995   4.737
61825W        W27052  31.671  19.532  11.172
61826W        W27053  13.365  26.550   4.297
61827W        W27054  31.468   0.525  14.864
61828W        W27055  15.332   9.213   3.651
61829W        W27056   9.720   9.216   4.499
61830W        W27057  14.674  26.331  10.326
61831W        W27058  12.530  40.407   2.724
61832W        W27059  10.953  28.004  11.179
61833W        W27060  36.366  36.860   2.653
61834W        W27061  32.143  12.428  13.197
61835W        W27062  42.985  33.503  11.671
61836W        W27063  38.940  19.413  10.604
61837W        W27064   1.329  11.104   1.826
61838W        W27065   4.350  10.884  14.271
61839W        W27066  38.480   7.435   2.122
61840W        W27067  17.465  11.784  14.036
61841W        W27068  22.320  29.124  10.771
61842W        W27069  30.641  42.373   0.633
61843W        W27070  21.237  32.956   2.250
61844W        W27071  32.068  20.216  13.386
61845W        W27072  44.273  32.623  11.580
61846W        W27073  30.795  29.685  12.632
61847W        W27074  25.794  12.338   3.665
61848W        W27075  24.475   3.465  12.646
61849W        W27076  28.176  24.636  13.540
61850W        W27077  27.893  28.487   3.094
61851W        W27078   9.676  24.181  12.052
61852W        W27079  22.193  43.023  13.449
61853W        W27080  24.529  42.483  14.639
61854W        W27081  39.166   3.771   5.122
61855W        W27082  20.417   6.274  13.989
61856W        W27083  16.108  41.730  13.245
61857W        W27084  32.122  11.918  13.281
61858W        W27085  30.648  24.018   4.600
61859W        W27086  24.750  24.272   0.513
61860W        W27087   3.064  33.464  14.538
61861W        W27088   1.437  19.794   2.303
61862W        W27089  18.984  20.698  14.869
61863W        W27090  23.395  35.393   2.903
61864W        W27091  44.360  10.959   4.321
61865W        W27092  36.065  24.956   2.144
61866W        W27093  23.872  22.055  13.468
61867W        W27094  35.469  39.196   4.127
61868W        W27095  32.121  23.003  13.363
61869W        W27096  26.543  19.015   2.199
61870W        W27097   4.269  25.072   3.397
61871W        W27098  34.392   9.328  10.770
61872W        W27099  19.819  15.723  13.893
61873W        W27100  30.770  29.233  12.394
61874W        W27101   4.962  23.242  10.888
61875W        W27102  26.456  33.627   3.119
61876W        W27103  15.704   0.794   0.415
61877W        W27104   9.366  30.237   3.701
61878W        W27105   6.976  40.994  13.045
61879W        W27106  24.418   4.369  14.843
61880W        W27107   9.560  18.100   1.238
61881W        W27108  40.351  33.442  12.020
61882W        W27109  33.001   4.482  10.701
61883W        W27110  22.188   1.933  12.851
61884W        W27111  43.365  30.194   3.148
61885W        W27112   0.572  13.189   4.996
61886W        W27113  37.733  36.307   4.084
61887W        W27114  12.384  32.481  12.129
61888W        W27115   4.456  15.607   5.026
61889W        W27116  31.007  28.902  13.175
61890W        W27117   5.289  34.884   3.373
61891W        W27118  40.858  18.781   0.259
61892W        W27119   6.235   7.413  13.941
61893W        W27120   2.928  35.777  14.930
61894W        W27121  12.422  16.137   0.386
61895W        W27122  10.783  21.196   4.583
61896W        W27123  28.303  39.684   2.735
61897W        W27124  18.898  33.296   2.673
61898W        W27125  19.678  20.132  13.916
61899W        W27126   4.723  25.956   3.634
61900W        W27127   9.368  24.950   4.260
61901W        W27128  33.105  44.888  14.040
61902W        W27129  37.549   5.334  10.693
61903W        W27130  26.967  41.819   2.863
61904W        W27131  41.838  10.658   4.419
61905W        W27132  23.019  20.478   1.156
61906W        W27133  17.637  15.870   2.460
61907W        W27134  30.150  27.399  14.689
61908W        W27135   8.324  18.525   1.235
61909W        W27136  22.490  30.982   2.249
61910W        W27137  32.143  12.757  14.508
61911W        W27138  24.947   7.334  13.943
61912W        W27139  14.591   6.879  12.953
61913W        W27140  14.416  16.599   2.725
61914W        W27141  26.487  23.042  12.422
61915W        W27142  31.364  38.014   4.727
61916W        W27143  24.395  19.518  10.178
61917W        W27144  33.600  14.050  11.564
61918W        W27145  13.615  42.869  13.796
61919W        W27146   5.612  19.709   4.190
61920W        W27147  20.238  22.280  14.030
61921W        W27148  11.249   8.433   0.577
61922W        W27149  32.985  18.165  14.295
61923W        W27150  22.873  21.954  14.945
61924W        W27151  34.807  15.631   2.655
61925W        W27152  18.361  44.299   1.777
61926W        W27153  28.626   3.464  11.859
61927W        W27154  10.370  34.418   1.919
61928W        W27155  28.905   1.310   1.856
61929W        W27156  39.116  16.696  10.099
61930W        W27157  11.698   6.738   1.814
61931W        W27158  33.580   4.641  12.142
61932W        W27159  38.094   4.808  13.420
61933W        W27160  35.382   8.549  14.009
61934W        W27161  39.921  15.563   2.314
61935W        W27162  17.738  18.800   1.384
61936W        W27163  36.986   1.232   4.828
61937W        W27164  25.114  18.724  11.021
61938W        W27165  44.011   9.898  13.919
61939W        W27166   7.370  38.116  12.504
61940W        W27167  35.803   4.940   1.733
61941W        W27168   6.188  24.934  13.944
61942W        W27169  37.488  16.650  14.936
61943W        W27170  10.714  41.795   4.578
61944W        W27171  21.215  43.805  11.727
61945W        W27172  37.988  13.836  11.634
61946W        W27173  18.025  18.541  13.350
61947W        W27174  43.981  37.812   0.918
61948W        W27175  23.606  35.135   2.175
61949W        W27176   9.826  31.362   4.742
61950W        W27177   9.174  30.867  12.169
61951W        W27178  38.234  24.042   4.237
61952W        W27179  34.753  15.011  13.884
61953W        W27180  33.000   0.274   0.023
61954W        W27181   0.471  10.202   3.787
61955W        W27182  25.515  39.304  10.583
61956W        W27183   0.082  10.142   1.467
61957W        W27184  35.825  32.591  13.324
61958W        W27185   1.772  36.868  11.923
61959W        W27186  36.887  21.062  10.921
61960W        W27187  10.812  11.441  13.365
61961W        W27188   1.831  35.350  11.885
61962W        W27189  39.387  26.077  13.961
61963W        W27190  16.256  44.859   2.236
61964W        W27191  21.952  32.855   2.780
61965W        W27192  44.289  13.730  13.944
61966W        W27193  40.061   7.047   4.703
61967W        W27194   8.807  35.070  13.061
61968W        W27195   9.948  11.667  11.105
61969W        W27196   7.694  37.344   2.677
61970W        W27197  43.511  34.001  14.005
61971W        W27198  16.131   5.355  11.160
61972W        W27199  24.983   2.356   3.445
61973W        W27200  30.466  28.582  12.133
61974W        W27201  20.291  19.734   0.378
61975W        W27202  23.557  40.696  14.342
61976W        W27203  42.078  28.646  14.980
61977W        W27204  14.878  30.402   2.585
61978W        W27205  10.118  44.906   4.007
61979W        W27206  18.029   3.922   2.433
61980W        W27207  17.850  32.699   2.376
61981W        W27208  15.836   5.700  12.077
61982W        W27209  25.699  33.088  11.670
61983W        W27210  36.674  28.893  14.766
61984W        W27211  30.907  25.455   2.225
61985W        W27212  24.727  28.947   3.606
61986W        W27213   9.687  30.630  13.492
61987W        W27214  27.566  32.163  12.054
61988W        W27215   7.398  16.665  14.529
61989W        W27216   5.467  33.179   2.415
61990W        W27217  36.936  12.223   2.590
61991W        W27218  31.892  11.105  12.977
61992W        W27219  31.676   6.837   2.818
61993W        W27220  20.447  28.237  14.882
61994W        W27221  34.050  20.672  13.967
61995W        W27222  11.865  15.182   3.603
61996W        W27223  15.538  25.636  11.682
61997W        W27224  37.571  38.010   0.840
61998W        W27225  18.132   2.427   2.118
61999W        W27226  25.467  20.041  13.206
62000W        W27227  15.010  27.014   1.761
62001W        W27228  28.433  44.324  10.692
62002W        W27229   0.420  28.708   4.175
62003W        W27230  24.294   4.301   2.582
62004W        W27231  12.262  17.791   2.873
62005W        W27232   8.198  39.972   4.557
62006W        W27233  33.041  34.942   2.162
62007W        W27234   9.742  22.205  11.264
62008W        W27235  22.450   3.889  12.941
62009W        W27236   4.484   3.823  12.088
62010W        W27237   6.355  43.006  11.089
62011W        W27238  42.209   2.071  12.049
62012W        W27239  32.232  30.307   4.024
62013W        W27240  10.718  33.943  12.030
62014W        W27241   8.307  34.925   4.619
62015W        W27242  35.003   2.455  11.493
62016W        W27243   2.006  13.314   4.672
62017W        W27244  10.410  19.792  14.430
62018W        W27245   5.207  28.616   5.565
62019W        W27246  16.057  24.588  11.593
62020W        W27247  28.464  20.607  14.015
62021W        W27248  11.327   3.592   1.742
62022W        W27249  43.045  30.513  11.938
62023W        W27250  15.151  32.937   2.744
62024W        W27251  29.047  28.059   3.211
62025W        W27252  10.755  37.774  10.743
62026W        W27253   7.307  44.182  13.031
62027W        W27254  18.120  42.944   4.593
62028W        W27255  18.653  31.373  13.118
62029W        W27256   4.484  12.615   1.066
62030W        W27257  30.897  30.452   4.184
62031W        W27258   4.012  20.386   4.307
62032W        W27259  42.350  16.985   2.203
62033W        W27260  32.823  24.944   0.458
62034W        W27261  22.791  20.587  10.691
62035W        W27262  44.790  39.666   2.824
62036W        W27263  39.058  37.106  13.994
62037W        W27264  34.674   1.486  14.257
62038W        W27265  16.686  19.033  10.755
62039W        W27266  33.541  20.150   2.088
62040W        W27267  38.331  42.929  13.327
62041W        W27268  43.427  34.362   0.548
62042W        W27269   8.758  31.641   2.951
62043W        W27270  32.638   3.286  13.527
62044W        W27271   6.085  22.214   2.692
62045W        W27272  37.034  44.210  14.345
62046W        W27273  39.613  26.947   0.213
62047W        W27274  44.700  36.361   1.250
62048W        W27275  29.513  40.321  12.383
62049W        W27276  11.479  13.241   0.440
62050W        W27277  26.675  31.492   1.851
62051W        W27278   6.240  14.383   1.243
62052W        W27279  23.646  33.837   1.432
62053W        W27280  41.398  15.666   4.015
62054W        W27281   0.694  41.125   2.646
62055W        W27282  34.189  38.792  12.179
62056W        W27283  29.498  16.740   0.985
62057W        W27284  25.990  41.008  10.911
62058W        W27285  31.911  21.090  13.574
62059W        W27286  38.192  25.226  11.930
62060W        W27287  26.861  28.386   2.879
62061W        W27288  33.606  42.456   2.859
62062W        W27289  35.695  17.343  12.008
62063W        W27290   2.788  39.287   4.506
62064W        W27291  33.192  36.219  14.004
62065W        W27292  43.988  10.133   0.736
62066W        W27293  18.156  31.417  12.048
62067W        W27294   3.796  23.169   5.109
62068W        W27295  21.914   4.515   3.627
62069W        W27296  24.998  20.277  13.220
62070W        W27297  42.830  24.308  14.058
62071W        W27298  28.791  35.113  14.414
62072W        W27299  31.249  43.275  13.919
62073W        W27300  32.759  15.562   3.753
62074W        W27301  30.373  44.300   3.573
62075W        W27302   4.342   5.867   2.759
62076W        W27303  24.741   9.469   0.347
62077W        W27304   3.216  30.115  14.810
62078W        W27305  31.955   0.824  14.022
62079W        W27306   0.694   9.716  12.865
62080W        W27307  10.850  24.920   0.886
62081W        W27308  35.729  32.408   2.233
62082W        W27309  35.560   7.492  13.114
62083W        W27310  26.607  18.673   4.476
62084W        W27311  38.225  31.723  11.168
62085W        W27312   4.625  25.075   1.311
62086W        W27313  37.524  32.801  10.741
62087W        W27314  16.086  13.204  11.861
62088W        W27315  26.027  41.095   2.193
62089W        W27316  39.135  39.357  14.259
62090W        W27317  11.067  41.841   0.325
62091W        W27318  37.542  18.798  13.489
62092W        W27319  34.859  21.982   4.167
62093W        W27320   0.877  41.861   0.329
62094W        W27321  12.743   9.177   4.093
62095W        W27322  28.820  24.555  13.379
62096W        W27323  23.126  44.941   9.735
62097W        W27324  42.322  18.800  14.875
62098W        W27325  24.499  22.691   1.298
62099W        W27326   1.706  24.662   2.026
62100W        W27327  42.975  27.959  14.219
62101W        W27328  42.260   7.737  13.088
62102W        W27329  25.588  29.884   1.994
62103W        W27330   4.585   7.205   3.202
62104W        W27331  27.763  34.737   4.507
62105W        W27332   2.412  10.051   0.359
62106W        W27333  18.731  22.489   1.319
62107W        W27334  23.599  44.259  12.175
62108W        W27335  20.782  33.416  12.000
62109W        W27336   1.378  32.698   4.617
62110W        W27337  12.554   8.916   4.537
62111W        W27338  40.075  23.497  10.764
62112W        W27339  23.532  38.768   3.722
62113W        W27340  18.222  35.073  14.436
62114W        W27341   7.435   3.720   2.873
62115W        W27342   4.669  19.869   1.676
62116W        W27343  38.652  24.688   2.320
62117W        W27344  43.934  19.413  12.565
62118W        W27345  33.371  29.233   2.447
62119W        W27346  18.081  31.719  11.639
62120W        W27347   9.351   0.253   2.415
62121W        W27348  27.590  12.723   0.563
62122W        W27349  36.595   8.584  14.086
62123W        W27350  35.381  24.693   4.133
62124W        W27351  19.308  17.779  12.903
62125W        W27352  40.843  40.007  10.479
62126W        W27353  34.582  28.860  11.979
62127W        W27354  10.537   5.109   2.784
62128W        W27355   5.711  18.673   4.050
62129W        W27356  28.029  13.961   1.602
62130W        W27357  17.989  25.047   1.034
62131W        W27358  22.647  13.381  10.757
62132W        W27359  29.915  28.435   3.179
62133W        W27360  42.922  22.270   2.716
62134W        W27361  24.945  13.406   0.732
62135W        W27362   0.282  40.297   1.849
62136W        W27363   6.288  34.836   3.621
62137W        W27364  37.400  12.280   4.391
62138W        W27365  42.375   4.476  10.696
62139W        W27366  12.944  11.729   4.897
62140W        W27367  27.623  29.879   0.326
62141W        W27368  10.529  25.121  14.187
62142W        W27369  22.159   8.729   0.435
62143W        W27370  35.075  12.669   5.214
62144W        W27371   5.946  22.752  10.756
62145W        W27372  14.924  27.638  11.954
62146W        W27373  30.108  31.792  14.066
62147W        W27374  40.055  41.749   3.318
62148W        W27375  20.911  29.310  13.020
62149W        W27376  31.406  12.086  12.105
62150W        W27377  40.965  42.283   3.085
62151W        W27378  36.103  31.404  10.620
62152W        W27379  29.728  16.724  14.798
62153W        W27380  18.184  31.920  11.184
62154W        W27381  35.523  29.504   4.727
62155W        W27382  36.035  10.202  11.006
62156W        W27383  20.489  39.832   0.881
62157W        W27384  20.278   5.896  13.673
62158W        W27385  37.034  41.799   2.100
62159W        W27386  28.574  14.312   9.870
62160W        W27387  36.396  29.175  13.399
62161W        W27388  32.035  25.817  11.481
62162W        W27389   8.590  44.248   4.572
62163W        W27390  17.178  22.520   3.734
62164W        W27391  36.971  30.844  13.521
62165W        W27392   2.063  11.116  11.988
62166W        W27393  15.559   3.240   4.074
62167W        W27394   8.456  12.168  14.474
62168W        W27395  10.624   4.664   1.960
62169W        W27396  34.311  42.437   3.212
62170W        W27397  12.727  38.897  12.041
62171W        W27398  40.957  40.292  14.432
62172W        W27399  10.657  29.249  14.021
62173W        W27400  30.335  29.979  12.656
62174W        W27401  24.307  11.664  14.579
62175W        W27402  42.951  35.456  12.123
62176W        W27403  11.439  14.511  11.873
62177W        W27404  36.422  19.856  11.531
62178W        W27405  35.005  33.083   1.599
62179W        W27406   3.954   0.835   5.025
62180W        W27407  27.442   6.577  11.226
62181W        W27408   8.907   5.092  10.749
62182W        W27409  19.533   9.401  13.536
62183W        W27410  17.607  10.214  12.480
62184W        W27411  31.847  31.441   0.718
62185W        W27412  22.573   6.025   2.259
62186W        W27413  28.672  18.141   1.146
62187W        W27414  18.509  17.679  12.428
62188W        W27415  39.320   7.601   1.263
62189W        W27416  34.056  16.122   3.665
62190W        W27417  26.097  20.800   4.008
62191W        W27418   0.673  13.333   0.700
62192W        W27419  22.185  16.846  11.107
62193W        W27420  15.257  14.771   1.808
62194W        W27421   0.956  15.229  12.139
62195W        W27422  26.680  35.677  12.996
62196W        W27423  22.792   2.534   1.202
62197W        W27424  31.975  15.821   0.981
62198W        W27425  25.697  10.806  11.218
62199W        W27426  14.638   6.669  10.932
62200W        W27427  13.605   7.393   0.806
62201W        W27428   0.301   8.188  13.806
62202W        W27429  16.109   5.703   4.504
62203W        W27430  24.627   8.661  11.130
62204W        W27431  16.987  29.403  11.545
62205W        W27432  25.186  25.607  13.496
62206W        W27433  16.806   0.873  14.324
62207W        W27434  30.919  35.666  13.323
62208W        W27435  43.497   5.776  11.091
62209W        W27436  43.215  43.322   2.206
62210W        W27437  12.129   7.386   0.767
62211W        W27438  30.532  43.164   4.329
62212W        W27439  37.066   8.779   2.534
62213W        W27440  27.755   8.766   2.629
62214W        W27441  21.833  11.554   2.998
62215W        W27442  33.384  24.891  12.473
62216W        W27443   6.300  22.316   2.230
62217W        W27444   6.162   0.809   2.709
62218W        W27445  19.146  23.422  10.439
62219W        W27446  13.583  10.057   3.171
62220W        W27447  20.593  34.045  13.460
62221W        W27448  33.894   4.931  13.422
62222W        W27449   7.006  34.697   2.232
62223W        W27450  20.578  25.728   3.636
62224W        W27451  44.904  38.499  12.541
62225W        W27452  12.778  44.007  12.349
62226W        W27453  17.304  20.546  11.123
62227W        W27454  44.051  13.048   2.265
62228W        W27455   8.334  27.141   3.669
62229W        W27456  36.528  33.877   4.698
62230W        W27457  23.049  43.574   4.596
62231W        W27458   4.341  14.055  12.144
62232W        W27459   4.323   9.142  14.690
62233W        W27460   5.726  12.394   0.303
62234W        W27461  24.811  39.571  11.165
62235W        W27462  17.765   2.951   1.473
62236W        W27463  12.293  33.968   3.689
62237W        W27464   2.257   6.684  13.620
62238W        W27465  17.518  42.996  10.724
62239W        W27466  18.531  26.381   0.346
62240W        W27467  28.719  15.506  12.973
62241W        W27468  38.529  10.093  10.614
62242W        W27469  25.158   9.745  14.250
62243W        W27470   0.242  41.440   1.259
62244W        W27471  40.409  19.561  10.477
62245W        W27472  37.416   2.006  14.744
62246W        W27473   8.070  31.834   3.068
62247W        W27474  35.670  34.195   0.987
62248W        W27475  13.680  37.507   4.059
62249W        W27476   3.209   9.605   0.208
62250W        W27477   8.376  12.247   0.475
62251W        W27478  26.497  18.634   0.398
62252W        W27479   2.955  32.978   3.676
62253W        W27480  31.513   2.915  14.629
62254W        W27481   6.426  30.046  12.275
62255W        W27482  39.444  40.443  14.793
62256W        W27483  13.266   5.424   2.868
62257W        W27484  43.959  18.427  12.375
62258W        W27485   7.864  43.292  11.512
62259W        W27486   4.545  29.054  14.270
62260W        W27487  11.514  36.445  12.597
62261W        W27488  14.297  36.817  13.963
62262W        W27489   1.494  36.532  12.155
62263W        W27490  14.583  41.479  12.222
62264W        W27491  22.997  36.539  13.939
62265W        W27492   6.198  43.583   0.505
62266W        W27493  37.217  43.324   3.568
62267W        W27494  29.302   5.025   4.333
62268W        W27495   7.163  23.268   2.259
62269W        W27496   1.726  26.419  11.648
62270W        W27497  44.005  32.895  12.981
62271W        W27498  20.942  24.096   3.183
62272W        W27499  31.403  15.279   0.788
62273W        W27500  17.176  13.593  11.858
62274W        W27501   1.547  13.117  10.894
62275W        W27502  20.079  15.859   3.725
62276W        W27503  33.099   7.344   2.418
62277W        W27504  12.793  32.444  11.800
62278W        W27505  34.858  17.300   3.316
62279W        W27506  21.098   9.439   4.510
62280W        W27507  17.651  29.641  13.176
62281W        W27508  39.105   5.350   3.114
62282W        W27509  42.397  11.573  11.604
62283W        W27510   4.382  35.550  14.055
62284W        W27511  26.663  20.322   4.932
62285W        W27512  35.593  43.356  13.467
62286W        W27513  44.852  42.152   2.891
62287W        W27514   7.191   2.049  13.207
62288W        W27515  29.464   0.781   1.257
62289W        W27516  16.655  35.168   2.694
62290W        W27517  14.824  40.931   3.995
62291W        W27518  36.074   8.660   2.215
62292W        W27519  15.599  39.395  10.891
62293W        W27520  24.503  37.459   0.907
62294W        W27521   9.640   0.459   2.791
62295W        W27522  32.906  20.624   4.252
62296W        W27523  36.392  22.662   1.775
62297W        W27524   7.901  34.885  12.862
62298W        W27525  10.131  16.894  11.590
62299W        W27526  28.092  40.984  12.955
62300W        W27527  32.778   5.678   0.692
62301W        W27528  20.986  42.337   2.458
62302W        W27529  35.212  40.473  13.144
62303W        W27530  32.421  21.569   3.750
62304W        W27531  41.937   7.625  13.478
62305W        W27532  27.380  38.550   0.537
62306W        W27533  25.561  41.015   3.235
62307W        W27534   0.813  17.863   4.510
62308W        W27535   5.610   2.294  11.068
62309W        W27536  22.913  23.818  11.219
62310W        W27537  44.295  31.645  10.714
62311W        W27538  23.495  27.387  10.732
62312W        W27539  29.582   5.455  12.508
62313W        W27540  35.463  35.793  14.435
62314W        W27541  11.549  30.447  12.501
62315W        W27542  24.767  16.464   1.434
62316W        W27543  27.288   7.447   1.981
62317W        W27544  18.604  40.791  14.736
62318W        W27545  20.393  32.964   4.679
62319W        W27546  13.106   2.210   0.056
62320W        W27547  25.744  40.656  13.454
62321W        W27548  26.526  12.099  11.593
62322W        W27549  31.678  27.190  12.011
62323W        W27550  36.910  34.817   4.002
62324W        W27551  40.283  31.752   4.110
62325W        W27552  37.154  27.937  10.774
62326W        W27553  41.039  44.291  14.863
62327W        W27554  23.599  31.432  13.918
62328W        W27555  26.382  15.826  11.111
62329W        W27556  42.822  24.814  10.698
62330W        W27557  23.529  44.444  14.076
62331W        W27558  33.445  26.427   3.287
62332W        W27559   9.572   9.729   2.612
62333W        W27560  23.483   4.752   4.044
62334W        W27561  25.221  31.000   1.801
62335W        W27562  13.461  16.157   3.619
62336W        W27563  31.436  31.693   9.252
62337W        W27564   5.446  25.666  10.737
62338W        W27565  11.368  11.398  12.205
62339W        W27566  13.105  24.377  12.426
62340W        W27567  26.660  40.552  11.699
62341W        W27568  12.577  39.062   2.120
62342W        W27569  19.840  15.227   4.112
62343W        W27570  41.939  12.228   2.017
62344W        W27571  38.266  33.797  13.622
62345W        W27572  24.359  37.107  13.036
62346W        W27573   5.265  37.900   0.912
62347W        W27574  28.564  17.136  14.664
62348W        W27575  10.138  20.547   4.039
62349W        W27576   4.284  31.570   3.811
62350W        W27577  30.179  13.878   2.337
62351W        W27578  10.565  31.699  11.604
62352W        W27579  10.599   8.827   0.855
62353W        W27580  33.111  27.435   2.380
62354W        W27581  31.619  39.016   1.660
62355W        W27582   9.946  10.121  11.181
62356W        W27583  35.358  12.911   2.541
62357W        W27584   1.371  25.411   2.400
62358W        W27585  26.732  18.266  11.219
62359W        W27586   9.184  28.244   3.264
62360W        W27587  12.808  17.612   1.424
62361W        W27588  26.115   5.544   3.286
62362W        W27589   4.113  17.059   0.951
62363W        W27590  20.819  14.399  14.598
62364W        W27591  28.591  25.563   1.953
62365W        W27592  29.686   4.811   3.117
62366W        W27593   1.055   0.878  11.028
62367W        W27594  25.156   6.321  14.074
62368W        W27595  32.107   1.259  13.730
62369W        W27596  18.106   9.694  10.787
62370W        W27597   3.130   0.083   4.526
62371W        W27598  27.147   5.772  13.598
62372W        W27599   3.778  33.763  13.293
62373W        W27600  36.661  25.954  14.529
62374W        W27601   9.212  26.594   3.646
62375W        W27602  35.791  27.607   3.983
62376W        W27603  25.916  10.558   2.295
62377W        W27604  22.953  12.134   0.922
62378W        W27605  43.253  11.546   3.257
62379W        W27606  15.335   8.595  14.009
62380W        W27607  42.025   7.905   0.939
62381W        W27608  18.009  41.276  11.500
62382W        W27609   7.884  35.176  12.028
62383W        W27610  26.577  35.958  12.018
62384W        W27611  12.380  20.553  11.367
62385W        W27612  44.723  26.856   3.211
62386W        W27613  35.621  42.720  14.821
62387W        W27614  27.471   5.411   3.355
62388W        W27615   9.272  36.995   4.044
62389W        W27616  16.191  10.563   1.446
62390W        W27617  12.040  31.777  11.528
62391W        W27618  25.016  23.866  11.653
62392W        W27619  38.816  24.666  14.031
62393W        W27620  26.662   5.409  11.140
62394W        W27621  42.266  29.463   2.469
62395W        W27622  23.380   8.976  11.228
62396W        W27623  11.151  24.458  12.546
62397W        W27624  27.517   7.228  13.993
62398W        W27625  42.024  13.941  11.583
62399W        W27626  17.104  16.802  14.544
62400W        W27627   3.333   7.846   3.903
62401W        W27628   5.611  33.174  14.936
62402W        W27629  16.179  15.165   3.150
62403W        W27630  26.494  11.811  14.540
62404W        W27631   8.064  26.491   3.675
62405W        W27632  29.440  29.020   2.338
62406W        W27633  22.015  24.210   3.664
62407W        W27634  21.970  40.192   2.842
62408W        W27635  22.502   3.439   2.451
62409W        W27636   9.333   5.921  10.440
62410W        W27637  43.276  10.645  11.939
62411W        W27638  34.816  11.583  11.197
62412W        W27639  41.047   3.971  11.118
62413W        W27640  30.877  38.014  14.771
62414W        W27641  29.489   2.941  14.009
62415W        W27642   5.173  22.587   1.235
62416W        W27643  15.411  26.562   0.479
62417W        W27644   7.084  34.068   3.695
62418W        W27645  15.608  32.456   4.582
62419W        W27646  29.147   0.917   1.649
62420W        W27647  29.296  12.091  12.470
62421W        W27648  20.254   4.441   2.251
62422W        W27649  18.556  40.486   1.122
62423W        W27650  10.462  13.286   3.290
62424W        W27651  19.155  33.494  13.447
62425W        W27652   5.198  12.871  13.872
62426W        W27653  44.727  19.643  11.977
62427W        W27654  27.966  31.944   3.936
62428W        W27655  20.668  40.354   3.310
62429W        W27656  13.586   4.665   5.022
62430W        W27657  15.745   2.246   5.045
62431W        W27658  27.575  34.569  14.855
62432W        W27659  33.403   5.165   0.954
62433W        W27660  39.362   3.216   0.727
62434W        W27661  28.575  18.203   2.678
62435W        W27662  11.605  38.058  11.515
62436W        W27663  20.630  17.633   4.311
62437W        W27664  30.561  19.476   4.734
62438W        W27665  33.179  30.036  13.843
62439W        W27666  23.937   7.193  11.493
62440W        W27667  34.095  19.337   4.397
62441W        W27668  17.566  25.431  10.953
62442W        W27669  14.376  44.399   2.792
62443W        W27670  16.562   6.666   1.656
62444W        W27671  38.462  15.778  12.373
62445W        W27672  35.107  19.893   2.326
62446W        W27673  41.090  12.306  14.056
62447W        W27674  31.538  25.056  11.968
62448W        W27675   9.351  16.858   5.203
62449W        W27676  39.556  16.324  14.889
62450W        W27677  28.135  38.579   0.787
62451W        W27678  18.664  26.614   0.829
62452W        W27679   5.236   7.112  13.174
62453W        W27680  44.335   5.372  11.285
62454W        W27681  44.473  14.129  14.210
62455W        W27682  22.333   0.196   5.202
62456W        W27683   7.302  30.952  11.267
62457W        W27684  11.014  18.213  13.922
62458W        W27685   0.003  21.200  13.450
62459W        W27686   1.637   0.223  13.641
62460W        W27687   7.850  25.251   1.514
62461W        W27688  35.161  35.453   4.722
62462W        W27689  23.704  37.408   1.292
62463W        W27690  18.632  25.012  14.790
62464W        W27691   6.983  15.045  12.617
62465W        W27692  37.768  26.651   0.273
62466W        W27693   7.033  25.533  10.932
62467W        W27694  37.597   1.874  13.881
62468W        W27695  22.710  24.993   1.889
62469W        W27696   9.771  31.961  14.591
62470W        W27697  29.565  19.704   1.779
62471W        W27698  33.325  33.300   4.269
62472W        W27699  23.707  44.354   0.482
62473W        W27700   1.078   8.435   3.866
62474W        W27701  28.582   8.430   0.686
62475W        W27702  29.917   2.484   4.271
62476W        W27703  11.795  13.514   1.325
62477W        W27704  32.079  27.916  13.951
62478W        W27705  21.050   5.396  10.925
62479W        W27706  24.417   3.689  10.437
62480W        W27707  40.285   3.817  14.441
62481W        W27708  28.684  20.161   3.815
62482W        W27709  15.516   3.570  14.952
62483W        W27710  13.082  11.019   4.121
62484W        W27711  19.624   9.003   3.201
62485W        W27712   4.245  43.521  14.823
62486W        W27713  30.249   7.778  11.698
62487W        W27714  40.208   0.411  11.912
62488W        W27715  36.063  38.384   3.206
62489W        W27716   1.464  29.078   0.973
62490W        W27717  40.998  20.630  13.253
62491W        W27718   6.924  30.603   4.978
62492W        W27719  23.201  22.925   0.822
62493W        W27720  31.466  25.546  11.256
62494W        W27721  19.098  37.928   4.563
62495W        W27722  39.420  38.590  14.074
62496W        W27723  28.996  28.307  14.026
62497W        W27724  16.834   2.312   2.189
62498W        W27725   1.698  16.483  11.724
62499W        W27726  17.258   3.061   2.220
62500W        W27727  26.478  34.531   3.087
62501W        W27728  26.432  20.318   2.803
62502W        W27729   3.532  11.704  12.092
62503W        W27730  22.089  17.472   2.848
62504W        W27731   7.151  38.322  12.938
62505W        W27732  33.846  16.930   0.290
62506W        W27733  11.209  41.830  12.553
62507W        W27734   2.766  30.142   4.156
62508W        W27735   0.979   9.139   0.357
62509W        W27736  27.697   1.827  11.150
62510W        W27737   4.413  25.576  10.707
62511W        W27738   9.683  22.588  12.904
62512W        W27739  22.222  38.445   0.804
62513W        W27740  42.750  33.181  12.079
62514W        W27741   6.479  27.081  11.153
62515W        W27742  16.255  34.649   4.069
62516W        W27743  31.614  35.648   4.068
62517W        W27744  26.774  22.107  14.845
62518W        W27745  24.688  37.111  12.115
62519W        W27746   3.956   4.325   3.216
62520W        W27747  22.664   7.220  12.660
62521W        W27748  22.235   9.241   0.454
62522W        W27749   4.042  39.861  13.581
62523W        W27750  25.693   6.094  14.751
62524W        W27751   8.690  37.402  12.617
62525W        W27752  36.453   4.072  12.685
62526W        W27753  37.532  10.484   2.685
62527W        W27754  17.138  28.372   1.059
62528W        W27755  28.455  44.042  11.977
62529W        W27756  37.909  11.436   4.653
62530W        W27757  31.480  41.902   3.307
62531W        W27758  18.773  31.924  13.573
62532W        W27759  33.452  21.481   2.577
62533W        W27760  27.467  38.495  14.265
62534W        W27761  32.979  37.309   2.178
62535W        W27762  23.528  23.970   4.729
62536W        W27763  18.743  35.734   3.854
62537W        W27764  32.589  40.694  14.234
62538W        W27765  37.899  23.202   0.490
62539W        W27766   3.322  17.206  13.063
62540W        W27767  22.069  21.758   0.291
62541W        W27768  29.577  10.984   2.160
62542W        W27769  14.647  41.079  11.583
62543W        W27770  14.111  22.269  12.184
62544W        W27771  32.630  28.292  14.822
62545W        W27772  18.182  30.905  13.898
62546W        W27773  23.804  40.461  12.561
62547W        W27774  37.831   5.904  11.970
62548W        W27775  22.754  28.406  13.002
62549W        W27776  17.511  22.491   2.969
62550W        W27777  39.511  25.023  13.409
62551W        W27778  30.588  15.215   4.658
62552W        W27779  10.353   0.324  10.245
62553W        W27780  26.435  32.089   3.073
62554W        W27781  28.610  36.415   4.182
62555W        W27782   1.682  28.867  13.962
62556W        W27783   7.239  44.685  11.487
62557W        W27784  35.931  35.507   3.887
62558W        W27785  39.292  14.134   3.234
62559W        W27786  29.377  30.234  14.929
62560W        W27787  16.103  24.580   2.333
62561W        W27788  10.138  39.997  12.064
62562W        W27789  28.464  11.889   3.547
62563W        W27790  33.380  43.947  11.275
62564W        W27791   9.225  17.502  11.577
62565W        W27792  30.608   4.971   2.641
62566W        W27793   9.584  14.223   2.890
62567W        W27794  32.880  15.735  14.537
62568W        W27795   8.649  17.960   0.797
62569W        W27796  28.436  39.864   0.802
62570W        W27797  14.229  18.739   4.165
62571W        W27798  37.521   9.505  10.706
62572W        W27799  19.341   3.413  12.874
62573W        W27800  40.041  17.688   4.852
62574W        W27801  23.455   3.792  14.068
62575W        W27802  33.839  12.692   3.103
62576W        W27803   8.657   7.226  13.793
62577W        W27804  22.572   3.932  13.440
62578W        W27805  16.902   3.778   1.911
62579W        W27806  32.453  28.262  13.903
62580W        W27807  10.427  29.975   1.973
62581W        W27808  14.800   7.924   0.868
62582W        W27809  18.020  24.492   3.772
62583W        W27810   6.968  27.665   0.303
62584W        W27811  12.342   1.334  11.280
62585W        W27812   3.938  11.593   4.331
62586W        W27813  39.153  23.642  11.666
62587W        W27814  33.403  29.468  11.584
62588W        W27815   9.397  39.313   3.583
62589W        W27816  29.574  28.593   4.289
62590W        W27817  16.307   7.418   1.208
62591W        W27818   2.798  13.248   1.247
62592W        W27819  25.713  34.603   2.598
62593W        W27820  26.057  22.569   0.205
62594W        W27821  27.101   8.096  13.995
62595W        W27822  37.095  44.125   1.783
62596W        W27823  29.616   4.544  11.896
62597W        W27824  12.658   6.708  13.619
62598W        W27825  36.577  25.722  13.959
62599W        W27826  41.386  16.394  14.713
62600W        W27827  19.955  33.355  14.306
62601W        W27828   1.809  37.120   2.662
62602W        W27829   8.317  20.400  11.235
62603W        W27830  22.539  31.114   0.281
62604W        W27831  43.436   6.445   3.697
62605W        W27832  39.116  44.811   1.499
62606W        W27833  16.524  18.495  12.625
62607W        W27834  44.491  11.041   2.753
62608W        W27835  33.641  14.655   4.645
62609W        W27836  44.447   9.934  12.083
62610W        W27837   1.394   8.582   4.237
62611W        W27838  29.267  43.833   4.557
62612W        W27839  21.799  44.772  14.408
62613W        W27840  39.592  24.551   3.725
62614W        W27841  10.967   0.253   4.113
62615W        W27842  31.136  19.184  14.467
62616W        W27843   3.444  33.535  12.101
62617W        W27844  14.165  28.349  10.596
62618W        W27845  30.013  40.149  12.316
62619W        W27846  26.042   3.812  12.760
62620W        W27847  34.400  26.156   1.487
62621W        W27848   8.527  16.249  10.815
62622W        W27849  16.662  32.540  12.444
62623W        W27850  40.004  18.033  13.542
62624W        W27851  10.723   9.197   3.941
62625W        W27852  43.145  38.135  14.886
62626W        W27853  35.010  27.948   4.240
62627W        W27854  36.821  33.751   0.892
62628W        W27855   0.896  25.112  14.021
62629W        W27856  27.247  12.294  14.427
62630W        W27857  24.915  18.330  14.496
62631W        W27858  40.878  23.246   0.731
62632W        W27859   7.229  44.569  14.787
62633W        W27860  23.925  28.048   9.422
62634W        W27861  18.123  22.270   3.756
62635W        W27862  16.888  38.328   0.234
62636W        W27863  12.353   1.768   2.703
62637W        W27864  29.357  42.105   4.182
62638W        W27865  22.981  41.130  11.935
62639W        W27866  44.682  27.991  12.127
62640W        W27867   5.503  30.102   3.592
62641W        W27868  21.704  40.796  14.305
62642W        W27869  24.491  13.248   4.343
62643W        W27870  39.948  29.590   3.998
62644W        W27871  20.309   2.822  12.397
62645W        W27872  12.142  23.288   3.607
62646W        W27873   0.996  21.595  13.295
62647W        W27874  21.325  22.315   3.407
62648W        W27875  11.831  15.049  13.452
62649W        W27876   6.564   2.681  14.429
62650W        W27877  29.645   5.347  10.643
62651W        W27878  22.087  37.854   3.174
62652W        W27879  37.285  20.661  12.667
62653W        W27880  15.062   3.230   4.206
62654W        W27881  35.307   0.273   3.286
62655W        W27882  22.744  39.994   3.430
62656W        W27883  37.466  12.239   3.831
62657W        W27884  38.412  43.527  14.712
62658W        W27885  44.013  27.437  12.441
62659W        W27886  18.137  22.695  12.940
62660W        W27887   3.479   3.365  12.984
62661W        W27888  18.964  36.972   1.298
62662W        W27889  28.906  11.705   4.046
62663W        W27890  11.546   6.795  10.607
62664W        W27891  36.762  30.413   5.029
62665W        W27892  40.452  43.629   3.213
62666W        W27893   7.945  18.308  10.676
62667W        W27894  34.021   7.406   0.308
62668W        W27895   2.872  43.482  14.269
62669W        W27896  41.510  19.649   1.963
62670W        W27897  11.613   3.586   2.636
62671W        W27898  22.940  29.325   2.154
62672W        W27899   5.395  35.996  14.991
62673W        W27900  21.880  13.152   0.189
62674W        W27901  37.595  24.201  11.148
62675W        W27902  31.579  15.686   2.213
62676W        W27903   3.505   7.283  12.547
62677W        W27904   8.248  25.383   2.285
62678W        W27905   2.348  11.076  13.090
62679W        W27906  19.646   4.763  10.603
62680W        W27907  32.483   5.614  12.075
62681W        W27908   8.899  42.319   2.735
62682W        W27909  35.761  24.781  11.068
62683W        W27910  37.023  39.233   2.740
62684W        W27911  36.842  22.292  13.578
62685W        W27912  11.933  39.780   1.566
62686W        W27913   0.560  20.373  14.913
62687W        W27914   4.404  15.158   4.199
62688W        W27915  12.459  39.348  14.277
62689W        W27916  10.136  37.755   3.960
62690W        W27917   4.468  31.661   4.793
62691W        W27918  39.917  44.996   2.143
62692W        W27919  17.067  15.231   4.200
62693W        W27920  36.165  33.009   2.689
62694W        W27921  31.561   0.182  12.666
62695W        W27922  15.095  17.290   1.000
62696W        W27923  40.280  13.953  11.736
62697W        W27924   3.653  24.597   2.002
62698W        W27925  25.052  30.385   3.941
62699W        W27926  34.653  25.144   2.430
62700W        W27927  38.937   8.672   4.027
62701W        W27928  40.929   6.478  14.381
62702W        W27929  25.023  19.110   1.423
62703W        W27930  27.530  17.238   1.560
62704W        W27931  13.390  23.109   3.183
62705W        W27932  40.186   1.116  13.958
62706W        W27933   1.511   4.678  13.824
62707W        W27934  26.487  41.591   4.785
62708W        W27935   3.019  44.956  12.032
62709W        W27936  22.215  17.046   1.384
62710W        W27937  27.377  15.992   4.503
62711W        W27938  16.172  32.096   1.974
62712W        W27939   1.153  28.150  11.092
62713W        W27940  14.920  19.697   1.742
62714W        W27941  40.021  10.360  14.963
62715W        W27942  18.522  41.924   4.526
62716W        W27943  14.488   8.252   3.639
62717W        W27944   7.248   8.748   4.633
62718W        W27945  36.997  13.689   2.847
62719W        W27946  17.632  12.860  12.331
62720W        W27947   3.636  26.884   5.309
62721W        W27948  29.245  34.250   4.075
62722W        W27949  21.006  16.728  13.209
62723W        W27950  32.383  22.757   1.484
62724W        W27951  42.243  16.269   3.005
62725W        W27952  28.911   2.302   1.886
62726W        W27953  20.482  42.238   0.233
62727W        W27954  35.628   3.884  14.073
62728W        W27955  20.509  37.944   4.273
62729W        W27956  42.783  14.144   1.327
62730W        W27957  14.386  37.517   0.913
62731W        W27958  39.844  30.110  11.719
62732W        W27959  43.079  23.406  10.431
62733W        W27960   1.752   5.664   4.763
62734W        W27961  10.295  19.595   0.749
62735W        W27962  24.545  39.787   0.965
62736W        W27963   1.230  33.784  10.715
62737W        W27964  40.414  30.002   2.619
62738W        W27965  17.566  27.409   0.359
62739W        W27966  31.772  17.238  14.780
62740W        W27967   9.818   8.260   4.457
62741W        W27968  32.561  23.887  14.576
62742W        W27969   8.756  34.361  12.159
62743W        W27970  33.963   6.196  13.898
62744W        W27971  28.995  18.618  11.894
62745W        W27972   7.009  12.272  14.880
62746W        W27973  10.845  24.195  14.709
62747W        W27974  17.355  25.099   4.116
62748W        W27975  38.969  35.076   4.542
62749W        W27976  16.838   6.351  14.805
62750W        W27977  30.179  38.947  11.109
62751W        W27978  27.205  28.508   4.258
62752W        W27979   7.077  19.518  10.361
62753W        W27980  36.022   5.668   3.688
62754W        W27981   0.024  15.814   0.341
62755W        W27982  39.441  42.241   4.331
62756W        W27983   9.398  41.779  14.133
62757W        W27984  39.035  12.220  14.706
62758W        W27985  36.024  20.237   1.021
62759W        W27986  38.998   5.883  13.023
62760W        W27987  28.405  17.016  11.191
62761W        W27988  23.178  15.607  13.339
62762W        W27989  15.257  43.056   4.734
62763W        W27990   9.360  23.074  12.502
62764W        W27991  40.167  30.599   0.706
62765W        W27992  12.248  29.053   4.399
62766W        W27993   3.317  31.378   1.261
62767W        W27994   8.185  13.849   3.758
62768W        W27995  10.652  44.839  13.874
62769W        W27996  29.553  38.352   3.988
62770W        W27997  31.463  40.833   1.865
62771W        W27998  11.666  32.578  13.361
62772W        W27999  41.189  22.992  13.080
62773W        W28000  14.113  30.802   2.714
62774W        W28001  15.840  33.336   3.282
62775W        W28002  10.443  40.123   4.142
62776W        W28003  40.774  43.292   0.251
62777W        W28004   6.936  22.436  13.588
62778W        W28005  19.221   9.853   3.551
62779W        W28006  36.873  44.943   0.842
62780W        W28007   9.186   7.742  11.055
62781W        W28008  36.582  44.751   3.227
62782W        W28009  21.118  42.002   2.930
62783W        W28010   5.689  10.025  14.365
62784W        W28011  35.462  29.219   4.296
62785W        W28012  16.627  41.826  13.364
62786W        W28013  28.746  10.363  10.611
62787W        W28014   2.866  40.884   3.436
62788W        W28015  34.109  32.252   3.566
62789W        W28016  13.604  13.196  10.619
62790W        W28017  10.319  33.339  12.490
62791W        W28018   3.498  40.052  14.449
62792W        W28019  15.423  29.441  14.982
62793W        W28020   8.907  32.601   5.362
62794W        W28021  44.888  12.485  14.938
62795W        W28022   6.823   1.680  11.469
62796W        W28023  33.586  16.340   3.614
62797W        W28024  40.484  35.384   1.770
62798W        W28025  34.654  44.081   2.831
62799W        W28026   3.912  32.585   4.504
62800W        W28027  43.491  27.152   0.732
62801W        W28028  15.604  31.429  11.157
62802W        W28029  28.047  28.149  10.261
62803W        W28030  34.665  23.997   1.531
62804W        W28031  44.037  26.949   2.961
62805W        W28032  32.493   3.725  10.578
62806W        W28033  24.200  18.619  14.768
62807W        W28034  33.995   1.848   0.086
62808W        W28035   9.691  13.237  12.865
62809W        W28036   7.187  11.554   3.137
62810W        W28037   8.861  21.661   4.351
62811W        W28038  40.202  17.664   3.674
62812W        W28039  21.057  43.351   0.476
62813W        W28040   6.328   2.981  14.905
62814W        W28041   9.242  38.281  12.882
62815W        W28042   2.450  34.456  13.017
62816W        W28043  38.480  32.474   1.493
62817W        W28044  12.655  22.562   3.670
62818W        W28045  44.266  38.437   4.205
62819W        W28046  22.084  37.909   4.088
62820W        W28047  41.942  21.457  12.624
62821W        W28048  20.082  30.706  13.794
62822W        W28049   1.315  34.609  13.486
62823W        W28050  24.644  31.107  13.003
62824W        W28051  17.685  35.416   4.873
62825W        W28052   1.453   2.463   4.933
62826W        W28053  19.633  29.189   0.367
62827W        W28054  33.602  20.053  10.734
62828W        W28055  13.135  18.141  13.082
62829W        W28056   6.108  41.452  13.037
62830W        W28057   4.361  35.090  11.757
62831W        W28058  31.471  16.175   3.305
62832W        W28059  43.296  19.072   1.727
62833W        W28060  24.219  34.527   3.869
62834W        W28061  42.869  13.886  11.073
62835W        W28062  16.955  32.249  13.966
62836W        W28063  33.462  19.840   0.443
62837W        W28064  41.868  22.865   3.732
62838W        W28065  19.457  15.222   2.254
62839W        W28066   3.475  23.430  13.289
62840W        W28067  24.881  15.129   3.404
62841W        W28068  34.958   9.669   2.331
62842W        W28069  18.711   4.328  13.172
62843W        W28070  17.338  35.476  14.844
62844W        W28071  25.166  13.902   2.060
62845W        W28072   8.441   0.308  14.969
62846W        W28073  31.528  40.918   0.930
62847W        W28074  33.946  35.367   1.752
62848W        W28075   9.791   4.493   1.346
62849W        W28076  12.140   2.484   3.595
62850W        W28077  10.394  33.504  13.352
62851W        W28078   8.126  33.020  13.034
62852W        W28079  28.154  21.946  14.262
62853W        W28080  43.161   8.354   2.193
62854W        W28081  14.801  25.187  11.585
62855W        W28082   2.292  10.570   0.317
62856W        W28083  18.705  35.711  10.843
62857W        W28084  28.335  33.394  11.928
62858W        W28085  27.816  36.785  14.453
62859W        W28086   7.481  40.320  12.443
62860W        W28087   3.889  17.065   2.895
62861W        W28088   9.914  35.869   0.046
62862W        W28089  20.770  21.341   2.693
62863W        W28090   3.428   3.219  14.995
62864W        W28091   9.385  18.432  14.343
62865W        W28092   9.887  20.155  12.120
62866W        W28093  13.255   6.282   1.362
62867W        W28094  14.696  10.656  12.950
62868W        W28095  29.286  28.580  13.002
62869W        W28096  21.580  43.235  10.479
62870W        W28097  22.748  33.483   2.190
62871W        W28098  13.773  28.899  11.222
62872W        W28099  19.839  16.984  13.081
62873W        W28100  32.222  24.680   3.051
62874W        W28101  29.999  29.653   3.826
62875W        W28102  17.196  30.395  14.367
62876W        W28103  29.139  38.139   3.701
62877W        W28104  17.293  38.603   3.727
62878W        W28105  41.137  30.263  14.301
62879W        W28106  22.813  35.913   4.509
62880W        W28107  37.587   7.384   2.138
62881W        W28108  21.312  12.841   4.931
62882W        W28109  44.774  13.507  13.946
62883W        W28110   0.735  41.469   1.139
62884W        W28111   7.647  12.028  11.199
62885W        W28112  28.053  16.264   0.262
62886W        W28113  10.729   1.976  10.638
62887W        W28114  34.573  38.523  10.557
62888W        W28115  26.073  20.552   2.489
62889W        W28116  23.060  24.892  12.464
62890W        W28117   6.499   0.903   4.065
62891W        W28118  44.411  35.467  13.408
62892W        W28119  34.167  16.539  10.443
62893W        W28120  10.711   1.681   5.029
62894W        W28121   5.835  34.102   4.260
62895W        W28122  35.903  37.048   4.500
62896W        W28123   7.749  35.496   2.455
62897W        W28124  26.962   3.907   0.730
62898W        W28125  15.075  27.524  14.878
62899W        W28126  18.750   6.469   4.343
62900W        W28127  21.712  24.499  11.242
62901W        W28128  14.487  13.635  12.563
62902W        W28129  36.946   6.698  13.520
62903W        W28130   3.600  30.198  10.386
62904W        W28131   6.457  18.733   0.274
62905W        W28132  39.918  19.634  13.434
62906W        W28133   9.351  43.277   3.241
62907W        W28134  10.822  31.545  13.136
62908W        W28135  18.655  15.913   1.725
62909W        W28136  27.153  25.129  14.541
62910W        W28137  39.909  42.664   1.899
62911W        W28138  26.414  23.578  10.768
62912W        W28139   1.025  38.839  12.865
62913W        W28140  34.107  41.077   1.166
62914W        W28141  26.872   1.234  13.081
62915W        W28142  15.445  36.218  14.296
62916W        W28143  24.668  31.219  10.795
62917W        W28144  39.735  17.333  12.982
62918W        W28145  11.216  43.076   1.733
62919W        W28146  21.505   5.785   2.439
62920W        W28147  20.203   0.643   2.289
62921W        W28148  26.546  24.539  13.402
62922W        W28149  19.220   2.205  13.768
62923W        W28150  17.203  39.024  10.763
62924W        W28151   9.093  42.500   4.819
62925W        W28152   7.585  32.618   1.319
62926W        W28153  30.356   4.249  10.739
62927W        W28154  14.306  38.682   3.835
62928W        W28155  15.353  29.158  12.070
62929W        W28156  13.134  27.144   3.457
62930W        W28157  23.986  32.564  10.978
62931W        W28158  16.464   9.374  11.489
62932W        W28159  43.546  32.516  13.560
62933W        W28160  21.601  21.886   2.776
62934W        W28161   5.753  16.076   3.539
62935W        W28162  17.287   1.318   1.704
62936W        W28163  26.480  15.707  14.873
62937W        W28164   8.850  23.661  11.478
62938W        W28165  20.309  42.479   1.828
62939W        W28166  29.653  18.576   3.619
62940W        W28167   2.522  28.172  14.602
62941W        W28168  44.562  10.704   1.693
62942W        W28169  11.694  24.268  11.095
62943W        W28170  28.308  30.971  12.035
62944W        W28171  44.361  16.757  12.642
62945W        W28172  27.073  41.398  14.475
62946W        W28173  29.777   3.299   2.208
62947W        W28174  28.789  13.101   4.071
62948W        W28175   2.280  41.409   5.326
62949W        W28176   8.508   9.407   0.334
62950W        W28177  32.020  33.573   3.536
62951W        W28178  32.715  41.979  12.423
62952W        W28179   7.449   2.444  12.492
62953W        W28180  42.291   9.765  14.861
62954W        W28181  26.884  20.071   2.793
62955W        W28182  19.570  18.070   0.808
62956W        W28183   9.713  20.641   1.225
62957W        W28184  40.283  42.989  12.489
62958W        W28185  42.330  17.881   2.001
62959W        W28186  25.504   5.695   0.425
62960W        W28187  10.407  21.035  11.072
62961W        W28188  12.668  35.157  14.452
62962W        W28189  41.375  32.865  11.724
62963W        W28190  32.372  21.295  14.974
62964W        W28191  33.495  25.485   3.056
62965W        W28192   0.014  10.572  10.232
62966W        W28193  31.080  39.715  10.359
62967W        W28194  42.397  30.736  11.685
62968W        W28195  38.874  16.919   0.923
62969W        W28196  15.597  34.598   0.751
62970W        W28197  35.636   3.215   0.719
62971W        W28198  32.141  36.514  12.406
62972W        W28199  39.729  36.499  14.035
62973W        W28200  33.115   9.724   4.642
62974W        W28201  12.611  12.881   1.673
62975W        W28202  40.544  33.480  12.998
62976W        W28203  14.366   2.982  10.668
62977W        W28204  20.744  23.065  13.121
62978W        W28205   6.902  22.986  13.593
62979W        W28206  35.415  17.544  11.168
62980W        W28207  15.117  16.142   4.026
62981W        W28208  21.686  15.720   0.837
62982W        W28209   1.512   4.569   4.841
62983W        W28210   1.930  10.471  12.750
62984W        W28211  13.328  36.040   4.618
62985W        W28212  14.352  21.229   9.860
62986W        W28213   2.939  15.747   1.967
62987W        W28214   0.744  23.710  13.426
62988W        W28215   6.865  12.166  11.643
62989W        W28216  42.386  20.874   0.844
62990W        W28217  13.787  37.099  11.903
62991W        W28218   8.753  10.742   4.139
62992W        W28219  33.408   7.164  12.527
62993W        W28220  40.412   2.234  13.525
62994W        W28221  29.028  23.361   0.492
62995W        W28222  31.412  34.950  11.560
62996W        W28223   6.167   0.995   2.225
62997W        W28224  17.669  15.625  10.753
62998W        W28225  32.999  21.811   0.723
62999W        W28226   3.170   1.659  12.006
63000W        W28227   4.120  35.889   1.446
63001W        W28228  11.708  27.124  10.781
63002W        W28229  43.417   4.209   4.527
63003W        W28230  23.599  32.051  13.517
63004W        W28231   4.209   5.119  14.819
63005W        W28232  39.957  26.731   2.763
63006W        W28233  27.573  17.724   1.358
63007W        W28234  24.089   6.963  13.995
63008W        W28235  37.533  43.417  13.615
63009W        W28236   6.439   4.622  12.845
63010W        W28237  17.713  39.205   1.172
63011W        W28238  39.044  39.805  11.992
63012W        W28239   5.162  40.586  14.010
63013W        W28240  12.048  42.059   1.455
63014W        W28241  37.277  10.428   4.040
63015W        W28242  14.249  39.680   3.682
63016W        W28243  25.926  15.344  11.476
63017W        W28244   2.254   0.644  12.287
63018W        W28245   7.784  44.375  13.032
63019W        W28246  18.220  25.903   4.800
63020W        W28247   1.371  41.779  14.560
63021W        W28248  11.442   5.300  10.722
63022W        W28249  28.869  18.840   0.434
63023W        W28250  11.675   2.255   1.869
63024W        W28251  33.480   1.335  11.572
63025W        W28252   6.944   5.249  13.621
63026W        W28253  17.648  25.054   5.006
63027W        W28254  36.089  26.326  12.948
63028W        W28255  35.667  29.381  11.354
63029W        W28256  27.180  24.603  13.286
63030W        W28257   8.083  13.468   0.367
63031W        W28258  33.297   3.013   3.178
63032W        W28259  13.754  36.369  14.242
63033W        W28260  16.088  32.490  13.770
63034W        W28261  10.197  22.712  12.833
63035W        W28262   6.621  18.703  10.815
63036W        W28263  20.800  33.334   1.461
63037W        W28264   1.506  39.095   1.902
63038W        W28265   6.532  21.613  10.410
63039W        W28266  33.496  11.857  11.247
63040W        W28267   2.890  30.101   1.583
63041W        W28268  33.445  19.597   3.297
63042W        W28269  36.642  35.918   1.317
63043W        W28270  19.755  23.046  11.822
63044W        W28271  39.948  21.949   4.494
63045W        W28272   3.003  24.982   4.086
63046W        W28273   5.512   4.420   0.451
63047W        W28274  29.592   8.783   4.154
63048W        W28275  24.877  17.207   4.767
63049W        W28276  16.449   9.766  11.163
63050W        W28277  28.669  32.116   1.410
63051W        W28278  13.587  34.873   1.268
63052W        W28279  39.899  10.236   3.865
63053W        W28280  10.435  15.611  13.477
63054W        W28281  19.456  20.964  14.873
63055W        W28282   1.777  41.207   4.497
63056W        W28283   7.785   6.386   4.667
63057W        W28284  35.381  12.227   0.837
63058W        W28285  24.500  15.802   2.902
63059W        W28286   6.768  26.713   0.353
63060W        W28287  14.919  28.606   2.282
63061W        W28288  42.853   3.684  12.947
63062W        W28289   2.912   5.262  14.977
63063W        W28290  31.607   1.887   3.864
63064W        W28291  24.064  29.103  11.258
63065W        W28292  31.881  18.529   3.190
63066W        W28293   3.973   4.183  14.982
63067W        W28294  29.094  31.347   2.256
63068W        W28295  25.612  20.394  10.712
63069W        W28296  32.291   1.958   1.844
63070W        W28297  38.613   8.159  11.069
63071W        W28298  25.497  38.006   3.082
63072W        W28299  16.715  43.803   2.740
63073W        W28300  15.039  40.058  13.811
63074W        W28301  36.492  43.710  10.750
63075W        W28302  20.935   9.661  14.273
63076W        W28303  25.644   3.385  11.279
63077W        W28304  43.874  41.041  10.849
63078W        W28305  39.438  32.238   0.718
63079W        W28306   6.342   6.330  13.971
63080W        W28307   9.158   1.713   3.251
63081W        W28308  29.084  33.881   1.358
63082W        W28309   6.397  32.018  12.158
63083W        W28310   1.496  35.505   0.936
63084W        W28311   4.421   6.759  11.620
63085W        W28312  27.247   6.897  14.334
63086W        W28313  11.537  43.545   1.398
63087W        W28314  37.058  44.838   4.485
63088W        W28315  26.490   6.210   1.251
63089W        W28316  23.140  20.979   1.006
63090W        W28317  34.588   1.951   1.415
63091W        W28318   9.191  18.912  14.386
63092W        W28319   7.645  16.552   1.806
63093W        W28320  13.906  15.383   0.226
63094W        W28321  14.695  37.855  12.533
63095W        W28322  26.500  20.225  10.612
63096W        W28323  29.492   7.706   1.819
63097W        W28324  44.703  25.486  12.141
63098W        W28325  44.999   2.679   3.805
63099W        W28326  40.559  42.759   0.207
63100W        W28327  43.200  18.604  14.565
63101W        W28328  31.490  32.051   4.315
63102W        W28329  17.670  11.134   4.761
63103W        W28330  41.561  32.389  14.881
63104W        W28331  42.326  42.981   3.741
63105W        W28332  37.195  32.404  12.375
63106W        W28333   5.438  26.687  14.500
63107W        W28334   5.908   9.859  12.958
63108W        W28335  13.362  20.706   4.079
63109W        W28336   9.448  11.593   2.282
63110W        W28337  18.215  11.232   3.623
63111W        W28338  22.716  44.377  12.588
63112W        W28339  41.939  32.896   4.672
63113W        W28340  27.068  21.602  13.471
63114W        W28341  23.119  35.864  11.589
63115W        W28342  19.235   6.081   1.943
63116W        W28343  26.670   6.898   3.374
63117W        W28344   8.941  24.514   3.382
63118W        W28345  15.675  22.074   3.596
63119W        W28346  36.774  34.988  12.940
63120W        W28347   4.184  44.350  14.868
63121W        W28348   3.386  23.976   3.198
63122W        W28349  35.041  24.840  13.911
63123W        W28350  25.988  37.382  11.952
63124W        W28351   5.834  13.636   0.438
63125W        W28352  28.037  37.659  10.667
63126W        W28353  33.379  32.099   1.827
63127W        W28354  26.474  12.468   1.887
63128W        W28355  33.003  33.859   4.722
63129W        W28356  35.424  30.217   4.141
63130W        W28357   5.716  30.295  13.962
63131W        W28358  13.464  30.523  14.256
63132W        W28359  44.982  12.710   1.552
63133W        W28360  12.365  26.899   0.348
63134W        W28361  13.740  41.852  13.084
63135W        W28362   8.622  31.752   0.538
63136W        W28363  24.464  16.268  12.086
63137W        W28364   3.939  22.767   1.939
63138W        W28365  25.607  10.843  14.390
63139W        W28366  43.342  11.648   4.540
63140W        W28367  31.918   3.472   1.803
63141W        W28368  43.883   7.219  14.603
63142W        W28369  38.850  16.684   0.462
63143W        W28370   1.696  31.484  10.706
63144W        W28371  13.854  21.143   2.283
63145W        W28372  36.297  28.225   4.666
63146W        W28373  35.489   1.696  11.579
63147W        W28374  29.231  44.987   3.624
63148W        W28375  43.030  40.343   0.525
63149W        W28376  25.092  42.067  13.213
63150W        W28377  38.775  20.357   2.297
63151W        W28378   0.016   7.287  11.245
63152W        W28379   9.879  24.481   0.806
63153W        W28380  16.176  44.510   0.945
63154W        W28381  43.008   3.244  12.737
63155W        W28382  22.643   9.295  14.732
63156W        W28383  26.707   0.330  13.794
63157W        W28384   0.127  19.923   1.896
63158W        W28385  17.994   6.673   0.380
63159W        W28386  42.383   5.372   5.480
63160W        W28387  33.391  25.442  14.961
63161W        W28388  22.335   0.751   3.490
63162W        W28389   0.067  34.368  12.979
63163W        W28390   0.726  29.527  11.579
63164W        W28391  39.054   6.216   1.836
63165W        W28392   1.780  12.664  13.775
63166W        W28393  16.845  26.292   4.261
63167W        W28394  30.029  42.164  14.961
63168W        W28395   0.677  38.146  11.680
63169W        W28396  32.408  20.966   1.840
63170W        W28397   2.824   8.829   0.758
63171W        W28398   2.018  15.848  10.725
63172W        W28399  22.116   6.269  13.505
63173W        W28400  15.354  33.563   4.140
63174W        W28401  26.418   8.613   1.316
63175W        W28402  38.274   4.546   3.218
63176W        W28403  17.571  32.406   0.429
63177W        W28404  36.108  25.631   3.313
63178W        W28405  28.406  19.803  12.930
63179W        W28406  21.181   5.165   3.778
63180W        W28407  23.717  21.083  14.281
63181W        W28408   0.834  15.667   0.010
63182W        W28409  24.718  13.697   4.389
63183W        W28410  29.190  16.297  13.912
63184W        W28411  12.765  35.453   2.725
63185W        W28412  21.062  42.421  11.179
63186W        W28413   9.233  29.869  13.515
63187W        W28414   4.467  18.364   3.183
63188W        W28415  29.440  10.279   1.693
63189W        W28416  35.289  17.736   3.124
63190W        W28417  32.735  37.508  13.988
63191W        W28418  41.513  29.914  14.379
63192W        W28419  27.735  13.343  11.944
63193W        W28420  20.585   9.324  12.834
63194W        W28421  40.346  14.951  14.891
63195W        W28422  25.947  20.846   0.134
63196W        W28423  29.608  29.674   1.938
63197W        W28424  43.141  29.955  10.635
63198W        W28425  32.152   2.855  13.788
63199W        W28426  41.295  19.498  10.596
63200W        W28427  30.807  37.747   2.736
63201W        W28428  42.753  16.656   4.455
63202W        W28429  40.983  10.723   3.619
63203W        W28430  40.300  30.436   2.860
63204W        W28431  33.881  34.090   3.676
63205W        W28432  27.102  37.251   0.456
63206W        W28433  11.684  39.558   3.914
63207W        W28434  10.130  38.885  13.456
63208W        W28435   6.894   8.246  14.805
63209W        W28436  23.125  20.331   2.090
63210W        W28437  41.441  28.638  11.923
63211W        W28438  26.606  22.508  11.718
63212W        W28439  21.689  33.656   2.360
63213W        W28440  38.498   8.732   1.169
63214W        W28441  44.382  25.076  12.412
63215W        W28442  43.043  27.576  12.021
63216W        W28443  14.636  39.490  10.535
63217W        W28444   4.396  32.338  14.973
63218W        W28445  41.884  29.697   4.601
63219W        W28446   7.752  34.585  11.218
63220W        W28447   7.372  24.757  12.535
63221W        W28448   7.275  17.168  12.042
63222W        W28449  34.391  11.930  10.320
63223W        W28450  12.236  23.235  13.158
63224W        W28451  38.630  39.003   3.410
63225W        W28452  35.463  19.214   3.203
63226W        W28453   6.809  31.350   4.449
63227W        W28454   8.216  17.593   0.380
63228W        W28455   9.307  17.492   0.406
63229W        W28456  11.714  39.110  11.462
63230W        W28457   7.347  24.935  14.000
63231W        W28458  37.050  41.011   3.278
63232W        W28459   7.491  37.044  12.873
63233W        W28460  25.583  28.093   1.697
63234W        W28461   9.282   6.784   3.326
63235W        W28462   5.364  24.075  10.529
63236W        W28463  41.100  20.573   0.319
63237W        W28464  44.165   6.668  13.783
63238W        W28465   7.150   8.988  11.702
63239W        W28466  42.390   5.170  13.305
63240W        W28467  28.181  24.520   2.260
63241W        W28468   7.382   7.131   2.764
63242W        W28469  25.034  16.817  13.498
63243W        W28470   7.157  22.595  12.513
63244W        W28471  30.369  19.655  11.482
63245W        W28472  23.628  40.290  10.680
63246W        W28473  29.216  13.100  13.071
63247W        W28474  44.356   5.894  12.152
63248W        W28475  29.278   0.061   1.932
63249W        W28476  28.932  41.733  14.359
63250W        W28477  13.068   8.308  13.793
63251W        W28478  16.075   0.427  12.166
63252W        W28479  34.026  12.363   3.853
63253W        W28480  30.878  31.369  13.904
63254W        W28481   3.404  28.246  12.815
63255W        W28482  38.096   6.617   3.132
63256W        W28483   4.591   7.892   4.033
63257W        W28484  40.317  19.197  10.890
63258W        W28485   7.478  36.296  11.657
63259W        W28486  21.242  30.838  12.919
63260W        W28487  29.177  27.149  12.932
63261W        W28488   5.823  23.137  11.223
63262W        W28489  27.994  13.641   0.172
63263W        W28490  30.195  11.620   1.081
63264W        W28491  38.771  44.355  12.450
63265W        W28492  37.562  42.795  12.320
63266W        W28493  12.752  43.281  14.463
63267W        W28494  37.393  40.574  14.805
63268W        W28495  33.462  15.731  12.117
63269W        W28496   1.902   8.010   3.090
63270W        W28497   2.394  30.911   2.201
63271W        W28498   7.344  31.465   2.114
63272W        W28499   4.411  32.065   1.805
63273W        W28500  21.505  20.100  12.960
63274W        W28501  23.511  44.479   0.001
63275W        W28502  23.703  11.289   1.459
63276W        W28503  21.502  28.066  14.711
63277W        W28504  36.291  12.319  10.746
63278W        W28505  37.971  26.865  12.007
63279W        W28506   2.324   1.651  14.088
63280W        W28507  42.869  30.943   3.207
63281W        W28508  38.275  23.744  12.601
63282W        W28509  13.964  28.231  13.803
63283W        W28510  27.726   9.717  14.634
63284W        W28511   7.895   4.059  11.633
63285W        W28512  20.729  12.502   2.789
63286W        W28513  12.159  15.109  10.607
63287W        W28514  20.949   3.320  14.401
63288W        W28515  33.460  21.597   2.079
63289W        W28516  43.006  13.651   1.387
63290W        W28517  22.040  11.909  12.468
63291W        W28518  25.656  22.738  14.929
63292W        W28519  16.186   9.136   1.152
63293W        W28520  31.018  39.944  12.107
63294W        W28521   9.305  25.487  11.191
63295W        W28522  42.517  36.626  14.502
63296W        W28523  34.646  20.143  12.390
63297W        W28524  14.637  20.482   4.561
63298W        W28525  37.829  25.077   2.366
63299W        W28526  38.253  22.951  14.217
63300W        W28527  14.029   2.720  13.245
63301W        W28528  34.282  30.997  11.177
63302W        W28529  21.222  37.958  13.657
63303W        W28530  15.330  22.025   3.975
63304W        W28531   1.522  40.034  12.656
63305W        W28532  39.456   9.352   3.762
63306W        W28533  41.410  31.213   4.538
63307W        W28534  16.620  10.716   1.154
63308W        W28535  20.089  26.522   0.853
63309W        W28536   8.281  11.993   4.051
63310W        W28537   0.297  30.594  11.433
63311W        W28538  11.890   3.555   4.185
63312W        W28539  25.404  13.287   4.759
63313W        W28540  11.345   5.706  12.125
63314W        W28541  36.797   1.758  14.296
63315W        W28542  32.904  14.800   2.288
63316W        W28543  41.226  44.558  10.849
63317W        W28544  31.865  43.484  13.066
63318W        W28545  36.585  17.791  11.652
63319W        W28546  14.024  29.369   2.543
63320W        W28547  29.655  43.170   2.777
63321W        W28548   5.323  12.134  11.137
63322W        W28549  31.373  11.853   2.352
63323W        W28550   4.051  21.034  11.251
63324W        W28551  44.110  12.175  11.048
63325W        W28552  26.257  42.257   3.626
63326W        W28553  34.645   7.644   3.260
63327W        W28554  34.911  12.696  11.316
63328W        W28555  12.817  34.585  14.556
63329W        W28556  44.535  20.864   4.499
63330W        W28557  32.326  13.647   1.804
63331W        W28558  40.058   0.775  13.520
63332W        W28559  19.671  15.828  14.825
63333W        W28560  11.934  33.863  12.637
63334W        W28561  28.467  20.317  12.894
63335W        W28562   3.942  41.721   0.380
63336W        W28563  23.563  12.842   3.644
63337W        W28564  15.751  43.573   4.267
63338W        W28565  27.124  28.650   1.338
63339W        W28566  23.781  44.374   4.503
63340W        W28567  42.867   2.193   3.329
63341W        W28568  36.783  31.073  12.188
63342W        W28569  26.596  35.951  13.460
63343W        W28570  12.686  43.997  13.818
63344W        W28571  27.358  39.036  13.486
63345W        W28572   3.996   8.471  11.570
63346W        W28573  15.366  30.179   1.433
63347W        W28574  23.098  41.088  13.835
63348W        W28575  34.417   3.400   3.687
63349W        W28576  41.188   0.005   2.356
63350W        W28577  18.040  24.918   2.020
63351W        W28578   4.680  16.669  13.206
63352W        W28579   4.351  28.124  11.498
63353W        W28580  37.116  21.871  11.263
63354W        W28581  43.085  23.634   4.844
63355W        W28582  42.514   1.942  11.657
63356W        W28583  35.867  11.648   0.436
63357W        W28584  23.225  16.645  12.482
63358W        W28585  11.153  36.364   4.439
63359W        W28586   7.415  11.673   2.682
63360W        W28587   3.164  29.446  13.382
63361W        W28588  19.092   1.387   1.886
63362W        W28589  37.803  13.188  13.322
63363W        W28590  36.993  41.439   4.427
63364W        W28591  29.872   2.048   0.305
63365W        W28592  12.830  37.842  14.886
63366W        W28593  34.175   2.819   1.743
63367W        W28594  18.426   4.843  12.010
63368W        W28595   7.627  34.452   2.904
63369W        W28596  14.201  10.195  12.333
63370W        W28597   3.141  43.891   3.588
63371W        W28598   8.267  28.396   2.359
63372W        W28599  29.038  36.297  10.819
63373W        W28600  43.718  30.452  14.383
63374W        W28601   4.730  29.172   0.016
63375W        W28602  38.511   6.312   3.107
63376W        W28603   7.153  29.578   0.799
63377W        W28604  26.324  14.601   0.954
63378W        W28605   5.879  13.634   0.955
63379W        W28606   7.262  32.849   0.338
63380W        W28607  43.691  36.779   4.774
63381W        W28608  22.425  25.733  11.233
63382W        W28609  20.733  10.144  12.566
63383W        W28610  37.570   4.277  12.744
63384W        W28611  35.523  13.051  12.987
63385W        W28612  39.416  37.007  11.881
63386W        W28613  37.420   1.961   0.751
63387W        W28614  31.385  17.754   4.090
63388W        W28615  44.008   9.299  10.732
63389W        W28616   6.572  42.787  13.418
63390W        W28617  22.275  36.258   1.994
63391W        W28618  41.375   3.774  14.540
63392W        W28619  42.903  21.190  12.805
63393W        W28620  33.315   0.897  14.345
63394W        W28621   9.663  38.786  12.873
63395W        W28622  22.009  26.111   3.208
63396W        W28623  40.503  30.262   4.965
63397W        W28624  19.817   2.508  14.883
63398W        W28625  12.297  31.758  10.262
63399W        W28626  22.153   1.515   3.019
63400W        W28627  17.093  43.307  11.112
63401W        W28628  24.913  25.666   0.856
63402W        W28629  34.648  40.436  11.375
63403W        W28630  39.361  28.807   2.423
63404W        W28631  38.793  39.948  10.100
63405W        W28632  17.665  23.225   4.765
63406W        W28633  26.645  44.190   2.403
63407W        W28634   9.325  11.685  12.081
63408W        W28635  25.219  26.095   4.216
63409W        W28636  32.682  24.673   2.812
63410W        W28637  24.600  12.839   1.593
63411W        W28638  31.496  24.301   0.848
63412W        W28639  37.399  30.565   1.778
63413W        W28640  15.613  23.907   3.709
63414W        W28641  14.127  37.590   0.453
63415W        W28642  24.748  18.068   2.144
63416W        W28643  36.836  37.073  11.124
63417W        W28644  37.947  28.048  14.766
63418W        W28645  27.480  20.275  12.045
63419W        W28646  12.298  44.276  13.565
63420W        W28647  28.635  24.003  12.425
63421W        W28648  12.701  20.074  12.020
63422W        W28649   0.268  38.945  11.236
63423W        W28650  36.338  10.410  14.332
63424W        W28651  12.243  30.535   1.784
63425W        W28652  12.256   8.193   4.653
63426W        W28653  32.228  35.894  11.194
63427W        W28654  22.008  34.389   0.611
63428W        W28655  40.341  25.834   0.971
63429W        W28656  38.606  39.031   9.962
63430W        W28657  44.045  28.412  14.949
63431W        W28658  31.042  19.086  11.417
63432W        W28659  25.852  12.394  10.296
63433W        W28660  35.945  29.197  12.421
63434W        W28661   8.465  19.057   1.651
63435W        W28662  21.675  12.019   1.623
63436W        W28663  12.435  40.226   1.466
63437W        W28664  44.250  34.743   3.168
63438W        W28665   1.853  10.917   1.180
63439W        W28666  36.043  32.148  13.145
63440W        W28667  42.827  13.823   3.568
63441W        W28668  14.435  44.995   3.061
63442W        W28669  27.580   6.358  11.674
63443W        W28670   4.399  10.646  13.393
63444W        W28671   4.969   5.165   3.746
63445W        W28672  33.113  25.700  12.403
63446W        W28673   9.088  14.163   3.772
63447W        W28674  10.623  25.208   1.351
63448W        W28675  29.348   2.791   0.401
63449W        W28676   9.205   1.454  14.872
63450W        W28677   0.174   3.905   3.727
63451W        W28678   8.147   2.673   4.603
63452W        W28679  39.184  39.634   1.324
63453W        W28680  37.491  11.125  12.121
63454W        W28681   1.279  38.372   3.833
63455W        W28682  14.801  37.376   4.565
63456W        W28683  43.847  16.429   1.633
63457W        W28684  33.882   2.773  11.978
63458W        W28685  13.504   6.259  13.034
63459W        W28686  35.285  42.814   0.886
63460W        W28687  38.034  16.495   3.796
63461W        W28688  44.055  23.019  12.139
63462W        W28689  24.242  16.482  12.522
63463W        W28690  39.702  41.503  11.667
63464W        W28691  42.430  23.237   4.096
63465W        W28692  26.804  42.834  11.967
63466W        W28693  15.855   9.090  12.994
63467W        W28694  16.051   4.326   4.143
63468W        W28695   4.975   0.880  13.615
63469W        W28696  16.581   3.443  12.631
63470W        W28697   5.750  35.804  10.750
63471W        W28698  30.174  38.698  12.996
63472W        W28699  11.862  30.206   1.822
63473W        W28700   6.429   5.982   3.722
63474W        W28701  26.964   6.276   2.071
63475W        W28702  13.158  38.930   4.596
63476W        W28703  23.917  13.274  13.185
63477W        W28704  23.981  24.202   3.238
63478W        W28705  36.372  33.018  14.533
63479W        W28706  22.689  17.988   3.219
63480W        W28707  41.921  37.334  12.983
63481W        W28708  33.992  43.289   2.650
63482W        W28709  37.387   7.627  14.325
63483W        W28710   6.818  16.197  13.409
63484W        W28711   9.317  17.177   0.819
63485W        W28712  36.986  34.430  13.399
63486W        W28713   0.529  14.399  13.259
63487W        W28714  23.089  19.471  11.559
63488W        W28715   1.241  36.430  13.089
63489W        W28716  36.787  30.071   2.167
63490W        W28717  35.002   5.794   0.028
63491W        W28718  14.817  11.652   1.726
63492W        W28719   1.473  13.270   0.273
63493W        W28720  36.888  16.032  10.626
63494W        W28721  23.137  24.208   2.822
63495W        W28722   0.973  18.866  12.095
63496W        W28723   2.302  23.428  11.034
63497W        W28724  33.364  25.382   1.343
63498W        W28725  22.539  15.810   5.005
63499W        W28726   7.705   1.496   4.391
63500W        W28727   9.470  33.949   9.936
63501W        W28728   3.600  10.310  10.622
63502W        W28729  39.915  30.327  14.422
63503W        W28730  43.881  17.580  14.476
63504W        W28731  30.070  16.244   4.022
63505W        W28732  22.336  28.681  14.385
63506W        W28733  28.060  24.623  10.787
63507W        W28734  34.912  25.431   3.679
63508W        W28735  10.693  10.799  14.475
63509W        W28736   2.295   8.787  14.461
63510W        W28737  32.728   0.867  12.030
63511W        W28738  13.628  12.718  13.335
63512W        W28739  43.235  13.766  12.891
63513W        W28740  19.712  42.435  12.036
63514W        W28741  37.352  38.224   4.537
63515W        W28742   4.792  40.164  13.219
63516W        W28743  16.166  20.375  13.596
63517W        W28744   7.537  44.189  13.506
63518W        W28745  27.293  22.498   1.610
63519W        W28746   3.574  42.449   1.397
63520W        W28747   3.908  30.329   3.582
63521W        W28748  22.391  34.879  13.862
63522W        W28749   0.832  24.274   2.776
63523W        W28750  44.061  31.455   1.128
63524W        W28751  30.148  28.106   2.238
63525W        W28752  32.185  39.346   2.391
63526W        W28753  12.583  35.623  13.798
63527W        W28754   6.128  16.748  11.946
63528W        W28755  33.774  28.621   1.890
63529W        W28756  14.212  16.150   4.291
63530W        W28757  23.655   2.566   3.425
63531W        W28758  19.672  23.236   1.854
63532W        W28759  42.098  33.977   0.515
63533W        W28760  17.782  41.554   4.167
63534W        W28761  10.630  28.418   2.481
63535W        W28762  31.649  29.626  12.744
63536W        W28763  12.135  43.814   4.444
63537W        W28764  19.670  42.842  12.419
63538W        W28765  19.335  16.249   4.885
63539W        W28766  34.524  22.564   4.773
63540W        W28767  11.323   0.949  11.915
63541W        W28768  41.358  43.860  13.342
63542W        W28769  35.074  30.783   5.032
63543W        W28770  24.820  21.064  10.320
63544W        W28771  24.496  12.438   2.556
63545W        W28772   6.744  20.045  14.986
63546W        W28773   2.751  15.324   0.794
63547W        W28774  14.470   9.439   1.566
63548W        W28775   4.685   1.216  11.341
63549W        W28776  17.267  28.958  13.240
63550W        W28777  31.350  38.047  10.640
63551W        W28778  12.670  12.043   3.026
63552W        W28779   1.026  14.972   2.291
63553W        W28780  19.853   3.871  11.585
63554W        W28781  23.605   0.828   2.159
63555W        W28782  43.904   4.861  11.424
63556W        W28783  28.726  26.591  10.017
63557W        W28784  42.062   6.508   2.388
63558W        W28785  16.755  33.897   4.114
63559W        W28786  20.110  29.671   0.932
63560W        W28787  36.832  32.487  13.432
63561W        W28788  30.591  40.222   1.887
63562W        W28789  12.874   3.978   3.156
63563W        W28790  20.503  10.180   3.474
63564W        W28791  19.754  19.126   4.171
63565W        W28792  25.726  18.533  14.088
63566W        W28793  10.562  44.834   2.134
63567W        W28794   0.479  39.864   3.366
63568W        W28795  26.517  33.164   2.827
63569W        W28796   3.520  42.833  12.565
63570W        W28797  31.965  44.431  14.933
63571W        W28798   0.573  35.573   0.360
63572W        W28799   1.817  29.911   4.558
63573W        W28800  15.081  28.049  14.895
63574W        W28801  18.515   8.786   1.239
63575W        W28802   6.152  31.527   0.135
63576W        W28803  21.101   6.148   3.777
63577W        W28804  42.323  27.508   0.275
63578W        W28805  34.032  18.146  13.208
63579W        W28806  41.064  26.438   1.286
63580W        W28807  23.928  17.036   4.792
63581W        W28808   6.645  44.214   3.738
63582W        W28809  36.969  26.581  13.799
63583W        W28810  25.686   9.295   2.099
63584W        W28811   6.183  19.732   0.341
63585W        W28812  36.999  44.518  12.141
63586W        W28813  13.890  23.146  14.020
63587W        W28814   9.491  43.318  12.821
63588W        W28815   3.785  36.515  11.477
63589W        W28816  34.123  13.241   2.297
63590W        W28817   6.886  36.191   1.761
63591W        W28818  28.198  42.386   2.916
63592W        W28819  31.145  29.847  11.526
63593W        W28820  35.513  20.170   4.510
63594W        W28821  34.632  19.035   3.623
63595W        W28822  34.334   1.429  14.664
63596W        W28823  31.462   2.377   4.083
63597W        W28824  30.037  43.712   4.824
63598W        W28825  38.818  37.088   4.860
63599W        W28826  43.565  13.129  12.542
63600W        W28827   1.172   4.859  14.271
63601W        W28828  30.120  21.717  11.543
63602W        W28829  31.709  29.940   3.230
63603W        W28830  15.506   6.182   2.336
63604W        W28831  38.935  27.255  14.361
63605W        W28832  19.759   4.134   1.401
63606W        W28833  44.331  21.697   0.273
63607W        W28834  24.558  21.288   1.334
63608W        W28835   6.549  22.771   0.818
63609W        W28836  37.715  34.789   9.959
63610W        W28837   9.810  19.284  11.525
63611W        W28838  39.245  33.519   2.842
63612W        W28839  26.390  43.425  11.567
63613W        W28840  34.365  33.476   0.931
63614W        W28841   1.324   2.868   2.911
63615W        W28842  32.833  20.740  11.652
63616W        W28843  12.644  43.324  10.721
63617W        W28844  41.945  44.766   0.837
63618W        W28845  11.547  39.402  13.450
63619W        W28846  39.313  29.134  12.818
63620W        W28847   8.265  18.147   2.871
63621W        W28848  17.885  15.674  14.399
63622W        W28849  16.627  17.718  14.728
63623W        W28850  38.240  40.931   3.724
63624W        W28851   9.138  13.041  13.415
63625W        W28852  10.117  42.322   1.246
63626W        W28853  23.085  11.552  12.949
63627W        W28854  10.093  24.210   1.478
63628W        W28855  28.186  42.896  10.700
63629W        W28856  23.495  23.687   2.146
63630W        W28857  25.397  41.769  13.967
63631W        W28858   8.177   4.494  11.562
63632W        W28859  31.586   3.619   4.463
63633W        W28860  28.272   3.578   4.099
63634W        W28861  21.158   8.199   1.796
63635W        W28862  28.054   2.003   1.346
63636W        W28863  12.742  40.411   3.195
63637W        W28864  11.090  12.740  11.271
63638W        W28865  39.514  17.116  13.445
63639W        W28866  40.011   6.158  12.149
63640W        W28867  11.732  31.043  14.520
63641W        W28868  37.843  22.183   3.133
63642W        W28869  38.250  22.124  11.700
63643W        W28870  32.031  29.157   2.392
63644W        W28871  26.917   3.662  13.920
63645W        W28872  40.896   2.568   1.999
63646W        W28873  30.659  37.451  13.080
63647W        W28874  39.354  31.531   0.038
63648W        W28875  30.985  29.654  10.727
63649W        W28876  37.902   5.802  14.917
63650W        W28877  37.996  13.397  13.854
63651W        W28878  31.569  13.200   3.245
63652W        W28879  18.591  31.175  14.899
63653W        W28880  20.570  36.989   1.259
63654W        W28881  16.082   4.094   4.598
63655W        W28882   8.102   6.787   3.299
63656W        W28883  19.502  13.833  11.572
63657W        W28884  36.153   7.230  12.526
63658W        W28885  43.077  28.051  10.826
63659W        W28886   6.388  21.600   1.825
63660W        W28887  40.691  24.032  13.979
63661W        W28888  28.973  41.818   1.845
63662W        W28889  41.363   7.684   2.736
63663W        W28890   3.985   1.796  11.707
63664W        W28891  22.091   6.799   4.274
63665W        W28892  18.046  35.428  11.280
63666W        W28893  21.129  41.873   4.912
63667W        W28894  38.340   1.823  12.421
63668W        W28895  27.798  23.026  13.993
63669W        W28896  35.303  19.237  14.761
63670W        W28897   2.449  29.123   0.003
63671W        W28898  40.945  27.759   3.740
63672W        W28899  29.534  43.740  13.341
63673W        W28900   5.381   2.867  13.980
63674W        W28901  37.897   2.476  11.158
63675W        W28902  43.909  20.988   0.474
63676W        W28903  12.710   4.870  12.013
63677W        W28904  44.976  34.427   4.166
63678W        W28905  40.322  19.655   1.144
63679W        W28906  17.665  34.525   2.358
63680W        W28907   5.192  32.081   3.222
63681W        W28908   3.108  20.086   3.283
63682W        W28909  39.650  19.306  11.709
63683W        W28910  28.834  26.458   2.864
63684W        W28911  18.062  41.557   1.485
63685W        W28912   0.325  14.074  14.657
63686W        W28913  11.809  10.174   1.483
63687W        W28914  19.695  14.286  13.977
63688W        W28915  29.654  21.084  12.303
63689W        W28916  38.854  40.246  11.064
63690W        W28917  34.490  39.308   1.363
63691W        W28918   4.135  37.648   2.402
63692W        W28919  36.394  10.251   0.550
63693W        W28920  25.402  14.836  14.472
63694W        W28921   1.753   9.659   2.382
63695W        W28922  30.306  28.198  11.816
63696W        W28923  10.929  43.901   0.792
63697W        W28924  26.502  18.568   3.149
63698W        W28925  41.521  43.947  13.874
63699W        W28926  35.917   7.393   0.251
63700W        W28927  21.562  42.470  12.493
63701W        W28928  31.490  17.973  12.892
63702W        W28929  36.975  34.362  11.170
63703W        W28930  27.406  37.336   0.879
63704W        W28931  12.460  37.007  13.809
63705W        W28932   5.715   6.735  13.363
63706W        W28933  36.280  18.219   2.149
63707W        W28934   6.153  36.804   3.321
63708W        W28935  26.606  14.390  12.176
63709W        W28936  22.297  23.639   2.831
63710W        W28937  20.107  12.639  12.099
63711W        W28938  38.527  19.207   3.429
63712W        W28939  19.743   6.216   1.343
63713W        W28940  31.521  43.967   1.925
63714W        W28941   0.830  32.880  12.452
63715W        W28942  11.562   7.695  14.363
63716W        W28943   0.555   1.020   1.918
63717W        W28944  33.095  40.601  11.563
63718W        W28945  10.483   7.498   1.899
63719W        W28946  30.184  11.368  11.887
63720W        W28947  27.027  30.985  12.656
63721W        W28948  26.738  30.754   0.813
63722W        W28949  32.095  11.758   3.815
63723W        W28950  22.577  41.984  14.773
63724W        W28951   3.259  25.247  13.936
63725W        W28952  16.729  42.360  11.629
63726W        W28953  36.503  31.448  14.849
63727W        W28954  37.602   7.745   0.319
63728W        W28955  43.062   5.663   1.797
63729W        W28956  36.896  11.419  14.085
63730W        W28957  35.494  28.393  10.946
63731W        W28958  21.848  24.240   1.365
63732W        W28959  41.826   0.760  11.652
63733W        W28960  37.049   0.671   4.181
63734W        W28961   6.164   7.532  13.009
63735W        W28962   3.323  42.319  11.687
63736W        W28963  40.540  14.215   3.731
63737W        W28964   3.964   3.218  12.953
63738W        W28965   8.489  21.766   2.603
63739W        W28966   9.076  26.919   4.411
63740W        W28967   6.791  15.578  14.490
63741W        W28968  25.602  32.163  12.663
63742W        W28969  13.343  36.663  12.563
63743W        W28970   4.715  21.706  14.416
63744W        W28971  32.914  22.610  14.560
63745W        W28972  19.463   8.455  13.967
63746W        W28973  22.834  29.598  14.554
63747W        W28974  41.544  26.526  11.673
63748W        W28975  17.538  16.537  14.349
63749W        W28976   8.106  31.543  13.498
63750W        W28977  10.315  24.738  12.837
63751W        W28978  21.615  11.941  12.154
63752W        W28979   2.247  33.452  13.984
63753W        W28980  27.247  36.541   1.406
63754W        W28981  24.850  37.019  10.876
63755W        W28982  34.905  31.949  11.601
63756W        W28983  16.792  19.073  13.961
63757W        W28984  20.054  14.603   1.273
63758W        W28985  35.346  39.352  14.842
63759W        W28986  44.432  23.078  11.171
63760W        W28987  29.010  31.494   4.737
63761W        W28988   6.120  30.555  14.199
63762W        W28989  12.536  42.775   3.143
63763W        W28990   6.737  16.559   3.614
63764W        W28991  44.135  38.898   2.561
63765W        W28992   5.964   1.440  14.039
63766W        W28993   5.493  24.036  12.873
63767W        W28994  22.969  43.338   0.804
63768W        W28995   7.398  39.094  11.208
63769W        W28996  23.076  41.083   2.752
63770W        W28997  28.195  22.380  12.021
63771W        W28998  17.218  16.372  14.868
63772W        W28999   9.587  30.369   1.744
63773W        W29000  10.464   2.169  13.599
63774W        W29001  11.572  38.930  14.073
63775W        W29002  37.083   4.892  13.595
63776W        W29003   8.932  37.644  13.957
63777W        W29004   8.864  41.042   4.468
63778W        W29005  32.992  30.911  10.899
63779W        W29006  20.234  44.816   2.991
63780W        W29007  20.713  29.286  10.928
63781W        W29008  39.415  34.563   1.421
63782W        W29009  17.504  16.154   4.153
63783W        W29010  17.924  13.280   3.254
63784W        W29011  44.370  14.804  14.862
63785W        W29012   5.414   1.727   2.182
63786W        W29013  15.497  36.211  11.695
63787W        W29014  36.511  31.575   1.178
63788W        W29015  40.455  38.130  11.642
63789W        W29016  22.136  14.136  13.135
63790W        W29017  31.462  21.205   5.094
63791W        W29018  11.318  24.680  14.305
63792W        W29019  37.307  18.128   4.500
63793W        W29020  43.909  40.999  13.609
63794W        W29021  16.581  33.041  12.459
63795W        W29022  32.620  24.683   4.340
63796W        W29023  21.107  16.629   0.480
63797W        W29024  36.571  20.840  14.419
63798W        W29025   4.659   9.822  14.448
63799W        W29026  13.287   3.248   2.513
63800W        W29027   8.447  20.748  13.565
63801W        W29028   9.479  12.105   1.847
63802W        W29029  35.552  25.954   3.131
63803W        W29030  44.067  16.098   4.144
63804W        W29031  30.465  22.154   0.357
63805W        W29032  41.326   2.801   3.548
63806W        W29033   8.330  20.859  13.057
63807W        W29034   4.482  38.406  11.522
63808W        W29035  31.585  38.556  14.926
63809W        W29036  23.661  42.744   3.085
63810W        W29037  21.836  39.455   4.869
63811W        W29038  18.978   4.257   4.011
63812W        W29039  12.869  30.557  12.454
63813W        W29040   4.729  40.833  13.870
63814W        W29041  36.388  36.471  13.570
63815W        W29042  31.452   2.258  13.873
63816W        W29043   8.880   2.836  14.603
63817W        W29044  37.597  30.451  13.887
63818W        W29045  15.327   3.713   4.140
63819W        W29046  41.454   6.679   0.321
63820W        W29047  28.410  28.907   3.602
63821W        W29048  10.220  16.498  13.425
63822W        W29049  30.869   8.610  11.650
63823W        W29050  31.412  13.085   1.362
63824W        W29051  35.537  16.810   2.281
63825W        W29052  39.925  12.528   4.660
63826W        W29053  32.353  11.399   3.590
63827W        W29054  19.840  43.191   4.110
63828W        W29055   5.471  38.567   2.701
63829W        W29056  17.253   6.252  11.688
63830W        W29057  26.975   8.291   3.060
63831W        W29058  42.488  25.571   2.441
63832W        W29059  30.644  23.566  13.997
63833W        W29060  26.545  15.611   3.572
63834W        W29061  44.974  19.099   2.945
63835W        W29062  33.337  23.468  12.448
63836W        W29063   7.757  39.155  13.748
63837W        W29064  16.372  20.139  13.014
63838W        W29065  15.677  16.766  12.440
63839W        W29066  34.524   9.828   0.373
63840W        W29067  25.156  36.031  13.513
63841W        W29068  35.987  21.225  11.095
63842W        W29069  31.603   7.333   2.677
63843W        W29070  42.885   5.196  13.929
63844W        W29071  44.190  21.050   0.023
63845W        W29072   9.894  30.839   1.386
63846W        W29073   5.179  41.587  13.903
63847W        W29074   0.941  33.591   0.826
63848W        W29075  28.500  31.902   1.852
63849W        W29076  27.318   4.412  14.909
63850W        W29077  28.681  31.585   1.433
63851W        W29078  32.171  12.109   0.984
63852W        W29079   0.486   0.296   3.723
63853W        W29080  26.919  11.291   4.899
63854W        W29081  22.428  28.808  10.346
63855W        W29082  40.584  31.177  13.504
63856W        W29083  37.691   4.657   1.907
63857W        W29084  30.112  10.873  13.550
63858W        W29085  36.487   7.727  14.179
63859W        W29086  26.227  17.679   3.773
63860W        W29087  27.356   4.682   4.014
63861W        W29088  44.500  13.286  14.863
63862W        W29089  19.658  44.644   2.198
63863W        W29090  21.079   2.674   3.916
63864W        W29091  12.567  29.152   3.183
63865W        W29092   0.644   7.620  13.594
63866W        W29093  38.580  13.176  14.510
63867W        W29094  28.639  39.696   4.474
63868W        W29095  17.861   8.595  12.201
63869W        W29096  15.696  24.336   0.420
63870W        W29097  12.334   5.259  14.997
63871W        W29098  37.463  17.011  12.978
63872W        W29099  31.929   9.748   1.762
63873W        W29100  24.435  30.561   4.492
63874W        W29101  25.171   5.532   4.393
63875W        W29102   2.246  39.014   1.348
63876W        W29103  16.861  41.505   3.237
63877W        W29104   8.044  10.057   3.138
63878W        W29105  12.497   8.189  10.982
63879W        W29106  30.410  16.635  11.930
63880W        W29107  34.623  43.107   4.261
63881W        W29108  31.542   6.611  13.838
63882W        W29109  30.661  13.666   3.778
63883W        W29110  13.437   8.601  11.344
63884W        W29111  37.642   3.550   0.838
63885W        W29112  41.763  11.363  14.311
63886W        W29113  10.293  16.969  14.017
63887W        W29114   5.279  17.263  14.021
63888W        W29115  26.479   3.784  14.218
63889W        W29116  39.334  44.291  12.954
63890W        W29117   5.128   1.831  13.901
63891W        W29118  19.812  30.572  14.512
63892W        W29119  25.368  19.018  13.422
63893W        W29120  13.525  35.912   0.312
63894W        W29121  33.107  16.108  11.973
63895W        W29122  11.105  22.571  14.724
63896W        W29123   4.268  11.506   3.084
63897W        W29124  36.652   1.984   3.440
63898W        W29125  30.398  10.499   0.705
63899W        W29126  44.900  23.422   2.823
63900W        W29127   9.380  20.467  12.520
63901W        W29128   2.715  31.521  13.104
63902W        W29129   1.712  24.119  10.539
63903W        W29130  16.579  31.721  14.488
63904W        W29131   6.876  38.912   0.028
63905W        W29132   6.696   5.256   3.861
63906W        W29133  30.880  18.722   3.315
63907W        W29134   9.124  11.636  13.534
63908W        W29135  36.810  26.131  12.505
63909W        W29136   2.485  23.330  13.729
63910W        W29137  35.656  30.586   2.831
63911W        W29138  44.336  27.563  12.834
63912W        W29139  29.438   9.431  14.289
63913W        W29140  33.471  40.578   4.160
63914W        W29141  13.620  43.386   1.363
63915W        W29142  34.192  26.286   0.403
63916W        W29143  14.836  38.853  12.679
63917W        W29144  28.483   1.158  13.326
63918W        W29145  42.780  24.629  14.465
63919W        W29146  19.832  34.442   3.128
63920W        W29147   3.422  38.621   0.967
63921W        W29148  43.410   2.192  10.815
63922W        W29149  26.862  32.959  10.779
63923W        W29150  42.891  23.694  11.870
63924W        W29151  32.641  23.925  12.062
63925W        W29152  36.574  12.598   1.345
63926W        W29153  25.127  20.449   3.243
63927W        W29154  30.639  43.204  12.474
63928W        W29155  44.968   3.705  12.164
63929W        W29156  19.286  40.567   0.544
63930W        W29157  24.637  43.612  12.850
63931W        W29158  43.793   3.341  13.442
63932W        W29159   3.727  21.349  10.984
63933W        W29160  16.675  24.618  14.507
63934W        W29161  12.796  25.171   1.404
63935W        W29162   8.295  42.344  11.351
63936W        W29163  24.141  39.041   2.658
63937W        W29164  39.487   4.702  13.372
63938W        W29165  22.921  31.969   1.373
63939W        W29166   7.598  14.997  13.270
63940W        W29167  40.164  26.995   0.390
63941W        W29168  37.531   3.252   2.540
63942W        W29169  23.922   1.552  14.595
63943W        W29170  29.563  33.033   1.489
63944W        W29171  10.495  37.047  12.968
63945W        W29172   4.842  36.246  12.915
63946W        W29173  36.747  16.635   2.052
63947W        W29174  19.496  31.180  13.296
63948W        W29175  27.931  28.363  12.986
63949W        W29176  44.574   1.630   1.094
63950W        W29177  31.874  40.262  14.472
63951W        W29178  18.586   2.960   0.981
63952W        W29179  25.474  36.388  12.558
63953W        W29180  31.359  42.040   0.031
63954W        W29181   0.196  23.110  10.598
63955W        W29182  42.476  18.780  14.023
63956W        W29183  26.755  20.674   4.552
63957W        W29184   3.030  37.687   0.406
63958W        W29185   2.716   6.728  13.950
63959W        W29186   4.417  18.282  10.649
63960W        W29187  35.703  22.266   2.156
63961W        W29188   8.698  14.118  12.610
63962W        W29189  17.228  34.115  12.827
63963W        W29190  21.692  25.640  14.323
63964W        W29191  42.903  26.506  13.494
63965W        W29192  30.658  28.076   2.226
63966W        W29193  36.593  16.975   0.029
63967W        W29194  19.126  15.115   0.728
63968W        W29195  28.650  36.939   4.081
63969W        W29196  27.644  36.790   1.647
63970W        W29197   4.749  38.608  10.211
63971W        W29198  40.847   0.031  14.400
63972W        W29199  35.892  43.317  11.211
63973W        W29200   6.867  23.172  10.771
63974W        W29201  28.636  18.664  12.580
63975W        W29202  12.132  26.021   4.109
63976W        W29203  15.168  41.855  12.828
63977W        W29204  28.553  43.084   0.927
63978W        W29205   3.181  30.865  14.318
63979W        W29206   5.055  33.642  13.038
63980W        W29207  35.557  43.979   4.786
63981W        W29208  21.719  38.204  12.995
63982W        W29209  26.678  33.188   2.341
63983W        W29210  30.640  15.520   3.062
63984W        W29211  32.580   7.567   2.151
63985W        W29212  36.585   0.535   0.129
63986W        W29213  30.016  10.303  12.457
63987W        W29214   8.130  10.353   0.558
63988W        W29215  13.853   6.519   2.737
63989W        W29216  26.933   8.621   3.449
63990W        W29217  26.019  32.137   3.587
63991W        W29218  12.146  15.562  14.992
63992W        W29219  10.356  17.210  11.232
63993W        W29220   1.461  39.558   1.669
63994W        W29221  43.581  44.302   1.391
63995W        W29222   1.320  23.182   3.068
63996W        W29223  32.622  21.655  14.351
63997W        W29224   9.867  14.787  13.520
63998W        W29225  31.470  27.711  13.091
63999W        W29226   5.900   6.915   3.116
64000W        W29227   0.865   2.059   1.228
64001W        W29228  13.095  26.678  14.848
64002W        W29229  39.833  19.532   0.986
64003W        W29230   8.845  42.910  13.358
64004W        W29231   0.447   3.959   2.341
64005W        W29232  22.763  32.983   3.086
64006W        W29233  40.365  34.213   1.578
64007W        W29234  42.072  20.747   0.083
64008W        W29235  33.595  42.304  11.139
64009W        W29236  14.528  34.295  12.998
64010W        W29237  23.619  21.839   4.554
64011W        W29238  42.169  41.413   4.542
64012W        W29239  38.352   5.742  11.960
64013W        W29240   7.302  20.643  11.623
64014W        W29241  20.937  44.874   0.853
64015W        W29242  17.634  42.372  14.526
64016W        W29243   5.378  18.672  12.815
64017W        W29244  30.034  35.231  14.912
64018W        W29245  21.202  41.804  12.015
64019W        W29246  17.194  43.986   4.612
64020W        W29247  19.247  35.434   0.287
64021W        W29248  43.761  41.645   1.509
64022W        W29249  18.088  12.451  12.495
64023W        W29250  43.652  10.874  10.720
64024W        W29251  37.117  23.530   0.276
64025W        W29252   8.891   9.146   2.197
64026W        W29253  19.833   3.364  13.781
64027W        W29254  26.957  39.542   2.303
64028W        W29255  25.604   0.518   0.778
64029W        W29256  23.547  41.261   0.692
64030W        W29257  14.117  11.068  13.377
64031W        W29258  25.063  12.880  12.208
64032W        W29259  13.099  22.675   2.422
64033W        W29260  20.134   4.366  14.052
64034W        W29261  37.072   6.806   4.025
64035W        W29262  12.503  15.771   2.710
64036W        W29263  24.928  27.903   0.768
64037W        W29264  16.275   5.352  11.647
64038W        W29265  35.553  25.691  11.039
64039W        W29266  43.358  41.695   0.912
64040W        W29267  39.234  29.425  12.359
64041W        W29268  11.626   8.154   3.765
64042W        W29269   3.564  24.186  12.042
64043W        W29270  33.106  38.504   4.638
64044W        W29271  21.316  24.719   3.683
64045W        W29272  39.995   8.860   4.273
64046W        W29273  14.794   6.908   4.459
64047W        W29274   4.665   6.377  13.451
64048W        W29275  34.889  22.854   2.435
64049W        W29276  42.119   9.566  10.215
64050W        W29277  42.734  25.637  11.990
64051W        W29278   9.747  32.042  11.159
64052W        W29279   0.562  12.559   3.217
64053W        W29280  33.922  19.512   1.457
64054W        W29281  35.299  29.795  10.665
64055W        W29282  21.705  30.496  13.041
64056W        W29283  26.180  26.971  14.085
64057W        W29284   1.819  35.122  12.348
64058W        W29285   4.981  20.533  14.565
64059W        W29286  22.650  21.974  11.406
64060W        W29287   6.814  31.502   3.427
64061W        W29288   3.731  29.068  13.848
64062W        W29289  19.202  26.927   3.597
64063W        W29290  44.243  10.783  12.834
64064W        W29291   3.629   3.205   9.820
64065W        W29292  11.354  19.639  13.951
64066W        W29293  38.512  11.774  11.478
64067W        W29294  17.218  27.880  10.791
64068W        W29295   2.695   9.456   2.811
64069W        W29296  12.351   1.831  12.523
64070W        W29297  19.511  22.213   1.718
64071W        W29298  14.306   3.422   2.814
64072W        W29299  33.468  30.639   2.196
64073W        W29300  19.503  23.748   1.786
64074W        W29301  41.479  15.412   3.225
64075W        W29302   0.199  27.185  13.404
64076W        W29303  21.586   5.912  10.774
64077W        W29304  22.759  18.757  14.266
64078W        W29305  38.481  12.095   0.285
64079W        W29306  36.282   9.003   0.881
64080W        W29307   8.062  27.977  14.691
64081W        W29308  32.829  14.286   0.810
64082W        W29309  35.327  15.120  11.665
64083W        W29310   2.099  28.835   2.673
64084W        W29311  40.271  29.495  12.498
64085W        W29312   1.224  30.059  12.337
64086W        W29313   6.427  13.320  14.348
64087W        W29314   3.333  14.553   0.548
64088W        W29315  11.677  23.100   3.769
64089W        W29316  39.604  19.311   3.552
64090W        W29317   3.770  31.220  13.504
64091W        W29318  19.536   3.369   0.430
64092W        W29319  41.450  18.828  11.953
64093W        W29320  40.460  36.513  14.285
64094W        W29321  43.219  22.419   3.094
64095W        W29322  32.037  34.027  11.173
64096W        W29323  12.337  43.241   0.307
64097W        W29324  32.532  33.409  13.780
64098W        W29325  10.209  37.698  11.494
64099W        W29326  41.317   1.516  14.846
64100W        W29327  33.032  21.045  12.080
64101W        W29328   7.865  31.450   4.821
64102W        W29329  37.580  38.540  11.523
64103W        W29330  28.412  21.677   0.844
64104W        W29331  35.918  37.115   2.631
64105W        W29332  33.399  20.347  12.119
64106W        W29333  40.107  44.766  10.732
64107W        W29334  27.068  35.516  10.925
64108W        W29335   2.825  27.053  13.075
64109W        W29336  28.172  14.623  11.902
64110W        W29337  23.640  44.713   4.034
64111W        W29338  19.729  26.620  10.350
64112W        W29339  43.423  29.160  12.009
64113W        W29340  12.715   9.858  11.612
64114W        W29341  18.488  40.455   1.683
64115W        W29342  38.016   8.795   2.430
64116W        W29343   5.327   7.555   1.377
64117W        W29344   9.876  25.927   1.723
64118W        W29345   8.128   7.022  11.179
64119W        W29346  24.113  12.085  11.108
64120W        W29347   3.899  14.728  14.249
64121W        W29348  37.471  13.108  11.818
64122W        W29349  30.870  34.918   2.649
64123W        W29350  32.227  14.793   3.987
64124W        W29351  19.780   9.917   1.022
64125W        W29352  10.404  28.012  14.412
64126W        W29353  19.688   7.738   1.248
64127W        W29354  28.118  17.776  10.770
64128W        W29355  22.103  37.359  11.612
64129W        W29356  26.220  20.414   1.728
64130W        W29357  42.509  40.252   2.807
64131W        W29358  39.352  29.726  11.045
64132W        W29359  35.835  43.928   4.182
64133W        W29360  20.045  40.501   4.026
64134W        W29361  39.074  16.846  13.424
64135W        W29362  26.168  44.048   2.586
64136W        W29363  37.577  39.455   1.942
64137W        W29364  25.576   3.904  12.573
64138W        W29365   7.153   7.356   1.257
64139W        W29366  30.559  32.868  11.643
64140W        W29367  21.263  40.347   3.315
64141W        W29368  16.590  33.515   2.281
64142W        W29369  30.454  12.563   0.911
64143W        W29370  35.985  19.137   0.285
64144W        W29371  30.569   9.959   3.656
64145W        W29372  27.493  37.316  12.642
64146W        W29373  38.637  42.624  13.037
64147W        W29374  34.643  38.924   3.778
64148W        W29375  27.625  30.612   4.173
64149W        W29376   4.631  15.170  12.454
64150W        W29377  44.262  44.461  13.437
64151W        W29378   3.859  37.272   2.114
64152W        W29379  29.431  11.422   2.550
64153W        W29380  16.672  28.856  14.014
64154W        W29381  16.917  38.804   1.423
64155W        W29382  37.588  12.306  13.439
64156W        W29383  27.852  23.131  13.018
64157W        W29384  41.279   3.640   2.900
64158W        W29385  23.743  42.411   4.855
64159W        W29386  27.689  32.929  10.793
64160W        W29387  44.987  38.912   0.796
64161W        W29388  31.358  30.521   1.801
64162W        W29389   2.871  31.231   5.009
64163W        W29390  36.829   1.566   4.418
64164W        W29391  39.619  17.422   0.946
64165W        W29392   6.174  22.480   3.586
64166W        W29393  36.061   3.932   1.758
64167W        W29394  17.113  40.334   5.056
64168W        W29395  24.562  40.925   3.748
64169W        W29396  12.100  15.827  13.401
64170W        W29397  22.629  10.239  10.531
64171W        W29398  44.343  10.530   4.052
64172W        W29399   2.292   0.882  10.163
64173W        W29400  10.679  28.949   1.060
64174W        W29401  34.385  40.916   2.793
64175W        W29402  21.568   3.776   2.642
64176W        W29403  10.124  39.234  14.360
64177W        W29404   5.604  22.507  14.975
64178W        W29405  22.008  44.272  11.578
64179W        W29406  36.837  32.609   3.385
64180W        W29407  36.306  43.295   4.150
64181W        W29408  21.794   4.276  14.541
64182W        W29409  36.160   0.473   1.305
64183W        W29410  35.073  28.490   2.850
64184W        W29411  30.431   9.551  10.305
64185W        W29412   8.154   6.433   0.270
64186W        W29413  10.141  23.523   1.765
64187W        W29414  13.242   6.262  14.820
64188W        W29415  36.738   5.963   9.627
64189W        W29416   4.369  31.375  13.861
64190W        W29417  27.642  11.754  13.274
64191W        W29418   3.924  24.509   0.028
64192W        W29419   6.262  18.968  14.179
64193W        W29420  39.156  13.367   3.371
64194W        W29421  12.877  14.245   3.447
64195W        W29422   1.441  24.054   0.532
64196W        W29423  39.734   7.875  11.574
64197W        W29424  30.949   0.412   3.249
64198W        W29425   8.287  15.857  14.989
64199W        W29426  39.752  30.665  13.601
64200W        W29427   8.590  42.993   0.204
64201W        W29428  20.099  10.708  13.527
64202W        W29429  33.635  35.832  13.375
64203W        W29430  21.713   2.770   3.591
64204W        W29431   9.251  28.736   3.353
64205W        W29432  25.623  30.921  10.898
64206W        W29433   4.907  21.535   0.253
64207W        W29434  39.720  36.932   0.284
64208W        W29435  17.715  24.925  12.100
64209W        W29436  25.508  22.668   2.654
64210W        W29437  14.207  36.581   4.700
64211W        W29438  18.721  44.696   2.291
64212W        W29439  22.590  10.210   2.464
64213W        W29440  15.596  22.949  12.105
64214W        W29441  25.254  13.642   4.406
64215W        W29442  11.572   1.484   0.879
64216W        W29443   8.972  16.836   3.114
64217W        W29444  14.885  40.682   3.133
64218W        W29445  34.759   1.419  14.962
64219W        W29446   4.425  30.146   3.610
64220W        W29447  35.094   9.640  12.614
64221W        W29448  18.194  18.600  12.875
64222W        W29449  24.509  29.423  13.846
64223W        W29450   1.557  30.125   1.068
64224W        W29451  15.082  36.020   2.358
64225W        W29452  39.866  40.801  14.474
64226W        W29453  31.184   0.670   4.326
64227W        W29454  17.115  35.454  12.283
64228W        W29455  21.608  35.205  13.828
64229W        W29456  19.199  21.965  12.135
64230W        W29457  35.943  34.611   1.721
64231W        W29458  20.865  36.051   3.704
64232W        W29459  22.152  42.354   0.671
64233W        W29460  25.486  44.909   4.371
64234W        W29461   7.798   5.637   1.745
64235W        W29462  32.875  13.599   0.318
64236W        W29463  18.880  40.952   4.855
64237W        W29464  21.292  13.781   4.592
64238W        W29465   8.989   7.128  11.991
64239W        W29466  29.524   0.005  14.801
64240W        W29467  16.400  35.041   0.326
64241W        W29468  33.560  21.708  10.656
64242W        W29469  15.189  10.881  12.080
64243W        W29470  34.540  19.004   0.229
64244W        W29471   3.434   7.746  12.831
64245W        W29472  42.978  34.951   3.195
64246W        W29473  13.154  16.395   1.155
64247W        W29474  25.528  25.161  12.479
64248W        W29475  10.703  38.071  12.468
64249W        W29476  19.858  18.068  14.783
64250W        W29477   3.438  14.386   0.018
64251W        W29478  18.661  17.194   2.570
64252W        W29479  20.635  16.178   4.540
64253W        W29480  44.261  40.733   2.759
64254W        W29481   5.287  40.729  11.134
64255W        W29482  31.624  23.332  14.531
64256W        W29483  42.367  12.623   3.209
64257W        W29484  40.960   3.077  10.172
64258W        W29485  28.039  11.064   3.338
64259W        W29486  33.465   6.670   2.586
64260W        W29487  32.371  36.078  14.515
64261W        W29488  15.089  16.663   3.198
64262W        W29489  23.664  10.056   1.974
64263W        W29490   8.920  36.131  10.731
64264W        W29491  35.961  32.323  14.952
64265W        W29492  28.595   4.988  10.503
64266W        W29493   5.333  10.337  10.639
64267W        W29494   1.427   1.856  11.611
64268W        W29495  29.148  42.556  11.115
64269W        W29496  27.151  17.210  10.705
64270W        W29497   8.289   6.316   2.376
64271W        W29498  15.529  25.555  13.551
64272W        W29499  25.707  33.590   0.978
64273W        W29500  31.353  14.208   4.106
64274W        W29501  40.936  13.734   0.525
64275W        W29502  37.651  34.948  10.829
64276W        W29503   9.607   3.976   2.435
64277W        W29504  44.792  25.693   3.240
64278W        W29505  22.325  33.232  12.187
64279W        W29506   6.750   8.441   1.860
64280W        W29507  33.894   4.298   1.235
64281W        W29508   8.149  18.122  13.537
64282W        W29509  34.527  43.240   2.698
64283W        W29510  10.559   2.131   2.704
64284W        W29511   6.764   1.963  12.945
64285W        W29512  20.784  43.693  10.657
64286W        W29513  13.719  23.298  11.820
64287W        W29514  24.710  18.433   4.321
64288W        W29515  29.275   4.567  14.272
64289W        W29516  36.028   3.630  11.166
64290W        W29517  21.679  43.589   4.191
64291W        W29518  12.430   0.937   3.113
64292W        W29519  32.593  33.384   3.123
64293W        W29520   6.206  20.920   4.071
64294W        W29521  15.091  33.861  11.202
64295W        W29522  35.883  22.066  11.560
64296W        W29523  17.471  34.602  12.933
64297W        W29524  28.113  21.408   5.354
64298W        W29525  12.721   2.874   4.115
64299W        W29526   7.634  10.285   0.763
64300W        W29527  32.614  11.265   2.322
64301W        W29528  13.036  38.120   2.343
64302W        W29529   2.523  38.464  12.660
64303W        W29530   5.514   1.734  14.491
64304W        W29531  18.636  10.167   0.218
64305W        W29532  27.832   7.316   1.907
64306W        W29533  34.178  39.986   4.217
64307W        W29534  42.865  20.013   3.158
64308W        W29535  27.619   7.282   1.000
64309W        W29536  35.668  30.926   3.684
64310W        W29537  17.499  26.005  10.871
64311W        W29538  15.650  29.224   2.867
64312W        W29539  26.127  12.389  14.904
64313W        W29540  42.411  25.894   1.137
64314W        W29541  38.356  17.771  14.986
64315W        W29542   5.017  41.751   4.038
64316W        W29543  36.466   8.236  14.788
64317W        W29544  36.129  26.593  13.418
64318W        W29545   9.302   4.503  10.197
64319W        W29546  26.047   6.072   1.893
64320W        W29547  40.215  36.355  13.849
64321W        W29548   6.755  15.088  14.356
64322W        W29549  36.592  11.296   0.944
64323W        W29550   7.221   1.231   1.788
64324W        W29551  10.449   3.841   3.100
64325W        W29552  29.031  41.003   1.416
64326W        W29553  35.172  21.593   4.427
64327W        W29554  22.692  39.144   2.037
64328W        W29555  40.755  27.942   4.212
64329W        W29556  32.393  25.426   1.499
64330W        W29557  33.030  31.397   1.876
64331W        W29558   1.037  33.414   4.574
64332W        W29559   9.569  31.632  11.900
64333W        W29560  40.798   8.255   4.073
64334W        W29561  44.535  30.692   4.356
64335W        W29562   8.750  44.297  14.480
64336W        W29563   0.789  11.732  11.170
64337W        W29564  11.140  43.475  12.063
64338W        W29565  39.046   8.862   3.229
64339W        W29566  37.832  42.405   0.106
64340W        W29567  33.826  33.603   3.876
64341W        W29568  14.306  39.679  12.712
64342W        W29569  33.342  39.005  13.507
64343W        W29570  36.154  35.997  13.490
64344W        W29571  43.367  33.067  14.978
64345W        W29572  37.606  18.821   1.434
64346W        W29573  18.119  33.520  12.105
64347W        W29574   2.181  32.602   0.281
64348W        W29575  42.592  42.940  10.806
64349W        W29576  26.906  30.713  13.596
64350W        W29577  22.061  21.615   3.200
64351W        W29578  28.611  32.846  12.242
64352W        W29579   7.387  12.273  10.816
64353W        W29580   7.979  41.036  12.070
64354W        W29581  43.714  27.970   5.388
64355W        W29582  25.646  44.620   3.466
64356W        W29583   8.823   6.850   1.704
64357W        W29584  39.669  11.267   4.690
64358W        W29585  35.596  37.613   9.879
64359W        W29586  26.176  29.208  12.565
64360W        W29587  42.310  36.914   3.175
64361W        W29588   9.925   8.109  11.131
64362W        W29589  16.194  28.591   3.396
64363W        W29590  23.113  23.282  10.265
64364W        W29591  40.531  29.117  12.068
64365W        W29592  16.186  43.052   3.655
64366W        W29593   3.204   1.028   4.291
64367W        W29594  12.086  38.602  12.662
64368W        W29595  11.787  20.277   4.400
64369W        W29596  21.080  32.106   4.078
64370W        W29597  13.119  22.628   3.415
64371W        W29598  19.642  41.618  14.050
64372W        W29599  19.392  33.114   2.737
64373W        W29600  30.557  18.266   2.643
64374W        W29601  30.058   4.342  12.081
64375W        W29602  29.506  20.992   2.253
64376W        W29603  28.951   5.374   2.255
64377W        W29604   0.816  12.645  12.537
64378W        W29605   0.390  33.591  13.828
64379W        W29606  18.116  20.113   0.719
64380W        W29607  41.910  17.602   0.390
64381W        W29608  28.732  10.884  11.135
64382W        W29609   3.763  33.311  13.553
64383W        W29610   6.908  30.694   2.167
64384W        W29611  35.552   1.571   2.966
64385W        W29612  16.356   7.903  11.655
64386W        W29613  26.168  23.575   1.421
64387W        W29614   0.912  22.918   0.326
64388W        W29615  13.915  25.702   1.348
64389W        W29616  39.777  14.355   3.276
64390W        W29617  40.091  30.106   3.263
64391W        W29618  38.427   7.477  14.755
64392W        W29619   3.728  12.151  10.790
64393W        W29620  36.321  23.585   2.689
64394W        W29621  41.386  28.435   2.283
64395W        W29622  16.857  17.502   3.329
64396W        W29623  31.991  18.178   2.510
64397W        W29624  34.417  24.124  10.441
64398W        W29625  43.832  18.387  14.070
64399W        W29626  18.506  30.665  11.961
64400W        W29627   2.203  26.213  14.830
64401W        W29628   3.525  32.082  11.967
64402W        W29629  12.671   5.196  12.462
64403W        W29630  36.149  39.512  14.372
64404W        W29631   4.488  18.820   4.564
64405W        W29632  21.586  20.289   3.631
64406W        W29633   0.746   5.726   2.789
64407W        W29634  23.635   8.670  14.523
64408W        W29635  21.858   9.600   0.333
64409W        W29636  12.577  35.448  12.502
64410W        W29637  24.267  11.531   5.106
64411W        W29638  29.162  21.718   0.476
64412W        W29639   1.693  15.271  12.659
64413W        W29640   2.056  11.632  12.089
64414W        W29641  10.951  12.813  12.587
64415W        W29642  16.716   0.825   0.703
64416W        W29643  31.992  11.441  12.038
64417W        W29644   5.916  22.279  10.517
64418W        W29645  25.734  31.873   3.997
64419W        W29646  32.180  39.989  13.385
64420W        W29647  19.952  31.365  11.124
64421W        W29648  32.402  21.546   1.149
64422W        W29649   7.467  42.257  14.185
64423W        W29650  38.909   8.220  13.522
64424W        W29651  16.592  29.635   1.167
64425W        W29652  28.623  33.076   2.668
64426W        W29653  38.850  22.139  11.041
64427W        W29654  39.322  22.608   1.534
64428W        W29655  22.975  40.591  13.933
64429W        W29656  30.719  15.818   3.497
64430W        W29657  35.113  18.055  12.929
64431W        W29658   9.431  13.054   1.795
64432W        W29659  26.546  37.301   1.443
64433W        W29660   7.657  27.464   2.603
64434W        W29661  35.551   3.356  10.592
64435W        W29662  40.836  12.762   0.201
64436W        W29663  18.487   6.127   2.414
64437W        W29664  27.893  24.325  13.850
64438W        W29665  31.133  25.413  13.666
64439W        W29666  35.353   6.284  13.996
64440W        W29667  28.621  36.104  13.124
64441W        W29668  31.136   0.696  14.491
64442W        W29669   9.016  23.486   0.353
64443W        W29670  18.701  26.238  10.166
64444W        W29671  30.779   2.161   0.421
64445W        W29672  20.425  11.742   3.240
64446W        W29673  35.693  18.452   2.770
64447W        W29674  23.494  43.841   4.515
64448W        W29675  39.102  31.133  13.369
64449W        W29676  24.052  41.250   0.885
64450W        W29677  36.497  11.593  12.939
64451W        W29678  37.911  15.080   3.353
64452W        W29679   7.863  43.313  10.649
64453W        W29680  10.512  35.980  12.050
64454W        W29681  24.695   3.437   3.991
64455W        W29682  26.212  29.176  14.358
64456W        W29683   6.121  37.878  13.883
64457W        W29684  14.137   6.862  13.841
64458W        W29685   4.156   2.956  14.514
64459W        W29686  40.390  35.868   3.614
64460W        W29687  12.525  32.283   3.680
64461W        W29688  26.780  43.524   1.647
64462W        W29689  11.174  10.679  11.608
64463W        W29690  37.627  29.058  11.080
64464W        W29691  38.877  29.229  11.459
64465W        W29692  28.086   1.181  13.785
64466W        W29693  29.500  17.150  13.787
64467W        W29694  23.617  37.287   0.797
64468W        W29695  27.923  44.360  10.797
64469W        W29696  21.845  42.518  14.810
64470W        W29697  30.901  12.701  12.688
64471W        W29698  12.644  33.247  10.245
64472W        W29699   3.960  31.577   2.235
64473W        W29700  35.369  25.467  10.600
64474W        W29701  21.005   0.896  11.641
64475W        W29702  36.946  18.534  10.769
64476W        W29703   1.697  13.170  13.932
64477W        W29704   4.166  33.605   2.842
64478W        W29705  26.404  34.814   1.487
64479W        W29706  38.178  23.789   3.379
64480W        W29707  11.142   4.366   3.080
64481W        W29708  31.463  43.850   2.816
64482W        W29709  34.287   0.916   3.908
64483W        W29710  41.657  39.930   1.433
64484W        W29711  38.640  28.655   1.304
64485W        W29712   6.451  31.775   3.179
64486W        W29713   3.806   0.740  14.365
64487W        W29714  30.196  25.716  13.467
64488W        W29715  23.029  38.087  11.230
64489W        W29716  19.531   8.417   1.709
64490W        W29717   5.672  41.956  14.894
64491W        W29718  31.538  36.574  11.037
64492W        W29719  19.377  31.495   0.395
64493W        W29720  35.970  23.815   4.168
64494W        W29721  14.648  18.993   4.727
64495W        W29722  15.166  21.313   0.817
64496W        W29723   5.123  27.755   3.761
64497W        W29724  44.380   0.319   3.674
64498W        W29725  40.968  38.571   4.915
64499W        W29726  43.473  36.058  13.007
64500W        W29727  10.082  34.174   0.656
64501W        W29728  14.100   7.971   2.774
64502W        W29729   1.940  40.882   2.191
64503W        W29730  16.117  14.161   3.224
64504W        W29731  27.882  39.038   3.196
64505W        W29732  21.516  41.049  14.932
64506W        W29733  39.957  38.308  12.957
64507W        W29734   1.522  16.105  10.796
64508W        W29735   6.774  35.284   3.100
64509W        W29736  21.937  30.283   2.720
64510W        W29737  29.545   9.195  12.160
64511W        W29738  16.203  13.233  14.784
64512W        W29739  37.350  33.706  10.471
64513W        W29740  33.978  35.620  12.587
64514W        W29741  40.679  40.536  11.144
64515W        W29742  39.358  40.188   2.227
64516W        W29743   6.161  43.444   4.052
64517W        W29744  19.145  34.680   3.665
64518W        W29745  27.165  43.405  14.994
64519W        W29746   6.841   8.899  11.305
64520W        W29747  25.966  26.978   4.460
64521W        W29748   1.898  29.660  10.819
64522W        W29749  16.040  15.467  10.212
64523W        W29750  27.686  27.734   2.234
64524W        W29751  32.116  40.234   1.248
64525W        W29752  32.736   6.982  12.139
64526W        W29753  24.030   3.527   4.276
64527W        W29754  26.697  26.727   0.667
64528W        W29755  26.242   2.165   1.408
64529W        W29756  40.549   4.939   0.518
64530W        W29757   4.465  20.034   2.867
64531W        W29758  19.669  22.152  11.946
64532W        W29759   4.236   1.009  14.444
64533W        W29760   2.799  14.222   1.172
64534W        W29761  26.693  40.548  14.523
64535W        W29762  21.290   4.573  13.397
64536W        W29763   9.845   3.288   0.886
64537W        W29764  12.817  44.240   3.301
64538W        W29765  27.996  30.465  14.176
64539W        W29766  33.907  43.837  14.175
64540W        W29767  43.842  20.621   1.383
64541W        W29768  36.561   9.355   4.140
64542W        W29769   6.731  17.656   2.786
64543W        W29770  10.309  23.465  13.491
64544W        W29771  28.005   7.292   1.401
64545W        W29772  42.241   6.136   1.286
64546W        W29773  43.074  25.126  11.022
64547W        W29774  42.331   9.076   2.346
64548W        W29775  33.015  35.103   3.076
64549W        W29776  33.946  30.090  11.434
64550W        W29777   8.213  26.381   4.571
64551W        W29778  13.729  23.746  13.455
64552W        W29779  15.804  20.658  12.123
64553W        W29780  26.565  36.939  12.192
64554W        W29781  26.668  40.098  13.961
64555W        W29782  24.913  29.953   3.673
64556W        W29783   5.653  34.365  12.924
64557W        W29784  31.402  39.971   3.619
64558W        W29785   5.804  13.878  13.875
64559W        W29786   8.381  17.633   4.266
64560W        W29787   7.323  13.639   5.070
64561W        W29788   3.318  25.497   1.779
64562W        W29789  24.641   4.712  11.376
64563W        W29790  34.940  27.010  12.036
64564W        W29791  20.257  12.160   4.049
64565W        W29792  36.515  12.347   4.215
64566W        W29793  12.361  17.328   1.728
64567W        W29794  28.117  37.125   2.150
64568W        W29795  38.850  41.273   2.418
64569W        W29796  40.964  43.281   4.211
64570W        W29797  27.681  21.555   0.973
64571W        W29798  24.235  29.328  12.489
64572W        W29799   5.502  28.519   5.143
64573W        W29800  34.652  30.651  11.283
64574W        W29801  32.004   7.637  14.354
64575W        W29802  36.287   7.306  13.893
64576W        W29803  42.789  19.082   1.643
64577W        W29804  40.976   6.437  13.527
64578W        W29805  34.494   6.095  13.381
64579W        W29806  40.990  44.401   3.148
64580W        W29807  41.830  39.985  14.341
64581W        W29808  33.837  28.014  12.039
64582W        W29809  35.614  38.816  13.921
64583W        W29810  17.803  37.290  14.303
64584W        W29811  43.121  25.132  12.840
64585W        W29812  17.812   4.684  11.209
64586W        W29813  34.255  41.879   0.755
64587W        W29814  38.103  37.128   3.182
64588W        W29815  29.145  28.922   4.701
64589W        W29816   5.748  43.838   0.500
64590W        W29817  30.125   8.497   5.357
64591W        W29818   8.019  13.313   2.237
64592W        W29819   9.614   7.735  11.330
64593W        W29820  22.448  16.025  12.512
64594W        W29821  25.122  20.965   3.245
64595W        W29822  40.314  14.351   1.457
64596W        W29823  20.970  24.706   0.390
64597W        W29824  21.395  40.825  12.576
64598W        W29825  18.181  14.303   1.860
64599W        W29826  25.776  29.434  13.508
64600W        W29827   1.205  17.140   0.921
64601W        W29828   0.757  32.739   4.247
64602W        W29829  27.609  15.087  10.682
64603W        W29830  41.447  13.711   1.417
64604W        W29831  17.732  15.375  13.988
64605W        W29832  30.191  37.545  13.351
64606W        W29833  17.321  44.971   2.695
64607W        W29834   7.740   6.788  10.923
64608W        W29835   4.831   3.358  12.553
64609W        W29836  24.083  25.749  10.976
64610W        W29837  15.104  19.741   4.542
64611W        W29838  24.252   1.709  10.728
64612W        W29839  43.545   0.994   4.542
64613W        W29840   4.836   3.664   3.647
64614W        W29841   9.156  35.619   4.713
64615W        W29842   7.846  43.415  12.032
64616W        W29843  10.304  42.526   1.745
64617W        W29844  31.512   3.973   3.568
64618W        W29845   0.214  12.765  10.837
64619W        W29846  35.920  33.587  11.007
64620W        W29847  32.211  40.724   1.358
64621W        W29848  43.865  22.024   1.441
64622W        W29849  23.809  22.859  13.675
64623W        W29850  33.584  43.472  14.360
64624W        W29851  30.060  44.356   1.369
64625W        W29852  41.241  40.627   1.848
64626W        W29853  41.600   9.757  12.400
64627W        W29854  42.694  29.834   4.947
64628W        W29855  20.199  32.688   1.243
64629W        W29856  27.709   0.861  13.585
64630W        W29857  24.073  32.506   4.669
64631W        W29858  13.242   8.420  12.314
64632W        W29859   6.113  30.575   1.558
64633W        W29860  20.984  43.238  13.113
64634W        W29861  31.113  15.276   4.862
64635W        W29862   2.933   2.822  14.720
64636W        W29863  42.308  32.901   3.603
64637W        W29864  33.924  23.617   3.895
64638W        W29865   6.233  32.794   1.140
64639W        W29866  28.682  21.002  14.237
64640W        W29867   7.810  16.443   1.303
64641W        W29868   4.337  19.148   1.982
64642W        W29869   9.643  11.615   1.795
64643W        W29870  28.296  18.659   1.934
64644W        W29871  41.484  36.222   0.680
64645W        W29872  40.418   6.182   1.819
64646W        W29873  39.503   4.268  10.333
64647W        W29874  23.299  14.063  13.294
64648W        W29875   1.983  42.282  12.112
64649W        W29876  19.150  24.581  10.609
64650W        W29877  22.459  25.202  11.155
64651W        W29878   6.212  40.140   0.851
64652W        W29879  39.698  36.166   4.671
64653W        W29880  24.201   9.287  11.630
64654W        W29881   4.739   7.711  11.002
64655W        W29882  14.855   4.546   3.768
64656W        W29883  32.871  30.705  11.562
64657W        W29884   9.321  30.929  11.147
64658W        W29885  11.292   6.700   1.060
64659W        W29886   3.469  23.162  11.867
64660W        W29887  44.038  21.487  11.580
64661W        W29888  33.446  44.797  11.469
64662W        W29889  24.987  11.634   3.138
64663W        W29890  43.409  17.475  13.470
64664W        W29891  20.783   1.841   1.328
64665W        W29892  27.080  23.899   1.115
64666W        W29893   1.978  29.454  12.685
64667W        W29894  27.709  33.013   2.186
64668W        W29895   6.948  26.049  13.493
64669W        W29896   6.304  10.162   3.090
64670W        W29897   7.095  27.186   3.233
64671W        W29898  14.324   2.350  11.134
64672W        W29899  14.392  30.152  12.513
64673W        W29900  32.017  10.197   3.081
64674W        W29901  27.605  10.682  13.103
64675W        W29902   7.787  25.477   0.566
64676W        W29903   1.550   4.065   0.087
64677W        W29904  41.267  27.456   1.358
64678W        W29905  16.549  10.977  14.234
64679W        W29906  19.066  16.892  14.997
64680W        W29907  13.569  43.682  10.649
64681W        W29908  42.093  21.748   4.522
64682W        W29909  25.482  25.972   2.234
64683W        W29910  10.208   6.792   2.405
64684W        W29911  11.686  23.978  14.253
64685W        W29912  24.086  14.566   3.074
64686W        W29913  40.319   8.676   0.800
64687W        W29914  38.822  18.006   1.652
64688W        W29915  39.391   1.802   2.135
64689W        W29916   2.437  34.382   4.391
64690W        W29917   4.454  22.972   3.189
64691W        W29918  26.490  25.016   0.416
64692W        W29919   7.410   7.375  12.532
64693W        W29920  34.556  24.082   1.024
64694W        W29921  37.267   9.254   0.010
64695W        W29922  19.246  25.112  13.936
64696W        W29923  33.055   9.153   0.899
64697W        W29924  18.204  14.504  12.592
64698W        W29925  40.281  37.186   2.924
64699W        W29926   6.985  11.215   3.691
64700W        W29927  29.454  21.723  13.611
64701W        W29928  33.964   7.307  13.890
64702W        W29929   9.177  33.971   0.972
64703W        W29930  40.295   7.092  14.786
64704W        W29931  42.718   2.482   3.870
64705W        W29932  17.750  23.012  12.189
64706W        W29933  40.195  26.219  11.704
64707W        W29934  14.006  37.530   3.626
64708W        W29935  34.416  18.763   1.788
64709W        W29936  28.913  17.696   0.603
64710W        W29937  42.285  19.194   2.247
64711W        W29938  31.387   7.044   3.661
64712W        W29939   6.031  44.328  12.401
64713W        W29940  16.193  11.152   4.601
64714W        W29941  39.020  26.070   0.818
64715W        W29942  34.396  43.019  14.451
64716W        W29943  29.571  27.179  13.818
64717W        W29944   9.898  27.506   4.172
64718W        W29945  38.470  17.587  10.729
64719W        W29946  43.012  16.761   3.604
64720W        W29947  33.963   0.005  13.780
64721W        W29948   7.191  41.865  13.920
64722W        W29949  42.326  38.153   0.425
64723W        W29950  18.284   3.008  10.813
64724W        W29951  29.606  35.591   0.327
64725W        W29952  33.943  29.634  11.705
64726W        W29953  40.923   9.276   2.508
64727W        W29954  18.218  37.295  14.599
64728W        W29955  10.304  32.613   2.706
64729W        W29956  44.528  12.693  11.604
64730W        W29957   3.666  26.773   0.022
64731W        W29958  35.463   3.208   3.990
64732W        W29959  33.058   0.147  13.144
64733W        W29960   5.341  42.811   0.343
64734W        W29961  39.911  41.268  11.240
64735W        W29962  21.062  24.661   2.405
64736W        W29963  15.305  34.393  10.612
64737W        W29964  44.883   0.030   3.144
64738W        W29965  11.136  35.017   3.250
64739W        W29966  24.122  21.605   2.909
64740W        W29967  44.900  15.629  10.048
64741W        W29968  18.039   1.402   4.634
64742W        W29969  14.009  30.359   3.076
64743W        W29970  35.364  39.829   4.711
64744W        W29971  36.583  14.905   3.243
64745W        W29972  42.813  14.669  14.090
64746W        W29973  42.051   4.950  11.154
64747W        W29974  11.221  27.671  14.256
64748W        W29975  38.048   2.011   3.634
64749W        W29976  42.424  25.730   0.622
64750W        W29977  29.494  31.822   1.725
64751W        W29978  36.509  44.518   0.313
64752W        W29979  26.733   7.863   1.229
64753W        W29980  25.354  43.423  11.538
64754W        W29981  37.252   1.648   4.714
64755W        W29982  36.025  34.803   4.082
64756W        W29983   7.417  41.984  11.953
64757W        W29984  24.623  43.374  14.557
64758W        W29985  24.853  10.038  13.661
64759W        W29986  21.117  42.086   1.987
64760W        W29987   9.265  20.262   3.137
64761W        W29988  28.250  32.377   1.199
64762W        W29989   1.511  11.271   1.365
64763W        W29990  11.465  11.167  14.623
64764W        W29991  14.365  21.227   2.328
64765W        W29992  10.200  11.354  14.029
64766W        W29993  12.652  39.895   3.257
64767W        W29994  16.337  11.296   2.717
64768W        W29995  18.217   6.079  14.544
64769W        W29996   9.300  15.527   3.206
64770W        W29997  20.532  26.725  10.890
64771W        W29998  18.531   9.748  12.065
64772W        W29999   6.866  29.246  11.685
64773W        W30000  19.878  18.042  13.987
64774W        W30001   6.302  16.223   3.592
64775W        W30002  26.465  24.880   3.174
64776W        W30003  43.149  28.027   1.740
64777W        W30004  23.373  31.966   4.596
64778W        W30005  13.873  41.489   3.246
64779W        W30006  43.286  34.760   0.881
64780W        W30007  23.563  18.205  12.260
64781W        W30008  35.725  22.246  14.067
64782W        W30009  24.752  40.100  13.975
64783W        W30010  44.638  16.635   4.562
64784W        W30011  16.787  42.430  14.723
64785W        W30012  27.306   0.481  11.940
64786W        W30013   2.500  14.056   3.134
64787W        W30014  13.160  21.154   3.373
64788W        W30015  28.374  30.116  13.521
64789W        W30016   1.550  20.487  13.912
64790W        W30017   9.030  19.186  12.032
64791W        W30018  33.172  20.757  12.491
64792W        W30019  10.705  33.346  13.736
64793W        W30020   5.885  24.337   2.280
64794W        W30021   4.195   7.296  13.935
64795W        W30022  29.263  38.857   2.209
64796W        W30023  29.445  36.500   0.029
64797W        W30024  23.708   6.759   2.201
64798W        W30025  16.054   0.283  13.976
64799W        W30026  42.987  39.468  12.175
64800W        W30027  22.036  29.074   4.212
64801W        W30028   9.438  40.147  12.522
64802W        W30029  36.919  39.434   1.388
64803W        W30030  23.706  10.799   2.337
64804W        W30031  27.205  31.150   2.592
64805W        W30032  17.625  16.232   3.676
64806W        W30033  29.605  21.181  11.784
64807W        W30034  13.142  35.101  11.197
64808W        W30035  39.518  39.790  13.562
64809W        W30036  24.816  32.864   0.360
64810W        W30037  20.698  40.989   0.734
64811W        W30038   8.688  35.104   2.193
64812W        W30039   5.312   3.499  13.054
64813W        W30040  30.459  34.144   1.893
64814W        W30041  23.323  29.050  13.538
64815W        W30042  19.005  27.061  11.841
64816W        W30043   4.067  20.294  13.027
64817W        W30044  28.039  27.593   3.581
64818W        W30045  24.275  17.994   1.337
64819W        W30046   3.288  37.081  10.855
64820W        W30047  35.949  30.476   2.391
64821W        W30048  14.608  22.635  14.357
64822W        W30049  40.781   3.813  14.917
64823W        W30050  31.426  33.570   0.754
64824W        W30051  43.139   9.613  10.838
64825W        W30052  34.963  25.178   3.243
64826W        W30053  17.715   5.629   0.923
64827W        W30054  27.346  38.084   5.475
64828W        W30055  26.631   6.922   3.889
64829W        W30056  28.487  28.982  12.592
64830W        W30057  14.562  41.073   2.421
64831W        W30058   1.506  37.038  14.678
64832W        W30059  21.046  21.151   4.035
64833W        W30060  42.587  15.410   0.228
64834W        W30061  31.322   2.513  12.450
64835W        W30062   2.384  20.813   2.386
64836W        W30063   8.323  44.407  10.685
64837W        W30064  25.004  41.759   4.241
64838W        W30065  23.066  15.861   2.410
64839W        W30066  43.840  29.755  12.510
64840W        W30067  26.192   1.255  14.494
64841W        W30068   1.670  42.326   0.679
64842W        W30069  19.164  27.322   0.908
64843W        W30070  39.316  18.859  13.976
64844W        W30071   5.573   9.166  11.100
64845W        W30072  12.121  11.311   1.048
64846W        W30073   7.215  16.853   1.887
64847W        W30074  21.410   3.499   4.422
64848W        W30075   7.451  41.226   4.651
64849W        W30076  42.463  33.127   0.165
64850W        W30077  23.551  33.868  12.821
64851W        W30078  12.596  13.424   3.287
64852W        W30079  15.618  16.111   3.890
64853W        W30080  25.055  10.221   1.801
64854W        W30081   7.297  25.044   3.373
64855W        W30082  24.919  32.822  12.590
64856W        W30083  26.833  20.054  11.400
64857W        W30084  35.327  21.645  13.535
64858W        W30085  26.201  23.986   2.610
64859W        W30086  41.317  41.687   4.028
64860W        W30087  31.627  44.769   4.303
64861W        W30088  38.422  15.110   4.122
64862W        W30089  32.672  41.235   3.437
64863W        W30090   1.252  23.205   2.126
64864W        W30091   5.735  17.268  14.294
64865W        W30092   1.886  23.185  10.627
64866W        W30093   3.158  11.608   0.290
64867W        W30094   7.395  20.746  13.447
64868W        W30095  43.018   7.330  10.166
64869W        W30096   1.072  26.616  13.449
64870W        W30097   3.485  14.904   4.430
64871W        W30098  10.840  24.870  12.025
64872W        W30099  29.231  44.422  12.970
64873W        W30100  17.639  40.117  14.533
64874W        W30101  33.138  26.484   4.904
64875W        W30102  42.031   5.404  13.993
64876W        W30103  26.954  44.100  12.013
64877W        W30104  15.646  22.807   5.119
64878W        W30105  36.911  38.005   4.375
64879W        W30106  20.422  16.024  11.977
64880W        W30107  14.688  43.478   1.765
64881W        W30108  29.023  15.153   2.447
64882W        W30109  27.524  34.004   2.846
64883W        W30110  27.005  19.498  11.601
64884W        W30111  42.446  27.452   4.601
64885W        W30112  28.643   6.727   3.275
64886W        W30113  24.652  39.292   0.435
64887W        W30114  41.106  37.377  11.705
64888W        W30115   9.809   9.348   1.321
64889W        W30116   3.340   2.857  12.881
64890W        W30117  15.016   6.414  14.541
64891W        W30118   1.223   0.113   2.769
64892W        W30119  26.145  10.246  13.843
64893W        W30120   4.063  21.557  13.580
64894W        W30121  18.049   9.325   3.776
64895W        W30122   9.647  31.644  14.980
64896W        W30123   9.914  21.890  14.537
64897W        W30124  30.445  12.296   4.045
64898W        W30125  35.123  30.987  14.891
64899W        W30126  39.612  30.085  10.804
64900W        W30127  27.514  24.909  13.636
64901W        W30128  42.739  21.730   4.091
64902W        W30129  21.673  11.129   2.750
64903W        W30130  11.395  39.290  12.597
64904W        W30131   5.588  36.616  14.048
64905W        W30132  27.806   3.353   4.125
64906W        W30133  43.605   2.826   3.607
64907W        W30134  32.091  37.784   3.250
64908W        W30135  11.216  26.191  11.653
64909W        W30136  12.247  41.906   0.985
64910W        W30137  22.453  31.936  13.353
64911W        W30138   6.364   3.210  11.164
64912W        W30139   7.000  20.646  13.868
64913W        W30140  27.964   4.157  11.200
64914W        W30141  36.112  37.217  13.066
64915W        W30142  25.548   8.115  10.509
64916W        W30143  18.873   4.290  14.561
64917W        W30144   8.825  40.009  11.357
64918W        W30145  31.399  12.456  14.798
64919W        W30146  24.593   5.782  12.265
64920W        W30147  43.283  23.707  14.852
64921W        W30148  25.607  34.871  11.823
64922W        W30149  29.356  25.717   3.379
64923W        W30150  37.468  22.734  14.872
64924W        W30151   1.012  21.678   3.213
64925W        W30152  15.558  33.134  10.749
64926W        W30153  41.825  39.057   2.226
64927W        W30154  36.200  19.771   3.243
64928W        W30155   4.014  25.332   1.707
64929W        W30156   1.000  12.857  14.445
64930W        W30157  16.172   2.231  13.056
64931W        W30158  25.366  42.489   2.403
64932W        W30159   9.314   1.312  13.924
64933W        W30160  26.499  16.639   1.910
64934W        W30161  41.007  24.091   2.699
64935W        W30162  21.770  21.188  11.209
64936W        W30163  35.228   3.130   1.841
64937W        W30164   3.637  28.203   1.554
64938W        W30165  23.606   0.786  13.600
64939W        W30166  38.352  35.528   0.042
64940W        W30167  24.404   7.800  12.543
64941W        W30168  25.156  27.574   3.757
64942W        W30169   7.750   7.238   2.380
64943W        W30170  32.081   1.943   4.037
64944W        W30171   3.498  28.037   2.006
64945W        W30172  34.788  32.297  14.081
64946W        W30173  10.151  11.601   1.792
64947W        W30174   5.047  34.408  12.019
64948W        W30175   3.974  41.789  12.530
64949W        W30176   2.277   6.358   3.283
64950W        W30177  31.942  18.663   2.364
64951W        W30178  11.344  11.158   4.557
64952W        W30179   7.847  29.021  11.823
64953W        W30180  41.290   0.268   4.529
64954W        W30181  28.134  36.588   2.203
64955W        W30182  29.211  12.195  14.372
64956W        W30183   4.511  44.410  11.571
64957W        W30184   2.006   8.617  13.055
64958W        W30185  41.846  13.406   4.863
64959W        W30186   1.783  28.370   3.518
64960W        W30187  35.955  43.082   2.841
64961W        W30188  14.172  37.430   4.125
64962W        W30189  39.765  17.620  10.595
64963W        W30190  21.026   1.279  10.460
64964W        W30191  24.429  28.792  11.093
64965W        W30192   4.847   4.047  11.168
64966W        W30193  16.930  31.791   2.217
64967W        W30194   0.480   6.951  13.205
64968W        W30195  28.748   4.294  13.531
64969W        W30196  16.365  24.847   2.725
64970W        W30197  18.581  34.096   1.506
64971W        W30198  44.517  43.220   3.352
64972W        W30199  23.607   5.469  13.365
64973W        W30200  22.723  17.872  14.779
64974W        W30201  30.591  30.209  14.425
64975W        W30202  27.421  25.653  12.932
64976W        W30203  30.931  30.000  14.781
64977W        W30204  11.352  44.777  14.940
64978W        W30205  29.542  24.146  12.069
64979W        W30206  33.267   5.692   3.475
64980W        W30207  25.173  34.486  13.453
64981W        W30208   3.014  36.281   2.833
64982W        W30209   8.249   5.467  14.091
64983W        W30210  13.830  14.564   2.257
64984W        W30211  44.216  31.485  12.953
64985W        W30212   9.931  11.285   0.382
64986W        W30213  26.608  24.552  14.287
64987W        W30214  16.047  25.794   3.827
64988W        W30215  33.559  13.372  10.376
64989W        W30216  41.929  34.352   3.547
64990W        W30217   2.343   9.169   0.590
64991W        W30218  40.381  22.384  13.861
64992W        W30219  20.735  13.968  12.085
64993W        W30220  37.561  10.800   4.235
64994W        W30221  30.589   8.420   0.256
64995W        W30222  27.294   7.265  13.502
64996W        W30223  37.873  17.314  13.920
64997W        W30224  25.850  19.554   1.349
64998W        W30225  10.801  19.249   5.006
64999W        W30226  37.047   5.379  10.743
65000W        W30227  13.150  31.388   4.196
65001W        W30228  43.463  14.753  13.309
65002W        W30229  33.491   2.540   3.116
65003W        W30230  24.711   8.187   4.143
65004W        W30231  17.152  29.990   3.761
65005W        W30232  41.508  24.471  13.431
65006W        W30233  10.731  12.808   4.588
65007W        W30234  14.422  43.922  12.759
65008W        W30235  10.724  19.326  11.404
65009W        W30236  32.378   7.242  14.296
65010W        W30237  41.525  29.495  13.283
65011W        W30238   8.447  13.971   4.528
65012W        W30239  21.557  36.454   1.787
65013W        W30240   5.612  15.525   3.620
65014W        W30241   5.918  36.089   4.630
65015W        W30242   9.819  23.592  12.657
65016W        W30243  32.357   7.940  12.159
65017W        W30244   6.622  23.182   2.363
65018W        W30245   1.754  39.647   4.528
65019W        W30246  23.093  23.961  14.374
65020W        W30247  23.015  44.309   3.658
65021W        W30248  41.033  16.253   0.160
65022W        W30249  32.123  29.715  12.559
65023W        W30250  21.083  31.624   0.756
65024W        W30251  44.226  12.705  12.546
65025W        W30252   8.091  26.766   2.795
65026W        W30253   3.964   3.542  13.860
65027W        W30254  15.243   6.921   2.176
65028W        W30255   9.812  29.360  12.697
65029W        W30256   9.091  34.536  14.875
65030W        W30257  27.053  32.095  11.242
65031W        W30258  39.200  11.225  10.357
65032W        W30259  38.375  43.788  10.591
65033W        W30260  27.079  21.232   4.102
65034W        W30261  39.869  32.628  14.436
65035W        W30262   9.287  22.272   1.678
65036W        W30263   3.855  39.165  13.091
65037W        W30264  36.993   4.680   2.145
65038W        W30265  13.818  15.530  12.043
65039W        W30266   7.650  31.716   1.175
65040W        W30267  13.684  43.782   1.734
65041W        W30268  27.468  42.772   2.805
65042W        W30269  42.109   1.615  11.579
65043W        W30270  17.710  44.827   2.296
65044W        W30271  41.818   1.758   4.560
65045W        W30272   3.870  15.183   4.611
65046W        W30273  25.699  14.631  12.556
65047W        W30274   1.806   6.320  11.592
65048W        W30275  23.462  14.547  14.496
65049W        W30276  37.567  44.943   3.292
65050W        W30277   6.334  38.895  13.923
65051W        W30278  13.084  14.673   2.830
65052W        W30279  38.347  20.918  14.050
65053W        W30280  40.893  14.579   4.504
65054W        W30281  24.749  33.406  11.089
65055W        W30282  25.059  29.995   2.699
65056W        W30283  31.775  15.387  12.140
65057W        W30284  40.355  36.067   1.315
65058W        W30285   2.034  11.884   0.938
65059W        W30286  13.413   6.282  11.671
65060W        W30287  43.388  34.369   2.727
65061W        W30288   5.523   0.808  12.549
65062W        W30289   0.906  20.805  14.473
65063W        W30290  33.500   7.343  13.514
65064W        W30291  33.483  34.617   1.502
65065W        W30292  13.271   5.533  12.045
65066W        W30293  35.703  14.252   1.185
65067W        W30294  40.147  13.227  13.553
65068W        W30295   1.231   3.741   0.336
65069W        W30296  39.609  27.983   2.886
65070W        W30297  36.704  13.322  14.376
65071W        W30298   1.425  29.482  13.577
65072W        W30299  20.294  43.855   3.602
65073W        W30300   9.091  34.893  13.457
65074W        W30301   6.829  19.096   0.330
65075W        W30302   3.824  12.394  12.883
65076W        W30303  29.833  22.623  12.519
65077W        W30304   1.000  21.801  14.225
65078W        W30305  33.400  44.278   0.763
65079W        W30306  36.477  10.418  13.422
65080W        W30307  16.581  24.573   3.932
65081W        W30308  28.127   5.343   3.934
65082W        W30309   3.358  11.435  12.532
65083W        W30310  26.070  17.615   1.033
65084W        W30311  20.423  39.276  13.393
65085W        W30312  21.617   7.342  12.656
65086W        W30313   1.178   7.846   2.243
65087W        W30314  39.470   4.969   3.143
65088W        W30315  28.205  28.647   1.347
65089W        W30316   5.064  20.706   1.690
65090W        W30317  38.088  17.010   2.732
65091W        W30318  31.987  20.747  13.987
65092W        W30319   5.652  18.931   0.902
65093W        W30320  17.096  28.471  10.308
65094W        W30321  40.338  35.133  12.541
65095W        W30322  20.905  10.544   0.804
65096W        W30323  29.676  30.084   1.243
65097W        W30324  38.781  18.654  12.611
65098W        W30325   0.329  26.319  14.006
65099W        W30326  19.494  14.150  13.521
65100W        W30327   0.527   1.520  12.237
65101W        W30328  42.494   3.411  13.357
65102W        W30329   9.408  32.920   0.730
65103W        W30330  32.167   2.488  11.575
65104W        W30331   9.749   1.796  13.110
65105W        W30332  21.633  40.779   0.354
65106W        W30333  18.285  21.904   2.982
65107W        W30334  14.099  22.786   3.545
65108W        W30335  15.837  19.273  13.122
65109W        W30336  34.057  15.619   3.808
65110W        W30337  26.036   7.670   1.259
65111W        W30338  41.045  15.648   3.051
65112W        W30339  33.245  24.903   2.272
65113W        W30340  36.033  13.331   2.324
65114W        W30341  27.170   0.130   5.164
65115W        W30342  29.416   7.660  14.939
65116W        W30343  30.199  29.067   2.156
65117W        W30344  18.112  17.243   0.729
65118W        W30345  10.640   0.309   0.751
65119W        W30346   9.422   1.992   3.591
65120W        W30347  17.541  11.027  11.179
65121W        W30348  29.013  21.674  14.597
65122W        W30349  42.421   2.208  12.957
65123W        W30350   0.827  29.484   2.281
65124W        W30351  27.009  44.688   0.928
65125W        W30352  33.264  42.034  14.442
65126W        W30353  23.184  40.949   4.145
65127W        W30354  21.623  15.268   4.637
65128W        W30355  18.192   7.140   4.786
65129W        W30356  32.155  41.230   1.376
65130W        W30357   3.065  10.768   3.160
65131W        W30358  27.680  32.473   3.772
65132W        W30359  26.938  15.851   4.260
65133W        W30360  42.810  27.585  10.746
65134W        W30361  33.502  24.937   4.262
65135W        W30362  28.670  28.382   2.675
65136W        W30363  30.068   7.567  13.772
65137W        W30364   2.078   8.920   4.746
65138W        W30365   2.869   6.168  12.926
65139W        W30366   8.904  36.004   3.687
65140W        W30367  31.516  12.292  13.902
65141W        W30368  27.537  38.605   1.419
65142W        W30369  44.822  38.395   0.654
65143W        W30370  13.264  32.519  12.020
65144W        W30371   5.187  21.143  10.619
65145W        W30372  35.150  40.939  13.455
65146W        W30373  39.505  34.913  14.764
65147W        W30374  13.603  17.594   0.329
65148W        W30375  30.139  13.153  11.822
65149W        W30376  28.245  44.389   5.194
65150W        W30377  10.326  34.684  11.930
65151W        W30378   9.573  20.858   2.866
65152W        W30379  37.984  33.089  10.578
65153W        W30380  24.925   0.498   1.662
65154W        W30381  33.920  26.072  14.215
65155W        W30382  41.668  15.830   0.916
65156W        W30383  37.706  27.155  12.342
65157W        W30384   4.163  35.370   1.501
65158W        W30385  41.461  18.577  13.316
65159W        W30386  11.188  31.938  13.024
65160W        W30387  34.148  15.155   0.877
65161W        W30388  30.594  24.212  14.414
65162W        W30389  38.243  10.256   4.681
65163W        W30390  22.788  23.093  12.862
65164W        W30391   2.025  16.292  10.976
65165W        W30392  16.693   1.012   3.680
65166W        W30393  16.388  14.670   3.861
65167W        W30394   8.209  28.884  11.447
65168W        W30395  29.310  12.372  10.734
65169W        W30396  22.246  12.682   3.214
65170W        W30397  14.838  22.246   3.918
65171W        W30398  22.007  18.110  14.028
65172W        W30399   1.723   1.974  12.021
65173W        W30400  40.304  40.081  12.218
65174W        W30401  26.014  11.810  11.312
65175W        W30402  24.475  21.527   3.640
65176W        W30403   4.274  11.639   2.553
65177W        W30404   8.550  25.035  12.792
65178W        W30405  35.494  13.627   3.647
65179W        W30406   8.657   9.456  11.703
65180W        W30407  19.996  24.068  13.316
65181W        W30408  29.085   0.421   3.817
65182W        W30409   2.965  16.619  11.903
65183W        W30410   6.205  37.802   0.296
65184W        W30411  17.650  21.474  11.988
65185W        W30412   9.807   2.631  11.167
65186W        W30413  40.951   2.162  12.318
65187W        W30414   6.764  10.802   1.830
65188W        W30415   6.283  22.577   3.068
65189W        W30416  18.736   3.466  13.770
65190W        W30417  35.586  36.549   3.616
65191W        W30418  24.640  30.089  10.798
65192W        W30419  28.891   0.111   4.206
65193W        W30420  30.973  34.161  10.644
65194W        W30421  16.565  18.223  14.559
65195W        W30422  13.354  40.253   3.660
65196W        W30423   6.727   4.873  11.102
65197W        W30424  44.240  23.383  14.817
65198W        W30425  37.419  44.564   2.329
65199W        W30426  23.434   7.951  14.990
65200W        W30427  12.849  44.819   3.806
65201W        W30428   4.859   5.199   0.406
65202W        W30429  25.774  36.095   1.367
65203W        W30430  43.569   3.209  10.798
65204W        W30431  17.165  43.170   4.838
65205W        W30432   4.612  22.772   5.031
65206W        W30433  43.777  13.799   1.797
65207W        W30434  24.006   9.390   0.759
65208W        W30435  38.311  38.322  10.880
65209W        W30436  27.699  16.069  12.185
65210W        W30437   4.765  11.605  13.291
65211W        W30438  25.440  11.057  13.940
65212W        W30439  28.663  10.359   2.106
65213W        W30440   8.593  30.614  12.886
65214W        W30441  10.628  13.296  13.909
65215W        W30442   3.665  40.849  14.856
65216W        W30443  28.963  32.808  12.762
65217W        W30444   6.767   2.135  11.190
65218W        W30445  10.720   5.266  11.499
65219W        W30446  12.671  14.366   1.932
65220W        W30447  12.745  32.157  14.286
65221W        W30448  14.867  31.122  12.603
65222W        W30449  39.650  24.186   0.635
65223W        W30450  19.196  23.508  14.534
65224W        W30451  22.668  13.286  11.627
65225W        W30452  24.121  21.970  14.980
65226W        W30453  40.628  15.586   1.730
65227W        W30454  28.460   6.766  12.967
65228W        W30455   6.224  19.429  10.316
65229W        W30456  22.725  30.091   1.724
65230W        W30457  41.223   1.384   5.014
65231W        W30458   9.113  37.363  12.974
65232W        W30459  37.017   8.682  12.482
65233W        W30460   9.776  30.275   0.638
65234W        W30461   8.449   8.252  11.245
65235W        W30462  44.075  34.635   1.323
65236W        W30463  21.070  20.370   1.212
65237W        W30464  40.659   0.217  11.157
65238W        W30465   9.803  40.479   1.246
65239W        W30466  21.692  21.557   3.633
65240W        W30467  34.064  43.996   4.445
65241W        W30468  11.936  27.253  12.058
65242W        W30469  33.178  34.544  14.365
65243W        W30470  31.009  35.204   9.843
65244W        W30471  32.343  27.688   2.238
65245W        W30472   4.939  23.073   1.228
65246W        W30473  14.630  20.254  14.315
65247W        W30474  24.615   0.142   2.394
65248W        W30475  40.353  22.204   0.238
65249W        W30476   1.415  25.109   1.998
65250W        W30477  18.864  11.808  11.603
65251W        W30478   9.489  29.940   0.948
65252W        W30479  39.424  25.389   3.848
65253W        W30480  38.036   4.020  11.961
65254W        W30481  16.998  30.752  10.071
65255W        W30482  17.739  39.045  11.970
65256W        W30483   2.783  24.152   0.858
65257W        W30484  32.752  12.094   5.039
65258W        W30485  23.100   8.115   3.719
65259W        W30486   0.892  17.565  12.887
65260W        W30487  40.988  23.552   2.390
65261W        W30488  14.756  42.693  10.398
65262W        W30489   8.329   2.375  10.639
65263W        W30490  44.954  30.086   1.855
65264W        W30491  14.327  36.956   2.823
65265W        W30492  31.493  25.117  10.977
65266W        W30493  35.146  36.772   5.307
65267W        W30494  27.482   7.316   0.467
65268W        W30495  31.827  38.454  11.775
65269W        W30496  19.193  39.076   2.051
65270W        W30497   0.798   7.793  12.535
65271W        W30498  29.452  30.293   0.780
65272W        W30499  30.676  41.919   0.365
65273W        W30500  28.444  44.947  14.035
65274W        W30501  43.255  12.579   0.493
65275W        W30502   1.410  14.541  10.478
65276W        W30503  37.846  29.559  14.429
65277W        W30504  37.346  19.064  13.084
65278W        W30505   5.399  33.745  14.277
65279W        W30506   7.885  41.264  13.900
65280W        W30507  12.184  35.580   0.028
65281W        W30508   5.673  24.234   1.269
65282W        W30509  44.305   5.736   0.406
65283W        W30510  30.655   8.937   4.565
65284W        W30511  38.615  39.192  11.027
65285W        W30512   5.267  36.374  13.186
65286W        W30513   9.081  40.477   1.661
65287W        W30514  24.246   2.424  14.414
65288W        W30515   1.899  26.589   3.001
65289W        W30516  11.696  34.094  14.576
65290W        W30517   6.231  36.185  12.974
65291W        W30518  39.511  36.285  14.886
65292W        W30519  16.549  19.890   3.576
65293W        W30520  14.317   1.851  11.167
65294W        W30521  16.253  35.365   3.306
65295W        W30522  12.709  30.605  11.535
65296W        W30523  35.655  12.689   2.896
65297W        W30524  35.751  18.825  13.549
65298W        W30525  41.856  25.499  11.089
65299W        W30526  11.920   0.976   0.523
65300W        W30527  14.629  21.251  13.903
65301W        W30528  10.143   0.950   0.903
65302W        W30529  36.252  38.692   2.354
65303W        W30530  15.481  43.794  10.649
65304W        W30531  26.345  16.078   0.266
65305W        W30532  40.728  17.591   3.693
65306W        W30533  22.472  42.737   1.376
65307W        W30534  26.062   2.187   4.560
65308W        W30535  14.731  27.480   2.288
65309W        W30536  28.464   6.734  13.926
65310W        W30537  24.221  15.764  11.830
65311W        W30538  18.813   5.615  13.373
65312W        W30539  38.540   0.135  10.741
65313W        W30540  30.155   5.679  13.139
65314W        W30541  11.164  19.228   2.582
65315W        W30542   8.730  40.016   4.530
65316W        W30543  23.582  31.867   0.733
65317W        W30544  42.019  39.633  14.988
65318W        W30545   2.938  19.247  11.681
65319W        W30546  39.523  16.177  12.139
65320W        W30547  36.110  30.941  13.025
65321W        W30548  27.208  38.451  12.359
65322W        W30549  35.608  15.167   0.366
65323W        W30550  43.599   4.353   0.747
65324W        W30551  38.964  29.731  11.403
65325W        W30552  24.491  23.047  13.548
65326W        W30553   6.674  41.471  13.902
65327W        W30554  44.877  39.233  10.503
65328W        W30555  21.753   1.870   1.284
65329W        W30556  35.711   9.872   2.699
65330W        W30557  31.910  28.893  12.876
65331W        W30558   6.485   1.516   0.807
65332W        W30559   8.687   3.725   0.842
65333W        W30560   5.432  23.989  14.331
65334W        W30561  39.380  35.932   2.658
65335W        W30562   9.609  23.028  11.867
65336W        W30563   0.010  39.437   1.854
65337W        W30564   7.744  25.400   2.174
65338W        W30565  36.412  17.059  11.583
65339W        W30566  32.185  39.117   5.382
65340W        W30567  37.842  19.545  14.882
65341W        W30568   8.426  36.592  11.612
65342W        W30569  17.076  20.628  12.110
65343W        W30570  38.509  30.388   2.880
65344W        W30571  44.284  21.155  11.244
65345W        W30572  11.910  20.314  12.177
65346W        W30573  31.362  12.605   2.837
65347W        W30574  32.190   7.435  10.549
65348W        W30575  42.456  33.471   4.843
65349W        W30576  15.927  21.095   2.367
65350W        W30577  33.984  12.777   2.157
65351W        W30578  28.920  38.426   4.667
65352W        W30579  11.326  15.966   2.354
65353W        W30580  25.524  12.635   5.075
65354W        W30581  22.171  24.823   3.139
65355W        W30582   9.188  12.045   2.406
65356W        W30583  10.160  11.860   0.062
65357W        W30584  43.026  14.744  10.523
65358W        W30585  41.607   8.188  11.149
65359W        W30586  41.272  15.643  10.605
65360W        W30587  14.109   1.092  10.667
65361W        W30588  29.550  36.210  11.611
65362W        W30589  30.558  12.611  14.796
65363W        W30590   1.988  27.239   1.837
65364W        W30591  20.957  25.643  13.978
65365W        W30592   1.031  16.648   0.909
65366W        W30593  19.208  14.800   4.695
65367W        W30594  32.063  25.141   3.282
65368W        W30595  15.308  13.160   3.252
65369W        W30596  25.726  28.572   2.310
65370W        W30597  40.197   8.896  12.059
65371W        W30598  23.342  31.005  11.972
65372W        W30599  27.217  18.201   0.766
65373W        W30600  35.895   1.761  13.871
65374W        W30601  23.101  31.781   4.199
65375W        W30602  15.138   8.751   4.044
65376W        W30603   9.594   3.090  10.977
65377W        W30604  23.027  44.409  14.211
65378W        W30605  19.724   7.794  14.526
65379W        W30606  43.899  38.827   0.798
65380W        W30607   5.942  20.183   0.523
65381W        W30608  16.908  15.270  10.511
65382W        W30609   0.966   7.001  13.001
65383W        W30610  27.412  21.742  12.018
65384W        W30611  21.755  14.760   4.578
65385W        W30612  44.582  19.012   1.476
65386W        W30613   6.901  15.630   0.024
65387W        W30614  36.105   8.908  12.406
65388W        W30615  33.952  44.567  12.098
65389W        W30616  18.877   9.276   0.473
65390W        W30617  38.264  40.929   2.821
65391W        W30618   0.239   3.069   4.370
65392W        W30619  12.455  42.868   4.041
65393W        W30620  38.831  23.027   2.951
65394W        W30621  22.534  23.427   0.981
65395W        W30622   6.914  17.308   4.023
65396W        W30623   3.671  18.636  12.629
65397W        W30624  41.845  16.574  14.771
65398W        W30625   8.673  11.290   1.352
65399W        W30626   5.392  17.641   3.545
65400W        W30627  39.825  29.839   1.791
65401W        W30628  33.144  12.863  14.805
65402W        W30629  35.546   4.826   1.307
65403W        W30630   2.170   4.376   1.411
65404W        W30631  31.667  38.062   3.147
65405W        W30632  28.583  36.843   1.471
65406W        W30633  40.570  20.258   4.152
65407W        W30634   0.193  13.216  14.090
65408W        W30635  40.007  15.058   2.277
65409W        W30636  24.681  43.456   3.163
65410W        W30637  24.192  21.142  11.090
65411W        W30638  44.271  35.871   2.689
65412W        W30639   3.220  38.413   2.089
65413W        W30640  34.284  22.234   3.536
65414W        W30641   2.334   6.250  12.391
65415W        W30642  41.589  11.026   2.675
65416W        W30643  27.014  44.817  10.858
65417W        W30644   9.129  27.816   4.512
65418W        W30645  18.337  17.801  11.543
65419W        W30646  28.981  16.797   0.840
65420W        W30647   9.877  23.969   1.927
65421W        W30648  31.996  22.980  14.529
65422W        W30649  39.159  37.060   3.227
65423W        W30650  35.416  28.954  11.223
65424W        W30651   4.334  36.794   0.420
65425W        W30652  30.668  16.670   4.971
65426W        W30653  13.934  10.391   9.910
65427W        W30654   0.753   8.315  12.617
65428W        W30655  43.554  24.341   3.841
65429W        W30656  25.700  30.370  12.141
65430W        W30657  41.570   3.913   1.198
65431W        W30658  32.383  14.251   2.824
65432W        W30659  41.794   0.823   4.088
65433W        W30660   6.273  24.619   4.215
65434W        W30661  22.444  36.088  13.671
65435W        W30662  30.885  19.677   4.051
65436W        W30663  24.113   5.436  13.960
65437W        W30664  39.902  28.989   0.023
65438W        W30665   2.666  37.999   0.736
65439W        W30666  34.661  36.553   5.201
65440W        W30667  28.765  13.181   5.280
65441W        W30668  20.999  10.142  11.912
65442W        W30669  14.891  31.826   0.663
65443W        W30670  40.062  11.662   3.634
65444W        W30671  11.694  44.376  14.640
65445W        W30672  26.488  26.047  11.813
65446W        W30673  30.136  16.989   0.040
65447W        W30674  35.031   4.280   4.863
65448W        W30675  44.225  38.144   2.038
65449W        W30676  13.858  19.035   1.649
65450W        W30677  13.675  29.929  13.428
65451W        W30678  20.217   9.039  12.001
65452W        W30679  44.493  12.882  14.530
65453W        W30680   0.861  24.625  13.431
65454W        W30681  41.773  34.665   1.220
65455W        W30682   6.847  23.665   1.720
65456W        W30683  33.558   2.020   3.203
65457W        W30684   5.236  42.185   4.523
65458W        W30685  28.938  31.456   3.270
65459W        W30686  27.139  17.271   2.906
65460W        W30687  17.333  22.118  13.064
65461W        W30688  33.796  28.431   0.767
65462W        W30689  25.177  38.453  13.357
65463W        W30690  28.609  33.485   3.000
65464W        W30691  38.887  15.868  11.091
65465W        W30692  30.479  19.130  10.789
65466W        W30693   7.932  10.113  12.245
65467W        W30694  14.015   9.685  11.673
65468W        W30695  24.853  37.207  13.864
65469W        W30696  39.855  16.202   1.320
65470W        W30697  37.995  21.065  12.528
65471W        W30698  21.359  33.311   0.154
65472W        W30699  14.884   7.876  11.166
65473W        W30700   7.454  31.207  12.926
65474W        W30701   5.256  16.549  11.670
65475W        W30702  12.810  17.891  11.879
65476W        W30703   6.294   1.544  10.253
65477W        W30704  21.980  18.100   1.999
65478W        W30705  18.051  21.481  13.642
65479W        W30706  15.554  34.630   4.212
65480W        W30707   9.703  27.175  10.588
65481W        W30708   7.877  19.157   0.797
65482W        W30709  40.789  24.027   3.160
65483W        W30710   0.874  10.599  14.282
65484W        W30711  14.339  12.509  13.941
65485W        W30712  44.764   2.219   0.526
65486W        W30713  26.392   9.228  14.333
65487W        W30714  31.466  43.370   4.512
65488W        W30715  17.741  20.709  14.350
65489W        W30716   2.000  14.443   1.962
65490W        W30717  18.300  12.350  13.809
65491W        W30718  35.803  20.539  12.785
65492W        W30719  36.693  43.400   3.787
65493W        W30720  30.543  34.591   0.969
65494W        W30721   4.419  10.400  14.443
65495W        W30722  39.108   3.804   0.495
65496W        W30723  35.222  38.579  11.085
65497W        W30724  14.448  18.100  14.617
65498W        W30725  26.953  10.073   3.429
65499W        W30726  11.132  12.103  10.431
65500W        W30727  30.710  39.841   2.855
65501W        W30728   9.809  21.467   1.639
65502W        W30729   7.891   7.153   0.687
65503W        W30730  12.969  19.846  11.264
65504W        W30731  33.911  14.261  14.985
65505W        W30732   0.349  42.851   3.107
65506W        W30733   3.553  44.526   0.526
65507W        W30734  12.636  21.009  12.001
65508W        W30735  15.358  27.892  13.563
65509W        W30736  26.047  11.591  14.352
65510W        W30737  35.689   6.825  11.194
65511W        W30738  19.739  14.369   2.337
65512W        W30739  42.573  30.550  12.160
65513W        W30740  19.145   3.375   4.955
65514W        W30741  25.667  36.106  13.414
65515W        W30742   1.872  33.880  14.716
65516W        W30743  36.060  29.462  12.959
65517W        W30744  31.970  18.967   1.447
65518W        W30745  42.460   7.251  10.734
65519W        W30746  28.240  38.888  14.490
65520W        W30747  22.249  16.771  13.644
65521W        W30748  14.132  13.127   1.000
65522W        W30749   9.717  29.408   3.595
65523W        W30750  31.058  43.965   3.227
65524W        W30751  13.661  17.138  11.478
65525W        W30752  36.526  23.272  14.494
65526W        W30753  31.407  16.288  14.975
65527W        W30754  37.041  24.541  10.792
65528W        W30755  22.371  29.995   0.300
65529W        W30756  42.317  18.659  11.730
65530W        W30757   8.197  31.394  10.620
65531W        W30758  16.715  27.586   1.998
65532W        W30759  29.541  19.088   1.498
65533W        W30760  37.247  28.226  13.783
65534W        W30761  43.578   1.521  11.489
65535W        W30762   0.602  19.727   3.202
65536W        W30763  25.024  44.340  11.867
65537W        W30764  32.611  23.406  11.957
65538W        W30765  26.492  34.383   3.580
65539W        W30766  26.031  15.685  10.732
65540W        W30767  23.335  19.050  12.425
65541W        W30768   2.069  14.249  12.544
65542W        W30769  10.401  36.409   1.993
65543W        W30770   8.852   1.642   0.817
65544W        W30771  26.307  29.533  13.438
65545W        W30772   8.218   7.614   1.729
65546W        W30773  31.022  41.969  14.156
65547W        W30774  23.816  43.019  14.282
65548W        W30775  10.499   7.699   0.297
65549W        W30776  16.788  23.618  14.317
65550W        W30777  31.664  15.351   1.833
65551W        W30778  10.680   0.717  11.229
65552W        W30779  30.678   1.816   0.063
65553W        W30780  16.317  31.161  13.591
65554W        W30781  27.902   1.882   5.118
65555W        W30782  24.477  15.928  14.103
65556W        W30783  42.008   9.326  12.196
65557W        W30784  29.036  34.948   4.094
65558W        W30785  30.561  17.612  10.967
65559W        W30786  30.124   9.934   3.314
65560W        W30787  33.338  40.853   0.226
65561W        W30788  12.462  36.986   5.137
65562W        W30789  23.206  37.282  14.320
65563W        W30790  30.724   7.888  12.401
65564W        W30791   7.368  24.565   1.826
65565W        W30792  41.753  39.297   1.759
65566W        W30793   2.766   2.290  14.481
65567W        W30794   1.796  17.062  13.321
65568W        W30795   0.331  33.877  13.401
65569W        W30796  36.747  15.619  13.391
65570W        W30797   5.617  37.562   4.720
65571W        W30798  31.022   1.457  14.956
65572W        W30799  10.407   0.980  14.199
65573W        W30800   7.020  33.867   1.378
65574W        W30801  42.885  20.399   5.434
65575W        W30802  22.262  26.951  11.212
65576W        W30803  26.714  19.559   2.976
65577W        W30804  33.076   5.412  10.607
65578W        W30805  27.708  31.568  11.618
65579W        W30806  11.401  16.246   0.738
65580W        W30807  25.648  28.551   4.349
65581W        W30808  31.706   1.361   4.507
65582W        W30809  22.303  42.783  14.305
65583W        W30810  34.486  35.367   0.208
65584W        W30811  22.280   5.641  11.191
65585W        W30812  25.525  22.438   4.747
65586W        W30813   4.675  13.348  13.503
65587W        W30814  37.553  14.103  11.542
65588W        W30815  28.688  34.219   1.337
65589W        W30816  41.953  44.734  14.763
65590W        W30817  23.689  30.225  12.513
65591W        W30818   1.890  34.518  12.897
65592W        W30819  21.596  36.926  10.631
65593W        W30820  43.718  18.814   1.515
65594W        W30821   1.783  24.904  14.882
65595W        W30822   2.555   6.065  14.229
65596W        W30823  28.616  15.078   2.764
65597W        W30824  28.041  22.960   2.118
65598W        W30825  28.710   1.631  13.337
65599W        W30826  13.505   8.373   3.937
65600W        W30827  25.690  40.770   4.382
65601W        W30828  23.265   8.920   1.816
65602W        W30829  21.506  10.903  12.073
65603W        W30830   2.259   2.457  13.040
65604W        W30831  22.159  20.098   4.683
65605W        W30832   9.187  37.861   1.370
65606W        W30833  34.002  35.387   1.226
65607W        W30834  23.579  17.066  14.124
65608W        W30835   5.204  16.852   3.636
65609W        W30836   7.087  29.795   2.924
65610W        W30837  14.095  30.018   3.455
65611W        W30838   4.491  42.064  11.172
65612W        W30839   6.693  26.876   3.248
65613W        W30840  36.828   1.532  13.829
65614W        W30841  17.988  36.133   0.466
65615W        W30842  13.875  31.951  11.163
65616W        W30843  37.813  14.118   4.203
65617W        W30844  37.822  13.008   0.218
65618W        W30845   7.655   5.272   2.849
65619W        W30846  24.171  17.362  10.779
65620W        W30847   1.025  32.009  12.065
65621W        W30848  33.919   6.927   1.689
65622W        W30849  32.040   4.962   0.910
65623W        W30850  20.647  35.092   3.382
65624W        W30851  19.134  37.477   0.776
65625W        W30852  30.459  21.729   0.774
65626W        W30853  19.953  39.500   2.265
65627W        W30854  23.704  24.576  10.966
65628W        W30855  37.018  19.246   0.906
65629W        W30856  37.922  14.744   0.850
65630W        W30857  36.601  14.673  13.349
65631W        W30858  20.231  10.729   1.700
65632W        W30859  20.659  35.628   3.489
65633W        W30860  41.758  18.563   3.098
65634W        W30861   4.417  19.251   2.479
65635W        W30862  40.491   4.243  13.517
65636W        W30863  43.618   3.341   0.867
65637W        W30864   1.487  18.485   4.611
65638W        W30865  36.438  37.005  13.460
65639W        W30866  44.847  33.001  13.529
65640W        W30867  41.360  13.927   3.264
65641W        W30868  27.955  42.225  12.527
65642W        W30869  39.357  27.957   3.752
65643W        W30870  37.184  25.621   4.606
65644W        W30871  31.927  15.374   4.550
65645W        W30872  27.212  13.570  13.946
65646W        W30873  29.253  17.706  12.978
65647W        W30874  34.034   7.994   4.261
65648W        W30875  34.451  42.117  13.402
65649W        W30876   9.864  36.416  11.722
65650W        W30877  43.668   6.737  10.212
65651W        W30878   2.720  14.765  10.736
65652W        W30879   8.588  16.190  14.385
65653W        W30880   2.477  27.718  11.240
65654W        W30881   2.371  32.122   0.080
65655W        W30882   9.587  33.135   1.201
65656W        W30883  21.696  24.164  12.149
65657W        W30884  25.897  29.637   1.324
65658W        W30885   7.564  24.467   0.583
65659W        W30886  41.263  28.029  14.852
65660W        W30887  30.078  28.935  14.734
65661W        W30888   9.242  31.617   3.101
65662W        W30889  29.485  44.417   3.269
65663W        W30890   8.355  24.920   3.207
65664W        W30891   4.722  22.255  11.032
65665W        W30892   6.883  12.015   4.357
65666W        W30893  14.249  19.155   2.015
65667W        W30894  25.511  42.022   2.968
65668W        W30895  44.666   9.745  13.832
65669W        W30896  32.046   6.381   4.480
65670W        W30897  20.283   5.127   0.283
65671W        W30898   9.185  32.841   4.582
65672W        W30899  42.989  44.503  10.994
65673W        W30900   9.476  23.589   2.765
65674W        W30901  34.945  43.777   1.604
65675W        W30902  22.755   4.345  12.984
65676W        W30903  14.114  33.944   1.145
65677W        W30904  40.377  16.532  13.977
65678W        W30905  37.572   2.378   2.824
65679W        W30906  17.324  33.062   4.369
65680W        W30907  33.094  44.911  14.549
65681W        W30908   3.053  16.362   4.061
65682W        W30909  35.035   1.742  11.190
65683W        W30910   3.365  29.100  14.574
65684W        W30911  16.389  24.490   0.910
65685W        W30912  14.177  13.053  12.056
65686W        W30913  42.449   2.932  10.662
65687W        W30914  15.253  40.533   0.499
65688W        W30915  42.568  38.822   4.661
65689W        W30916  43.802  26.127  12.753
65690W        W30917  35.333  33.128  11.307
65691W        W30918   6.823  13.838   4.994
65692W        W30919   1.750  19.058  12.458
65693W        W30920  26.551  24.587   4.341
65694W        W30921   5.953  40.035  11.279
65695W        W30922  37.325  40.338  14.360
65696W        W30923  35.032  22.619   3.850
65697W        W30924  44.726  39.046   4.668
65698W        W30925  21.891   8.394  11.071
65699W        W30926  31.554  11.842   0.444
65700W        W30927   7.232  37.028   4.790
65701W        W30928  19.827  18.115   3.250
65702W        W30929  18.779  43.067   1.240
65703W        W30930  24.707  10.912   1.877
65704W        W30931  37.945  13.611  10.339
65705W        W30932  33.964  15.729  12.859
65706W        W30933   9.560  36.977   2.924
65707W        W30934  21.662  14.846   0.397
65708W        W30935  11.827  21.213   0.985
65709W        W30936  29.152  19.696   4.612
65710W        W30937   2.938   0.698   1.757
65711W        W30938  35.929  29.981   0.665
65712W        W30939  33.460  27.526   3.176
65713W        W30940  33.185  32.481  12.489
65714W        W30941   0.399  37.842   0.937
65715W        W30942  32.495  30.487   1.351
65716W        W30943  30.423  34.751   4.659
65717W        W30944  26.547  31.092  12.079
65718W        W30945  29.369  18.766   0.307
65719W        W30946  25.530  17.594   0.233
65720W        W30947  22.779  38.519  14.524
65721W        W30948  12.253  19.543   2.372
65722W        W30949   7.282  18.316   1.745
65723W        W30950  37.286   1.210  11.171
65724W        W30951  34.986  20.378   2.251
65725W        W30952  42.210  10.778  13.413
65726W        W30953  22.802  15.861  13.065
65727W        W30954  34.080   9.190   3.593
65728W        W30955  34.904  34.343  11.107
65729W        W30956  31.108  21.295   4.061
65730W        W30957  38.325  11.654  14.500
65731W        W30958  35.025   9.771  10.679
65732W        W30959   7.280  20.762  12.125
65733W        W30960   7.632  32.221  11.619
65734W        W30961   8.087  30.412   1.887
65735W        W30962  12.725  41.856  12.503
65736W        W30963  22.297  14.449   1.381
65737W        W30964   7.352  25.105   2.388
65738W        W30965  30.796  29.144   3.462
65739W        W30966   2.687  29.739   5.302
65740W        W30967  37.626   0.840   3.306
65741W        W30968   9.311   7.045  12.544
65742W        W30969  39.762  18.813   3.684
65743W        W30970  42.098  38.762   4.946
65744W        W30971   1.359  15.676   0.924
65745W        W30972  32.015  18.824  12.048
65746W        W30973  37.678  24.571  13.480
65747W        W30974  10.853  41.990   3.279
65748W        W30975   4.451  30.886   2.914
65749W        W30976  18.040  32.975  14.436
65750W        W30977  40.299  39.083  11.414
65751W        W30978  38.895  28.431  10.929
65752W        W30979  37.178  31.742  14.466
65753W        W30980  26.718   4.690   0.420
65754W        W30981  34.077   8.298   1.292
65755W        W30982   8.578  12.971   3.789
65756W        W30983  18.309  14.368   4.885
65757W        W30984   5.534  28.110   4.803
65758W        W30985  28.231  27.263   4.007
65759W        W30986  35.341   8.342  11.588
65760W        W30987  33.390  24.548   3.319
65761W        W30988  42.188   2.219   2.200
65762W        W30989  31.520  12.559  11.974
65763W        W30990  41.791   2.190   2.588
65764W        W30991  44.218  35.003   4.063
65765W        W30992  11.619  32.200  13.922
65766W        W30993   4.344   9.402  13.133
65767W        W30994  39.215  35.505   3.985
65768W        W30995   7.015  39.341   4.855
65769W        W30996   2.969  24.460   4.062
65770W        W30997  21.493  38.241   1.451
65771W        W30998  17.530  37.927   1.206
65772W        W30999   9.696  28.461   4.020
65773W        W31000  37.704  20.713  10.803
65774W        W31001  31.861  40.000  14.017
65775W        W31002  24.344  44.655  10.248
65776W        W31003   6.316  40.530  12.816
65777W        W31004  29.443  22.266  12.471
65778W        W31005  38.402   1.733   3.372
65779W        W31006  10.648  29.896   4.304
65780W        W31007  39.113  28.840  11.961
65781W        W31008  13.702   0.530   2.461
65782W        W31009  18.104  30.140  10.705
65783W        W31010  40.095  24.226  12.421
65784W        W31011  43.741  11.225   0.237
65785W        W31012  15.599  21.847  10.526
65786W        W31013  15.257  27.478   3.058
65787W        W31014  21.428  40.286   1.690
65788W        W31015  43.511  15.345   2.816
65789W        W31016  24.148   3.085   0.525
65790W        W31017   4.843   2.846  12.628
65791W        W31018  36.639  23.467  13.851
65792W        W31019  13.335  22.219   2.273
65793W        W31020  20.670  33.824   4.485
65794W        W31021   9.445  37.985   1.784
65795W        W31022  17.172  24.437   4.719
65796W        W31023  13.933   1.527  11.220
65797W        W31024  10.634   8.659  14.466
65798W        W31025  27.016   8.687   0.747
65799W        W31026  34.600  20.993   3.210
65800W        W31027   3.753  42.333   3.147
65801W        W31028  18.531  21.581   2.632
65802W        W31029  21.349  26.936   4.122
65803W        W31030  19.475   9.112   4.665
65804W        W31031  27.703  15.246   0.845
65805W        W31032  27.556  23.070   4.313
65806W        W31033  17.601   7.375   1.808
65807W        W31034  34.121  15.955  10.469
65808W        W31035  10.597  37.327   1.290
65809W        W31036  37.106   4.232  11.971
65810W        W31037  33.308  33.565   3.829
65811W        W31038  26.021  30.547   0.740
65812W        W31039   3.523  41.482  11.181
65813W        W31040  31.834  30.486   2.002
65814W        W31041  25.746  25.457  14.836
65815W        W31042  24.125  29.834  13.431
65816W        W31043  14.746  28.649  10.759
65817W        W31044   0.388  37.640   4.656
65818W        W31045  22.208  34.927  10.898
65819W        W31046  26.644  22.920  11.389
65820W        W31047  32.119  23.455   2.729
65821W        W31048  43.100  31.875  12.026
65822W        W31049  36.665  26.610  12.825
65823W        W31050  38.987  42.964  11.442
65824W        W31051  38.503  11.858   2.375
65825W        W31052  35.547   4.919   0.304
65826W        W31053  38.472  18.266   1.302
65827W        W31054  21.550  17.836   4.210
65828W        W31055  15.143  38.952   1.263
65829W        W31056  10.185  40.412   4.480
65830W        W31057   3.451  15.594  10.735
65831W        W31058  37.871  25.761   1.901
65832W        W31059  17.205  14.615  13.288
65833W        W31060   8.351  18.012   2.151
65834W        W31061  29.375  38.040  11.999
65835W        W31062  13.835  38.369   4.573
65836W        W31063  23.665  23.980  11.714
65837W        W31064   6.024  32.185  12.986
65838W        W31065  23.713   5.180   2.136
65839W        W31066  41.132  20.125   2.762
65840W        W31067  30.401   0.724   3.648
65841W        W31068  43.202  16.700   4.763
65842W        W31069  10.121  25.545   0.620
65843W        W31070   9.659  19.575  12.767
65844W        W31071  12.737  39.656  12.002
65845W        W31072  12.954  37.003   2.769
65846W        W31073   4.219  26.099  13.668
65847W        W31074   1.388  31.002   2.873
65848W        W31075  13.274  23.195   1.215
65849W        W31076   7.834  28.198   0.521
65850W        W31077  27.705  34.204  11.205
65851W        W31078  24.475  36.454  13.438
65852W        W31079  41.137   8.759  14.432
65853W        W31080  39.547  31.118   3.647
65854W        W31081   4.517   2.725   3.863
65855W        W31082  35.940  23.001  11.504
65856W        W31083   3.765  25.173  14.803
65857W        W31084   1.790  16.051  13.415
65858W        W31085   4.849  18.165   0.263
65859W        W31086  15.859   8.937   0.251
65860W        W31087  30.433  40.962  13.615
65861W        W31088   2.231  27.666   1.716
65862W        W31089  29.548   2.170   4.556
65863W        W31090   9.775  43.926  13.987
65864W        W31091  20.112  36.765  12.952
65865W        W31092  38.269  44.929  14.316
65866W        W31093   0.741  28.470   2.554
65867W        W31094   0.694   0.383  12.064
65868W        W31095  34.495  35.203  10.119
65869W        W31096  20.162  15.595  13.078
65870W        W31097  34.990  31.534  10.654
65871W        W31098  21.595  12.682  14.220
65872W        W31099  33.260  21.927   4.981
65873W        W31100   8.829   2.274  13.924
65874W        W31101  14.386  31.023  13.017
65875W        W31102  25.480  10.885   2.285
65876W        W31103   3.994  36.011   1.982
65877W        W31104  16.631  40.562   0.723
65878W        W31105   7.632   4.171   2.678
65879W        W31106  15.789  39.890  12.190
65880W        W31107  13.782   6.069   2.452
65881W        W31108  38.787  41.501   1.962
65882W        W31109  25.478   1.769  12.570
65883W        W31110  35.272  35.713  12.513
65884W        W31111  19.015   5.657  14.525
65885W        W31112  37.438  26.441  13.517
65886W        W31113  44.333   6.887  12.421
65887W        W31114  21.743  33.084   4.809
65888W        W31115  34.527   2.254  11.581
65889W        W31116  39.546  27.178   4.165
65890W        W31117  30.555   0.289  10.783
65891W        W31118  10.330  23.327   2.872
65892W        W31119  14.714  37.053  14.155
65893W        W31120   4.486  42.196   1.160
65894W        W31121  12.234  19.053  10.904
65895W        W31122  39.535  40.051   1.319
65896W        W31123  37.358  24.479  13.877
65897W        W31124  10.169  41.324   0.385
65898W        W31125  43.969  37.345  11.540
65899W        W31126  25.828  36.205  12.910
65900W        W31127  38.515  16.685  13.435
65901W        W31128  23.078  11.389   3.124
65902W        W31129   0.879  24.761  10.678
65903W        W31130  18.179  42.147  12.878
65904W        W31131  40.131  43.915  14.067
65905W        W31132  38.133  27.658   4.958
65906W        W31133  20.144  10.125   2.019
65907W        W31134  31.577  44.926   4.806
65908W        W31135  10.764  32.446   0.933
65909W        W31136  14.935  27.000   2.279
65910W        W31137  16.043   5.275   3.195
65911W        W31138  44.744   8.678  10.824
65912W        W31139   8.784  30.896  12.495
65913W        W31140  42.791  31.680  13.237
65914W        W31141  37.349   3.981  12.348
65915W        W31142  11.808  10.637  12.551
65916W        W31143  16.621  33.965   3.072
65917W        W31144  44.176  30.150  12.405
65918W        W31145  39.031  42.761   2.391
65919W        W31146  17.493  10.652  13.476
65920W        W31147  33.991  26.445  11.160
65921W        W31148   1.997  41.738   3.228
65922W        W31149  28.054   8.284  13.599
65923W        W31150  21.285  42.940  11.356
65924W        W31151  43.725   1.336   0.794
65925W        W31152  34.638   3.512  14.743
65926W        W31153   1.486  43.020  14.650
65927W        W31154  13.701  34.845   3.679
65928W        W31155  16.394  35.381  13.930
65929W        W31156   5.942  12.498  10.386
65930W        W31157  21.111  33.469   0.663
65931W        W31158   0.036  17.137  10.379
65932W        W31159  11.555  43.679   2.967
65933W        W31160   5.786  42.504   3.725
65934W        W31161   5.941  24.305  12.135
65935W        W31162  25.758  42.521   4.227
65936W        W31163   1.722   5.367   2.297
65937W        W31164  20.996  42.706   2.874
65938W        W31165   3.020   8.577   4.528
65939W        W31166  11.063  38.089  14.219
65940W        W31167  34.160  34.074   2.227
65941W        W31168  42.316  40.211  12.543
65942W        W31169   4.876  25.989  14.377
65943W        W31170  16.759  18.020  13.563
65944W        W31171   3.487  16.686  12.296
65945W        W31172  40.829  33.783   3.390
65946W        W31173  31.003  35.351  12.111
65947W        W31174   8.215  30.937  14.228
65948W        W31175   8.926  17.714  13.294
65949W        W31176  27.063  13.123  12.384
65950W        W31177  17.106  39.421  11.721
65951W        W31178  11.552  24.288   0.236
65952W        W31179  23.773   0.251   4.068
65953W        W31180   4.810  22.525   3.797
65954W        W31181   9.700  31.924  12.654
65955W        W31182  18.228  15.537  12.156
65956W        W31183   3.736  19.019   0.788
65957W        W31184  38.761  39.146   4.411
65958W        W31185  15.381   3.328  11.027
65959W        W31186  31.967   0.800   0.440
65960W        W31187  26.702   0.553  11.976
65961W        W31188   1.882  39.151   4.631
65962W        W31189   0.469  42.997   0.751
65963W        W31190  13.705  28.104   1.743
65964W        W31191   3.015   1.225   1.680
65965W        W31192  10.193  16.327  14.835
65966W        W31193  25.197  42.475  14.338
65967W        W31194  21.774  31.759   3.774
65968W        W31195  31.036   9.817   0.318
65969W        W31196  34.610  18.575  12.688
65970W        W31197  34.047  10.676  14.848
65971W        W31198  36.389  30.519   3.249
65972W        W31199  19.635  22.705   3.776
65973W        W31200  13.142   5.819   1.154
65974W        W31201   3.898  12.822  13.853
65975W        W31202  21.961  36.233  14.947
65976W        W31203   7.215   2.055   2.135
65977W        W31204  11.168  20.646  12.768
65978W        W31205  28.365   3.296  11.052
65979W        W31206   0.455  30.954   0.417
65980W        W31207   4.233  32.438   2.132
65981W        W31208   6.263  22.421  12.949
65982W        W31209  22.906   9.776  14.270
65983W        W31210   4.888   4.578   5.330
65984W        W31211  42.402   6.425   1.686
65985W        W31212  31.035  18.257  12.863
65986W        W31213   5.872  30.368   4.794
65987W        W31214  32.894   3.417  10.390
65988W        W31215  28.600  33.169   4.225
65989W        W31216   1.797  39.029   3.210
65990W        W31217   6.041  23.978   1.851
65991W        W31218   5.870  24.989  11.427
65992W        W31219   8.829  23.963   0.207
65993W        W31220  27.168  37.103  10.562
65994W        W31221  34.016  10.677   0.421
65995W        W31222  39.271  33.487  11.151
65996W        W31223  20.615  15.562  14.833
65997W        W31224  14.078  36.190  11.653
65998W        W31225  26.732  35.926  11.220
65999W        W31226   6.176   6.452   2.257
66000W        W31227  21.201  42.765  14.361
66001W        W31228  18.422  16.176   2.119
66002W        W31229  24.237  25.215  13.924
66003W        W31230  27.264   3.462   0.760
66004W        W31231  39.436  23.055   0.799
66005W        W31232  24.028   0.320  12.867
66006W        W31233   7.235   4.490   0.765
66007W        W31234   7.968  25.539   3.274
66008W        W31235  42.286  25.012   2.185
66009W        W31236  43.772  36.939  13.988
66010W        W31237  43.856  24.463  14.975
66011W        W31238  29.091  18.133  11.665
66012W        W31239  19.243   5.344   2.618
66013W        W31240  12.851  15.763   3.260
66014W        W31241  39.687  40.394   4.042
66015W        W31242  19.044  21.271   0.789
66016W        W31243  33.128   2.348  11.597
66017W        W31244  28.163  37.836  11.135
66018W        W31245  20.216  30.350   0.400
66019W        W31246  34.079   7.989  10.545
66020W        W31247  27.689  35.940  14.018
66021W        W31248  12.153  18.257   2.677
66022W        W31249  13.995   5.496  12.835
66023W        W31250  37.271  13.582  12.850
66024W        W31251  39.059  39.961  13.428
66025W        W31252  41.276  32.968  14.035
66026W        W31253  30.881  16.655   4.053
66027W        W31254   5.340  38.093  11.514
66028W        W31255  31.309  39.772   9.812
66029W        W31256  32.634  16.440   9.956
66030W        W31257  17.747  12.991   0.518
66031W        W31258  11.357  17.803  13.901
66032W        W31259  18.505  40.247  14.294
66033W        W31260  33.385  26.112  14.320
66034W        W31261  15.647   6.494   5.000
66035W        W31262  27.450  20.944   3.877
66036W        W31263  15.357  38.965   0.636
66037W        W31264  17.118  27.977   3.289
66038W        W31265  24.315  42.390   1.387
66039W        W31266  31.161  33.708   2.232
66040W        W31267  30.958  21.585  14.887
66041W        W31268  39.434  44.810   3.704
66042W        W31269  34.104  13.770   4.482
66043W        W31270  43.897  37.863   3.300
66044W        W31271  31.476  22.332   1.414
66045W        W31272  30.423  25.685   1.435
66046W        W31273   3.354  21.684  11.686
66047W        W31274   1.079  20.475  10.176
66048W        W31275  25.999  12.003   4.568
66049W        W31276   5.844  15.619   2.312
66050W        W31277  35.938  24.718   1.288
66051W        W31278  20.648   1.401  12.313
66052W        W31279  15.541  24.059  13.976
66053W        W31280  34.610  40.861  12.094
66054W        W31281  31.043  30.088   3.813
66055W        W31282  42.220   7.478  13.922
66056W        W31283  14.180  29.156  13.413
66057W        W31284  17.247   6.853   4.501
66058W        W31285  32.976  23.625  13.826
66059W        W31286  44.383  36.415   1.738
66060W        W31287   4.725  42.971  12.994
66061W        W31288  13.345  11.387  11.740
66062W        W31289  40.414  26.743  10.678
66063W        W31290  11.706  36.164   0.308
66064W        W31291  13.664  37.350  14.487
66065W        W31292  38.565  10.578   1.872
66066W        W31293  31.193  24.512   1.703
66067W        W31294   6.926  44.115  14.786
66068W        W31295  39.982  36.160   4.225
66069W        W31296  32.099  18.583  12.484
66070W        W31297  11.366  25.595  14.614
66071W        W31298  42.191  17.377  11.243
66072W        W31299  22.705  29.721   1.334
66073W        W31300  20.336  33.475  14.948
66074W        W31301  23.592   3.797   4.215
66075W        W31302  33.365  30.495  14.927
66076W        W31303  19.138  39.721  12.628
66077W        W31304  26.988  23.259  13.841
66078W        W31305  27.051   2.039  14.232
66079W        W31306   6.784   0.861  11.064
66080W        W31307   6.876  25.595   1.161
66081W        W31308  26.978  23.252   3.347
66082W        W31309   3.301   3.466   2.889
66083W        W31310  26.129   0.777  11.708
66084W        W31311   2.230   2.326  10.677
66085W        W31312  17.543   8.864  14.643
66086W        W31313  39.575  25.498   0.356
66087W        W31314  19.532  19.735   2.325
66088W        W31315  19.854  32.099   4.564
66089W        W31316  21.636  14.848   3.665
66090W        W31317  44.712  39.544  11.363
66091W        W31318  37.619   4.306  12.036
66092W        W31319  14.508  22.294  13.019
66093W        W31320   6.293  11.917  13.624
66094W        W31321   8.327  38.610  11.632
66095W        W31322   5.202   2.278  12.071
66096W        W31323  39.514  15.774  13.857
66097W        W31324  29.922  28.462  11.170
66098W        W31325  18.067  39.296  13.345
66099W        W31326  37.471   7.922   1.377
66100W        W31327  31.982  13.098   1.871
66101W        W31328  41.377  25.136   4.057
66102W        W31329   3.389  41.994  13.398
66103W        W31330   8.479  26.687   0.044
66104W        W31331  14.049  28.696   0.455
66105W        W31332   1.906  29.032   4.390
66106W        W31333  33.599  10.817  13.248
66107W        W31334  11.372  27.138  14.319
66108W        W31335   7.025   1.319  14.377
66109W        W31336  38.347  23.585  13.608
66110W        W31337  43.511   0.785   0.695
66111W        W31338  19.744   7.949   1.714
66112W        W31339  16.701  41.136  10.892
66113W        W31340  22.551  14.708  11.472
66114W        W31341  21.533   7.166  13.535
66115W        W31342  16.022  44.234  12.666
66116W        W31343  15.721  15.250   2.873
66117W        W31344   2.234  29.567   2.265
66118W        W31345  27.524  25.556  11.540
66119W        W31346  34.321   0.200  11.579
66120W        W31347  32.011  34.016   3.243
66121W        W31348   5.597  41.420  12.112
66122W        W31349  10.314  25.906   0.302
66123W        W31350  30.783  35.111  10.312
66124W        W31351  35.671  30.123  14.703
66125W        W31352  15.598  35.097   0.941
66126W        W31353  30.369   4.189  12.854
66127W        W31354  19.697   0.493  10.333
66128W        W31355  40.534  12.274   3.994
66129W        W31356   3.439   4.485  12.100
66130W        W31357  29.463   3.939  10.539
66131W        W31358   4.132  33.443  11.584
66132W        W31359   6.039  30.193  13.501
66133W        W31360  18.327  44.810  14.503
66134W        W31361  42.957  13.484  10.750
66135W        W31362  28.983  39.408   1.748
66136W        W31363  24.617   9.251  10.685
66137W        W31364  41.043   8.108   3.658
66138W        W31365  44.734  31.185   2.674
66139W        W31366  18.769   3.343   4.608
66140W        W31367  41.049   5.761   3.220
66141W        W31368  28.972  40.524   2.930
66142W        W31369  39.849  31.862   4.672
66143W        W31370  35.167  31.910   2.757
66144W        W31371  14.615   6.895   0.957
66145W        W31372  21.126  39.359  10.929
66146W        W31373  22.545   6.794  12.354
66147W        W31374  43.607  39.890  14.744
66148W        W31375  23.014  11.049  13.129
66149W        W31376   9.394  37.524  13.718
66150W        W31377  16.570  41.526  13.989
66151W        W31378  27.186   4.343  13.862
66152W        W31379  31.427   7.393  13.395
66153W        W31380  25.540  41.274   2.233
66154W        W31381  42.217  44.810  12.877
66155W        W31382  26.780  35.505  12.158
66156W        W31383  24.031   1.374  12.038
66157W        W31384  35.944  36.530  14.596
66158W        W31385  10.295  44.009  11.862
66159W        W31386  42.403   2.742  14.669
66160W        W31387  43.276  15.581   0.735
66161W        W31388  37.116  44.880  13.145
66162W        W31389  42.165   0.640   1.307
66163W        W31390  40.124  44.440   1.933
66164W        W31391  38.043  33.431   3.673
66165W        W31392  33.190  27.444   5.058
66166W        W31393  34.167  40.692   2.376
66167W        W31394  43.358   6.359   9.933
66168W        W31395  16.603  40.391   2.214
66169W        W31396  30.659  23.237   4.092
66170W        W31397   0.890   1.872  13.345
66171W        W31398  20.314  25.950  13.069
66172W        W31399  23.802  24.920  12.949
66173W        W31400  18.939  12.033  13.339
66174W        W31401   6.218  39.073   2.277
66175W        W31402  41.034  25.280   2.663
66176W        W31403  43.460  28.885   3.787
66177W        W31404  38.960  38.145   1.843
66178W        W31405   8.722  14.182   0.247
66179W        W31406  17.622  23.736   3.656
66180W        W31407  35.233   5.239  13.559
66181W        W31408  28.371  32.934  13.669
66182W        W31409  43.783  26.118   3.853
66183W        W31410  24.241  25.660  11.457
66184W        W31411   2.175  32.133  10.649
66185W        W31412  24.769   2.047   2.227
66186W        W31413  42.615  44.093  13.836
66187W        W31414  10.395   1.498  12.529
66188W        W31415  41.323  14.701   4.201
66189W        W31416  36.946   3.353   4.917
66190W        W31417  37.512  40.214  13.010
66191W        W31418  26.547   0.856  11.018
66192W        W31419   8.193   6.708   0.702
66193W        W31420  44.404  19.757   3.629
66194W        W31421  41.529  27.787  11.592
66195W        W31422  11.333  42.550   1.719
66196W        W31423  16.593   5.299  12.996
66197W        W31424  22.738  42.289   4.245
66198W        W31425   2.734  40.727   2.976
66199W        W31426  25.698  23.451   4.532
66200W        W31427  26.041  19.679  11.157
66201W        W31428  16.150  35.511   3.814
66202W        W31429  10.221  11.786   4.140
66203W        W31430  40.956  11.836  11.643
66204W        W31431  24.633   4.134   1.414
66205W        W31432   0.168  23.293   4.981
66206W        W31433  19.548   1.781  14.344
66207W        W31434  40.133  26.626   9.817
66208W        W31435  12.740  38.588  11.553
66209W        W31436  13.181  25.746   0.738
66210W        W31437  32.029  38.980  14.051
66211W        W31438  42.845  28.314   2.070
66212W        W31439   7.862   4.030   4.500
66213W        W31440  21.239   3.150   2.047
66214W        W31441  24.557  34.161   4.012
66215W        W31442   9.568   5.305   0.756
66216W        W31443  33.691  15.228  13.565
66217W        W31444  36.430  29.356  14.759
66218W        W31445   8.953  25.381  14.470
66219W        W31446  15.565   7.332   3.308
66220W        W31447  34.764  34.998   4.229
66221W        W31448   2.494  37.759   1.807
66222W        W31449  28.630   2.760  12.654
66223W        W31450  23.599   7.930  10.750
66224W        W31451   2.657  16.145   2.106
66225W        W31452  23.366  30.423  14.701
66226W        W31453  35.308   0.955  12.938
66227W        W31454   3.722  17.479   0.935
66228W        W31455  15.022  39.042   2.757
66229W        W31456  36.862  16.645  10.620
66230W        W31457  39.494  44.551   0.333
66231W        W31458  20.131  40.944   3.406
66232W        W31459  44.875  10.708   0.814
66233W        W31460  37.714   6.197  12.396
66234W        W31461  37.110  20.505   1.810
66235W        W31462  32.075  31.023   3.234
66236W        W31463  12.347  41.758  13.599
66237W        W31464  36.625  25.178   4.091
66238W        W31465  34.573   8.480  13.024
66239W        W31466   7.125  27.908  10.538
66240W        W31467  26.633  21.512   4.150
66241W        W31468  40.799  37.622   4.147
66242W        W31469  18.370   2.355   0.241
66243W        W31470  35.272  17.552   3.610
66244W        W31471  25.299  27.977  13.363
66245W        W31472  28.821   7.695  12.016
66246W        W31473  23.908  27.654  11.652
66247W        W31474  30.547  31.678   3.641
66248W        W31475  39.851   5.716   1.449
66249W        W31476  34.832  33.878   2.894
66250W        W31477  38.477  13.435   1.172
66251W        W31478  34.543  31.964   1.449
66252W        W31479  39.375  37.326  13.467
66253W        W31480  26.572  23.139   0.758
66254W        W31481  26.072  26.275  11.559
66255W        W31482  35.395  44.626   4.129
66256W        W31483  24.457  29.951   0.068
66257W        W31484  14.201  25.259  12.813
66258W        W31485  23.779   1.328  12.507
66259W        W31486  13.859  35.122   1.673
66260W        W31487   1.261   5.734   2.750
66261W        W31488  34.448  32.437  13.545
66262W        W31489  42.067   7.902  11.223
66263W        W31490  42.148  39.909   2.652
66264W        W31491  10.294  11.953  13.941
66265W        W31492  21.486   1.920   3.224
66266W        W31493  12.716  22.099   4.682
66267W        W31494  10.680  29.429   3.583
66268W        W31495   9.273  14.026   1.948
66269W        W31496  27.016  26.264  11.491
66270W        W31497  27.060   6.425  14.249
66271W        W31498  29.514   1.332  11.527
66272W        W31499  11.623  38.943   1.338
66273W        W31500  43.718  17.521   4.096
66274W        W31501  19.598  38.486  12.843
66275W        W31502  44.020  14.842  14.468
66276W        W31503  33.390  17.304   0.924
66277W        W31504  21.295  34.788  11.225
66278W        W31505   7.934  21.283   3.324
66279W        W31506  26.762  28.815   1.703
66280W        W31507  12.192  11.899  11.017
66281W        W31508  12.489   5.751  14.960
66282W        W31509  17.597   8.778  12.613
66283W        W31510  19.651   9.300   4.183
66284W        W31511   6.818   7.409  11.687
66285W        W31512  33.830   1.116   3.061
66286W        W31513  24.589   8.462   1.649
66287W        W31514  43.111  21.633  14.754
66288W        W31515  44.184   6.160  11.478
66289W        W31516  41.288  12.165  14.532
66290W        W31517  33.004  42.575   4.613
66291W        W31518  21.610  25.699   4.551
66292W        W31519  25.409  38.804  10.653
66293W        W31520   1.449  42.234  13.538
66294W        W31521  39.532   7.450   4.179
66295W        W31522  27.116  41.163  11.780
66296W        W31523   8.857  41.985   4.058
66297W        W31524  36.010  29.685   2.101
66298W        W31525  37.192  24.011   4.153
66299W        W31526  39.539   7.439  14.457
66300W        W31527  20.233   4.849  10.427
66301W        W31528  44.976  36.064  11.672
66302W        W31529   2.749   2.400   2.015
66303W        W31530   5.904  35.916  12.018
66304W        W31531  16.868  23.739  11.188
66305W        W31532  14.990  12.995  12.018
66306W        W31533  31.623  32.615  12.536
66307W        W31534  44.920  17.545   2.149
66308W        W31535   9.157  32.963   3.221
66309W        W31536  41.959  14.557  12.393
66310W        W31537   2.301  18.436   4.256
66311W        W31538  32.991  29.159   2.814
66312W        W31539  34.497  12.263  11.865
66313W        W31540   7.193  22.765   3.107
66314W        W31541  15.235  42.910  14.922
66315W        W31542  37.493  36.173   0.444
66316W        W31543  27.808  18.790  14.865
66317W        W31544  41.674  24.446  14.303
66318W        W31545  35.525  23.475   3.624
66319W        W31546  30.966  39.440  10.901
66320W        W31547  44.120  20.273  10.642
66321W        W31548  44.979   2.309   1.819
66322W        W31549  11.126  38.314  12.644
66323W        W31550  21.471  35.291   2.939
66324W        W31551  20.231  33.221  13.872
66325W        W31552  19.568  24.255   0.757
66326W        W31553  12.874  37.128  12.035
66327W        W31554  24.908   8.853   5.084
66328W        W31555  33.165  26.169   3.765
66329W        W31556  11.639  25.357  11.387
66330W        W31557   6.456  12.180   1.350
66331W        W31558   4.485  27.450  12.022
66332W        W31559  41.793  23.421  12.569
66333W        W31560  10.897  27.284   2.667
66334W        W31561  13.186   0.175  10.235
66335W        W31562  27.628  23.431  12.661
66336W        W31563  41.852  36.572   0.766
66337W        W31564  40.604  25.922  14.884
66338W        W31565   5.418   1.831  11.252
66339W        W31566  38.452  15.837   1.255
66340W        W31567  31.940  37.082  12.136
66341W        W31568  17.243  40.586  12.950
66342W        W31569  43.646  37.557  12.113
66343W        W31570  17.576  37.438  11.267
66344W        W31571  43.461  39.393   2.906
66345W        W31572   2.442  17.114  14.024
66346W        W31573  38.914  29.014   5.062
66347W        W31574  19.249   1.750   4.011
66348W        W31575  32.295  39.860   2.635
66349W        W31576  11.801  19.023   4.541
66350W        W31577  27.048  21.187  12.002
66351W        W31578  36.512  43.393   2.626
66352W        W31579  20.238  11.610  12.100
66353W        W31580  20.976  25.717  14.986
66354W        W31581   1.036   2.328   2.952
66355W        W31582   9.578   9.895  11.432
66356W        W31583   9.695  11.754   0.285
66357W        W31584  31.631   0.044  14.158
66358W        W31585  14.251  24.621   4.932
66359W        W31586  33.025   2.172   3.728
66360W        W31587  33.699  39.971  14.671
66361W        W31588  17.971  12.353  13.417
66362W        W31589   3.821  33.142  12.553
66363W        W31590  34.096  20.039  10.866
66364W        W31591  15.251  21.986  14.333
66365W        W31592   9.106  27.995  13.480
66366W        W31593   3.477  35.577   4.544
66367W        W31594  16.850  30.557  11.720
66368W        W31595  20.617  36.083   4.189
66369W        W31596  10.387  18.892   2.373
66370W        W31597   8.781  44.181   1.383
66371W        W31598  36.135  23.982  14.972
66372W        W31599   0.732  15.980  10.114
66373W        W31600  21.634   6.197  13.804
66374W        W31601  42.325  24.240  13.936
66375W        W31602  18.276  39.087  11.856
66376W        W31603  37.832  39.775  13.011
66377W        W31604  23.157   8.764  10.799
66378W        W31605  18.476  13.230  14.767
66379W        W31606  38.029  20.114   3.109
66380W        W31607  24.752  21.541  12.672
66381W        W31608  34.832  17.565   5.013
66382W        W31609  28.909  19.248   1.750
66383W        W31610   4.256  37.424  13.388
66384W        W31611  10.333  19.168  11.696
66385W        W31612   9.797  30.415   4.614
66386W        W31613  35.415   5.978  12.203
66387W        W31614  22.888  18.266  14.461
66388W        W31615  15.559  12.880  13.125
66389W        W31616   1.322  16.732   1.829
66390W        W31617  44.299   4.020  14.329
66391W        W31618  44.983  31.845  13.918
66392W        W31619  14.887  15.425  14.761
66393W        W31620  36.332  20.535   2.087
66394W        W31621  22.656  16.886   1.963
66395W        W31622  26.889  36.068  10.760
66396W        W31623  40.760  30.528  14.060
66397W        W31624  24.368  31.085   0.796
66398W        W31625  42.956  26.589  14.022
66399W        W31626   6.951  39.300   2.451
66400W        W31627  38.848  21.254   4.476
66401W        W31628  35.914  27.697  12.856
66402W        W31629  32.439  16.016   2.041
66403W        W31630  44.441  14.360   2.639
66404W        W31631  26.626   3.293   4.649
66405W        W31632   7.462  26.568  12.003
66406W        W31633  43.688  22.914  10.487
66407W        W31634  24.246  23.713  14.649
66408W        W31635   8.291  41.370  12.660
66409W        W31636   6.012   7.337   0.434
66410W        W31637  41.150  13.223  14.384
66411W        W31638  15.617  39.229  14.446
66412W        W31639  42.876  17.599   2.660
66413W        W31640  22.352  18.366   4.106
66414W        W31641  17.620  27.371  14.007
66415W        W31642  36.908  31.660   1.970
66416W        W31643  38.854   4.962  14.624
66417W        W31644   2.413  22.253  10.608
66418W        W31645  16.764   2.935   4.369
66419W        W31646  24.158  44.855  11.581
66420W        W31647  39.485  24.177  14.051
66421W        W31648  43.244  42.474   4.939
66422W        W31649  32.599  22.989  14.324
66423W        W31650  14.649  42.350   1.651
66424W        W31651   0.210  16.853   0.697
66425W        W31652  36.416  16.680  12.066
66426W        W31653  32.089  25.857  13.259
66427W        W31654  39.289  35.959  12.752
66428W        W31655  35.157  30.412   3.702
66429W        W31656  26.223  43.474   4.972
66430W        W31657  36.657  31.876   2.571
66431W        W31658   4.747  40.386   3.727
66432W        W31659   6.094  27.722   3.275
66433W        W31660   1.704  24.837   0.660
66434W        W31661  36.162  34.558   0.584
66435W        W31662   7.420  10.419   3.715
66436W        W31663  33.058  15.300   2.198
66437W        W31664  39.814  17.998  12.119
66438W        W31665  36.620  40.914  12.214
66439W        W31666   8.899   8.984   3.933
66440W        W31667  30.856  13.845  11.567
66441W        W31668  33.874  31.642  11.726
66442W        W31669  29.793   6.356   5.068
66443W        W31670  13.312   2.389   3.796
66444W        W31671   9.334   5.653  12.170
66445W        W31672  25.462  43.861   1.978
66446W        W31673   2.637  35.086   2.060
66447W        W31674  33.875  31.852   4.256
66448W        W31675  12.880  17.331  13.448
66449W        W31676  38.484  32.993  12.480
66450W        W31677  44.716  40.359   1.932
66451W        W31678  31.824  28.715   2.625
66452W        W31679  44.737  42.237   3.979
66453W        W31680  35.622  25.132   2.677
66454W        W31681  42.832  31.338  14.782
66455W        W31682  11.945  10.566  10.727
66456W        W31683  18.161  20.522  14.571
66457W        W31684  22.714  31.758  11.409
66458W        W31685  16.489  13.602   1.441
66459W        W31686  12.103  10.169   4.355
66460W        W31687  30.342  38.581   2.416
66461W        W31688   1.662   0.344  11.742
66462W        W31689  39.150  22.893   0.377
66463W        W31690  31.037  20.550  11.410
66464W        W31691   7.487  18.508   4.200
66465W        W31692  17.126   4.806  12.602
66466W        W31693   1.661  39.324  12.164
66467W        W31694  25.425  14.125   4.566
66468W        W31695  20.529  43.312   0.424
66469W        W31696  30.713  32.230  12.402
66470W        W31697  14.816  37.577  10.774
66471W        W31698  39.341  32.546   3.288
66472W        W31699  27.977   6.502  14.960
66473W        W31700  15.704  23.613  10.400
66474W        W31701  40.693  31.944   2.378
66475W        W31702  29.379  30.376  11.588
66476W        W31703  29.625  11.102  13.471
66477W        W31704  43.695  39.854  12.141
66478W        W31705  21.334  19.821   3.585
66479W        W31706  25.591  37.164   3.729
66480W        W31707  36.508  42.552   3.187
66481W        W31708  21.616  33.632  14.038
66482W        W31709  28.521  31.249   4.738
66483W        W31710  24.197  43.456   5.158
66484W        W31711  43.765  38.941  12.162
66485W        W31712  29.189  32.399   2.221
66486W        W31713   5.827  41.334   4.583
66487W        W31714  37.307  16.346  10.648
66488W        W31715   9.815   9.271   2.912
66489W        W31716  20.195  33.608  10.771
66490W        W31717   8.381   1.250  14.825
66491W        W31718  42.763  40.707  14.404
66492W        W31719  25.065  41.959  14.319
66493W        W31720   1.939  18.900  10.657
66494W        W31721  17.126  40.328   1.330
66495W        W31722   6.975  26.904  11.169
66496W        W31723  12.648  29.106   1.132
66497W        W31724   8.704  35.516   3.630
66498W        W31725  20.715  41.754   0.218
66499W        W31726  28.525  43.385   0.340
66500W        W31727  18.116  28.162   2.733
66501W        W31728  15.167  14.191  12.629
66502W        W31729  42.914  25.158   1.312
66503W        W31730   9.405   6.375   2.400
66504W        W31731   1.056  39.422  14.404
66505W        W31732  29.415  28.659  12.008
66506W        W31733  40.937  19.951  12.594
66507W        W31734  18.018  44.304   3.699
66508W        W31735   2.368   2.672   1.763
66509W        W31736  27.369  28.531   3.067
66510W        W31737  33.351  27.212   0.920
66511W        W31738  29.433  13.024  11.488
66512W        W31739  22.692  12.188   1.371
66513W        W31740  12.579  17.804  14.334
66514W        W31741  23.393  28.775  11.546
66515W        W31742  23.378   3.893  12.027
66516W        W31743  38.487  36.965   4.452
66517W        W31744  10.204  44.801   4.937
66518W        W31745   3.722   4.970  14.730
66519W        W31746   2.214   8.343  10.994
66520W        W31747   0.766   7.469  13.084
66521W        W31748   9.758   2.874   4.943
66522W        W31749  18.285  34.444   0.647
66523W        W31750  21.044  27.464  12.232
66524W        W31751  38.478  15.588   0.780
66525W        W31752  27.057  15.581  12.497
66526W        W31753   9.399  19.678  10.693
66527W        W31754  10.233  25.134  10.468
66528W        W31755  33.557  32.608  10.814
66529W        W31756  11.645  23.599   2.022
66530W        W31757  41.685  17.657   2.107
66531W        W31758  16.300  13.197   2.292
66532W        W31759  37.280  17.817   0.711
66533W        W31760   1.281  16.178  12.345
66534W        W31761  44.922  37.674   3.209
66535W        W31762   2.310   7.218   9.833
66536W        W31763  13.618  43.327  11.024
66537W        W31764  19.416  18.685  11.572
66538W        W31765  42.562  38.969  13.359
66539W        W31766   0.869   0.070  13.216
66540W        W31767  34.809  27.917  10.518
66541W        W31768  44.024  24.887  12.115
66542W        W31769  44.135  25.361   1.169
66543W        W31770   9.222  12.238   3.672
66544W        W31771   3.168  33.457   2.665
66545W        W31772  10.088  25.097  14.475
66546W        W31773  34.901  34.567   1.163
66547W        W31774  42.493  26.418   4.625
66548W        W31775  21.343  16.543  14.112
66549W        W31776  22.591  19.523   3.074
66550W        W31777  36.881  24.132  12.439
66551W        W31778   5.235  15.203   2.211
66552W        W31779  13.310  34.232   4.973
66553W        W31780  19.325  18.706  11.069
66554W        W31781   3.927  10.143   1.649
66555W        W31782  36.400  20.201   4.891
66556W        W31783  42.116  14.021  12.451
66557W        W31784   8.672  16.068   2.163
66558W        W31785  10.620  44.267  14.677
66559W        W31786  23.918  10.007   4.671
66560W        W31787  27.001  27.939   2.637
66561W        W31788  41.820  13.680   2.670
66562W        W31789   0.300  22.799  11.066
66563W        W31790   6.420  12.895  13.435
66564W        W31791  41.419  17.283   3.204
66565W        W31792  36.053   1.071  12.073
66566W        W31793  44.598  28.571   1.919
66567W        W31794  40.114  41.226   2.444
66568W        W31795   2.693   1.781  12.446
66569W        W31796   0.248  33.900  14.251
66570W        W31797  33.923  13.151   2.878
66571W        W31798  20.099  39.291   0.465
66572W        W31799   3.192  33.485   4.154
66573W        W31800  25.799   0.035  12.040
66574W        W31801   3.916   1.394   0.188
66575W        W31802  10.858  43.519  12.506
66576W        W31803  21.544  37.600  10.137
66577W        W31804  18.567   2.263   4.509
66578W        W31805  26.805   0.627   9.819
66579W        W31806  38.142   1.137  10.700
66580W        W31807  29.632  19.916   3.644
66581W        W31808  42.816  24.146   4.705
66582W        W31809  32.926  35.429   0.739
66583W        W31810  43.538  12.944   3.664
66584W        W31811  31.080  15.927  13.514
66585W        W31812  39.816  18.738  13.952
66586W        W31813  40.366  10.440   3.223
66587W        W31814  36.673   1.876   2.396
66588W        W31815   5.628   7.363   3.142
66589W        W31816  24.074  29.508   0.458
66590W        W31817  12.570   1.395   0.929
66591W        W31818  18.193  43.461   3.370
66592W        W31819  23.802   9.928  14.808
66593W        W31820   7.494  37.516  13.925
66594W        W31821  36.914  39.512  11.944
66595W        W31822   2.358  16.499   2.843
66596W        W31823  27.491  15.646   9.661
66597W        W31824  34.467  26.983  10.328
66598W        W31825   7.831  39.543  14.132
66599W        W31826  17.774   3.513  12.021
66600W        W31827  35.858  37.387   3.068
66601W        W31828  37.037  18.817   1.456
66602W        W31829   6.691  34.900   2.769
66603W        W31830  41.961  21.137   1.407
66604W        W31831  19.631  26.798  13.978
66605W        W31832  28.936   7.953   2.789
66606W        W31833   8.365   7.836   3.476
66607W        W31834  21.075  25.452  11.066
66608W        W31835  24.000  12.370  12.924
66609W        W31836  12.303  34.406   3.390
66610W        W31837  42.283  36.994  12.115
66611W        W31838  13.100  24.704  13.782
66612W        W31839  42.691  10.084   5.073
66613W        W31840  22.641   4.869   1.152
66614W        W31841  24.508  15.985   0.149
66615W        W31842  32.198   4.395  11.994
66616W        W31843   2.166   8.039  12.604
66617W        W31844  19.315   6.827  13.512
66618W        W31845  39.527  10.372  13.000
66619W        W31846  37.590  15.028  13.067
66620W        W31847  32.048   2.671   2.712
66621W        W31848   6.754  27.222  14.566
66622W        W31849  16.800  12.700   3.776
66623W        W31850  40.959  39.179  13.615
66624W        W31851  22.516  22.550   2.279
66625W        W31852  15.718  25.434   3.658
66626W        W31853   7.946  10.681   0.158
66627W        W31854  12.622  13.390   1.637
66628W        W31855  23.116  34.755  10.680
66629W        W31856  38.830   7.208   0.516
66630W        W31857  11.606   4.785  12.160
66631W        W31858  24.998  35.375  14.429
66632W        W31859  12.246  21.130   1.266
66633W        W31860  25.140  12.549  10.802
66634W        W31861  37.236  24.071   0.147
66635W        W31862  42.981  21.914   3.668
66636W        W31863   3.296  12.164   2.826
66637W        W31864  24.745   3.986  14.891
66638W        W31865  32.156  25.984   0.898
66639W        W31866  17.612   8.461  13.881
66640W        W31867  30.027  20.883   3.433
66641W        W31868   5.019  11.643   0.477
66642W        W31869   7.418   9.825   0.886
66643W        W31870  37.605  40.575   1.428
66644W        W31871  29.359   0.764   3.560
66645W        W31872  27.095  30.091   1.748
66646W        W31873   6.500  18.512  11.966
66647W        W31874  20.111   3.420   2.010
66648W        W31875   0.530   0.417  13.023
66649W        W31876  24.742   5.931   3.642
66650W        W31877  40.610   8.905  10.659
66651W        W31878  42.729  24.113  11.075
66652W        W31879   8.842  31.765  13.543
66653W        W31880  32.509   0.015   3.772
66654W        W31881  11.315  24.129  10.755
66655W        W31882  21.226   2.243   3.628
66656W        W31883  14.187  37.484   2.143
66657W        W31884   7.333  19.495   2.845
66658W        W31885  15.479  19.335   2.236
66659W        W31886   7.335  20.298  13.128
66660W        W31887   1.701  32.447   3.855
66661W        W31888  23.681  25.637  13.583
66662W        W31889  11.307  37.387   2.167
66663W        W31890  12.072  23.752  13.968
66664W        W31891  17.826  40.757  12.926
66665W        W31892  41.011  27.094  14.273
66666W        W31893  22.679  15.575  13.552
66667W        W31894   0.485  44.396  13.819
66668W        W31895  39.271  32.085  12.977
66669W        W31896  10.158   8.871   2.238
66670W        W31897  10.287  34.847  14.424
66671W        W31898  28.427   0.664  13.024
66672W        W31899  39.512  14.946   0.249
66673W        W31900  37.591  40.323  11.640
66674W        W31901  18.229  16.265  13.147
66675W        W31902  37.265  33.667  10.986
66676W        W31903   7.379  22.426  13.931
66677W        W31904  34.047  28.146  10.689
66678W        W31905  29.734  22.568   3.787
66679W        W31906  14.774  27.543  12.436
66680W        W31907  17.837  28.674   0.212
66681W        W31908  25.333   4.175   0.702
66682W        W31909  35.985  28.961   4.279
66683W        W31910  13.716  36.365   0.512
66684W        W31911  18.043  40.494   4.580
66685W        W31912  12.859  26.755   0.298
66686W        W31913  25.604   6.070  14.025
66687W        W31914  33.651  39.358   3.637
66688W        W31915   0.390  41.538   3.519
66689W        W31916  26.478  30.994  10.656
66690W        W31917  31.090  42.831   3.286
66691W        W31918  26.119  38.509  14.318
66692W        W31919  41.202  23.495   3.987
66693W        W31920  30.096  11.812  13.811
66694W        W31921   2.853  11.223   0.966
66695W        W31922  12.668  26.075   4.788
66696W        W31923  15.464  40.983  13.752
66697W        W31924  44.973  26.202   4.546
66698W        W31925  24.228  42.482   0.068
66699W        W31926  30.541   0.197   4.841
66700W        W31927   8.260  27.984   1.318
66701W        W31928  44.549  29.619  13.558
66702W        W31929  14.643  43.855   0.454
66703W        W31930  18.103  37.953   3.233
66704W        W31931  25.657  12.620   2.681
66705W        W31932  24.127  19.829   4.095
66706W        W31933   9.426  40.358   0.307
66707W        W31934   8.674  17.704  14.907
66708W        W31935  30.900  41.576  12.436
66709W        W31936   4.153  44.778  14.554
66710W        W31937  33.030  12.114  11.219
66711W        W31938  28.227  11.071  11.160
66712W        W31939  16.259  33.426  13.263
66713W        W31940  19.176  27.125   1.382
66714W        W31941  10.872  14.491   3.321
66715W        W31942  38.591   0.470  11.216
66716W        W31943  27.434   5.945  14.552
66717W        W31944  36.002  17.278   1.689
66718W        W31945  23.234  33.657  14.945
66719W        W31946  37.596  33.937  14.489
66720W        W31947  32.617  12.369  11.443
66721W        W31948  38.500   9.230  13.922
66722W        W31949  13.150   3.415   1.484
66723W        W31950   8.593   2.253  13.406
66724W        W31951   4.361  42.995   0.940
66725W        W31952  21.508  43.276   0.238
66726W        W31953   4.685  31.278  14.280
66727W        W31954  42.426  29.138   4.265
66728W        W31955  26.955  26.639   3.837
66729W        W31956  32.592  19.596   1.970
66730W        W31957  26.967  27.202   1.412
66731W        W31958   2.471  33.109  14.306
66732W        W31959  33.123  44.373  13.896
66733W        W31960  38.667  25.002   2.724
66734W        W31961   2.671  17.722   4.535
66735W        W31962  34.339  44.372  11.259
66736W        W31963  18.660  36.292  11.651
66737W        W31964  16.030  10.685  11.186
66738W        W31965  36.765   0.873   4.556
66739W        W31966  34.963  17.084   4.734
66740W        W31967   2.269  36.788   3.361
66741W        W31968  19.220  27.431   3.370
66742W        W31969  18.895   0.441   3.564
66743W        W31970   9.792   7.892   1.505
66744W        W31971   3.364  37.801  13.056
66745W        W31972  33.157  21.778   1.677
66746W        W31973  18.295  14.151  11.607
66747W        W31974   5.396  12.874  14.385
66748W        W31975  22.549   7.194  14.047
66749W        W31976  26.013   6.667  13.521
66750W        W31977   4.960   4.404  13.585
66751W        W31978  35.367  40.052  14.406
66752W        W31979  31.031  38.129   2.470
66753W        W31980  21.929  29.172  12.098
66754W        W31981   6.641  13.149   3.724
66755W        W31982  17.365   6.324  11.192
66756W        W31983   6.982  18.360   4.264
66757W        W31984  31.145  16.713   0.108
66758W        W31985  37.078  36.894  13.926
66759W        W31986  39.945  40.874   1.263
66760W        W31987   1.474  30.892   2.393
66761W        W31988  37.022  15.245   0.439
66762W        W31989  35.208  41.762  13.025
66763W        W31990  11.835  15.037   1.414
66764W        W31991  25.514  31.752   2.170
66765W        W31992  28.804  31.095  12.041
66766W        W31993  31.659   8.424  11.145
66767W        W31994  36.937  25.135  14.900
66768W        W31995  42.821  35.500   0.093
66769W        W31996  17.995  25.678   2.672
66770W        W31997   6.740  22.644   3.778
66771W        W31998  43.678  42.133   5.000
66772W        W31999  26.612  35.780   1.368
66773W        W32000  44.035  12.191   2.355
66774W        W32001   2.589  11.788   0.169
66775W        W32002   5.334  37.884   2.812
66776W        W32003  39.057  27.971   5.089
66777W        W32004  37.261  22.192  13.329
66778W        W32005  39.658   1.319   0.023
66779W        W32006   7.475  13.258   1.212
66780W        W32007   4.828   2.222  14.134
66781W        W32008  28.777   4.282   4.875
66782W        W32009  15.511   9.299   0.005
66783W        W32010  17.362   4.162   4.796
66784W        W32011   9.238  20.725  12.943
66785W        W32012   4.287   1.293   1.146
66786W        W32013  28.213  21.893  11.884
66787W        W32014  35.143  13.916  10.818
66788W        W32015  22.438  17.819  14.318
66789W        W32016  30.378  30.515   4.138
66790W        W32017  12.474  16.814   1.567
66791W        W32018  17.083   4.911   2.100
66792W        W32019  21.224   8.718   0.803
66793W        W32020  22.531  35.589   2.117
66794W        W32021  13.741  27.861   4.416
66795W        W32022  36.742   5.146   4.972
66796W        W32023  10.042  36.323  14.058
66797W        W32024   1.880  30.123   4.093
66798W        W32025  22.786  24.105  13.967
66799W        W32026   8.333   8.880  10.616
66800W        W32027   8.214  31.441   4.380
66801W        W32028  38.158  43.826   3.192
66802W        W32029  34.982  30.166  13.364
66803W        W32030  37.033  15.607  11.292
66804W        W32031   9.777  36.576   0.784
66805W        W32032  36.523  10.886   2.352
66806W        W32033  37.570  44.986  12.518
66807W        W32034  10.896  24.389  13.848
66808W        W32035  12.845  30.131  13.309
66809W        W32036   9.378  22.152   0.047
66810W        W32037  32.793  34.026   5.660
66811W        W32038  14.867  29.775   0.817
66812W        W32039  28.482   1.130  11.877
66813W        W32040  27.212   1.386  12.178
66814W        W32041   9.305   7.552  12.585
66815W        W32042  34.091   5.656   1.249
66816W        W32043  29.098   5.799  13.850
66817W        W32044  13.550   3.329   1.795
66818W        W32045  44.669  21.156  12.168
66819W        W32046  40.354  31.178  12.005
66820W        W32047   6.777  26.029   4.222
66821W        W32048   3.879  13.355  13.912
66822W        W32049  35.885   5.231   3.381
66823W        W32050  32.387  42.927   3.483
66824W        W32051  28.111  38.129  10.090
66825W        W32052  10.219  36.926   4.143
66826W        W32053   6.459  12.264  13.959
66827W        W32054  43.500  36.311   4.124
66828W        W32055   4.303  24.919  11.831
66829W        W32056  37.669  25.168   2.874
66830W        W32057   8.995  43.171   0.852
66831W        W32058   6.150   4.323  11.889
66832W        W32059  42.342  33.917  14.472
66833W        W32060  39.556  11.361   0.972
66834W        W32061  40.909  42.545  12.070
66835W        W32062   2.342   3.881  10.512
66836W        W32063  41.605  26.532   3.545
66837W        W32064  10.393  14.863   1.401
66838W        W32065   7.702   5.795   2.831
66839W        W32066  15.072   8.990   4.502
66840W        W32067  27.687   7.801   0.356
66841W        W32068  28.149   1.537  11.619
66842W        W32069  22.031  42.469  10.607
66843W        W32070  44.008   4.007   1.772
66844W        W32071   8.269  33.980   4.277
66845W        W32072   2.467  17.880  10.136
66846W        W32073  19.073   7.229   3.270
66847W        W32074   8.438  42.267   4.277
66848W        W32075  15.619   4.458  14.747
66849W        W32076  31.585  15.586   5.377
66850W        W32077  17.642   1.909   4.555
66851W        W32078  44.482  27.919   0.340
66852W        W32079  40.333  16.294  12.369
66853W        W32080  19.770  38.447   0.203
66854W        W32081   3.458  19.613   0.293
66855W        W32082  36.436  17.922  11.167
66856W        W32083  37.801   1.034  14.951
66857W        W32084  10.901   3.526  11.208
66858W        W32085  14.771  25.012   0.567
66859W        W32086   5.110  29.888   3.254
66860W        W32087  15.309  23.280  14.908
66861W        W32088  41.882   9.786   3.099
66862W        W32089  26.879  22.090  13.588
66863W        W32090  11.663   3.273  12.362
66864W        W32091   3.643   5.869   4.635
66865W        W32092  37.709  24.020   4.163
66866W        W32093   4.647  41.356   3.760
66867W        W32094  14.126  16.866   1.307
66868W        W32095  12.094  21.484  13.239
66869W        W32096  17.084   5.727   2.510
66870W        W32097  21.213  31.553   2.187
66871W        W32098  36.324  18.592   0.802
66872W        W32099   2.363  15.098  12.904
66873W        W32100  37.898  12.841  14.728
66874W        W32101   5.376  22.468  13.326
66875W        W32102  30.068  24.554   0.821
66876W        W32103  15.099  18.150   2.365
66877W        W32104  36.456   0.762  12.090
66878W        W32105  15.610  43.797   2.848
66879W        W32106  11.817  44.590   0.106
66880W        W32107  17.062   3.362   3.177
66881W        W32108  41.646  39.107  11.165
66882W        W32109  32.880  10.879  13.094
66883W        W32110  12.917  35.426   0.968
66884W        W32111  25.996  17.722   1.983
66885W        W32112   9.885  35.459   2.936
66886W        W32113  40.107   1.240  14.778
66887W        W32114  11.662  26.980  13.318
66888W        W32115  40.230  40.529  13.569
66889W        W32116  27.784  41.856   3.164
66890W        W32117   1.784  20.421   3.134
66891W        W32118  36.187  42.404   4.556
66892W        W32119  11.776  24.016   0.633
66893W        W32120  38.485  16.252  10.987
66894W        W32121  24.615  22.913  12.554
66895W        W32122  21.727  25.153  12.074
66896W        W32123  18.782  34.204  13.822
66897W        W32124  12.476  39.271   4.173
66898W        W32125  30.375  42.029   4.097
66899W        W32126  24.711   5.943   4.550
66900W        W32127  20.625  32.635   1.660
66901W        W32128  30.008  35.640   2.054
66902W        W32129   3.022  13.125   0.327
66903W        W32130  30.380  21.432   1.998
66904W        W32131  34.615  26.592   4.595
66905W        W32132  42.794  20.593  10.788
66906W        W32133   7.074  32.005  11.679
66907W        W32134  11.710  13.726   3.240
66908W        W32135   6.848  31.072   2.594
66909W        W32136  39.506   9.099  14.891
66910W        W32137   5.096  30.245  10.367
66911W        W32138  13.389  19.640   0.240
66912W        W32139  25.972  43.249   2.134
66913W        W32140   6.224  30.308   3.074
66914W        W32141  10.248  44.465  14.215
66915W        W32142   4.283  40.764   4.634
66916W        W32143  24.675  26.574   0.941
66917W        W32144  29.615   9.139   3.261
66918W        W32145  17.146  39.868   0.403
66919W        W32146  44.697  44.990   2.203
66920W        W32147  40.462  28.678   2.504
66921W        W32148  32.947  34.606   1.221
66922W        W32149  17.208   8.802  11.639
66923W        W32150  37.839  42.533   2.777
66924W        W32151  40.221  31.512  14.455
66925W        W32152  28.649  39.866  12.955
66926W        W32153  23.461   2.926   3.767
66927W        W32154  23.500  43.235   4.541
66928W        W32155  32.173  16.769   0.976
66929W        W32156  17.307  28.634   2.751
66930W        W32157   3.443  33.707   4.551
66931W        W32158  42.805  28.500   0.362
66932W        W32159  19.572   5.363   0.896
66933W        W32160  18.231  23.175  11.975
66934W        W32161   9.349  44.737  13.893
66935W        W32162  42.033  44.387  14.388
66936W        W32163   6.598  10.738  11.203
66937W        W32164  19.539  27.492   1.277
66938W        W32165  23.300   7.339  11.197
66939W        W32166  23.625  15.726  14.052
66940W        W32167  19.731  27.643   1.744
66941W        W32168  27.319   9.584   1.235
66942W        W32169  12.872   0.772   5.351
66943W        W32170  19.920  34.389   4.991
66944W        W32171   7.502  40.478  13.761
66945W        W32172  23.019  40.083  14.362
66946W        W32173   2.922  43.285   3.066
66947W        W32174  30.956  33.685  11.385
66948W        W32175  27.826   0.257  11.068
66949W        W32176  24.671  32.358  12.663
66950W        W32177  18.808   4.275   2.188
66951W        W32178   8.219  10.191   4.064
66952W        W32179   1.293  35.853  12.445
66953W        W32180  38.073  12.088  12.541
66954W        W32181   3.288  22.197  13.728
66955W        W32182  25.146  17.719   1.492
66956W        W32183  24.211  20.044   1.807
66957W        W32184  27.084  12.923   2.542
66958W        W32185  33.607  21.972  11.095
66959W        W32186  41.744  25.429   0.751
66960W        W32187  39.575  15.344   3.293
66961W        W32188   5.823  15.187  13.812
66962W        W32189   2.897  19.043  12.954
66963W        W32190  35.933  29.673   2.660
66964W        W32191  14.367  41.995   2.841
66965W        W32192   3.583  32.011   0.448
66966W        W32193   1.316  42.647  14.346
66967W        W32194   4.238  22.521  13.653
66968W        W32195  31.122  40.088  10.732
66969W        W32196  35.547   3.258  11.919
66970W        W32197  20.690   6.127   3.296
66971W        W32198  35.507   9.405   1.409
66972W        W32199  41.712   4.710   1.644
66973W        W32200  35.287   2.468   0.349
66974W        W32201  11.210  38.521  13.974
66975W        W32202   6.371  19.485   3.146
66976W        W32203  32.370  39.421   1.909
66977W        W32204   5.198  16.144  14.919
66978W        W32205  35.022  39.855   3.662
66979W        W32206  29.523  44.427   2.305
66980W        W32207   8.701   9.682   3.150
66981W        W32208  23.997  36.596  14.331
66982W        W32209  38.450  12.636  13.605
66983W        W32210  35.431   3.905  13.542
66984W        W32211  36.101  16.430  10.941
66985W        W32212  40.559  20.511  11.173
66986W        W32213  36.430  10.170  11.785
66987W        W32214  35.583  33.051  13.302
66988W        W32215  37.222  40.300  10.736
66989W        W32216   4.036  25.021  12.389
66990W        W32217  25.757  16.530   2.328
66991W        W32218  27.622  11.854  13.799
66992W        W32219   4.423   0.553  12.225
66993W        W32220  41.200  27.605  10.755
66994W        W32221  27.180   8.193   0.759
66995W        W32222   8.255  26.370  13.061
66996W        W32223   9.608   6.864  10.817
66997W        W32224  43.562   1.279  14.377
66998W        W32225  13.522  12.071   1.454
66999W        W32226   8.792  41.300  13.639
67000W        W32227  43.294  32.747   3.760
67001W        W32228  32.528   8.153   2.409
67002W        W32229  21.041  28.925  12.136
67003W        W32230   6.935  35.796  13.131
67004W        W32231  36.969  32.927   1.895
67005W        W32232  30.925  17.526   3.855
67006W        W32233  21.446  13.683   0.957
67007W        W32234   5.756  25.348  12.371
67008W        W32235   1.185  18.846  11.626
67009W        W32236  29.524   5.203   1.282
67010W        W32237  26.385  38.737  13.844
67011W        W32238  44.000  29.180   2.329
67012W        W32239  17.794  42.948   3.628
67013W        W32240   5.990  22.212   4.064
67014W        W32241  16.858  37.625  12.410
67015W        W32242  43.667  30.206   9.933
67016W        W32243   4.110  24.436  13.074
67017W        W32244  10.305  22.944  11.115
67018W        W32245  13.570  24.998   4.375
67019W        W32246  37.447   8.590   3.079
67020W        W32247  38.346  11.941   4.090
67021W        W32248  16.060  10.198  13.900
67022W        W32249  40.751  34.830  12.496
67023W        W32250  12.048  29.399   0.361
67024W        W32251  20.307  10.482  10.306
67025W        W32252  16.802   8.075   1.271
67026W        W32253  33.338   1.730  11.960
67027W        W32254  14.086  31.653   0.348
67028W        W32255  27.951   2.017   0.432
67029W        W32256  24.738  16.299  14.323
67030W        W32257  35.683  21.562   4.565
67031W        W32258   0.150  37.958  12.544
67032W        W32259  27.027  31.436  11.971
67033W        W32260  37.414  39.168   5.394
67034W        W32261  31.480  29.220   4.461
67035W        W32262  25.695  40.573  14.395
67036W        W32263  38.976  26.691   2.268
67037W        W32264  35.118   4.808   4.878
67038W        W32265  27.741  26.705  13.907
67039W        W32266   7.513  29.148   0.037
67040W        W32267  29.446  43.566   0.017
67041W        W32268  14.106  44.799  14.795
67042W        W32269  11.152  19.295   3.509
67043W        W32270  12.763  27.121  12.904
67044W        W32271  37.740  39.451  13.443
67045W        W32272  27.406  15.077   3.233
67046W        W32273   8.394  37.676  10.216
67047W        W32274  35.827  26.940   2.378
67048W        W32275  33.682  13.014   9.949
67049W        W32276  13.783   6.535  12.638
67050W        W32277  42.790  33.160  13.399
67051W        W32278   7.110  17.802   1.452
67052W        W32279  12.150  22.524   2.447
67053W        W32280  38.022   1.360   1.797
67054W        W32281  32.157  27.190   0.427
67055W        W32282  28.214  15.059  13.896
67056W        W32283   7.597  24.308  11.178
67057W        W32284  36.572  43.842   2.948
67058W        W32285  42.053  32.595  11.167
67059W        W32286  16.506  42.196   1.954
67060W        W32287  38.978  38.872  14.349
67061W        W32288  27.993   7.743   3.694
67062W        W32289  20.774   3.471  14.854
67063W        W32290   9.141  42.814  11.572
67064W        W32291  42.171  26.435   1.868
67065W        W32292  16.404   1.345  13.335
67066W        W32293   6.648  13.258   2.212
67067W        W32294   8.910   5.158  11.588
67068W        W32295  43.322  38.033   3.661
67069W        W32296  19.894  38.516   2.025
67070W        W32297  16.696  43.718  11.615
67071W        W32298  35.262   6.016  10.290
67072W        W32299   5.244  26.072   3.287
67073W        W32300  39.379  34.240  14.575
67074W        W32301   7.098  25.627   4.201
67075W        W32302  23.682  37.392  14.178
67076W        W32303   9.828  27.959   3.890
67077W        W32304  37.537  17.511  14.280
67078W        W32305  33.039  24.504  13.144
67079W        W32306  20.685  25.150   4.277
67080W        W32307  32.017   0.343  10.487
67081W        W32308   2.455   2.767  14.526
67082W        W32309   4.780  33.161   4.529
67083W        W32310   3.825   1.324   5.027
67084W        W32311  34.379  15.880  11.257
67085W        W32312  43.205  42.960   1.705
67086W        W32313  19.592  24.425  11.769
67087W        W32314  11.742   0.177  10.954
67088W        W32315   3.669  16.215   2.277
67089W        W32316  10.365  31.036   0.263
67090W        W32317  38.980  14.159  12.557
67091W        W32318   1.635  27.528   0.878
67092W        W32319  14.048  33.432  14.459
67093W        W32320   9.149   5.011   0.899
67094W        W32321   9.130  34.981   0.226
67095W        W32322  27.154  10.568   4.198
67096W        W32323  28.382   5.151  12.508
67097W        W32324  33.940   5.670   0.745
67098W        W32325  24.308   0.470   0.426
67099W        W32326  41.364  26.258  14.325
67100W        W32327   1.778  36.519   0.001
67101W        W32328  23.157  23.101   0.339
67102W        W32329   4.366  13.943  11.636
67103W        W32330   0.898  22.289  13.500
67104W        W32331  15.760  13.263  14.499
67105W        W32332  42.509  38.956   0.309
67106W        W32333  30.234  35.947  12.538
67107W        W32334  23.323  42.574  12.931
67108W        W32335   6.885  16.340  13.897
67109W        W32336  35.964  31.984  11.534
67110W        W32337   7.840   7.026  10.470
67111W        W32338  31.658  25.431   2.779
67112W        W32339  20.801   0.962  11.193
67113W        W32340  21.737   7.741   4.105
67114W        W32341  29.609  39.036   0.242
67115W        W32342  21.191  33.579  14.743
67116W        W32343  42.600   0.431  10.735
67117W        W32344  43.506  16.027   1.399
67118W        W32345  32.189  43.817   4.019
67119W        W32346  39.429  43.139   4.248
67120W        W32347  23.007   3.463  11.887
67121W        W32348  38.959  11.266  14.200
67122W        W32349  29.878  10.419   0.771
67123W        W32350  32.557  43.806   2.466
67124W        W32351  21.726  28.016  10.796
67125W        W32352   4.957  39.256   1.762
67126W        W32353  28.579  42.838  11.936
67127W        W32354  29.583  12.730   3.427
67128W        W32355  43.118  13.028  13.842
67129W        W32356  32.094   3.430   2.298
67130W        W32357  41.349   0.727   0.306
67131W        W32358  39.076   7.658   2.653
67132W        W32359  17.463  42.099  12.626
67133W        W32360   3.743  12.031   4.611
67134W        W32361  41.934  29.734   2.157
67135W        W32362  36.942  17.767   4.648
67136W        W32363  31.987  15.777   1.842
67137W        W32364  29.128  20.619   0.423
67138W        W32365  44.173   7.579  13.807
67139W        W32366  18.558   1.290  11.111
67140W        W32367  43.468   3.462   0.403
67141W        W32368  38.443  28.021  14.916
67142W        W32369   0.472  15.285   5.012
67143W        W32370   0.547  24.359  12.446
67144W        W32371  44.016   9.319   3.815
67145W        W32372   5.899  41.634  14.434
67146W        W32373   4.982  43.733   2.520
67147W        W32374  44.247   0.134   0.039
67148W        W32375   1.329  14.897  12.767
67149W        W32376  24.725  36.444   2.317
67150W        W32377  42.375   6.141  14.551
67151W        W32378  21.722  16.835  10.655
67152W        W32379  35.417   4.879  12.387
67153W        W32380  33.475   7.440  11.582
67154W        W32381  15.917  13.052   3.972
67155W        W32382  16.652  25.185   3.283
67156W        W32383  37.870   1.833   1.695
67157W        W32384  17.574   8.665   2.638
67158W        W32385  32.556  36.575  14.524
67159W        W32386  40.087  11.491  13.772
67160W        W32387  21.571  21.987  10.812
67161W        W32388  39.669  11.626   3.314
67162W        W32389  37.761  12.913  12.375
67163W        W32390  42.086  34.808  10.779
67164W        W32391  20.180  29.647  10.503
67165W        W32392  21.522  13.331   2.243
67166W        W32393   7.849  34.499   3.372
67167W        W32394  29.434   9.079   4.618
67168W        W32395   9.243  21.234  12.857
67169W        W32396  20.291  17.859   0.001
67170W        W32397   1.325  29.669  12.976
67171W        W32398  16.178  15.731  14.055
67172W        W32399   1.824  38.404  11.097
67173W        W32400  33.912   7.173  11.677
67174W        W32401  25.373  25.736   0.576
67175W        W32402  26.014  27.695   4.181
67176W        W32403  19.253  17.000   1.331
67177W        W32404  40.084   8.717   2.828
67178W        W32405  26.486  20.190  14.695
67179W        W32406   9.498  25.443   4.442
67180W        W32407  29.554  30.073  14.117
67181W        W32408  43.480   9.267  11.613
67182W        W32409  15.442  13.091   1.570
67183W        W32410   5.638  15.356   1.879
67184W        W32411  24.111  34.617   4.370
67185W        W32412  27.494  14.978  13.062
67186W        W32413  13.068  15.695  12.449
67187W        W32414  33.460  13.314   1.654
67188W        W32415  43.921   8.226   4.556
67189W        W32416  25.771   5.573   0.848
67190W        W32417   3.827   7.722   4.647
67191W        W32418  38.934  39.506   4.061
67192W        W32419  17.746  15.604   0.450
67193W        W32420  20.967  31.564   4.284
67194W        W32421  26.523  23.184  10.474
67195W        W32422   6.694   6.589   3.290
67196W        W32423   2.898  14.465   3.733
67197W        W32424  41.000  11.354   0.056
67198W        W32425  38.680  28.535   3.692
67199W        W32426  22.633  27.916  12.045
67200W        W32427   4.844  17.205  10.152
67201W        W32428  42.601  41.313   4.297
67202W        W32429  38.774  34.031  11.955
67203W        W32430   1.197  31.431   1.424
67204W        W32431  39.377  22.265  11.063
67205W        W32432  39.433  40.538  11.391
67206W        W32433  22.042  44.021  10.877
67207W        W32434  13.814  15.522  10.150
67208W        W32435  15.631  14.593   0.417
67209W        W32436  23.142  33.575   3.856
67210W        W32437   9.199  33.416  10.086
67211W        W32438   2.427  39.505  11.536
67212W        W32439  11.176  17.098  11.567
67213W        W32440  33.065  30.439   3.144
67214W        W32441   8.324  40.285   3.811
67215W        W32442  30.138   9.039  14.941
67216W        W32443  18.108  39.771   2.850
67217W        W32444  44.831  26.622   4.126
67218W        W32445   8.161   1.738   2.280
67219W        W32446  20.510   6.321  14.845
67220W        W32447  32.633  35.337  13.065
67221W        W32448  28.491  31.339   3.547
67222W        W32449  19.272  14.279  11.302
67223W        W32450  39.209  30.523  13.926
67224W        W32451   9.221  31.287  11.502
67225W        W32452  29.225  38.984   3.599
67226W        W32453  13.149  36.873   4.191
67227W        W32454  12.251  10.790  13.910
67228W        W32455  19.939  27.477   4.587
67229W        W32456  44.912   5.500  10.519
67230W        W32457  19.054   6.094  14.232
67231W        W32458   7.225   0.916  14.702
67232W        W32459  43.758  39.030   4.373
67233W        W32460   3.300   4.151   0.779
67234W        W32461   2.978  19.243   0.327
67235W        W32462  43.563  21.676   0.997
67236W        W32463   2.518   2.161   1.629
67237W        W32464  44.289   8.868   3.216
67238W        W32465  22.279  17.102   3.479
67239W        W32466  25.118  39.423   1.617
67240W        W32467  37.145  24.036  12.025
67241W        W32468  15.055  22.589   2.098
67242W        W32469  30.742  37.073   0.734
67243W        W32470  33.903  20.217   4.943
67244W        W32471   1.660   7.330   3.274
67245W        W32472  13.667  35.063  11.172
67246W        W32473  10.512  13.689   0.374
67247W        W32474  34.909  31.728  13.461
67248W        W32475  16.067  31.718  14.327
67249W        W32476   4.979   0.788   4.257
67250W        W32477  12.045  16.497   5.574
67251W        W32478  33.988  22.502  12.880
67252W        W32479  38.549  32.342  12.964
67253W        W32480   4.670   3.240   4.594
67254W        W32481   4.002   7.268   0.215
67255W        W32482  15.085  14.709   3.725
67256W        W32483  19.720  44.335  13.468
67257W        W32484  38.400  28.948   0.369
67258W        W32485  44.143  15.207  11.530
67259W        W32486  22.947  43.518   1.681
67260W        W32487  36.090  17.671  11.970
67261W        W32488  41.281  26.614   1.722
67262W        W32489  20.113  11.836  10.747
67263W        W32490  39.308  42.702   0.249
67264W        W32491  42.280  19.579  13.183
67265W        W32492  38.994  44.420   4.417
67266W        W32493  44.806  15.772   2.998
67267W        W32494  44.753  34.459  12.573
67268W        W32495  34.454  16.637  11.107
67269W        W32496  43.492  21.154   3.573
67270W        W32497  16.500  37.866  14.974
67271W        W32498   8.813   8.625  10.649
67272W        W32499  24.671  32.385   0.087
67273W        W32500  33.622  39.514   2.252
67274W        W32501  14.934   1.441  11.594
67275W        W32502  37.669  42.779   4.937
67276W        W32503  43.081   5.333   4.597
67277W        W32504  28.518  41.949  13.368
67278W        W32505  21.675   9.127   2.899
67279W        W32506  27.764   8.526  12.171
67280W        W32507  38.404  26.119  14.908
67281W        W32508  23.088  27.004  13.927
67282W        W32509  33.049  27.512  14.940
67283W        W32510   2.711  39.075   1.594
67284W        W32511   8.960   0.471   4.298
67285W        W32512  15.697   6.153  13.329
67286W        W32513  18.713  13.894   4.957
67287W        W32514   4.930  25.897   1.703
67288W        W32515  13.490  15.218  10.433
67289W        W32516  16.600  25.841  14.415
67290W        W32517  18.817  25.942   3.213
67291W        W32518  28.657  22.723   3.669
67292W        W32519  16.797  32.788  12.003
67293W        W32520  19.866  33.050  12.436
67294W        W32521  18.102  27.419  14.856
67295W        W32522  40.828  18.327  10.708
67296W        W32523   6.392  11.584  10.608
67297W        W32524  39.301  16.051  11.301
67298W        W32525  43.594  12.044  14.913
67299W        W32526  30.466  22.951  11.175
67300W        W32527   0.493  44.285   5.381
67301W        W32528  24.682  18.662  14.125
67302W        W32529  24.966  26.509  13.728
67303W        W32530  12.930   6.892   0.382
67304W        W32531  39.513  36.418   4.199
67305W        W32532   0.336  40.636  11.189
67306W        W32533  39.526   7.933   3.394
67307W        W32534  26.557   1.936   0.342
67308W        W32535  11.757   2.302   1.320
67309W        W32536  10.929   5.292  10.630
67310W        W32537  19.740  40.471  11.800
67311W        W32538  41.269  28.891   1.083
67312W        W32539  27.092   6.134   0.708
67313W        W32540  31.528   9.622   9.793
67314W        W32541  38.144  29.027  11.059
67315W        W32542   5.444  29.055   3.682
67316W        W32543   2.438  12.263  13.552
67317W        W32544  29.809  42.118  13.991
67318W        W32545  41.978  19.649  12.677
67319W        W32546  32.888  14.843  13.959
67320W        W32547   3.916   2.748   5.051
67321W        W32548  17.010  17.972  14.476
67322W        W32549  22.791   9.665  13.748
67323W        W32550  43.475  38.149   3.169
67324W        W32551  30.589   7.598  13.958
67325W        W32552  24.682   8.309   4.640
67326W        W32553  10.110  34.051   4.497
67327W        W32554  10.966  15.834   2.723
67328W        W32555  18.882  20.222  10.609
67329W        W32556  34.039  12.885  12.980
67330W        W32557  31.472  38.602  11.200
67331W        W32558  36.128  38.332   0.361
67332W        W32559  42.449  30.188  14.018
67333W        W32560  25.795   0.257  13.469
67334W        W32561  37.864  29.709   0.431
67335W        W32562  25.720  33.082   4.106
67336W        W32563  20.489  44.689   4.573
67337W        W32564  26.673  10.765  14.501
67338W        W32565  35.937  28.573   0.165
67339W        W32566  11.790  37.999   4.363
67340W        W32567   3.955   7.822   1.597
67341W        W32568  13.387  24.206  10.656
67342W        W32569   4.496  24.200   4.084
67343W        W32570  42.606  26.064  14.235
67344W        W32571  24.536  26.233  12.754
67345W        W32572  44.561   4.087  11.142
67346W        W32573  16.022  42.179  13.475
67347W        W32574  29.214  44.534  13.893
67348W        W32575  32.634  29.361   1.677
67349W        W32576  41.140  29.673  11.606
67350W        W32577  40.146   4.014   1.444
67351W        W32578  30.656  31.412  12.409
67352W        W32579  21.267   1.683   1.200
67353W        W32580   6.211  16.574   0.759
67354W        W32581   1.989  40.048   3.035
67355W        W32582  13.761  36.819   4.702
67356W        W32583  11.910  30.629  14.819
67357W        W32584  29.662  19.521   4.575
67358W        W32585  30.986  38.817   0.362
67359W        W32586  17.723  10.427   0.294
67360W        W32587  42.368  17.280  13.476
67361W        W32588   5.745  24.655   3.472
67362W        W32589  22.939  38.316  14.979
67363W        W32590  43.122  26.193  12.742
67364W        W32591  20.775  17.787  10.691
67365W        W32592  33.961  38.464   1.641
67366W        W32593  14.050  43.198  11.682
67367W        W32594  44.828  27.603  12.973
67368W        W32595  29.937   5.007  10.389
67369W        W32596  19.178   3.979   2.711
67370W        W32597  15.337  26.435   1.372
67371W        W32598  14.666  28.918   1.285
67372W        W32599  24.080  14.735   3.583
67373W        W32600  39.902  44.786   4.536
67374W        W32601  22.593  20.165  12.983
67375W        W32602   0.722  30.446  12.711
67376W        W32603  41.148  29.165  13.432
67377W        W32604   9.771   1.699   0.757
67378W        W32605  20.916  30.153   3.834
67379W        W32606  22.885  26.109   1.397
67380W        W32607   8.779  15.748  11.686
67381W        W32608   1.450  42.288  11.574
67382W        W32609  19.096  36.903  14.288
67383W        W32610   2.840  26.579  13.799
67384W        W32611   4.318  16.024   3.653
67385W        W32612   9.415  27.125  11.010
67386W        W32613  19.042  42.965  12.858
67387W        W32614  37.986   0.254   4.656
67388W        W32615   6.333   0.015   4.631
67389W        W32616  27.057  36.758  10.902
67390W        W32617  27.422  23.127  11.579
67391W        W32618   6.451  20.984  11.201
67392W        W32619  40.008   2.154  13.886
67393W        W32620  17.440  15.345   5.053
67394W        W32621  23.491  16.214  13.875
67395W        W32622  25.300   8.788   4.127
67396W        W32623   2.247   5.295  12.558
67397W        W32624  28.440   2.739   2.242
67398W        W32625  28.194  18.995  13.177
67399W        W32626  21.385  44.213   2.778
67400W        W32627  22.559  21.519  11.169
67401W        W32628  26.466   1.800   3.250
67402W        W32629  34.881  21.962  12.644
67403W        W32630  37.046  28.297  12.529
67404W        W32631  26.208  10.719  12.517
67405W        W32632  17.863   8.468  13.389
67406W        W32633  33.795   5.867  12.187
67407W        W32634  34.607  42.212   3.814
67408W        W32635  23.254  38.317  11.649
67409W        W32636   6.709  44.055  14.321
67410W        W32637  32.124  14.172  13.758
67411W        W32638  13.784  35.094   4.135
67412W        W32639   0.970  38.414  11.314
67413W        W32640  35.927  24.727   4.142
67414W        W32641  38.329   4.943   2.461
67415W        W32642  23.088  30.296   4.343
67416W        W32643  33.641  23.574   4.323
67417W        W32644  31.604  38.334  14.457
67418W        W32645  38.868  26.953  11.507
67419W        W32646  38.947  41.702  14.308
67420W        W32647  33.869  15.136   0.450
67421W        W32648  19.998  30.495  10.316
67422W        W32649  37.155  33.066   2.770
67423W        W32650  19.219  15.393  14.459
67424W        W32651  20.549   5.154  13.424
67425W        W32652  28.993  10.453  11.068
67426W        W32653  39.570  25.569  12.265
67427W        W32654  30.488  37.646  13.949
67428W        W32655  16.367  27.070  14.758
67429W        W32656   1.048  14.035  12.495
67430W        W32657  18.297  32.525  10.684
67431W        W32658  37.319  17.785  13.347
67432W        W32659  13.302  35.753   0.872
67433W        W32660  20.062   9.697   2.300
67434W        W32661   0.777  32.605   1.824
67435W        W32662   3.787  20.501   3.130
67436W        W32663  16.042  38.061  10.428
67437W        W32664   4.955  33.115  11.515
67438W        W32665   1.465  11.083   3.755
67439W        W32666  10.608  37.349   0.392
67440W        W32667  18.005   4.912   4.577
67441W        W32668  22.758  20.254   1.720
67442W        W32669  11.861  14.194  11.915
67443W        W32670  40.403  14.532  13.570
67444W        W32671  29.068  17.161  14.456
67445W        W32672  25.170  23.012  12.104
67446W        W32673   0.386  29.281  14.224
67447W        W32674  38.048  39.581   4.806
67448W        W32675  18.558  40.030   1.419
67449W        W32676   3.886  34.814  14.902
67450W        W32677  17.382  30.147  12.550
67451W        W32678   3.320  33.598  13.511
67452W        W32679  18.434  36.137   3.749
67453W        W32680  29.752   0.406  13.828
67454W        W32681  15.885  17.184  11.125
67455W        W32682  44.385  25.607  14.804
67456W        W32683  17.148  32.726  13.212
67457W        W32684  13.240  13.596   3.652
67458W        W32685  26.939   2.352  12.430
67459W        W32686   5.196  27.901  13.017
67460W        W32687  12.400  24.260   0.551
67461W        W32688   8.324  33.775   3.293
67462W        W32689  11.776  25.437  13.805
67463W        W32690  24.317   9.840  14.705
67464W        W32691  31.527  12.733   1.002
67465W        W32692  17.520   1.681  13.514
67466W        W32693  26.178  35.741   1.673
67467W        W32694   4.268   4.996  10.546
67468W        W32695  15.752  16.140   2.868
67469W        W32696   7.591  18.454   3.277
67470W        W32697  14.539   4.756   2.309
67471W        W32698  23.524  39.920   0.870
67472W        W32699   7.910  39.176   4.432
67473W        W32700  30.201   0.780  12.559
67474W        W32701   2.683  42.978   2.702
67475W        W32702  21.989  22.590  11.992
67476W        W32703  18.728  22.477   4.172
67477W        W32704  33.544  14.555   3.272
67478W        W32705  40.359  26.017   0.354
67479W        W32706  41.410   0.424  10.718
67480W        W32707   0.747  17.625  12.050
67481W        W32708  18.449  43.851   0.197
67482W        W32709  34.346  36.718  14.985
67483W        W32710  42.279   1.170   0.309
67484W        W32711  16.999   1.130   1.298
67485W        W32712  24.610   5.318   1.913
67486W        W32713   1.950  27.893  12.592
67487W        W32714  39.760  10.338   4.768
67488W        W32715   3.193   3.626   0.840
67489W        W32716  19.876   2.994  11.611
67490W        W32717  29.203   7.387   1.224
67491W        W32718  29.311   6.303  14.993
67492W        W32719  16.751  20.476   2.206
67493W        W32720  22.287   5.819  13.379
67494W        W32721  31.519  39.482   1.436
67495W        W32722  43.393  15.216  14.962
67496W        W32723   7.193  24.951  14.800
67497W        W32724  13.631   5.285  13.403
67498W        W32725   2.329   6.274   0.327
67499W        W32726  13.841   5.771   0.118
67500W        W32727  36.832  16.699  13.720
67501W        W32728  36.548  28.786   0.911
67502W        W32729   4.032  11.843   0.705
67503W        W32730  16.963   1.398   0.837
67504W        W32731  35.340  14.767  10.915
67505W        W32732  16.748  12.878   0.423
67506W        W32733  22.062  20.610   1.892
67507W        W32734  20.380  13.503   3.610
67508W        W32735  27.145   0.659   3.166
67509W        W32736   7.654   3.077  10.774
67510W        W32737  21.527  37.920  12.540
67511W        W32738  18.164  28.455   4.774
67512W        W32739  22.895   4.862  11.218
67513W        W32740   8.167  32.815   3.585
67514W        W32741  43.988  39.335   0.847
67515W        W32742  15.329  43.491   3.155
67516W        W32743  38.959   7.446  13.093
67517W        W32744  42.301  42.974  12.438
67518W        W32745  44.252   1.391   0.716
67519W        W32746  33.865  40.909   2.751
67520W        W32747   8.373  21.258  13.454
67521W        W32748  28.171  41.516  12.103
67522W        W32749  44.746  29.626  12.104
67523W        W32750  14.868   9.822   2.283
67524W        W32751  38.088   3.515   3.782
67525W        W32752  18.795  19.499   0.734
67526W        W32753  11.207  34.462  10.957
67527W        W32754  33.917   7.724  11.571
67528W        W32755  42.881  21.966   1.786
67529W        W32756   8.697  19.998  13.146
67530W        W32757   1.893   9.698   1.393
67531W        W32758   3.166  24.087   2.734
67532W        W32759  36.983  30.652  11.120
67533W        W32760  27.207  18.253  11.739
67534W        W32761  13.228  10.183  13.975
67535W        W32762  29.859  41.499   2.231
67536W        W32763  26.010   6.967   2.694
67537W        W32764  16.737  43.716  11.079
67538W        W32765  22.687  39.984  12.142
67539W        W32766  21.080  43.272  11.718
67540W        W32767   2.026  34.400   0.435
67541W        W32768  35.535  37.488   2.672
67542W        W32769  37.392  31.456  12.407
67543W        W32770   0.774  26.582  13.881
67544W        W32771  36.593  40.350   2.872
67545W        W32772  12.824  20.660   0.873
67546W        W32773  43.093  43.789  12.475
67547W        W32774  39.337  12.919  12.030
67548W        W32775   7.091   0.219   2.797
67549W        W32776  19.238   7.628   1.495
67550W        W32777  16.736  41.064   0.738
67551W        W32778  32.904   3.355  13.978
67552W        W32779  15.812  11.269  13.334
67553W        W32780  32.579   1.271   2.641
67554W        W32781   0.553  31.407  14.564
67555W        W32782  14.776  19.667   0.690
67556W        W32783  43.403  42.221   3.954
67557W        W32784  18.712  32.947   0.604
67558W        W32785  17.265  25.033  11.662
67559W        W32786  28.630  34.053  10.716
67560W        W32787  24.032  44.532  13.931
67561W        W32788   8.783   7.623   3.815
67562W        W32789  43.340  12.028   4.161
67563W        W32790  13.082   5.106  13.468
67564W        W32791  41.623   6.743   2.639
67565W        W32792  33.157  12.820   5.398
67566W        W32793   6.678  22.645  12.759
67567W        W32794   8.269  35.066   1.414
67568W        W32795   2.188   0.008  14.796
67569W        W32796  40.276   6.622  14.968
67570W        W32797  16.601  22.894  13.586
67571W        W32798  11.177  17.708   1.800
67572W        W32799  43.648  27.059   3.993
67573W        W32800   1.962  44.982  11.563
67574W        W32801  20.978   6.403   4.602
67575W        W32802  14.788  29.623   4.583
67576W        W32803  14.851  21.719   1.728
67577W        W32804  38.314   8.164   1.651
67578W        W32805  30.134   5.918   0.958
67579W        W32806  26.202  14.752  10.641
67580W        W32807  20.183   0.912   1.827
67581W        W32808  16.847  20.969  14.756
67582W        W32809   3.245  30.878   5.032
67583W        W32810  36.554  44.410  14.363
67584W        W32811  31.193  17.868  13.869
67585W        W32812  32.433  26.994   0.881
67586W        W32813  31.088  37.635  13.626
67587W        W32814   8.015  31.529   2.046
67588W        W32815  16.718  11.911  10.284
67589W        W32816  18.583   3.314  12.383
67590W        W32817  13.457  29.168  12.139
67591W        W32818   2.325  29.531   1.225
67592W        W32819  25.479  10.569   3.703
67593W        W32820  24.950  42.361   3.414
67594W        W32821  27.583  15.752  10.156
67595W        W32822  17.707   5.902  11.836
67596W        W32823  44.371  34.310  11.750
67597W        W32824   9.552  40.807   3.127
67598W        W32825   8.439   0.661  11.580
67599W        W32826  11.771  27.469  13.431
67600W        W32827   5.337   5.231  14.529
67601W        W32828  32.957  43.829   1.324
67602W        W32829   3.474   1.694   2.147
67603W        W32830  39.359   6.989  10.817
67604W        W32831  33.020  28.649  11.600
67605W        W32832  16.634   5.617  11.071
67606W        W32833  11.671  23.628   2.518
67607W        W32834   4.826  37.053  14.487
67608W        W32835  24.036  44.087  14.209
67609W        W32836  35.845   4.313   4.401
67610W        W32837  19.164  42.035   1.936
67611W        W32838  20.584  22.471  14.379
67612W        W32839  28.886  26.174   0.498
67613W        W32840  24.515  43.682   9.999
67614W        W32841  28.341  39.378  12.611
67615W        W32842   7.888  10.453  12.788
67616W        W32843   9.359  18.628   4.381
67617W        W32844  28.308  34.705   0.355
67618W        W32845   3.812   1.011   4.192
67619W        W32846   5.749   3.371  11.601
67620W        W32847  21.073  20.782   3.138
67621W        W32848  34.345  27.729   2.716
67622W        W32849   4.139  31.666  11.233
67623W        W32850   6.295  10.244   4.580
67624W        W32851  30.482   6.511   2.193
67625W        W32852  30.595  28.370   0.842
67626W        W32853  28.754  32.597  11.397
67627W        W32854  24.527  32.852  14.929
67628W        W32855  38.872   1.911   3.130
67629W        W32856   9.425  37.487   4.217
67630W        W32857  29.981  40.456   5.020
67631W        W32858  41.007  15.242  12.067
67632W        W32859  35.759  44.891   2.860
67633W        W32860  11.192   3.712   2.242
67634W        W32861  41.420  29.189   3.018
67635W        W32862   0.308  17.225  14.359
67636W        W32863   9.629   4.293  13.898
67637W        W32864  23.124  19.876   1.655
67638W        W32865   4.843   6.269  10.825
67639W        W32866  12.825  34.164   1.350
67640W        W32867  40.524  26.002  11.031
67641W        W32868  37.605   9.393  13.821
67642W        W32869  35.124  41.508   4.720
67643W        W32870   8.940  24.136  13.142
67644W        W32871  42.472  24.754  14.859
67645W        W32872   6.460   0.580   2.311
67646W        W32873  43.081  10.607   2.744
67647W        W32874  15.792  39.613   4.861
67648W        W32875  29.730  44.639  13.535
67649W        W32876  13.516  26.075  11.728
67650W        W32877  11.656  38.744  11.096
67651W        W32878  17.217   8.706  13.398
67652W        W32879  20.050   5.742   0.459
67653W        W32880   5.801  10.282   1.013
67654W        W32881   4.852  32.682  12.767
67655W        W32882  23.295  25.531   2.283
67656W        W32883   1.941  15.692   4.406
67657W        W32884  36.008  22.491  14.881
67658W        W32885  42.317  43.955   1.486
67659W        W32886  34.586  38.303   1.216
67660W        W32887   7.148   1.390  10.611
67661W        W32888  30.914  44.444   3.631
67662W        W32889  22.514  18.017  11.318
67663W        W32890   3.355   4.521   3.230
67664W        W32891  14.538  24.588   3.249
67665W        W32892  30.065  20.265   1.412
67666W        W32893  27.579  28.136  11.065
67667W        W32894   6.698  28.914  14.804
67668W        W32895   3.702  10.301   4.160
67669W        W32896   9.207  18.323  10.281
67670W        W32897  23.520  38.827  11.500
67671W        W32898  25.495  18.233  12.428
67672W        W32899  11.007  15.211   2.093
67673W        W32900  39.086  17.600  12.354
67674W        W32901  29.643  18.175  13.894
67675W        W32902  23.233  28.675   3.112
67676W        W32903   0.822  13.613  13.037
67677W        W32904  26.554  31.888  12.397
67678W        W32905  34.592  42.309   0.010
67679W        W32906  26.051  20.362  14.942
67680W        W32907   1.027   0.485  10.631
67681W        W32908  33.327   3.021   4.067
67682W        W32909  37.265  10.333  14.049
67683W        W32910  32.483   0.957  11.132
67684W        W32911  18.399  10.868   2.108
67685W        W32912  29.846  24.039  13.915
67686W        W32913  19.665  15.786   1.015
67687W        W32914  43.275  31.882  13.557
67688W        W32915   7.475  41.916   4.212
67689W        W32916  16.570   2.692  11.252
67690W        W32917  37.954   8.878   1.941
67691W        W32918  30.292  33.567  14.223
67692W        W32919  42.259  15.221  10.702
67693W        W32920  39.328  34.874  13.362
67694W        W32921  32.958  25.196  12.423
67695W        W32922  41.843  32.986  11.403
67696W        W32923  40.472  36.785  11.180
67697W        W32924   5.007  16.515   5.041
67698W        W32925  35.736  44.999  11.106
67699W        W32926  32.537   5.560  13.820
67700W        W32927  28.407  23.784  13.314
67701W        W32928  37.478  23.572   4.076
67702W        W32929  30.746  20.190   3.107
67703W        W32930  30.156  27.373   1.216
67704W        W32931  35.588   3.266  14.803
67705W        W32932  40.816  14.892  10.715
67706W        W32933  39.229  14.162  11.263
67707W        W32934   8.755  41.383  11.842
67708W        W32935  22.149  16.736  14.458
67709W        W32936  13.345   4.990   1.763
67710W        W32937  19.221  38.462  12.468
67711W        W32938   8.227  18.278   0.771
67712W        W32939  33.889   7.179   4.610
67713W        W32940  26.334   6.157   2.716
67714W        W32941  39.446  25.572   3.349
67715W        W32942  13.596  22.435  12.878
67716W        W32943  16.760   5.491  11.578
67717W        W32944  24.539  16.171   3.265
67718W        W32945  19.446  23.963  11.642
67719W        W32946  24.939  38.159   1.394
67720W        W32947  36.763   8.178  14.350
67721W        W32948  28.904  12.168   0.339
67722W        W32949  17.072  23.623   0.130
67723W        W32950  12.614  41.280   2.964
67724W        W32951  14.408   1.543  11.561
67725W        W32952  39.528  43.903   0.877
67726W        W32953  29.553  26.551   3.367
67727W        W32954   2.801  33.140   4.227
67728W        W32955   7.573   2.679   1.794
67729W        W32956  29.545  29.059  14.559
67730W        W32957   7.352  19.539   4.112
67731W        W32958   1.986  31.003   1.237
67732W        W32959  11.078  39.457  14.384
67733W        W32960  12.258  22.455  14.430
67734W        W32961  34.849  30.375  14.250
67735W        W32962   6.259  11.013   1.914
67736W        W32963  36.933  32.048  12.650
67737W        W32964  13.432   2.308   0.464
67738W        W32965  33.227  32.948  12.063
67739W        W32966  41.933  36.919  13.987
67740W        W32967  30.045  15.835  14.329
67741W        W32968  44.713  28.631   4.229
67742W        W32969  41.307   2.839   3.028
67743W        W32970  19.647  32.193  12.978
67744W        W32971  20.236  33.839   3.690
67745W        W32972  32.611  20.879   3.283
67746W        W32973  36.885   5.900   3.444
67747W        W32974  17.755  32.443   0.998
67748W        W32975   5.155  34.233  13.024
67749W        W32976  26.153  41.276  14.365
67750W        W32977  22.588  12.768  11.687
67751W        W32978  41.236  10.240  10.717
67752W        W32979  37.818  31.414   4.128
67753W        W32980   3.320  41.907  10.961
67754W        W32981  11.263  11.106   3.667
67755W        W32982  38.649  31.143   0.311
67756W        W32983   2.835  37.963  10.737
67757W        W32984  24.020  34.426  14.503
67758W        W32985  29.024  13.808   2.819
67759W        W32986  25.416  31.106  12.569
67760W        W32987  34.390  40.074   0.581
67761W        W32988  12.242  27.705  13.458
67762W        W32989  30.667  33.880   3.744
67763W        W32990  38.559  39.336   1.856
67764W        W32991  14.573   9.881   0.995
67765W        W32992  41.146  30.161   1.422
67766W        W32993   6.656  18.260  13.826
67767W        W32994   2.900   8.681  10.829
67768W        W32995   7.734   8.228  13.677
67769W        W32996  16.675  21.027  13.911
67770W        W32997  20.670   4.250   4.049
67771W        W32998  20.047  12.363   0.882
67772W        W32999   7.729  27.284  10.855
67773W        W33000   9.879  13.315   1.944
67774W        W33001   1.863  10.977  12.863
67775W        W33002  18.996   8.672   2.879
67776W        W33003  38.847  28.926  10.072
67777W        W33004  14.483  10.676  13.426
67778W        W33005  41.014  24.686  13.428
67779W        W33006  37.374  21.811  12.602
67780W        W33007  39.803  20.127   3.241
67781W        W33008  10.028  16.697   1.688
67782W        W33009   2.484  16.052  14.915
67783W        W33010  28.443  11.641   1.684
67784W        W33011   8.140  30.099   3.953
67785W        W33012  34.032   2.273   4.846
67786W        W33013   5.663  43.315  13.175
67787W        W33014   7.571  36.667   5.002
67788W        W33015  20.552  40.840  12.414
67789W        W33016  31.944  25.798  10.049
67790W        W33017  16.434   6.446   4.134
67791W        W33018   9.519  27.184   4.284
67792W        W33019  24.782  19.491   1.140
67793W        W33020  42.125   7.549  14.847
67794W        W33021  10.609  14.545   3.792
67795W        W33022   6.761  24.492  12.578
67796W        W33023   7.466  41.694  11.109
67797W        W33024  40.577  24.845   3.529
67798W        W33025  21.701  26.627   4.552
67799W        W33026  22.151  19.773  11.133
67800W        W33027  42.799  39.319  11.538
67801W        W33028  11.465  12.102  14.263
67802W        W33029   1.208  20.597   1.310
67803W        W33030  28.105  11.919  10.724
67804W        W33031  35.873  29.061   1.321
67805W        W33032  35.862  38.052   1.665
67806W        W33033   9.722  22.121  10.764
67807W        W33034  41.455  15.724   2.203
67808W        W33035  33.182  40.341   2.366
67809W        W33036  26.506   0.887   3.598
67810W        W33037  22.140  24.451  10.969
67811W        W33038   1.166  37.832  13.425
67812W        W33039  32.123  33.900  12.936
67813W        W33040  22.606  21.082  11.442
67814W        W33041  18.115  17.259   4.175
67815W        W33042  40.462  39.854   2.827
67816W        W33043   5.896   3.150   1.730
67817W        W33044  33.488  18.720  14.269
67818W        W33045  19.255  39.900   0.222
67819W        W33046   3.463   0.866   3.849
67820W        W33047  25.483  30.569   1.629
67821W        W33048   0.064  39.938   1.141
67822W        W33049  22.611   5.897  12.114
67823W        W33050  13.684  11.831  14.717
67824W        W33051   8.243  32.129   0.667
67825W        W33052  19.888  33.641  13.882
67826W        W33053  11.557   1.771  10.877
67827W        W33054  16.349  26.807   3.875
67828W        W33055  34.481  36.006  14.394
67829W        W33056  20.966   7.566  12.470
67830W        W33057   6.328  26.238   4.603
67831W        W33058  14.942  12.422  12.239
67832W        W33059   7.149  35.462  12.069
67833W        W33060   3.910  40.353   2.694
67834W        W33061  42.027  38.848   1.810
67835W        W33062  38.157  12.246   1.469
67836W        W33063  15.597   1.013   3.202
67837W        W33064  19.052  31.065  13.077
67838W        W33065  36.658  11.109   0.390
67839W        W33066  30.195  21.103   4.502
67840W        W33067   4.697  27.940  12.872
67841W        W33068  22.492  12.299   4.250
67842W        W33069  19.235  39.603  13.122
67843W        W33070  15.948  21.319   3.482
67844W        W33071  13.114  12.793   3.338
67845W        W33072  31.135  22.257   3.597
67846W        W33073  12.665  36.043  10.470
67847W        W33074  31.200  35.907  13.689
67848W        W33075  40.004  11.062   1.849
67849W        W33076  39.243   3.319  12.849
67850W        W33077   0.577  19.565  12.903
67851W        W33078   7.423   7.935  12.513
67852W        W33079  13.721   2.943  13.619
67853W        W33080  40.919  33.904   2.352
67854W        W33081   8.901  29.623   4.151
67855W        W33082  31.293  12.842  10.839
67856W        W33083  44.969  11.339   2.854
67857W        W33084   0.951  26.031  13.344
67858W        W33085   7.109  29.913   3.777
67859W        W33086  14.175  17.609   2.401
67860W        W33087  10.174  30.895   2.374
67861W        W33088  29.059  27.565  14.368
67862W        W33089  10.417  35.079  13.945
67863W        W33090  19.482  23.552   4.108
67864W        W33091   4.505  42.207   4.028
67865W        W33092  13.138   9.838   3.606
67866W        W33093  34.150  16.605  13.071
67867W        W33094  38.585  23.653   4.237
67868W        W33095  30.618  22.834   2.762
67869W        W33096   2.494  40.799   1.247
67870W        W33097  41.425  29.041   4.618
67871W        W33098   8.376  22.979   0.012
67872W        W33099   4.426  26.672   2.146
67873W        W33100  29.179  42.944   2.337
67874W        W33101  16.330  18.097  10.696
67875W        W33102  22.521  26.109   3.148
67876W        W33103   2.366   1.807   3.737
67877W        W33104   0.703  17.583   1.750
67878W        W33105  16.310   3.461  12.203
67879W        W33106  12.833  24.445   2.356
67880W        W33107  38.780  32.946  11.513
67881W        W33108  10.737   3.364   3.205
67882W        W33109  28.357   6.286  13.619
67883W        W33110   8.650  23.175   4.536
67884W        W33111   9.376  27.939   1.845
67885W        W33112  34.850  14.311  13.559
67886W        W33113  30.423  13.408  12.156
67887W        W33114  39.766   6.793  14.799
67888W        W33115  22.060   4.001  13.363
67889W        W33116   5.913  10.296   4.174
67890W        W33117  15.660  44.728   2.815
67891W        W33118  14.174   5.151  13.566
67892W        W33119  44.691  36.552  14.377
67893W        W33120  37.546  37.864  13.542
67894W        W33121  22.241  44.816   1.497
67895W        W33122   1.843  18.259  12.097
67896W        W33123  38.473   6.957  14.783
67897W        W33124   2.934  17.293   2.777
67898W        W33125  43.267  42.022   0.414
67899W        W33126   4.178  44.843   3.750
67900W        W33127   1.730   0.973   2.647
67901W        W33128  15.413  32.586   1.379
67902W        W33129  22.977   2.054   0.805
67903W        W33130   9.383  25.286   2.272
67904W        W33131  16.370  33.529  10.859
67905W        W33132  26.190   3.350  11.997
67906W        W33133  18.636   8.487   0.829
67907W        W33134  32.510   7.345   3.661
67908W        W33135  34.394  21.123   4.544
67909W        W33136   5.420  24.909  11.166
67910W        W33137  24.732  42.129   9.313
67911W        W33138  37.585   2.733  14.012
67912W        W33139  19.453  11.830  14.231
67913W        W33140   6.246   3.832  14.127
67914W        W33141  17.659  16.052   1.718
67915W        W33142   6.161  12.994   2.933
67916W        W33143  12.752  38.631   0.738
67917W        W33144  30.205   6.735   3.063
67918W        W33145   8.213   2.726   3.302
67919W        W33146  39.376  16.564  11.279
67920W        W33147  31.952  19.234  13.109
67921W        W33148  20.135  16.524  14.334
67922W        W33149  10.669  14.549  10.325
67923W        W33150  23.093  32.415  10.899
67924W        W33151  34.144  21.206   4.100
67925W        W33152  22.270  34.950  11.882
67926W        W33153   8.912   6.330   0.022
67927W        W33154  37.102  18.351  14.328
67928W        W33155  16.486  31.548   2.881
67929W        W33156  17.258  36.663   1.758
67930W        W33157  21.501   3.264   0.304
67931W        W33158  44.321  26.446  12.090
67932W        W33159  38.382   4.174   1.306
67933W        W33160  31.498  39.753  10.679
67934W        W33161  38.425  35.466   1.331
67935W        W33162  16.822  41.846  11.998
67936W        W33163  22.719  27.482  13.842
67937W        W33164  37.489  23.488   1.748
67938W        W33165  36.996   9.186   1.304
67939W        W33166  18.044   3.334   4.067
67940W        W33167  42.381  25.478  11.111
67941W        W33168  29.888  38.477  11.171
67942W        W33169  39.399  33.573   4.200
67943W        W33170   6.290   3.252  10.322
67944W        W33171  10.093  18.821   4.928
67945W        W33172  40.508   1.760  13.018
67946W        W33173  26.682  25.463  12.467
67947W        W33174  18.562  17.613  11.126
67948W        W33175  21.973  18.576  14.402
67949W        W33176   0.832   4.475   0.403
67950W        W33177  27.592  25.826   0.918
67951W        W33178   5.816   2.259   4.555
67952W        W33179   2.491  24.023   1.352
67953W        W33180  17.104  32.864   0.229
67954W        W33181  23.751   1.738   2.958
67955W        W33182   7.986  24.940   2.030
67956W        W33183  11.217  35.636  13.617
67957W        W33184  16.833  38.937  13.059
67958W        W33185  10.160  28.346   4.198
67959W        W33186   8.349   0.163  11.677
67960W        W33187  14.099  29.954   1.975
67961W        W33188   3.575  17.521  14.982
67962W        W33189  35.434  39.523  10.614
67963W        W33190  43.428   9.461   4.908
67964W        W33191   4.312  38.658   2.380
67965W        W33192  18.066  14.872  11.095
67966W        W33193  11.424   1.317  11.104
67967W        W33194  19.810   8.704  14.270
67968W        W33195  27.984  34.508   1.233
67969W        W33196  15.877  17.678  11.263
67970W        W33197  20.067  18.779   3.178
67971W        W33198   5.514  31.045  14.045
67972W        W33199   9.804  22.494   0.120
67973W        W33200   7.549  39.575  11.188
67974W        W33201  13.466  24.717  10.464
67975W        W33202  42.448  44.930   0.896
67976W        W33203   9.230  11.229  10.767
67977W        W33204  13.774  40.509  11.585
67978W        W33205  43.930  16.926   3.143
67979W        W33206   1.154  14.083  11.673
67980W        W33207  28.249  34.410  10.650
67981W        W33208  28.945  26.988   2.228
67982W        W33209  35.748  30.963   4.516
67983W        W33210  14.539  33.181   5.414
67984W        W33211  16.071  22.933  14.612
67985W        W33212   1.567  23.677  11.463
67986W        W33213  24.180   4.034   3.000
67987W        W33214  34.081  12.684  10.700
67988W        W33215   5.919   1.566  13.133
67989W        W33216  35.868  43.001   3.776
67990W        W33217  34.780  17.796   3.115
67991W        W33218  22.510  23.659   4.107
67992W        W33219  27.513  15.085  14.810
67993W        W33220  44.756   0.968  12.986
67994W        W33221  42.809  40.954  13.549
67995W        W33222   6.653  16.096   0.030
67996W        W33223  29.826  32.113   0.202
67997W        W33224  19.994   1.494   3.333
67998W        W33225  24.944  13.297   4.050
67999W        W33226  13.295  17.014  13.499
68000W        W33227  36.338  24.452   2.882
68001W        W33228  29.848  38.657   2.229
68002W        W33229  43.699  16.099  13.460
68003W        W33230  25.263  38.211  11.163
68004W        W33231  24.988  32.416  10.823
68005W        W33232   9.903  36.105   3.662
68006W        W33233   9.424  44.015   2.122
68007W        W33234  31.887  41.644  10.671
68008W        W33235   5.928  15.107  12.886
68009W        W33236  10.925  44.457   0.056
68010W        W33237  33.448  38.368  14.358
68011W        W33238  29.222  19.868  11.994
68012W        W33239  44.073  33.040   1.928
68013W        W33240  28.604  24.109   3.407
68014W        W33241   4.256   8.423  12.791
68015W        W33242  14.770  23.856   0.436
68016W        W33243  28.677  38.977  12.811
68017W        W33244  44.400  29.265  14.919
68018W        W33245  11.249  39.541  13.032
68019W        W33246   9.929  40.456   3.085
68020W        W33247  15.794   5.182   4.051
68021W        W33248  16.535  36.065  11.600
68022W        W33249   2.184  31.474  13.094
68023W        W33250  19.248  31.773  14.910
68024W        W33251  41.117  17.693   1.170
68025W        W33252   3.295   7.611  10.646
68026W        W33253  10.975  38.546  13.520
68027W        W33254  32.073  38.968  13.092
68028W        W33255  24.594  34.012   4.831
68029W        W33256  38.144  20.031  12.407
68030W        W33257   7.745  13.212  12.200
68031W        W33258  21.017  38.863  10.925
68032W        W33259   6.980   9.109   1.154
68033W        W33260  21.747   5.005   3.801
68034W        W33261  30.187   5.974   4.487
68035W        W33262   4.214  14.517   0.981
68036W        W33263  37.679  25.632   3.146
68037W        W33264  39.064  44.497  12.034
68038W        W33265  28.381  37.531  14.392
68039W        W33266  17.963  24.980  13.383
68040W        W33267  17.170  21.882  10.826
68041W        W33268  10.522  18.329  13.756
68042W        W33269   4.045  40.854  14.444
68043W        W33270  10.032  24.369  11.106
68044W        W33271   2.834  41.264  12.415
68045W        W33272  20.236  36.564   1.203
68046W        W33273  10.572   0.118   1.234
68047W        W33274   9.576  35.766  12.011
68048W        W33275   1.344  34.068  11.952
68049W        W33276  27.956  11.832   2.638
68050W        W33277  19.057  42.664  11.513
68051W        W33278   2.634  32.448   3.086
68052W        W33279  43.447  22.056  11.937
68053W        W33280  14.225   5.033  13.061
68054W        W33281  38.381  30.712  11.194
68055W        W33282   7.306  35.175  14.284
68056W        W33283  43.112   2.831   3.768
68057W        W33284  27.980  43.411  10.794
68058W        W33285  24.538  32.104   2.273
68059W        W33286   6.949  25.434  14.826
68060W        W33287   8.787  34.090  13.956
68061W        W33288  12.986  35.490  11.515
68062W        W33289  33.137  14.272   3.415
68063W        W33290   6.895   0.299  14.224
68064W        W33291  43.968  39.034  14.347
68065W        W33292  30.822  13.194   0.717
68066W        W33293   2.029  18.501  13.730
68067W        W33294   3.001  16.094  13.706
68068W        W33295  33.575   2.054  13.348
68069W        W33296   0.934  33.079   0.816
68070W        W33297  18.097   7.166   0.354
68071W        W33298  44.860   2.332  12.097
68072W        W33299  19.226   1.944   2.715
68073W        W33300  42.927  21.303  11.916
68074W        W33301  40.412  21.013  11.209
68075W        W33302  40.776   4.818  14.533
68076W        W33303  21.014  40.956   2.747
68077W        W33304  25.557  10.198  12.074
68078W        W33305   6.836  22.108  12.046
68079W        W33306  16.793  38.894   0.902
68080W        W33307   3.325  39.544  10.621
68081W        W33308  20.010  24.749   1.341
68082W        W33309   0.174  10.271   3.378
68083W        W33310  14.112  13.983  13.442
68084W        W33311   7.326   6.935   0.703
68085W        W33312  19.518  44.868  11.119
68086W        W33313  16.249  42.994  14.990
68087W        W33314  21.517  18.134   2.614
68088W        W33315   4.164  14.628  12.967
68089W        W33316   3.263  44.918   2.771
68090W        W33317   8.101  27.145  14.419
68091W        W33318  31.355  34.832   4.286
68092W        W33319  10.798   0.912   2.132
68093W        W33320  28.379  42.380   3.474
68094W        W33321  13.907  43.952  12.849
68095W        W33322  11.029  10.179   2.768
68096W        W33323  29.921   3.391  11.935
68097W        W33324  19.793  13.050   2.865
68098W        W33325  18.259  39.614  11.150
68099W        W33326   3.410   1.360   2.531
68100W        W33327   6.180  39.861   2.834
68101W        W33328  42.208  34.647  13.433
68102W        W33329  15.562  22.299   4.989
68103W        W33330  39.056   7.689  12.081
68104W        W33331  37.312  31.480   1.679
68105W        W33332  25.725  31.558  12.572
68106W        W33333  41.226   4.881  12.037
68107W        W33334  22.005  15.065   4.996
68108W        W33335  16.290  19.718   5.061
68109W        W33336  16.758  10.165  11.259
68110W        W33337  31.937  14.842  14.337
68111W        W33338  35.800  15.686  14.905
68112W        W33339  27.799  25.985   1.361
68113W        W33340  31.008  16.083  12.426
68114W        W33341  31.989  20.546   2.680
68115W        W33342   2.839  14.541   0.752
68116W        W33343   7.228  21.754   2.309
68117W        W33344   8.993  13.242   2.346
68118W        W33345  42.327  44.069   2.376
68119W        W33346  15.704  28.694  12.959
68120W        W33347  28.954  14.036  13.103
68121W        W33348  36.530  19.805   1.418
68122W        W33349  11.649   5.197  13.457
68123W        W33350  12.874   0.333  12.051
68124W        W33351  24.018  43.597  12.835
68125W        W33352  33.484  38.980   2.295
68126W        W33353  12.267  17.814  13.906
68127W        W33354   9.701  13.677   0.872
68128W        W33355   3.259  11.040   1.232
68129W        W33356  21.120  18.571  14.731
68130W        W33357  22.159   2.033  14.826
68131W        W33358  31.680  24.683   4.380
68132W        W33359  32.207  23.106  12.855
68133W        W33360  22.582   5.858  14.261
68134W        W33361  24.626  18.552   2.880
68135W        W33362  33.431  24.672  14.492
68136W        W33363  44.444   5.412   1.664
68137W        W33364  36.431  17.063   1.894
68138W        W33365  40.337  25.705  10.646
68139W        W33366   0.272  28.998   3.150
68140W        W33367  36.786  44.301   4.353
68141W        W33368  40.903  31.986  13.760
68142W        W33369  19.517   5.769  13.010
68143W        W33370  35.075  43.819   4.660
68144W        W33371  22.517  24.179  11.166
68145W        W33372   6.277  19.760   2.719
68146W        W33373  23.758  18.164   0.427
68147W        W33374  20.389  10.906   0.310
68148W        W33375  37.611   1.335  14.283
68149W        W33376  27.638   2.239  10.555
68150W        W33377  15.612  28.094   4.094
68151W        W33378  15.962  14.112   4.526
68152W        W33379   5.621  39.121  11.697
68153W        W33380   3.174  44.885  14.352
68154W        W33381   2.997   6.287  14.014
68155W        W33382  30.937   8.352   3.237
68156W        W33383   6.835  30.244  12.064
68157W        W33384  22.520   6.157   4.978
68158W        W33385  22.977  34.878   0.565
68159W        W33386  25.646   6.493   3.741
68160W        W33387  15.097  43.799  11.509
68161W        W33388  39.755   8.409  13.524
68162W        W33389  37.945   2.873  14.921
68163W        W33390   3.923  35.549  12.810
68164W        W33391  16.010   7.563  10.346
68165W        W33392  26.423  37.572  13.074
68166W        W33393   3.260  38.424  12.188
68167W        W33394  28.486   4.397   3.410
68168W        W33395  27.486   8.933  13.602
68169W        W33396  23.675   0.715   2.666
68170W        W33397  23.942   3.125   2.317
68171W        W33398  25.492  19.142  12.527
68172W        W33399   4.423  44.811  13.085
68173W        W33400  14.724  43.741  13.129
68174W        W33401   3.348  42.931   1.342
68175W        W33402  41.498   1.476   0.765
68176W        W33403  35.797  37.604   1.007
68177W        W33404  18.040  42.803   0.756
68178W        W33405   2.973  37.899   3.168
68179W        W33406   1.763  13.684  13.800
68180W        W33407   5.693  25.927   0.308
68181W        W33408  35.180   0.199   0.531
68182W        W33409   1.216  44.352   3.868
68183W        W33410  26.317  28.082   4.093
68184W        W33411  36.646   1.528  13.348
68185W        W33412  29.643  38.068   3.533
68186W        W33413  20.646  11.915  11.992
68187W        W33414  39.024  43.529  13.631
68188W        W33415   8.779  19.005   0.825
68189W        W33416  33.283   3.384  11.641
68190W        W33417   9.141  19.221   1.208
68191W        W33418  29.685  15.335  11.613
68192W        W33419   6.159  24.519  14.278
68193W        W33420   0.464  30.201   3.811
68194W        W33421  13.483   4.300  10.662
68195W        W33422   3.907  27.753  14.894
68196W        W33423  17.874  17.600   2.262
68197W        W33424  24.121  19.774  13.354
68198W        W33425  42.847  19.726  12.048
68199W        W33426  40.068  43.268   0.404
68200W        W33427  36.475  27.463   1.933
68201W        W33428  44.791  14.225   2.259
68202W        W33429  43.954  35.523   1.744
68203W        W33430  34.140  23.390   2.609
68204W        W33431  15.207  13.708   4.893
68205W        W33432  37.323  24.479   3.571
68206W        W33433  36.264  32.803   4.562
68207W        W33434   7.425  38.566  11.405
68208W        W33435  21.084  29.599   2.491
68209W        W33436  38.534  20.817  13.583
68210W        W33437  43.808  32.861   2.697
68211W        W33438  25.610  43.784  11.956
68212W        W33439  34.904   4.874  12.476
68213W        W33440  44.912  23.724  14.352
68214W        W33441  41.393  29.589   4.707
68215W        W33442  19.255  17.746   2.700
68216W        W33443  18.993  17.737   1.801
68217W        W33444  28.229   1.138   3.604
68218W        W33445  35.046  23.536   4.223
68219W        W33446  42.311  41.865  13.372
68220W        W33447  44.474  26.548  11.254
68221W        W33448  40.007  41.517   2.873
68222W        W33449  28.936  33.067   0.302
68223W        W33450  21.247  21.632   3.916
68224W        W33451  37.674  36.043   4.870
68225W        W33452  41.419   5.359  13.327
68226W        W33453  13.717  11.363  13.575
68227W        W33454  37.479   4.218   3.610
68228W        W33455  24.453  18.204  13.428
68229W        W33456  22.735   4.016   1.444
68230W        W33457  17.707  19.355  13.730
68231W        W33458  43.339  44.646  10.590
68232W        W33459  19.488   7.902   2.582
68233W        W33460  10.739   4.935  13.348
68234W        W33461  40.566   0.218   0.748
68235W        W33462  43.822  37.107   0.402
68236W        W33463   9.426   8.192   0.763
68237W        W33464  16.252  14.057  11.921
68238W        W33465  36.434  30.273  12.455
68239W        W33466  27.950  35.216   4.693
68240W        W33467  19.070  39.440   1.704
68241W        W33468  23.958  13.306   2.306
68242W        W33469  32.122  33.457   2.163
68243W        W33470   9.278  18.127   3.865
68244W        W33471  38.120  19.964  14.686
68245W        W33472  29.594  10.576  10.731
68246W        W33473  26.775  36.449  12.030
68247W        W33474  28.993  11.109   1.243
68248W        W33475  20.604  34.819   0.932
68249W        W33476  44.004  28.714   0.366
68250W        W33477   6.585  38.634  11.150
68251W        W33478  40.510  42.069   4.161
68252W        W33479  32.525  18.131   2.654
68253W        W33480   8.325  40.443   2.259
68254W        W33481  11.240   7.077   1.722
68255W        W33482  16.674  29.367  12.448
68256W        W33483  37.371  11.297  11.617
68257W        W33484   7.219  15.716   0.525
68258W        W33485  22.748   8.236   1.687
68259W        W33486  14.310  32.638   3.140
68260W        W33487  12.795  25.739  12.484
68261W        W33488  11.245  44.793   4.020
68262W        W33489   7.212  29.896   1.763
68263W        W33490   0.950  30.932   0.304
68264W        W33491  43.214  20.214   2.360
68265W        W33492  34.854  13.170   1.744
68266W        W33493  39.322   7.776   9.889
68267W        W33494  40.527  38.879   4.372
68268W        W33495  36.644  32.598   0.303
68269W        W33496   0.955  24.617   4.969
68270W        W33497  42.897  43.417  13.912
68271W        W33498  35.458  32.440   2.675
68272W        W33499  35.264  34.858   1.454
68273W        W33500  13.673  33.801  13.403
68274W        W33501  40.439  24.846  11.177
68275W        W33502  30.712   1.818  13.330
68276W        W33503  20.599   1.493   4.869
68277W        W33504  31.668  12.260  10.991
68278W        W33505   6.649   5.209  11.944
68279W        W33506  21.023  29.017   3.182
68280W        W33507  36.550   7.609   0.410
68281W        W33508  20.612  15.653   4.588
68282W        W33509  37.054  24.751  11.685
68283W        W33510  10.080  33.075   2.785
68284W        W33511  28.452  19.675   3.383
68285W        W33512  43.881   3.494   4.667
68286W        W33513  11.612  32.675   0.871
68287W        W33514  43.425  11.490   4.069
68288W        W33515  30.649  33.799   2.297
68289W        W33516  22.632  42.495   0.505
68290W        W33517  17.378  33.345  12.566
68291W        W33518   4.858  25.684   0.834
68292W        W33519  16.824  26.536  13.955
68293W        W33520  27.741  42.788  13.446
68294W        W33521  19.503  34.057   3.025
68295W        W33522  12.873  38.637   2.213
68296W        W33523  11.944  35.827  12.126
68297W        W33524  34.470  44.440  14.408
68298W        W33525   6.693  29.696   2.632
68299W        W33526   6.129  12.347  12.152
68300W        W33527  27.228  35.883   3.748
68301W        W33528  30.358   2.391  13.334
68302W        W33529  13.278  41.914   3.639
68303W        W33530  10.973  39.495   0.626
68304W        W33531  33.504   8.293  14.007
68305W        W33532   4.656  43.793  13.956
68306W        W33533  30.074   6.694  12.953
68307W        W33534  12.102  43.008   2.938
68308W        W33535  21.224  28.652   4.153
68309W        W33536   2.799  41.383   4.141
68310W        W33537  18.611  42.466  14.907
68311W        W33538  20.641  28.875  10.639
68312W        W33539  10.369  25.925   4.162
68313W        W33540  28.178  40.689  13.381
68314W        W33541   7.026   6.575  13.468
68315W        W33542  11.925  11.717   0.802
68316W        W33543   6.980   8.806   4.181
68317W        W33544  21.575  29.642  12.957
68318W        W33545  19.679  26.335   2.214
68319W        W33546  44.151  17.692   9.833
68320W        W33547   2.678  41.794  14.862
68321W        W33548  17.080  24.884   3.190
68322W        W33549   8.744  18.090   1.803
68323W        W33550  21.316   1.894  14.417
68324W        W33551   9.260  30.209   1.380
68325W        W33552  31.376  26.662   2.257
68326W        W33553  19.520  32.296  12.045
68327W        W33554   6.786  12.351  12.989
68328W        W33555  30.210   6.198  14.189
68329W        W33556  16.432  32.101  11.555
68330W        W33557  15.638  18.681   3.901
68331W        W33558  31.329  31.123   2.624
68332W        W33559  11.806  11.146  12.594
68333W        W33560  26.080   2.300  12.117
68334W        W33561  12.462   6.868  11.665
68335W        W33562  31.994  41.937  13.936
68336W        W33563  37.960   7.418  14.971
68337W        W33564   8.194  36.336  12.024
68338W        W33565   5.214  20.082  14.889
68339W        W33566  23.840   9.912  11.600
68340W        W33567  17.377   3.145   4.570
68341W        W33568  24.422   6.754  14.931
68342W        W33569  23.673  22.209  10.368
68343W        W33570  10.141  10.304  14.002
68344W        W33571   2.240  18.667  10.308
68345W        W33572  39.359  30.628   4.978
68346W        W33573  35.142  14.024  12.986
68347W        W33574   3.921  12.862  14.838
68348W        W33575  20.385   0.111   9.915
68349W        W33576  16.096  41.856  12.632
68350W        W33577  35.399  36.633  10.669
68351W        W33578  20.475  31.050   4.351
68352W        W33579  12.455  36.603  12.583
68353W        W33580  11.871  43.751  11.052
68354W        W33581   5.098  33.395   3.100
68355W        W33582  43.989   5.304  11.650
68356W        W33583  13.439  18.555  13.148
68357W        W33584  17.096  10.166  12.469
68358W        W33585  25.154  39.890   1.806
68359W        W33586  15.273   8.219  13.338
68360W        W33587  36.644  33.219   0.916
68361W        W33588  37.590  38.545   0.861
68362W        W33589  43.840  20.154   1.658
68363W        W33590  29.389  38.975  11.734
68364W        W33591  20.711  15.771   2.334
68365W        W33592  37.487  21.139  12.568
68366W        W33593  19.288   0.980  12.005
68367W        W33594   6.763  32.693   2.241
68368W        W33595   9.976  31.306  11.891
68369W        W33596  13.889  43.101  13.435
68370W        W33597   6.420  19.843  14.292
68371W        W33598  43.605  14.669   1.184
68372W        W33599  33.799  38.427   3.385
68373W        W33600  11.457   1.027   2.960
68374W        W33601  21.879  10.250   1.288
68375W        W33602  26.033  21.083   1.308
68376W        W33603   1.583  20.808   2.227
68377W        W33604  38.448  29.170   2.240
68378W        W33605  20.624  31.886   2.366
68379W        W33606  44.332  39.802   4.798
68380W        W33607   8.617   3.641  13.128
68381W        W33608   4.619  38.885  10.648
68382W        W33609  21.591  33.327   1.971
68383W        W33610   2.300  28.400   2.852
68384W        W33611   7.241  21.625  12.636
68385W        W33612  24.404  34.068  14.505
68386W        W33613   1.691  28.352  14.915
68387W        W33614   5.325  18.179  12.971
68388W        W33615  19.771  15.646   2.347
68389W        W33616  29.212  36.367   1.427
68390W        W33617  41.423  29.042  12.997
68391W        W33618  34.636  30.917   2.833
68392W        W33619  30.273  28.993  12.433
68393W        W33620  28.562   5.986  13.019
68394W        W33621   3.631  40.982  13.384
68395W        W33622  17.259  33.714   2.846
68396W        W33623  44.544  42.050  11.430
68397W        W33624   0.886  24.223   0.930
68398W        W33625  14.786  16.555  11.576
68399W        W33626  28.519  13.236  12.628
68400W        W33627  25.191  19.375   2.425
68401W        W33628  10.721  19.638  13.589
68402W        W33629  32.595  23.237   2.693
68403W        W33630  15.388  32.161  11.458
68404W        W33631  39.767   8.588  12.035
68405W        W33632  39.049  25.621  12.157
68406W        W33633  19.379  38.453  13.499
68407W        W33634   4.934   2.619  13.801
68408W        W33635  17.526   2.507  13.781
68409W        W33636   6.393   7.872   3.818
68410W        W33637  28.922  22.159   1.356
68411W        W33638  26.590  17.247  12.971
68412W        W33639   2.419  12.308   4.611
68413W        W33640   8.244  15.842  10.977
68414W        W33641   3.420  20.881   4.933
68415W        W33642  39.885  42.199  12.693
68416W        W33643  17.764  33.697   2.661
68417W        W33644  30.837  30.648   1.436
68418W        W33645  36.054  12.883  13.153
68419W        W33646  22.993  29.026   3.889
68420W        W33647   5.556   8.985  13.327
68421W        W33648   4.582   5.640   0.499
68422W        W33649   8.364  11.129   3.773
68423W        W33650  14.823   7.426   2.862
68424W        W33651  23.681   8.590   1.866
68425W        W33652  37.986  23.624  11.853
68426W        W33653  44.735  10.400  12.038
68427W        W33654  39.954   3.078  10.623
68428W        W33655  20.567  20.951  14.323
68429W        W33656  39.600  17.189   0.486
68430W        W33657   1.059  29.314  13.272
68431W        W33658   5.301   7.891   0.398
68432W        W33659  40.412  33.368  14.331
68433W        W33660   8.722   8.162  14.083
68434W        W33661  14.201   4.848  14.770
68435W        W33662  34.565  15.067   1.965
68436W        W33663   5.853   5.391   3.351
68437W        W33664  16.349  32.637  14.434
68438W        W33665  26.601  35.968  14.395
68439W        W33666   7.880  19.633   4.571
68440W        W33667  23.258   8.447  11.201
68441W        W33668   1.611  23.002  13.837
68442W        W33669  35.628   1.043   2.867
68443W        W33670  28.136  22.795   3.526
68444W        W33671  15.328   1.965   0.445
68445W        W33672  17.224  13.832   3.145
68446W        W33673  13.371   2.379   2.794
68447W        W33674  12.811  41.449  14.964
68448W        W33675  21.042   3.948   1.022
68449W        W33676   0.221  13.225   0.929
68450W        W33677   8.318  34.576  11.351
68451W        W33678   2.202  15.397   1.667
68452W        W33679  32.813  17.211   0.364
68453W        W33680  27.474  40.895   4.919
68454W        W33681  44.314   9.172   2.813
68455W        W33682  22.102  24.783  12.651
68456W        W33683   2.959  21.715  10.920
68457W        W33684  33.597   7.240  14.449
68458W        W33685  37.451  25.758   0.504
68459W        W33686  27.163  14.609   3.220
68460W        W33687  36.698  23.478   3.019
68461W        W33688  37.306  14.674   3.704
68462W        W33689  37.817  36.302   0.867
68463W        W33690  35.566  16.267  13.269
68464W        W33691  12.881   9.709   0.293
68465W        W33692   5.541  41.301   2.781
68466W        W33693   5.480  23.069  10.842
68467W        W33694  11.672  29.186  12.093
68468W        W33695  14.203   8.438  12.480
68469W        W33696   9.923  11.160  11.173
68470W        W33697   0.557  22.710  11.562
68471W        W33698  35.513   0.413  14.122
68472W        W33699  21.702   0.998  14.333
68473W        W33700  39.566   3.574  13.876
68474W        W33701  20.279  40.787   2.419
68475W        W33702   8.844  38.711   0.462
68476W        W33703  16.163  12.320   2.177
68477W        W33704   7.894  17.534   4.092
68478W        W33705  34.990  33.704   3.393
68479W        W33706   8.769  40.758  12.457
68480W        W33707  44.169  39.291  13.496
68481W        W33708  19.450   9.915  14.435
68482W        W33709  26.739  34.458   2.636
68483W        W33710  24.797   2.242   1.271
68484W        W33711  31.260  28.480   3.246
68485W        W33712  25.200  32.617   0.722
68486W        W33713   5.001  17.574   2.228
68487W        W33714  35.833  16.081   3.105
68488W        W33715  11.819  14.053   3.646
68489W        W33716  33.036  27.510  13.789
68490W        W33717  14.993  33.942  11.705
68491W        W33718  19.038  20.074  14.665
68492W        W33719  34.240  26.861   0.236
68493W        W33720  35.923  36.632  11.873
68494W        W33721  11.577  11.296   2.412
68495W        W33722   4.228  38.000  12.006
68496W        W33723  13.277  14.413  11.714
68497W        W33724  25.625  39.477  11.721
68498W        W33725  19.303  36.897   2.698
68499W        W33726  17.731  36.775  14.282
68500W        W33727  40.253  19.590  11.931
68501W        W33728   1.276  26.375   2.220
68502W        W33729  22.118   5.020  11.683
68503W        W33730  36.612  15.329   2.296
68504W        W33731  11.723  14.212  12.406
68505W        W33732  10.266  30.897   3.258
68506W        W33733  32.554  26.496   2.796
68507W        W33734  43.356   7.852   4.661
68508W        W33735  39.956  33.009   1.275
68509W        W33736   3.856  14.088   4.756
68510W        W33737  37.939  33.595   4.184
68511W        W33738  20.726  43.922  12.338
68512W        W33739   8.611  32.947   1.200
68513W        W33740  10.797   6.166  14.830
68514W        W33741  19.207  38.964  12.222
68515W        W33742  35.584  30.694  11.582
68516W        W33743  27.773  32.855  11.630
68517W        W33744  42.374  13.147   3.185
68518W        W33745   1.699  18.182  14.939
68519W        W33746   8.270  19.698   2.402
68520W        W33747  16.804  18.245   4.156
68521W        W33748  33.098  27.876  13.388
68522W        W33749  26.217  39.750  11.495
68523W        W33750  12.827   4.435   4.248
68524W        W33751  20.561  36.890   2.629
68525W        W33752  22.103  28.964  12.569
68526W        W33753   2.381  42.486   9.644
68527W        W33754  33.964  40.377  14.860
68528W        W33755   1.118   8.281   3.323
68529W        W33756  32.338  38.384  12.043
68530W        W33757  31.392  37.334   3.636
68531W        W33758   1.999  44.392  14.243
68532W        W33759   3.895  17.125  10.982
68533W        W33760  12.210  39.560  12.896
68534W        W33761  37.894  42.007   1.933
68535W        W33762  15.565  20.971   2.758
68536W        W33763  35.481  17.637  13.957
68537W        W33764   9.112  27.127   0.071
68538W        W33765  31.441  31.136  11.746
68539W        W33766   8.444  39.838   1.707
68540W        W33767   2.498  13.292   4.458
68541W        W33768  18.664   3.139   0.383
68542W        W33769  19.299  22.339  13.605
68543W        W33770  20.563  30.509  13.845
68544W        W33771  24.449   1.971  12.432
68545W        W33772  36.405  29.527  11.371
68546W        W33773  41.018  32.594   1.323
68547W        W33774   4.439  24.627  11.029
68548W        W33775  26.973  18.982  11.790
68549W        W33776   6.017  23.033   2.971
68550W        W33777  36.405  32.544   3.069
68551W        W33778  42.559   9.218   4.099
68552W        W33779  16.044  20.472   3.172
68553W        W33780  42.039  24.296  10.299
68554W        W33781  32.163  39.805  14.402
68555W        W33782  21.170  31.555  13.761
68556W        W33783  37.953  23.597  13.291
68557W        W33784  29.382  15.211   4.258
68558W        W33785  40.100   9.828   4.594
68559W        W33786  39.155   4.659   2.521
68560W        W33787   9.171  27.162  10.535
68561W        W33788  38.941  28.550  10.437
68562W        W33789  40.428  13.822  10.754
68563W        W33790  12.286  10.876  14.455
68564W        W33791  37.943  31.657   0.261
68565W        W33792  16.187   2.409   0.474
68566W        W33793  11.699  26.033   2.344
68567W        W33794  40.051  23.614   2.679
68568W        W33795  18.913  15.057   1.210
68569W        W33796  26.483  11.886  11.126
68570W        W33797   3.700  22.038  13.461
68571W        W33798  27.704   8.296   0.892
68572W        W33799   7.676  22.695   3.280
68573W        W33800   7.170  36.150   4.974
68574W        W33801  14.847  22.174  14.078
68575W        W33802   6.372   5.255   2.664
68576W        W33803  14.298  38.279   2.185
68577W        W33804  36.808   3.557  14.010
68578W        W33805  41.561   2.863   1.208
68579W        W33806  39.396  41.000  13.105
68580W        W33807  23.388  41.449  14.725
68581W        W33808  42.812  34.617   3.538
68582W        W33809  28.391  14.244   3.265
68583W        W33810  38.723  41.122   4.955
68584W        W33811  33.893  31.668   1.274
68585W        W33812  18.792  41.718  10.816
68586W        W33813  18.153  16.768   3.274
68587W        W33814  26.046  30.191  12.474
68588W        W33815  24.157  27.439  13.006
68589W        W33816  35.439  40.853   4.649
68590W        W33817  17.459  14.033   3.701
68591W        W33818  37.528  20.247  10.698
68592W        W33819  23.071  26.684  13.526
68593W        W33820   5.231   0.457   2.626
68594W        W33821  33.412  18.631  12.910
68595W        W33822   0.445  27.338   3.175
68596W        W33823  31.535  25.127   3.234
68597W        W33824  29.981  36.933   1.092
68598W        W33825  34.591  34.179   2.508
68599W        W33826   2.356  12.747  12.521
68600W        W33827  13.670  15.681  10.642
68601W        W33828   0.019  44.468   3.852
68602W        W33829  18.345  38.398  10.728
68603W        W33830  16.129  16.389  11.415
68604W        W33831  16.440  30.218  14.380
68605W        W33832  11.649   5.905  12.902
68606W        W33833  37.043  42.851  11.583
68607W        W33834  26.956  42.415   2.025
68608W        W33835  27.987  25.739   4.248
68609W        W33836  44.850  40.825  14.342
68610W        W33837  41.300  19.823  13.415
68611W        W33838  38.939   8.151   0.881
68612W        W33839  22.628   8.077  10.590
68613W        W33840  42.486  17.777  13.287
68614W        W33841  37.956  14.310   4.650
68615W        W33842  37.415  10.842   2.281
68616W        W33843  19.033  34.700  12.031
68617W        W33844   9.233   4.752  13.176
68618W        W33845  22.021  40.236  13.063
68619W        W33846  32.433  12.416  14.777
68620W        W33847  11.415   1.339   0.391
68621W        W33848   5.798  14.765   0.372
68622W        W33849  29.003  27.211  13.429
68623W        W33850  38.083  29.577   3.838
68624W        W33851  44.804  22.068   2.187
68625W        W33852  27.457  17.512   0.359
68626W        W33853   6.772  39.412  12.555
68627W        W33854   9.711  36.764   4.247
68628W        W33855  38.815  18.598   0.455
68629W        W33856  27.416  31.793  10.336
68630W        W33857   2.830  21.106   2.252
68631W        W33858  43.476  11.947  10.163
68632W        W33859  23.588   3.301  14.167
68633W        W33860  41.097  29.870   0.992
68634W        W33861  31.131  41.196   1.106
68635W        W33862   8.145  21.972  14.020
68636W        W33863  43.387  15.866  11.277
68637W        W33864   9.528  29.606  14.464
68638W        W33865  10.980  29.484  10.323
68639W        W33866   6.493   1.539  14.362
68640W        W33867  39.325  10.133   2.579
68641W        W33868  38.398  35.117   3.296
68642W        W33869  23.272  14.664   4.013
68643W        W33870  42.337  43.379  14.854
68644W        W33871  14.833  34.650   0.317
68645W        W33872  22.168  15.048  11.585
68646W        W33873  14.328  25.657   3.146
68647W        W33874  30.441  28.152   2.690
68648W        W33875  31.237  11.841  13.700
68649W        W33876  36.094  15.402   0.301
68650W        W33877  15.374   6.643  12.014
68651W        W33878  33.040  10.437   0.319
68652W        W33879  31.574  29.835  14.332
68653W        W33880  22.547  35.524   4.727
68654W        W33881  16.278  39.459  14.411
68655W        W33882   4.031  11.913   2.894
68656W        W33883  12.014   0.622  10.928
68657W        W33884  20.724  36.818   1.716
68658W        W33885  23.992  33.619  12.945
68659W        W33886  25.733  40.607  14.930
68660W        W33887  30.058  30.503   4.538
68661W        W33888  24.508  27.123  12.832
68662W        W33889  34.006  19.496  14.856
68663W        W33890   0.737  39.070  14.203
68664W        W33891  30.436   0.698   5.004
68665W        W33892   5.351  21.520  13.085
68666W        W33893  32.329  39.783  13.845
68667W        W33894  28.659  44.263   4.712
68668W        W33895   5.598  34.272  11.371
68669W        W33896  13.585  40.058  12.207
68670W        W33897  30.295  14.374   2.181
68671W        W33898   7.386   9.403  12.375
68672W        W33899  21.050  35.498  11.118
68673W        W33900  42.451  26.228  11.265
68674W        W33901   2.800  15.797  14.077
68675W        W33902  36.255  30.221  10.713
68676W        W33903  39.450  11.919   2.949
68677W        W33904   1.198  16.179   1.063
68678W        W33905   1.813  41.225  12.081
68679W        W33906   8.667  41.033  14.173
68680W        W33907  16.058  38.113  14.830
68681W        W33908  40.521  19.181   9.874
68682W        W33909   9.774   8.272  10.662
68683W        W33910  43.754  30.070  13.439
68684W        W33911  26.193  19.097   1.392
68685W        W33912  24.272   5.640   4.509
68686W        W33913  38.752  26.353   9.905
68687W        W33914  20.406  44.008  11.964
68688W        W33915  18.159  25.039  14.522
68689W        W33916  12.003  30.209  13.163
68690W        W33917  38.374  42.812  12.588
68691W        W33918  10.157  26.950  10.730
68692W        W33919  43.203  27.985  12.350
68693W        W33920  40.038  32.612  11.918
68694W        W33921  35.970  22.257   1.717
68695W        W33922  11.572   7.104  11.019
68696W        W33923   8.426   6.907   0.277
68697W        W33924   2.914  31.582  13.619
68698W        W33925   3.444  22.683  10.977
68699W        W33926  39.099  30.458  11.976
68700W        W33927  31.639   2.580  12.896
68701W        W33928  28.720  35.072   1.938
68702W        W33929  20.303  34.573  10.431
68703W        W33930  20.249  32.548   3.994
68704W        W33931  43.448  26.975   4.462
68705W        W33932  15.212  36.579   0.536
68706W        W33933  25.010   5.027   0.467
68707W        W33934  32.251   6.119   2.830
68708W        W33935  32.128  33.023  12.928
68709W        W33936  26.322  21.593  12.833
68710W        W33937   2.865  25.635   0.073
68711W        W33938   6.329  12.850  12.038
68712W        W33939  38.215  13.780   4.070
68713W        W33940   0.572  27.222  13.821
68714W        W33941  42.358  23.570   2.817
68715W        W33942   6.037  24.947   4.845
68716W        W33943  42.965  39.390   2.747
68717W        W33944  37.597   1.222   2.071
68718W        W33945  26.323  41.705   4.227
68719W        W33946  41.483   7.351   1.865
68720W        W33947  44.442  25.677  13.036
68721W        W33948  14.254  27.554   0.523
68722W        W33949  34.207  29.768  14.006
68723W        W33950   7.707  15.526  12.498
68724W        W33951  26.016  38.194   3.224
68725W        W33952  25.208  23.003  12.996
68726W        W33953  35.629   9.098  12.631
68727W        W33954  13.060  17.500  11.660
68728W        W33955  32.875  35.905   1.476
68729W        W33956  42.296  42.279   2.251
68730W        W33957  40.906  36.379   0.102
68731W        W33958  23.959  11.996  14.336
68732W        W33959   2.839   0.136  12.952
68733W        W33960  15.830   2.190   1.208
68734W        W33961  14.777  37.519   0.527
68735W        W33962  26.100  22.586  14.694
68736W        W33963  10.123  38.445   3.294
68737W        W33964  38.554  12.341  12.466
68738W        W33965  34.500   4.777   2.721
68739W        W33966  21.707  33.814  12.375
68740W        W33967   7.825  11.386   1.903
68741W        W33968  18.117  44.528   0.943
68742W        W33969  21.907  20.710   3.503
68743W        W33970  36.297  36.088  11.603
68744W        W33971  33.278  35.463   3.351
68745W        W33972  42.310  31.448   1.862
68746W        W33973  39.484  18.705   3.231
68747W        W33974   3.912  28.266  13.417
68748W        W33975   1.581  23.166  10.218
68749W        W33976  43.976  18.390  14.977
68750W        W33977  17.156  38.941   3.000
68751W        W33978   1.961  15.324   0.317
68752W        W33979  22.652  24.930  11.560
68753W        W33980  35.332  27.809   4.691
68754W        W33981   3.967  23.401  13.097
68755W        W33982  10.163  40.101  12.956
68756W        W33983  33.681   5.341   1.348
68757W        W33984  20.532  27.243   3.492
68758W        W33985   5.325   5.938   2.858
68759W        W33986   6.026  38.895  14.390
68760W        W33987  38.485  38.971   1.468
68761W        W33988  39.068  38.510  10.549
68762W        W33989  12.908   7.174  13.570
68763W        W33990  38.627   6.146   1.082
68764W        W33991  21.116  10.654  14.871
68765W        W33992  44.015  41.044   3.678
68766W        W33993  21.465  25.525  13.860
68767W        W33994  17.695  21.883  12.773
68768W        W33995  43.775  41.855   4.226
68769W        W33996   1.650  44.905  10.666
68770W        W33997  10.777  35.666   1.771
68771W        W33998  32.095  30.450  12.011
68772W        W33999   3.568  26.500  14.115
68773W        W34000  39.884  30.436   0.310
68774W        W34001  30.619  24.798  12.498
68775W        W34002  26.254  12.193  12.730
68776W        W34003  39.597  33.412  14.970
68777W        W34004  27.267   8.831  11.918
68778W        W34005  35.626  30.440   4.564
68779W        W34006  36.094  13.744  12.577
68780W        W34007   0.735  16.816  12.544
68781W        W34008  41.459  37.157  14.083
68782W        W34009  13.063  26.090  12.802
68783W        W34010  31.484  26.986  14.358
68784W        W34011  27.524  40.349   4.599
68785W        W34012   3.890  25.166   3.029
68786W        W34013  18.357  25.792   3.552
68787W        W34014  21.678   7.812   0.777
68788W        W34015  13.014  17.964  14.545
68789W        W34016  29.682  38.758  13.084
68790W        W34017  20.941  24.751   4.460
68791W        W34018   4.313  41.741  11.588
68792W        W34019  25.009  11.136   1.489
68793W        W34020   1.607   9.684   3.615
68794W        W34021  37.909   2.743  11.598
68795W        W34022  44.718  34.581   4.592
68796W        W34023  19.722  39.929  14.995
68797W        W34024   4.239   5.598  13.185
68798W        W34025  44.887  30.051  12.948
68799W        W34026  18.238  28.088   1.919
68800W        W34027  27.033  23.493  14.809
68801W        W34028   5.670  10.303  13.900
68802W        W34029   6.628  22.066   1.902
68803W        W34030  34.465  20.263  13.851
68804W        W34031  11.272  42.869   2.634
68805W        W34032   8.292  26.621  10.612
68806W        W34033  22.503  20.728   1.685
68807W        W34034   1.444  30.050  13.749
68808W        W34035   6.029  40.452   4.111
68809W        W34036  19.988  42.866  11.423
68810W        W34037  15.262  10.898   3.650
68811W        W34038  14.852  39.127  11.387
68812W        W34039   8.642  39.278  13.004
68813W        W34040  37.585  20.653  14.401
68814W        W34041  18.708  15.672  10.966
68815W        W34042  17.454   7.965  13.903
68816W        W34043  28.893  20.283   1.178
68817W        W34044  36.291  36.404   2.872
68818W        W34045  11.819   5.313  13.950
68819W        W34046  12.855  39.430   0.436
68820W        W34047  15.875  27.164  10.320
68821W        W34048  18.317  29.928   0.002
68822W        W34049  38.105   8.728   0.336
68823W        W34050  17.001  18.641  10.828
68824W        W34051  29.905  44.072  13.543
68825W        W34052  27.442  16.849  14.779
68826W        W34053  43.049  24.342  10.734
68827W        W34054   1.912  38.648  10.659
68828W        W34055  24.223  17.795   4.659
68829W        W34056  39.063  36.891   2.367
68830W        W34057  29.030  36.559  13.400
68831W        W34058   1.094  40.720  13.235
68832W        W34059  14.166  43.444   1.240
68833W        W34060  28.382  16.401  10.107
68834W        W34061   9.066  23.101   2.218
68835W        W34062  28.059  40.377   1.305
68836W        W34063   3.629  34.418   2.856
68837W        W34064  32.345  26.163   0.347
68838W        W34065  33.105   3.802  11.380
68839W        W34066  12.312   4.859  12.628
68840W        W34067  12.844  25.602  14.487
68841W        W34068  33.364   1.880   2.632
68842W        W34069  23.311  30.072   0.432
68843W        W34070  12.559  12.044   0.434
68844W        W34071  33.979  36.813   3.081
68845W        W34072   4.362   2.201  11.591
68846W        W34073   5.485  13.209  11.598
68847W        W34074  18.305  30.181   0.454
68848W        W34075  31.437  25.057   0.297
68849W        W34076   1.589   6.750  12.430
68850W        W34077  26.497  16.627  11.491
68851W        W34078  33.707  29.888  13.867
68852W        W34079  21.219  27.517   3.712
68853W        W34080   2.936  33.886   0.342
68854W        W34081   9.532  26.837   4.660
68855W        W34082  33.613   4.731  13.014
68856W        W34083  12.736  15.360   2.421
68857W        W34084  15.546  36.493   0.109
68858W        W34085  11.680   5.391   1.398
68859W        W34086  41.801  12.659   1.244
68860W        W34087   3.082  44.669   3.203
68861W        W34088  18.989  17.622  13.793
68862W        W34089  34.130  10.023  12.865
68863W        W34090  11.827   0.176  12.349
68864W        W34091  39.853  29.732   1.109
68865W        W34092  19.332  23.720  14.058
68866W        W34093  36.292   1.438   2.356
68867W        W34094  18.699  32.498  12.471
68868W        W34095  36.303  17.565   0.824
68869W        W34096  14.156   4.461   4.485
68870W        W34097   2.683  27.989   0.060
68871W        W34098  28.059  23.579   0.214
68872W        W34099  43.978  32.202  14.087
68873W        W34100  22.143  12.583  12.977
68874W        W34101  10.828  43.355   3.659
68875W        W34102  22.664  32.615   4.116
68876W        W34103  31.108  25.242   5.431
68877W        W34104  40.884  34.393  12.126
68878W        W34105   4.713  10.761   3.365
68879W        W34106   5.660  17.254   1.239
68880W        W34107  21.933  17.651  12.422
68881W        W34108  29.639  12.773   1.399
68882W        W34109  15.558  38.485   4.637
68883W        W34110  43.978   4.496  14.065
68884W        W34111   4.369  35.645  13.030
68885W        W34112  32.298   4.071  14.018
68886W        W34113   6.963   0.268   0.663
68887W        W34114  33.417  41.359  13.966
68888W        W34115   3.760  25.997   3.784
68889W        W34116  19.789  17.700   1.404
68890W        W34117  29.909  10.734   2.809
68891W        W34118  13.254   8.261   2.727
68892W        W34119  40.262  37.482  12.790
68893W        W34120  17.116   7.205   1.681
68894W        W34121  16.038   2.751  13.069
68895W        W34122  19.120  31.976  12.078
68896W        W34123  19.576   0.680  13.001
68897W        W34124  29.369  43.337   3.662
68898W        W34125  12.899   2.647   4.547
68899W        W34126  42.870  31.583  13.742
68900W        W34127   5.288   4.307  14.458
68901W        W34128  40.764  23.528   1.383
68902W        W34129  18.225  27.173  11.208
68903W        W34130   7.449   2.886   2.369
68904W        W34131  25.665  24.961  13.103
68905W        W34132   2.389   6.327  10.442
68906W        W34133  36.353  14.712  14.824
68907W        W34134  22.641   1.982  14.576
68908W        W34135  10.624  39.134  12.384
68909W        W34136  29.952  15.962  12.310
68910W        W34137  25.482  26.792  14.648
68911W        W34138  16.645   9.361   4.351
68912W        W34139   6.645   4.239  12.099
68913W        W34140  34.101  44.425  10.778
68914W        W34141  41.371  24.921   2.284
68915W        W34142  16.667  21.305   0.350
68916W        W34143   0.711  12.244   0.970
68917W        W34144  39.533   1.954   1.227
68918W        W34145  36.017  44.491  10.856
68919W        W34146  41.239  25.366   3.142
68920W        W34147  35.066  13.027   1.220
68921W        W34148  40.992  35.456   1.832
68922W        W34149   9.229  12.977  11.885
68923W        W34150   0.503  16.918  14.707
68924W        W34151  41.992  29.445  13.542
68925W        W34152   9.972  18.222  14.880
68926W        W34153  26.182  31.081   0.603
68927W        W34154   2.790  34.835   3.865
68928W        W34155   4.990  21.397  11.024
68929W        W34156  27.603  26.502  11.519
68930W        W34157  39.296  22.996   2.293
68931W        W34158  38.610  38.355   2.282
68932W        W34159   5.396   8.663  12.839
68933W        W34160  18.519  42.647  11.696
68934W        W34161   1.298  24.043   2.621
68935W        W34162  30.553  11.059   5.384
68936W        W34163  11.551  20.207  13.877
68937W        W34164  16.561  43.764  14.934
68938W        W34165  14.072   1.400  14.448
68939W        W34166  44.089  34.634  14.538
68940W        W34167  41.962  39.290  13.011
68941W        W34168   3.998  37.109   2.825
68942W        W34169  15.658   9.302   2.865
68943W        W34170  14.256  34.865   4.129
68944W        W34171  42.911  30.004  12.615
68945W        W34172  17.341  35.062  12.515
68946W        W34173   8.989  41.582  13.155
68947W        W34174   0.711  44.366   3.992
68948W        W34175  38.234  26.694   4.919
68949W        W34176  23.212  18.690   2.262
68950W        W34177  28.838   6.791   1.070
68951W        W34178  21.846   9.799   1.734
68952W        W34179  21.147   3.988   4.520
68953W        W34180   1.667  27.419  12.073
68954W        W34181  41.049  27.247  11.082
68955W        W34182  17.597  26.014   2.602
68956W        W34183  16.361   8.406  11.734
68957W        W34184  11.378   8.616   1.829
68958W        W34185  29.887  26.638  13.272
68959W        W34186  40.183  28.517  12.433
68960W        W34187  21.586  36.139  13.993
68961W        W34188  18.893   3.211   3.826
68962W        W34189   0.081  27.153  13.892
68963W        W34190  25.320  26.637  13.338
68964W        W34191  19.813  41.130   5.170
68965W        W34192   5.814  18.762  13.068
68966W        W34193   3.895  15.782  12.536
68967W        W34194  22.198  35.436  13.117
68968W        W34195  34.441  27.884   3.628
68969W        W34196   4.279  33.882   4.745
68970W        W34197  39.290  40.380   3.075
68971W        W34198  32.421  23.588   3.486
68972W        W34199   8.353   4.205   4.342
68973W        W34200  14.255  32.173  13.495
68974W        W34201  37.776  23.607  12.816
68975W        W34202  21.510  42.260   3.168
68976W        W34203  26.529  19.496   4.120
68977W        W34204  30.228  26.137   1.479
68978W        W34205  11.809  13.621  14.431
68979W        W34206  29.078  19.309  13.539
68980W        W34207  41.835  37.430  14.452
68981W        W34208  18.718   0.814  13.399
68982W        W34209  24.470  20.717   0.771
68983W        W34210  23.294  22.786  13.563
68984W        W34211  36.509   9.401  14.445
68985W        W34212   9.709  14.731   0.768
68986W        W34213  23.591  26.577   2.634
68987W        W34214  26.063  19.959  14.518
68988W        W34215  15.727  43.818   4.708
68989W        W34216   6.974  32.595   3.414
68990W        W34217  41.022   8.671   1.874
68991W        W34218  26.590  44.008   2.927
68992W        W34219  44.576  19.225  13.098
68993W        W34220  41.589  41.745   3.166
68994W        W34221  22.401  22.451  11.143
68995W        W34222  11.225  17.002  14.403
68996W        W34223  29.661  38.651   1.661
68997W        W34224  15.134  34.859   0.712
68998W        W34225  17.444   6.388   3.247
68999W        W34226  10.240  23.138   3.886
69000W        W34227  44.725   1.823   2.833
69001W        W34228  16.343  18.269  11.964
69002W        W34229  39.372  13.855   1.243
69003W        W34230  21.707  24.895  11.578
69004W        W34231  20.119  16.301  13.823
69005W        W34232  24.183  14.230  11.473
69006W        W34233  29.103  24.253  11.617
69007W        W34234  31.876  29.006  11.513
69008W        W34235   1.721  25.977  10.776
69009W        W34236  32.624   3.944   0.241
69010W        W34237  31.483  24.941  12.882
69011W        W34238  29.065   0.358   0.449
69012W        W34239  11.867   1.787   1.940
69013W        W34240  28.381  40.990  13.799
69014W        W34241  34.055  25.073  13.801
69015W        W34242   4.358  44.763  14.078
69016W        W34243   7.761  10.566  10.658
69017W        W34244  32.844   9.271   4.631
69018W        W34245  32.221  10.297  13.897
69019W        W34246  41.152  42.557   4.004
69020W        W34247   4.936  40.599  12.916
69021W        W34248   9.170   1.245   2.213
69022W        W34249   4.871  14.071   2.851
69023W        W34250  28.481  10.037   0.774
69024W        W34251  43.582  29.090   1.267
69025W        W34252  10.616  32.081   1.277
69026W        W34253  37.840  12.614  11.247
69027W        W34254  28.102  34.617  14.891
69028W        W34255   6.825  32.549  10.606
69029W        W34256   6.146   1.233   1.748
69030W        W34257  39.176   7.176   2.799
69031W        W34258  39.174  33.572   1.389
69032W        W34259  44.454   8.754  14.790
69033W        W34260  10.298   6.400   3.074
69034W        W34261  25.956  27.205   0.783
69035W        W34262  36.574  12.604   1.866
69036W        W34263  23.908   0.555   3.568
69037W        W34264   8.723  43.963   2.000
69038W        W34265  21.712  37.140  12.007
69039W        W34266  15.697  10.896  11.563
69040W        W34267  40.458  15.912  12.055
69041W        W34268  24.126   5.266   1.777
69042W        W34269  22.624  22.278  13.264
69043W        W34270  34.786  16.377  14.278
69044W        W34271   9.149  43.492  11.188
69045W        W34272  23.538  20.786   1.527
69046W        W34273   7.465   9.311   0.372
69047W        W34274  22.840  24.663  12.052
69048W        W34275  35.140  32.802  14.918
69049W        W34276  28.524  38.476  12.899
69050W        W34277  21.084   7.725  11.021
69051W        W34278  37.580  16.713   3.540
69052W        W34279  26.100   3.231   3.461
69053W        W34280  44.388   7.604   2.580
69054W        W34281   5.418  33.649  14.786
69055W        W34282  42.734  43.202  14.404
69056W        W34283  12.061  36.006   0.776
69057W        W34284  32.329  23.409  14.526
69058W        W34285  16.481  41.594  12.898
69059W        W34286  39.024  30.192  13.563
69060W        W34287  22.035  42.962  10.421
69061W        W34288  19.028   7.988   1.819
69062W        W34289  16.176   7.322  14.262
69063W        W34290  22.122  35.337  13.960
69064W        W34291  21.347  36.202   3.613
69065W        W34292  43.082  19.229  12.901
69066W        W34293  29.001  38.070  13.534
69067W        W34294  32.426  44.885   2.703
69068W        W34295  27.626  25.283   3.704
69069W        W34296  31.918  35.789   0.774
69070W        W34297  16.162  21.159  13.977
69071W        W34298  29.673  38.584  10.661
69072W        W34299  10.075  27.884   2.901
69073W        W34300  31.905  27.646  12.188
69074W        W34301  37.493  15.406   3.242
69075W        W34302   6.937  40.012   4.128
69076W        W34303  12.632   9.197  13.029
69077W        W34304  39.030   8.892  10.736
69078W        W34305  22.285   1.353  14.078
69079W        W34306  39.084   4.916   3.505
69080W        W34307  10.862  42.797   0.829
69081W        W34308  32.193   9.223  13.441
69082W        W34309  28.102  35.383   1.297
69083W        W34310  17.314  42.666   1.315
69084W        W34311  27.134  27.091  12.807
69085W        W34312   9.968  42.338   4.562
69086W        W34313  37.213  15.281  14.964
69087W        W34314  20.537  36.674  12.130
69088W        W34315  27.533  24.655   4.714
69089W        W34316  41.866  38.649  12.272
69090W        W34317  23.398  36.786  10.514
69091W        W34318  16.621  15.364   4.010
69092W        W34319  16.138  26.679   0.069
69093W        W34320  10.275  11.957  12.021
69094W        W34321  21.227   7.882   3.636
69095W        W34322  24.668  29.774  11.199
69096W        W34323  11.339  22.265   2.065
69097W        W34324  25.206  34.526   2.691
69098W        W34325   5.682  28.025   3.205
69099W        W34326  28.562   8.354  10.631
69100W        W34327  30.940  32.345   3.167
69101W        W34328  21.026  35.128  14.609
69102W        W34329   2.376  13.833  12.008
69103W        W34330  29.478  23.866  11.531
69104W        W34331  15.544  11.124   3.183
69105W        W34332  32.292  40.304   0.446
69106W        W34333   6.646  24.117   4.758
69107W        W34334  23.015   2.176  13.293
69108W        W34335   2.726  10.851   3.852
69109W        W34336  43.769  31.139   2.319
69110W        W34337  32.766  37.129  11.864
69111W        W34338   4.338  21.181  14.259
69112W        W34339  32.965  24.234   1.840
69113W        W34340  24.645  10.643   4.025
69114W        W34341  19.756   7.105  14.072
69115W        W34342  12.961  24.153   0.518
69116W        W34343  28.205  29.620  13.521
69117W        W34344   5.462   2.253  12.597
69118W        W34345  14.969  16.507   2.708
69119W        W34346  34.983   7.317   2.103
69120W        W34347  32.691  18.305   0.747
69121W        W34348  30.873  31.223  11.895
69122W        W34349  11.662  19.294   2.365
69123W        W34350  19.308  21.880  13.880
69124W        W34351  26.583  22.218   0.842
69125W        W34352  20.353  35.733  12.994
69126W        W34353  10.731  22.148   3.374
69127W        W34354  20.349   9.103  10.964
69128W        W34355   6.426  35.875  14.769
69129W        W34356   7.660  39.762   0.774
69130W        W34357  26.512  13.866  14.048
69131W        W34358   3.775  22.629  14.438
69132W        W34359  35.612  42.838   0.390
69133W        W34360   3.943  10.383   3.719
69134W        W34361  24.009  26.629  14.823
69135W        W34362  28.525  26.500  11.553
69136W        W34363  34.153   7.807   1.208
69137W        W34364  44.233  12.624  13.412
69138W        W34365   8.705  20.685   4.060
69139W        W34366  21.674   4.748  14.783
69140W        W34367  43.241  38.529  14.463
69141W        W34368  38.060  18.862  11.180
69142W        W34369  36.741  30.659  11.585
69143W        W34370   7.177  40.436  14.792
69144W        W34371   6.180  20.577   3.424
69145W        W34372  34.190  20.614  14.471
69146W        W34373  33.679  34.415   1.931
69147W        W34374  26.396  11.983   0.835
69148W        W34375   2.365   8.501   5.053
69149W        W34376  41.667   8.689  14.562
69150W        W34377  30.884  21.033  11.640
69151W        W34378  26.722  42.602  10.552
69152W        W34379  39.302  35.674   3.103
69153W        W34380  15.128   5.926   1.196
69154W        W34381  10.408   6.872  13.491
69155W        W34382  32.680   7.813  13.130
69156W        W34383  23.515  34.902   2.660
69157W        W34384  38.031  27.977   1.768
69158W        W34385  38.406  39.292  10.550
69159W        W34386   1.301  14.461   4.384
69160W        W34387  40.756  31.073   2.384
69161W        W34388  11.597   5.945   4.101
69162W        W34389  26.623  32.056  14.244
69163W        W34390   0.865  18.042  10.647
69164W        W34391  31.666  26.802   3.019
69165W        W34392   8.971  20.458  14.435
69166W        W34393   7.256  42.012   3.757
69167W        W34394  44.755  44.520  13.169
69168W        W34395   9.875   5.398   1.170
69169W        W34396  38.986  33.310  13.971
69170W        W34397  41.456   3.268  11.691
69171W        W34398  35.419  30.545  14.895
69172W        W34399   4.884  18.637  11.943
69173W        W34400  11.193   4.957  13.575
69174W        W34401  11.171  35.637   2.810
69175W        W34402  20.676  30.663  12.365
69176W        W34403  33.741   4.780   3.174
69177W        W34404  17.777   0.653  13.838
69178W        W34405  29.930  15.844  13.792
69179W        W34406  28.182  19.433   0.387
69180W        W34407  17.998  23.155  11.057
69181W        W34408  28.500  21.023   9.905
69182W        W34409  35.076  35.431  12.911
69183W        W34410   8.891  43.542   3.252
69184W        W34411   3.854  28.453   1.973
69185W        W34412  35.008   0.416   3.674
69186W        W34413  16.091  12.653  14.412
69187W        W34414  34.240  21.825   0.368
69188W        W34415  24.665  31.548  11.192
69189W        W34416   1.578  33.034   1.819
69190W        W34417  29.262  17.275   3.616
69191W        W34418  18.580  17.766  13.002
69192W        W34419   0.403  18.046   3.685
69193W        W34420  20.834  24.355  13.458
69194W        W34421  11.162   0.249   2.757
69195W        W34422   2.016   2.298   1.711
69196W        W34423  29.085  13.698   0.891
69197W        W34424  35.280  30.690  14.016
69198W        W34425  39.850  39.806   0.420
69199W        W34426  32.807  40.922   0.138
69200W        W34427  37.989  28.108   2.268
69201W        W34428  11.671  19.990  12.569
69202W        W34429  28.953  22.543   0.035
69203W        W34430  36.655  28.496   1.330
69204W        W34431   4.880  21.121   2.280
69205W        W34432  15.237   6.375  12.428
69206W        W34433   5.602  14.031   0.663
69207W        W34434  20.311  27.028   0.348
69208W        W34435  14.872  20.621   0.308
69209W        W34436   8.333  34.825   2.452
69210W        W34437  42.304   0.867  10.762
69211W        W34438   7.957  14.111  13.093
69212W        W34439  40.784  28.234   3.774
69213W        W34440  24.538   4.539  11.858
69214W        W34441   6.166  16.800  10.866
69215W        W34442  32.092  20.938   4.088
69216W        W34443  12.690   3.645  12.579
69217W        W34444   3.939   2.277   0.233
69218W        W34445   2.717  37.465   0.787
69219W        W34446  28.675  20.605   2.370
69220W        W34447  18.093  37.321   1.808
69221W        W34448  16.091  14.961  11.169
69222W        W34449   0.581   8.286   0.895
69223W        W34450  40.439   3.364  14.194
69224W        W34451  14.428  13.438   3.233
69225W        W34452  31.354  22.697  10.702
69226W        W34453  35.957  26.703   1.948
69227W        W34454   6.449  19.145   1.029
69228W        W34455  29.069  40.613   5.264
69229W        W34456  37.590  19.208   1.770
69230W        W34457  38.521  24.872  11.670
69231W        W34458  39.121  27.742  13.185
69232W        W34459  10.869   6.459  11.087
69233W        W34460   7.443   8.431  14.090
69234W        W34461  30.949  30.196   1.963
69235W        W34462  42.388  37.911  13.192
69236W        W34463  33.628  13.162   2.128
69237W        W34464   3.267  41.545   0.948
69238W        W34465   9.346  25.293   3.878
69239W        W34466  42.500  44.254   0.295
69240W        W34467   9.861  33.026   0.318
69241W        W34468  23.912  15.351   4.309
69242W        W34469   2.060   9.608  11.094
69243W        W34470  33.085  40.706   1.152
69244W        W34471  27.278  28.861   1.778
69245W        W34472  28.425  11.574   0.773
69246W        W34473  12.113  32.522  14.913
69247W        W34474  41.934  23.116   2.252
69248W        W34475  24.930  41.778   1.802
69249W        W34476  22.013   9.663   3.582
69250W        W34477   0.440  25.286  13.890
69251W        W34478  43.754  23.952  14.970
69252W        W34479  33.451  44.537  11.918
69253W        W34480  23.557  40.476   3.190
69254W        W34481   6.740  44.285   2.501
69255W        W34482  11.842  28.251  11.232
69256W        W34483  21.288  10.474  14.396
69257W        W34484  26.734   4.266   3.218
69258W        W34485  27.531  11.180   1.645
69259W        W34486  18.349  27.665  11.645
69260W        W34487  34.686  38.973   0.361
69261W        W34488   7.246  36.067  13.733
69262W        W34489  24.706  30.909   1.812
69263W        W34490  19.518  44.247   3.465
69264W        W34491  11.953  32.333  12.473
69265W        W34492  14.789  37.807   3.691
69266W        W34493  36.785  13.799  12.809
69267W        W34494  29.757  37.362   1.840
69268W        W34495   3.937  12.636  10.670
69269W        W34496  15.607  13.335   2.863
69270W        W34497  40.926   2.495  11.924
69271W        W34498  33.544   6.483  13.953
69272W        W34499  20.378  41.782  14.825
69273W        W34500   8.495  13.094  14.832
69274W        W34501  20.038  23.353   2.891
69275W        W34502  23.350  37.263  12.382
69276W        W34503  29.672  21.762   0.402
69277W        W34504  12.367  17.722  12.112
69278W        W34505  24.367   8.110   0.786
69279W        W34506  42.981  10.805   0.413
69280W        W34507  13.262   2.281   4.629
69281W        W34508  10.756  20.402  12.550
69282W        W34509  30.308  41.183   3.995
69283W        W34510  34.489  12.831   2.343
69284W        W34511  44.381   2.438  14.330
69285W        W34512   9.678  41.485  13.467
69286W        W34513   9.601  25.716   4.019
69287W        W34514  10.823  15.351  14.684
69288W        W34515  43.490  31.842   4.080
69289W        W34516  13.734   2.157  14.021
69290W        W34517   0.915  19.674  12.497
69291W        W34518  42.534  22.610   2.742
69292W        W34519  12.255  34.869   3.657
69293W        W34520  26.710   6.132  14.006
69294W        W34521  10.749  32.905  12.238
69295W        W34522  22.064  10.587  11.243
69296W        W34523  35.127  17.031  13.869
69297W        W34524  33.172  23.626  11.133
69298W        W34525  36.610  42.459   3.681
69299W        W34526  39.260  17.310   0.068
69300W        W34527   7.303  32.353   3.067
69301W        W34528  38.872  29.160   3.246
69302W        W34529  35.655   1.373  13.007
69303W        W34530  20.590  23.654  14.371
69304W        W34531  13.175  44.034  14.022
69305W        W34532  21.054  44.529  12.633
69306W        W34533  27.609  41.488   4.100
69307W        W34534  13.646  33.602  10.758
69308W        W34535  44.882  40.801   3.744
69309W        W34536  14.445   5.221   0.487
69310W        W34537  29.439  40.496   0.390
69311W        W34538  26.575   1.899  10.684
69312W        W34539   4.421  17.978   0.548
69313W        W34540  32.475  18.299   1.653
69314W        W34541  23.809   5.784   4.701
69315W        W34542  14.196  27.968   4.191
69316W        W34543  26.396   2.233  12.523
69317W        W34544  27.338  22.486  12.463
69318W        W34545  36.353  15.920   3.186
69319W        W34546   6.883  35.562   4.465
69320W        W34547   5.963  19.351   0.940
69321W        W34548  34.322   1.481   1.377
69322W        W34549  25.129  43.472  14.562
69323W        W34550   2.736  13.221   0.741
69324W        W34551  29.219  44.712   4.194
69325W        W34552  15.577  27.392   3.883
69326W        W34553   3.425  16.802  11.008
69327W        W34554   1.199   3.240   0.188
69328W        W34555  35.669  24.628   0.852
69329W        W34556  38.820  25.055   4.959
69330W        W34557  30.350  22.574  12.801
69331W        W34558  22.938   4.878   0.720
69332W        W34559   0.746  17.321  12.461
69333W        W34560  33.231  23.180  13.011
69334W        W34561  13.655  32.841  13.698
69335W        W34562  39.480   6.946  14.368
69336W        W34563  15.215   2.372  14.565
69337W        W34564  21.926   1.656  12.286
69338W        W34565  39.527  35.104  11.779
69339W        W34566  17.294  10.125  14.415
69340W        W34567  17.645   0.879  10.977
69341W        W34568   4.210  41.599   2.904
69342W        W34569  39.835   0.755  12.610
69343W        W34570  12.835  22.237  11.538
69344W        W34571   7.030  29.031   3.414
69345W        W34572  41.860  31.848   2.665
69346W        W34573  32.181  26.676   0.340
69347W        W34574  43.079  42.614  14.338
69348W        W34575  40.283  30.835   3.244
69349W        W34576  34.936  27.173  13.916
69350W        W34577  27.172   8.782   3.005
69351W        W34578   7.219   7.691   0.466
69352W        W34579  15.902  14.720   4.057
69353W        W34580  15.024  15.917  14.735
69354W        W34581  30.201   3.957  14.549
69355W        W34582  12.130  26.914   4.048
69356W        W34583  24.107  14.331   1.214
69357W        W34584  11.107  33.046  14.042
69358W        W34585  31.842  30.881  11.488
69359W        W34586  18.261  44.811   0.031
69360W        W34587  32.134  17.929   1.679
69361W        W34588  38.384   7.423   0.696
69362W        W34589  44.373   8.547  11.163
69363W        W34590  26.940  24.543   2.437
69364W        W34591  36.278  27.579  14.449
69365W        W34592   0.635   5.910  12.961
69366W        W34593  27.559  35.588   2.940
69367W        W34594  39.789   9.138   1.609
69368W        W34595  37.802   1.198  11.088
69369W        W34596  40.097  31.604  12.909
69370W        W34597  39.502  36.470   0.346
69371W        W34598  26.134  42.862   2.883
69372W        W34599  39.888  11.243   2.310
69373W        W34600   2.297  35.378  11.602
69374W        W34601  21.205  44.568   3.096
69375W        W34602   8.702   4.536   0.417
69376W        W34603  35.320  30.389  14.421
69377W        W34604  12.554  23.550   1.209
69378W        W34605  34.525   4.597   0.643
69379W        W34606  29.450   4.637  12.370
69380W        W34607  43.351  29.171   0.783
69381W        W34608  28.725  32.369   0.930
69382W        W34609  33.318  31.669   1.478
69383W        W34610  23.589   7.905   3.830
69384W        W34611  15.097  35.782   0.980
69385W        W34612  27.101  37.781   1.709
69386W        W34613  17.017  36.915  11.603
69387W        W34614   3.259  19.251   0.769
69388W        W34615  28.081  13.629  12.713
69389W        W34616  21.725  10.599   2.046
69390W        W34617  34.995  33.526   0.542
69391W        W34618  36.394  10.680  11.682
69392W        W34619  25.705   4.161   2.308
69393W        W34620  43.975  10.730  11.640
69394W        W34621  23.000  26.539   0.710
69395W        W34622  13.315  25.095  13.521
69396W        W34623  40.501   3.652   1.670
69397W        W34624  18.193  13.724   3.214
69398W        W34625  40.341   9.986   5.036
69399W        W34626  13.930  23.825   4.721
69400W        W34627  30.802   5.108  14.454
69401W        W34628  21.499  21.678   4.612
69402W        W34629   8.501  25.946   2.352
69403W        W34630  24.015  12.276   2.717
69404W        W34631  17.116  34.521  14.929
69405W        W34632  16.659  43.783   3.823
69406W        W34633  28.602  11.749   0.316
69407W        W34634  37.175  28.682  12.858
69408W        W34635  31.070  25.155  12.166
69409W        W34636  10.614  29.756  14.189
69410W        W34637   4.684  22.700  13.919
69411W        W34638  28.479  16.702   0.879
69412W        W34639  18.594  27.135  14.843
69413W        W34640   3.453   4.793   3.657
69414W        W34641  44.360  15.313  14.861
69415W        W34642  30.013  12.775  14.212
69416W        W34643  35.362   0.685   1.910
69417W        W34644  34.529   0.883  13.565
69418W        W34645  28.120  18.152   3.222
69419W        W34646  12.301  29.272  13.418
69420W        W34647  31.153   8.305  11.942
69421W        W34648  40.655   6.879   1.298
69422W        W34649   8.392  33.466  13.063
69423W        W34650  16.232  37.852   3.317
69424W        W34651  11.124  37.363   0.290
69425W        W34652  18.139   1.313  14.471
69426W        W34653  27.723  30.028  14.327
69427W        W34654  29.996  32.837   1.699
69428W        W34655   9.442  19.598   3.617
69429W        W34656  43.333  18.223  14.067
69430W        W34657  22.559  11.207  11.447
69431W        W34658  38.115  38.888  11.888
69432W        W34659  38.497  13.140   2.615
69433W        W34660  43.201  43.397  14.320
69434W        W34661  31.902  39.980   3.543
69435W        W34662  37.237   5.596  10.307
69436W        W34663  16.618  25.567  14.917
69437W        W34664  24.254   2.236   0.266
69438W        W34665  44.948  39.892   4.258
69439W        W34666   6.708  30.902   3.551
69440W        W34667   5.446  33.321  12.964
69441W        W34668   2.372   1.546  14.988
69442W        W34669   6.323   1.779   3.059
69443W        W34670   5.260  20.970  12.295
69444W        W34671   8.925  41.034   0.014
69445W        W34672  44.829  38.367  13.410
69446W        W34673  16.453   2.655   2.239
69447W        W34674  32.934  16.201   2.130
69448W        W34675  37.675  33.441  14.512
69449W        W34676  10.814  19.515  12.121
69450W        W34677  28.710  21.000  13.504
69451W        W34678  24.444  19.071  13.193
69452W        W34679  27.445  24.974   4.065
69453W        W34680  17.013  34.456  13.134
69454W        W34681  40.422  44.834   2.077
69455W        W34682  28.458  10.817  10.714
69456W        W34683  23.156  24.611   0.648
69457W        W34684   5.742  15.729   0.615
69458W        W34685   5.607  21.829  11.804
69459W        W34686   6.340   6.756   4.521
69460W        W34687  36.464   2.369  13.181
69461W        W34688  21.117  11.421   3.495
69462W        W34689  36.472  22.561   0.737
69463W        W34690  10.511  40.455  11.643
69464W        W34691  16.381  12.409   2.640
69465W        W34692  24.243  40.711   4.550
69466W        W34693  20.152  30.289   5.012
69467W        W34694  11.448   6.111   2.373
69468W        W34695   2.705  11.068   2.409
69469W        W34696  35.858  30.484  12.906
69470W        W34697  11.277   8.893   0.301
69471W        W34698   5.220  40.447   1.823
69472W        W34699   2.943  31.060  12.873
69473W        W34700  23.987   2.297  12.173
69474W        W34701  10.910  14.693  13.481
69475W        W34702  30.456  43.326   0.094
69476W        W34703  29.235  34.927   1.320
69477W        W34704  30.525  18.319  12.786
69478W        W34705   2.720   2.226  13.121
69479W        W34706  25.783  44.832   1.251
69480W        W34707   1.164  10.107  13.883
69481W        W34708  38.297   0.202   3.017
69482W        W34709  39.062  11.384   3.654
69483W        W34710  18.046   2.092   1.680
69484W        W34711  33.357  32.399  14.780
69485W        W34712  19.965  26.993  12.392
69486W        W34713   5.851   4.760  13.954
69487W        W34714  24.953  26.622   1.367
69488W        W34715  39.506  39.435  10.627
69489W        W34716  31.880  37.358   0.392
69490W        W34717  24.550  33.962  13.599
69491W        W34718  34.602  29.607   3.324
69492W        W34719  32.135  26.806   1.717
69493W        W34720   4.769  43.546  14.715
69494W        W34721  13.594   8.499  14.381
69495W        W34722  11.586  36.987   2.878
69496W        W34723  40.005  37.136  12.455
69497W        W34724   2.187  35.307   1.794
69498W        W34725   6.142  38.807   4.570
69499W        W34726  25.055  25.990  13.841
69500W        W34727  38.281  29.039  12.848
69501W        W34728  14.149  14.617   1.844
69502W        W34729  21.532  27.667   0.542
69503W        W34730  36.688  14.847  11.987
69504W        W34731  30.123  35.566   1.006
69505W        W34732  25.165  33.478  12.918
69506W        W34733   7.205  27.835   4.982
69507W        W34734  32.375  40.551  13.574
69508W        W34735  18.093  44.311   4.576
69509W        W34736   3.816  20.106  10.735
69510W        W34737  39.853  10.433   1.228
69511W        W34738   0.616  18.165   4.148
69512W        W34739   5.607  11.849  13.520
69513W        W34740  13.408   0.171  11.958
69514W        W34741  39.231  25.274  12.577
69515W        W34742  13.788  43.371  13.897
69516W        W34743  19.793  42.810  14.523
69517W        W34744  14.370  37.962  13.538
69518W        W34745  44.096   6.678  14.347
69519W        W34746   5.379   5.476  12.064
69520W        W34747   6.550  27.510   3.387
69521W        W34748  26.197  26.909   0.393
69522W        W34749  15.355  37.245  11.584
69523W        W34750   0.180  26.306  13.088
69524W        W34751  25.923  21.712   0.707
69525W        W34752   9.025  26.707   3.179
69526W        W34753   1.444  37.800  11.991
69527W        W34754  27.281  36.562   5.055
69528W        W34755  41.888  11.247   1.925
69529W        W34756  19.681   7.629   3.106
69530W        W34757   1.855  30.411   4.556
69531W        W34758  32.150  35.741  11.684
69532W        W34759  35.758  44.786   1.678
69533W        W34760  40.333  24.033   4.092
69534W        W34761   2.364  42.410   5.497
69535W        W34762  14.641  31.599   1.635
69536W        W34763  43.519  36.358   1.939
69537W        W34764  42.497  40.883   2.018
69538W        W34765  26.602   8.153  11.985
69539W        W34766  18.216  22.774  13.839
69540W        W34767  43.943  37.851  12.893
69541W        W34768  24.644   8.094  12.929
69542W        W34769  27.747  24.766  11.184
69543W        W34770  31.669   1.871   0.871
69544W        W34771  17.087  36.464  14.765
69545W        W34772   6.905   6.467   2.831
69546W        W34773   7.837  44.856  13.954
69547W        W34774  30.147  14.865   4.862
69548W        W34775  11.958  41.068  14.771
69549W        W34776  12.333   3.932   0.835
69550W        W34777  25.128   0.052  13.124
69551W        W34778  35.520  13.121  10.649
69552W        W34779  27.695  25.476  10.673
69553W        W34780   0.414  10.974   2.703
69554W        W34781  24.534  23.206  14.923
69555W        W34782  14.479   3.585  14.954
69556W        W34783  11.899  17.231  14.879
69557W        W34784  44.731  18.845  12.541
69558W        W34785  14.563  27.983  13.854
69559W        W34786   7.202  29.686  12.895
69560W        W34787  14.577  44.844   2.096
69561W        W34788  22.072  39.830   0.793
69562W        W34789  33.572  16.558   4.418
69563W        W34790   9.161   6.705  14.763
69564W        W34791  39.877  16.261  10.628
69565W        W34792  43.778  13.780   0.193
69566W        W34793  39.730   3.903  13.462
69567W        W34794   7.841  31.366   0.830
69568W        W34795   4.034  12.642   0.803
69569W        W34796  11.781  13.175  14.113
69570W        W34797   6.138   9.745   2.783
69571W        W34798  27.042  27.113  11.129
69572W        W34799   4.288  23.380  11.403
69573W        W34800   8.468   4.896  14.335
69574W        W34801  24.204  43.365   0.380
69575W        W34802  30.637  12.828   3.072
69576W        W34803  37.549   2.032   2.384
69577W        W34804  33.524   2.289  10.734
69578W        W34805  16.213  10.725  13.905
69579W        W34806  22.891  37.362   2.841
69580W        W34807   3.734  22.761  12.648
69581W        W34808  26.687  11.320  12.418
69582W        W34809  14.732   7.473  14.939
69583W        W34810  27.321  42.830   4.250
69584W        W34811  27.530  31.583  14.787
69585W        W34812  41.887  22.059   3.067
69586W        W34813  21.955  14.406  13.638
69587W        W34814  28.055   5.111  10.585
69588W        W34815  12.166  35.845  13.571
69589W        W34816  42.643   4.657  12.508
69590W        W34817   9.201  26.253  14.910
69591W        W34818  22.776  29.523   4.652
69592W        W34819  40.925   8.989  11.484
69593W        W34820  40.060  44.754  14.124
69594W        W34821  23.287  22.337   3.222
69595W        W34822   6.336  31.143   3.817
69596W        W34823  17.096  31.522  11.284
69597W        W34824   7.186  28.986  14.677
69598W        W34825   9.804   5.814   2.692
69599W        W34826  30.031  32.416   3.346
69600W        W34827  19.041   3.720   4.102
69601W        W34828  37.570  24.726   1.070
69602W        W34829   3.219  38.122  13.490
69603W        W34830  29.219  19.315   2.815
69604W        W34831  21.779  14.832  13.937
69605W        W34832   2.827  39.306   2.719
69606W        W34833  27.208  30.120  11.102
69607W        W34834  20.814  42.884  11.188
69608W        W34835  29.179  25.247  12.898
69609W        W34836  40.547  12.878  11.590
69610W        W34837  35.837  14.474  11.356
69611W        W34838   5.720  25.574   2.854
69612W        W34839  10.594   6.006  11.913
69613W        W34840  26.100  19.316   0.929
69614W        W34841  28.102  30.697  14.640
69615W        W34842   0.047  29.248  12.308
69616W        W34843  10.148  11.707  14.426
69617W        W34844  29.593   6.198   2.476
69618W        W34845  28.454   3.216  12.794
69619W        W34846  20.557  39.356  11.247
69620W        W34847   8.297  40.814   1.737
69621W        W34848  30.469  30.497  12.438
69622W        W34849  16.764  39.447   1.287
69623W        W34850  18.753  29.443  13.093
69624W        W34851  39.064  10.246  14.869
69625W        W34852   3.782  17.763   0.396
69626W        W34853  11.225  17.073  10.827
69627W        W34854  17.921  35.982   2.802
69628W        W34855   3.273  19.806   0.763
69629W        W34856  31.948  26.877   0.793
69630W        W34857  12.924  24.497   1.372
69631W        W34858  24.687   0.398  14.372
69632W        W34859  22.716  26.420   3.583
69633W        W34860  34.441  17.171   4.227
69634W        W34861  35.909  39.291  10.639
69635W        W34862   1.402  37.419  13.884
69636W        W34863  26.013   6.256   4.612
69637W        W34864  23.988  23.435  10.343
69638W        W34865   9.925  30.366  12.511
69639W        W34866  32.351   7.679  13.507
69640W        W34867  16.683   2.106   0.147
69641W        W34868   1.495  12.182   4.507
69642W        W34869  17.029   6.235   2.394
69643W        W34870  32.510   3.446   3.422
69644W        W34871  14.278   6.407   1.342
69645W        W34872  15.006  33.072  11.499
69646W        W34873  27.020  39.708  13.523
69647W        W34874   4.808  21.343  14.782
69648W        W34875  43.918   2.836   2.768
69649W        W34876  35.974  43.835  11.663
69650W        W34877  23.202  35.494  14.707
69651W        W34878  30.846  41.460   5.107
69652W        W34879  19.236   7.660  12.563
69653W        W34880   1.766  41.210  12.940
69654W        W34881  21.643  10.707   0.975
69655W        W34882  24.591  17.678  12.514
69656W        W34883  10.292  36.242   2.911
69657W        W34884  13.169  10.116  11.566
69658W        W34885  39.379   3.408   1.299
69659W        W34886  32.874  13.117   3.668
69660W        W34887   7.883   0.765  10.712
69661W        W34888  19.043  32.403  13.777
69662W        W34889  32.462  43.298   2.295
69663W        W34890  20.125  27.222   2.402
69664W        W34891  29.923  25.456  12.079
69665W        W34892  23.853  35.925  12.189
69666W        W34893   0.966  29.629   5.420
69667W        W34894  29.219  10.113   4.126
69668W        W34895   3.242  29.067  12.458
69669W        W34896   8.239   9.616   3.356
69670W        W34897  25.534   9.338   1.246
69671W        W34898  31.595  35.127  13.072
69672W        W34899  33.917  12.595   1.302
69673W        W34900  41.549   9.247   1.861
69674W        W34901  29.043  27.038   2.722
69675W        W34902  10.983  18.803  14.455
69676W        W34903   9.166  22.651   2.011
69677W        W34904  24.642   3.242  14.396
69678W        W34905  32.772   4.675   4.049
69679W        W34906  36.417  29.907   1.864
69680W        W34907  42.753  37.032   3.394
69681W        W34908  10.600  32.422  14.868
69682W        W34909  44.015  12.805  11.658
69683W        W34910  15.412  19.293  12.046
69684W        W34911  26.255  11.672   0.376
69685W        W34912  34.089  38.992   4.653
69686W        W34913  36.975  24.435  12.862
69687W        W34914  18.853  10.457  10.739
69688W        W34915  15.718  10.824   1.328
69689W        W34916  35.191  30.287  10.848
69690W        W34917  41.819   4.001   2.359
69691W        W34918  17.879  22.606   2.637
69692W        W34919  27.965  29.418  13.124
69693W        W34920  43.201   3.006  11.108
69694W        W34921   6.632  18.226   0.257
69695W        W34922  20.023  19.803   2.222
69696W        W34923  33.776  27.413  13.394
69697W        W34924   8.732   1.448   3.330
69698W        W34925  43.415  40.998  11.110
69699W        W34926  14.730  18.077   4.550
69700W        W34927   2.474   4.781   1.538
69701W        W34928  41.452   6.354  13.365
69702W        W34929  21.317  44.458   1.206
69703W        W34930   2.048  22.023   4.672
69704W        W34931  17.183   6.986  12.880
69705W        W34932  25.141   8.383   4.920
69706W        W34933  36.875  11.609   0.373
69707W        W34934  37.544  21.610   0.760
69708W        W34935  28.076  43.812  13.448
69709W        W34936  23.043  22.651  13.088
69710W        W34937  14.836  38.368   0.419
69711W        W34938  21.919  38.385   1.777
69712W        W34939  12.708  36.250   2.281
69713W        W34940  14.448  33.720   3.320
69714W        W34941  37.983   6.866   0.976
69715W        W34942   6.879  38.036   0.948
69716W        W34943   1.054  14.177  10.372
69717W        W34944  13.840  25.152  11.668
69718W        W34945  12.561  25.039  11.285
69719W        W34946  44.649  37.618  10.369
69720W        W34947   1.689  21.767   1.305
69721W        W34948  41.662  41.459   3.606
69722W        W34949   2.802  17.467  12.114
69723W        W34950  34.401  23.644   2.985
69724W        W34951   1.728  19.700   0.024
69725W        W34952  16.548   5.406   3.270
69726W        W34953  25.423   3.239  12.244
69727W        W34954  28.911  22.636  10.559
69728W        W34955  43.159  40.571   3.487
69729W        W34956   6.239   5.263  12.249
69730W        W34957  35.751   4.466   4.900
69731W        W34958  10.181  31.389   2.093
69732W        W34959  39.720  36.652  11.557
69733W        W34960  31.994  30.960   5.093
69734W        W34961  12.623  26.504   1.229
69735W        W34962   6.328  35.286  12.152
69736W        W34963  15.016  18.301  12.552
69737W        W34964  11.143  35.782   2.251
69738W        W34965  29.678   0.291   4.745
69739W        W34966  24.746  30.132   1.812
69740W        W34967   1.486  12.595  11.560
69741W        W34968   4.822  17.866  13.865
69742W        W34969  23.942  26.723  10.720
69743W        W34970  24.510  16.479   2.249
69744W        W34971  16.893  30.119  13.604
69745W        W34972  24.446  40.808  10.757
69746W        W34973  27.169   6.899  12.545
69747W        W34974  11.865  17.551   1.666
69748W        W34975  27.293  10.811  11.940
69749W        W34976  38.625  11.681  14.066
69750W        W34977  31.703  11.649   2.780
69751W        W34978  21.453  18.683  12.794
69752W        W34979  19.977  44.268  12.008
69753W        W34980   9.086   5.126   2.821
69754W        W34981  23.909  37.877   1.378
69755W        W34982  29.636  37.941  12.463
69756W        W34983  18.021   1.859   4.917
69757W        W34984   2.988   2.766  11.550
69758W        W34985   5.846  11.163   2.771
69759W        W34986  32.884   2.859  12.860
69760W        W34987   6.754  31.413  11.073
69761W        W34988  11.220  26.666   4.637
69762W        W34989   4.809   0.274   3.201
69763W        W34990  26.677  12.622   2.352
69764W        W34991  42.741  30.204   0.530
69765W        W34992   6.232  20.012   3.162
69766W        W34993  16.775  29.465   4.896
69767W        W34994  26.124  44.219   3.050
69768W        W34995  42.410  39.201  13.803
69769W        W34996  12.375   9.609  10.829
69770W        W34997  30.380  39.242   1.540
69771W        W34998  15.216   5.762   0.198
69772W        W34999   2.974  32.550   0.759
69773W        W35000  24.795  13.743   2.401
69774W        W35001  14.787  35.865  14.827
69775W        W35002   8.695  42.662  12.897
69776W        W35003  29.102  21.273  10.516
69777W        W35004  18.638  10.079   2.791
69778W        W35005   5.611  38.480  11.301
69779W        W35006  10.049  15.456  12.531
69780W        W35007  40.157  15.754   1.884
69781W        W35008  13.592   6.406  14.431
69782W        W35009  15.298  23.743  12.530
69783W        W35010  27.976   0.323  13.332
69784W        W35011  34.106  19.166   0.892
69785W        W35012   8.015  10.656  11.394
69786W        W35013   3.441  35.401  14.252
69787W        W35014   9.635  19.642   4.091
69788W        W35015  28.808  17.353  12.459
69789W        W35016   9.593  42.888   0.525
69790W        W35017  16.344   7.351  13.361
69791W        W35018   7.627  16.781  11.925
69792W        W35019  21.306  35.104  10.803
69793W        W35020  16.022  37.577   4.188
69794W        W35021  12.561  13.940   3.169
69795W        W35022  18.550  41.449  11.207
69796W        W35023  29.541   7.008   0.447
69797W        W35024  24.159   4.962   2.233
69798W        W35025  32.647  35.616  12.593
69799W        W35026  36.117   5.328   9.629
69800W        W35027  33.018   8.568   3.124
69801W        W35028  19.146  10.579  13.952
69802W        W35029  41.550  24.607  10.942
69803W        W35030   0.508  25.831  13.160
69804W        W35031  22.089  25.470   4.372
69805W        W35032  44.371  26.155   2.812
69806W        W35033  32.901   1.007   4.386
69807W        W35034  17.797   7.323  13.147
69808W        W35035  39.324  36.882  12.356
69809W        W35036   7.995  24.625   3.433
69810W        W35037   8.948  24.063   2.350
69811W        W35038  41.429  15.148   0.762
69812W        W35039  40.448  34.347   0.723
69813W        W35040  31.573   4.075  10.552
69814W        W35041  34.477   3.401   0.481
69815W        W35042   0.378  34.276  11.875
69816W        W35043  38.828  27.377  11.182
69817W        W35044  32.414  18.779   0.271
69818W        W35045  35.113   4.318  13.726
69819W        W35046  27.468  43.119  10.896
69820W        W35047  31.473  38.493   4.917
69821W        W35048   8.362  31.173  11.766
69822W        W35049  11.757  26.179   1.250
69823W        W35050   3.299   0.827  14.258
69824W        W35051  10.132   8.530   4.142
69825W        W35052  40.590  10.181   0.837
69826W        W35053  43.023   3.098   4.227
69827W        W35054  20.243  23.124  11.973
69828W        W35055  44.548  28.973  10.717
69829W        W35056  29.142  44.337   2.890
69830W        W35057  17.288  43.953   0.785
69831W        W35058  44.927  23.371   4.041
69832W        W35059  12.661  12.967   3.536
69833W        W35060  22.895  23.312  11.144
69834W        W35061   1.273   0.198   1.481
69835W        W35062  19.278  32.669   1.998
69836W        W35063   1.551   1.692   3.198
69837W        W35064  36.392  23.698  11.028
69838W        W35065  19.206  16.303  11.172
69839W        W35066  34.853   1.632   1.811
69840W        W35067  36.396  39.478   3.938
69841W        W35068  21.773  13.070  13.946
69842W        W35069   6.597   8.107   2.660
69843W        W35070   4.351  28.584  14.434
69844W        W35071  36.479  34.438  10.964
69845W        W35072  44.477  22.190  14.268
69846W        W35073  41.872   6.218  14.479
69847W        W35074  25.715  19.947  10.387
69848W        W35075  15.637  43.606   2.374
69849W        W35076  37.711   3.358   4.097
69850W        W35077  23.836   3.596   2.114
69851W        W35078  26.214  16.759   1.464
69852W        W35079   3.164  14.578  13.050
69853W        W35080   1.694   3.298  11.603
69854W        W35081  19.142  41.874   1.068
69855W        W35082  30.389  23.749  11.444
69856W        W35083  26.125   7.836   4.317
69857W        W35084  11.655  28.735  11.204
69858W        W35085  42.893  41.647   0.441
69859W        W35086  25.370  33.550   4.983
69860W        W35087  38.295  38.723  13.968
69861W        W35088  22.263   1.456   1.698
69862W        W35089  21.442  37.934  10.544
69863W        W35090  30.606   9.735  13.890
69864W        W35091  39.405  32.969  11.503
69865W        W35092  31.408  41.042  11.042
69866W        W35093  21.777  31.122  14.156
69867W        W35094  26.174  25.222   4.726
69868W        W35095  22.765  24.978  10.703
69869W        W35096  20.721  25.081  10.748
69870W        W35097  10.892   3.889   1.731
69871W        W35098  10.741  25.121   0.188
69872W        W35099  32.175  25.186   3.814
69873W        W35100  29.126  23.465   1.347
69874W        W35101   7.727  25.258  13.886
69875W        W35102  27.424  44.564   0.606
69876W        W35103  12.579   2.292   0.131
69877W        W35104  37.732   7.379   2.617
69878W        W35105  44.226  18.694   1.227
69879W        W35106  17.419  29.234  11.283
69880W        W35107   6.308   0.075   2.383
69881W        W35108  37.999  26.433  12.937
69882W        W35109  36.239   7.439   3.985
69883W        W35110   8.338  44.668  13.872
69884W        W35111  40.700  40.352  13.425
69885W        W35112  24.971  42.398   2.077
69886W        W35113  18.198  21.018  14.540
69887W        W35114   7.386   4.960  13.764
69888W        W35115   3.151  12.714   1.700
69889W        W35116  37.023  22.514  15.000
69890W        W35117  20.889   8.301   3.692
69891W        W35118  39.469  22.872  12.304
69892W        W35119  37.407  11.353  14.010
69893W        W35120  10.653  38.891   4.206
69894W        W35121  39.297   4.214  13.417
69895W        W35122  22.079   2.480   0.703
69896W        W35123  25.651   0.664  11.501
69897W        W35124  39.032  27.099   2.938
69898W        W35125  20.625  40.871   3.248
69899W        W35126   2.390  28.905   0.513
69900W        W35127  32.169  38.950   2.042
69901W        W35128   3.820  35.370   3.376
69902W        W35129  29.595  20.047   0.867
69903W        W35130  27.482  24.026  13.495
69904W        W35131  28.729  12.243  14.536
69905W        W35132   4.330  16.111   2.345
69906W        W35133  28.680   5.319   1.257
69907W        W35134   2.038   4.203  14.992
69908W        W35135  13.560  25.033  11.257
69909W        W35136  42.243  29.522  10.734
69910W        W35137  28.366   9.417  10.706
69911W        W35138  29.035  41.723  11.492
69912W        W35139  16.410  42.413   2.394
69913W        W35140   7.371  25.855   3.795
69914W        W35141  30.138  15.259   2.743
69915W        W35142  29.266  27.069  14.273
69916W        W35143  37.123  28.459  10.733
69917W        W35144  19.043  24.940   1.393
69918W        W35145  16.336  11.651   0.008
69919W        W35146  18.577  33.647   1.776
69920W        W35147  13.981  22.474  13.202
69921W        W35148  39.534  24.133   2.340
69922W        W35149  30.881  11.511  13.933
69923W        W35150  40.963  34.245   3.200
69924W        W35151  40.146   5.387  13.834
69925W        W35152  11.162   5.978  12.531
69926W        W35153  39.851  12.200   4.269
69927W        W35154  38.111  20.548  13.734
69928W        W35155  22.096  35.944   1.302
69929W        W35156   4.230   4.779  13.349
69930W        W35157  25.997  41.849   2.884
69931W        W35158  35.920  12.791  12.171
69932W        W35159  43.415  16.251  13.047
69933W        W35160  26.064  43.912  12.719
69934W        W35161  24.614  17.511   4.294
69935W        W35162  33.143   7.234  14.735
69936W        W35163  31.679  19.807   0.909
69937W        W35164  17.709  35.082   0.673
69938W        W35165   7.261  16.249  14.254
69939W        W35166   8.084  17.162  10.708
69940W        W35167   9.797  41.050   0.180
69941W        W35168  12.630  19.059  12.144
69942W        W35169  11.599  14.753   3.657
69943W        W35170   2.652  34.645  12.463
69944W        W35171  22.483  32.487  11.986
69945W        W35172  14.309   6.887   3.552
69946W        W35173  41.334   5.657  12.491
69947W        W35174  24.547  28.392   1.346
69948W        W35175   9.863  17.675   1.323
69949W        W35176  31.042   2.468   2.653
69950W        W35177  35.584   0.996   0.183
69951W        W35178   1.269  24.932  10.066
69952W        W35179  37.442  17.883   1.422
69953W        W35180  30.977  18.329  13.729
69954W        W35181  36.170   1.372  13.164
69955W        W35182  29.561  18.212   2.187
69956W        W35183  20.625  12.127  11.538
69957W        W35184   4.607  18.805  12.435
69958W        W35185  19.694  32.099   1.708
69959W        W35186  31.227  23.446  13.102
69960W        W35187   9.169  40.331   3.757
69961W        W35188  44.682  43.831  12.063
69962W        W35189  36.381  12.636  13.912
69963W        W35190   4.248  42.237  12.447
69964W        W35191  28.045   9.066   2.934
69965W        W35192  27.253  37.999   3.371
69966W        W35193   0.528  34.574  11.490
69967W        W35194  27.588  31.957   1.664
69968W        W35195  28.425  26.934  13.506
69969W        W35196   5.539  38.038   3.327
69970W        W35197  21.225  26.445  14.229
69971W        W35198  16.327  14.848  12.484
69972W        W35199  35.940   4.025  13.406
69973W        W35200   8.263  18.458   2.436
69974W        W35201  29.946  39.761  11.411
69975W        W35202  12.657  32.455   1.646
69976W        W35203  32.745  10.337  13.850
69977W        W35204  33.444  43.063  10.413
69978W        W35205  34.652  34.551   3.873
69979W        W35206  24.605  40.973   1.953
69980W        W35207  37.555  30.923  11.679
69981W        W35208  18.132  27.223  13.949
69982W        W35209   5.617  16.587   0.105
69983W        W35210  36.132   5.015  13.574
69984W        W35211  26.614  43.306  11.089
69985W        W35212  13.580  16.759   3.101
69986W        W35213  30.656  27.109   2.358
69987W        W35214  30.026  20.544  11.211
69988W        W35215  25.437  43.108  13.977
69989W        W35216  40.361  15.098   0.917
69990W        W35217  42.286   4.595   1.411
69991W        W35218  31.715  12.037   3.598
69992W        W35219  40.804   6.011   0.214
69993W        W35220  31.361   7.901  13.458
69994W        W35221  44.248   1.947  10.617
69995W        W35222  29.918  34.188  11.126
69996W        W35223  13.267  40.282  12.560
69997W        W35224   7.624  38.361   3.366
69998W        W35225  28.466  23.168  12.853
69999W        W35226  22.308   8.854   1.833
70000W        W35227  32.387  40.996  13.892
70001W        W35228  32.585  39.628   4.044
70002W        W35229   3.665  31.099   2.223
70003W        W35230  39.513  39.486   4.162
70004W        W35231  18.859  26.495  12.042
70005W        W35232  15.972  44.700   4.562
70006W        W35233  32.657  32.360  13.447
70007W        W35234  35.842   0.385  14.498
70008W        W35235  43.593  15.354   3.768
70009W        W35236  24.245   2.750   2.728
70010W        W35237   4.284  28.589  10.684
70011W        W35238  20.633  13.793   3.252
70012W        W35239  12.855   1.112   3.349
70013W        W35240  31.729  26.492   2.615
70014W        W35241   8.520  10.134  11.015
70015W        W35242  16.834  11.611  12.417
70016W        W35243  28.512   7.223  11.683
70017W        W35244  34.550  29.756   0.369
70018W        W35245  14.219   9.868   1.438
70019W        W35246  44.455  40.962   3.216
70020W        W35247  20.921  21.606  13.778
70021W        W35248  30.392  22.815  14.527
70022W        W35249   7.542  31.780   5.113
70023W        W35250  15.528  18.247  11.534
70024W        W35251  19.511   7.671  13.006
70025W        W35252  17.090   0.740   0.354
70026W        W35253  17.597  14.877  14.921
70027W        W35254   3.825  20.571  13.854
70028W        W35255  33.370  30.138   2.318
70029W        W35256  19.183  29.541   0.955
70030W        W35257  35.640  15.722  12.582
70031W        W35258   4.084   1.523  14.441
70032W        W35259  16.696  43.320  10.737
70033W        W35260   1.385  27.163  14.103
70034W        W35261  23.257  40.322  14.874
70035W        W35262  41.266  42.969   1.633
70036W        W35263  18.773  30.063   2.798
70037W        W35264  37.355  39.933   2.100
70038W        W35265  34.593  36.944  12.273
70039W        W35266  12.684  37.308  11.193
70040W        W35267  28.514  33.548   2.483
70041W        W35268  35.004  26.901   0.407
70042W        W35269  32.464  13.884  12.037
70043W        W35270  31.583   7.510   3.809
70044W        W35271   6.198  15.737  11.925
70045W        W35272   2.296  44.353   0.509
70046W        W35273  25.348  44.300  13.078
70047W        W35274  25.557  36.877  12.469
70048W        W35275  40.099  12.680   2.300
70049W        W35276   3.513   9.625  12.855
70050W        W35277  33.543   2.800  10.759
70051W        W35278  28.917  11.372  14.043
70052W        W35279  37.883  40.537   2.796
70053W        W35280  16.506   3.335   4.179
70054W        W35281  21.193  36.816   4.095
70055W        W35282  24.124   0.971   1.320
70056W        W35283  19.363  14.676  13.982
70057W        W35284  40.917  27.349   2.350
70058W        W35285  36.107   1.494   3.713
70059W        W35286   5.301  25.345  12.614
70060W        W35287  11.082  32.063   1.474
70061W        W35288  19.110  37.459   4.346
70062W        W35289  18.625  38.476   1.548
70063W        W35290   0.573  37.880   0.402
70064W        W35291  44.925  44.982   1.323
70065W        W35292   6.862  20.960   0.385
70066W        W35293  16.854   0.351   1.981
70067W        W35294  34.969  14.572  12.227
70068W        W35295  31.758  33.022  11.256
70069W        W35296  11.599  36.056  11.831
70070W        W35297   9.586  22.650  14.262
70071W        W35298   1.719  44.995   2.740
70072W        W35299  24.709   1.373   1.736
70073W        W35300  30.623  17.296   1.200
70074W        W35301  34.210  22.298  14.157
70075W        W35302   0.513  16.982  10.504
70076W        W35303  44.948   5.096   1.814
70077W        W35304  25.829  43.943   3.354
70078W        W35305   3.735  28.937   0.204
70079W        W35306  20.962   2.201   4.071
70080W        W35307  43.242  15.570  14.009
70081W        W35308  24.309  22.226   4.173
70082W        W35309  13.611  37.371  13.394
70083W        W35310   2.283  31.377  11.052
70084W        W35311   3.011  30.940   1.330
70085W        W35312  33.253  13.608  13.166
70086W        W35313  25.164  20.001  11.638
70087W        W35314   7.073   7.706  12.113
70088W        W35315  43.569  43.780  11.206
70089W        W35316  17.390  27.038   2.540
70090W        W35317  38.935  23.559  12.114
70091W        W35318  33.617  22.136  12.936
70092W        W35319   5.127   1.283  11.039
70093W        W35320  31.619  17.591  11.195
70094W        W35321  22.020   6.315  11.146
70095W        W35322  18.524  40.909  12.046
70096W        W35323  32.288  34.368   4.951
70097W        W35324  16.912  40.764  14.410
70098W        W35325   5.724  44.835   0.140
70099W        W35326  17.076  40.418   4.513
70100W        W35327  19.084  31.603  14.412
70101W        W35328  38.284  37.471   4.196
70102W        W35329  19.636   9.696  10.508
70103W        W35330  25.170   7.851  12.119
70104W        W35331  19.766   5.847   3.397
70105W        W35332  39.384  36.023  12.191
70106W        W35333  40.317   9.625  13.859
70107W        W35334   8.195  43.410  11.084
70108W        W35335  29.054   4.239  10.645
70109W        W35336  21.517  35.562   1.691
70110W        W35337  40.035  32.897   0.419
70111W        W35338  33.829  10.209  11.131
70112W        W35339  42.042   2.490   0.463
70113W        W35340  36.753  26.047   0.974
70114W        W35341  22.486  21.193   0.857
70115W        W35342  10.407   6.023   1.832
70116W        W35343  38.343  10.712   0.810
70117W        W35344  24.247  11.771  10.705
70118W        W35345  42.522   6.634  14.469
70119W        W35346   7.054  29.617   4.209
70120W        W35347  27.157  31.433   3.031
70121W        W35348  17.174  31.916  10.871
70122W        W35349  23.597  14.786   3.056
70123W        W35350  25.772  34.029  11.571
70124W        W35351   7.627  44.309   2.772
70125W        W35352  43.663  33.414  10.898
70126W        W35353  12.227  20.129  11.631
70127W        W35354  16.564  43.915  14.435
70128W        W35355  20.104  10.935   0.763
70129W        W35356  30.096   3.221  12.661
70130W        W35357   1.452  14.014  14.300
70131W        W35358  15.528   4.259  13.857
70132W        W35359  35.882  36.115   2.666
70133W        W35360  35.817  23.235   1.696
70134W        W35361  37.005   6.640   2.289
70135W        W35362  22.068  38.495   0.271
70136W        W35363  34.253  17.696   3.842
70137W        W35364  27.366   3.605   3.247
70138W        W35365  12.229  19.406  14.910
70139W        W35366  33.521  40.440   4.652
70140W        W35367  19.087  20.488  14.383
70141W        W35368   4.339  15.854  13.590
70142W        W35369   1.433   3.698  11.243
70143W        W35370  44.779  11.288   0.921
70144W        W35371  41.928   9.425   2.194
70145W        W35372  34.748  40.308   1.438
70146W        W35373  33.262   0.907  12.120
70147W        W35374   5.411  16.443  10.673
70148W        W35375  43.707  26.945  13.640
70149W        W35376  35.277  16.529  11.060
70150W        W35377   0.440  29.734   0.836
70151W        W35378  38.920   8.156  11.970
70152W        W35379  26.246  44.013   4.988
70153W        W35380   6.030   4.026   3.133
70154W        W35381   7.637  34.876   0.283
70155W        W35382   2.281  17.239  12.058
70156W        W35383  35.787   1.808   4.617
70157W        W35384  24.790  32.433   1.634
70158W        W35385  10.995  20.593  11.794
70159W        W35386  25.627  24.206   3.428
70160W        W35387  32.027  32.328   0.788
70161W        W35388   1.761  34.720   4.631
70162W        W35389  21.029  29.091   4.376
70163W        W35390   4.739  26.172   3.140
70164W        W35391  11.028  41.813   1.339
70165W        W35392  40.241  26.504   4.097
70166W        W35393  39.829   4.628   3.248
70167W        W35394   6.122   3.260   0.351
70168W        W35395  27.707  35.452   4.301
70169W        W35396  15.804  32.782   4.983
70170W        W35397  20.872  17.512   0.552
70171W        W35398  34.335  18.738  14.383
70172W        W35399  15.337  29.872   3.335
70173W        W35400  26.691  33.622   2.665
70174W        W35401   5.215  36.059   4.099
70175W        W35402  14.052  32.347   2.748
70176W        W35403  12.296  12.838   3.941
70177W        W35404   3.224  29.583   1.152
70178W        W35405  30.495  35.222   2.854
70179W        W35406   8.805  38.772  12.321
70180W        W35407   0.461   5.945   0.949
70181W        W35408  39.085   8.488  12.975
70182W        W35409  31.894   1.426   4.018
70183W        W35410   4.196  35.086  11.279
70184W        W35411  20.420  44.500  14.014
70185W        W35412  20.566  21.599  14.499
70186W        W35413  42.457  38.050  14.421
70187W        W35414  30.442  22.539  14.998
70188W        W35415  34.269  32.145  12.068
70189W        W35416  41.283  10.143   0.038
70190W        W35417  18.913  13.618   3.909
70191W        W35418   2.873  44.594   2.347
70192W        W35419  13.029  28.808   1.332
70193W        W35420  35.454  38.483   1.924
70194W        W35421  14.647  33.834  13.208
70195W        W35422   6.755  10.360  13.837
70196W        W35423   3.286  27.423   2.819
70197W        W35424  41.021  22.877   0.351
70198W        W35425  13.990  31.370  13.067
70199W        W35426   0.091  33.735   3.732
70200W        W35427   3.166   1.933  11.086
70201W        W35428  12.987   6.675   4.266
70202W        W35429  20.520  22.161   0.007
70203W        W35430  24.452   3.822   4.228
70204W        W35431  33.626   7.398  12.982
70205W        W35432  16.321  10.363   2.328
70206W        W35433  28.813  12.654   3.147
70207W        W35434  31.480  39.341   2.808
70208W        W35435  39.903  10.587   3.060
70209W        W35436  33.949  31.926  14.315
70210W        W35437   9.254  22.275   0.881
70211W        W35438  33.998  39.769   1.904
70212W        W35439   1.486  17.184  12.880
70213W        W35440  29.933  26.855   3.111
70214W        W35441  34.862  37.559   3.252
70215W        W35442  10.657   8.399   2.929
70216W        W35443  28.982   2.413  14.339
70217W        W35444  22.112   6.676  12.623
70218W        W35445  16.094   2.232  13.990
70219W        W35446  19.724  35.536   3.622
70220W        W35447  11.452  15.209   3.209
70221W        W35448  14.746  41.916   1.912
70222W        W35449  40.506  37.530   3.256
70223W        W35450  17.900  23.673  11.067
70224W        W35451  10.897  31.907   2.771
70225W        W35452  31.007  14.786   2.725
70226W        W35453  27.479  18.510   2.278
70227W        W35454  11.701  10.153   3.387
70228W        W35455  13.627  43.759   4.220
70229W        W35456  19.678  10.333   2.764
70230W        W35457  32.550  20.774   1.383
70231W        W35458   1.762  25.152  12.821
70232W        W35459  30.142  12.729   2.157
70233W        W35460  10.256  18.719  11.936
70234W        W35461  34.394   3.320  13.053
70235W        W35462   6.250   5.479   3.704
70236W        W35463  30.890  31.124  11.052
70237W        W35464  10.470   0.207  11.082
70238W        W35465   5.205  14.785  12.923
70239W        W35466  43.538   0.429  13.131
70240W        W35467   5.329   4.374  14.968
70241W        W35468   8.390  16.499   2.331
70242W        W35469   6.884   4.820   2.304
70243W        W35470   4.286  15.052  14.392
70244W        W35471  25.468  18.821   4.666
70245W        W35472   4.515  32.047   3.869
70246W        W35473  41.357   0.128   3.188
70247W        W35474  38.870  10.949  10.704
70248W        W35475   1.259  28.466   1.250
70249W        W35476  44.296  36.090  14.720
70250W        W35477  40.241  42.405  10.734
70251W        W35478  26.440  14.376   2.169
70252W        W35479  10.855  36.172  13.139
70253W        W35480  38.805  16.167  11.498
70254W        W35481  27.758  41.838  11.175
70255W        W35482  24.006  31.607   3.684
70256W        W35483  24.170  18.515   1.172
70257W        W35484  35.725  30.876  13.857
70258W        W35485   9.198  42.590  12.147
70259W        W35486  29.110  35.093  13.986
70260W        W35487  22.198  22.739   2.663
70261W        W35488  13.374   4.447   3.835
70262W        W35489  10.617  36.050  11.143
70263W        W35490  36.928  44.206  11.648
70264W        W35491  27.592  44.171   0.951
70265W        W35492  41.759   3.602   2.692
70266W        W35493  20.962  28.535  14.116
70267W        W35494  33.137   9.887  13.332
70268W        W35495  27.263  21.780  12.899
70269W        W35496  17.551   7.244  14.491
70270W        W35497  34.588  30.409   2.811
70271W        W35498  14.954  40.955   2.704
70272W        W35499  23.448  10.434   0.928
70273W        W35500  22.232   8.111   3.613
70274W        W35501   4.408  28.035  10.729
70275W        W35502   5.206  27.534  14.484
70276W        W35503  32.430   4.574  13.957
70277W        W35504   0.634  39.832  12.880
70278W        W35505  31.392  35.966   0.958
70279W        W35506  44.015   0.918   0.821
70280W        W35507  40.478  36.950  12.617
70281W        W35508  30.564  15.551   2.541
70282W        W35509  40.619   1.134   0.863
70283W        W35510   4.457   6.041  12.981
70284W        W35511  42.081  18.086   1.295
70285W        W35512  28.938  38.041   1.607
70286W        W35513  26.746   1.925   1.360
70287W        W35514  24.584  24.155  11.732
70288W        W35515  17.289   8.231   3.257
70289W        W35516  40.234  24.495  12.927
70290W        W35517   4.310   6.252   3.662
70291W        W35518  25.189   3.698  14.924
70292W        W35519   2.862   8.372   1.413
70293W        W35520  30.358  23.897   9.991
70294W        W35521  37.955   2.795   9.491
70295W        W35522   0.461   9.434  13.566
70296W        W35523  12.630  37.005  10.697
70297W        W35524  41.806  44.283   0.753
70298W        W35525   1.547  34.662  10.725
70299W        W35526   6.164  42.023  10.614
70300W        W35527  29.459  14.814   0.382
70301W        W35528   9.735  17.896  11.004
70302W        W35529  38.398  44.357   1.405
70303W        W35530  31.642  13.494   3.662
70304W        W35531   0.264   2.459  11.665
70305W        W35532  31.296  12.576   1.439
70306W        W35533  38.012   0.942  14.080
70307W        W35534  42.306  34.884  11.665
70308W        W35535  42.085  22.285  12.179
70309W        W35536  15.270   2.533  12.536
70310W        W35537  15.170  36.573   4.746
70311W        W35538  17.340  28.659   0.036
70312W        W35539  40.524  43.667   2.414
70313W        W35540   4.977  30.124   4.496
70314W        W35541  39.848   8.459   1.013
70315W        W35542  30.591   2.666  12.934
70316W        W35543   3.774  22.885   0.428
70317W        W35544   0.367  28.130   2.745
70318W        W35545  11.933  31.268   5.473
70319W        W35546  41.777  37.018   1.662
70320W        W35547   9.382  26.625  11.255
70321W        W35548  28.168  18.094  11.214
70322W        W35549  30.993  22.186  13.689
70323W        W35550   9.671  38.911  10.398
70324W        W35551   6.490  44.294  12.633
70325W        W35552  20.326  15.847  13.872
70326W        W35553   7.169  37.941   2.360
70327W        W35554  22.250  34.058  12.856
70328W        W35555  13.654  20.069  12.128
70329W        W35556  27.839  42.865   4.144
70330W        W35557   3.062  35.169  12.978
70331W        W35558   6.373  38.588  10.691
70332W        W35559  38.529   4.664  13.027
70333W        W35560  29.007  23.762   3.638
70334W        W35561  22.987  14.690  11.200
70335W        W35562  16.811  36.929  12.075
70336W        W35563  33.246  12.695   9.907
70337W        W35564  27.169  33.070   2.224
70338W        W35565  30.399  12.303  13.046
70339W        W35566   3.282  30.458  11.803
70340W        W35567  19.203  37.884   2.553
70341W        W35568  44.887  43.576  13.936
70342W        W35569  39.958  36.658   4.096
70343W        W35570  15.183  31.232  11.374
70344W        W35571   6.709   7.191   2.317
70345W        W35572  32.936  19.606   3.282
70346W        W35573  34.591  21.116   0.588
70347W        W35574  10.408  42.616  14.352
70348W        W35575  28.171  18.978   2.835
70349W        W35576  23.062  18.409  12.398
70350W        W35577  12.173  15.349  14.474
70351W        W35578  24.132  44.890   3.973
70352W        W35579  35.484  20.474   3.501
70353W        W35580  28.701  10.188   1.228
70354W        W35581  19.182  27.365   3.888
70355W        W35582  25.013  43.979  13.330
70356W        W35583   6.982  15.907  12.965
70357W        W35584  27.268  13.790   4.957
70358W        W35585  21.248  43.687  14.502
70359W        W35586  31.040   0.318   4.742
70360W        W35587  23.210  40.929   0.900
70361W        W35588  41.969  19.777   1.761
70362W        W35589  41.787   9.265   3.651
70363W        W35590  18.409   9.356  13.376
70364W        W35591  11.415  32.235  14.743
70365W        W35592  29.605  24.779  11.144
70366W        W35593   2.727  19.136   1.834
70367W        W35594  38.063  44.778  10.560
70368W        W35595  15.274  25.710   2.578
70369W        W35596  20.951  27.111  11.615
70370W        W35597  10.163  17.392  12.575
70371W        W35598   2.837  41.870   0.825
70372W        W35599  14.697  11.396  11.641
70373W        W35600  33.983  26.955  12.011
70374W        W35601  27.420  29.912  11.519
70375W        W35602  26.023  11.754   4.109
70376W        W35603  33.736  36.707   9.985
70377W        W35604  43.088  41.361  13.370
70378W        W35605   7.804  22.160  13.077
70379W        W35606   4.706  43.006  11.525
70380W        W35607  31.566  31.680   5.078
70381W        W35608  12.210   3.786  12.316
70382W        W35609   1.639  10.278  13.966
70383W        W35610   6.848  39.127  14.060
70384W        W35611   3.381  25.158   4.495
70385W        W35612  30.991  30.104  11.036
70386W        W35613  14.436  19.491  12.108
70387W        W35614  13.672  36.079  11.969
70388W        W35615   2.490   5.485  12.112
70389W        W35616  42.492   2.436   1.816
70390W        W35617   9.324  25.192   3.355
70391W        W35618  21.412   2.276  12.844
70392W        W35619   5.528   1.274   3.683
70393W        W35620  42.811  24.810   2.674
70394W        W35621   9.236   7.638   2.941
70395W        W35622  29.002  16.567   0.353
70396W        W35623  30.477  41.568   3.209
70397W        W35624   1.185  12.224   0.723
70398W        W35625   5.010  41.524   0.486
70399W        W35626  11.575  18.484   1.829
70400W        W35627  41.517  21.358  10.776
70401W        W35628  31.158  23.653  13.990
70402W        W35629   6.347   4.199   4.664
70403W        W35630  22.001  33.594  12.927
70404W        W35631   8.942  25.122  14.997
70405W        W35632  19.704  43.059   1.209
70406W        W35633  14.846  11.897   3.092
70407W        W35634  44.889  33.605   2.745
70408W        W35635  25.403   7.714  14.984
70409W        W35636  40.761  20.227  13.448
70410W        W35637  22.576  41.928  12.987
70411W        W35638  12.581  30.706   5.207
70412W        W35639   7.258  44.224   0.177
70413W        W35640  16.496  23.590   0.927
70414W        W35641  24.994  43.934  14.289
70415W        W35642   0.308  32.878  13.300
70416W        W35643  26.971   6.824  11.206
70417W        W35644  17.468  20.832  13.523
70418W        W35645  24.445  33.800   2.821
70419W        W35646  34.140  11.348   0.272
70420W        W35647   6.783  41.879   1.282
70421W        W35648   3.212  15.347   0.011
70422W        W35649  31.995  11.822  14.252
70423W        W35650   1.690  17.949   3.331
70424W        W35651  34.395   4.488  14.821
70425W        W35652   5.013  24.762  12.139
70426W        W35653  34.123  30.059   1.616
70427W        W35654  41.579  23.133  13.997
70428W        W35655  40.831  27.547  14.519
70429W        W35656  28.261  35.544  14.766
70430W        W35657  22.226  18.717  13.413
70431W        W35658  20.635  14.113   3.690
70432W        W35659  31.078  14.195   0.904
70433W        W35660  31.956  26.536  12.685
70434W        W35661  44.335  19.243   1.854
70435W        W35662   9.312  27.171   0.918
70436W        W35663   2.259  30.528   0.370
70437W        W35664  38.893   1.305  12.427
70438W        W35665   4.931  43.921   1.707
70439W        W35666  21.385   6.140   2.790
70440W        W35667   3.370   8.136  13.189
70441W        W35668  32.257  29.744   2.192
70442W        W35669  28.900  16.241  11.533
70443W        W35670  30.084  34.633   0.736
70444W        W35671  43.033  16.260  10.697
70445W        W35672   2.382  27.689   2.228
70446W        W35673   2.127  33.625   2.249
70447W        W35674  43.226  13.077   1.901
70448W        W35675  30.866  39.285   1.751
70449W        W35676  37.377   8.353   1.825
70450W        W35677  44.441  28.050  13.949
70451W        W35678  34.548  17.228   3.735
70452W        W35679  29.852  15.173   3.149
70453W        W35680  12.271  31.246   0.661
70454W        W35681   8.249  44.735  13.120
70455W        W35682  18.115  26.913  14.849
70456W        W35683  14.410  36.610   4.155
70457W        W35684  20.028  19.864  11.329
70458W        W35685  15.737  17.572   1.321
70459W        W35686   9.200  33.331   4.744
70460W        W35687  32.084  41.830   3.110
70461W        W35688  40.844  33.368   5.079
70462W        W35689  35.806  37.340   2.195
70463W        W35690  16.511  39.142  12.691
70464W        W35691  34.324  31.628   4.315
70465W        W35692  30.523  32.071  14.565
70466W        W35693   1.768  16.698   0.504
70467W        W35694   0.364  18.520  12.083
70468W        W35695   1.188  27.738   1.880
70469W        W35696  43.347  14.790   1.642
70470W        W35697  33.046   2.301   2.435
70471W        W35698   7.430  39.395  14.751
70472W        W35699  18.165   3.392  11.187
70473W        W35700  32.412   8.306  14.814
70474W        W35701  36.059   0.895   3.180
70475W        W35702   3.247  38.997  10.675
70476W        W35703  39.363  10.235   1.240
70477W        W35704  42.846   5.697  13.999
70478W        W35705  37.580  13.362   2.280
70479W        W35706   9.634  23.455   4.127
70480W        W35707  18.493  25.759  14.101
70481W        W35708  10.937  17.943  14.635
70482W        W35709  35.416  23.512  12.636
70483W        W35710   0.883   9.603  11.627
70484W        W35711  32.529  29.025   4.152
70485W        W35712  10.499  39.497  13.557
70486W        W35713  42.853  44.870   1.412
70487W        W35714   4.249  28.012   3.262
70488W        W35715   3.652   3.436  10.521
70489W        W35716   4.549   5.638   2.318
70490W        W35717   5.195  19.684  10.506
70491W        W35718  33.864   1.199  13.250
70492W        W35719  13.867  26.084   0.051
70493W        W35720   7.167  18.535  13.787
70494W        W35721   4.928  18.653   0.443
70495W        W35722  30.903  13.669  13.735
70496W        W35723  22.644   7.667  11.873
70497W        W35724  42.046  24.412  11.680
70498W        W35725  40.970  31.562  13.429
70499W        W35726  38.004   6.877   4.059
70500W        W35727  30.831  18.893  12.006
70501W        W35728  22.146  23.057   0.106
70502W        W35729  21.132  25.524   3.106
70503W        W35730  10.588  42.045   2.316
70504W        W35731  19.043  28.474  12.599
70505W        W35732  10.676  38.546   0.825
70506W        W35733  19.799  19.627  14.491
70507W        W35734  18.695  26.695   2.726
70508W        W35735  22.501   8.968   0.104
70509W        W35736  32.511   6.144  11.453
70510W        W35737  24.297  10.700  11.180
70511W        W35738  26.622  17.258  13.915
70512W        W35739  28.181   8.879  14.265
70513W        W35740  18.041   5.863  13.038
70514W        W35741  37.538  19.337  12.672
70515W        W35742  37.444  34.031   2.434
70516W        W35743  26.834  13.069  11.051
70517W        W35744  33.683  30.036  11.869
70518W        W35745  34.651  12.584   1.915
70519W        W35746  28.481   2.782   1.349
70520W        W35747  31.161  36.394  14.724
70521W        W35748  44.842  41.866  10.664
70522W        W35749  23.456  33.502  11.697
70523W        W35750  41.938  30.186   4.995
70524W        W35751  16.148  34.680  14.438
70525W        W35752   2.970  36.757   2.646
70526W        W35753  40.130   0.978   2.231
70527W        W35754   8.159   8.901  14.391
70528W        W35755   8.300  35.429  10.719
70529W        W35756   3.128   5.746   4.531
70530W        W35757  23.425  24.198   3.279
70531W        W35758   5.458   4.792   4.643
70532W        W35759  34.501  17.326   4.701
70533W        W35760  26.960  10.100   1.883
70534W        W35761  39.445  39.551  12.605
70535W        W35762  31.649  25.093   1.224
70536W        W35763  27.430  15.303   3.708
70537W        W35764  12.219  21.821   4.801
70538W        W35765   2.503  20.061   4.086
70539W        W35766   8.817  22.159   2.721
70540W        W35767  19.762  33.018   0.494
70541W        W35768  38.139  19.227   1.654
70542W        W35769  24.090  37.111  14.316
70543W        W35770  40.769  32.829  14.130
70544W        W35771  18.710  24.696  12.419
70545W        W35772  21.550  22.042   3.772
70546W        W35773  26.747  29.768   3.776
70547W        W35774  24.546   3.364  10.807
70548W        W35775  33.370  33.434  11.141
70549W        W35776  14.743  11.138   3.655
70550W        W35777  41.373   8.019  11.580
70551W        W35778  43.220  31.163  12.966
70552W        W35779  14.540  19.244   3.294
70553W        W35780  23.579   4.448   4.457
70554W        W35781  12.157  23.715   4.316
70555W        W35782  40.876  23.262  11.833
70556W        W35783  36.144  39.028   0.995
70557W        W35784  11.079   4.851  14.091
70558W        W35785  10.223   4.806  10.556
70559W        W35786  23.776   5.681   3.834
70560W        W35787  38.356  22.778   1.306
70561W        W35788  13.936  29.520  14.350
70562W        W35789  26.954  43.818  13.887
70563W        W35790  21.917  40.163  11.150
70564W        W35791   7.777  32.598   3.161
70565W        W35792  12.381  18.702   2.839
70566W        W35793  43.889  33.733  12.901
70567W        W35794  11.843  13.683  13.516
70568W        W35795  16.224   7.150  12.046
70569W        W35796  23.213  30.749   4.142
70570W        W35797  22.131  17.063   3.983
70571W        W35798  17.954   5.173   1.720
70572W        W35799  24.034   1.674  12.812
70573W        W35800  44.671   1.641  10.635
70574W        W35801  19.687  26.519   3.234
70575W        W35802  25.606  43.928  12.469
70576W        W35803   8.387  23.620  12.636
70577W        W35804  36.611  30.950   2.106
70578W        W35805   4.856  21.087  14.331
70579W        W35806  43.476  37.038   1.017
70580W        W35807  33.025  18.002  11.289
70581W        W35808  37.499  43.705  12.300
70582W        W35809   3.245  25.122   3.624
70583W        W35810   5.322  12.172   3.446
70584W        W35811   4.208  22.079  14.860
70585W        W35812  14.167  38.078  14.001
70586W        W35813  20.811  13.738  10.668
70587W        W35814  28.726   0.723  13.479
70588W        W35815  38.266   3.164   5.470
70589W        W35816  17.881  44.482  14.982
70590W        W35817  32.026  34.854  12.878
70591W        W35818  26.981  31.594  11.047
70592W        W35819   8.271  32.039  13.357
70593W        W35820  12.326  21.023  11.199
70594W        W35821   9.258   3.705   3.179
70595W        W35822  36.782   1.754   9.966
70596W        W35823   9.957  17.308  14.939
70597W        W35824  39.009  37.773   0.273
70598W        W35825   7.128  42.016   0.430
70599W        W35826  23.504  14.500  10.774
70600W        W35827  15.482  14.862   0.825
70601W        W35828   6.717  25.079   3.077
70602W        W35829  13.873  11.885   1.782
70603W        W35830  42.037  30.391  10.582
70604W        W35831  28.659  16.338   3.708
70605W        W35832  23.580  15.262  12.259
70606W        W35833  26.300  42.034   5.015
70607W        W35834  10.308  43.271   4.065
70608W        W35835  43.802  10.989   2.193
70609W        W35836   4.874  17.968  11.562
70610W        W35837  18.773  41.097  14.347
70611W        W35838  31.445   6.707  14.801
70612W        W35839   0.957   7.849   3.093
70613W        W35840  41.283  32.043   0.233
70614W        W35841  36.193  26.489   4.471
70615W        W35842   6.189  33.605   4.190
70616W        W35843  27.502  20.510  14.741
70617W        W35844  27.178  31.460   2.113
70618W        W35845  20.538  12.679  14.474
70619W        W35846  17.735  33.760   0.033
70620W        W35847   6.306  41.779   3.747
70621W        W35848  24.698  34.341  11.117
70622W        W35849  15.600  42.819   5.032
70623W        W35850   4.677  36.323  11.234
70624W        W35851  43.298  24.780   3.937
70625W        W35852  12.203  19.969   2.028
70626W        W35853   6.699  26.749  11.583
70627W        W35854  36.408   7.244   4.425
70628W        W35855  34.628  38.416  13.619
70629W        W35856  39.164  34.786  11.591
70630W        W35857   4.251   7.553  12.987
70631W        W35858  40.089   4.186  12.176
70632W        W35859   4.584  13.182   0.365
70633W        W35860  17.413   1.066   2.176
70634W        W35861  37.073   0.983   1.398
70635W        W35862   2.905  29.063   4.670
70636W        W35863  30.893   2.696  14.513
70637W        W35864   5.748  13.250   2.171
70638W        W35865  40.359  20.609  14.112
70639W        W35866  11.205  39.051  13.237
70640W        W35867  22.141  35.329   1.845
70641W        W35868   2.834  27.509   3.563
70642W        W35869  35.057  19.523   2.697
70643W        W35870  43.778   5.319  11.184
70644W        W35871  40.549  12.800   4.200
70645W        W35872  34.979  38.968  14.905
70646W        W35873  39.557  23.613  10.739
70647W        W35874  38.972  11.243   2.784
70648W        W35875  11.696  27.714  12.112
70649W        W35876   4.634  38.267   1.683
70650W        W35877  41.222  43.721   0.392
70651W        W35878   8.879  31.014  14.814
70652W        W35879  30.779  12.768  13.220
70653W        W35880  23.978  19.676   2.105
70654W        W35881  20.245   0.142   2.188
70655W        W35882  37.466  36.658   0.651
70656W        W35883  24.379  25.960  14.378
70657W        W35884  12.704  31.897   0.293
70658W        W35885  13.160  33.012  13.882
70659W        W35886   8.671  18.414   3.241
70660W        W35887  11.471  35.251   0.304
70661W        W35888  21.662  41.316   0.348
70662W        W35889  29.627  28.498  13.901
70663W        W35890  15.464  39.508  13.127
70664W        W35891  19.715  18.212  13.513
70665W        W35892   8.307  38.086  12.593
70666W        W35893  37.062  43.485  12.134
70667W        W35894  18.025  35.085   4.617
70668W        W35895  11.530  39.443   1.510
70669W        W35896   6.200  25.067   3.115
70670W        W35897  30.739  22.939   3.688
70671W        W35898  26.013  40.668  12.931
70672W        W35899  25.667  31.652  14.385
70673W        W35900   8.442  32.428  12.571
70674W        W35901  21.736  38.036  13.484
70675W        W35902   4.896   5.913   0.783
70676W        W35903  13.010  26.485   3.177
70677W        W35904  25.523  21.927   4.894
70678W        W35905  28.943  37.910   4.589
70679W        W35906  37.330  34.839  13.522
70680W        W35907   8.149  27.446  11.188
70681W        W35908  10.644  42.096  12.066
70682W        W35909   5.204  26.024   0.065
70683W        W35910  37.082   7.641  11.844
70684W        W35911  35.459  13.964   4.071
70685W        W35912   0.718  18.516  10.825
70686W        W35913   0.124  23.458   0.100
70687W        W35914  13.185  29.723  13.368
70688W        W35915   2.883  31.107   2.886
70689W        W35916   3.744  43.019   2.730
70690W        W35917  16.242  41.484   1.470
70691W        W35918  43.437  37.157  12.423
70692W        W35919  39.366  44.117   4.601
70693W        W35920   0.852  16.593  13.907
70694W        W35921  12.787  21.398   2.898
70695W        W35922  32.500  31.194  14.411
70696W        W35923  39.175  23.406   0.480
70697W        W35924   7.829  35.370  13.386
70698W        W35925  22.236   7.334  11.127
70699W        W35926  39.813  14.488   5.014
70700W        W35927  29.912  42.991   0.736
70701W        W35928  26.522  26.008   3.778
70702W        W35929   1.156  15.411   2.693
70703W        W35930   6.718  27.686  10.780
70704W        W35931   4.308  42.656   1.334
70705W        W35932   4.765  27.261   2.111
70706W        W35933  12.157  40.571   1.797
70707W        W35934   1.067  23.629  11.483
70708W        W35935  42.037  25.656   3.224
70709W        W35936  37.046  31.082   1.883
70710W        W35937  10.133  28.571   4.662
70711W        W35938   9.872  32.990   1.962
70712W        W35939   9.844  14.158   4.325
70713W        W35940  11.658   6.075  12.400
70714W        W35941  21.647  25.190   3.798
70715W        W35942   5.410  29.767   2.831
70716W        W35943   3.081   5.686   4.018
70717W        W35944  11.754   8.522  13.048
70718W        W35945  19.511  28.488   4.161
70719W        W35946  15.980  28.187   1.065
70720W        W35947  32.104  32.093   2.393
70721W        W35948  38.534   2.886   4.212
70722W        W35949  13.711  33.809   1.401
70723W        W35950  22.148  31.499  14.113
70724W        W35951  15.768   1.025  13.991
70725W        W35952  20.050  21.100  12.960
70726W        W35953  38.561   5.615  13.227
70727W        W35954  11.008  43.328  13.876
70728W        W35955  28.426   2.292  12.555
70729W        W35956  36.612   1.777  11.963
70730W        W35957  31.032  25.865  13.916
70731W        W35958  36.073   5.283  10.674
70732W        W35959  41.373  39.301   4.466
70733W        W35960  18.768  33.408   0.872
70734W        W35961  17.853  31.200   1.315
70735W        W35962  32.328   4.642  13.434
70736W        W35963  22.635  26.719  12.158
70737W        W35964  41.246  24.244   1.807
70738W        W35965  10.543  17.450  10.813
70739W        W35966  23.044  21.090  13.966
70740W        W35967   3.186  35.880  11.924
70741W        W35968  14.174  36.556   3.560
70742W        W35969  23.150  21.263   3.230
70743W        W35970  31.459  20.692  13.994
70744W        W35971  24.555   9.247   2.091
70745W        W35972  15.575  20.736   2.295
70746W        W35973  12.682  26.867   2.747
70747W        W35974  23.818  20.589   0.599
70748W        W35975  26.556   8.266   2.318
70749W        W35976  42.924  37.610   1.591
70750W        W35977   6.680  41.736  11.586
70751W        W35978  31.499  25.573  10.219
70752W        W35979   6.655  11.272  14.934
70753W        W35980   2.346  31.289   9.884
70754W        W35981  44.973  17.182   1.762
70755W        W35982  39.390  27.917   4.616
70756W        W35983  27.977  16.215  11.529
70757W        W35984   1.293  35.824   4.229
70758W        W35985  14.922  36.850  13.734
70759W        W35986   9.240   0.055   4.117
70760W        W35987  12.648  36.740  13.400
70761W        W35988  40.654  26.999  13.912
70762W        W35989  33.666  11.604   4.953
70763W        W35990  44.862  39.310  14.356
70764W        W35991  12.324  31.385  11.183
70765W        W35992  42.771  23.501  13.452
70766W        W35993  28.299  17.039  13.748
70767W        W35994  30.304   5.886   2.783
70768W        W35995   4.312  37.077  10.946
70769W        W35996  43.574  22.783   0.268
70770W        W35997   4.187   2.111   4.578
70771W        W35998  39.962  37.598  14.773
70772W        W35999  17.021  29.096  13.724
70773W        W36000   9.921  13.528  13.445
70774W        W36001   5.700  43.936   1.397
70775W        W36002  44.687  32.050   2.653
70776W        W36003  44.437  17.509   2.892
70777W        W36004  39.611  35.905  14.544
70778W        W36005  10.593  14.277  13.408
70779W        W36006  43.767  38.333   3.569
70780W        W36007  19.159   0.872   0.232
70781W        W36008   6.432  12.645   2.653
70782W        W36009  24.699  12.314   4.581
70783W        W36010  37.083  38.796   0.807
70784W        W36011  11.804  30.996  12.468
70785W        W36012  31.731  14.938  14.838
70786W        W36013  18.804   2.213   3.654
70787W        W36014   3.812   1.546  10.798
70788W        W36015  37.355   4.705   1.175
70789W        W36016  43.687  30.269  12.545
70790W        W36017   1.965  11.243   4.524
70791W        W36018  16.529  13.169   1.826
70792W        W36019   9.307   6.738   1.860
70793W        W36020   9.076  27.151  14.547
70794W        W36021   4.270  39.443  13.362
70795W        W36022   9.729  38.919  14.449
70796W        W36023  20.577  42.913   0.775
70797W        W36024  22.987  11.181   0.431
70798W        W36025  24.315   6.222   3.680
70799W        W36026  35.869  20.565  14.905
70800W        W36027   5.873  32.698  12.281
70801W        W36028  18.553  30.700  14.756
70802W        W36029   5.762   5.670  13.407
70803W        W36030  31.057  35.898  12.895
70804W        W36031  20.624  43.639   2.354
70805W        W36032  14.591  37.994   0.759
70806W        W36033  32.420  15.611  12.566
70807W        W36034  38.948   9.470  13.853
70808W        W36035  16.681   5.609   2.804
70809W        W36036  18.015   7.134  11.458
70810W        W36037  12.252  31.813   4.457
70811W        W36038  40.842  40.131   0.783
70812W        W36039  40.299  44.007  12.435
70813W        W36040  34.466   8.909   2.250
70814W        W36041  11.305   5.834  14.023
70815W        W36042  20.947  32.642   3.002
70816W        W36043  34.219  41.401  13.772
70817W        W36044  37.618   5.439  14.026
70818W        W36045  31.290  33.953   0.106
70819W        W36046  25.230   5.380  14.716
70820W        W36047   4.417  31.872  12.528
70821W        W36048  21.020  21.317   2.252
70822W        W36049  32.098   7.349   2.230
70823W        W36050  43.807  22.317  11.128
70824W        W36051  20.084  11.526   1.247
70825W        W36052  36.416  27.260   0.355
70826W        W36053   3.470   9.911  11.490
70827W        W36054  14.024   2.296  14.932
70828W        W36055   2.664  44.989  14.500
70829W        W36056  33.034  29.488  12.951
70830W        W36057  28.258  37.074   9.867
70831W        W36058  32.822  39.087  13.563
70832W        W36059  26.240  38.992  14.520
70833W        W36060  40.026  34.690  13.254
70834W        W36061   6.751   5.828   0.283
70835W        W36062  15.885   0.542   3.146
70836W        W36063  32.659   1.919  13.507
70837W        W36064  20.199  27.243  13.349
70838W        W36065  15.584  44.500  13.789
70839W        W36066  36.996  13.097   4.436
70840W        W36067  14.339  42.046   4.535
70841W        W36068  31.986  16.066   3.282
70842W        W36069  13.359  16.389   2.794
70843W        W36070  22.372   0.835   1.794
70844W        W36071  33.074  31.341  11.159
70845W        W36072  33.046   1.791   3.255
70846W        W36073  18.197  10.674  13.831
70847W        W36074  31.148   4.405   0.831
70848W        W36075  36.651   6.365   0.156
70849W        W36076  14.937  31.977   0.181
70850W        W36077  43.499  13.385  10.818
70851W        W36078   8.784  20.335   4.866
70852W        W36079  13.214  36.131   3.142
70853W        W36080  24.659  16.697   3.172
70854W        W36081  25.472  29.133   4.148
70855W        W36082  44.568  38.971   0.407
70856W        W36083  17.636  14.229   3.174
70857W        W36084  37.422  39.403   3.911
70858W        W36085   2.297   1.146  12.121
70859W        W36086  13.503  39.281   4.407
70860W        W36087  28.494   3.337  13.272
70861W        W36088  20.644  13.378  13.356
70862W        W36089  30.979  13.346   1.189
70863W        W36090  36.458  29.459  10.829
70864W        W36091  37.375  35.839  13.407
70865W        W36092  40.418  41.065   1.095
70866W        W36093  41.276  31.370   4.067
70867W        W36094  22.415  43.375  11.145
70868W        W36095   0.911   0.993   0.637
70869W        W36096  39.830  34.865  13.891
70870W        W36097   6.183  42.937  10.589
70871W        W36098  25.942   1.838   3.290
70872W        W36099  30.124  11.922   2.989
70873W        W36100  25.961  27.621  14.851
70874W        W36101  37.595  11.753   3.662
70875W        W36102  40.488  23.679   0.367
70876W        W36103  13.942  29.985   4.814
70877W        W36104   4.253  13.595   3.395
70878W        W36105  19.326   6.169  11.514
70879W        W36106  10.085  14.609   4.525
70880W        W36107  23.530  12.669   1.651
70881W        W36108  15.038  14.234  13.117
70882W        W36109  38.721  32.410   4.105
70883W        W36110  43.596   0.687  10.468
70884W        W36111  19.732  39.640  13.317
70885W        W36112   5.968  31.580   3.268
70886W        W36113  33.536  17.509  12.503
70887W        W36114  26.570  27.637  13.580
70888W        W36115  40.424  31.009   1.983
70889W        W36116  42.289   9.226   3.675
70890W        W36117   3.720  16.226  12.118
70891W        W36118  13.135  41.571  14.600
70892W        W36119  10.113   5.897   4.539
70893W        W36120  26.613  15.656   0.364
70894W        W36121  38.973  25.111  11.473
70895W        W36122  17.559  22.750  14.580
70896W        W36123  15.323  39.998   2.668
70897W        W36124  41.175  28.953   0.572
70898W        W36125  24.152  11.765   1.042
70899W        W36126   1.179  23.287  14.422
70900W        W36127  23.708  33.992  10.637
70901W        W36128  32.576  44.095   1.913
70902W        W36129  40.524  37.331  10.539
70903W        W36130  41.550  24.852   3.646
70904W        W36131  18.195  31.895  12.926
70905W        W36132  28.580  22.770   2.937
70906W        W36133  28.243   4.329  12.162
70907W        W36134  35.474  26.031   1.594
70908W        W36135  20.023   6.357  14.704
70909W        W36136  10.629  12.687   0.099
70910W        W36137  29.287  33.412   3.799
70911W        W36138  39.580   6.356  13.715
70912W        W36139  42.885   4.994   0.770
70913W        W36140  24.736  39.057  11.173
70914W        W36141  26.742  16.627  11.023
70915W        W36142  26.311   3.046  12.867
70916W        W36143  20.132  13.613   3.137
70917W        W36144  24.261  41.527  10.408
70918W        W36145  13.991  31.142   0.438
70919W        W36146  39.086  18.424  10.792
70920W        W36147   1.849   3.759   3.929
70921W        W36148  23.639  40.149   1.346
70922W        W36149  39.319  21.975  12.400
70923W        W36150   6.434  26.689  13.885
70924W        W36151   8.992  18.732   2.692
70925W        W36152  17.658   8.924   0.152
70926W        W36153   2.017   7.708  14.678
70927W        W36154  35.013  34.467  14.828
70928W        W36155   1.970   2.853  11.585
70929W        W36156   6.886   6.852   1.490
70930W        W36157  16.856  22.746   4.522
70931W        W36158  40.424  21.380  14.886
70932W        W36159  40.490  40.093  12.969
70933W        W36160  38.929  34.284   3.883
70934W        W36161  37.447   1.707   1.988
70935W        W36162   0.025  12.213  12.389
70936W        W36163  38.956  16.883  11.235
70937W        W36164   2.192   4.636  13.538
70938W        W36165  16.268  21.952   1.254
70939W        W36166  43.267  32.619   1.752
70940W        W36167   8.695  36.996  13.369
70941W        W36168   5.350  30.878  11.265
70942W        W36169  23.413   2.333  14.979
70943W        W36170   7.270  29.289  12.003
70944W        W36171  26.556   5.810  10.258
70945W        W36172   0.940  19.675  14.339
70946W        W36173   3.263  38.130   0.018
70947W        W36174  34.439  28.646   2.042
70948W        W36175  24.012   3.394  11.915
70949W        W36176  22.612  11.809  12.926
70950W        W36177  44.399   9.372  11.552
70951W        W36178  42.958   6.374  12.716
70952W        W36179   7.731  23.810   0.012
70953W        W36180  23.122  28.295   2.364
70954W        W36181  38.210  25.159   0.170
70955W        W36182   7.354  37.953  11.995
70956W        W36183  42.752   6.916  13.482
70957W        W36184  38.582  21.556   3.604
70958W        W36185   0.347  37.662  11.109
70959W        W36186  37.401  14.789  14.942
70960W        W36187  10.706   1.673   0.899
70961W        W36188  18.186  11.099   4.806
70962W        W36189  25.745  19.181   0.198
70963W        W36190  23.272  13.885  11.676
70964W        W36191  15.241  19.077  13.940
70965W        W36192  15.260  10.183  13.442
70966W        W36193  23.728  41.391  10.912
70967W        W36194   1.795  40.884  14.466
70968W        W36195  17.644  22.450   0.556
70969W        W36196  32.481  27.666   0.704
70970W        W36197  29.930   1.850   0.793
70971W        W36198  44.240   3.262   1.667
70972W        W36199  32.716  35.997  13.891
70973W        W36200  40.429  40.398   3.333
70974W        W36201  42.255  27.204   1.156
70975W        W36202  24.656   6.210   4.096
70976W        W36203  35.492  42.832   2.739
70977W        W36204   7.648  13.156   0.351
70978W        W36205   8.799  44.546   4.163
70979W        W36206  20.632  20.669   1.882
70980W        W36207   0.841  22.333   5.446
70981W        W36208  44.409  25.451   2.333
70982W        W36209  42.390  14.356  10.732
70983W        W36210  24.201  27.195  10.733
70984W        W36211  18.270  23.912  11.600
70985W        W36212  34.062  35.566  14.275
70986W        W36213  17.095  30.050  12.158
70987W        W36214  40.559  43.817   0.791
70988W        W36215  26.571  22.299   4.530
70989W        W36216  17.336  26.156   4.208
70990W        W36217  26.690  24.081   0.774
70991W        W36218  11.731  12.006  11.580
70992W        W36219  41.333  17.379   4.564
70993W        W36220  11.371  24.966   0.824
70994W        W36221  34.524  13.849   4.144
70995W        W36222  40.915   1.510   2.242
70996W        W36223   8.772  12.307  11.097
70997W        W36224  16.712   0.036   3.476
70998W        W36225  14.182  27.726   4.711
70999W        W36226   6.377  26.950  12.576
71000W        W36227  14.170  44.732  10.961
71001W        W36228  11.144   3.255   1.411
71002W        W36229   6.282  39.617  14.358
71003W        W36230   5.300  20.798   2.144
71004W        W36231   7.717  32.934  11.064
71005W        W36232  39.658   8.675   0.207
71006W        W36233   3.548  15.881  12.924
71007W        W36234  42.355  20.333  10.617
71008W        W36235  16.100  22.977  13.799
71009W        W36236  20.706  30.247  14.714
71010W        W36237  13.929   9.117   0.950
71011W        W36238  23.227  26.107   1.806
71012W        W36239   4.221  12.752  11.995
71013W        W36240  13.530  22.790  13.258
71014W        W36241  18.209  24.299   2.828
71015W        W36242  13.619  30.176   1.942
71016W        W36243   9.796  44.995  13.875
71017W        W36244  20.129  31.933   1.454
71018W        W36245   5.874   4.121  10.558
71019W        W36246  43.319   0.707  13.989
71020W        W36247   6.898  30.253   4.616
71021W        W36248   8.917  27.245  10.977
71022W        W36249  42.829  14.139  11.993
71023W        W36250  43.499  36.579   3.272
71024W        W36251  36.352  28.195   0.341
71025W        W36252  12.830  25.495  11.185
71026W        W36253  12.418   3.853   4.852
71027W        W36254  12.745   3.755  10.599
71028W        W36255   0.308  34.587   4.564
71029W        W36256  24.326  44.015  12.840
71030W        W36257  31.548  30.865  14.533
71031W        W36258  28.012  37.978   0.191
71032W        W36259  26.551   2.841   0.531
71033W        W36260  25.545  22.092   3.894
71034W        W36261  38.565  35.703   0.908
71035W        W36262  24.677   1.239   2.667
71036W        W36263  42.798   7.287  13.056
71037W        W36264  44.733  36.807   2.843
71038W        W36265  17.126  13.404  12.544
71039W        W36266  42.115   5.720   2.798
71040W        W36267  36.002  28.642   2.364
71041W        W36268  44.820   3.909   2.890
71042W        W36269  19.290  27.727  10.711
71043W        W36270  43.224  30.858  13.373
71044W        W36271  14.358  40.412   3.688
71045W        W36272  37.010  13.361   4.853
71046W        W36273  24.100   4.461   2.132
71047W        W36274  39.542  26.504  10.598
71048W        W36275  32.535  23.489   1.727
71049W        W36276  11.962  34.354   4.851
71050W        W36277   0.707  20.724   1.417
71051W        W36278  11.651  10.273   0.413
71052W        W36279   0.297  18.327  11.611
71053W        W36280  32.870  32.642   1.097
71054W        W36281   1.742  12.078  12.050
71055W        W36282  27.929  39.443  13.029
71056W        W36283  28.070   6.160  10.946
71057W        W36284  29.353  26.478   2.097
71058W        W36285   0.322  24.911   0.745
71059W        W36286  30.800   8.608   3.663
71060W        W36287  27.777  11.413   0.333
71061W        W36288  40.547  10.312  13.025
71062W        W36289  23.047  19.380   1.712
71063W        W36290  36.039   3.321  11.693
71064W        W36291  23.221  13.214   3.636
71065W        W36292   0.606   5.787   4.265
71066W        W36293  15.757  28.531   4.682
71067W        W36294  34.192   8.826  10.836
71068W        W36295  25.963  36.482  12.469
71069W        W36296  37.552  15.599   0.640
71070W        W36297  19.607   8.801   0.525
71071W        W36298   1.456  19.052  12.027
71072W        W36299  36.873  40.519  11.937
71073W        W36300  39.452  17.808   2.872
71074W        W36301   5.114  32.787  11.119
71075W        W36302  44.765  25.487   0.636
71076W        W36303  36.433   1.389   4.113
71077W        W36304  11.737   8.962  13.942
71078W        W36305  10.965   9.848   0.760
71079W        W36306   9.600  44.483  12.006
71080W        W36307  40.498  27.666   2.414
71081W        W36308   7.656   6.802  13.930
71082W        W36309  18.884  39.027   3.300
71083W        W36310  27.274   1.754   4.192
71084W        W36311   0.843  41.067   3.141
71085W        W36312  24.478  12.633   2.040
71086W        W36313  31.231   8.294   3.637
71087W        W36314  11.245   8.818  11.443
71088W        W36315  34.658  10.616  12.607
71089W        W36316  32.863   8.271  12.606
71090W        W36317  28.619  34.846  12.714
71091W        W36318  33.963  44.479   4.601
71092W        W36319   2.463  16.680  12.141
71093W        W36320  43.339  20.055   0.474
71094W        W36321  21.620   2.937   2.298
71095W        W36322  30.181   6.188  10.838
71096W        W36323   9.626  41.352  12.533
71097W        W36324  41.603  17.178   0.379
71098W        W36325  25.760  28.045  12.494
71099W        W36326  40.356  13.580   1.848
71100W        W36327  44.649  42.655   3.667
71101W        W36328  24.056  28.994   3.443
71102W        W36329  21.428  21.760  13.807
71103W        W36330  38.014   6.112   2.996
71104W        W36331   8.400   2.328  11.173
71105W        W36332  43.446  35.405  12.069
71106W        W36333   2.474  10.699   0.837
71107W        W36334  34.120  20.671   4.749
71108W        W36335  30.434  35.807  10.734
71109W        W36336  32.152  42.498  14.753
71110W        W36337  29.317  25.712   4.566
71111W        W36338   0.030  38.820  13.516
71112W        W36339   7.183   2.462   3.736
71113W        W36340  27.149  18.656  11.444
71114W        W36341  44.997  38.363   2.632
71115W        W36342  12.825  16.820  13.375
71116W        W36343  36.312  43.261  12.980
71117W        W36344  33.156  31.917  14.715
71118W        W36345  10.263  37.361   3.147
71119W        W36346  38.087   9.698   1.902
71120W        W36347  31.686  41.607  12.106
71121W        W36348  21.491  39.571   2.573
71122W        W36349  21.980  11.739  13.924
71123W        W36350  44.267  28.451   4.016
71124W        W36351   2.148  14.091  10.729
71125W        W36352  42.359   2.539  13.358
71126W        W36353  27.431  31.016  10.522
71127W        W36354  14.652   4.726  12.994
71128W        W36355  13.346  20.641  12.944
71129W        W36356  32.524  41.072   2.237
71130W        W36357  15.688  27.418  10.737
71131W        W36358  34.513  41.579   1.075
71132W        W36359  35.866  32.522  12.809
71133W        W36360   8.384  23.156  12.413
71134W        W36361  34.941  24.217   3.497
71135W        W36362  35.760  23.643   3.179
71136W        W36363   6.791   4.692   0.979
71137W        W36364  11.353  12.160   1.635
71138W        W36365  36.431  36.092   1.802
71139W        W36366  16.338  19.584  11.737
71140W        W36367  27.596  16.162  14.075
71141W        W36368  10.873  14.617   1.332
71142W        W36369  14.135  33.386   3.601
71143W        W36370  26.466  20.244  11.740
71144W        W36371  26.768  15.985  14.528
71145W        W36372  11.745  17.795  11.189
71146W        W36373   3.040  17.613   2.322
71147W        W36374   6.016   9.228   3.396
71148W        W36375   2.017  27.369  12.525
71149W        W36376   8.368  35.785   0.271
71150W        W36377  39.501  44.336  14.808
71151W        W36378  39.316   7.743  10.816
71152W        W36379  44.811  12.873  11.177
71153W        W36380  27.379  42.086   0.273
71154W        W36381  15.431  13.068   4.125
71155W        W36382   4.403  38.693   1.893
71156W        W36383  43.781   4.381   3.063
71157W        W36384  31.083  16.272   0.390
71158W        W36385  21.077  44.606  10.778
71159W        W36386  33.570  41.064  14.373
71160W        W36387  30.243  42.838   3.553
71161W        W36388  23.126   4.457   1.835
71162W        W36389  22.039  39.501   2.328
71163W        W36390   0.239  37.153  11.164
71164W        W36391   5.316  18.962   3.958
71165W        W36392  32.155  39.724   1.117
71166W        W36393  14.408  38.539  13.917
71167W        W36394  35.975  30.106   1.196
71168W        W36395  26.367  19.153  13.318
71169W        W36396   6.781  23.746   4.411
71170W        W36397  28.702   9.812   0.333
71171W        W36398  26.145  38.386   1.398
71172W        W36399   7.640   7.288  13.749
71173W        W36400   1.991  33.913  13.784
71174W        W36401   0.527  39.519   4.400
71175W        W36402  32.940  20.940   1.806
71176W        W36403   1.344  11.957   2.685
71177W        W36404  43.903  11.147   4.704
71178W        W36405   2.912  12.219  11.713
71179W        W36406  32.901  37.508  10.716
71180W        W36407  12.851   7.636  12.645
71181W        W36408  11.250  19.303   1.702
71182W        W36409  33.632  30.958  12.910
71183W        W36410   3.742  17.334   1.477
71184W        W36411  15.215  13.537  12.045
71185W        W36412  30.533  34.864  10.697
71186W        W36413  31.257  25.250  13.205
71187W        W36414  19.030  34.902   2.951
71188W        W36415  18.772   6.681   3.162
71189W        W36416  25.918  24.939   2.282
71190W        W36417  25.671  39.926  12.544
71191W        W36418  22.671  39.257   0.584
71192W        W36419  18.905   8.956  14.794
71193W        W36420  20.434  22.607  11.312
71194W        W36421   8.247   8.655  14.869
71195W        W36422  23.252  39.911   1.669
71196W        W36423  33.564  36.875   2.285
71197W        W36424  11.297  25.943   1.272
71198W        W36425  13.835  42.451   3.408
71199W        W36426  26.106  11.001  13.274
71200W        W36427  38.342  13.515   1.677
71201W        W36428  35.406  32.677  11.072
71202W        W36429  11.878   8.125  12.036
71203W        W36430   1.764   8.413  13.453
71204W        W36431  23.697  22.159  14.788
71205W        W36432   2.758  10.568   2.278
71206W        W36433  17.591  36.290   2.564
71207W        W36434  28.319  32.050   0.806
71208W        W36435  13.533   2.524  14.974
71209W        W36436  38.142  43.570  13.048
71210W        W36437  43.798  28.658  10.622
71211W        W36438  24.466   5.051  13.065
71212W        W36439   2.873  26.421   1.937
71213W        W36440   4.113  21.631   3.257
71214W        W36441  43.788  16.652  13.519
71215W        W36442  13.171  10.161   0.466
71216W        W36443  21.777  42.753  13.528
71217W        W36444  10.590   1.898   4.553
71218W        W36445  26.236  34.551   2.594
71219W        W36446   2.485  41.819   2.336
71220W        W36447  37.424  29.571  11.054
71221W        W36448  27.688  23.798   0.514
71222W        W36449   7.008  29.086   0.175
71223W        W36450  32.144  29.108  14.933
71224W        W36451  43.769  10.516  12.052
71225W        W36452  22.582  13.406  13.026
71226W        W36453  33.026  42.944   1.283
71227W        W36454  41.471  37.587   0.478
71228W        W36455   8.615   5.217  12.987
71229W        W36456  44.777   9.350  14.846
71230W        W36457   7.333  33.843  11.998
71231W        W36458  34.325  25.838   0.124
71232W        W36459   7.463   5.513  11.784
71233W        W36460  25.491  31.871  13.956
71234W        W36461  34.395  31.815   1.937
71235W        W36462  15.108  42.031  14.465
71236W        W36463  25.431  10.203  13.497
71237W        W36464  33.611  29.149   0.264
71238W        W36465  18.649  41.517   0.867
71239W        W36466  37.016  10.952   4.747
71240W        W36467  15.786  34.823  12.873
71241W        W36468   8.191  17.077   0.358
71242W        W36469   0.854  30.007  11.408
71243W        W36470  17.111  22.718   2.705
71244W        W36471  10.812  28.916   4.181
71245W        W36472  27.990  40.475  11.102
71246W        W36473  34.192  16.485   1.224
71247W        W36474  44.872  16.174   3.810
71248W        W36475  39.842  22.456   4.459
71249W        W36476  26.125  17.798  10.672
71250W        W36477  19.461  15.621   1.912
71251W        W36478  36.940  12.814  11.707
71252W        W36479  26.476   4.309   2.772
71253W        W36480  19.212  22.695   2.917
71254W        W36481   3.328   9.732  11.954
71255W        W36482  42.174  23.296  12.929
71256W        W36483  29.300  37.902   0.393
71257W        W36484  16.347  44.280   3.088
71258W        W36485  27.038  22.575  13.486
71259W        W36486  22.473  29.545   3.105
71260W        W36487  24.208  34.052   3.644
71261W        W36488  11.501  30.557  14.507
71262W        W36489  22.105   5.830  12.023
71263W        W36490  35.853  31.841   3.201
71264W        W36491  33.497  36.941   1.399
71265W        W36492  27.453   0.413  12.689
71266W        W36493  30.876  15.106   3.989
71267W        W36494  13.856  44.978   4.700
71268W        W36495  27.887  27.516   0.752
71269W        W36496  23.461  16.115   1.160
71270W        W36497   0.317  23.222  12.676
71271W        W36498  23.277  15.482  14.943
71272W        W36499  14.911  34.643  12.884
71273W        W36500  19.589  39.336   1.776
71274W        W36501  21.475  35.205   2.436
71275W        W36502   5.170  21.081  13.874
71276W        W36503  11.140  20.138   0.688
71277W        W36504  27.494  43.038  14.773
71278W        W36505   9.934  20.387  10.626
71279W        W36506  17.096  25.450  10.745
71280W        W36507  11.805  16.551  13.838
71281W        W36508   7.926  33.818   4.707
71282W        W36509  15.800   9.832   3.783
71283W        W36510   5.753  27.693  11.663
71284W        W36511   8.725  21.589  13.242
71285W        W36512  34.037  26.688  10.255
71286W        W36513   8.535  31.984   3.236
71287W        W36514  30.917  21.291  10.250
71288W        W36515   5.179   6.360   2.582
71289W        W36516  13.417  23.030   4.058
71290W        W36517  33.575  26.118  12.014
71291W        W36518  23.631   3.763  10.717
71292W        W36519  25.977  21.765  12.436
71293W        W36520  16.098  37.489   4.991
71294W        W36521  44.485   1.866  12.938
71295W        W36522  30.615  34.790  13.574
71296W        W36523  11.150  33.097  13.537
71297W        W36524  14.814  43.458   3.080
71298W        W36525  43.211  33.611   1.742
71299W        W36526  21.880  27.170  14.057
71300W        W36527  28.131  34.539   4.174
71301W        W36528  23.877  11.038  11.163
71302W        W36529  33.402  42.729   0.743
71303W        W36530   6.835  13.018  14.258
71304W        W36531  35.830  32.014   1.767
71305W        W36532   0.347  37.095   4.641
71306W        W36533  36.606  21.853  11.126
71307W        W36534  36.438  31.683  12.772
71308W        W36535  22.223  37.597   0.330
71309W        W36536   3.391   2.441  13.914
71310W        W36537  24.563  19.224   4.591
71311W        W36538  27.751  11.110   1.172
71312W        W36539  41.298  33.464   2.654
71313W        W36540  20.578  10.833   3.110
71314W        W36541  44.229  29.598   3.736
71315W        W36542  36.506  26.088   4.478
71316W        W36543  42.632  41.339   3.788
71317W        W36544   6.473  43.432   2.342
71318W        W36545  29.152  20.229   4.749
71319W        W36546  36.343  36.683  12.482
71320W        W36547   0.262  31.994  13.483
71321W        W36548  29.387  29.711  14.968
71322W        W36549  15.037  27.433   1.275
71323W        W36550  26.037   2.099  11.273
71324W        W36551  18.254  44.446  13.514
71325W        W36552  35.496  15.101   1.990
71326W        W36553  35.185  24.497   0.908
71327W        W36554   2.026  16.631  14.550
71328W        W36555  42.060  42.917  10.778
71329W        W36556   6.643  12.982   0.339
71330W        W36557  10.061   9.439  12.016
71331W        W36558   1.459  21.970  11.914
71332W        W36559  28.696   4.451  14.439
71333W        W36560  39.945  35.386   1.694
71334W        W36561  40.990   3.383   1.594
71335W        W36562  11.091  18.166   2.828
71336W        W36563  32.617  14.018  13.740
71337W        W36564  41.155  19.668   3.059
71338W        W36565  24.470  28.865  11.921
71339W        W36566  43.318   2.852   4.678
71340W        W36567  19.536  37.230   3.676
71341W        W36568  22.045  19.483  14.075
71342W        W36569  37.391  26.463   2.679
71343W        W36570  35.139   9.970  13.713
71344W        W36571  41.913  37.313  10.669
71345W        W36572  15.793  43.840  13.546
71346W        W36573  10.435   8.724   3.597
71347W        W36574  34.521  43.390  11.292
71348W        W36575   6.145  38.005   2.178
71349W        W36576  21.310  23.770  14.672
71350W        W36577  40.587  44.127   3.289
71351W        W36578   0.391  22.424   1.834
71352W        W36579  10.443  27.304   4.793
71353W        W36580  14.883  29.996  13.526
71354W        W36581  18.028   1.857   1.193
71355W        W36582  10.741  17.790  12.005
71356W        W36583   8.661   3.570   3.696
71357W        W36584  29.501  19.275   4.162
71358W        W36585   1.452  14.644  12.332
71359W        W36586  27.517   8.311   0.351
71360W        W36587   7.667  34.146   2.073
71361W        W36588  12.387  24.466   1.352
71362W        W36589   5.582  38.921  10.392
71363W        W36590  38.456  12.895   3.076
71364W        W36591  36.260  30.754  12.573
71365W        W36592  43.982  39.351   1.760
71366W        W36593  44.346  38.082   4.582
71367W        W36594  16.388  29.369  14.877
71368W        W36595   9.118   8.781   1.792
71369W        W36596  23.003  26.222  11.695
71370W        W36597  21.991  38.823  10.785
71371W        W36598  18.483  18.398  11.687
71372W        W36599  32.623  15.116   2.026
71373W        W36600  37.434   2.926  14.901
71374W        W36601   8.400   2.567  12.955
71375W        W36602   8.612  17.603  10.187
71376W        W36603  17.970  30.348   3.763
71377W        W36604  42.046  41.440  13.390
71378W        W36605   6.287  43.406  10.251
71379W        W36606  40.352  23.340  11.930
71380W        W36607   2.922  26.720   1.519
71381W        W36608  36.185   7.855   0.137
71382W        W36609  36.447  23.618   4.372
71383W        W36610  40.384  42.787   3.609
71384W        W36611  33.064  31.689  11.528
71385W        W36612  30.280  16.152  11.078
71386W        W36613   6.446  35.014  11.678
71387W        W36614  20.442  12.341  12.908
71388W        W36615  31.232  10.751  10.830
71389W        W36616   5.145  29.486   0.948
71390W        W36617  24.875  40.910  14.932
71391W        W36618  32.704  24.971   0.965
71392W        W36619  16.902   9.547  11.246
71393W        W36620  29.122  13.750   2.184
71394W        W36621  23.991  12.791   0.227
71395W        W36622  21.982  36.163  13.450
71396W        W36623   1.947  22.235   2.387
71397W        W36624  41.290  12.704  13.797
71398W        W36625  37.099  15.092   2.239
71399W        W36626  26.426  44.189  11.932
71400W        W36627  41.391   3.602   0.768
71401W        W36628  21.510  26.000   0.838
71402W        W36629  30.862  41.478   2.300
71403W        W36630  25.286  33.153  12.396
71404W        W36631  25.951  30.441  11.704
71405W        W36632  11.313  36.103  14.956
71406W        W36633   7.826  32.934  14.382
71407W        W36634  18.548   8.848  11.290
71408W        W36635  35.085  21.989   1.264
71409W        W36636   2.254  12.182  11.955
71410W        W36637  20.975   1.246   2.442
71411W        W36638  17.081  15.247   3.214
71412W        W36639  21.494  31.506   0.473
71413W        W36640  41.707  18.076   4.565
71414W        W36641  15.716  33.620   5.371
71415W        W36642   2.675  22.466  11.513
71416W        W36643  30.551   6.140   1.229
71417W        W36644   0.744  29.604   0.405
71418W        W36645  26.192  29.517   2.280
71419W        W36646  22.091  19.113  11.775
71420W        W36647  16.337  14.736   5.063
71421W        W36648   8.496  13.284   2.447
71422W        W36649  25.482   1.459  13.934
71423W        W36650  37.563  30.412   0.295
71424W        W36651   2.319  29.581   1.740
71425W        W36652  11.461  40.008   4.001
71426W        W36653  35.625  35.962   2.221
71427W        W36654  34.362  18.062   4.203
71428W        W36655  10.268  20.476  13.773
71429W        W36656   9.533   0.164   1.120
71430W        W36657  40.701   2.937   4.794
71431W        W36658  22.740   9.179  11.630
71432W        W36659  31.803  34.784  10.920
71433W        W36660  18.667  41.280  14.983
71434W        W36661  17.067  35.305  11.258
71435W        W36662   8.327   7.754  11.606
71436W        W36663  32.597   5.353   1.364
71437W        W36664  34.540  13.855   1.378
71438W        W36665   5.783   5.444  14.367
71439W        W36666   7.225  24.606  14.379
71440W        W36667  35.757  28.882  11.609
71441W        W36668  39.021  40.100  10.582
71442W        W36669  38.857  24.516   2.756
71443W        W36670  30.802   1.628   0.592
71444W        W36671   1.848   6.409  13.837
71445W        W36672   0.317  44.446  11.966
71446W        W36673  34.495  25.102   2.971
71447W        W36674  44.837   8.387   2.688
71448W        W36675  37.160  10.582  11.068
71449W        W36676  40.563   1.148  13.596
71450W        W36677  26.107  19.394  10.741
71451W        W36678  25.682  28.150  13.011
71452W        W36679  41.410  25.237   1.817
71453W        W36680  21.147  11.577  12.524
71454W        W36681   5.983  16.599   2.317
71455W        W36682  30.339  20.004   4.878
71456W        W36683  24.246  11.983  13.141
71457W        W36684  40.819  25.069   3.100
71458W        W36685  10.317  22.290   3.127
71459W        W36686  25.557  17.560   1.765
71460W        W36687  38.753   2.840  14.405
71461W        W36688  33.875  41.524   2.081
71462W        W36689  15.815   5.305   1.625
71463W        W36690   7.005   0.978   3.957
71464W        W36691   4.487  24.712   4.284
71465W        W36692  31.110   3.408  13.335
71466W        W36693  39.110   3.335   2.549
71467W        W36694  39.472  33.977   1.212
71468W        W36695  34.969  25.172  10.235
71469W        W36696  36.340   3.505  10.276
71470W        W36697  29.115  39.147  12.585
71471W        W36698  19.549  35.962  10.621
71472W        W36699  42.337  21.737  11.194
71473W        W36700   5.767  11.920   1.169
71474W        W36701  42.870   4.332  10.706
71475W        W36702  30.000  24.757   1.358
71476W        W36703  25.769  35.956  12.459
71477W        W36704   1.561  15.739   2.702
71478W        W36705   5.650  18.653  10.740
71479W        W36706  32.512  14.281   0.002
71480W        W36707  20.587  32.518   3.593
71481W        W36708  16.844  40.095   3.384
71482W        W36709  12.870  17.188   2.675
71483W        W36710   5.507  14.197  14.338
71484W        W36711  26.053  11.324   3.758
71485W        W36712   4.504  38.419   2.791
71486W        W36713  38.703  34.024  10.599
71487W        W36714  15.511  34.053   4.169
71488W        W36715  34.390  15.106  11.687
71489W        W36716   1.917  11.376  11.578
71490W        W36717  20.239  21.307   4.547
71491W        W36718   0.670  39.324  11.544
71492W        W36719  10.077  19.082   4.146
71493W        W36720  30.964  30.119   2.460
71494W        W36721   2.422  26.755   1.318
71495W        W36722  23.741  43.749   3.212
71496W        W36723  37.765  40.017  14.846
71497W        W36724  17.583  12.214  14.955
71498W        W36725  26.066   5.196   4.569
71499W        W36726   2.927  11.728  10.635
71500W        W36727  10.274  14.324   1.561
71501W        W36728  36.528   0.896  10.518
71502W        W36729  27.420   1.021  10.651
71503W        W36730  26.203  39.096  12.727
71504W        W36731   7.145   5.702   3.228
71505W        W36732  14.118  37.498  13.378
71506W        W36733  36.971  32.496   3.867
71507W        W36734   5.918  26.643  12.638
71508W        W36735  29.677  34.839   2.103
71509W        W36736   3.643   0.873  13.880
71510W        W36737  17.374  24.575   4.249
71511W        W36738  19.965  22.904  13.460
71512W        W36739  33.979  22.518   4.646
71513W        W36740  34.485  20.039   3.736
71514W        W36741  34.953  24.529   4.971
71515W        W36742   4.496  34.048   0.461
71516W        W36743  13.830  16.784   0.878
71517W        W36744  37.448  17.219   0.086
71518W        W36745  17.394  38.301  10.767
71519W        W36746  34.838   0.251  12.920
71520W        W36747  30.934  31.968   2.672
71521W        W36748  12.855   0.500   0.513
71522W        W36749   2.649  19.763  11.106
71523W        W36750  32.050  24.097   2.244
71524W        W36751   5.191  30.555  12.924
71525W        W36752  43.812  24.797   4.105
71526W        W36753  27.153  19.647   2.693
71527W        W36754  25.900   5.726  14.310
71528W        W36755  20.801  18.455  11.104
71529W        W36756  33.914  15.649   0.818
71530W        W36757  28.385  14.245  11.571
71531W        W36758  14.886   9.564   1.251
71532W        W36759  35.074  35.214   0.512
71533W        W36760  35.822  14.379   3.887
71534W        W36761   3.404   9.157   2.451
71535W        W36762  13.584  25.627  12.031
71536W        W36763  44.244   4.998  14.140
71537W        W36764  22.047  11.854   4.892
71538W        W36765  31.236  24.671   3.281
71539W        W36766  44.923   7.355   3.850
71540W        W36767  14.612   3.854   2.307
71541W        W36768   5.396  43.055  12.488
71542W        W36769  24.950  40.582   3.791
71543W        W36770  19.586   7.217   3.474
71544W        W36771  29.037  32.540  12.192
71545W        W36772   6.007  16.994  12.536
71546W        W36773  12.546  20.102   1.299
71547W        W36774  16.102  41.536  10.724
71548W        W36775  23.680  12.203   1.451
71549W        W36776  13.087  42.233  11.991
71550W        W36777  16.534   7.844   0.895
71551W        W36778  13.729  20.724  10.971
71552W        W36779  12.897   0.795   1.872
71553W        W36780  34.507   0.743  14.927
71554W        W36781  37.301  15.858   3.431
71555W        W36782  19.874  36.014  11.040
71556W        W36783  37.602  33.027  13.529
71557W        W36784  15.276  13.164   2.504
71558W        W36785  15.179  44.394   3.427
71559W        W36786   3.524  40.417   0.613
71560W        W36787  36.345  12.178   1.116
71561W        W36788  22.155  19.542   3.838
71562W        W36789  20.047  36.382  14.305
71563W        W36790  20.277  18.310   3.083
71564W        W36791  39.857  21.253  13.369
71565W        W36792   7.086  10.688  12.555
71566W        W36793  44.852  35.097   4.575
71567W        W36794   8.166  23.477   1.352
71568W        W36795  23.200  41.058   1.420
71569W        W36796  22.156  27.773   2.708
71570W        W36797  44.808  41.573   3.418
71571W        W36798  37.864  27.554   0.464
71572W        W36799  22.340  10.257   3.339
71573W        W36800  17.463   7.868   4.539
71574W        W36801  41.565  25.357   3.634
71575W        W36802  35.087  17.287   1.677
71576W        W36803   9.138   2.427   3.683
71577W        W36804  23.673  33.588   2.472
71578W        W36805   2.433  21.222   3.218
71579W        W36806  27.162  15.499  11.372
71580W        W36807  25.559  30.718  13.169
71581W        W36808  38.400  30.865  12.889
71582W        W36809  22.797  37.329   3.613
71583W        W36810   6.967   0.786   1.850
71584W        W36811   5.582   4.912   0.255
71585W        W36812  30.659  33.369   1.539
71586W        W36813  17.585  27.949   4.536
71587W        W36814  43.957  17.707  10.773
71588W        W36815  43.969  16.090  14.782
71589W        W36816  13.915  15.146  13.823
71590W        W36817  39.900  23.063  12.116
71591W        W36818  27.013  42.334  12.522
71592W        W36819  13.882  36.967  14.781
71593W        W36820  36.161  29.591  12.060
71594W        W36821  44.381  28.433   1.325
71595W        W36822   7.668  15.679   0.820
71596W        W36823  25.761  42.269   3.777
71597W        W36824  25.509   2.119   4.761
71598W        W36825   7.686  17.910  11.839
71599W        W36826  27.093  10.792   2.884
71600W        W36827  30.902   7.430   0.043
71601W        W36828  18.211  14.612  10.675
71602W        W36829  29.199  17.924  10.298
71603W        W36830   8.777   8.132  13.121
71604W        W36831  27.664  23.714  11.278
71605W        W36832   1.062  38.956   2.110
71606W        W36833  18.219   1.923   2.144
71607W        W36834  14.711   7.078  11.925
71608W        W36835  14.764  11.751  12.956
71609W        W36836  32.086  23.123   1.274
71610W        W36837  29.619  20.330  14.730
71611W        W36838   7.453  21.524  14.049
71612W        W36839  23.680   5.989  12.566
71613W        W36840   0.080   3.267   2.715
71614W        W36841   4.182   4.401  12.588
71615W        W36842  41.767  35.186  11.192
71616W        W36843  14.690  30.884  10.333
71617W        W36844   5.764   4.885   3.296
71618W        W36845  30.203   2.420   3.478
71619W        W36846  23.447  10.169   4.525
71620W        W36847   5.670  25.202  14.789
71621W        W36848  37.871   6.224  13.412
71622W        W36849  22.148  23.447   1.814
71623W        W36850  21.020  20.593  12.497
71624W        W36851   2.994   5.912   1.259
71625W        W36852  33.681   9.174  14.461
71626W        W36853  28.581  41.531  10.660
71627W        W36854   4.339  21.621   3.701
71628W        W36855  38.027  25.070  11.466
71629W        W36856  36.086  34.388  11.292
71630W        W36857   0.760  14.309   0.942
71631W        W36858  36.590  23.527  10.570
71632W        W36859  27.905   0.884  10.594
71633W        W36860  35.470  37.976   0.844
71634W        W36861  36.337  30.652  14.300
71635W        W36862   7.274   5.600   1.838
71636W        W36863  31.913  15.745  12.537
71637W        W36864  24.488  33.488  12.891
71638W        W36865  26.742  39.009  10.548
71639W        W36866  16.188   7.810  14.479
71640W        W36867  33.916  44.691   1.600
71641W        W36868  18.275  30.610   3.233
71642W        W36869  37.050  13.658  12.389
71643W        W36870  25.331  43.950   3.226
71644W        W36871  20.582  17.233   3.206
71645W        W36872  17.643  31.496   0.500
71646W        W36873   1.846  38.100   3.138
71647W        W36874  37.106   6.903   0.717
71648W        W36875  30.628  37.796  13.462
71649W        W36876  36.017  32.065  12.642
71650W        W36877   6.768  18.345  12.923
71651W        W36878  17.672   9.170   3.421
71652W        W36879   1.220  12.831   0.288
71653W        W36880  16.757  37.195   4.294
71654W        W36881   4.236  40.599   2.331
71655W        W36882  42.426  29.796   2.891
71656W        W36883   8.006  32.096  10.805
71657W        W36884  30.007  26.506  12.798
71658W        W36885   1.480  40.912  10.705
71659W        W36886  30.894  29.044   0.879
71660W        W36887  14.242   1.438  13.558
71661W        W36888  12.822  40.522   2.322
71662W        W36889   1.525  25.084   3.251
71663W        W36890  12.384  20.289  12.338
71664W        W36891  32.156  30.877   1.233
71665W        W36892  43.479  35.343   4.656
71666W        W36893  34.972  43.435   4.106
71667W        W36894   1.250  18.871  12.550
71668W        W36895  37.644  28.983  11.998
71669W        W36896  16.183   0.797  13.147
71670W        W36897   2.769   9.099  11.614
71671W        W36898  20.620  39.797  14.903
71672W        W36899  44.839  14.868   4.180
71673W        W36900  15.899  29.680  14.872
71674W        W36901  41.389  25.585   0.402
71675W        W36902  44.132  15.497   4.569
71676W        W36903  37.488  30.243   2.791
71677W        W36904  20.921  42.788  11.685
71678W        W36905  40.002  20.769  13.384
71679W        W36906  20.852  23.243   0.429
71680W        W36907  35.744  19.859  12.330
71681W        W36908  27.024  18.686  10.965
71682W        W36909  13.505  11.720  12.872
71683W        W36910   1.022  35.037  13.294
71684W        W36911  40.088  29.235   3.651
71685W        W36912  35.824  38.809   4.200
71686W        W36913  21.946  20.226   1.077
71687W        W36914  39.322  21.195   4.686
71688W        W36915  15.732  22.911   4.127
71689W        W36916  28.096  32.659  12.423
71690W        W36917  31.145  29.745   0.194
71691W        W36918   7.762   7.883   1.713
71692W        W36919  11.550   5.517   0.283
71693W        W36920  42.962  41.354   0.898
71694W        W36921  30.586  30.638   0.301
71695W        W36922  23.026   2.412  14.624
71696W        W36923  27.477   2.738  13.134
71697W        W36924  26.595  19.743   4.583
71698W        W36925  28.003  31.608   9.830
71699W        W36926  21.954  29.020  14.636
71700W        W36927   2.997  40.483   2.229
71701W        W36928  29.000  15.782   1.885
71702W        W36929  20.612  44.019  13.897
71703W        W36930   9.387  26.681  14.448
71704W        W36931  15.625   9.820  13.353
71705W        W36932  42.328  17.609   4.154
71706W        W36933  29.129  17.698   3.866
71707W        W36934  39.320   4.487   3.309
71708W        W36935  12.498   8.607  10.637
71709W        W36936  28.675  38.457  14.695
71710W        W36937  37.953  16.786  13.082
71711W        W36938  35.906   5.275   4.392
71712W        W36939  36.114  25.229   4.138
71713W        W36940  43.241  44.219   4.126
71714W        W36941  14.512  35.659  13.557
71715W        W36942  21.641  15.814   4.644
71716W        W36943   9.154   9.291  13.476
71717W        W36944  11.318  32.182   2.794
71718W        W36945   3.018  31.547   3.196
71719W        W36946  22.683   2.892   3.355
71720W        W36947  12.891  27.988   3.770
71721W        W36948  28.211   1.200  10.177
71722W        W36949  32.497   9.742   2.202
71723W        W36950   7.832  32.207  10.340
71724W        W36951  28.337  40.826  11.971
71725W        W36952   5.694   1.656  14.997
71726W        W36953  21.197   5.001  10.539
71727W        W36954  11.582  40.006  10.490
71728W        W36955  22.656  22.483   4.044
71729W        W36956  30.578   5.202  10.994
71730W        W36957  17.608  10.084  11.140
71731W        W36958   9.748   5.424   3.370
71732W        W36959  37.758  26.966   1.754
71733W        W36960  11.114  31.869   5.418
71734W        W36961  25.953  43.766  14.549
71735W        W36962   2.360  22.647   2.508
71736W        W36963   0.500  17.498   1.294
71737W        W36964  29.477  25.038  13.377
71738W        W36965   9.628  35.766   3.922
71739W        W36966   7.970   2.174  10.952
71740W        W36967  10.220  38.525  13.816
71741W        W36968   9.440   1.173   0.235
71742W        W36969  12.693  42.797  10.709
71743W        W36970  27.161  43.504  11.112
71744W        W36971  15.102  37.339  12.466
71745W        W36972  41.256  39.094   1.826
71746W        W36973  27.493   5.536  12.402
71747W        W36974  20.281   2.136   3.614
71748W        W36975  16.364  42.004  14.747
71749W        W36976  33.951  38.847   2.461
71750W        W36977   8.706  33.419   3.206
71751W        W36978  42.285   5.255   2.048
71752W        W36979   9.613  35.987   4.936
71753W        W36980  39.053  34.081  10.029
71754W        W36981  38.140  13.596  13.377
71755W        W36982  27.241  39.404  13.875
71756W        W36983  11.545  16.219   3.703
71757W        W36984  16.055  43.046   2.793
71758W        W36985  41.041  26.524   2.179
71759W        W36986  39.379  23.988   3.171
71760W        W36987  10.725   0.950   0.177
71761W        W36988   6.769  40.733  12.633
71762W        W36989  15.868  26.635  13.628
71763W        W36990  39.381  23.290  12.007
71764W        W36991  28.124  28.565  10.577
71765W        W36992  15.635  14.540  10.652
71766W        W36993  19.005  37.892  14.312
71767W        W36994  34.522  25.422   0.913
71768W        W36995   5.731  36.503  13.494
71769W        W36996  17.164  23.028  11.507
71770W        W36997  24.021  35.366  10.783
71771W        W36998   7.465  43.032  11.986
71772W        W36999  39.570  38.532   4.696
71773W        W37000   2.234  25.563   3.194
71774W        W37001  16.045  38.621  14.882
71775W        W37002  37.829  30.155   2.373
71776W        W37003  25.068  16.323   3.585
71777W        W37004  16.697  34.086  11.685
71778W        W37005  38.417  32.968   4.920
71779W        W37006  16.952  29.912  11.312
71780W        W37007  23.005  25.641  13.958
71781W        W37008  10.820  40.263  14.983
71782W        W37009   2.493  21.591  11.156
71783W        W37010  41.100  42.947   0.998
71784W        W37011  29.865  35.024  12.687
71785W        W37012  19.556  44.423  10.616
71786W        W37013   3.159   0.288  11.601
71787W        W37014  44.350  15.334   1.282
71788W        W37015  26.583  14.597   3.194
71789W        W37016  20.056  40.810  12.111
71790W        W37017  15.736  10.400  12.441
71791W        W37018   5.731  17.031   0.349
71792W        W37019   7.691  13.361   1.663
71793W        W37020  16.642  22.687  14.320
71794W        W37021  21.506  33.902  14.465
71795W        W37022  41.912  38.665   0.920
71796W        W37023   8.761  44.034   3.250
71797W        W37024   4.206  22.713  12.870
71798W        W37025  11.738   4.872  10.776
71799W        W37026  40.915  10.862  13.948
71800W        W37027  29.033  12.717   2.653
71801W        W37028  26.660  25.575   4.372
71802W        W37029  26.559  30.207  14.232
71803W        W37030  39.804  10.904   1.414
71804W        W37031  29.098   7.795  14.531
71805W        W37032  11.828  44.951   1.721
71806W        W37033  22.651  30.510  10.143
71807W        W37034  34.485  25.049  10.468
71808W        W37035  28.114  42.918  14.212
71809W        W37036  22.006   2.983   3.212
71810W        W37037   9.681  34.960   4.252
71811W        W37038  28.446  41.276   4.211
71812W        W37039  30.553   4.614  12.163
71813W        W37040  13.457  10.912  11.557
71814W        W37041  12.568  26.624   0.733
71815W        W37042  18.853   6.489   1.709
71816W        W37043  23.213  24.591   2.176
71817W        W37044   3.268  18.194   4.861
71818W        W37045  11.376   3.713  12.532
71819W        W37046  18.544  27.483  13.042
71820W        W37047  32.775   0.034  12.099
71821W        W37048   1.302  24.939  12.732
71822W        W37049   7.427  14.610   0.330
71823W        W37050  32.557  18.762  12.608
71824W        W37051  39.133  34.364   1.035
71825W        W37052  44.846  38.842  12.139
71826W        W37053  19.265   3.332   4.434
71827W        W37054  34.475  24.138   2.850
71828W        W37055  42.463   4.804   0.513
71829W        W37056  28.088  21.469  11.654
71830W        W37057  14.265   3.383   0.659
71831W        W37058  26.004  27.608   1.487
71832W        W37059  36.939  27.276   4.484
71833W        W37060  14.057   7.260   3.788
71834W        W37061  27.526  22.131   4.381
71835W        W37062  10.674  41.338   3.656
71836W        W37063  22.892   2.427  13.733
71837W        W37064  18.562  11.174   1.696
71838W        W37065  11.840  35.709   3.441
71839W        W37066  19.812  17.019   2.720
71840W        W37067  27.606  22.067   2.316
71841W        W37068  32.567   7.242  10.843
71842W        W37069  16.049  29.585  11.103
71843W        W37070  10.667  24.115  14.223
71844W        W37071   9.722   9.838   0.483
71845W        W37072  30.982  32.562  13.330
71846W        W37073  40.568  33.088   2.402
71847W        W37074  37.377   0.238  10.720
71848W        W37075  33.594  30.475  13.115
71849W        W37076  21.506  13.650   2.776
71850W        W37077  16.106  18.726  12.047
71851W        W37078   5.907   5.879   1.548
71852W        W37079  33.719   6.625  11.002
71853W        W37080  10.660   7.327  13.471
71854W        W37081  16.341   0.358  14.424
71855W        W37082  30.928  23.034  11.436
71856W        W37083  26.297   5.672   2.819
71857W        W37084  32.963  29.554   1.277
71858W        W37085  14.062  12.147  10.580
71859W        W37086  24.016  43.678  14.994
71860W        W37087  11.927  37.498   1.644
71861W        W37088   5.132  30.899  13.374
71862W        W37089   8.394  32.032   0.187
71863W        W37090  33.917  41.369   0.708
71864W        W37091  16.625  43.214   4.655
71865W        W37092  37.293  39.529   3.427
71866W        W37093   8.385  28.672  10.740
71867W        W37094  18.669  13.359  10.577
71868W        W37095   9.755   0.223  14.599
71869W        W37096  24.157  36.095  13.621
71870W        W37097  37.599  44.825   1.397
71871W        W37098  29.045   1.372  11.135
71872W        W37099   8.668  28.377   0.180
71873W        W37100   7.609   8.957  14.130
71874W        W37101  18.365  37.091   2.180
71875W        W37102  37.459   4.162   4.116
71876W        W37103  28.468  37.883   4.399
71877W        W37104  15.403  22.867   3.730
71878W        W37105   3.962   9.793  13.145
71879W        W37106  13.592   4.291  12.302
71880W        W37107   2.271  19.044  14.686
71881W        W37108   7.377  40.925  13.982
71882W        W37109  14.050   4.374  10.615
71883W        W37110  20.638  26.358   3.013
71884W        W37111  16.144   4.129   3.671
71885W        W37112  24.127  37.094   0.979
71886W        W37113  43.014  16.956   4.083
71887W        W37114   5.942  39.513   2.526
71888W        W37115   2.991   8.233  10.560
71889W        W37116  31.389  11.869   4.935
71890W        W37117  28.141  43.115  12.050
71891W        W37118  22.307  20.687   3.135
71892W        W37119  16.568  22.933  14.778
71893W        W37120   7.715  19.152   1.285
71894W        W37121  28.492  36.941  10.922
71895W        W37122  15.201  19.253   3.956
71896W        W37123  13.544  36.251   2.462
71897W        W37124  32.275  30.650  10.242
71898W        W37125   7.120   4.463   3.994
71899W        W37126   5.491  43.299  11.168
71900W        W37127  41.698  30.409  14.321
71901W        W37128   3.907   6.137   2.836
71902W        W37129  17.018  29.216  12.834
71903W        W37130  13.213  41.855  13.809
71904W        W37131  32.132   7.378   0.663
71905W        W37132   4.164  15.393  14.778
71906W        W37133  36.118   8.682  14.205
71907W        W37134   4.302   6.395   2.608
71908W        W37135  32.092  23.704   0.817
71909W        W37136   8.324  23.808   4.672
71910W        W37137  20.211  34.952   1.727
71911W        W37138  38.551  37.483   4.640
71912W        W37139  19.988  33.112  13.441
71913W        W37140  32.055  36.638   2.851
71914W        W37141  23.153   8.901  14.523
71915W        W37142  19.066  30.745   0.757
71916W        W37143  10.338  40.549  14.945
71917W        W37144   6.217  19.399   1.411
71918W        W37145  38.468   9.337  12.858
71919W        W37146   1.235  29.725  14.950
71920W        W37147  40.927   5.689  14.814
71921W        W37148  18.342  34.473   3.107
71922W        W37149  12.217   1.620  14.382
71923W        W37150  44.018  42.065  10.704
71924W        W37151  23.071  44.981  14.874
71925W        W37152  27.747  19.668   3.816
71926W        W37153   9.649  30.846   4.951
71927W        W37154  37.145  30.045  14.776
71928W        W37155   0.762  14.806   3.155
71929W        W37156  18.242  12.245  12.021
71930W        W37157  26.316   8.212   4.838
71931W        W37158  43.447  11.390  11.529
71932W        W37159  35.622  11.756   0.878
71933W        W37160   6.227  13.941   2.587
71934W        W37161   5.079  28.391  12.047
71935W        W37162  32.010  16.847   4.946
71936W        W37163  15.301  43.388  12.517
71937W        W37164  34.183   3.888   1.315
71938W        W37165   9.816  31.229   1.059
71939W        W37166  18.251  23.009   0.944
71940W        W37167   0.856  44.602  10.424
71941W        W37168  31.941  26.935  14.020
71942W        W37169  25.448  37.859   0.483
71943W        W37170  15.237  18.808   3.602
71944W        W37171   8.755  39.162   5.034
71945W        W37172  41.460  16.324  11.287
71946W        W37173  11.643  26.488  12.506
71947W        W37174  10.722  37.324   2.880
71948W        W37175   1.958  12.390   4.362
71949W        W37176  44.822   1.823  11.098
71950W        W37177  36.100  42.564   1.097
71951W        W37178   3.074  17.588   0.189
71952W        W37179  31.989  43.276   4.230
71953W        W37180  12.765  18.859  13.449
71954W        W37181  44.792  20.293  11.152
71955W        W37182  13.531  25.726   0.276
71956W        W37183  14.089  43.807   3.422
71957W        W37184  37.376  44.568  14.528
71958W        W37185  41.553  25.783  14.349
71959W        W37186  11.780  34.073  13.093
71960W        W37187  36.304  29.135   4.650
71961W        W37188  38.803  42.008  13.391
71962W        W37189  40.822  20.591  11.894
71963W        W37190  37.662  24.086  12.001
71964W        W37191   2.244  12.737  13.535
71965W        W37192  44.354  38.811  11.540
71966W        W37193  30.812  16.380   1.845
71967W        W37194   2.681  13.826   2.080
71968W        W37195  33.534  41.444  12.578
71969W        W37196  43.974   0.814  13.442
71970W        W37197  27.429   4.499   1.776
71971W        W37198  17.215  40.915   3.780
71972W        W37199  42.290  12.208   0.520
71973W        W37200  19.680   1.842   2.168
71974W        W37201  30.358  30.900  13.172
71975W        W37202  23.959  34.160  12.921
71976W        W37203  32.449   6.831   1.392
71977W        W37204  24.164  21.139   0.959
71978W        W37205  17.156  43.775  11.377
71979W        W37206  22.033  24.038   0.918
71980W        W37207  31.700  44.253   4.304
71981W        W37208   2.539  24.215  13.786
71982W        W37209  15.177  26.747  14.001
71983W        W37210  15.269  12.200   3.200
71984W        W37211   5.986  25.811   0.737
71985W        W37212  24.941  16.131  13.870
71986W        W37213   1.301  32.941  14.574
71987W        W37214   6.397  42.567   4.116
71988W        W37215  13.339   0.966   3.188
71989W        W37216  39.531  20.136  12.347
71990W        W37217   9.851  34.873  11.940
71991W        W37218  13.188  41.850  10.526
71992W        W37219  32.042  26.381  13.157
71993W        W37220   8.672  44.284   3.704
71994W        W37221  36.218  12.042  11.610
71995W        W37222   8.214  32.355   3.143
71996W        W37223  18.049  42.967  11.689
71997W        W37224  13.181  23.601   0.866
71998W        W37225   3.518  39.107   0.488
71999W        W37226  30.905  24.482  11.084
72000W        W37227  36.007  16.866  13.934
72001W        W37228  32.172  35.573  14.483
72002W        W37229   0.269  30.342  10.949
72003W        W37230  15.115  38.829   2.294
72004W        W37231   5.447   4.883   2.889
72005W        W37232  13.037  12.937  10.962
72006W        W37233  22.676  20.038   2.179
72007W        W37234  38.035   0.474   1.624
72008W        W37235  13.992  12.686  11.274
72009W        W37236  31.177  40.599  10.783
72010W        W37237   5.350  21.362  11.948
72011W        W37238  31.725   7.608  11.571
72012W        W37239  34.565  21.150  12.274
72013W        W37240  14.745  16.556   3.627
72014W        W37241  24.171  21.243  13.314
72015W        W37242  38.515  18.450   2.297
72016W        W37243   3.952  18.572  14.455
72017W        W37244  39.325  16.919  10.905
72018W        W37245  27.361  14.661  14.502
72019W        W37246  35.720  28.079  10.618
72020W        W37247  27.657   7.878  10.689
72021W        W37248  29.453  32.279   4.543
72022W        W37249  38.897  10.231   2.836
72023W        W37250  12.551   2.896  11.144
72024W        W37251  40.162   2.811   4.961
72025W        W37252  15.971   4.756   5.099
72026W        W37253   3.392  14.124  13.150
72027W        W37254  28.191   0.715  12.531
72028W        W37255  38.291  41.961  13.324
72029W        W37256   8.408   9.211   3.066
72030W        W37257  28.931   6.221   2.166
72031W        W37258  27.554   8.847   0.823
72032W        W37259   2.745  29.485   0.931
72033W        W37260  42.607  43.495   2.813
72034W        W37261   6.542  44.549  11.593
72035W        W37262   3.352  23.369   2.243
72036W        W37263  40.312   1.741  11.146
72037W        W37264   1.310  34.965   1.614
72038W        W37265  40.447  19.227  14.431
72039W        W37266  18.848  26.883  14.456
72040W        W37267  39.964  23.782   4.654
72041W        W37268  20.689  40.020   1.324
72042W        W37269  14.833  18.175  10.806
72043W        W37270  40.752  33.480   2.651
72044W        W37271  37.387   3.171   4.521
72045W        W37272  16.906  21.265   3.549
72046W        W37273  14.568   4.440  13.954
72047W        W37274   4.211  36.590  14.047
72048W        W37275  32.633  30.136   3.065
72049W        W37276   5.732   8.661  11.037
72050W        W37277  34.224  24.250  12.960
72051W        W37278  37.422  38.132  14.019
72052W        W37279  24.242  12.156   3.608
72053W        W37280  24.266  16.627   1.353
72054W        W37281  37.968  28.278   4.555
72055W        W37282   2.448  31.015   5.309
72056W        W37283  27.837  14.701   0.336
72057W        W37284  31.530  29.458   3.351
72058W        W37285  25.481  15.328   2.794
72059W        W37286  42.239  39.046  12.049
72060W        W37287   9.667  34.066   1.218
72061W        W37288  37.844   6.351  14.964
72062W        W37289  15.665  12.590   4.026
72063W        W37290  10.728   4.015  11.154
72064W        W37291   3.709  44.366   0.058
72065W        W37292  10.112   3.016  13.855
72066W        W37293  16.861  26.940   0.841
72067W        W37294  43.989  39.411  12.103
72068W        W37295  25.494  19.310  11.032
72069W        W37296  30.739   9.081  11.510
72070W        W37297  33.077   5.258  12.558
72071W        W37298  25.545  41.904  12.963
72072W        W37299   3.916  32.202   0.098
72073W        W37300   4.011   4.817  12.892
72074W        W37301  26.806  32.051  13.360
72075W        W37302  14.800  14.678  14.542
72076W        W37303  25.581   0.610   3.721
72077W        W37304   0.942  25.263  12.514
72078W        W37305  19.328  38.861  13.073
72079W        W37306  41.075  36.059  12.815
72080W        W37307  21.739  43.849  11.707
72081W        W37308  29.104  42.506  12.795
72082W        W37309  29.437  39.821   4.108
72083W        W37310   9.237  34.070   3.757
72084W        W37311  21.104  11.156   1.697
72085W        W37312  36.806  41.333   0.064
72086W        W37313  37.663  10.681   1.850
72087W        W37314   9.034  23.869   0.737
72088W        W37315  40.255  25.448  12.915
72089W        W37316  18.259   1.065   2.533
72090W        W37317   4.449  31.453   4.298
72091W        W37318   9.672  30.513  12.983
72092W        W37319  27.456  26.048  11.693
72093W        W37320  19.073   2.460   2.518
72094W        W37321   4.477  17.914  12.491
72095W        W37322  14.031   5.185   3.166
72096W        W37323  16.268  43.793  12.842
72097W        W37324  28.114  25.766  12.372
72098W        W37325  28.698  29.033  11.584
72099W        W37326  18.330  11.832  12.415
72100W        W37327  17.717  43.580   2.719
72101W        W37328  37.878   7.933  14.911
72102W        W37329  40.255  32.370   0.974
72103W        W37330  17.289   0.115   1.162
72104W        W37331  19.778  36.486   2.303
72105W        W37332  22.424  16.547  14.071
72106W        W37333  13.268  12.466  10.821
72107W        W37334  13.565  27.502   1.208
72108W        W37335   2.529  10.850  12.023
72109W        W37336  32.931  10.851  14.015
72110W        W37337   6.236   9.235  14.406
72111W        W37338  40.604   8.323   4.552
72112W        W37339  13.784  28.622  10.785
72113W        W37340  34.036   4.388  12.067
72114W        W37341   2.152  37.973   3.546
72115W        W37342  20.225  10.898  12.642
72116W        W37343  14.673   0.572  14.011
72117W        W37344  41.045   3.872   3.623
72118W        W37345  38.563  19.193  14.264
72119W        W37346  16.112  21.205  11.195
72120W        W37347  10.444  38.097   1.015
72121W        W37348  11.986  17.815   2.428
72122W        W37349  36.858   3.582  10.336
72123W        W37350   1.987   0.774  14.336
72124W        W37351  34.174  34.422   4.565
72125W        W37352   2.240  23.116   3.214
72126W        W37353  38.928  28.153  14.848
72127W        W37354  27.745   4.189  14.169
72128W        W37355  10.526   8.243  13.380
72129W        W37356   8.343  31.468   0.869
72130W        W37357  33.906  24.612   3.361
72131W        W37358  20.583  14.183   0.781
72132W        W37359  29.509  26.754   0.586
72133W        W37360  32.025   5.403  12.068
72134W        W37361  30.351  21.579   4.221
72135W        W37362  21.507  41.347   2.335
72136W        W37363  19.244  32.479  12.491
72137W        W37364  42.872   1.263   0.621
72138W        W37365  16.650  42.793  11.954
72139W        W37366   1.255   5.111   0.658
72140W        W37367  21.762  35.907   3.650
72141W        W37368  12.098  43.720   0.286
72142W        W37369  27.768  10.753  11.729
72143W        W37370   0.295  11.852  13.011
72144W        W37371  39.500  22.031   3.714
72145W        W37372  29.066   8.580   3.230
72146W        W37373  36.523  39.490   1.840
72147W        W37374  37.572  30.009  14.486
72148W        W37375   9.390   0.736   3.121
72149W        W37376  40.437  36.812   0.757
72150W        W37377  39.525  25.418   1.348
72151W        W37378  22.049  29.571  10.702
72152W        W37379  22.989   0.024  11.026
72153W        W37380  35.111  34.491  12.958
72154W        W37381  26.749   0.264   5.462
72155W        W37382  44.464  24.189  10.614
72156W        W37383   0.338  28.536   0.392
72157W        W37384   0.403   5.312   3.052
72158W        W37385   1.746   5.699  12.357
72159W        W37386  37.478  23.954  13.784
72160W        W37387  17.426  44.766  13.972
72161W        W37388   4.015  19.343   4.153
72162W        W37389  37.260  43.327  11.679
72163W        W37390  34.439  14.260  10.364
72164W        W37391  17.676  34.643  11.440
72165W        W37392  40.297   5.158   0.098
72166W        W37393  43.315  25.443  12.472
72167W        W37394  13.251  35.333   2.871
72168W        W37395  28.341   7.755  10.177
72169W        W37396  13.074  16.134  12.171
72170W        W37397  29.380  31.711  11.939
72171W        W37398   0.396  20.838   5.036
72172W        W37399   3.044  21.594  14.500
72173W        W37400  30.964  29.051   4.546
72174W        W37401  26.271  42.327   4.164
72175W        W37402  35.387  28.452  13.315
72176W        W37403  22.288   1.732   2.152
72177W        W37404  42.527  42.428  14.800
72178W        W37405  14.176  41.579  10.454
72179W        W37406   0.046  42.541  11.901
72180W        W37407  34.897  20.410   4.317
72181W        W37408  11.079   0.207  10.184
72182W        W37409  16.507  16.530   4.371
72183W        W37410  44.975  26.410  14.909
72184W        W37411  22.043  11.599  12.065
72185W        W37412  40.242  30.110  11.394
72186W        W37413  22.233  10.943   4.583
72187W        W37414   2.441   6.219  11.854
72188W        W37415  26.494   5.527   1.828
72189W        W37416  20.612  18.808   1.930
72190W        W37417   2.128   7.520   2.329
72191W        W37418  10.185   1.173   2.598
72192W        W37419  27.560  36.958   3.128
72193W        W37420  34.479  24.063   3.353
72194W        W37421  37.079   4.389  14.850
72195W        W37422  18.720  41.764  13.597
72196W        W37423  18.601  12.359   3.192
72197W        W37424   2.365  33.459   4.273
72198W        W37425   2.362  35.075  11.179
72199W        W37426  35.254  10.283  14.527
72200W        W37427   7.121  31.173   3.726
72201W        W37428  27.981  10.931   0.323
72202W        W37429  31.435  27.871  10.723
72203W        W37430   1.944  44.929   1.406
72204W        W37431  44.560  33.553  11.656
72205W        W37432   3.427  44.879  13.359
72206W        W37433   3.694  15.516   4.201
72207W        W37434  29.764  33.644   4.491
72208W        W37435  27.664  35.294   2.331
72209W        W37436  16.739  37.445   1.301
72210W        W37437  42.431  10.087   2.483
72211W        W37438  34.213  21.876  10.966
72212W        W37439  24.162  22.881   0.470
72213W        W37440   3.344  40.912   0.693
72214W        W37441   3.271  36.406   3.275
72215W        W37442  24.157  35.157   0.571
72216W        W37443  38.439  16.516  12.941
72217W        W37444  21.164  32.972  12.114
72218W        W37445  19.496  19.059   2.753
72219W        W37446  32.072  23.916  13.410
72220W        W37447   8.730  36.645   4.216
72221W        W37448   3.483  38.089   1.103
72222W        W37449  34.780  11.500   9.984
72223W        W37450   8.774   7.672   2.584
72224W        W37451   2.297  37.074   3.787
72225W        W37452  22.621  40.188   4.068
72226W        W37453  17.619  43.481   4.101
72227W        W37454  17.744   6.041   1.917
72228W        W37455  15.746  28.031   2.577
72229W        W37456  41.540  17.579  13.460
72230W        W37457  10.686  11.903  13.174
72231W        W37458  30.140   6.787  14.853
72232W        W37459  18.870  37.092   2.936
72233W        W37460  44.019  22.646   2.884
72234W        W37461   0.240  25.480   4.324
72235W        W37462   5.812  18.701  14.105
72236W        W37463  25.234  22.227   2.661
72237W        W37464  23.200  13.248   2.790
72238W        W37465   5.739  16.850  12.965
72239W        W37466   2.415  38.780  11.915
72240W        W37467  33.573  17.211  11.049
72241W        W37468   0.959  42.235   4.565
72242W        W37469   3.765   4.872   3.228
72243W        W37470  39.028  28.438   9.940
72244W        W37471  27.144  43.900   1.761
72245W        W37472  19.135  16.059  11.648
72246W        W37473  13.176  10.390   3.270
72247W        W37474  12.112   9.726   2.760
72248W        W37475  25.233  28.173   4.158
72249W        W37476  25.022  34.632  12.495
72250W        W37477   4.284  20.603  14.913
72251W        W37478  23.626  16.841   3.073
72252W        W37479   6.847  41.388   3.321
72253W        W37480  32.885  36.134  14.426
72254W        W37481  23.306  16.265   0.199
72255W        W37482  34.923  21.853  11.608
72256W        W37483  24.508  22.592   2.202
72257W        W37484  16.722  26.120  14.840
72258W        W37485  31.436   5.470   3.703
72259W        W37486  12.570  10.387  14.918
72260W        W37487  39.540  42.104  11.138
72261W        W37488   5.894   4.958   4.925
72262W        W37489   2.855  16.634   3.599
72263W        W37490  22.563  13.608  13.945
72264W        W37491  18.724   0.190  14.641
72265W        W37492   4.028  11.288   3.548
72266W        W37493   5.252  34.709   0.896
72267W        W37494   2.331  19.569   3.311
72268W        W37495  26.960  13.186   0.309
72269W        W37496  38.118  28.906   1.947
72270W        W37497  34.492  38.322  13.125
72271W        W37498   0.992   4.793   3.627
72272W        W37499  27.082   5.781  14.919
72273W        W37500  29.597  19.784  11.639
72274W        W37501  41.302  21.196   3.659
72275W        W37502  28.397  14.151   2.279
72276W        W37503  31.427  43.324   1.549
72277W        W37504  39.429   0.717   1.231
72278W        W37505  41.938   9.886  11.145
72279W        W37506  17.037  17.242   2.274
72280W        W37507  11.005   7.813  13.889
72281W        W37508  17.709   2.326   2.394
72282W        W37509  18.183  38.624   2.280
72283W        W37510  13.477  10.223   3.659
72284W        W37511  17.490  10.411   3.879
72285W        W37512  15.770  32.830   3.225
72286W        W37513  42.914  41.799  14.122
72287W        W37514   4.045  26.261  11.580
72288W        W37515   6.483  14.739  13.454
72289W        W37516  21.790  17.137   4.916
72290W        W37517  36.935  39.377  10.684
72291W        W37518  41.284   4.235   3.326
72292W        W37519   5.169  29.545   4.605
72293W        W37520   7.713  21.074  12.111
72294W        W37521  34.707  13.173  10.980
72295W        W37522  42.798   4.021  11.531
72296W        W37523  12.835  32.991   0.954
72297W        W37524   7.885  38.894  12.462
72298W        W37525  40.524  36.040   4.152
72299W        W37526   1.976  39.612   2.182
72300W        W37527  29.068   2.919  13.738
72301W        W37528  20.807  31.307   1.450
72302W        W37529  24.833  13.966  10.873
72303W        W37530  38.817  20.577  11.348
72304W        W37531  34.054  26.953  14.631
72305W        W37532  26.730  42.892  14.343
72306W        W37533  38.861  30.944  12.008
72307W        W37534  13.884  18.573   0.936
72308W        W37535  30.668  35.744   2.863
72309W        W37536  33.944  26.222   4.575
72310W        W37537  27.351  26.244   2.420
72311W        W37538  19.691   9.336  13.016
72312W        W37539  44.608  29.297  12.556
72313W        W37540   2.808   7.484  13.105
72314W        W37541   7.585  26.067   2.595
72315W        W37542   1.019  12.039  11.554
72316W        W37543   4.739  37.892  13.969
72317W        W37544  38.560  23.218  13.894
72318W        W37545  12.279  14.843  12.403
72319W        W37546  11.240   1.355  11.604
72320W        W37547   4.266  32.623  14.544
72321W        W37548   6.169  15.253  12.468
72322W        W37549  41.085  13.092   3.676
72323W        W37550  40.185   7.271   0.945
72324W        W37551   3.509  28.444   0.179
72325W        W37552  27.840  22.508   2.250
72326W        W37553  15.242  22.511   4.606
72327W        W37554   9.124  25.060  12.540
72328W        W37555   4.552  39.829  13.568
72329W        W37556  16.668  39.427   4.283
72330W        W37557  20.760  36.829  14.855
72331W        W37558  23.956  27.431  13.490
72332W        W37559  13.526  27.862  14.787
72333W        W37560  32.088   5.208  12.563
72334W        W37561  25.775  18.502   1.907
72335W        W37562   5.771   1.104  12.925
72336W        W37563   5.889  18.321   9.832
72337W        W37564  11.391  24.063   2.667
72338W        W37565  29.176  25.446  13.384
72339W        W37566  41.830  37.954   2.330
72340W        W37567   3.971  19.942  11.228
72341W        W37568  25.232  27.554  12.049
72342W        W37569   9.385  36.915   3.559
72343W        W37570  11.062  36.380  11.159
72344W        W37571  37.240  43.754  14.508
72345W        W37572  42.908   0.319  11.967
72346W        W37573  12.573  14.713  12.881
72347W        W37574  13.699  44.224  14.647
72348W        W37575  23.709  39.049  13.153
72349W        W37576  44.057   2.200   0.302
72350W        W37577  38.852  28.030  12.853
72351W        W37578  33.964  42.918   2.201
72352W        W37579  34.576  12.863  14.517
72353W        W37580  38.778  11.547  12.428
72354W        W37581   1.842  33.126  12.513
72355W        W37582  24.768  28.313   0.462
72356W        W37583   3.638  39.092  12.634
72357W        W37584  27.442   6.153   4.590
72358W        W37585  36.016  28.502  10.671
72359W        W37586   1.861  29.920  13.037
72360W        W37587  30.918  44.127   2.007
72361W        W37588  42.398  38.734   1.158
72362W        W37589   1.431  29.688   1.835
72363W        W37590  23.011  18.692   0.414
72364W        W37591  25.984  28.481  14.357
72365W        W37592  10.164  23.497   4.301
72366W        W37593   3.356  12.900  14.950
72367W        W37594  24.635   8.571   0.809
72368W        W37595   9.885  21.633   2.670
72369W        W37596  15.511  35.111  14.875
72370W        W37597   0.550   4.276  10.726
72371W        W37598   1.484  20.296   2.239
72372W        W37599  22.211  17.845   1.038
72373W        W37600  24.994  16.703   4.598
72374W        W37601  21.853  18.998   2.545
72375W        W37602  33.711  13.249  14.410
72376W        W37603  28.934  11.744   2.642
72377W        W37604  38.930  32.240  10.732
72378W        W37605  40.130  14.832  14.452
72379W        W37606  37.070  42.791   9.703
72380W        W37607   3.310  42.545   1.825
72381W        W37608   4.048  12.416  11.130
72382W        W37609  36.027  23.974   0.856
72383W        W37610  26.509  25.895   2.795
72384W        W37611  23.600  34.594   3.213
72385W        W37612  32.908   7.342  14.280
72386W        W37613  36.334  13.292   2.769
72387W        W37614   1.465  31.442  14.131
72388W        W37615  25.709   5.640  14.961
72389W        W37616  44.764  15.229  10.719
72390W        W37617  16.769  17.492  13.814
72391W        W37618  36.712  26.466  10.223
72392W        W37619  24.876  26.403  13.138
72393W        W37620  34.884  23.182  10.579
72394W        W37621  26.837   8.368   4.701
72395W        W37622   8.194  31.391  14.516
72396W        W37623  33.796  21.363  14.853
72397W        W37624   6.539   2.931   4.731
72398W        W37625   7.171  39.378  12.950
72399W        W37626  32.366  12.906   2.889
72400W        W37627   5.924  29.562   4.105
72401W        W37628  28.965  34.814  13.105
72402W        W37629  22.239  39.846  13.318
72403W        W37630   3.422  20.046   2.360
72404W        W37631  10.954  14.371  10.753
72405W        W37632   8.579  32.833   3.951
72406W        W37633   6.204  29.516  10.930
72407W        W37634  32.211  36.550   3.627
72408W        W37635  40.977  31.901   0.751
72409W        W37636  30.297  36.828   0.385
72410W        W37637   8.174  34.010   2.223
72411W        W37638   0.960   4.114  13.598
72412W        W37639  19.228  21.091  12.508
72413W        W37640   2.523   8.702  11.211
72414W        W37641  36.754  32.674   1.426
72415W        W37642  32.883  33.995  13.605
72416W        W37643  24.258  12.639  14.826
72417W        W37644  35.614   4.330  10.697
72418W        W37645  43.015  17.300  10.827
72419W        W37646  29.969  39.848  13.827
72420W        W37647  11.720  30.802   4.971
72421W        W37648  20.345  37.702   3.662
72422W        W37649  15.509   3.983  12.565
72423W        W37650  31.445  42.479   0.326
72424W        W37651   9.863   7.256  13.909
72425W        W37652  44.081   5.191   5.185
72426W        W37653  37.254  32.522   0.047
72427W        W37654   6.763  36.876   4.679
72428W        W37655  28.305   7.233  13.691
72429W        W37656  38.021  21.217  11.277
72430W        W37657   5.021  29.877   1.351
72431W        W37658   3.074  25.950   1.874
72432W        W37659  36.251   7.294   2.196
72433W        W37660   5.561  21.772   3.737
72434W        W37661  17.035  14.579  11.178
72435W        W37662  24.909  32.185   3.658
72436W        W37663  42.804  39.329  14.144
72437W        W37664  16.260   6.939  13.040
72438W        W37665   1.969  30.218  14.417
72439W        W37666  16.499  39.358  10.915
72440W        W37667  22.718  32.527  10.548
72441W        W37668   0.243  11.872   3.680
72442W        W37669   1.211  27.205   0.972
72443W        W37670  14.798  13.807  12.943
72444W        W37671  15.065   4.790  10.759
72445W        W37672  16.775  37.304   2.664
72446W        W37673   5.141  10.391   3.747
72447W        W37674  37.844  35.802   4.054
72448W        W37675   3.821  18.727   2.134
72449W        W37676  10.260  36.789   3.650
72450W        W37677  16.229  32.019   2.958
72451W        W37678   9.798   7.342  11.613
72452W        W37679  31.185  17.733   0.244
72453W        W37680  39.567  37.278  14.874
72454W        W37681  35.619   5.904   2.404
72455W        W37682  38.987  21.847   1.762
72456W        W37683   0.246   1.952   2.858
72457W        W37684   8.774  10.262   1.324
72458W        W37685  29.490  28.189   3.441
72459W        W37686  24.406  32.472  12.224
72460W        W37687  17.831  36.039  11.596
72461W        W37688  36.382  21.805  12.965
72462W        W37689  25.523  16.315  12.362
72463W        W37690   6.077  42.545  11.708
72464W        W37691  37.647  25.846  12.484
72465W        W37692  14.895  35.712   5.034
72466W        W37693  23.177  12.327  14.040
72467W        W37694  39.546   6.993  10.333
72468W        W37695  39.660  21.043   0.434
72469W        W37696  21.000  19.738  14.064
72470W        W37697  24.019  26.932  13.375
72471W        W37698  33.931  12.753   4.584
72472W        W37699   5.796  22.599   2.868
72473W        W37700  29.658  39.483  10.576
72474W        W37701   3.443  15.307  12.131
72475W        W37702  31.668  17.562   0.230
72476W        W37703  38.577  12.834   4.344
72477W        W37704   1.452   4.669   3.870
72478W        W37705  34.202  38.165   3.553
72479W        W37706  21.214  44.213  14.448
72480W        W37707  30.075   3.340   2.644
72481W        W37708   4.287  15.834   1.899
72482W        W37709  12.592  23.212  12.399
72483W        W37710   1.224   9.895  11.223
72484W        W37711  20.957  18.719   4.221
72485W        W37712  40.936  32.108   4.326
72486W        W37713  21.641   0.997   9.811
72487W        W37714  23.638  21.056   3.334
72488W        W37715  18.705  21.821  12.094
72489W        W37716   6.269  19.247   4.473
72490W        W37717  21.099   7.390  10.587
72491W        W37718  13.617   1.660  14.038
72492W        W37719  10.834   7.395   1.503
72493W        W37720   3.451   2.737   3.838
72494W        W37721  18.215  28.424  14.876
72495W        W37722  20.184  42.465   3.708
72496W        W37723  38.329  28.226  12.167
72497W        W37724  19.382  26.626  12.102
72498W        W37725  21.519  21.512   3.154
72499W        W37726  23.994  36.681  12.506
72500W        W37727  38.905  24.306   3.708
72501W        W37728  20.252  21.715  14.903
72502W        W37729   1.268  41.444   3.837
72503W        W37730  43.362  21.779  12.534
72504W        W37731  22.547  44.435   0.286
72505W        W37732  28.738  44.427  11.084
72506W        W37733  44.692  12.311   4.580
72507W        W37734  26.184  32.660  11.973
72508W        W37735  19.123   6.064   0.437
72509W        W37736   3.854  23.753  13.487
72510W        W37737  18.686  30.732  11.067
72511W        W37738  12.245  43.764  13.547
72512W        W37739  13.846  31.530   3.977
72513W        W37740  16.573  42.522   3.276
72514W        W37741   1.360  32.104  12.435
72515W        W37742  26.899   8.926   4.656
72516W        W37743  18.989  41.222  11.636
72517W        W37744  34.485  28.032  11.401
72518W        W37745  21.182  11.664  11.106
72519W        W37746  15.299  19.099  10.764
72520W        W37747  12.251  40.229  11.766
72521W        W37748  29.706   7.279  13.067
72522W        W37749  31.121  11.536  11.432
72523W        W37750  34.046  29.834   4.226
72524W        W37751   7.102  26.433  10.985
72525W        W37752  19.214  37.522  12.996
72526W        W37753  13.167  35.543   4.589
72527W        W37754  31.283  17.638  10.241
72528W        W37755  20.128  31.959   1.969
72529W        W37756  17.308  21.203   0.979
72530W        W37757  14.118  35.342  12.091
72531W        W37758   9.170   1.983  14.916
72532W        W37759  43.343  32.118  11.624
72533W        W37760  42.308   1.687   1.208
72534W        W37761   1.706  23.233  14.438
72535W        W37762  40.455  39.292  10.645
72536W        W37763  23.457   8.286   0.391
72537W        W37764  32.768   0.988   3.894
72538W        W37765  40.583  21.977  14.097
72539W        W37766  27.529  44.423  10.206
72540W        W37767  28.267  27.043   1.762
72541W        W37768  22.610  30.624  13.108
72542W        W37769  38.868  35.671   0.128
72543W        W37770  26.730   1.342   4.587
72544W        W37771  11.796  16.124   2.497
72545W        W37772  21.562  29.546  11.972
72546W        W37773   1.073  12.786   3.768
72547W        W37774   8.849   4.005   3.113
72548W        W37775   7.987   9.623  12.154
72549W        W37776  26.224  29.416  11.020
72550W        W37777  15.860   5.782   4.051
72551W        W37778  15.887  23.582  13.794
72552W        W37779  44.766  16.575   2.110
72553W        W37780  41.926  42.554  13.805
72554W        W37781  44.812  12.307  14.471
72555W        W37782  42.886   9.373  14.339
72556W        W37783  15.590  11.147   1.740
72557W        W37784  39.478  16.072   4.183
72558W        W37785  14.219  20.213  14.657
72559W        W37786  35.266   0.579   0.179
72560W        W37787  31.286  35.524  14.791
72561W        W37788  24.278  14.565   0.778
72562W        W37789   2.859  10.858  13.021
72563W        W37790  15.192  44.084  10.966
72564W        W37791  41.462   1.480  13.032
72565W        W37792  26.465  19.430  12.447
72566W        W37793   1.976  39.614  10.864
72567W        W37794   3.730  35.881   1.013
72568W        W37795  25.220  32.954  11.937
72569W        W37796  11.271  13.997  13.004
72570W        W37797  10.344   6.445  14.879
72571W        W37798   0.047  11.217   2.365
72572W        W37799  40.491  36.092   3.156
72573W        W37800  27.063  30.690   1.687
72574W        W37801  19.504  12.765   3.180
72575W        W37802  40.608  32.480  12.698
72576W        W37803  36.498  35.211  12.521
72577W        W37804  16.126  24.465  13.753
72578W        W37805  40.830  34.441   1.453
72579W        W37806  42.215  16.358   4.540
72580W        W37807   8.111   5.835  14.532
72581W        W37808   2.523   3.235   2.944
72582W        W37809  44.251  21.946   1.105
72583W        W37810  13.605  41.282   2.845
72584W        W37811  10.397  40.289  10.896
72585W        W37812  35.003  16.662  11.880
72586W        W37813  12.837  24.147  13.809
72587W        W37814  15.301  28.982   2.590
72588W        W37815  24.458  16.606  12.991
72589W        W37816  31.816  12.864  11.671
72590W        W37817  16.598  27.111   1.266
72591W        W37818  14.539  14.327   1.625
72592W        W37819  25.074  14.734   1.131
72593W        W37820   8.030  43.684   2.267
72594W        W37821  15.218   9.653  12.428
72595W        W37822  31.540  16.153  13.404
72596W        W37823  26.642  16.506  14.508
72597W        W37824   6.389   1.854   4.048
72598W        W37825  32.016   5.333  11.532
72599W        W37826  35.059  43.935   0.096
72600W        W37827  23.404   6.781   3.633
72601W        W37828  18.587   5.926   0.316
72602W        W37829  13.795  32.940   0.848
72603W        W37830   0.828  14.116  12.948
72604W        W37831  19.564  12.462   0.722
72605W        W37832  31.254  14.691   2.284
72606W        W37833  34.880  17.727   0.755
72607W        W37834  40.538  27.484   1.900
72608W        W37835   0.128  28.416   1.833
72609W        W37836   0.432  18.221  13.346
72610W        W37837  28.236  18.513  14.828
72611W        W37838  24.903  23.622   4.206
72612W        W37839  20.583   7.855   1.712
72613W        W37840  27.015  35.817   0.153
72614W        W37841  42.910  29.112  14.775
72615W        W37842  29.179   7.702  13.490
72616W        W37843  16.871  24.094   1.612
72617W        W37844  29.052  36.121   2.316
72618W        W37845  14.176  44.651   2.325
72619W        W37846  29.117  16.836   4.489
72620W        W37847  34.724   5.335  14.964
72621W        W37848  34.355  22.693   3.279
72622W        W37849  32.126  16.853   2.412
72623W        W37850   5.862  31.912   3.776
72624W        W37851  37.549  36.086  12.909
72625W        W37852   8.119   1.310  13.211
72626W        W37853  36.017   5.281   4.898
72627W        W37854  42.298   3.493  11.444
72628W        W37855  26.470  23.529   2.713
72629W        W37856  23.145  27.323   2.759
72630W        W37857  34.965  16.491  10.654
72631W        W37858  29.511  28.228   2.935
72632W        W37859   5.165  25.037   1.253
72633W        W37860   9.798   6.709   0.902
72634W        W37861  44.072  15.804   0.287
72635W        W37862  23.720  30.003  11.182
72636W        W37863  24.795  35.293  11.282
72637W        W37864  19.810  17.600   0.883
72638W        W37865  35.909  14.051   0.748
72639W        W37866  32.470  30.603  13.316
72640W        W37867  34.728  15.073   0.671
72641W        W37868  31.047  25.078  12.671
72642W        W37869  39.441  30.668  12.290
72643W        W37870  15.756  35.600  14.815
72644W        W37871  18.612  30.952   2.121
72645W        W37872  38.826  36.810   3.646
72646W        W37873  40.656   7.186   4.849
72647W        W37874  12.492  44.560   2.862
72648W        W37875  25.081  10.938  10.757
72649W        W37876  42.935   1.531  12.890
72650W        W37877   7.399  32.380   0.159
72651W        W37878  37.607   1.032   0.854
72652W        W37879  20.509  14.650  11.110
72653W        W37880  20.963  28.271   0.990
72654W        W37881  15.555  35.933  12.428
72655W        W37882  43.769  38.574   4.036
72656W        W37883  13.825  24.741   1.964
72657W        W37884   4.058  36.824   4.099
72658W        W37885  33.301  22.787   3.190
72659W        W37886  33.978   0.545  14.973
72660W        W37887  32.784  33.510  13.308
72661W        W37888  36.071  19.029  10.590
72662W        W37889  30.508  21.087   3.387
72663W        W37890   5.315  34.364   4.260
72664W        W37891   4.669   1.164   3.424
72665W        W37892  31.709   6.399   0.101
72666W        W37893  20.740  15.685  14.335
72667W        W37894  43.544  29.892  10.933
72668W        W37895  40.306  35.504   2.222
72669W        W37896  24.773  29.882  12.044
72670W        W37897  11.253   2.692  11.513
72671W        W37898  13.840  20.528   1.010
72672W        W37899  33.168   7.644   3.256
72673W        W37900   3.450  18.114   1.545
72674W        W37901  37.876   1.723  12.610
72675W        W37902  33.963  11.727   4.536
72676W        W37903   8.088  22.959   3.618
72677W        W37904   8.828  35.907  13.821
72678W        W37905  44.867  30.064  11.165
72679W        W37906  22.403  26.173   1.212
72680W        W37907  28.050  36.688  13.964
72681W        W37908  11.978  33.184  11.687
72682W        W37909  14.163  34.843  12.020
72683W        W37910   3.839  17.094   4.796
72684W        W37911  25.500  10.408   1.324
72685W        W37912  16.752  27.603  10.730
72686W        W37913  44.517   8.895   0.856
72687W        W37914  19.589  29.186  13.560
72688W        W37915  11.231  17.995   2.217
72689W        W37916  30.399  44.546   4.919
72690W        W37917  25.306  35.975   1.615
72691W        W37918  13.751  21.944   3.616
72692W        W37919  32.708   4.447   4.909
72693W        W37920   3.444   5.022  10.326
72694W        W37921   0.176  12.231  14.105
72695W        W37922   8.283  28.630   0.469
72696W        W37923  39.799  44.203   0.546
72697W        W37924   1.501  22.625  13.459
72698W        W37925  44.762  21.949  12.593
72699W        W37926  29.897  15.585   0.302
72700W        W37927  23.534  43.752  13.388
72701W        W37928   6.412  35.866   3.740
72702W        W37929  38.287  32.536  13.739
72703W        W37930  43.869  44.809   4.411
72704W        W37931  39.040   3.443   1.686
72705W        W37932  27.736   1.217   3.756
72706W        W37933  11.683  23.160  12.488
72707W        W37934  34.370   1.787   1.859
72708W        W37935  15.709  12.648   1.700
72709W        W37936  38.602  19.649  10.916
72710W        W37937  36.865  11.421  10.591
72711W        W37938   2.474   0.108   3.156
72712W        W37939   1.696  16.088  12.088
72713W        W37940   5.139  40.444  14.904
72714W        W37941  11.268  40.205   0.407
72715W        W37942  13.105  35.087  10.300
72716W        W37943  44.243  12.144   1.844
72717W        W37944  25.944  25.757  10.732
72718W        W37945  20.097  42.894   4.516
72719W        W37946  44.057  39.233  10.804
72720W        W37947  12.298  29.389  11.977
72721W        W37948  29.258   2.923   3.222
72722W        W37949  32.013   3.453   3.191
72723W        W37950  20.815  19.988  14.509
72724W        W37951  11.188  42.771   2.151
72725W        W37952  34.890  35.915  10.559
72726W        W37953  27.743  15.804  13.019
72727W        W37954  15.661   7.771  11.682
72728W        W37955  36.986  38.990   0.337
72729W        W37956  17.096  18.009   4.614
72730W        W37957  42.914  12.974  14.389
72731W        W37958  42.362  36.303   2.464
72732W        W37959  13.836   7.832   3.212
72733W        W37960  19.531  22.528  10.683
72734W        W37961  14.401  44.997   0.791
72735W        W37962  37.667  41.481  11.590
72736W        W37963   2.850  24.860   0.381
72737W        W37964  20.819  11.835   1.087
72738W        W37965  21.152  12.647   4.232
72739W        W37966  32.117   2.675   3.588
72740W        W37967  17.595  40.210   0.361
72741W        W37968  34.555  24.502   1.316
72742W        W37969  33.920  12.325   0.883
72743W        W37970  19.653  15.608   4.610
72744W        W37971  12.895  35.849  12.546
72745W        W37972  25.998   3.774   1.228
72746W        W37973   1.686  43.456  13.746
72747W        W37974   7.341  18.516   0.267
72748W        W37975  16.504   3.008  11.653
72749W        W37976   5.822  12.978  11.281
72750W        W37977  34.152   7.240  12.880
72751W        W37978  35.136  33.156  13.082
72752W        W37979   9.713   6.771   3.607
72753W        W37980  38.570  16.271   2.893
72754W        W37981  13.687  19.762  12.536
72755W        W37982  33.633   1.863   0.765
72756W        W37983   7.271  34.684   1.032
72757W        W37984  16.479  42.171   0.666
72758W        W37985  27.212  16.144   0.833
72759W        W37986  38.931  19.020  12.055
72760W        W37987   3.965  38.397  11.445
72761W        W37988  44.935  10.792   2.693
72762W        W37989  16.787  17.291   3.840
72763W        W37990   3.858   3.315   3.567
72764W        W37991  15.151  42.021  12.336
72765W        W37992  29.429  23.205   0.181
72766W        W37993  35.518  31.551  12.699
72767W        W37994  38.657  40.848  14.453
72768W        W37995  16.350  34.496  11.901
72769W        W37996  26.750   9.228  11.973
72770W        W37997   0.529   3.257  14.937
72771W        W37998  19.820  38.723  14.314
72772W        W37999  21.140  30.147  10.473
72773W        W38000  19.606  34.992  10.667
72774W        W38001  34.920  21.504  12.414
72775W        W38002   6.171  24.120  14.940
72776W        W38003  20.656  17.300  12.439
72777W        W38004   8.638  12.529  10.193
72778W        W38005   8.199   6.736   4.557
72779W        W38006  15.624  19.531   0.850
72780W        W38007  30.284   0.212  11.611
72781W        W38008  35.860   2.374   1.502
72782W        W38009  33.556  25.624  11.066
72783W        W38010  26.724  40.029  10.596
72784W        W38011  40.371  31.621   0.557
72785W        W38012  34.936  43.220  11.558
72786W        W38013  38.463  30.202  14.782
72787W        W38014  29.079  32.835   2.781
72788W        W38015  36.802  39.474   3.627
72789W        W38016  35.804   8.517   5.053
72790W        W38017   0.176  31.520  11.967
72791W        W38018  28.196  25.848   2.137
72792W        W38019   0.845   8.205  11.164
72793W        W38020   7.236  14.056   1.180
72794W        W38021  38.928  22.462   0.158
72795W        W38022   1.307  13.440   1.165
72796W        W38023  31.179   5.939   4.492
72797W        W38024  29.580   9.644  10.983
72798W        W38025  27.963  29.947  13.853
72799W        W38026  29.205  12.021  13.428
72800W        W38027  38.470  41.998   0.191
72801W        W38028  39.619  36.777  14.769
72802W        W38029  20.994  35.408   3.127
72803W        W38030  20.747  38.601  10.594
72804W        W38031  31.849  37.940   4.933
72805W        W38032  18.332  39.386  12.386
72806W        W38033   4.839   9.797   4.628
72807W        W38034  18.807  22.731  14.108
72808W        W38035  24.048  15.344   2.872
72809W        W38036  13.350   4.166  13.598
72810W        W38037   6.419  33.523  13.967
72811W        W38038  14.844  39.029  14.690
72812W        W38039  17.275   6.838  12.004
72813W        W38040  33.086  20.256  12.571
72814W        W38041   5.396  37.708  14.436
72815W        W38042  40.323   8.062   4.170
72816W        W38043   1.325  16.295   2.545
72817W        W38044  23.771   9.480   1.285
72818W        W38045  10.214  18.139  14.339
72819W        W38046  18.087  19.447  14.089
72820W        W38047  36.903  18.151  11.423
72821W        W38048  13.878  40.622   0.971
72822W        W38049  23.460   2.573  11.115
72823W        W38050   5.415  14.720  13.526
72824W        W38051  26.129   7.379   4.588
72825W        W38052  28.928  21.709   1.909
72826W        W38053  39.368  21.058  10.853
72827W        W38054  23.040   5.391  13.388
72828W        W38055  31.663  36.813  13.467
72829W        W38056  17.919  27.482   2.957
72830W        W38057   7.073  25.803  14.344
72831W        W38058  22.978  29.928  10.764
72832W        W38059  15.908  18.641   0.698
72833W        W38060   4.502  20.124   2.325
72834W        W38061  29.953  42.503   2.399
72835W        W38062  10.846   2.537  11.844
72836W        W38063  22.122   5.074   2.808
72837W        W38064  23.996  10.096   3.672
72838W        W38065   6.792   1.828   2.329
72839W        W38066   2.518  13.557  11.602
72840W        W38067   6.508  28.891  11.625
72841W        W38068  40.889   2.657  12.680
72842W        W38069  35.969  31.513  11.372
72843W        W38070  42.719  12.345  11.312
72844W        W38071  24.855  16.765  14.974
72845W        W38072   2.129  22.957  11.044
72846W        W38073  27.644  40.485  11.512
72847W        W38074   1.047  16.254   5.284
72848W        W38075  12.887  16.294   2.594
72849W        W38076  38.539  25.977  14.378
72850W        W38077  38.376   8.699   1.674
72851W        W38078  27.671   1.639   2.378
72852W        W38079   4.404  11.565  12.036
72853W        W38080  38.986  21.489  14.914
72854W        W38081  29.093  43.947  13.156
72855W        W38082   6.431   2.769   2.628
72856W        W38083  25.560  32.648  13.482
72857W        W38084  35.969  39.333   4.232
72858W        W38085   7.932  32.453  12.510
72859W        W38086  27.506  27.177   4.565
72860W        W38087   8.204  24.671  14.450
72861W        W38088  19.264  16.487   1.325
72862W        W38089  21.993  41.794  12.971
72863W        W38090  10.777  44.846  10.847
72864W        W38091  13.133  30.626  13.363
72865W        W38092  34.442  18.103   2.224
72866W        W38093  42.951   2.273  11.043
72867W        W38094  29.019  10.904  14.852
72868W        W38095  22.783  37.900   2.805
72869W        W38096  21.791  14.847  11.976
72870W        W38097  29.852  42.455   4.627
72871W        W38098   2.673   0.388   0.864
72872W        W38099  28.721  43.594   1.069
72873W        W38100  36.957  16.252   2.335
72874W        W38101  13.118  16.244  13.020
72875W        W38102  33.444   1.239  10.732
72876W        W38103  27.664  27.830  11.462
72877W        W38104  24.115  25.552  12.328
72878W        W38105  17.907  39.245   3.181
72879W        W38106   1.514   2.302   1.698
72880W        W38107  41.272  31.080   2.380
72881W        W38108  13.744  13.632   2.582
72882W        W38109  29.866  42.148   4.219
72883W        W38110   6.500  28.125   2.453
72884W        W38111  18.999  31.814   0.352
72885W        W38112  31.781  14.792  13.380
72886W        W38113  44.339   2.797  13.019
72887W        W38114  39.970   7.880   2.128
72888W        W38115  15.327  13.836  12.952
72889W        W38116   1.388  39.721   3.631
72890W        W38117  32.213  17.008  14.655
72891W        W38118   1.956  34.981  13.795
72892W        W38119  25.651  34.367   1.704
72893W        W38120  18.835  32.339   2.672
72894W        W38121   8.828  21.956   0.873
72895W        W38122  24.038  15.222  12.644
72896W        W38123  39.034  12.044  12.446
72897W        W38124  21.213  18.821  11.149
72898W        W38125  40.931  10.304  12.631
72899W        W38126  20.190  26.658   3.263
72900W        W38127  18.792  10.950   4.421
72901W        W38128  37.041  34.867   0.721
72902W        W38129  24.255  29.015   0.166
72903W        W38130  23.580  22.459   3.837
72904W        W38131  19.162  43.117   3.189
72905W        W38132  39.310  35.043   0.491
72906W        W38133  13.378  31.596  11.926
72907W        W38134  43.276  40.376   1.960
72908W        W38135   7.441  37.904   4.252
72909W        W38136  29.502  19.320  14.857
72910W        W38137  25.917   8.759   1.285
72911W        W38138  28.068  34.030  11.526
72912W        W38139  30.477   1.639   3.643
72913W        W38140  22.552  21.700   3.419
72914W        W38141  21.162  17.479   4.180
72915W        W38142  16.600  17.714  10.469
72916W        W38143  16.740  38.111   3.239
72917W        W38144  40.393  41.487  11.163
72918W        W38145   9.395  21.676  10.664
72919W        W38146  13.689  21.960   0.401
72920W        W38147   9.507  13.285   2.307
72921W        W38148  22.697  22.495  11.585
72922W        W38149  44.279  27.627  10.378
72923W        W38150  36.836  36.823  12.512
72924W        W38151  44.725  35.908  13.383
72925W        W38152  12.190  31.243   1.289
72926W        W38153  35.954  30.646  11.224
72927W        W38154  33.308  18.736   1.200
72928W        W38155  33.371  36.268  12.093
72929W        W38156   4.109  35.101   3.042
72930W        W38157  15.582  38.232   1.331
72931W        W38158   7.789  25.057   3.142
72932W        W38159   0.486  18.330   1.005
72933W        W38160  39.614  37.296  11.026
72934W        W38161  28.826  15.295   9.811
72935W        W38162   9.742  18.943   5.272
72936W        W38163  33.760  22.202   1.031
72937W        W38164   6.167  20.628   1.979
72938W        W38165  12.835  26.732  12.031
72939W        W38166  12.328  24.588  11.298
72940W        W38167  20.632  30.996   0.310
72941W        W38168  24.033  12.650  12.488
72942W        W38169  36.441  28.676  13.339
72943W        W38170  33.591  15.513   4.011
72944W        W38171  26.861  31.783  11.635
72945W        W38172  28.423  42.796   1.690
72946W        W38173  42.858  12.465   0.155
72947W        W38174   9.921   3.193   4.094
72948W        W38175  21.525  19.781  14.077
72949W        W38176   9.147   1.530  11.358
72950W        W38177  29.032  26.069   2.066
72951W        W38178  28.844   3.181  10.784
72952W        W38179  16.639  41.028  11.400
72953W        W38180  41.895  12.737  14.227
72954W        W38181  35.149  30.553  11.295
72955W        W38182  15.252  32.896  11.079
72956W        W38183   8.187  18.743  14.775
72957W        W38184   0.052  19.651  14.695
72958W        W38185  38.271  39.054  13.409
72959W        W38186   9.346  32.038   1.845
72960W        W38187   5.239  21.087   1.329
72961W        W38188  32.947  21.921   3.170
72962W        W38189  32.474  17.181  13.575
72963W        W38190  26.138  15.207   1.725
72964W        W38191  40.498  35.381   3.506
72965W        W38192  21.953   4.809  13.906
72966W        W38193  14.618  17.089   1.125
72967W        W38194  27.702  42.977  11.578
72968W        W38195  36.316  39.135   0.148
72969W        W38196  40.828  15.929  10.597
72970W        W38197  19.531  26.244   0.388
72971W        W38198  26.193  17.863  12.023
72972W        W38199   3.410   8.106   2.281
72973W        W38200  30.306  22.181  14.432
72974W        W38201  38.961  30.619  10.799
72975W        W38202  32.238   6.235  14.527
72976W        W38203  21.641  15.798  11.541
72977W        W38204   4.842  32.174  13.503
72978W        W38205  40.275  38.924  14.920
72979W        W38206  14.337  39.283   3.139
72980W        W38207  44.885  12.344  11.022
72981W        W38208  35.627  37.930  10.626
72982W        W38209  17.567   4.343  11.599
72983W        W38210  10.224  36.754  13.313
72984W        W38211  20.992  22.688   3.604
72985W        W38212  24.538   1.269  12.021
72986W        W38213  15.352  42.879   0.424
72987W        W38214  39.361   0.423  11.556
72988W        W38215  27.977  20.325  12.137
72989W        W38216  20.110  40.839   4.851
72990W        W38217  12.124   4.567  13.020
72991W        W38218  43.857  12.734   4.543
72992W        W38219  39.610   0.578   4.147
72993W        W38220  37.011  27.636   2.659
72994W        W38221  15.719   4.064  11.636
72995W        W38222  29.562  40.915  14.480
72996W        W38223  23.102  10.189  12.446
72997W        W38224  12.852  32.401  12.310
72998W        W38225  41.320   0.877   3.572
72999W        W38226  30.933  16.486   1.021
73000W        W38227   0.744  39.024  11.951
73001W        W38228  28.690  30.172  11.188
73002W        W38229  42.480  31.227  11.570
73003W        W38230   5.165  21.995  13.225
73004W        W38231   8.609   4.801   0.933
73005W        W38232   9.957  33.785  12.462
73006W        W38233  34.207  41.411   4.961
73007W        W38234   9.262  33.165  10.535
73008W        W38235   5.696   3.015   3.159
73009W        W38236  22.657   7.517  13.089
73010W        W38237  41.510  26.231   3.123
73011W        W38238  44.773   4.510  10.893
73012W        W38239  14.816  18.922  11.309
73013W        W38240  43.271  17.849  11.390
73014W        W38241  25.496  17.732   3.684
73015W        W38242  33.179  14.481   4.477
73016W        W38243  21.713  19.287   1.683
73017W        W38244  32.893   5.500  13.023
73018W        W38245  36.603  22.065  12.072
73019W        W38246  34.629  22.729  10.703
73020W        W38247  15.325  15.801   3.452
73021W        W38248  32.614   3.262  12.631
73022W        W38249  23.152  33.990  14.546
73023W        W38250  14.958  31.028  13.840
73024W        W38251   3.883  34.709   3.884
73025W        W38252  19.527   6.518   5.084
73026W        W38253   3.990  38.034   4.236
73027W        W38254  37.387   9.287   4.527
73028W        W38255  31.815  39.402   0.297
73029W        W38256  26.785  40.910  11.137
73030W        W38257  22.679  13.709   2.158
73031W        W38258  29.658  41.969   3.796
73032W        W38259  43.969  21.523  14.285
73033W        W38260  35.829  27.494   3.064
73034W        W38261   8.176  11.688   3.097
73035W        W38262  18.192  35.069  13.808
73036W        W38263  19.676  27.061  11.230
73037W        W38264  19.688  17.340  11.690
73038W        W38265  43.479  31.396   3.735
73039W        W38266  37.825  12.329   4.664
73040W        W38267  14.689  36.367   2.300
73041W        W38268  30.623  13.690   0.993
73042W        W38269   6.304  31.073  13.577
73043W        W38270  19.175  25.493  13.498
73044W        W38271  26.521  32.780   2.097
73045W        W38272  37.064  33.596  12.380
73046W        W38273  33.214  31.409   4.850
73047W        W38274  14.687  10.578   1.321
73048W        W38275   8.434  37.516   3.168
73049W        W38276   8.097   0.078   3.556
73050W        W38277  10.131  43.860   0.386
73051W        W38278  31.825  29.468  14.071
73052W        W38279   0.781  33.479  10.757
73053W        W38280  32.528   5.667   4.130
73054W        W38281  30.963   7.703   1.657
73055W        W38282   0.406  40.502   4.124
73056W        W38283   7.248  27.353  10.410
73057W        W38284   4.856  15.548  13.886
73058W        W38285  20.252   9.074   3.610
73059W        W38286   0.848  19.120   2.317
73060W        W38287  40.293  12.038  10.939
73061W        W38288  20.792  13.908  14.419
73062W        W38289  39.433  20.316  14.943
73063W        W38290  19.822  41.299  11.207
73064W        W38291  23.292  42.470  11.090
73065W        W38292  38.333  36.936   3.595
73066W        W38293  20.015   7.613  12.904
73067W        W38294  35.120  35.404  14.453
73068W        W38295  40.064   1.298  13.474
73069W        W38296  36.397  17.646  12.615
73070W        W38297  15.267  32.116   1.584
73071W        W38298   9.192   8.303   1.962
73072W        W38299  42.561  16.666  11.612
73073W        W38300  29.218  29.759  14.459
73074W        W38301  12.824  19.695  12.987
73075W        W38302  18.761  42.783   3.104
73076W        W38303  30.719  31.597   0.456
73077W        W38304  21.543  44.969   0.325
73078W        W38305  20.566  30.129  14.238
73079W        W38306  27.566  17.361  14.849
73080W        W38307   7.247  20.257  14.912
73081W        W38308  40.981  12.536  12.428
73082W        W38309  44.401  30.214   4.505
73083W        W38310  44.907  33.555   4.525
73084W        W38311  23.564  18.132   4.502
73085W        W38312  44.551  16.867  13.138
73086W        W38313   3.796  39.787   1.727
73087W        W38314  11.710  38.901   3.266
73088W        W38315  23.105  42.951   3.754
73089W        W38316  11.292   0.183   3.660
73090W        W38317  24.692  19.103   1.845
73091W        W38318  31.528  19.524  12.108
73092W        W38319  17.980  37.887  12.349
73093W        W38320  26.513  12.488   0.987
73094W        W38321  23.774   8.351  14.941
73095W        W38322  44.223   4.256  11.938
73096W        W38323   6.242  17.428   4.107
73097W        W38324  36.598  20.052  14.841
73098W        W38325  36.182   2.421  14.970
73099W        W38326   7.951  44.609   3.399
73100W        W38327  25.620  31.490   0.263
73101W        W38328  17.789   4.437   4.623
73102W        W38329  18.138  30.401  14.952
73103W        W38330  27.355  43.710  12.954
73104W        W38331  41.852  44.306   2.204
73105W        W38332   7.796  38.761   3.687
73106W        W38333  18.166   5.007  13.392
73107W        W38334   1.271  23.761   3.647
73108W        W38335  40.025  30.762  12.562
73109W        W38336  19.821  10.331   3.279
73110W        W38337   2.884  16.536   4.518
73111W        W38338  34.274  18.298  10.452
73112W        W38339  38.966  28.555  13.765
73113W        W38340  33.551  18.013  11.495
73114W        W38341   9.650  17.185  12.550
73115W        W38342  29.448  41.994  11.587
73116W        W38343  11.355  39.005   0.524
73117W        W38344  10.460  17.198  14.808
73118W        W38345  18.348  37.387  11.004
73119W        W38346  22.672  23.693   1.486
73120W        W38347  25.410  42.899   4.106
73121W        W38348  16.212  27.943   2.312
73122W        W38349  17.195   5.931   1.991
73123W        W38350  10.481  13.275  11.538
73124W        W38351  31.060  40.495  14.034
73125W        W38352   7.899   7.553  14.959
73126W        W38353   5.759  35.817   2.283
73127W        W38354  34.501  31.583  11.184
73128W        W38355  40.110  16.740  10.559
73129W        W38356  12.640  37.079   1.878
73130W        W38357  27.756  27.132   1.783
73131W        W38358   1.782   6.491  14.962
73132W        W38359  23.028  19.012   2.632
73133W        W38360   3.011  21.566   2.402
73134W        W38361   6.737   0.712   3.607
73135W        W38362  42.669  37.013   4.645
73136W        W38363  44.246  38.518  14.428
73137W        W38364  36.064  22.365   3.290
73138W        W38365  35.890   4.685   4.034
73139W        W38366   9.020  18.828   3.193
73140W        W38367  13.943   1.913  13.594
73141W        W38368  16.214  23.060  12.609
73142W        W38369   4.796  43.482  12.928
73143W        W38370  36.219  16.068   1.656
73144W        W38371  11.844  19.421  14.466
73145W        W38372  40.762   3.334  10.583
73146W        W38373  13.689  13.803  12.229
73147W        W38374  44.501  14.259  12.964
73148W        W38375  19.709  43.535  10.756
73149W        W38376   5.005  31.172   4.705
73150W        W38377  15.346   0.339  10.770
73151W        W38378  20.424  15.724  12.410
73152W        W38379  12.342  13.105   1.176
73153W        W38380  11.005  26.235  12.119
73154W        W38381  44.585  15.795   1.198
73155W        W38382  40.453  22.552  12.802
73156W        W38383   2.753  21.340   0.313
73157W        W38384   6.843  21.789   1.112
73158W        W38385  14.918  18.803   2.660
73159W        W38386  13.151  44.774  11.193
73160W        W38387   7.064  11.632  11.527
73161W        W38388  12.548   1.142  12.121
73162W        W38389  28.151  41.783  11.675
73163W        W38390  41.748  26.475  12.990
73164W        W38391  43.326   8.432   3.795
73165W        W38392  12.404  38.458  14.822
73166W        W38393  19.762  20.645   0.137
73167W        W38394  30.009  22.994   0.663
73168W        W38395   4.584  42.727   3.224
73169W        W38396  18.675   8.886   4.706
73170W        W38397  34.312   3.756   3.247
73171W        W38398   3.758  30.185  14.918
73172W        W38399  33.137  31.598  13.451
73173W        W38400  25.002  43.328  13.070
73174W        W38401   8.609  36.521   1.987
73175W        W38402  24.448   0.998   0.020
73176W        W38403  37.828  22.087  12.616
73177W        W38404  33.980   3.780  11.400
73178W        W38405  32.391  32.601  13.061
73179W        W38406   1.442  35.160  10.682
73180W        W38407  40.179  22.677  11.275
73181W        W38408  30.424   7.662  14.879
73182W        W38409  14.078  13.269   1.854
73183W        W38410  20.534  30.470  11.641
73184W        W38411  25.306  34.462   3.605
73185W        W38412   9.064  20.429  12.109
73186W        W38413  19.331  41.325  13.731
73187W        W38414  24.149  42.377  10.682
73188W        W38415   2.464  28.090   0.957
73189W        W38416  28.840   2.130  13.478
73190W        W38417  21.074  17.982   0.418
73191W        W38418  10.351  31.095  13.791
73192W        W38419  19.665   1.565   0.013
73193W        W38420  13.891  26.415   2.306
73194W        W38421  19.499   0.546  13.945
73195W        W38422  43.029   8.778   1.313
73196W        W38423  24.638   9.619  12.921
73197W        W38424  15.519  22.453   4.173
73198W        W38425  40.288  28.995  12.507
73199W        W38426  10.714   7.729   3.277
73200W        W38427  31.096  16.008  11.431
73201W        W38428   6.727  25.289  13.902
73202W        W38429  36.764  35.460  10.787
73203W        W38430  32.920  19.133   2.819
73204W        W38431   0.626  27.547   2.739
73205W        W38432  14.854   5.474   4.130
73206W        W38433   9.329  37.915   2.294
73207W        W38434  38.930   9.423   2.436
73208W        W38435  16.259   8.704  13.009
73209W        W38436  37.427  11.408   2.103
73210W        W38437  29.867  25.039   1.771
73211W        W38438   7.707   6.903   1.966
73212W        W38439  28.754   4.980   1.911
73213W        W38440  40.096  38.791  14.053
73214W        W38441   5.001  39.881   4.075
73215W        W38442   9.352   0.670   0.214
73216W        W38443  41.939  12.459  11.146
73217W        W38444  42.003  34.463  14.903
73218W        W38445   6.891  19.087  12.481
73219W        W38446  10.183   8.422   3.176
73220W        W38447  39.135  35.677   1.822
73221W        W38448  42.502  14.360   2.719
73222W        W38449  39.226   6.668  12.635
73223W        W38450  44.477   0.964  12.549
73224W        W38451  41.723  19.123  11.093
73225W        W38452  16.604  42.400  14.241
73226W        W38453   8.490  29.007   0.790
73227W        W38454  33.979  10.855   2.328
73228W        W38455  15.164  37.259   1.353
73229W        W38456  33.821  25.486   3.453
73230W        W38457  39.600  39.774   0.899
73231W        W38458  14.639  32.651   0.593
73232W        W38459  13.201  27.001  11.229
73233W        W38460   1.571  16.640   2.855
73234W        W38461  40.349  24.310   3.268
73235W        W38462   8.980  41.170   0.959
73236W        W38463  29.691  37.642   1.401
73237W        W38464  24.788  40.547  11.094
73238W        W38465   7.260  15.504  13.218
73239W        W38466  36.447  25.777  13.283
73240W        W38467  38.293  34.833  14.482
73241W        W38468  33.062  38.981  14.010
73242W        W38469   8.699   3.200   0.862
73243W        W38470  37.471  23.242   4.952
73244W        W38471   1.258  25.724  14.897
73245W        W38472  14.344  20.299  12.956
73246W        W38473  17.680   2.927   3.027
73247W        W38474  24.271  28.933  14.612
73248W        W38475   1.222  26.881   2.226
73249W        W38476  24.912  10.629   3.570
73250W        W38477   5.137  26.168  12.368
73251W        W38478   9.712   0.285  13.456
73252W        W38479  15.066  11.850   4.070
73253W        W38480  32.639  10.139   0.815
73254W        W38481  11.121   1.305   2.683
73255W        W38482  31.347  39.549   3.254
73256W        W38483  38.553  12.148  14.479
73257W        W38484  40.571  27.151   0.664
73258W        W38485   7.821  28.613   3.752
73259W        W38486   6.044  37.278   0.271
73260W        W38487  25.542  29.455   1.665
73261W        W38488  42.823   4.099  12.545
73262W        W38489  41.931  11.539  11.865
73263W        W38490   5.901   4.673   3.764
73264W        W38491  18.647  13.859   0.827
73265W        W38492   8.894   9.793   1.033
73266W        W38493  38.849  18.250  11.236
73267W        W38494  44.852  16.570  12.139
73268W        W38495  31.995   1.780  10.828
73269W        W38496  40.056   9.888  14.738
73270W        W38497  37.936  38.665   3.801
73271W        W38498   5.503  21.180   1.848
73272W        W38499  34.334  28.919   3.584
73273W        W38500   3.978  24.502   0.540
73274W        W38501  24.129   6.177   2.780
73275W        W38502  12.817  20.356  14.238
73276W        W38503  21.554  36.417   4.606
73277W        W38504  36.999  24.632  13.344
73278W        W38505  44.193  21.532   1.740
73279W        W38506  41.854  10.159   4.629
73280W        W38507  16.331  25.897  13.528
73281W        W38508  26.503  11.080  11.552
73282W        W38509  31.957  40.878  11.221
73283W        W38510  22.569   5.331   0.912
73284W        W38511  15.211  42.033  10.741
73285W        W38512  15.782  27.557   0.463
73286W        W38513  23.483   4.386   3.548
73287W        W38514  12.832   4.105  14.460
73288W        W38515  26.701  22.257  14.054
73289W        W38516  18.586  19.824  12.245
73290W        W38517  10.376   0.304  11.935
73291W        W38518  21.092  16.004   4.812
73292W        W38519   1.591  23.721  13.049
73293W        W38520   4.244  31.584  12.902
73294W        W38521  44.687  20.150   9.756
73295W        W38522  42.315  10.814  14.800
73296W        W38523  41.991   0.273  11.897
73297W        W38524  43.786   6.436  11.650
73298W        W38525  41.155  32.043   2.174
73299W        W38526   1.447  39.862   3.112
73300W        W38527  37.934   3.815  14.870
73301W        W38528   1.649  15.822  12.982
73302W        W38529  18.449  23.629   1.720
73303W        W38530  40.071   7.278  12.570
73304W        W38531  16.762  24.988  11.597
73305W        W38532   9.103   1.424   4.146
73306W        W38533  13.672  27.094   1.508
73307W        W38534   4.579  40.781  11.625
73308W        W38535  32.831  25.166  11.930
73309W        W38536  25.993  39.856  14.476
73310W        W38537  15.646  19.851   1.259
73311W        W38538  18.669  19.961  11.406
73312W        W38539   9.814  16.988   4.554
73313W        W38540   3.947  35.560  11.134
73314W        W38541  20.622  10.421  12.143
73315W        W38542  20.328   1.209   1.429
73316W        W38543  14.012   4.025   3.209
73317W        W38544   0.643  25.613  12.188
73318W        W38545  30.737  39.501  11.432
73319W        W38546  25.984  16.792   1.946
73320W        W38547  30.742  36.063   1.624
73321W        W38548   6.139   0.530  10.689
73322W        W38549  44.418  44.025   1.195
73323W        W38550   1.854  40.304  12.346
73324W        W38551  20.263  34.212   3.311
73325W        W38552   8.509  33.317  14.869
73326W        W38553  40.074   5.768   2.331
73327W        W38554  18.459   4.050  11.948
73328W        W38555  28.514  13.704  10.689
73329W        W38556  13.244  38.071   0.110
73330W        W38557   3.848  37.651   1.050
73331W        W38558   9.250  27.716  11.687
73332W        W38559  14.286  13.761  13.025
73333W        W38560  17.896   9.224  14.775
73334W        W38561  27.480  19.492   4.239
73335W        W38562  18.802   1.479  11.527
73336W        W38563  26.825  16.495   0.889
73337W        W38564  42.077  27.740  14.860
73338W        W38565  24.666   9.707  12.016
73339W        W38566  27.515  27.277   3.624
73340W        W38567  20.429   9.636  10.674
73341W        W38568  31.928  34.375  13.073
73342W        W38569   3.561   7.479  11.674
73343W        W38570  19.797   3.467   3.169
73344W        W38571  14.710  41.830  13.104
73345W        W38572   8.313  41.902   4.642
73346W        W38573  17.105  33.812   1.168
73347W        W38574  27.953  29.653   4.287
73348W        W38575  31.962  29.942  11.813
73349W        W38576  31.195  12.049   1.881
73350W        W38577   4.523  32.530   4.577
73351W        W38578  43.964  27.199  14.540
73352W        W38579  25.545   5.035  12.943
73353W        W38580  15.847   0.007   3.266
73354W        W38581  17.916  13.520   3.737
73355W        W38582  39.104  12.563  11.698
73356W        W38583  35.755  13.200   3.316
73357W        W38584  24.035  21.379   3.408
73358W        W38585  28.582   2.840   3.942
73359W        W38586  17.343  29.982   2.572
73360W        W38587  11.255  41.050  13.104
73361W        W38588  10.808  30.696  11.991
73362W        W38589  32.387  34.000   5.313
73363W        W38590  20.522   1.734   0.889
73364W        W38591  22.181  21.276   0.444
73365W        W38592  29.382  23.320  12.643
73366W        W38593  28.476  36.880   0.221
73367W        W38594  39.141  15.621   4.998
73368W        W38595  32.129  10.383   3.585
73369W        W38596  27.685   7.710   2.226
73370W        W38597  18.590  24.344  12.052
73371W        W38598  12.269  28.941   0.433
73372W        W38599  36.383  14.635  12.893
73373W        W38600  24.540  35.688  12.894
73374W        W38601  42.467  25.154   4.165
73375W        W38602  26.293  18.364  11.965
73376W        W38603  23.330  22.063   4.119
73377W        W38604  34.864  35.076  13.783
73378W        W38605  24.535  31.496   4.114
73379W        W38606  42.054  34.415   4.488
73380W        W38607  15.515  15.918  14.599
73381W        W38608  13.172  21.954   0.243
73382W        W38609  26.129   6.310   3.628
73383W        W38610  15.896   2.773  14.380
73384W        W38611  13.960  39.625   3.254
73385W        W38612  12.572  37.013  11.600
73386W        W38613  12.800  33.390   2.278
73387W        W38614   2.524  14.487   1.926
73388W        W38615   6.870  43.803   1.715
73389W        W38616   4.782  18.847   2.460
73390W        W38617  32.407  14.758  13.046
73391W        W38618  19.533  18.679  12.529
73392W        W38619  11.036  44.032  14.329
73393W        W38620  38.037  26.984  14.728
73394W        W38621   4.802  34.978   0.829
73395W        W38622  22.736  40.063   2.382
73396W        W38623  24.007  36.477  11.725
73397W        W38624   4.923  40.918   2.987
73398W        W38625  35.534  22.596  13.121
73399W        W38626   0.657  23.096   5.005
73400W        W38627  21.567  14.089   3.139
73401W        W38628  20.738  34.026   1.529
73402W        W38629  12.648  41.591   0.831
73403W        W38630  29.753   4.784   4.134
73404W        W38631  37.492  35.528   2.269
73405W        W38632  36.093  24.889   2.675
73406W        W38633  20.211  11.450  13.948
73407W        W38634  32.194  37.042  11.686
73408W        W38635  43.544  11.174  13.679
73409W        W38636  23.527  19.170   4.498
73410W        W38637  22.268  13.664  11.713
73411W        W38638  17.812  32.369  11.949
73412W        W38639  34.454  17.827  11.697
73413W        W38640   8.260  18.790   0.751
73414W        W38641  12.105  14.655   3.590
73415W        W38642  31.827  34.531   0.243
73416W        W38643  14.600  22.194   4.674
73417W        W38644  42.721  19.032   3.098
73418W        W38645  19.626  39.047   0.356
73419W        W38646  43.776   4.811   0.963
73420W        W38647   5.176  43.520  14.412
73421W        W38648  36.052  13.568  11.450
73422W        W38649   9.333  44.911   0.707
73423W        W38650  12.417  41.337  11.947
73424W        W38651  24.802  44.084   0.855
73425W        W38652   6.468  24.931   1.848
73426W        W38653  23.589  11.234  14.494
73427W        W38654  24.955  43.104  13.762
73428W        W38655  38.509  40.464  13.089
73429W        W38656  31.992  34.385  12.582
73430W        W38657  16.808  25.086  12.820
73431W        W38658  41.552  15.105   0.257
73432W        W38659  14.571   3.718  11.161
73433W        W38660   3.274  32.647  14.093
73434W        W38661  24.754  24.939  13.026
73435W        W38662   7.964  21.800   2.630
73436W        W38663  40.103   5.004   0.841
73437W        W38664  24.004  24.151  13.346
73438W        W38665  10.594  25.870   1.738
73439W        W38666  32.578  35.655   1.843
73440W        W38667  44.365  42.886   2.715
73441W        W38668  19.796  28.662   0.897
73442W        W38669   5.368  41.790   2.811
73443W        W38670  25.104  29.418  14.226
73444W        W38671  32.402  17.485  14.794
73445W        W38672  34.069  21.769   1.916
73446W        W38673  32.766  30.045   1.306
73447W        W38674  43.311  25.947  11.044
73448W        W38675  15.856  26.269   0.427
73449W        W38676  14.716  17.884  12.885
73450W        W38677  22.275  36.089   2.833
73451W        W38678   4.267  23.704  10.500
73452W        W38679   2.550   1.031   1.700
73453W        W38680  12.329  26.850  12.990
73454W        W38681  12.552   5.127   1.530
73455W        W38682  42.316  33.057  11.823
73456W        W38683  36.630  17.312   3.559
73457W        W38684   6.877  35.367   1.362
73458W        W38685  42.942  41.092   1.352
73459W        W38686  25.272  19.892   2.423
73460W        W38687  19.391   9.413   1.849
73461W        W38688   5.238  36.530   3.237
73462W        W38689   8.130  21.708   2.142
73463W        W38690   0.159  25.948   4.112
73464W        W38691  23.262  22.590   0.432
73465W        W38692   6.441  14.335  12.130
73466W        W38693  31.257  44.432  10.279
73467W        W38694  30.078  31.077   1.159
73468W        W38695  25.876  24.451  10.890
73469W        W38696  34.806  42.459   3.329
73470W        W38697   6.365   5.189   2.159
73471W        W38698  18.325   6.241  10.733
73472W        W38699  28.365  23.147  11.592
73473W        W38700  21.564  40.985   2.761
73474W        W38701  35.042  44.403  14.286
73475W        W38702  29.985  41.805  11.080
73476W        W38703  15.798   8.279  12.500
73477W        W38704  24.715  17.669   4.938
73478W        W38705   7.844   0.291  12.195
73479W        W38706  26.300  39.059   3.277
73480W        W38707  31.623   7.178  14.743
73481W        W38708  11.845  10.193   0.951
73482W        W38709  27.004  14.643  11.937
73483W        W38710  33.397  42.107  13.945
73484W        W38711  27.246  34.315   0.850
73485W        W38712  27.921  16.506  11.955
73486W        W38713  42.556  40.111  13.008
73487W        W38714  11.407   8.617   3.732
73488W        W38715  29.405  34.612  13.961
73489W        W38716  26.652   0.597  13.351
73490W        W38717  37.039  16.120   4.037
73491W        W38718   9.237  28.629   0.907
73492W        W38719  19.698   1.615  12.987
73493W        W38720  15.625  19.180   3.131
73494W        W38721  14.020  17.705   0.606
73495W        W38722  39.112   7.747  13.510
73496W        W38723  38.960  24.782  12.145
73497W        W38724  12.742  25.038  13.627
73498W        W38725   5.780  37.055   0.778
73499W        W38726  24.258  30.065  11.169
73500W        W38727  23.209  36.006  10.746
73501W        W38728   2.529  15.597  12.492
73502W        W38729   6.205  19.012  13.669
73503W        W38730  10.811  30.730  14.055
73504W        W38731   2.004  44.672   0.921
73505W        W38732  32.599  17.387   1.807
73506W        W38733   0.224   3.913   1.389
73507W        W38734  19.734  16.865  12.594
73508W        W38735  14.832  32.942   1.787
73509W        W38736  36.683  24.172  14.411
73510W        W38737  33.668  38.423   2.357
73511W        W38738  15.274   1.411  13.409
73512W        W38739  38.276   4.367  10.202
73513W        W38740  24.167   8.799   5.089
73514W        W38741  32.493   0.713   4.315
73515W        W38742  20.508   5.196   1.753
73516W        W38743  15.682  40.432  14.869
73517W        W38744   7.180  11.787  10.667
73518W        W38745  27.621  32.481   4.737
73519W        W38746   6.605  26.033  14.421
73520W        W38747  19.660   0.108   0.316
73521W        W38748   2.162  22.622   2.982
73522W        W38749   4.446   3.722  11.215
73523W        W38750  32.353  12.041  10.678
73524W        W38751  28.477  34.482   3.786
73525W        W38752   1.814  33.186   2.249
73526W        W38753  28.028  27.206   4.474
73527W        W38754  43.228  25.605   0.852
73528W        W38755  13.375  42.011  14.742
73529W        W38756   4.345  40.920   3.736
73530W        W38757  32.082   4.304  14.441
73531W        W38758  28.627  19.542  10.786
73532W        W38759  23.057  41.534  11.632
73533W        W38760  12.689  37.260   2.377
73534W        W38761  25.741   3.298  13.515
73535W        W38762  19.043  14.015  12.565
73536W        W38763  28.916  11.607  13.574
73537W        W38764  43.186  21.247   3.149
73538W        W38765   2.929  19.472   5.480
73539W        W38766  28.274  29.569   1.279
73540W        W38767  11.176  30.198   3.678
73541W        W38768  16.542  22.481   4.183
73542W        W38769  22.154  42.570   4.853
73543W        W38770  17.668  22.773  11.173
73544W        W38771  40.987  16.777   1.563
73545W        W38772  27.007  23.981  12.592
73546W        W38773  11.297  12.504  12.183
73547W        W38774  37.962   0.825   0.466
73548W        W38775  15.486  29.923   0.191
73549W        W38776  36.588   6.312  11.544
73550W        W38777  37.712  40.268   4.424
73551W        W38778  41.046  30.814   2.769
73552W        W38779  39.325  13.146  13.833
73553W        W38780  14.154  40.807  12.877
73554W        W38781  20.079  10.207   0.255
73555W        W38782  14.681   8.176   2.294
73556W        W38783  41.038  30.782  11.387
73557W        W38784  33.410  12.458   0.738
73558W        W38785   6.925  34.205   2.441
73559W        W38786  15.345  41.054   0.467
73560W        W38787   1.723  24.837  11.179
73561W        W38788  26.418  23.815   3.661
73562W        W38789  38.186  40.817  12.423
73563W        W38790   2.001  33.416  10.535
73564W        W38791  27.233   0.184  10.580
73565W        W38792  30.350  38.037  14.779
73566W        W38793  33.231  12.826   1.637
73567W        W38794   4.206  44.051   2.200
73568W        W38795  12.325  23.489  13.611
73569W        W38796  17.508   5.097   4.621
73570W        W38797  38.439  16.353   0.384
73571W        W38798  20.221  38.531  14.590
73572W        W38799  13.985  42.502  13.820
73573W        W38800  16.411  44.626  12.455
73574W        W38801  36.077  27.786   1.703
73575W        W38802  41.014  25.263  11.357
73576W        W38803  28.576  20.558   1.486
73577W        W38804  27.501  14.683   4.544
73578W        W38805  31.034  10.159   3.844
73579W        W38806  34.498   3.841  10.887
73580W        W38807  15.686  27.424   3.378
73581W        W38808  10.263  30.537   1.156
73582W        W38809  36.298   9.339  11.514
73583W        W38810  44.653  11.530  14.033
73584W        W38811   0.755  44.222   4.938
73585W        W38812  29.647  34.537   4.798
73586W        W38813  34.924  15.275   1.547
73587W        W38814  19.221  41.796   2.386
73588W        W38815  39.059  12.704  14.984
73589W        W38816  17.802  28.198  12.262
73590W        W38817  19.490   3.268  14.457
73591W        W38818   0.720   5.706   1.931
73592W        W38819  15.245   3.482  14.491
73593W        W38820  10.228  44.363   1.164
73594W        W38821  14.160  26.484  14.900
73595W        W38822  14.496  30.190   2.237
73596W        W38823  44.430  44.556  12.554
73597W        W38824   3.988  30.740   0.799
73598W        W38825  43.514   2.156  13.850
73599W        W38826  28.443  37.905  11.571
73600W        W38827  29.878  44.800  14.014
73601W        W38828  29.135   9.158   2.352
73602W        W38829  10.960  25.592   1.488
73603W        W38830  16.966  37.396  14.465
73604W        W38831  17.061  21.139   2.392
73605W        W38832  34.475  15.551  12.673
73606W        W38833  37.385   5.745  12.373
73607W        W38834   2.880  41.892  13.552
73608W        W38835  28.688   1.593  14.301
73609W        W38836   1.936  12.244   1.336
73610W        W38837  20.200   5.443   2.449
73611W        W38838  25.250  20.519  11.487
73612W        W38839   9.741  20.432  13.921
73613W        W38840  19.668  23.078   4.136
73614W        W38841  32.629  33.009   2.769
73615W        W38842  30.910  24.188   4.194
73616W        W38843  34.427  21.775  11.841
73617W        W38844  25.961  26.940   2.298
73618W        W38845  29.057   4.559  11.103
73619W        W38846  29.951  13.406  13.652
73620W        W38847   9.379  21.731  13.796
73621W        W38848  23.590  36.929   3.267
73622W        W38849  30.381  19.740   4.025
73623W        W38850  39.294  25.707  14.859
73624W        W38851  33.224   0.212  13.625
73625W        W38852  13.181   0.688   1.441
73626W        W38853  22.071   3.417  13.030
73627W        W38854  16.027  34.896   3.211
73628W        W38855  42.444  35.526  12.145
73629W        W38856  33.917  29.440   3.895
73630W        W38857  10.485  16.151  10.301
73631W        W38858  28.059   6.701  11.839
73632W        W38859  19.227  29.861   1.966
73633W        W38860  28.516  25.848   0.903
73634W        W38861  20.737  43.537  14.116
73635W        W38862  43.451  22.563  11.644
73636W        W38863  38.284  44.943  14.855
73637W        W38864   8.266   3.884  12.780
73638W        W38865  34.683   8.881  10.653
73639W        W38866  29.074  23.112   0.948
73640W        W38867  35.563   2.776  12.743
73641W        W38868  39.006  33.570  10.614
73642W        W38869  40.437  38.440   4.117
73643W        W38870   7.853   4.515   2.383
73644W        W38871   7.516  21.095   1.921
73645W        W38872  20.858   6.177  12.653
73646W        W38873   9.330   3.962  14.540
73647W        W38874  21.526  24.204   0.927
73648W        W38875  36.949  22.638   0.963
73649W        W38876   5.708  21.089  14.519
73650W        W38877  26.414   7.628  13.455
73651W        W38878  33.356  29.561   2.846
73652W        W38879  28.077   9.617  13.895
73653W        W38880   4.210  22.083  13.928
73654W        W38881  15.579  30.687  14.367
73655W        W38882  19.260  27.296  11.027
73656W        W38883  16.578  13.591  13.473
73657W        W38884  17.259  23.190  11.993
73658W        W38885  35.658  15.418   2.879
73659W        W38886   3.656  13.359  12.194
73660W        W38887  10.690  24.639   0.406
73661W        W38888  40.777  42.382   2.159
73662W        W38889   8.336  33.597  14.446
73663W        W38890   2.918  15.302   2.228
73664W        W38891  11.396  34.462  13.527
73665W        W38892  10.674  35.293   3.629
73666W        W38893  13.719  30.969  13.354
73667W        W38894  30.614  12.176   4.520
73668W        W38895   7.658   7.636   1.267
73669W        W38896  20.097  16.566  12.855
73670W        W38897  10.243   9.886   4.487
73671W        W38898   0.890   5.269   4.371
73672W        W38899  32.467  29.347   3.672
73673W        W38900  10.177   1.908  13.951
73674W        W38901  28.593   1.686  11.894
73675W        W38902  36.470   6.169   3.583
73676W        W38903  28.431   6.271   2.790
73677W        W38904  32.150  16.849   3.505
73678W        W38905  23.804   2.676  14.453
73679W        W38906   4.028  39.453   2.384
73680W        W38907  20.119  40.373   2.158
73681W        W38908   2.943  42.503   2.440
73682W        W38909  27.572  13.886   1.857
73683W        W38910   8.785   7.519  11.631
73684W        W38911  25.629  11.154  10.821
73685W        W38912   5.014  31.040  13.917
73686W        W38913  39.490   5.336   3.517
73687W        W38914  35.934  25.264  13.044
73688W        W38915   6.300  13.779   4.100
73689W        W38916  10.814  15.792  12.039
73690W        W38917   1.822   1.306   2.234
73691W        W38918  15.191   4.859   0.664
73692W        W38919   3.839  10.107   3.293
73693W        W38920  43.426  25.719  14.876
73694W        W38921   7.333  29.978  13.960
73695W        W38922  40.123  25.951   4.842
73696W        W38923   7.256  36.410   3.566
73697W        W38924  40.215   0.274  13.315
73698W        W38925  25.506  17.588  11.649
73699W        W38926   3.505  18.978   4.807
73700W        W38927  17.573  41.638  12.388
73701W        W38928  33.248  12.900   4.118
73702W        W38929  18.022  15.245  10.732
73703W        W38930  42.226  36.559  12.826
73704W        W38931  10.420  35.335  13.422
73705W        W38932  31.175  26.843  12.735
73706W        W38933   8.713  32.061  11.485
73707W        W38934   6.695  42.830   0.166
73708W        W38935  12.315  21.451  11.479
73709W        W38936  37.469  10.203  11.202
73710W        W38937  32.168  33.431  12.280
73711W        W38938  42.697  16.744  14.319
73712W        W38939  12.195  26.759   1.455
73713W        W38940  17.803   0.331  12.543
73714W        W38941  33.450   3.287   5.200
73715W        W38942  13.898  43.777  11.030
73716W        W38943  34.375  44.738  13.912
73717W        W38944  41.649   1.005  13.078
73718W        W38945   1.939   3.668  14.903
73719W        W38946   4.716  24.059   3.633
73720W        W38947  32.416  43.949   0.582
73721W        W38948  26.747  13.800   5.021
73722W        W38949   9.669  34.006  11.378
73723W        W38950   2.910  29.518   2.382
73724W        W38951  11.781  10.450  13.883
73725W        W38952  35.580  28.908  12.090
73726W        W38953   5.699  20.590  10.819
73727W        W38954  24.966   6.275   1.288
73728W        W38955  28.392  32.436   0.308
73729W        W38956  40.950   8.026  14.277
73730W        W38957  10.985  15.676  10.662
73731W        W38958  26.528  31.995   3.576
73732W        W38959  42.541  19.105  13.011
73733W        W38960  29.038  33.570  14.957
73734W        W38961  40.745  24.489   1.193
73735W        W38962   1.040  26.691  14.774
73736W        W38963   4.343  29.070  12.869
73737W        W38964  14.426  26.982   5.105
73738W        W38965   1.419  23.755  12.535
73739W        W38966  33.196  34.328   5.561
73740W        W38967  17.121  18.460  11.274
73741W        W38968  40.049   0.249   0.649
73742W        W38969  28.205  12.225   4.091
73743W        W38970   9.933  11.459   3.713
73744W        W38971  31.517  12.604   3.369
73745W        W38972  10.236  15.813  14.854
73746W        W38973  12.454  29.896  11.080
73747W        W38974   3.211  30.577   3.260
73748W        W38975  12.959  22.767  11.545
73749W        W38976  11.924  39.310   1.828
73750W        W38977  23.142  18.465  10.651
73751W        W38978   6.788  23.659  14.373
73752W        W38979  18.613   7.783   3.710
73753W        W38980  26.845   6.273   2.656
73754W        W38981  29.531  10.773  14.953
73755W        W38982  24.018   5.410  10.816
73756W        W38983  16.914  21.964   2.380
73757W        W38984  37.417  24.983  14.070
73758W        W38985   4.873  23.469   4.253
73759W        W38986  23.332   0.644  12.245
73760W        W38987  25.444  13.280  10.449
73761W        W38988  31.503  14.625  14.495
73762W        W38989  20.017  23.130   2.261
73763W        W38990  39.426   1.116  14.586
73764W        W38991  19.760  36.322  13.812
73765W        W38992   6.287   9.333   4.240
73766W        W38993  44.725  30.609   0.856
73767W        W38994  37.893  11.691   0.407
73768W        W38995  36.005  12.370  14.116
73769W        W38996  24.058  36.110  14.125
73770W        W38997  33.735  33.491  12.398
73771W        W38998   3.846  44.385   2.373
73772W        W38999  32.146   4.447   4.206
73773W        W39000  32.618  42.909  10.739
73774W        W39001  29.164   1.700  12.616
73775W        W39002  33.390  35.041  14.636
73776W        W39003  40.370  13.026  10.662
73777W        W39004  35.219   5.314   0.150
73778W        W39005  34.943  24.488   3.952
73779W        W39006  36.669  33.234  14.988
73780W        W39007  17.460  31.197   3.071
73781W        W39008   8.654  22.428  14.814
73782W        W39009  15.546   4.814   2.215
73783W        W39010   6.531  39.364  13.717
73784W        W39011  38.988  22.009  14.925
73785W        W39012  28.044  42.716  14.690
73786W        W39013  24.125  38.119  12.410
73787W        W39014  33.308  19.698  11.516
73788W        W39015  30.911  25.057   4.073
73789W        W39016  43.880  37.348   3.700
73790W        W39017   7.819  17.239  12.083
73791W        W39018  12.486   0.429  11.092
73792W        W39019  21.020   4.963   1.997
73793W        W39020  44.944  17.689   0.629
73794W        W39021  29.761  39.049   3.519
73795W        W39022  11.635  25.667  12.862
73796W        W39023  42.296  18.184   0.531
73797W        W39024  26.056  43.930  12.191
73798W        W39025  18.886  22.180  13.879
73799W        W39026  36.789   5.453   3.212
73800W        W39027  32.849  30.421  10.735
73801W        W39028  30.315  14.580  10.613
73802W        W39029  35.510  18.594  11.068
73803W        W39030  22.371  37.203  14.097
73804W        W39031  14.285   7.891  14.065
73805W        W39032  43.740   1.055   0.325
73806W        W39033  44.491  18.105   9.842
73807W        W39034  20.133  11.866  11.654
73808W        W39035  19.793  31.969   3.607
73809W        W39036  18.463  41.342   2.289
73810W        W39037  21.694  38.380  11.618
73811W        W39038  31.599  41.463   0.247
73812W        W39039   0.339  33.330  12.048
73813W        W39040  20.078   8.745  14.773
73814W        W39041  42.474  35.087   3.230
73815W        W39042  15.184   7.086   0.858
73816W        W39043  40.672   5.307  13.820
73817W        W39044  27.131  24.640  14.329
73818W        W39045  42.347  31.142   4.716
73819W        W39046  28.928  37.335   3.766
73820W        W39047  12.385  37.927  11.861
73821W        W39048   8.920  35.007  13.913
73822W        W39049  16.709  18.258  11.061
73823W        W39050  37.110   5.348   1.692
73824W        W39051   4.698  11.097  12.490
73825W        W39052  10.386  22.788   3.079
73826W        W39053  25.459  39.359  13.170
73827W        W39054  16.003  27.532  13.958
73828W        W39055   8.862  39.933   0.996
73829W        W39056  18.003  27.728  13.954
73830W        W39057  10.195  34.029   1.160
73831W        W39058  24.442   2.863   5.355
73832W        W39059   0.436  21.700   0.059
73833W        W39060  14.112  26.968   1.277
73834W        W39061  21.574   7.636  13.946
73835W        W39062  28.601  38.054  12.460
73836W        W39063  10.106  36.417   4.075
73837W        W39064  15.331  31.549  13.890
73838W        W39065  28.530  37.633   3.591
73839W        W39066  30.839  24.116   2.216
73840W        W39067  22.333  24.372   1.219
73841W        W39068  24.289   1.513   9.871
73842W        W39069   7.938  38.442   0.361
73843W        W39070   5.799  10.397   2.348
73844W        W39071  27.174  32.438   2.828
73845W        W39072   3.733  23.240   1.898
73846W        W39073  27.377  22.719   2.093
73847W        W39074  42.776  11.119  14.867
73848W        W39075  36.139  42.417   2.241
73849W        W39076  39.308   1.458   2.542
73850W        W39077  21.717  13.992   3.988
73851W        W39078  42.474  31.608   0.058
73852W        W39079  42.300  40.957  13.448
73853W        W39080   3.274   5.246   4.312
73854W        W39081  28.722  15.747   1.358
73855W        W39082  42.998   7.314  12.578
73856W        W39083  10.852  24.044   3.780
73857W        W39084   1.422   3.970  10.807
73858W        W39085   7.678   6.150   1.660
73859W        W39086   4.239   0.973  11.949
73860W        W39087  33.522  42.364  12.043
73861W        W39088   4.359  41.026   1.859
73862W        W39089   9.675  29.271   0.250
73863W        W39090  41.094  27.625  12.440
73864W        W39091  14.022  37.080   0.315
73865W        W39092   0.759   1.926   4.604
73866W        W39093   4.464  14.744   4.569
73867W        W39094   6.286   8.344   2.991
73868W        W39095  43.396  25.654   1.785
73869W        W39096  39.543   8.263  11.299
73870W        W39097  44.359  33.781  13.142
73871W        W39098   9.652  15.373  12.105
73872W        W39099   8.435  16.757   4.469
73873W        W39100  23.199  39.940   2.555
73874W        W39101  42.784  12.849  11.279
73875W        W39102  11.763  39.742   2.075
73876W        W39103  26.780  12.557  11.167
73877W        W39104   6.104  35.387  13.101
73878W        W39105  11.585   1.651   2.387
73879W        W39106  38.060  24.739  14.307
73880W        W39107  24.137  36.441   4.826
73881W        W39108   6.930  31.899   4.175
73882W        W39109  26.135   2.193   0.463
73883W        W39110  28.563  14.378  12.150
73884W        W39111  28.634  41.372  14.051
73885W        W39112  33.841  42.395   0.712
73886W        W39113  32.715  28.019   4.074
73887W        W39114  41.785  41.039  10.758
73888W        W39115  29.953  32.976   4.737
73889W        W39116  11.397  13.867   2.124
73890W        W39117  34.105  13.576   2.674
73891W        W39118   0.451  17.202   2.068
73892W        W39119   1.247  16.840   0.466
73893W        W39120  38.566  25.334  10.750
73894W        W39121   1.350  15.314  11.709
73895W        W39122  35.674  16.395  14.676
73896W        W39123  43.950  12.611   3.602
73897W        W39124  29.433   2.878   1.416
73898W        W39125  42.749   7.295   0.480
73899W        W39126  37.037  19.530   3.355
73900W        W39127  34.872   5.630  12.917
73901W        W39128  44.991  30.685   2.715
73902W        W39129  34.692  27.085   0.895
73903W        W39130   0.508  41.515  13.424
73904W        W39131  38.016  22.060  10.862
73905W        W39132  35.607  37.560  14.404
73906W        W39133  17.885  37.818   4.088
73907W        W39134  10.366   1.814   1.699
73908W        W39135  39.008  17.748   4.637
73909W        W39136  37.237   3.855   2.818
73910W        W39137  25.936  23.497  11.952
73911W        W39138  38.418  10.634  10.671
73912W        W39139   2.980   1.440  11.022
73913W        W39140  38.148  35.821  12.343
73914W        W39141  40.867  18.544   1.332
73915W        W39142  16.681  39.798   4.648
73916W        W39143  20.782   6.973  13.941
73917W        W39144  14.644  16.224  11.198
73918W        W39145  17.012   6.423  12.136
73919W        W39146  34.536   9.960   2.208
73920W        W39147  34.731  42.464   1.812
73921W        W39148  43.809  44.822  11.998
73922W        W39149  22.575  29.390  13.913
73923W        W39150  39.388  28.776   3.320
73924W        W39151  35.868  11.108  11.370
73925W        W39152  35.855   3.661   2.140
73926W        W39153  42.157  41.538  12.465
73927W        W39154  41.444  32.860  12.226
73928W        W39155  33.374  17.974   0.030
73929W        W39156  14.153  43.120  12.191
73930W        W39157  44.527  43.979  14.375
73931W        W39158  19.033  37.926  13.248
73932W        W39159  31.114  44.362   1.207
73933W        W39160  37.033  43.801  14.026
73934W        W39161  20.155  28.009  14.454
73935W        W39162  31.726  24.967   3.703
73936W        W39163  44.969   2.781  11.369
73937W        W39164  42.540  27.121   3.187
73938W        W39165  17.385  41.347   4.423
73939W        W39166  30.964  28.078   1.778
73940W        W39167   7.150  34.226   1.966
73941W        W39168   3.217  18.827  11.745
73942W        W39169   3.672  44.587  13.002
73943W        W39170  11.962  29.919   3.375
73944W        W39171  23.575  20.253  12.756
73945W        W39172   4.620  18.787  10.582
73946W        W39173  25.510  16.572   0.321
73947W        W39174  24.673  15.868   0.908
73948W        W39175  20.308  42.048  11.635
73949W        W39176   9.232  15.799  14.841
73950W        W39177  36.121  42.192   0.739
73951W        W39178   7.850  33.042   2.837
73952W        W39179   7.180  31.561  13.611
73953W        W39180  35.736  30.909   2.247
73954W        W39181  26.741  21.244   3.700
73955W        W39182  30.148  13.518   0.902
73956W        W39183  36.389  36.784   3.873
73957W        W39184  11.786   0.953   4.508
73958W        W39185   9.523  23.388  14.522
73959W        W39186  11.510   0.407   0.969
73960W        W39187  25.739   0.935   2.885
73961W        W39188  42.819  26.241  14.972
73962W        W39189  17.119   3.794   3.475
73963W        W39190  42.952  32.712  11.985
73964W        W39191  14.916  34.497   2.383
73965W        W39192  12.553   7.421  11.041
73966W        W39193   2.390  31.510   5.047
73967W        W39194   2.016   7.016   3.054
73968W        W39195   4.398  13.968  14.934
73969W        W39196  10.669  25.013  11.566
73970W        W39197  21.252  22.415  12.524
73971W        W39198  26.645  37.839   1.440
73972W        W39199   6.777  30.045   4.168
73973W        W39200  33.786  38.463  12.106
73974W        W39201  38.820  33.833   2.621
73975W        W39202   8.294  32.433  10.587
73976W        W39203   0.870  13.158  13.311
73977W        W39204   1.369  33.877   3.362
73978W        W39205   4.192  15.859  14.556
73979W        W39206  14.219  12.145  11.067
73980W        W39207  40.542  42.459  11.732
73981W        W39208  24.059  22.640   3.938
73982W        W39209  44.348  43.937   2.970
73983W        W39210   7.278  19.167   0.036
73984W        W39211  44.937  43.841   1.622
73985W        W39212  37.990  23.583   4.271
73986W        W39213  17.564  16.778  14.813
73987W        W39214  28.146  11.642   2.153
73988W        W39215  22.265  10.940  13.571
73989W        W39216  15.906  34.675  11.165
73990W        W39217  43.370  21.542  13.580
73991W        W39218  18.604  34.926   1.807
73992W        W39219  11.689  24.481  13.397
73993W        W39220  42.954  31.838  14.740
73994W        W39221  12.585  10.218   4.082
73995W        W39222  23.798   2.471  13.060
73996W        W39223  43.238  35.832  13.429
73997W        W39224   7.971  23.543   0.386
73998W        W39225  18.673  14.366   0.762
73999W        W39226  12.912  23.507   2.285
74000W        W39227  30.689   0.646   0.914
74001W        W39228  10.146  15.175  13.335
74002W        W39229  33.431  27.621   5.491
74003W        W39230  21.101   5.719   3.472
74004W        W39231  25.904  15.349   4.156
74005W        W39232  35.069  41.018   1.931
74006W        W39233  33.045  31.447   4.355
74007W        W39234  14.075  19.774  11.203
74008W        W39235   7.669   2.424   2.252
74009W        W39236  36.848  25.670   1.746
74010W        W39237   5.576  23.066   4.193
74011W        W39238   7.611  24.033   4.221
74012W        W39239  16.052  11.698   3.896
74013W        W39240  12.271  33.202   2.241
74014W        W39241  13.748  32.675  11.840
74015W        W39242  20.606  44.575  13.166
74016W        W39243   7.845  16.218   3.360
74017W        W39244   9.191   1.214   3.160
74018W        W39245  29.227  39.577  13.436
74019W        W39246  19.041  36.103  12.071
74020W        W39247   9.760   4.417   3.386
74021W        W39248   6.885  33.761  13.670
74022W        W39249  41.408  19.007  14.041
74023W        W39250  26.753  40.828   1.520
74024W        W39251  24.082  26.697  14.033
74025W        W39252  15.172  11.374   3.848
74026W        W39253  16.804  28.898   3.210
74027W        W39254  33.529  12.195   1.197
74028W        W39255  37.059   1.129  11.668
74029W        W39256  42.327   6.670   1.241
74030W        W39257  13.413   7.320   2.197
74031W        W39258   9.891   1.847   3.398
74032W        W39259   4.885  26.892   3.606
74033W        W39260  32.420  33.441  12.834
74034W        W39261  37.570  19.523  13.146
74035W        W39262   2.860   6.004  13.424
74036W        W39263  34.138  32.441   0.161
74037W        W39264  20.833  32.078  14.487
74038W        W39265  33.259  10.557  12.908
74039W        W39266  28.149  18.163  12.664
74040W        W39267  25.443  30.757  14.494
74041W        W39268  25.952  15.858   2.927
74042W        W39269  20.048   6.212   4.324
74043W        W39270  33.327   2.578  11.179
74044W        W39271  16.028  11.281   3.117
74045W        W39272   7.213   9.772  12.670
74046W        W39273  27.082  28.641  13.558
74047W        W39274  19.545  30.170   4.171
74048W        W39275  40.554  27.172  11.922
74049W        W39276   2.936  22.865   0.022
74050W        W39277  37.701  31.984  13.040
74051W        W39278  34.079  23.515  13.492
74052W        W39279  11.193   3.112  11.087
74053W        W39280  42.440   2.336   3.085
74054W        W39281  33.696   0.952  14.697
74055W        W39282   7.179  43.846  14.425
74056W        W39283  22.905   8.624   4.199
74057W        W39284  36.693  28.518  12.879
74058W        W39285  26.886  39.925   1.484
74059W        W39286  37.938   6.132  14.513
74060W        W39287  15.354  13.446  13.775
74061W        W39288   8.539  43.499  12.824
74062W        W39289   9.601  22.573   2.893
74063W        W39290   0.024  39.315  10.991
74064W        W39291  41.848  32.237  13.488
74065W        W39292   2.428  32.569  13.512
74066W        W39293  34.631  28.604  12.957
74067W        W39294  31.659  18.634   4.602
74068W        W39295  26.720  10.101  10.522
74069W        W39296  12.337  43.662   1.797
74070W        W39297   4.813  33.926   1.493
74071W        W39298  27.137  23.752  13.809
74072W        W39299  29.618  41.123   4.513
74073W        W39300  40.812  35.407   1.349
74074W        W39301  31.115  27.680   3.133
74075W        W39302   1.799  32.226  12.210
74076W        W39303   5.374   5.450  12.918
74077W        W39304  19.576   9.446   0.959
74078W        W39305  29.154  26.774   3.135
74079W        W39306   1.293   2.135  11.192
74080W        W39307  32.139   0.352   3.627
74081W        W39308  30.912  42.399  10.624
74082W        W39309  32.403  22.792   4.540
74083W        W39310  33.622  16.797  13.841
74084W        W39311  12.102   5.366   2.268
74085W        W39312   5.847  41.513  13.510
74086W        W39313   9.361  33.440  13.402
74087W        W39314  17.949  43.760  13.314
74088W        W39315   3.439  13.749  12.462
74089W        W39316  34.949  44.190  12.125
74090W        W39317  23.115  15.538   2.836
74091W        W39318   8.501  27.634   2.916
74092W        W39319  44.290  25.867  12.052
74093W        W39320  22.593  30.921   0.750
74094W        W39321   1.953  10.725   0.715
74095W        W39322  13.660  28.418  13.391
74096W        W39323  17.768  26.346   3.432
74097W        W39324   6.732  15.946  12.522
74098W        W39325  17.012   5.621   0.287
74099W        W39326  20.155  21.477   0.755
74100W        W39327  19.166   6.140   4.195
74101W        W39328  20.049  18.709  12.419
74102W        W39329  33.761   5.675   1.748
74103W        W39330  37.039  19.521   4.876
74104W        W39331  28.689   7.194   2.898
74105W        W39332  20.490   6.221   1.501
74106W        W39333  20.740  16.534   2.834
74107W        W39334   6.197  17.211   1.270
74108W        W39335  12.193  22.027   1.717
74109W        W39336  30.337  42.022  13.418
74110W        W39337   6.963   2.290  14.181
74111W        W39338  27.716  37.314  11.555
74112W        W39339  11.282  18.809   3.666
74113W        W39340  34.688  26.056   9.563
74114W        W39341  14.262   6.896  10.649
74115W        W39342  16.347  44.897  14.216
74116W        W39343  14.370  38.278  14.893
74117W        W39344  30.207  25.152  14.539
74118W        W39345  13.667  18.212   0.646
74119W        W39346   7.008  10.265  13.371
74120W        W39347  19.766  22.149   3.191
74121W        W39348  37.483  32.986   4.377
74122W        W39349   4.629  18.827   3.341
74123W        W39350  26.444   3.579   4.257
74124W        W39351   9.084  20.987  11.449
74125W        W39352  17.757  21.052  10.507
74126W        W39353  10.903  18.328  11.139
74127W        W39354  18.145  42.034   1.272
74128W        W39355  19.352  44.764  14.130
74129W        W39356  36.609  20.704  11.572
74130W        W39357  41.103   7.401  13.509
74131W        W39358   6.779  40.722   0.311
74132W        W39359  13.995  43.379  10.675
74133W        W39360  11.733  30.364   3.195
74134W        W39361  16.663   8.689   2.854
74135W        W39362  29.743  33.929   3.089
74136W        W39363  42.057  44.296  11.143
74137W        W39364  17.612  19.236  12.460
74138W        W39365   5.642  38.627  13.510
74139W        W39366  43.957   6.254  14.031
74140W        W39367   0.418   2.404   3.757
74141W        W39368  29.083   4.791  10.638
74142W        W39369   5.685  12.682  12.089
74143W        W39370  23.028  44.585   3.196
74144W        W39371  34.030  33.116   4.005
74145W        W39372  20.975  26.459  10.998
74146W        W39373  39.921  13.047   4.633
74147W        W39374   1.369   5.854  11.103
74148W        W39375  34.590  13.301   1.326
74149W        W39376  11.928  14.919   5.540
74150W        W39377  20.266  44.273  11.545
74151W        W39378  34.319  10.273   4.419
74152W        W39379  33.423   2.638  14.276
74153W        W39380  43.857   8.349   2.713
74154W        W39381  30.152   7.229   2.977
74155W        W39382  34.334  42.090  12.512
74156W        W39383  28.785   5.707   3.459
74157W        W39384   7.724   9.157  12.080
74158W        W39385  16.791  12.045   1.639
74159W        W39386  13.033  11.956   1.554
74160W        W39387  42.367  25.998  14.725
74161W        W39388  30.560  34.305   2.405
74162W        W39389  14.258  26.191   4.698
74163W        W39390  31.649   0.939   0.861
74164W        W39391  25.675   9.538  13.469
74165W        W39392   1.729  11.093   3.322
74166W        W39393  10.697   5.794  12.781
74167W        W39394  20.579  28.178  12.443
74168W        W39395   9.848   1.325  11.534
74169W        W39396  27.491  19.994   4.130
74170W        W39397  36.802  14.576  11.005
74171W        W39398   8.168  12.228   1.689
74172W        W39399  30.873  33.533   2.694
74173W        W39400  21.918  39.668   2.841
74174W        W39401  19.373   3.667  12.066
74175W        W39402   6.393   3.374  14.366
74176W        W39403  13.227   4.468   4.702
74177W        W39404  37.615  23.628   0.347
74178W        W39405  15.596   0.268  12.067
74179W        W39406  18.344  12.175   0.657
74180W        W39407  24.898  26.501   0.450
74181W        W39408  39.362  30.622   2.325
74182W        W39409  35.822  30.941  10.614
74183W        W39410  25.415  32.328   1.442
74184W        W39411  15.157  41.558   0.463
74185W        W39412  29.705  21.079  14.922
74186W        W39413  37.356  13.818  11.999
74187W        W39414  39.460  43.356   1.366
74188W        W39415  19.142  14.178  13.908
74189W        W39416  36.255  26.853  11.924
74190W        W39417  26.736  44.432  11.033
74191W        W39418  24.250  13.249   2.741
74192W        W39419  10.620  23.297   4.714
74193W        W39420   5.248  18.246   5.125
74194W        W39421  15.666   5.745  12.983
74195W        W39422  16.600  43.406   1.400
74196W        W39423   4.447   1.685   0.806
74197W        W39424  38.430  42.490   4.859
74198W        W39425  19.655  34.258   0.861
74199W        W39426  22.334  42.201   0.189
74200W        W39427  34.460  19.563  12.516
74201W        W39428   3.753  30.711  11.128
74202W        W39429  42.158  39.016  11.180
74203W        W39430   6.472  22.785   2.049
74204W        W39431  16.383  18.580   0.449
74205W        W39432  21.634  41.075   0.802
74206W        W39433   2.232  23.788  13.917
74207W        W39434  24.989   2.221  13.922
74208W        W39435  43.287   0.707   0.244
74209W        W39436  33.826  37.422  14.840
74210W        W39437  34.074   8.894   3.179
74211W        W39438  11.974   9.536  14.296
74212W        W39439  17.036   6.828   0.775
74213W        W39440  33.329  43.328  14.874
74214W        W39441  14.163   6.918   2.526
74215W        W39442   9.291  38.570  12.448
74216W        W39443  40.072  28.194   0.491
74217W        W39444  14.136  13.780   1.453
74218W        W39445  13.301   7.944  12.517
74219W        W39446  10.410  42.230   3.366
74220W        W39447  14.814   4.534   0.836
74221W        W39448   9.844   3.007   2.188
74222W        W39449  36.321   4.289  14.315
74223W        W39450  35.066  26.447   2.764
74224W        W39451  10.858   6.856   1.427
74225W        W39452   6.852  32.749  13.937
74226W        W39453  27.458  44.900  13.825
74227W        W39454  11.497  32.476   1.662
74228W        W39455  21.114  32.167  13.451
74229W        W39456  37.092  30.664   0.408
74230W        W39457  33.069  42.261  14.915
74231W        W39458  21.197  13.684  14.666
74232W        W39459  35.448   5.310   1.714
74233W        W39460  39.553  38.993   3.381
74234W        W39461  13.560  13.341   1.763
74235W        W39462  13.919  42.592  13.297
74236W        W39463  19.442  30.229  13.519
74237W        W39464  29.636  37.008  13.791
74238W        W39465  11.878  44.192   0.456
74239W        W39466  18.409  40.439   2.210
74240W        W39467  20.164  37.333  10.378
74241W        W39468  40.040  24.971  12.776
74242W        W39469  34.409  28.982  14.781
74243W        W39470  10.059  44.594   1.649
74244W        W39471  25.623  18.046  14.323
74245W        W39472  13.393  29.401  10.907
74246W        W39473  18.630  29.354   4.493
74247W        W39474   7.798  16.038  13.586
74248W        W39475   8.882  26.072   1.963
74249W        W39476  13.722   7.260  12.127
74250W        W39477  19.324  38.892   4.556
74251W        W39478  22.221   6.613   1.241
74252W        W39479  14.583  22.748   3.888
74253W        W39480  34.269   1.422  11.111
74254W        W39481  23.248  30.006   3.149
74255W        W39482  20.760  28.792  11.176
74256W        W39483   6.878  34.070   4.512
74257W        W39484  14.802  24.911  10.727
74258W        W39485   3.965   2.022   4.120
74259W        W39486  22.439   0.405   3.129
74260W        W39487  26.301  42.722  11.960
74261W        W39488  19.649  17.380  12.746
74262W        W39489  38.289  33.846   3.864
74263W        W39490   8.325  28.764   3.597
74264W        W39491  36.114  13.768  10.820
74265W        W39492  38.704  34.306   2.143
74266W        W39493  32.617  22.998   1.879
74267W        W39494   0.464  33.132   2.546
74268W        W39495  32.077   0.779  13.490
74269W        W39496  10.690  35.790  13.445
74270W        W39497   7.235  39.998   1.813
74271W        W39498  11.178  24.825   0.225
74272W        W39499  40.330  38.420   3.091
74273W        W39500  20.207  20.112   3.765
74274W        W39501   7.507  39.396  12.301
74275W        W39502  33.147   5.925   4.157
74276W        W39503  27.083  38.795   0.193
74277W        W39504  37.746   7.942   3.657
74278W        W39505  23.689   4.412   0.869
74279W        W39506  15.429  30.042  13.470
74280W        W39507  31.473  10.773  13.038
74281W        W39508  41.339  27.616   2.522
74282W        W39509  27.386  10.135  11.073
74283W        W39510  27.731  44.336  11.286
74284W        W39511  17.147  22.662  10.269
74285W        W39512  23.073  26.163  10.788
74286W        W39513   5.293  17.319   0.434
74287W        W39514  44.086  34.649  14.009
74288W        W39515  39.753   7.815  11.074
74289W        W39516   3.326   2.447   1.322
74290W        W39517  41.019  15.907   1.610
74291W        W39518  36.857   7.944   0.713
74292W        W39519  35.707  30.996  14.903
74293W        W39520  25.981  19.175  11.180
74294W        W39521   1.645  35.540   3.225
74295W        W39522   4.419  25.448  11.680
74296W        W39523  27.959  24.007  14.313
74297W        W39524  12.251  41.078   1.162
74298W        W39525  25.651  38.520  11.250
74299W        W39526  18.151   1.316  12.018
74300W        W39527  18.527  18.512  14.758
74301W        W39528   9.155  40.428  14.020
74302W        W39529   9.134  34.702   1.458
74303W        W39530  12.100  44.673  14.552
74304W        W39531  27.417  18.504   1.116
74305W        W39532  31.637  11.186   3.132
74306W        W39533  11.857   7.298   0.015
74307W        W39534  11.142  37.851   3.793
74308W        W39535  20.670  23.228   4.364
74309W        W39536  43.035   7.617   1.842
74310W        W39537  43.989   7.824  14.826
74311W        W39538  24.003  33.517   2.926
74312W        W39539  15.354  34.755  11.642
74313W        W39540  40.271  13.692  14.128
74314W        W39541  18.806  17.296   1.328
74315W        W39542  21.737  40.979  13.476
74316W        W39543   6.856   3.237   1.626
74317W        W39544  12.102   5.144   1.781
74318W        W39545  13.627  27.235   0.343
74319W        W39546  27.603   9.240   2.731
74320W        W39547  16.779   3.152  13.961
74321W        W39548  44.529  29.422   4.105
74322W        W39549   3.109  39.646   3.693
74323W        W39550  16.263   2.946  10.952
74324W        W39551  22.077   6.805  12.089
74325W        W39552  35.803  19.278  13.028
74326W        W39553  34.641  33.672   2.208
74327W        W39554  21.599  28.718   0.444
74328W        W39555  30.558  27.141   0.427
74329W        W39556  31.991   2.072  12.216
74330W        W39557  13.290   0.492  10.686
74331W        W39558  15.068  13.449   1.743
74332W        W39559  39.637  43.166  12.067
74333W        W39560  29.386  42.199   5.084
74334W        W39561  18.399   9.248   0.308
74335W        W39562  25.083   8.347  12.902
74336W        W39563  23.418  39.168  14.621
74337W        W39564  18.199   2.841  13.393
74338W        W39565  37.423  22.210   4.008
74339W        W39566  42.493   0.246   1.369
74340W        W39567  38.344   4.946  14.523
74341W        W39568  26.376  39.036  10.909
74342W        W39569  37.371  12.328  10.722
74343W        W39570   0.354  42.842   5.454
74344W        W39571  17.262  33.053   4.886
74345W        W39572  11.827   5.862   3.142
74346W        W39573  25.579  41.508  11.302
74347W        W39574  15.701  28.144  12.817
74348W        W39575   8.668  37.814  14.457
74349W        W39576  15.883   3.271  11.056
74350W        W39577  38.317  16.013   4.649
74351W        W39578  15.899   9.804  14.248
74352W        W39579  23.661   6.937   4.077
74353W        W39580  43.744  25.018  13.472
74354W        W39581  10.717  20.003  14.984
74355W        W39582  19.480  18.895   0.017
74356W        W39583   1.292  24.630  11.383
74357W        W39584  20.516  11.143   3.861
74358W        W39585  43.225  13.187   1.020
74359W        W39586  13.774  31.514   2.987
74360W        W39587  22.342  24.772  11.931
74361W        W39588   1.192  21.822  12.334
74362W        W39589  21.293  18.324  11.088
74363W        W39590  22.984  41.762  10.775
74364W        W39591   6.304  31.181   2.780
74365W        W39592  17.372   4.328  12.552
74366W        W39593  21.184  37.869   4.070
74367W        W39594  26.645  15.144   4.345
74368W        W39595  29.110  21.190   1.173
74369W        W39596  27.047  30.326  11.567
74370W        W39597  26.574  20.006   4.098
74371W        W39598  25.993   5.479   4.130
74372W        W39599  11.859  41.647  13.946
74373W        W39600  24.146  29.430   0.991
74374W        W39601  16.624  39.764   0.416
74375W        W39602   1.981  25.122   2.152
74376W        W39603  31.490  29.308  14.441
74377W        W39604   5.860  40.836  14.909
74378W        W39605  11.224   2.678   0.400
74379W        W39606  15.557  42.038  12.021
74380W        W39607  11.991  14.799  10.122
74381W        W39608  30.924  34.133  14.780
74382W        W39609  35.652  22.554  11.577
74383W        W39610   6.793  37.895  11.258
74384W        W39611  26.053  43.419  11.989
74385W        W39612  38.075  35.336  13.015
74386W        W39613  17.073  42.981   0.957
74387W        W39614  32.554  14.347  14.476
74388W        W39615  43.544  42.259   0.025
74389W        W39616   0.767  40.952  12.889
74390W        W39617   7.724  13.652  12.986
74391W        W39618  43.171   6.832  10.132
74392W        W39619  38.838  14.691  12.502
74393W        W39620  23.144   6.653  13.965
74394W        W39621  18.461  19.521  11.239
74395W        W39622  29.903  22.173  12.272
74396W        W39623   9.382  26.610   1.327
74397W        W39624  32.161  34.393   1.636
74398W        W39625   3.330  41.363  10.704
74399W        W39626  10.652  37.189  13.444
74400W        W39627  32.311  33.616   1.717
74401W        W39628  14.561  16.772  14.933
74402W        W39629  37.443  30.108  12.326
74403W        W39630  16.356  38.324   0.200
74404W        W39631  27.987  30.048   4.716
74405W        W39632  31.212  28.052   3.531
74406W        W39633  31.288  21.373   1.798
74407W        W39634  24.203   3.306   1.850
74408W        W39635  17.784  35.214  14.112
74409W        W39636  10.188   8.642   0.503
74410W        W39637  36.392  18.056  12.124
74411W        W39638  20.116  18.932   1.790
74412W        W39639  44.645  17.897  11.103
74413W        W39640  11.629  30.372  10.043
74414W        W39641  33.041   6.825   1.625
74415W        W39642   2.721  42.911   0.315
74416W        W39643  20.786  10.647  11.550
74417W        W39644   8.269  29.508   4.815
74418W        W39645  44.528  33.965   4.242
74419W        W39646  42.970  15.185  10.781
74420W        W39647  28.351   5.254  14.853
74421W        W39648  43.724   4.116   2.212
74422W        W39649  20.125  29.658  13.057
74423W        W39650  32.868   5.895   2.044
74424W        W39651   7.760  30.290  11.124
74425W        W39652  18.237   5.567  14.511
74426W        W39653  30.962  37.468   1.815
74427W        W39654  25.585   3.744  13.086
74428W        W39655   7.692   0.767  12.024
74429W        W39656  38.063  33.182  14.917
74430W        W39657  11.260   0.642   3.879
74431W        W39658  41.358  41.213  13.841
74432W        W39659   9.042  26.217   0.674
74433W        W39660  31.381  42.902   1.237
74434W        W39661  28.496  20.057   1.462
74435W        W39662  14.233   7.752   3.645
74436W        W39663  41.337  29.685   1.419
74437W        W39664  27.932   2.867  11.978
74438W        W39665  24.677  22.726  13.973
74439W        W39666  25.738  37.059  13.319
74440W        W39667  26.482  43.315   2.192
74441W        W39668  20.349  20.065   2.531
74442W        W39669   4.903   9.598  12.646
74443W        W39670  26.505  28.981  11.047
74444W        W39671  16.067  26.619  11.066
74445W        W39672  35.354  19.666  12.041
74446W        W39673  39.914  24.003  14.292
74447W        W39674  11.111  30.881   2.218
74448W        W39675  13.075  13.886   4.035
74449W        W39676  38.538  36.426  11.215
74450W        W39677  44.862  41.539  12.984
74451W        W39678  39.487  37.074   1.606
74452W        W39679  19.556  39.578  13.814
74453W        W39680  19.612   9.140  11.566
74454W        W39681  35.312   6.863  12.466
74455W        W39682  20.078  14.301   1.712
74456W        W39683  38.425  41.927   2.358
74457W        W39684  17.587  42.227   3.167
74458W        W39685  26.117  41.097  13.228
74459W        W39686  44.764  14.651  12.021
74460W        W39687  20.773  24.195   0.404
74461W        W39688  34.596  17.143  13.190
74462W        W39689  20.019  40.232  10.433
74463W        W39690  14.152  25.745  14.461
74464W        W39691  14.789   4.035   0.863
74465W        W39692  21.708  15.023   4.143
74466W        W39693   5.233  16.824  13.702
74467W        W39694  39.496  42.352  11.919
74468W        W39695  36.976  21.905   4.258
74469W        W39696  20.551  17.485  14.636
74470W        W39697  15.636  20.749  14.853
74471W        W39698  25.192  22.065   1.586
74472W        W39699  36.520  37.692  12.460
74473W        W39700   9.826  22.307   3.845
74474W        W39701  20.197  14.404  13.911
74475W        W39702  26.077   4.984  13.139
74476W        W39703   1.262  39.953   2.150
74477W        W39704  28.555  38.670   5.601
74478W        W39705  23.783  22.126   3.138
74479W        W39706  40.490  44.359   2.801
74480W        W39707  10.158  15.227  14.294
74481W        W39708  32.470  14.695   0.838
74482W        W39709   4.001  11.889  12.016
74483W        W39710   6.501   6.443   0.384
74484W        W39711  33.894  28.074   2.622
74485W        W39712  24.590  18.189  12.485
74486W        W39713   4.478  29.901  11.877
74487W        W39714  38.802  39.309   1.178
74488W        W39715  11.682  31.026   0.060
74489W        W39716  34.961  31.984   1.758
74490W        W39717  32.173  32.104  11.197
74491W        W39718  16.261  32.018   4.878
74492W        W39719  29.954  26.537   0.786
74493W        W39720  12.347   0.826   4.152
74494W        W39721  16.204   1.018  10.846
74495W        W39722  21.674  36.629   3.221
74496W        W39723   7.514  25.009   4.916
74497W        W39724   5.628   5.916  14.256
74498W        W39725  20.876  33.896  12.896
74499W        W39726  38.303  23.207   0.187
74500W        W39727  22.164  32.161  11.759
74501W        W39728  13.749   1.786   1.832
74502W        W39729  30.606  15.802  11.281
74503W        W39730  34.507  22.060  14.989
74504W        W39731  11.098  39.796  10.549
74505W        W39732  24.507   1.481  11.144
74506W        W39733  43.754  20.198  12.112
74507W        W39734  30.159  39.059   2.305
74508W        W39735  39.998  13.565   4.513
74509W        W39736  10.520  37.687   5.046
74510W        W39737  12.631  27.666  13.853
74511W        W39738  16.741  43.732   4.547
74512W        W39739  20.846  21.658  11.488
74513W        W39740  39.620  21.592   3.956
74514W        W39741  34.593   4.724  13.342
74515W        W39742   4.228  28.042   0.308
74516W        W39743  25.514  10.712   0.889
74517W        W39744  14.385  18.675   0.809
74518W        W39745  12.742  11.584  12.338
74519W        W39746  39.044  15.082  13.480
74520W        W39747  20.549  32.830  10.717
74521W        W39748  20.776  41.334  13.053
74522W        W39749  25.959  24.228  14.317
74523W        W39750  27.552  41.076   1.235
74524W        W39751   8.007  33.908  12.541
74525W        W39752  40.810   5.375   1.423
74526W        W39753  35.366   7.220  13.574
74527W        W39754  34.492  14.552  12.927
74528W        W39755   6.816  18.133   0.745
74529W        W39756  22.408   2.832   2.921
74530W        W39757   1.180  25.459  13.585
74531W        W39758  26.170  12.851  14.046
74532W        W39759  42.420  16.152   2.007
74533W        W39760  28.691  15.140  12.599
74534W        W39761   2.898  16.182  10.673
74535W        W39762  30.506  23.670  11.926
74536W        W39763   6.826  22.069   4.653
74537W        W39764  40.322  29.170  11.591
74538W        W39765  38.180  26.384  12.044
74539W        W39766  19.086   3.216   0.658
74540W        W39767  42.888  34.345   2.604
74541W        W39768   2.986  30.931  11.753
74542W        W39769  14.028   6.194   0.340
74543W        W39770  31.850   4.195  11.130
74544W        W39771  42.555  16.326   3.398
74545W        W39772  30.480  37.937   1.209
74546W        W39773  44.621  26.176  12.938
74547W        W39774  16.209  44.463  10.657
74548W        W39775  18.082   4.222   4.043
74549W        W39776   4.406  41.255  11.536
74550W        W39777  14.697  29.155  10.805
74551W        W39778  35.609  17.982  13.110
74552W        W39779  36.928  29.801   0.618
74553W        W39780  13.558  13.026  12.856
74554W        W39781  30.954   7.192   1.887
74555W        W39782  32.756  32.359   3.209
74556W        W39783  17.357  28.656   3.969
74557W        W39784  18.652  23.722   2.269
74558W        W39785  25.175  32.992  13.380
74559W        W39786  29.678  12.607   4.387
74560W        W39787  38.210   4.693   1.980
74561W        W39788  28.120  13.718  10.296
74562W        W39789  27.707  21.667  14.266
74563W        W39790  26.909  23.564   4.429
74564W        W39791  24.567  36.499   1.231
74565W        W39792  34.453  31.324  13.776
74566W        W39793  12.255  44.857   0.022
74567W        W39794   4.847   4.281  14.822
74568W        W39795  30.539  44.687  13.008
74569W        W39796   9.663  28.835   3.657
74570W        W39797   5.353  27.379   4.122
74571W        W39798  25.957  11.183  14.018
74572W        W39799   7.354  37.416   3.068
74573W        W39800   1.050   4.475  13.947
74574W        W39801  22.685   7.372   1.150
74575W        W39802   6.401  10.782   1.485
74576W        W39803  26.089  13.764  10.452
74577W        W39804   7.276   8.670   3.774
74578W        W39805  23.114  19.749   4.195
74579W        W39806  11.994  34.920  11.115
74580W        W39807  32.660  34.302   3.616
74581W        W39808   6.277   0.916   3.601
74582W        W39809  21.222   4.429   3.155
74583W        W39810  15.401  31.152  13.541
74584W        W39811  19.788  14.921  12.502
74585W        W39812  10.866  15.057   4.719
74586W        W39813   4.722  14.360   0.864
74587W        W39814  39.746   4.691  14.506
74588W        W39815  25.618  37.463  14.881
74589W        W39816  21.159  33.166  13.331
74590W        W39817  42.168  16.762   3.195
74591W        W39818  17.867   3.357  10.765
74592W        W39819  37.162  42.356  11.656
74593W        W39820  22.180  39.761  11.487
74594W        W39821  36.631   3.439   0.695
74595W        W39822   6.887  27.667  11.663
74596W        W39823  10.393  31.383   0.778
74597W        W39824  13.256  21.030  10.334
74598W        W39825  20.286  17.718  10.781
74599W        W39826  18.144  24.638   2.435
74600W        W39827   0.019  22.051  12.095
74601W        W39828  36.073  14.271   1.984
74602W        W39829  26.439  28.340   3.657
74603W        W39830  15.548  43.031   1.862
74604W        W39831  35.754   5.726   3.242
74605W        W39832  34.022  40.536   1.201
74606W        W39833  37.259  26.747   0.260
74607W        W39834  19.152   0.839   1.266
74608W        W39835  29.870   0.287  12.900
74609W        W39836   3.433  35.897   3.309
74610W        W39837   8.691  21.641   3.222
74611W        W39838   3.359  25.957   0.798
74612W        W39839   2.525   2.734  10.759
74613W        W39840  31.425  13.718   0.397
74614W        W39841  10.758  43.506   4.150
74615W        W39842  12.350  12.803  12.514
74616W        W39843  30.961  39.624  14.297
74617W        W39844   0.416   5.344   4.068
74618W        W39845  38.753  34.444  14.849
74619W        W39846  43.912  26.885  14.977
74620W        W39847  14.806   5.424  13.956
74621W        W39848  24.671  38.829   1.842
74622W        W39849  35.920  41.398  14.518
74623W        W39850   1.498   6.820   2.312
74624W        W39851  40.043  15.314  13.513
74625W        W39852   6.186  43.113   1.271
74626W        W39853  39.835  33.414   0.450
74627W        W39854  33.334  15.175   1.324
74628W        W39855   8.276   2.267  12.542
74629W        W39856  16.672  17.275  14.435
74630W        W39857  24.981  40.183   0.298
74631W        W39858  43.490  10.195   0.289
74632W        W39859   7.907  21.563  13.817
74633W        W39860  43.377  17.411  11.157
74634W        W39861  29.990  12.482   4.789
74635W        W39862  31.876  25.083  13.837
74636W        W39863  37.399  17.062  14.064
74637W        W39864  24.274  14.376   2.576
74638W        W39865  19.721  24.552  12.622
74639W        W39866   5.719  12.818   3.837
74640W        W39867  14.295  31.419  13.968
74641W        W39868  23.747   2.239   2.123
74642W        W39869  38.099   5.232   5.459
74643W        W39870  36.178   2.432  11.918
74644W        W39871   9.334  27.121   1.446
74645W        W39872  43.831   2.158  12.503
74646W        W39873  40.507  19.591   4.584
74647W        W39874  19.364   0.333   2.836
74648W        W39875  16.621   8.395   0.746
74649W        W39876  33.352   9.683  10.342
74650W        W39877  27.193   1.854   2.314
74651W        W39878  37.042  41.602  13.465
74652W        W39879  16.903  13.031  13.945
74653W        W39880  36.622  43.559  14.759
74654W        W39881  13.141  35.350  14.665
74655W        W39882  13.108  33.575  10.785
74656W        W39883  31.156  10.324  12.000
74657W        W39884  20.036  14.137   4.444
74658W        W39885  31.149  20.161   0.497
74659W        W39886   5.349  14.756   1.154
74660W        W39887   6.278   5.066  13.062
74661W        W39888  35.101  38.913  10.076
74662W        W39889   6.749   6.874   3.713
74663W        W39890  41.839  32.124  10.678
74664W        W39891  26.039  15.775   0.539
74665W        W39892  15.486  14.287  11.333
74666W        W39893   0.819  32.877   2.833
74667W        W39894  43.866  23.129   2.726
74668W        W39895   9.700  14.852  12.048
74669W        W39896  36.107  11.134   0.380
74670W        W39897   3.793   5.217   1.422
74671W        W39898  24.730  27.184  11.574
74672W        W39899  10.839  18.911   4.534
74673W        W39900  30.162  28.663  11.573
74674W        W39901  34.377  21.382  11.005
74675W        W39902  43.869  29.484  12.071
74676W        W39903  41.779  34.062   3.151
74677W        W39904  29.810  12.302   2.233
74678W        W39905  18.155   6.688   4.516
74679W        W39906  20.621  19.232   0.801
74680W        W39907  14.383  17.240  14.822
74681W        W39908   1.547  35.083   3.056
74682W        W39909  27.955   8.096   4.059
74683W        W39910   1.865  17.010  14.211
74684W        W39911  34.736   6.162   0.485
74685W        W39912  14.152  10.214   1.849
74686W        W39913  15.778  39.746  13.502
74687W        W39914  21.728   8.224  12.577
74688W        W39915   5.654   3.523   0.443
74689W        W39916  43.092  22.756  13.912
74690W        W39917  36.778   8.956   1.766
74691W        W39918   7.964  32.091   4.189
74692W        W39919  32.855  29.972  13.054
74693W        W39920  24.543  15.387  12.675
74694W        W39921  33.406  20.689   4.171
74695W        W39922   6.015  34.309   0.399
74696W        W39923   2.464   8.859  13.099
74697W        W39924  38.282  43.868   1.235
74698W        W39925  10.766  28.018   0.822
74699W        W39926  43.244  27.736   2.990
74700W        W39927  26.930  34.958   1.355
74701W        W39928  42.697  15.689  12.530
74702W        W39929   5.763  11.588  14.331
74703W        W39930  22.581   7.859  14.393
74704W        W39931  20.522  17.555  12.004
74705W        W39932  18.192  28.378   3.509
74706W        W39933  24.322  41.071  14.932
74707W        W39934   3.461  41.508  13.584
74708W        W39935  20.866  33.923  12.082
74709W        W39936   8.495  36.268  13.968
74710W        W39937   5.590   3.015  14.427
74711W        W39938   2.189  21.623   1.360
74712W        W39939  24.454   1.629   2.330
74713W        W39940   8.882  32.450   4.887
74714W        W39941  42.585   8.152  12.975
74715W        W39942  38.422  17.371   0.354
74716W        W39943  26.787  22.686   0.966
74717W        W39944  25.715   8.156  14.983
74718W        W39945  24.632  43.390  14.048
74719W        W39946  24.927  17.931  10.815
74720W        W39947  30.145   1.506  10.769
74721W        W39948   2.303   7.349  11.518
74722W        W39949  16.114   3.609   2.111
74723W        W39950   7.341   7.629   3.726
74724W        W39951  16.166   4.346  11.600
74725W        W39952  38.292   2.003  10.725
74726W        W39953  28.606  42.858   3.621
74727W        W39954  34.349  29.084   0.288
74728W        W39955  22.713  17.071  13.299
74729W        W39956   6.308  27.028   3.564
74730W        W39957   8.209  16.036   2.426
74731W        W39958  21.712   8.567   0.233
74732W        W39959  26.517  42.522   1.776
74733W        W39960  25.681  42.895   1.568
74734W        W39961  30.080   9.499  11.146
74735W        W39962   8.128  20.180  10.808
74736W        W39963   5.174  41.082  13.812
74737W        W39964  23.492  11.328   2.325
74738W        W39965  26.961   1.676  10.941
74739W        W39966  42.754  38.919   0.779
74740W        W39967   8.560  27.686  10.992
74741W        W39968  27.654   5.747   2.130
74742W        W39969  13.197  20.134  11.900
74743W        W39970   8.835  23.918  14.684
74744W        W39971  27.932  17.059  13.355
74745W        W39972   8.697  32.747  14.551
74746W        W39973  19.066  37.398  14.427
74747W        W39974  20.969  26.918  10.730
74748W        W39975  36.139  30.733   1.989
74749W        W39976   3.405  41.466  14.141
74750W        W39977  33.650  34.983   3.969
74751W        W39978   3.790  18.028  11.720
74752W        W39979  26.072  25.771  11.669
74753W        W39980  16.203  20.884  10.003
74754W        W39981   0.747  43.334   0.455
74755W        W39982  41.877   1.246   4.388
74756W        W39983  24.614   4.830  12.634
74757W        W39984  34.889  30.601  11.746
74758W        W39985  33.161  43.854  14.865
74759W        W39986  39.004  19.357   2.231
74760W        W39987  17.763  16.961   4.779
74761W        W39988   4.630  21.760  11.102
74762W        W39989  28.355  12.810  12.321
74763W        W39990   5.502  27.214   1.350
74764W        W39991  22.546  18.059   0.709
74765W        W39992   0.240  18.279   9.916
74766W        W39993   3.831  24.680  11.841
74767W        W39994  22.039  13.144  12.135
74768W        W39995   8.240   7.876  14.357
74769W        W39996  15.267  27.601  12.409
74770W        W39997   9.157  33.240  13.938
74771W        W39998  20.991  18.966  11.621
74772W        W39999   6.476  21.565   3.652
74773W        W40000  40.874   8.507  13.487
74774W        W40001  44.775   6.058   1.529
74775W        W40002  12.871  40.545  14.657
74776W        W40003  25.611  38.270   4.533
74777W        W40004  34.601  33.810  11.609
74778W        W40005  27.155  22.121   2.558
74779W        W40006  12.347  39.016   1.650
74780W        W40007   2.467   1.761   1.014
74781W        W40008  18.349  31.082  14.391
74782W        W40009   3.036  22.076  11.501
74783W        W40010  24.908   3.328  12.392
74784W        W40011  21.487  33.981  11.532
74785W        W40012   0.971  17.149   1.902
74786W        W40013  17.723  13.769   0.836
74787W        W40014  24.342   3.112   4.201
74788W        W40015  43.190   1.990  14.836
74789W        W40016  31.600  22.604   3.786
74790W        W40017   4.455  32.942  13.986
74791W        W40018  44.791  36.853  14.793
74792W        W40019   4.649  21.097  13.841
74793W        W40020  22.931  29.639   3.315
74794W        W40021  14.649  21.009  14.983
74795W        W40022  39.432  41.970   1.310
74796W        W40023  27.051  43.830   4.623
74797W        W40024  35.493  24.582  14.929
74798W        W40025  37.360  41.718   4.177
74799W        W40026  11.368   0.830  13.000
74800W        W40027  36.878  10.459  11.529
74801W        W40028  18.125  20.065  14.758
74802W        W40029   8.286   7.445  12.583
74803W        W40030  24.030  34.670   0.424
74804W        W40031   1.700  36.675   0.760
74805W        W40032  39.907  42.198  12.178
74806W        W40033  12.653  16.760  14.301
74807W        W40034  12.198  17.961   0.251
74808W        W40035  40.524  12.281  12.264
74809W        W40036  16.655   0.355   4.765
74810W        W40037  29.699  16.239   3.627
74811W        W40038   2.335   4.265  14.308
74812W        W40039   6.211   6.379   4.167
74813W        W40040  24.187   3.938   1.202
74814W        W40041   5.267  31.924  12.743
74815W        W40042  44.662   7.630  12.847
74816W        W40043   6.850  43.321   5.035
74817W        W40044  13.170  18.962  11.239
74818W        W40045  32.708  33.538   2.200
74819W        W40046  16.590   2.345  14.237
74820W        W40047  37.568  39.873  14.387
74821W        W40048  34.577  21.414  14.512
74822W        W40049  24.343   3.623  11.236
74823W        W40050  28.910  40.748   1.910
74824W        W40051  42.861   1.982  14.369
74825W        W40052   7.159  25.465   2.082
74826W        W40053  21.121  28.105   4.948
74827W        W40054  36.136  33.851  13.602
74828W        W40055  41.308  30.395  12.335
74829W        W40056  20.603  13.448   4.062
74830W        W40057  41.939  35.509   0.835
74831W        W40058  26.062  12.821  10.503
74832W        W40059   3.646  18.459   0.041
74833W        W40060  29.438   7.655   3.716
74834W        W40061  43.523  42.985  14.388
74835W        W40062  25.682   0.134   3.562
74836W        W40063  19.846  28.177   0.426
74837W        W40064   8.975   1.836   1.276
74838W        W40065  10.748  34.121   2.133
74839W        W40066   5.076  39.871  12.893
74840W        W40067  23.762  32.387   1.778
74841W        W40068  10.885  42.999  11.152
74842W        W40069   9.365  43.512   4.077
74843W        W40070  43.898  16.723   2.657
74844W        W40071   3.703  25.217  10.657
74845W        W40072  19.451  24.679   3.159
74846W        W40073  21.544   9.896  12.016
74847W        W40074  27.959   6.143  14.467
74848W        W40075  44.965   7.768  11.045
74849W        W40076   5.820  12.310  11.261
74850W        W40077  27.015   7.719   1.644
74851W        W40078  37.732  17.013  12.054
74852W        W40079  34.202  38.668   3.651
74853W        W40080  17.759  32.334  14.926
74854W        W40081  15.065   0.077  11.129
74855W        W40082  22.218  38.309  11.624
74856W        W40083  34.900  25.675  10.435
74857W        W40084  13.345   1.259  13.869
74858W        W40085  25.122  19.773   0.823
74859W        W40086  14.628  30.847   2.669
74860W        W40087  25.714  20.905   2.750
74861W        W40088  10.695  14.165  12.535
74862W        W40089  23.563  16.741  13.352
74863W        W40090  36.290   7.629   2.686
74864W        W40091  36.400  13.860  11.222
74865W        W40092  17.322   5.129   5.095
74866W        W40093  41.022   1.228   2.653
74867W        W40094  36.197  36.703  13.094
74868W        W40095  12.417  13.317  12.594
74869W        W40096  24.285  39.120  14.453
74870W        W40097   9.335   0.895  13.013
74871W        W40098  40.283  40.989   4.509
74872W        W40099   5.725  22.964   2.506
74873W        W40100  35.959  29.239  14.300
74874W        W40101  23.635  40.243   0.450
74875W        W40102   7.669  34.332  13.501
74876W        W40103  26.545  22.974   3.337
74877W        W40104   9.266  19.189   0.720
74878W        W40105  35.978  17.065   4.536
74879W        W40106  37.584   3.798   1.309
74880W        W40107   6.353   8.745  11.372
74881W        W40108  38.386  38.725  11.213
74882W        W40109  31.934  30.554   2.480
74883W        W40110  42.974  17.171   3.036
74884W        W40111  21.697   0.334  13.482
74885W        W40112  33.949  30.734  10.784
74886W        W40113  34.669  10.093  13.955
74887W        W40114  33.815  36.129  13.005
74888W        W40115   8.737   6.019   2.311
74889W        W40116   6.078  43.582   1.448
74890W        W40117  44.031  15.136   3.620
74891W        W40118   1.284  36.193   2.437
74892W        W40119  24.998  28.389  13.335
74893W        W40120  39.252  21.151   1.328
74894W        W40121  22.422   7.025  10.765
74895W        W40122  31.052  23.413   3.319
74896W        W40123  20.386  16.700   3.188
74897W        W40124   2.553  27.445  13.291
74898W        W40125  18.101  31.075   0.834
74899W        W40126   8.656   9.647  10.782
74900W        W40127   1.152  33.867  12.376
74901W        W40128  12.775   6.625   2.250
74902W        W40129  14.327  15.639  12.098
74903W        W40130  24.063  20.338   4.111
74904W        W40131  25.920   8.681  14.933
74905W        W40132  35.427  30.269  13.095
74906W        W40133   3.475   5.926   3.658
74907W        W40134  11.504  31.359  10.212
74908W        W40135   0.135  25.730   0.316
74909W        W40136  12.912  10.294   0.886
74910W        W40137  33.834  24.380  14.394
74911W        W40138  37.060  21.664   2.729
74912W        W40139   4.643  13.086   1.223
74913W        W40140  13.879  44.685  12.531
74914W        W40141   7.904  22.228  14.438
74915W        W40142  38.710  30.207   3.342
74916W        W40143   0.727  23.061  12.425
74917W        W40144   3.746   7.378  13.017
74918W        W40145  25.231  10.197  13.969
74919W        W40146  31.716  20.182   0.504
74920W        W40147  25.553   4.541  10.651
74921W        W40148  27.609  40.804  11.093
74922W        W40149   7.400   2.420   2.718
74923W        W40150   1.549  18.774   3.635
74924W        W40151   4.425  18.754  14.252
74925W        W40152  25.626   4.406  12.448
74926W        W40153  25.842   6.183  13.573
74927W        W40154   5.207  28.922   2.257
74928W        W40155  34.904  42.923  14.498
74929W        W40156  14.503  15.279   3.325
74930W        W40157  40.454  36.571   4.933
74931W        W40158  38.134  42.331   3.676
74932W        W40159  10.360   2.486  14.428
74933W        W40160   0.314  15.839  13.071
74934W        W40161  32.086  38.801   3.046
74935W        W40162   3.730   8.892  14.396
74936W        W40163  18.001  16.196  14.134
74937W        W40164  29.014  22.994   3.149
74938W        W40165  28.001   4.690  11.325
74939W        W40166  11.588  15.510  11.664
74940W        W40167   6.380  39.468   3.106
74941W        W40168  11.593  17.431   4.555
74942W        W40169  29.911  11.734   0.655
74943W        W40170  25.993  39.273   4.069
74944W        W40171  36.143   4.995   2.547
74945W        W40172  19.275   8.391   2.520
74946W        W40173  20.206  13.343   0.964
74947W        W40174   7.867  23.330   2.695
74948W        W40175  10.707  33.057   1.775
74949W        W40176  11.192  35.050   1.871
74950W        W40177  22.793  14.037  13.210
74951W        W40178  13.307  35.988  13.493
74952W        W40179  43.423  10.167  11.887
74953W        W40180  29.792  22.506  13.035
74954W        W40181   9.717  31.387   4.221
74955W        W40182  24.118  31.208  12.364
74956W        W40183  27.075  30.413   3.137
74957W        W40184  10.712   9.764  13.499
74958W        W40185  23.704  13.359   1.866
74959W        W40186   1.165  32.433  14.448
74960W        W40187  33.979  31.930   3.182
74961W        W40188   0.738  38.913   3.632
74962W        W40189  16.164  26.095  12.290
74963W        W40190  20.050  24.576  13.947
74964W        W40191   5.338  35.772   4.537
74965W        W40192  34.637  29.959  14.863
74966W        W40193  27.918  18.780  10.615
74967W        W40194  21.011   7.416   0.337
74968W        W40195  44.058   6.356   4.157
74969W        W40196  33.419  41.788  11.161
74970W        W40197   0.978  30.087  12.974
74971W        W40198   1.731  22.108  13.498
74972W        W40199  13.301  27.225   4.812
74973W        W40200   8.799   2.427  10.865
74974W        W40201   6.237  28.554  13.768
74975W        W40202  29.145   5.330  10.712
74976W        W40203  26.886  37.875   4.301
74977W        W40204  32.021  43.478   3.385
74978W        W40205  12.087  25.094   0.406
74979W        W40206  35.560   0.393   3.717
74980W        W40207  43.622  27.231  11.027
74981W        W40208  21.084  29.855  13.990
74982W        W40209  25.078  32.814   1.413
74983W        W40210  37.080  17.047   2.711
74984W        W40211  33.076  34.165  11.581
74985W        W40212  29.444  27.902   0.449
74986W        W40213  39.529  29.595  12.933
74987W        W40214  14.150  24.485  12.324
74988W        W40215  20.645   5.258   1.230
74989W        W40216   5.264  43.902  14.002
74990W        W40217   2.183  40.563   0.488
74991W        W40218  28.033   6.761   0.645
74992W        W40219  31.735  30.096  13.471
74993W        W40220  32.010   9.376   0.638
74994W        W40221  27.515  34.959  12.249
74995W        W40222   0.650  37.809  13.524
74996W        W40223  34.057  33.576   1.419
74997W        W40224  20.366  32.989  12.589
74998W        W40225  20.443  29.257  13.321
74999W        W40226  16.352  28.915   4.181
75000W        W40227  10.041  34.410  10.480
75001W        W40228   1.830  13.254   2.295
75002W        W40229   5.796  26.541  10.311
75003W        W40230   3.981  41.022   4.186
75004W        W40231  27.876   0.750   3.561
75005W        W40232   0.929  39.801   4.151
75006W        W40233   2.154   1.662  12.148
75007W        W40234   1.845  32.104  14.410
75008W        W40235  30.568  26.926  14.813
75009W        W40236   9.768  11.645   3.176
75010W        W40237  17.546  28.673  10.581
75011W        W40238   7.309  10.069  14.876
75012W        W40239  36.484  12.306  13.405
75013W        W40240   1.953  30.411  14.934
75014W        W40241  31.501  30.229   3.596
75015W        W40242  15.602  38.958  11.853
75016W        W40243  18.146  20.945  13.632
75017W        W40244   5.422  41.817  11.123
75018W        W40245  31.462  33.939  12.052
75019W        W40246  11.051  12.567   1.788
75020W        W40247  33.059  24.043   1.225
75021W        W40248  34.876  14.814  12.683
75022W        W40249  32.917   7.498   4.431
75023W        W40250  40.969  12.218   0.942
75024W        W40251  15.536  41.907  11.526
75025W        W40252  12.121  32.557   2.868
75026W        W40253   5.746  11.247  13.462
75027W        W40254  19.367  21.659   0.089
75028W        W40255  12.227   6.133   0.231
75029W        W40256  39.934   5.140   3.283
75030W        W40257  18.303   3.634  14.049
75031W        W40258  41.741  34.121  13.335
75032W        W40259   9.271   4.420  14.280
75033W        W40260   6.965  26.131  12.604
75034W        W40261  35.133   4.472  10.733
75035W        W40262  22.672  43.764  13.317
75036W        W40263  22.014  24.775   1.278
75037W        W40264  10.409   5.637   0.991
75038W        W40265  18.052  35.670  12.610
75039W        W40266  20.469  24.414   1.251
75040W        W40267  22.021  37.480  14.348
75041W        W40268  19.734  21.293   3.712
75042W        W40269   4.283  39.607   3.117
75043W        W40270  15.131  19.337  11.211
75044W        W40271  44.766  21.903  10.377
75045W        W40272  27.570  34.927  13.911
75046W        W40273  29.889   6.835  12.492
75047W        W40274  20.760   2.956  14.840
75048W        W40275  27.536  23.993  14.011
75049W        W40276  13.140  27.021   1.553
75050W        W40277  16.631   3.660   2.726
75051W        W40278   2.440  11.276   0.049
75052W        W40279  13.765  42.012   1.567
75053W        W40280  24.509  38.315  10.803
75054W        W40281   9.177   0.431  12.800
75055W        W40282  36.400  18.733   2.241
75056W        W40283  32.153  38.341   0.832
75057W        W40284  32.226  26.014   1.414
75058W        W40285   0.504  31.597   2.550
75059W        W40286  26.864  24.633  13.839
75060W        W40287  42.796  23.926  14.993
75061W        W40288  27.469  42.448  11.641
75062W        W40289  38.115  26.734  12.489
75063W        W40290  33.935  20.681   0.488
75064W        W40291  29.265  21.395  12.593
75065W        W40292  33.486  11.226   3.851
75066W        W40293  24.086  15.533   0.370
75067W        W40294  28.481  10.390  13.484
75068W        W40295  13.794  42.264  14.288
75069W        W40296  27.021  16.971  12.846
75070W        W40297  40.773  41.532  12.871
75071W        W40298  12.904  32.123  14.839
75072W        W40299  22.005   7.353  10.688
75073W        W40300   4.341  21.579  14.999
75074W        W40301  14.333  44.372   3.318
75075W        W40302  20.676  24.408  14.933
75076W        W40303  25.720  38.238  12.953
75077W        W40304  13.996  42.960   1.315
75078W        W40305  25.427  20.490   1.331
75079W        W40306   6.201  27.518  11.423
75080W        W40307   3.504  17.805  14.334
75081W        W40308  19.565   9.592   2.299
75082W        W40309   0.793  16.173   0.745
75083W        W40310  29.881  36.471   0.883
75084W        W40311  21.567  16.142  12.356
75085W        W40312  38.597   3.405  13.591
75086W        W40313  27.217   0.643  10.372
75087W        W40314   2.429  17.962   2.772
75088W        W40315   8.906  25.326   3.614
75089W        W40316  27.766  41.533  12.582
75090W        W40317  33.028  40.855  12.013
75091W        W40318  31.580   4.816  13.028
75092W        W40319   6.612  21.212  10.758
75093W        W40320  41.762   2.433   4.243
75094W        W40321  15.316  43.095  13.035
75095W        W40322  16.121  23.692   3.130
75096W        W40323  16.583  37.555  13.487
75097W        W40324  30.273  20.486   2.096
75098W        W40325   6.812   2.714   0.875
75099W        W40326  19.269  37.925   3.064
75100W        W40327  31.012  17.644  10.704
75101W        W40328  41.239  30.296   0.226
75102W        W40329  34.876  25.075   0.743
75103W        W40330  33.602  27.583   0.359
75104W        W40331  36.057  27.967  12.084
75105W        W40332  31.950  27.202  14.478
75106W        W40333  28.356  23.079   4.764
75107W        W40334  25.353  12.128   1.943
75108W        W40335  41.795  43.464   1.898
75109W        W40336  14.430  18.748   2.787
75110W        W40337  31.916  22.647  14.122
75111W        W40338  13.613  15.665   3.597
75112W        W40339  22.054  15.558   4.854
75113W        W40340  37.620  35.680  12.022
75114W        W40341  32.564  34.811   3.315
75115W        W40342  19.636  39.663  12.812
75116W        W40343  20.161   1.168   2.292
75117W        W40344   3.716  11.100  11.648
75118W        W40345  36.905  43.464  10.937
75119W        W40346  16.569  12.066  10.746
75120W        W40347  20.176   7.925   1.385
75121W        W40348  13.208  31.617  13.487
75122W        W40349  26.429   8.691   4.687
75123W        W40350  10.012  13.176   2.449
75124W        W40351  15.340  37.535  13.902
75125W        W40352  41.976   9.466   0.775
75126W        W40353  21.374   9.439   0.220
75127W        W40354  26.950  30.615   4.036
75128W        W40355  13.605  16.469  12.877
75129W        W40356  19.454  35.451  11.484
75130W        W40357   1.198   5.369   2.349
75131W        W40358  21.533  10.125   4.525
75132W        W40359  23.194  16.023  14.270
75133W        W40360   6.417  19.285  12.589
75134W        W40361  21.214  28.457  12.307
75135W        W40362  13.359  18.132  13.552
75136W        W40363  21.005   8.601  12.907
75137W        W40364  15.852  24.293  12.523
75138W        W40365  34.975  13.746  13.399
75139W        W40366  26.108  37.742   1.290
75140W        W40367  23.968   5.272   2.670
75141W        W40368  13.886  35.360  14.093
75142W        W40369  39.972  31.971   2.839
75143W        W40370  23.291   1.739  13.337
75144W        W40371  28.122  31.508  14.743
75145W        W40372  43.239  34.552  12.984
75146W        W40373  28.952  24.996  12.491
75147W        W40374  44.558  21.660   0.749
75148W        W40375  12.590  41.127   4.342
75149W        W40376  36.990   2.338   4.153
75150W        W40377   2.577  11.177  14.535
75151W        W40378  25.483  20.053   0.529
75152W        W40379   1.801   0.309  12.266
75153W        W40380  32.107   3.909   2.116
75154W        W40381  11.388  22.345   4.032
75155W        W40382  20.148   1.272   4.600
75156W        W40383   9.314  33.460   0.909
75157W        W40384  15.103  32.493   1.901
75158W        W40385  43.583  28.353  10.242
75159W        W40386   4.789  40.667  11.158
75160W        W40387  30.545  37.802  12.167
75161W        W40388   7.378  22.672   0.499
75162W        W40389   7.781   4.572  10.716
75163W        W40390   8.843  32.813   2.400
75164W        W40391  32.262  22.976  13.923
75165W        W40392   3.052   1.332  12.844
75166W        W40393   2.538  25.617  10.611
75167W        W40394  25.484  14.892  14.982
75168W        W40395  13.871   2.036  11.353
75169W        W40396   9.396   3.689   1.755
75170W        W40397  10.709  30.879   3.532
75171W        W40398  38.367   4.942   0.921
75172W        W40399  44.932  28.286  12.522
75173W        W40400  40.817   3.324   0.120
75174W        W40401  20.190  37.842  10.597
75175W        W40402   9.749  38.357  12.588
75176W        W40403  32.945  44.865   1.272
75177W        W40404  20.090  31.510   3.097
75178W        W40405  18.053  27.151   0.302
75179W        W40406  39.399   0.987   2.836
75180W        W40407   9.562   1.928  13.566
75181W        W40408  10.853  36.402  11.964
75182W        W40409   4.477   1.845   2.384
75183W        W40410   2.393  37.382   2.815
75184W        W40411  40.878   5.467  13.371
75185W        W40412   7.446  17.316  14.909
75186W        W40413   4.716  23.259   0.829
75187W        W40414  17.171  23.099  12.927
75188W        W40415  33.385  18.860  11.108
75189W        W40416  37.003  20.202  10.802
75190W        W40417  40.474  27.589   0.971
75191W        W40418  40.076  27.196   0.910
75192W        W40419  37.568  10.821  14.010
75193W        W40420  17.097   3.683  11.637
75194W        W40421   0.736   8.097  14.525
75195W        W40422  16.655  13.946   4.029
75196W        W40423  19.257  35.105  12.836
75197W        W40424   8.904  42.295  14.234
75198W        W40425  24.275  24.034   2.661
75199W        W40426  43.459  33.808  12.617
75200W        W40427  13.253   2.929   1.662
75201W        W40428  26.631  12.291   4.090
75202W        W40429  26.845   6.499   4.056
75203W        W40430  37.897  20.948  14.979
75204W        W40431   9.593   1.759   1.731
75205W        W40432   0.029  33.466  12.537
75206W        W40433  42.067  20.275   1.928
75207W        W40434  24.287  30.922   3.327
75208W        W40435  22.062   0.356   3.695
75209W        W40436  30.879   7.287   4.992
75210W        W40437   0.041   7.683   1.336
75211W        W40438   5.701   9.447  12.087
75212W        W40439  39.345   2.109   0.708
75213W        W40440  23.171  30.014  14.474
75214W        W40441  14.757   6.509  12.625
75215W        W40442  33.714  23.527   0.780
75216W        W40443  20.263  35.903   1.789
75217W        W40444  26.507   1.299  13.854
75218W        W40445  26.421  13.812  14.590
75219W        W40446  23.020   5.892   3.294
75220W        W40447  37.326  13.723   1.979
75221W        W40448  18.076  36.308  14.958
75222W        W40449  22.981  23.588  13.037
75223W        W40450  19.091  39.385  11.567
75224W        W40451  12.174  22.766   4.392
75225W        W40452  11.946  10.196  10.329
75226W        W40453  25.869  34.823   1.635
75227W        W40454  19.661  28.086  13.539
75228W        W40455  36.063   0.258   0.817
75229W        W40456  18.991  20.722   0.801
75230W        W40457   8.842  22.548   0.758
75231W        W40458  40.392  37.083   1.698
75232W        W40459  26.637  34.800   5.086
75233W        W40460  27.126  39.011   3.615
75234W        W40461  29.013   3.518   4.724
75235W        W40462  28.353  27.996   4.091
75236W        W40463  16.759  32.350   3.808
75237W        W40464  19.305   2.476  13.060
75238W        W40465   3.070  23.374  12.949
75239W        W40466  36.367  34.161  12.346
75240W        W40467  27.078  17.413  14.130
75241W        W40468  21.502  39.410  12.357
75242W        W40469  14.902  19.243   2.928
75243W        W40470  38.053  38.904   3.319
75244W        W40471  20.498  28.705  12.455
75245W        W40472  15.664  35.545   3.986
75246W        W40473  43.028  38.320   4.070
75247W        W40474   4.844  30.720   0.173
75248W        W40475   0.554  38.454   1.398
75249W        W40476  27.640   3.834  10.265
75250W        W40477  12.369  35.095   2.783
75251W        W40478  32.547  23.673  12.723
75252W        W40479  44.394   5.442   0.809
75253W        W40480  26.676   2.193  13.839
75254W        W40481   1.562  13.090  11.441
75255W        W40482  43.843  10.442   2.300
75256W        W40483   9.236  31.624   2.601
75257W        W40484  16.776  36.235  14.398
75258W        W40485  30.506  40.043   3.321
75259W        W40486   0.394  24.398  13.362
75260W        W40487   6.129   5.987   2.469
75261W        W40488  29.075  29.903  13.036
75262W        W40489  13.664   2.346  14.496
75263W        W40490  31.075   9.265   0.061
75264W        W40491  25.876  14.851  11.565
75265W        W40492  21.961  13.573  14.824
75266W        W40493  30.975  35.578   3.669
75267W        W40494  43.099  10.303   3.725
75268W        W40495   5.834  14.384  13.948
75269W        W40496  40.090  24.421   2.820
75270W        W40497  30.126  29.931  14.335
75271W        W40498  10.346  11.982   4.602
75272W        W40499  37.372  36.877   0.177
75273W        W40500  43.805  25.067   1.436
75274W        W40501  42.253   2.379   0.955
75275W        W40502  19.424  38.359  11.471
75276W        W40503  33.582  23.924   1.133
75277W        W40504  11.643  10.302   1.969
75278W        W40505  42.451  31.366  10.659
75279W        W40506  25.709  30.901  14.946
75280W        W40507  21.797  40.152   3.320
75281W        W40508  16.201  12.751  13.547
75282W        W40509  25.508  24.152   0.013
75283W        W40510  19.245   1.728  11.529
75284W        W40511  16.504  21.369  11.478
75285W        W40512  13.047  30.931  12.892
75286W        W40513  43.604   0.900   1.693
75287W        W40514  18.691  29.537   1.131
75288W        W40515  18.124   2.901  11.289
75289W        W40516  25.477  21.093   2.308
75290W        W40517  31.567  32.966   2.721
75291W        W40518  43.838  20.114   0.657
75292W        W40519  40.047  20.077   2.804
75293W        W40520  34.481  36.279  12.092
75294W        W40521  39.781   7.469   1.878
75295W        W40522   1.171  29.284   4.576
75296W        W40523  38.997  43.468  12.651
75297W        W40524   4.416  35.065   1.821
75298W        W40525  22.174   4.536  14.782
75299W        W40526  34.830  21.691  14.848
75300W        W40527   7.720  22.240   1.281
75301W        W40528  40.938  37.558  10.742
75302W        W40529  23.134  44.052  14.566
75303W        W40530   1.782  16.839   1.476
75304W        W40531  36.079  10.095  13.495
75305W        W40532  18.704  17.291   0.025
75306W        W40533  23.893   2.425  10.835
75307W        W40534  10.805  13.787  13.544
75308W        W40535  25.719  28.587  13.854
75309W        W40536  13.640   9.670   2.821
75310W        W40537  30.610  23.281  10.305
75311W        W40538  41.630  39.955   1.956
75312W        W40539  17.842  30.131  13.448
75313W        W40540   5.858  26.845   1.469
75314W        W40541  17.038   5.230   2.902
75315W        W40542  26.213  25.280  11.652
75316W        W40543  36.902  25.988   0.474
75317W        W40544  19.029  40.942  12.088
75318W        W40545  24.902  33.633   4.082
75319W        W40546  40.182  23.355   4.856
75320W        W40547  43.202  44.387  10.175
75321W        W40548  41.988  14.311  12.857
75322W        W40549  17.143  20.006  11.300
75323W        W40550  41.503   1.412  12.134
75324W        W40551   7.859  17.696   4.578
75325W        W40552  43.564  25.002  13.971
75326W        W40553   2.874  43.924   2.749
75327W        W40554  15.660  20.784   4.307
75328W        W40555  41.419  24.357   4.509
75329W        W40556  26.932   0.760  14.002
75330W        W40557  37.558  32.416  12.811
75331W        W40558  17.374  37.556   0.494
75332W        W40559  40.808  14.705  13.291
75333W        W40560  32.167  29.274  14.421
75334W        W40561   3.759  25.173   3.525
75335W        W40562  15.794  24.270  13.061
75336W        W40563  26.733  30.523   4.495
75337W        W40564   6.268   4.396   1.631
75338W        W40565  15.721  18.169   2.553
75339W        W40566  41.331  17.337  11.125
75340W        W40567  37.027  25.623   3.697
75341W        W40568  11.554  30.926   5.434
75342W        W40569  22.967  23.400   0.702
75343W        W40570   8.096   5.933   3.467
75344W        W40571  33.622  25.763   3.826
75345W        W40572  16.851   5.265  10.742
75346W        W40573  37.059  16.675  12.817
75347W        W40574  23.611  40.977   3.302
75348W        W40575  32.949  24.780   1.836
75349W        W40576  34.786   0.477  11.540
75350W        W40577  36.910  29.415  12.139
75351W        W40578   4.646  25.186  13.902
75352W        W40579  33.117   6.716  14.802
75353W        W40580   4.008  21.220  12.806
75354W        W40581   6.673  32.103   4.864
75355W        W40582  37.447  23.104   2.835
75356W        W40583  44.219  23.056  11.655
75357W        W40584  41.382  25.456   2.312
75358W        W40585  29.064  22.800   4.476
75359W        W40586  34.083  43.169  11.080
75360W        W40587  20.262  22.612   1.893
75361W        W40588   6.761  44.729   2.178
75362W        W40589   3.289  42.236  12.400
75363W        W40590  11.469  37.719  13.568
75364W        W40591  19.871  13.346  12.775
75365W        W40592  16.636  32.958  13.368
75366W        W40593  41.591   9.864   2.183
75367W        W40594   7.952  30.421   9.439
75368W        W40595  36.538  41.701  13.526
75369W        W40596  22.107   9.304   4.173
75370W        W40597   9.320  34.706   3.637
75371W        W40598   8.276  30.885   1.996
75372W        W40599   2.469  38.980  13.554
75373W        W40600  26.712   7.224  14.992
75374W        W40601   7.639  17.233   4.446
75375W        W40602  24.311  43.422   1.307
75376W        W40603  15.685  23.668  14.271
75377W        W40604  30.482  19.699  12.502
75378W        W40605  11.747  14.848   0.907
75379W        W40606   9.795  25.460  12.469
75380W        W40607  25.048  28.568  10.737
75381W        W40608  34.438   3.586  13.488
75382W        W40609  30.589  26.451  12.151
75383W        W40610  22.546  17.735   2.797
75384W        W40611   3.007  27.598   1.194
75385W        W40612  24.234  30.580   0.728
75386W        W40613   2.786   8.618  14.382
75387W        W40614  35.147  41.475  13.450
75388W        W40615  14.944  40.918  11.083
75389W        W40616   1.635   7.501   0.020
75390W        W40617  28.929  35.331  10.701
75391W        W40618   5.227   4.386   4.868
75392W        W40619  20.098   9.488   1.024
75393W        W40620  10.901   8.697   3.854
75394W        W40621  19.417   2.569   3.425
75395W        W40622   7.168  41.885  14.928
75396W        W40623  34.934  42.859  12.963
75397W        W40624  41.792  31.998  13.934
75398W        W40625  31.107  38.505  14.719
75399W        W40626  15.199   3.037  14.798
75400W        W40627  23.381  40.434   0.872
75401W        W40628  25.027  25.403   0.351
75402W        W40629  38.735  44.073  12.041
75403W        W40630  41.037   1.695   4.274
75404W        W40631   0.186  28.910  13.310
75405W        W40632  32.899   8.663  14.530
75406W        W40633   2.206  15.124  10.675
75407W        W40634   9.263  32.481   1.548
75408W        W40635  38.420   2.323  12.513
75409W        W40636   4.788  27.033   0.406
75410W        W40637  41.971  34.123  13.801
75411W        W40638  18.695  10.626   4.026
75412W        W40639  30.373   8.130  11.224
75413W        W40640  20.901   3.501  10.356
75414W        W40641  29.739  20.489   2.234
75415W        W40642  41.711  24.138  11.249
75416W        W40643  16.800  31.193  13.835
75417W        W40644   8.444  33.459  11.550
75418W        W40645  17.742  13.617  14.159
75419W        W40646  21.195  38.917  12.839
75420W        W40647   0.990  37.363  10.243
75421W        W40648  39.272  33.534  12.485
75422W        W40649  19.219  26.372  10.190
75423W        W40650   9.797  28.416  10.454
75424W        W40651   1.458  20.875   4.540
75425W        W40652  34.699  16.534   1.315
75426W        W40653  43.974  30.441  13.101
75427W        W40654  13.378  36.251   1.827
75428W        W40655  18.746  16.826   2.143
75429W        W40656  12.366  26.783   2.339
75430W        W40657  36.755  40.021  11.896
75431W        W40658  13.622   9.117   4.588
75432W        W40659  14.232  27.641   3.794
75433W        W40660  28.718  36.392   1.266
75434W        W40661  17.731  21.414  12.931
75435W        W40662  31.036  32.168   4.536
75436W        W40663  42.805   3.245   0.254
75437W        W40664  34.175  12.573   1.730
75438W        W40665  39.597  39.569   0.008
75439W        W40666  16.042  16.256   4.143
75440W        W40667   3.252   2.228   0.859
75441W        W40668   7.062   1.472  12.544
75442W        W40669  16.343  42.291  11.243
75443W        W40670  43.279   9.226   2.118
75444W        W40671  13.290  36.757  10.241
75445W        W40672  15.999  38.844  13.511
75446W        W40673  37.958  41.773   3.290
75447W        W40674   5.639  26.395   1.879
75448W        W40675  34.137  38.112   2.648
75449W        W40676  41.711  11.013  13.857
75450W        W40677  35.516  31.522   2.819
75451W        W40678  13.848  13.339   3.169
75452W        W40679  33.605  24.914   1.361
75453W        W40680  16.234  41.498   0.372
75454W        W40681  16.641   3.782   0.076
75455W        W40682  30.248  22.774   3.794
75456W        W40683  19.676  39.865  11.086
75457W        W40684  40.650  22.240   2.435
75458W        W40685  17.474   3.313  11.655
75459W        W40686   7.392  19.989   2.813
75460W        W40687  26.847   9.088   3.267
75461W        W40688  28.681  25.480  13.519
75462W        W40689   4.456  39.055  11.094
75463W        W40690   6.553  39.437  10.936
75464W        W40691  12.858  41.774  13.428
75465W        W40692  39.944  38.451  14.403
75466W        W40693  14.157  39.700  10.546
75467W        W40694  10.714  28.768   1.562
75468W        W40695   3.738  41.333   1.751
75469W        W40696   8.858  11.388  11.749
75470W        W40697  29.393  24.218  14.370
75471W        W40698  43.019  28.391   0.836
75472W        W40699  35.330  23.020  13.749
75473W        W40700  14.385  18.024   2.169
75474W        W40701   0.487  18.058  14.541
75475W        W40702  33.309  12.640  11.674
75476W        W40703   3.695   2.632  11.182
75477W        W40704  44.234  41.546   1.323
75478W        W40705  34.408  14.867  11.189
75479W        W40706  35.842  21.857  14.421
75480W        W40707  14.657  33.430  12.889
75481W        W40708   3.548  27.179   1.765
75482W        W40709  27.129  11.961  14.042
75483W        W40710  35.762   2.215  11.190
75484W        W40711  14.683  16.731   0.441
75485W        W40712  23.294   6.276   3.911
75486W        W40713  34.214  25.874   9.685
75487W        W40714   3.805  19.596  13.020
75488W        W40715  18.563  21.511  14.904
75489W        W40716  12.433  19.564  11.142
75490W        W40717  30.984   6.892  11.658
75491W        W40718  20.256  30.518  10.781
75492W        W40719  35.299  14.694   2.252
75493W        W40720  37.962  44.915  13.853
75494W        W40721  25.354   7.762   1.892
75495W        W40722  35.310  15.519  12.185
75496W        W40723  35.826  37.099   0.889
75497W        W40724   4.739   8.460   0.365
75498W        W40725  13.143  35.316   5.499
75499W        W40726  39.996  38.830   0.378
75500W        W40727  32.226  20.563   3.659
75501W        W40728   1.556  38.484   1.400
75502W        W40729   0.542  39.420  13.861
75503W        W40730  10.809   3.965  10.656
75504W        W40731  23.439  21.636  12.491
75505W        W40732  22.275  14.115   4.305
75506W        W40733  30.674  22.038  14.902
75507W        W40734   3.057   4.020   4.282
75508W        W40735  23.665  12.574   3.195
75509W        W40736   7.859  16.135  13.057
75510W        W40737  11.109  37.827   1.997
75511W        W40738  18.063  43.415   3.859
75512W        W40739   8.869  25.911  12.654
75513W        W40740  10.190  34.323  14.359
75514W        W40741  21.748  23.733   1.648
75515W        W40742  28.740  11.174  12.143
75516W        W40743  42.191   2.546   3.514
75517W        W40744  39.368   1.044  11.723
75518W        W40745  18.676  21.824  12.937
75519W        W40746   2.796  26.362  12.859
75520W        W40747  39.302  31.130   4.121
75521W        W40748  37.784  10.284   0.251
75522W        W40749  33.501  32.643   3.687
75523W        W40750  17.825  26.009   1.637
75524W        W40751  29.522  24.366   3.346
75525W        W40752  34.423  29.912   2.604
75526W        W40753  13.680   1.386  10.783
75527W        W40754  12.246  15.381   1.479
75528W        W40755  39.747   5.098   4.842
75529W        W40756  26.238  20.351   0.899
75530W        W40757   2.836  42.529  11.565
75531W        W40758  21.816  44.282   1.178
75532W        W40759  30.443  26.763  12.554
75533W        W40760   8.505  17.089   1.227
75534W        W40761   2.770   2.667  12.861
75535W        W40762  14.800  11.214   2.935
75536W        W40763  36.409  43.385  12.470
75537W        W40764  15.940  33.333  11.067
75538W        W40765  38.497   1.114  12.881
75539W        W40766  35.502  23.998  11.425
75540W        W40767   8.869  41.259   1.817
75541W        W40768  33.635   2.801  12.424
75542W        W40769  16.583   8.849   0.998
75543W        W40770  33.966  39.130  11.420
75544W        W40771  35.365  40.149   0.290
75545W        W40772   7.982  19.228   1.730
75546W        W40773  27.589   5.641   4.500
75547W        W40774  28.211   8.276  14.749
75548W        W40775   6.900  11.355   0.886
75549W        W40776  13.808   2.495   4.976
75550W        W40777  39.808  37.569   0.693
75551W        W40778  14.502  27.584   1.358
75552W        W40779  40.140   2.537  12.585
75553W        W40780  24.181   2.925   1.380
75554W        W40781  15.641  24.151  10.704
75555W        W40782  38.039   0.719   0.976
75556W        W40783  36.503  39.068  14.133
75557W        W40784  17.215  38.396   2.239
75558W        W40785  25.488  41.407  12.724
75559W        W40786   1.821  24.068  11.649
75560W        W40787  33.471  42.149   1.636
75561W        W40788  18.651  31.478   1.245
75562W        W40789   1.853  25.602   2.252
75563W        W40790  35.512  34.333  10.676
75564W        W40791  16.500  18.793   1.738
75565W        W40792  20.301  31.016  14.796
75566W        W40793  44.726  35.233  12.159
75567W        W40794  28.552  35.813   2.361
75568W        W40795  41.805   2.176  12.361
75569W        W40796   8.096  44.316   4.558
75570W        W40797  36.578   3.818  14.454
75571W        W40798  28.173   4.790   5.354
75572W        W40799  26.006  25.641  13.848
75573W        W40800   4.266  38.478  13.354
75574W        W40801  19.865  23.440   4.445
75575W        W40802   3.576  28.554   2.981
75576W        W40803   3.829   9.106   0.256
75577W        W40804   8.782  21.308   3.717
75578W        W40805  18.685  37.726  11.805
75579W        W40806  15.531   6.204   0.267
75580W        W40807   5.240   4.801   4.147
75581W        W40808  21.804  31.051   1.407
75582W        W40809   0.801  12.562  12.031
75583W        W40810  21.977  29.852  12.006
75584W        W40811   9.790  41.876  11.160
75585W        W40812  11.142   1.630   4.138
75586W        W40813  35.462  20.098   2.652
75587W        W40814  28.011  42.386  14.253
75588W        W40815  26.205  41.955   2.413
75589W        W40816  35.392   1.765  10.597
75590W        W40817  11.541  40.689   2.728
75591W        W40818  43.012   1.673   3.226
75592W        W40819  38.910  12.473   3.626
75593W        W40820  32.076  34.484   4.498
75594W        W40821  17.902  21.037   3.325
75595W        W40822  21.804  13.326  12.593
75596W        W40823  14.415  30.079  12.007
75597W        W40824  20.584  11.242   1.718
75598W        W40825  29.427  38.164  11.509
75599W        W40826  19.741  35.913  14.570
75600W        W40827  13.749  32.764   2.507
75601W        W40828  38.874  27.486   1.129
75602W        W40829  36.435  32.063   3.861
75603W        W40830  30.505   1.109  13.776
75604W        W40831  39.417   7.687  13.049
75605W        W40832  11.149  42.720  12.473
75606W        W40833  19.647  11.818  11.026
75607W        W40834   6.245   0.853   0.400
75608W        W40835  33.334   2.054  11.137
75609W        W40836  39.025  21.291  14.422
75610W        W40837   9.288  44.452  13.353
75611W        W40838   0.234   0.851  13.893
75612W        W40839  24.421  35.489   4.705
75613W        W40840   8.307   7.868   3.998
75614W        W40841  44.693  23.161   1.617
75615W        W40842   9.083  16.462   5.018
75616W        W40843  24.671  37.078   3.872
75617W        W40844  35.150  21.444   0.163
75618W        W40845   3.264   8.804  13.533
75619W        W40846  10.321   1.984   3.156
75620W        W40847   0.932   5.259   4.894
75621W        W40848  43.020  12.200  13.216
75622W        W40849  13.560  21.661  11.516
75623W        W40850   5.470   1.425  12.645
75624W        W40851  42.787   1.587   4.230
75625W        W40852   9.803  39.575   1.148
75626W        W40853  12.295   8.978  13.355
75627W        W40854  33.971  10.179   0.653
75628W        W40855   3.358   2.757   5.679
75629W        W40856  40.022  43.849  12.829
75630W        W40857  15.037   6.450  11.148
75631W        W40858  12.700  27.207   2.317
75632W        W40859  39.065   4.008   0.017
75633W        W40860   2.393  14.863  11.999
75634W        W40861  27.798  10.894  13.537
75635W        W40862   6.350   1.885   2.056
75636W        W40863  32.786  16.036   1.652
75637W        W40864  24.119  12.123  13.837
75638W        W40865   9.556  43.451  14.932
75639W        W40866  13.655   9.359   1.925
75640W        W40867  40.713   2.290  11.464
75641W        W40868  21.593  10.345  14.797
75642W        W40869   5.815  36.898  10.764
75643W        W40870  12.266  28.242  13.458
75644W        W40871  37.888  32.662   4.320
75645W        W40872  34.773   0.893   3.726
75646W        W40873  37.493   9.836   4.534
75647W        W40874  18.131  39.906  14.453
75648W        W40875  44.048   0.706  14.426
75649W        W40876   1.386   9.764  11.709
75650W        W40877  18.429   9.108   4.304
75651W        W40878  15.139   4.887  13.340
75652W        W40879  20.487   0.423  10.701
75653W        W40880  15.891  20.356   4.472
75654W        W40881  22.849  44.639   4.535
75655W        W40882  22.055  17.708   4.195
75656W        W40883  25.102  14.943   4.229
75657W        W40884  10.870  26.506   1.398
75658W        W40885  10.544  10.694   1.634
75659W        W40886  21.010  33.931  11.242
75660W        W40887  19.586  31.651  14.528
75661W        W40888   2.202  13.233  12.664
75662W        W40889  12.838  41.721   2.729
75663W        W40890  22.960  24.201   0.914
75664W        W40891  22.282  21.241   2.700
75665W        W40892  16.217  37.933   3.842
75666W        W40893  18.139  34.086  11.349
75667W        W40894   8.799  38.717   2.995
75668W        W40895  37.296  26.938  12.071
75669W        W40896  17.133  21.075  10.247
75670W        W40897  39.666   0.065   0.318
75671W        W40898  29.948  23.563  11.652
75672W        W40899  10.782  39.995   0.469
75673W        W40900  15.134  15.845  12.499
75674W        W40901  13.249  33.970   4.533
75675W        W40902  20.369  30.128  10.458
75676W        W40903  21.547  34.131   0.340
75677W        W40904  35.989  19.735  14.719
75678W        W40905  26.402  11.203  13.735
75679W        W40906  31.431  29.346   2.354
75680W        W40907   5.919  36.054   3.712
75681W        W40908  29.587   6.270   1.972
75682W        W40909   8.719  32.549  11.244
75683W        W40910  14.579  43.867  12.262
75684W        W40911   6.150  43.330  13.022
75685W        W40912  40.910   9.492  11.462
75686W        W40913   5.839  21.660   0.301
75687W        W40914  42.464  10.002  11.502
75688W        W40915  17.599  15.883  13.931
75689W        W40916  42.241  34.006  14.975
75690W        W40917  20.161  20.246   4.705
75691W        W40918  24.029   3.301  12.423
75692W        W40919  42.836   9.647   2.675
75693W        W40920  28.982   3.511  11.144
75694W        W40921  32.829  36.349   0.687
75695W        W40922  41.502   6.568  11.446
75696W        W40923  36.770   6.933  14.826
75697W        W40924  30.350  34.291   3.616
75698W        W40925  27.660  39.768  14.641
75699W        W40926  42.449   1.654  14.379
75700W        W40927  37.018  18.657  13.171
75701W        W40928  42.019   6.244  10.557
75702W        W40929  24.426  14.747  13.046
75703W        W40930  39.399   9.695   1.278
75704W        W40931  11.818   9.588   1.763
75705W        W40932  15.210  32.653  13.409
75706W        W40933  29.040  18.740  12.929
75707W        W40934  43.121  14.667   2.612
75708W        W40935  39.684   7.034   3.641
75709W        W40936  32.146  19.160   4.136
75710W        W40937  10.723  20.589  13.526
75711W        W40938  28.486   0.260   2.695
75712W        W40939   5.490  36.326   4.441
75713W        W40940   0.104  22.605  10.621
75714W        W40941  24.974   2.655  14.841
75715W        W40942  28.101   3.005   3.274
75716W        W40943  15.908  11.121  10.274
75717W        W40944  13.295  21.121  11.593
75718W        W40945  27.193  24.036  10.617
75719W        W40946  34.562   1.025   1.209
75720W        W40947   3.460  35.471  12.065
75721W        W40948  17.264  21.931  14.973
75722W        W40949  30.865  11.691   1.626
75723W        W40950  32.942  43.059  13.085
75724W        W40951  39.633   6.723  11.602
75725W        W40952  35.639   4.833  13.510
75726W        W40953  28.017  19.260  14.935
75727W        W40954  28.902  25.290   4.087
75728W        W40955  14.982   3.702   3.307
75729W        W40956  26.001  23.607   2.901
75730W        W40957  31.595  19.029   3.266
75731W        W40958  10.423  12.801   4.155
75732W        W40959   3.729   5.526   1.026
75733W        W40960  17.789  19.973  12.899
75734W        W40961  23.717  36.468  14.747
75735W        W40962  30.035   9.584   4.355
75736W        W40963  23.723   3.667   1.202
75737W        W40964   3.993   0.273   3.221
75738W        W40965  27.086  11.103   3.319
75739W        W40966  23.542  22.621  14.616
75740W        W40967  39.024  16.460   1.874
75741W        W40968  14.543  26.733   2.500
75742W        W40969  24.825  36.213  13.854
75743W        W40970  24.660  40.915  13.031
75744W        W40971  39.838  15.511  12.563
75745W        W40972   7.647  17.661   0.721
75746W        W40973  40.831  32.790   3.444
75747W        W40974   0.980  31.475   2.311
75748W        W40975   0.828   8.634  11.947
75749W        W40976  18.575   6.424  14.705
75750W        W40977  33.097  32.509  11.032
75751W        W40978   3.886   2.506  13.717
75752W        W40979  28.108  11.524   3.651
75753W        W40980  36.412   0.073   4.030
75754W        W40981   0.738  42.950  12.923
75755W        W40982  15.274  30.644   2.336
75756W        W40983  11.314  22.059  13.102
75757W        W40984  41.363  14.714  11.545
75758W        W40985  27.621  19.763   2.850
75759W        W40986  35.624   7.340  11.231
75760W        W40987  36.554  14.642   2.799
75761W        W40988  31.651  12.039  13.453
75762W        W40989  44.727  13.679  13.038
75763W        W40990   5.536  11.853  12.647
75764W        W40991  44.018   9.343   1.462
75765W        W40992  10.160  16.148  14.328
75766W        W40993  16.247  26.859  13.004
75767W        W40994  15.877   7.001   3.677
75768W        W40995  43.335   3.514  13.651
75769W        W40996  33.135   2.196   2.949
75770W        W40997  39.767  39.961  12.705
75771W        W40998   6.867   6.986   2.886
75772W        W40999   5.805  38.396  14.563
75773W        W41000  37.541  39.883  10.821
75774W        W41001  10.850   7.800   2.183
75775W        W41002  18.211  33.500  13.624
75776W        W41003  23.086  28.099   3.838
75777W        W41004  19.571  16.472   1.853
75778W        W41005  30.252  22.908  12.397
75779W        W41006   6.870  36.494   2.875
75780W        W41007  27.097  27.530   3.819
75781W        W41008   9.194  38.857   4.318
75782W        W41009  26.221  13.394  14.850
75783W        W41010  36.631  28.406   5.036
75784W        W41011   3.359  18.792  13.002
75785W        W41012  19.746  44.195   0.966
75786W        W41013   2.189   9.342   2.736
75787W        W41014  29.613   6.064  11.968
75788W        W41015   6.313  38.139  12.927
75789W        W41016  29.034  13.142   3.615
75790W        W41017  41.883   4.727  14.633
75791W        W41018   6.169  43.503  11.690
75792W        W41019  37.851  20.275  11.100
75793W        W41020  24.707  34.360  14.822
75794W        W41021  35.135  34.302   5.135
75795W        W41022  23.170   3.159   0.347
75796W        W41023  37.636  22.707   0.398
75797W        W41024  43.434  32.657   4.617
75798W        W41025  42.021   6.333  13.582
75799W        W41026   3.256  12.803   4.194
75800W        W41027  37.358   3.238  14.477
75801W        W41028  44.985  27.785  12.515
75802W        W41029  28.441  18.750   2.432
75803W        W41030  33.118  11.909  13.946
75804W        W41031   8.193  22.577  12.459
75805W        W41032  44.847   9.721   1.691
75806W        W41033  17.193   6.754  14.726
75807W        W41034  28.154  38.271   2.622
75808W        W41035  26.928  41.075   3.595
75809W        W41036  34.885  22.729  11.178
75810W        W41037   5.309  21.288   3.704
75811W        W41038  41.332  28.658  13.340
75812W        W41039   8.616  11.149  14.811
75813W        W41040  35.184  20.596  11.119
75814W        W41041  24.653  10.124   4.143
75815W        W41042  33.010  17.325  12.405
75816W        W41043   5.240  33.261  14.438
75817W        W41044  11.802  36.112   3.112
75818W        W41045   5.772   0.097  13.169
75819W        W41046  11.660  43.616   4.609
75820W        W41047  22.719   1.704   1.839
75821W        W41048  22.694  26.657  11.216
75822W        W41049   3.780  36.307   2.400
75823W        W41050  26.876   8.785  14.061
75824W        W41051   5.426   6.950  10.558
75825W        W41052   1.011   4.428  11.581
75826W        W41053  31.642  32.550  11.116
75827W        W41054  18.930  15.520   1.956
75828W        W41055  27.449   0.332   3.444
75829W        W41056  44.164  22.797   1.898
75830W        W41057  40.876  20.364  13.955
75831W        W41058  28.867   8.169  12.280
75832W        W41059   5.213   2.745   3.130
75833W        W41060  24.022  21.602   4.810
75834W        W41061  40.014  33.092   4.326
75835W        W41062  30.218   3.806  11.196
75836W        W41063  42.235  20.948  13.147
75837W        W41064  30.867  31.618   5.205
75838W        W41065   6.355  36.816   3.810
75839W        W41066   6.388   7.901  13.328
75840W        W41067  44.079  41.367   1.815
75841W        W41068  12.267  12.402   4.216
75842W        W41069  18.893  18.496   4.049
75843W        W41070  23.741   4.161   1.318
75844W        W41071  34.152  24.166   1.368
75845W        W41072  26.192  43.065  11.261
75846W        W41073  29.884   0.831   2.651
75847W        W41074   5.863  38.406   1.057
75848W        W41075  39.224  27.002  10.682
75849W        W41076  12.397  29.564   4.395
75850W        W41077  24.130  31.251   1.210
75851W        W41078  24.589  10.396   1.427
75852W        W41079  12.108  10.656  11.637
75853W        W41080  31.770  14.755   2.413
75854W        W41081  13.429  26.756   3.147
75855W        W41082   3.831   6.806   4.683
75856W        W41083   7.722  11.166   2.362
75857W        W41084  13.765   8.696   4.284
75858W        W41085  25.248   5.897  14.950
75859W        W41086  12.807  41.080  13.973
75860W        W41087   3.216   2.397  13.082
75861W        W41088  32.827  19.749  11.692
75862W        W41089  11.983  13.273   3.286
75863W        W41090  25.265  43.330   0.367
75864W        W41091  27.045  12.354  13.117
75865W        W41092   4.663   7.366   0.838
75866W        W41093  11.803  37.803  12.447
75867W        W41094  33.352  38.580  13.850
75868W        W41095  19.551   7.849  11.247
75869W        W41096   6.003  43.641   9.831
75870W        W41097  27.572  40.398   3.032
75871W        W41098  14.392  22.267  13.890
75872W        W41099  14.120  41.700   1.368
75873W        W41100  27.194  10.292  11.967
75874W        W41101  32.033  40.885  12.200
75875W        W41102  13.096  11.238  10.667
75876W        W41103  44.420  41.228   4.577
75877W        W41104  33.991  16.234  11.766
75878W        W41105  17.011  18.673   3.923
75879W        W41106   0.819  41.710   3.755
75880W        W41107  44.648   0.818   3.716
75881W        W41108  32.029  24.213   0.829
75882W        W41109  20.179  23.871  11.147
75883W        W41110  15.731  33.927  12.527
75884W        W41111  15.811  30.478   4.583
75885W        W41112  17.130   4.688  11.649
75886W        W41113  31.490  42.444  12.088
75887W        W41114  20.307  38.450  12.217
75888W        W41115   5.790  18.358  12.744
75889W        W41116   8.120  29.526   1.682
75890W        W41117   7.251   0.697   3.564
75891W        W41118  27.733  27.062   4.069
75892W        W41119  31.053  20.743   0.223
75893W        W41120   6.742  30.033   1.878
75894W        W41121  24.421  32.246   0.528
75895W        W41122  25.143  32.501  12.913
75896W        W41123  43.387  41.886   1.746
75897W        W41124   9.065  42.907   0.406
75898W        W41125  43.738  42.761  13.462
75899W        W41126  25.325  12.131  12.513
75900W        W41127  17.201  39.351   2.661
75901W        W41128  36.584   5.699   2.749
75902W        W41129  37.851   3.452  12.987
75903W        W41130  18.682  39.996   2.365
75904W        W41131  28.864  20.371  14.265
75905W        W41132   1.775  23.419  11.066
75906W        W41133   0.020   2.879  11.865
75907W        W41134   9.716  10.613  13.939
75908W        W41135   4.653  28.128   1.728
75909W        W41136   6.426  18.125  11.616
75910W        W41137  44.013   4.275  13.599
75911W        W41138  25.488  22.960  14.502
75912W        W41139   3.860   6.041   1.823
75913W        W41140  39.353  33.006   2.107
75914W        W41141  38.664  25.035   3.645
75915W        W41142  18.212  11.663   2.168
75916W        W41143  17.207   9.990  11.475
75917W        W41144   1.957  26.171   2.704
75918W        W41145  22.169   6.365  14.897
75919W        W41146   3.301  20.703  12.723
75920W        W41147  28.744  13.850   4.671
75921W        W41148  22.538  23.342  10.770
75922W        W41149  35.491  16.307   2.368
75923W        W41150  14.422  22.568  13.471
75924W        W41151  18.123  37.031  10.702
75925W        W41152   4.934  39.436   4.313
75926W        W41153   4.271  23.011  13.849
75927W        W41154  44.099  35.519   4.089
75928W        W41155   7.798  19.727  10.978
75929W        W41156  32.069  21.952  12.427
75930W        W41157  25.759   5.935  12.543
75931W        W41158  23.855   2.975   4.195
75932W        W41159   1.764  40.935  11.150
75933W        W41160  32.677  37.422   2.612
75934W        W41161  37.848  27.000  13.825
75935W        W41162   7.845  27.335   3.699
75936W        W41163  15.895  16.831   0.909
75937W        W41164   4.733   6.474   2.878
75938W        W41165  25.284  43.130   4.543
75939W        W41166  22.483  19.725  14.850
75940W        W41167  22.976  11.181   2.383
75941W        W41168  12.874  13.411  13.502
75942W        W41169  28.212  12.826  13.158
75943W        W41170  32.058  10.584  10.817
75944W        W41171  29.918  16.738  10.497
75945W        W41172  12.274  18.060  12.516
75946W        W41173  43.299  40.951  12.519
75947W        W41174  15.599  28.859  13.914
75948W        W41175   5.373  27.142   0.319
75949W        W41176  23.054  43.599  14.285
75950W        W41177  15.543  12.141  14.911
75951W        W41178   4.315   6.248   3.128
75952W        W41179  14.289  29.655  11.101
75953W        W41180  31.695  35.154   4.080
75954W        W41181  23.654  35.508   1.190
75955W        W41182  28.716  39.325  14.922
75956W        W41183  10.796  13.809  14.949
75957W        W41184  30.914  27.113   1.479
75958W        W41185  21.585  20.206  14.848
75959W        W41186  23.597  42.551  10.686
75960W        W41187   0.329  11.410  13.291
75961W        W41188  24.210  38.151  12.941
75962W        W41189  40.329  21.036   3.533
75963W        W41190  37.337  35.084   3.778
75964W        W41191  23.600  11.110   3.219
75965W        W41192  37.556   9.944  13.589
75966W        W41193  12.101  22.097  12.590
75967W        W41194  31.303  31.691  14.830
75968W        W41195  28.101  11.821   0.410
75969W        W41196  20.682  33.483  14.542
75970W        W41197   4.687   8.177  11.184
75971W        W41198   8.754  32.547  14.043
75972W        W41199  40.304  35.420  13.861
75973W        W41200  11.670  27.653  10.699
75974W        W41201  23.295  37.515   3.620
75975W        W41202  42.312  38.511  13.420
75976W        W41203  31.078  37.126  13.520
75977W        W41204  25.751  43.926   4.201
75978W        W41205   4.627  25.223  14.786
75979W        W41206   3.388  11.325  14.132
75980W        W41207  19.637  40.600  14.075
75981W        W41208  22.536   7.853   4.516
75982W        W41209  29.650  12.283  13.473
75983W        W41210   9.859   1.474   0.234
75984W        W41211  22.953  32.349  12.128
75985W        W41212  42.403  35.623   0.436
75986W        W41213  38.312  28.560  14.930
75987W        W41214   6.320  37.326   3.920
75988W        W41215   2.522  22.746   0.877
75989W        W41216  15.497  13.884  12.379
75990W        W41217   1.229  27.185  11.198
75991W        W41218   5.444  25.958   1.679
75992W        W41219  42.086  24.849  10.243
75993W        W41220  36.978  34.461   0.413
75994W        W41221   9.649   4.633   1.818
75995W        W41222  18.957  30.602   3.610
75996W        W41223  33.925  37.942  12.007
75997W        W41224  22.043  12.433  12.452
75998W        W41225   6.452  11.568  12.407
75999W        W41226   9.684  41.323   3.183
76000W        W41227  10.849   3.361  14.951
76001W        W41228  44.331  37.067   3.595
76002W        W41229  44.268  38.839   4.587
76003W        W41230   4.220  13.750  14.484
76004W        W41231  19.234  12.150   3.687
76005W        W41232   9.196  27.019   3.930
76006W        W41233  29.826  35.240   0.747
76007W        W41234  27.680   9.198   1.247
76008W        W41235  40.759   8.966  12.849
76009W        W41236  18.973  17.216   0.865
76010W        W41237  44.303   8.180  12.024
76011W        W41238  23.419  10.287  12.069
76012W        W41239  19.023  32.990   1.695
76013W        W41240  10.829  37.523   2.344
76014W        W41241  11.631   7.945   4.355
76015W        W41242  27.999  36.661   3.059
76016W        W41243  14.805  30.716  12.936
76017W        W41244  12.112  23.071  11.558
76018W        W41245  15.363  21.261  11.146
76019W        W41246  39.755  15.100   3.792
76020W        W41247   1.807   1.720   3.838
76021W        W41248   2.794   3.267   2.266
76022W        W41249  24.784   4.854  12.157
76023W        W41250  29.063  30.773  11.738
76024W        W41251  30.483  35.000   4.213
76025W        W41252  32.618  10.622   3.523
76026W        W41253  20.655  35.296  14.943
76027W        W41254  16.512  40.053  11.677
76028W        W41255   3.929  22.456  13.226
76029W        W41256  15.329  11.567   2.277
76030W        W41257   2.130  20.514  11.900
76031W        W41258  30.841  12.542   2.691
76032W        W41259  24.919   5.143  11.273
76033W        W41260   0.339  37.288   1.784
76034W        W41261  22.200  41.251  13.396
76035W        W41262  20.704   8.185  12.801
76036W        W41263  10.787  22.170  12.899
76037W        W41264  39.038  18.213  14.396
76038W        W41265   0.905  30.171   4.109
76039W        W41266  32.620   4.742   0.777
76040W        W41267  24.708  12.534  12.077
76041W        W41268  41.453  44.406   2.903
76042W        W41269  17.632  27.881   2.792
76043W        W41270  34.947  26.562  10.980
76044W        W41271  18.074  38.287  14.448
76045W        W41272  16.173  10.054   1.368
76046W        W41273  13.132  21.553  14.040
76047W        W41274  35.853  36.332  11.446
76048W        W41275   2.214   1.433   4.046
76049W        W41276  38.097   9.766  11.539
76050W        W41277   6.372  35.431   4.546
76051W        W41278  44.376  38.877  11.028
76052W        W41279  20.042  25.989   4.767
76053W        W41280  24.394  43.885  11.194
76054W        W41281  29.716  27.109   0.923
76055W        W41282  39.132  25.947   4.638
76056W        W41283   0.975  11.746   0.916
76057W        W41284  44.885   9.040  12.126
76058W        W41285  43.152  39.992   3.550
76059W        W41286   7.901  29.510  10.404
76060W        W41287   3.725  12.257   3.109
76061W        W41288  29.014  35.920  11.190
76062W        W41289  19.017  34.593  14.056
76063W        W41290  20.602  10.121   2.600
76064W        W41291  31.255  13.770  14.098
76065W        W41292   0.240  42.477   4.105
76066W        W41293  28.040  32.830   3.632
76067W        W41294  39.722  24.677  10.703
76068W        W41295  32.629  34.965   1.421
76069W        W41296  13.094   3.985  14.902
76070W        W41297  42.287  26.730  11.174
76071W        W41298  36.820  25.168   3.605
76072W        W41299   2.890  36.352  14.422
76073W        W41300  43.562  15.593  13.534
76074W        W41301   8.884  23.307  12.423
76075W        W41302  26.515  42.011  11.599
76076W        W41303  24.686  10.625  12.093
76077W        W41304   9.145  41.490  12.665
76078W        W41305  39.607  37.738  14.407
76079W        W41306  12.691  13.045  11.399
76080W        W41307  37.411  22.773  12.348
76081W        W41308  19.677  11.420  12.815
76082W        W41309  34.534   9.936   3.242
76083W        W41310  37.688   1.942  13.359
76084W        W41311  31.219  37.921   1.048
76085W        W41312  44.137  44.857  13.780
76086W        W41313  20.778  34.443   2.783
76087W        W41314  38.384  31.126  14.284
76088W        W41315   3.937  43.231   3.164
76089W        W41316  22.971  10.076  13.491
76090W        W41317   8.195  34.455  14.880
76091W        W41318  30.773  24.526  13.468
76092W        W41319  25.523  38.968   1.161
76093W        W41320   3.337   7.834   4.409
76094W        W41321   7.860  40.749  14.016
76095W        W41322   5.105  15.383   3.547
76096W        W41323  19.240  13.294  14.371
76097W        W41324  44.827  27.476   0.962
76098W        W41325  36.673  22.348  11.237
76099W        W41326  24.532   9.385  14.871
76100W        W41327   8.734  41.265  12.412
76101W        W41328   8.234  37.964   0.419
76102W        W41329  21.674   5.214   3.089
76103W        W41330  15.740  17.821  10.748
76104W        W41331  33.813   5.350  11.491
76105W        W41332  37.719  12.663  12.853
76106W        W41333   8.958  13.303  10.771
76107W        W41334  23.144  44.932   4.877
76108W        W41335  42.104   9.666  12.556
76109W        W41336   5.349  16.311   1.546
76110W        W41337  39.270  38.159  10.871
76111W        W41338  20.662  18.289  13.331
76112W        W41339  30.767  11.591   9.721
76113W        W41340  38.846  35.151   0.285
76114W        W41341  19.265   6.577   0.010
76115W        W41342  25.585   6.565   2.767
76116W        W41343  11.379  38.223   2.156
76117W        W41344  40.489  28.136   3.368
76118W        W41345  11.759  24.021   4.799
76119W        W41346  36.965  20.064   0.298
76120W        W41347   6.395  43.958   1.543
76121W        W41348  12.847  13.832   4.494
76122W        W41349  44.625  10.728  14.773
76123W        W41350  37.361  40.489  12.069
76124W        W41351  41.493  12.067   3.710
76125W        W41352  34.814  28.113  10.033
76126W        W41353  43.146  29.998  14.577
76127W        W41354  16.390  28.696   1.829
76128W        W41355   2.737  33.445   2.379
76129W        W41356  42.504  17.035   4.046
76130W        W41357  27.077  38.953   0.709
76131W        W41358  11.726  11.698  11.182
76132W        W41359  13.574  28.886  12.602
76133W        W41360  27.137  43.283   0.481
76134W        W41361  28.471   6.251   0.819
76135W        W41362  37.025  23.039   2.498
76136W        W41363  32.019  12.599   0.997
76137W        W41364  21.239  39.443   0.859
76138W        W41365   8.750   4.252   2.658
76139W        W41366  29.565  41.705  12.771
76140W        W41367   2.557  23.594   3.903
76141W        W41368  20.401  28.064  13.960
76142W        W41369  42.254  32.374   1.729
76143W        W41370  30.171  25.450   2.722
76144W        W41371  22.489  40.846  10.710
76145W        W41372  31.904   0.479   0.855
76146W        W41373  40.878  11.080   1.992
76147W        W41374  35.991  19.288   1.547
76148W        W41375  10.664  10.145   4.330
76149W        W41376  33.318   2.405   1.390
76150W        W41377  41.351  38.620  13.854
76151W        W41378  28.139  38.921  12.350
76152W        W41379   9.945  32.288   0.986
76153W        W41380  26.929   7.355  12.416
76154W        W41381   2.261  10.761   3.633
76155W        W41382  25.161  31.796  14.357
76156W        W41383  36.805  18.616   1.042
76157W        W41384  26.597  19.521   0.846
76158W        W41385  19.151  11.549  11.199
76159W        W41386  13.277   8.695   4.527
76160W        W41387  34.986   9.203   0.335
76161W        W41388   5.060  13.268  14.458
76162W        W41389  12.574  11.235   2.435
76163W        W41390  41.377  38.635   0.761
76164W        W41391  25.267  36.067   3.172
76165W        W41392  15.046  25.398  12.882
76166W        W41393  38.824  43.010  12.450
76167W        W41394  21.575  15.175   3.249
76168W        W41395   4.439   5.835   3.966
76169W        W41396  38.799   9.393   4.510
76170W        W41397  27.239  22.336  11.093
76171W        W41398  40.432  43.041  13.841
76172W        W41399  18.489   1.951  13.569
76173W        W41400  35.867   4.977  12.628
76174W        W41401  27.958   7.004  14.779
76175W        W41402  36.493  29.016   4.154
76176W        W41403  17.106  20.792   3.693
76177W        W41404   9.002  22.062   3.193
76178W        W41405  25.378  35.410   3.200
76179W        W41406  42.368  21.164   2.207
76180W        W41407  44.153  25.372  12.033
76181W        W41408  34.919  33.162  13.543
76182W        W41409  26.195   7.871  12.117
76183W        W41410  28.668   9.337   3.284
76184W        W41411  15.044   6.300   0.377
76185W        W41412   8.782   5.262  14.816
76186W        W41413  39.975  27.700  13.269
76187W        W41414  40.991  23.137   2.757
76188W        W41415  13.725   7.787  12.088
76189W        W41416  24.057  18.303   4.757
76190W        W41417  14.083  33.825  11.955
76191W        W41418  34.390  10.915   0.158
76192W        W41419   3.792  18.488  11.455
76193W        W41420  31.214  16.509  12.626
76194W        W41421  10.314  24.668  10.808
76195W        W41422  18.698  26.982   1.262
76196W        W41423  10.939  29.891  10.648
76197W        W41424   6.466  17.983   2.169
76198W        W41425  36.897  10.914  10.755
76199W        W41426  31.357  44.947   2.191
76200W        W41427  10.209  36.210  10.167
76201W        W41428   8.108  27.675  10.735
76202W        W41429  17.186   6.487  12.927
76203W        W41430  36.669  33.932   2.107
76204W        W41431   7.254   6.584  13.002
76205W        W41432   8.474  27.120   2.729
76206W        W41433  36.340   3.167   4.308
76207W        W41434  17.541  22.010   3.184
76208W        W41435  29.973  19.350   1.356
76209W        W41436   2.602   3.204   0.455
76210W        W41437  31.456  26.036   0.156
76211W        W41438  37.952   3.437  13.532
76212W        W41439  23.338  33.145   0.787
76213W        W41440  44.545   0.800  14.400
76214W        W41441  41.606   8.039   4.439
76215W        W41442  10.882  21.135  12.099
76216W        W41443   4.340  15.141  12.922
76217W        W41444  18.904  14.157   1.193
76218W        W41445   4.202   3.078  14.026
76219W        W41446  10.243  37.929   2.430
76220W        W41447  42.697  33.394  13.923
76221W        W41448  36.816  11.822  13.331
76222W        W41449  26.460   0.785  13.790
76223W        W41450  21.252  39.038   2.321
76224W        W41451  43.306  37.240   1.960
76225W        W41452  23.536  31.246  11.545
76226W        W41453  33.591  26.865  14.798
76227W        W41454  18.525   2.985   3.148
76228W        W41455  18.149  36.485  10.927
76229W        W41456  33.362  37.636   0.026
76230W        W41457  11.116  37.339   1.226
76231W        W41458  12.019  37.927  14.100
76232W        W41459  35.103  14.341   1.921
76233W        W41460   8.345   5.307  13.447
76234W        W41461  31.291  32.534   2.831
76235W        W41462  43.026   6.952  11.490
76236W        W41463   1.836   5.075   3.906
76237W        W41464   1.941  12.469   3.412
76238W        W41465  27.162  22.222   3.054
76239W        W41466  36.938  18.018   2.712
76240W        W41467  37.138  33.114  12.215
76241W        W41468   3.571  11.733  13.876
76242W        W41469   0.467  31.603  13.752
76243W        W41470  33.894  16.102   2.371
76244W        W41471  21.656   8.033   0.236
76245W        W41472  33.533  30.098  11.003
76246W        W41473  30.132  35.146   1.351
76247W        W41474   8.326   6.848   3.747
76248W        W41475  11.794  42.573   4.619
76249W        W41476  43.915  16.462   2.200
76250W        W41477  22.045  29.139   0.684
76251W        W41478  20.452  44.946  13.475
76252W        W41479  14.307  10.817   1.586
76253W        W41480  42.684  15.189  12.473
76254W        W41481  25.251  26.125  13.388
76255W        W41482  20.600  44.430  12.170
76256W        W41483  14.174  10.586  13.018
76257W        W41484  20.938  43.240  14.493
76258W        W41485  32.404  14.299   0.513
76259W        W41486  29.588  37.843   2.192
76260W        W41487  25.172  27.686  12.958
76261W        W41488  34.655  32.002   2.748
76262W        W41489  30.315  39.917   3.851
76263W        W41490  20.143  42.077  10.804
76264W        W41491  31.334  25.028   2.775
76265W        W41492  28.027   1.041  11.663
76266W        W41493  20.116  23.457  14.320
76267W        W41494   2.983   3.226  12.894
76268W        W41495  24.009   4.512  14.202
76269W        W41496  32.135   6.884   4.271
76270W        W41497  32.610  26.411  14.379
76271W        W41498  43.883  26.442   1.115
76272W        W41499   8.471   7.425   4.248
76273W        W41500   1.308  25.971   4.943
76274W        W41501  24.909  14.741  14.373
76275W        W41502  21.819  43.713   0.238
76276W        W41503  17.206  12.910  12.673
76277W        W41504  38.500   4.347   4.977
76278W        W41505  25.217  41.360  14.542
76279W        W41506  36.057   6.328  13.636
76280W        W41507  17.075   9.307   0.647
76281W        W41508  43.704  31.089   4.497
76282W        W41509  36.272  21.572  11.379
76283W        W41510  40.765  40.904  13.344
76284W        W41511  24.049  22.967   1.385
76285W        W41512  39.277  30.767   0.726
76286W        W41513  36.704  33.818  13.564
76287W        W41514   7.346  11.160  11.437
76288W        W41515   1.227  22.287  14.299
76289W        W41516  18.882  33.393   1.410
76290W        W41517  42.571  31.800  10.334
76291W        W41518   1.417  30.117  13.248
76292W        W41519   8.288  26.442  14.004
76293W        W41520   7.013  24.417  10.998
76294W        W41521  11.069  22.909  13.550
76295W        W41522   1.483  10.831   0.542
76296W        W41523  34.729  30.770   4.642
76297W        W41524  15.669  22.763   1.385
76298W        W41525   6.685  41.855   4.597
76299W        W41526  25.074  15.241  14.325
76300W        W41527  21.042   0.019  11.111
76301W        W41528  44.970  22.702   1.704
76302W        W41529  35.404  20.676  14.005
76303W        W41530  35.117  31.368  14.513
76304W        W41531  33.500  41.534  11.624
76305W        W41532   6.477  17.561  14.799
76306W        W41533  22.311  36.611   3.699
76307W        W41534  35.664  40.995  11.146
76308W        W41535   4.144  39.870   2.694
76309W        W41536  39.433  38.013  11.866
76310W        W41537  11.329  43.302  13.451
76311W        W41538  33.637  28.443   1.338
76312W        W41539  12.726  29.367   1.925
76313W        W41540  30.042  18.329   1.410
76314W        W41541  26.467  43.059   1.723
76315W        W41542   6.295   6.927   3.448
76316W        W41543  20.509  17.738   4.822
76317W        W41544  31.079  17.598  11.222
76318W        W41545  42.851  24.068  12.225
76319W        W41546   1.856  35.599  11.429
76320W        W41547  44.326  31.618   5.031
76321W        W41548  27.869  12.705  12.427
76322W        W41549  22.077  24.737   2.158
76323W        W41550   7.701   5.227   0.867
76324W        W41551   9.951  11.923   2.730
76325W        W41552  37.976  43.072  12.377
76326W        W41553  13.235   2.555   0.885
76327W        W41554  42.491  14.264   0.848
76328W        W41555   1.885  27.544   2.258
76329W        W41556  43.734  36.068   0.301
76330W        W41557  33.030  27.064   3.167
76331W        W41558   9.921  23.023   4.270
76332W        W41559   8.324  43.342   0.501
76333W        W41560   0.266  37.452   4.170
76334W        W41561  29.005  14.582   0.374
76335W        W41562   0.258   8.692  14.333
76336W        W41563  33.171   2.899   4.903
76337W        W41564  36.106  24.808  12.828
76338W        W41565  35.096  27.983  12.523
76339W        W41566  39.964  40.960  13.812
76340W        W41567  25.849  44.173  13.109
76341W        W41568  27.171  13.680  13.033
76342W        W41569   2.198   2.465   4.482
76343W        W41570  17.836  19.079   1.840
76344W        W41571  24.762  21.921  12.306
76345W        W41572  13.213   4.329   2.908
76346W        W41573  20.326   2.335   3.127
76347W        W41574   5.373  25.103   4.216
76348W        W41575  24.662   8.929  11.559
76349W        W41576  37.378  43.232  12.548
76350W        W41577  40.074  32.120  14.302
76351W        W41578   2.778   3.945  12.562
76352W        W41579  19.708  17.898  12.556
76353W        W41580  43.038  13.329   0.220
76354W        W41581   3.174  37.919  11.142
76355W        W41582  35.596  18.112   2.362
76356W        W41583   2.914  37.487  12.081
76357W        W41584   5.751  23.604  14.522
76358W        W41585  38.025  16.995   3.628
76359W        W41586  34.215  34.489   3.611
76360W        W41587  41.725  14.839  10.648
76361W        W41588  34.434  35.969   1.849
76362W        W41589  41.234  33.314   0.294
76363W        W41590   8.337  30.261  11.515
76364W        W41591  32.107  14.319   9.715
76365W        W41592   6.406  19.338   0.036
76366W        W41593  22.179  10.142  12.519
76367W        W41594  13.076  11.405   4.484
76368W        W41595  21.952  22.993   0.607
76369W        W41596  33.366  25.664   2.176
76370W        W41597   6.704   3.408   2.665
76371W        W41598  32.829  38.584   4.155
76372W        W41599   5.618  10.190  10.199
76373W        W41600  37.562  43.875   4.048
76374W        W41601  20.893  24.191  10.721
76375W        W41602   2.305  11.021   4.172
76376W        W41603  14.246  13.906  14.380
76377W        W41604  36.354  42.515  13.936
76378W        W41605  41.858  23.212   0.769
76379W        W41606  43.247  17.126  11.544
76380W        W41607  13.708  21.197   3.205
76381W        W41608  21.064   3.649  12.971
76382W        W41609  21.066  22.107  11.587
76383W        W41610   5.287  38.884  11.401
76384W        W41611  23.082  44.010  13.877
76385W        W41612  32.866  27.468  14.438
76386W        W41613   7.736   3.438   2.155
76387W        W41614  24.613  35.361  13.822
76388W        W41615   7.662   9.548   3.990
76389W        W41616  11.844  25.391   3.177
76390W        W41617   2.825  14.215  12.923
76391W        W41618  22.113   9.856   3.104
76392W        W41619  35.204  28.479  11.947
76393W        W41620   0.800  22.201  12.451
76394W        W41621  43.175   7.689   4.211
76395W        W41622   7.111  24.176   4.977
76396W        W41623  24.002  34.673   4.893
76397W        W41624  44.277  39.442  14.267
76398W        W41625  29.111  42.850   4.551
76399W        W41626  17.578  31.536  14.500
76400W        W41627  17.563   5.960   4.714
76401W        W41628  16.979  21.523   0.724
76402W        W41629  29.201  30.084   4.078
76403W        W41630   5.236  34.346  10.987
76404W        W41631  19.084  23.820  11.310
76405W        W41632  36.454   4.000   4.429
76406W        W41633  23.911  25.397   4.375
76407W        W41634  13.443  24.231   1.980
76408W        W41635   8.008  29.226   3.110
76409W        W41636   9.063  44.503  11.967
76410W        W41637   6.599  36.796  14.669
76411W        W41638  17.654  30.205   2.188
76412W        W41639  25.508  31.028   1.395
76413W        W41640  26.982  39.854   2.774
76414W        W41641  28.975   3.500   4.196
76415W        W41642  37.498  29.550  12.035
76416W        W41643  15.263   3.795   0.836
76417W        W41644   8.289  43.031  12.061
76418W        W41645  12.310  44.887   3.979
76419W        W41646  33.716   2.662  13.839
76420W        W41647  26.281   2.482   1.869
76421W        W41648  23.075  29.554  10.438
76422W        W41649   9.491  28.196   0.961
76423W        W41650  11.210  44.375   4.780
76424W        W41651  42.014  43.851  11.907
76425W        W41652  23.224  30.710   0.100
76426W        W41653  15.790  25.189  11.554
76427W        W41654  10.765  21.720   4.515
76428W        W41655  17.357   6.365  10.365
76429W        W41656  36.042  20.468  14.005
76430W        W41657  28.704  22.074  14.938
76431W        W41658  43.809  27.576  10.610
76432W        W41659  10.420  39.557   3.154
76433W        W41660  31.211  10.154  14.028
76434W        W41661  30.929  36.603   0.751
76435W        W41662  34.446   5.568   3.144
76436W        W41663  34.766  44.957   3.827
76437W        W41664  12.858  39.617  14.495
76438W        W41665  35.612  17.134  13.734
76439W        W41666  14.603  11.598  12.116
76440W        W41667  40.524   4.319  12.894
76441W        W41668  21.119   2.547   4.424
76442W        W41669  32.229  21.731   3.248
76443W        W41670  11.890  35.227   1.758
76444W        W41671  39.173  21.464   4.146
76445W        W41672   3.545  12.745   3.177
76446W        W41673  12.691  18.083  13.868
76447W        W41674  14.765  39.043  10.831
76448W        W41675  20.142  18.854   2.660
76449W        W41676  31.867  27.487   2.236
76450W        W41677  11.666   2.386   0.429
76451W        W41678  40.827   9.281   3.432
76452W        W41679  25.267  40.624   1.023
76453W        W41680  14.787  18.800   3.228
76454W        W41681  11.846  37.631  12.950
76455W        W41682   8.181   6.315  12.726
76456W        W41683  31.344  18.754   4.168
76457W        W41684   2.340  15.513   4.707
76458W        W41685   2.360   9.798  14.322
76459W        W41686  13.909  16.789   1.803
76460W        W41687  10.415  12.645   0.880
76461W        W41688  32.112   7.485  12.067
76462W        W41689  43.640   2.890  14.791
76463W        W41690  42.041  38.143   0.878
76464W        W41691  40.366  28.651  13.317
76465W        W41692  33.696  25.068  12.832
76466W        W41693  42.248   0.852  13.910
76467W        W41694   9.953  10.641  11.194
76468W        W41695  41.410   0.741  14.395
76469W        W41696  33.439  41.553   3.026
76470W        W41697  26.913  43.968  11.136
76471W        W41698  34.288  32.085   4.567
76472W        W41699  39.558  20.609   3.287
76473W        W41700   2.496  33.455  10.725
76474W        W41701  43.804  36.488  12.923
76475W        W41702  37.870   3.882  12.480
76476W        W41703  26.105  35.884   0.658
76477W        W41704  31.088   9.271   2.030
76478W        W41705  13.017   8.727  10.521
76479W        W41706  27.068  15.160  13.273
76480W        W41707   2.028  29.579  12.180
76481W        W41708  18.478  10.118   1.756
76482W        W41709   4.670  30.833   5.195
76483W        W41710  24.616   5.703   4.094
76484W        W41711  40.907  15.553   4.057
76485W        W41712  13.319  11.210  12.965
76486W        W41713  26.596  24.288  11.597
76487W        W41714  19.479  31.437   2.288
76488W        W41715  38.977  36.694  12.952
76489W        W41716  18.600  19.720   3.628
76490W        W41717  40.911  38.082  14.607
76491W        W41718  24.437  22.366   1.738
76492W        W41719  19.050  36.460  10.960
76493W        W41720   8.507  33.128  11.038
76494W        W41721  24.684  18.641  13.316
76495W        W41722  36.302  42.445  11.358
76496W        W41723  31.536  17.316   1.731
76497W        W41724  29.489  36.818   0.990
76498W        W41725  10.501   3.903   3.647
76499W        W41726  23.368  44.680   3.596
76500W        W41727  13.056  12.572  11.967
76501W        W41728  30.144  10.792  11.594
76502W        W41729  35.989  28.626   2.922
76503W        W41730  20.586  24.463   2.179
76504W        W41731   5.845  42.166  12.334
76505W        W41732   1.755  30.576   0.429
76506W        W41733  25.152  32.242   0.253
76507W        W41734  21.163   8.618  11.999
76508W        W41735  11.267  30.026   2.870
76509W        W41736  30.887  12.654   0.630
76510W        W41737  39.432  42.983   3.131
76511W        W41738  13.761  44.964   3.743
76512W        W41739  31.044   6.127   0.517
76513W        W41740  16.001  36.961   5.092
76514W        W41741  35.074   9.311   3.618
76515W        W41742  24.722  17.521   2.229
76516W        W41743  10.846  41.370   1.729
76517W        W41744  12.112   6.839   1.502
76518W        W41745  40.297   2.869  14.394
76519W        W41746   6.228  16.012   0.416
76520W        W41747  25.899  13.985   9.971
76521W        W41748  27.645  38.336   5.149
76522W        W41749  29.637   5.867   1.652
76523W        W41750  24.295  17.920  13.825
76524W        W41751  36.887  19.074   0.426
76525W        W41752  29.970  27.727  14.328
76526W        W41753  29.585  43.881   4.943
76527W        W41754   1.216   1.850  12.503
76528W        W41755  21.029  31.871  12.828
76529W        W41756  39.453  38.068  12.742
76530W        W41757  29.486   1.838  11.510
76531W        W41758  10.665  23.251  13.117
76532W        W41759  22.006  44.938  11.167
76533W        W41760   9.816  41.170  10.054
76534W        W41761  32.327  26.210  13.551
76535W        W41762  44.523   2.631  11.148
76536W        W41763  31.439  40.368   4.205
76537W        W41764   9.407  19.388   2.162
76538W        W41765  33.353   4.288  13.077
76539W        W41766   8.574  30.671   4.277
76540W        W41767  21.599   3.225  12.533
76541W        W41768  33.976   6.877   0.237
76542W        W41769   6.943  14.507   3.451
76543W        W41770  27.263  17.599  11.134
76544W        W41771  35.258  44.916   2.926
76545W        W41772  26.958  32.954   0.872
76546W        W41773  14.620  21.996  10.780
76547W        W41774  40.310  29.231   4.167
76548W        W41775  26.083  34.171   3.804
76549W        W41776   7.817   8.535   3.226
76550W        W41777  32.777  40.305  12.807
76551W        W41778  12.962  32.835   1.442
76552W        W41779  19.612  43.095   4.558
76553W        W41780  17.643  35.991  12.955
76554W        W41781  26.463  44.808  13.161
76555W        W41782   6.871  33.535  12.779
76556W        W41783   3.727  21.070   0.553
76557W        W41784   9.699  20.023  14.995
76558W        W41785   8.583   7.730  12.044
76559W        W41786  15.017  26.916  14.463
76560W        W41787   9.701   2.897  12.117
76561W        W41788  41.782  37.724  11.099
76562W        W41789  22.316   2.004  12.356
76563W        W41790  16.703  17.673   0.231
76564W        W41791  28.628  27.599   3.924
76565W        W41792  42.595  21.720   0.945
76566W        W41793  40.889  39.885   3.937
76567W        W41794  36.631  21.591   0.738
76568W        W41795  22.233  20.483  11.310
76569W        W41796   4.826  21.510  12.045
76570W        W41797  24.196  35.567   1.198
76571W        W41798  12.275  44.976  13.129
76572W        W41799  43.116  14.699   3.551
76573W        W41800  16.751  34.543  13.966
76574W        W41801  41.956  26.656  10.779
76575W        W41802  24.740  30.654   0.860
76576W        W41803  23.548  30.424   3.047
76577W        W41804  43.720  30.517   2.226
76578W        W41805  27.251  24.447  14.841
76579W        W41806  18.805   8.433   4.412
76580W        W41807  20.946  17.037   0.813
76581W        W41808  20.009  22.975   4.625
76582W        W41809   2.168  10.822  11.104
76583W        W41810  18.269  35.436  12.210
76584W        W41811  26.597  43.125   2.696
76585W        W41812  32.555  28.668   0.925
76586W        W41813   3.417  31.085  10.521
76587W        W41814  44.228  21.286   4.500
76588W        W41815  28.618  33.908  14.988
76589W        W41816  14.599  44.818  11.956
76590W        W41817   3.956  14.216  11.725
76591W        W41818   9.660  17.195  11.623
76592W        W41819  39.990  19.160  14.196
76593W        W41820  37.439  24.500   4.086
76594W        W41821  39.949   5.985   1.880
76595W        W41822  30.553  33.500  12.492
76596W        W41823   0.259  23.735   3.862
76597W        W41824  32.021  24.298   3.736
76598W        W41825  31.197  35.717   9.985
76599W        W41826  33.121   9.956  13.845
76600W        W41827  11.278  18.444  10.792
76601W        W41828  33.250  23.042  11.447
76602W        W41829  10.092  38.001  14.425
76603W        W41830  16.578  21.591   4.117
76604W        W41831   2.480  42.043   9.392
76605W        W41832  18.104  21.960  12.478
76606W        W41833  38.037  28.489  10.483
76607W        W41834  43.060  19.146  12.113
76608W        W41835  12.355  17.602   4.207
76609W        W41836   5.752  34.613   4.106
76610W        W41837   2.284   1.935  13.122
76611W        W41838  20.124  39.545   0.008
76612W        W41839  32.723  22.012  12.036
76613W        W41840  37.317  33.105   1.299
76614W        W41841  15.808   8.262  13.364
76615W        W41842  32.389  32.466  13.887
76616W        W41843  13.756   0.562  12.026
76617W        W41844   1.610  17.982  14.471
76618W        W41845  16.106  20.503  14.966
76619W        W41846  17.674  15.200  12.695
76620W        W41847  31.563  20.269   2.588
76621W        W41848  39.306   8.805   3.686
76622W        W41849  22.855  37.336  12.461
76623W        W41850  42.333  34.474   1.970
76624W        W41851   6.889  23.517  13.573
76625W        W41852  14.324  37.607   1.665
76626W        W41853  21.286  10.286  12.829
76627W        W41854  20.137  21.311   4.034
76628W        W41855  34.408  13.996  14.779
76629W        W41856   3.028   8.890   9.926
76630W        W41857  21.744  15.550   4.213
76631W        W41858   4.593  41.154  12.015
76632W        W41859   1.871  22.685  14.511
76633W        W41860  16.478  25.991  13.047
76634W        W41861  43.271  25.008  14.419
76635W        W41862  29.142  15.113  12.296
76636W        W41863  16.689  16.155   3.025
76637W        W41864  12.958  40.643   3.607
76638W        W41865  42.787  43.927  11.512
76639W        W41866  17.800  33.376  14.229
76640W        W41867  29.963   7.514   4.837
76641W        W41868  43.580  17.721  12.103
76642W        W41869  23.252  36.085   2.249
76643W        W41870  15.743  20.879  13.033
76644W        W41871  40.516  41.490   2.816
76645W        W41872  32.937  40.471  11.088
76646W        W41873  23.336  11.100   2.762
76647W        W41874  27.961  21.267  13.519
76648W        W41875   5.269  44.287  10.163
76649W        W41876  37.527   2.204   3.303
76650W        W41877   7.281  11.588  13.931
76651W        W41878  16.173  11.780  12.877
76652W        W41879  40.930   1.498  13.726
76653W        W41880  17.388  14.086   2.182
76654W        W41881  15.704  31.613  12.021
76655W        W41882   1.008  32.796   1.355
76656W        W41883  25.966  12.114   0.308
76657W        W41884  14.094  14.618  12.111
76658W        W41885  41.035  31.054  13.319
76659W        W41886  26.525  22.815   4.622
76660W        W41887  19.797  21.059   4.679
76661W        W41888   8.954   7.658   2.099
76662W        W41889  12.305  32.764   0.347
76663W        W41890  16.547  41.888  11.569
76664W        W41891  42.363  43.441   0.938
76665W        W41892  37.109  11.975   0.704
76666W        W41893  13.807  12.809   4.009
76667W        W41894  38.845  15.683   0.382
76668W        W41895  27.053  24.888   0.956
76669W        W41896  31.563  12.859   0.075
76670W        W41897  43.883  35.059  11.254
76671W        W41898   9.212  20.628   4.844
76672W        W41899   1.271   5.006  10.825
76673W        W41900  35.562  17.095  13.219
76674W        W41901  30.426  41.506  10.379
76675W        W41902  39.968   6.299   1.456
76676W        W41903  13.773  20.809  13.796
76677W        W41904  11.852  33.656   3.678
76678W        W41905  44.695  11.147   3.260
76679W        W41906  37.839  34.368  11.965
76680W        W41907   6.347  36.323   1.666
76681W        W41908  27.974  29.269   2.086
76682W        W41909  36.093  42.005  11.225
76683W        W41910   8.102  43.813   0.374
76684W        W41911  27.476  36.426  14.300
76685W        W41912  28.481   4.864   2.348
76686W        W41913  19.626  25.656   3.864
76687W        W41914  31.883   6.218   3.697
76688W        W41915   3.964  20.145   2.383
76689W        W41916  32.845  14.128  12.522
76690W        W41917  43.952  14.671  12.632
76691W        W41918  20.467  37.322   0.880
76692W        W41919   5.899  33.563  12.646
76693W        W41920  14.834  35.456  12.816
76694W        W41921  18.051  10.110  12.885
76695W        W41922  18.192  44.220  12.944
76696W        W41923  18.510   5.717  13.768
76697W        W41924  22.471   3.415  12.710
76698W        W41925   8.641  42.394   3.809
76699W        W41926  42.270  21.514  14.444
76700W        W41927  19.580  29.198   1.761
76701W        W41928  24.280  42.025  10.313
76702W        W41929   3.327  42.456  12.869
76703W        W41930  32.696   5.317  14.938
76704W        W41931   5.228  30.240   2.674
76705W        W41932  43.336   0.208  11.333
76706W        W41933  40.371  30.580   1.304
76707W        W41934  14.765  27.123  12.739
76708W        W41935  28.573  41.704   4.504
76709W        W41936  10.228   0.516  10.765
76710W        W41937  43.439  31.566   1.788
76711W        W41938  10.300   9.367   3.174
76712W        W41939   4.496  25.038  13.431
76713W        W41940  15.662  25.718   3.223
76714W        W41941   1.332  41.407   4.338
76715W        W41942  40.237  26.712  14.568
76716W        W41943  17.215   2.218  14.544
76717W        W41944  23.519  40.363  11.682
76718W        W41945  35.945  40.944   1.391
76719W        W41946  12.766   7.948  14.006
76720W        W41947  29.114  35.629  13.495
76721W        W41948  29.915  36.103   2.899
76722W        W41949  16.593   1.155   1.619
76723W        W41950  36.871  30.156  11.458
76724W        W41951   8.432  22.200   4.754
76725W        W41952  20.548   0.934  13.917
76726W        W41953  26.990  14.712  12.982
76727W        W41954  37.159  22.311  14.514
76728W        W41955  18.779  22.049  10.800
76729W        W41956  34.485  31.683  10.680
76730W        W41957  37.996  44.883  12.830
76731W        W41958  43.333  34.335  14.364
76732W        W41959  10.865  14.105   1.334
76733W        W41960  27.224   2.826  14.903
76734W        W41961  39.124   5.311  13.881
76735W        W41962   2.615  24.663  12.901
76736W        W41963  31.083  43.647   1.874
76737W        W41964  16.244   4.272   3.196
76738W        W41965  13.693  40.310   1.902
76739W        W41966  21.607  40.301  14.267
76740W        W41967  11.830  14.637  12.664
76741W        W41968  22.221   6.270   3.130
76742W        W41969   3.388  42.024   1.752
76743W        W41970  27.532   2.478   2.641
76744W        W41971  21.286  12.831  13.814
76745W        W41972  33.462  10.205   2.950
76746W        W41973  14.250  40.783   1.324
76747W        W41974   6.761   6.090   3.170
76748W        W41975  22.496  28.622  10.828
76749W        W41976  34.457  29.272   4.008
76750W        W41977  40.015  43.088  10.696
76751W        W41978  25.978  44.530   2.634
76752W        W41979  11.108  11.615  12.946
76753W        W41980  16.804  16.614  12.617
76754W        W41981  34.610  27.120   1.793
76755W        W41982  25.012  44.212   0.382
76756W        W41983  14.808  42.293  12.888
76757W        W41984  27.529  16.262  13.081
76758W        W41985  37.920  30.365   4.120
76759W        W41986  44.980  18.135   1.910
76760W        W41987  17.838  32.495  14.432
76761W        W41988  25.619  16.589  14.508
76762W        W41989  38.520  11.502   2.757
76763W        W41990  43.655   3.807   2.639
76764W        W41991  39.003  18.612   2.411
76765W        W41992  44.972   3.886  13.565
76766W        W41993   3.305  22.165   4.101
76767W        W41994  15.027  11.777   3.555
76768W        W41995   2.367  40.981   0.786
76769W        W41996  14.273  36.030  12.995
76770W        W41997  37.802  20.048   0.082
76771W        W41998  42.747  17.280  13.972
76772W        W41999  30.400   0.815   2.619
76773W        W42000  42.997  43.503   1.777
76774W        W42001  16.169  34.149   4.759
76775W        W42002   3.125  31.501  10.467
76776W        W42003  35.068  18.072   3.539
76777W        W42004  12.049  37.242   3.806
76778W        W42005   3.392  22.349  10.560
76779W        W42006  37.583  29.501   1.389
76780W        W42007   3.854  17.211  12.102
76781W        W42008   8.374  43.272  11.567
76782W        W42009  20.697  32.854   1.206
76783W        W42010  36.259  42.617   9.529
76784W        W42011  17.778  35.271  14.629
76785W        W42012  25.617   2.276  13.551
76786W        W42013  28.005  10.382   2.705
76787W        W42014  23.281   8.392  14.791
76788W        W42015  19.264  32.884   4.102
76789W        W42016  15.891   1.849  14.436
76790W        W42017  29.756  26.427   2.902
76791W        W42018  44.697  30.495   0.330
76792W        W42019   1.210  31.050  12.384
76793W        W42020  15.146  32.426   5.485
76794W        W42021  27.569  27.772   3.751
76795W        W42022   6.731   5.838  12.480
76796W        W42023  15.799  10.875  14.671
76797W        W42024  40.015  29.954   2.290
76798W        W42025  35.479  30.045   1.122
76799W        W42026  44.280  26.332   1.467
76800W        W42027  35.788   7.344  13.993
76801W        W42028  12.834  29.086   2.732
76802W        W42029  27.908  28.220   2.292
76803W        W42030  19.612  27.643   3.778
76804W        W42031  10.719  32.961   2.671
76805W        W42032  39.767  36.438  10.752
76806W        W42033   2.202  18.972  13.843
76807W        W42034  26.495  16.385  10.032
76808W        W42035  11.841  20.625   3.377
76809W        W42036  33.553  32.664   2.388
76810W        W42037  29.026   8.423   1.884
76811W        W42038   7.330  42.521   2.087
76812W        W42039  28.682   7.685  11.465
76813W        W42040   0.891  31.982   2.457
76814W        W42041  32.953  20.488   1.510
76815W        W42042   5.107   3.178  14.288
76816W        W42043   2.504  23.905  11.084
76817W        W42044  26.272  24.537   0.346
76818W        W42045  17.272  18.385   3.317
76819W        W42046   3.876  43.755  11.337
76820W        W42047  23.743   4.489  11.248
76821W        W42048  18.305  19.685  14.476
76822W        W42049  41.380  16.594  12.570
76823W        W42050  23.051  27.212  13.424
76824W        W42051  31.350  19.501   1.299
76825W        W42052  31.756  31.531  11.960
76826W        W42053  26.274  42.748   4.488
76827W        W42054   5.732  23.662  10.619
76828W        W42055  12.620   8.430  14.062
76829W        W42056  44.184   3.689   1.380
76830W        W42057  20.735  13.938   1.501
76831W        W42058  26.557   8.316  12.958
76832W        W42059  33.017  41.369   1.617
76833W        W42060  17.628  14.106   2.653
76834W        W42061  32.280  19.482  10.358
76835W        W42062   4.791  24.185   4.926
76836W        W42063  27.614  19.611  10.747
76837W        W42064  31.257  32.382  13.762
76838W        W42065  33.308  30.902  11.327
76839W        W42066  19.964  17.103   0.775
76840W        W42067  10.545  34.514   3.959
76841W        W42068  21.036  13.546   0.648
76842W        W42069  40.821   1.459   0.466
76843W        W42070   2.223  14.286   4.042
76844W        W42071  13.224   6.801   1.233
76845W        W42072  39.497  42.535  12.886
76846W        W42073  15.451  44.059   5.087
76847W        W42074  11.755  38.476  13.075
76848W        W42075  19.835   0.454   1.979
76849W        W42076  13.680   7.433   1.747
76850W        W42077  38.597  24.212  13.842
76851W        W42078   3.254  22.315   4.945
76852W        W42079  28.061  27.431   2.045
76853W        W42080  18.243  18.212  10.554
76854W        W42081  13.843  20.132   4.688
76855W        W42082  34.379  31.012   1.217
76856W        W42083  29.077  43.645  14.647
76857W        W42084   2.990  36.455   4.657
76858W        W42085  17.157  28.107   2.701
76859W        W42086  29.077  44.658   2.140
76860W        W42087  14.868  37.995   3.209
76861W        W42088   5.104  15.086   0.770
76862W        W42089  28.363  16.812  11.873
76863W        W42090  32.163   6.914   0.931
76864W        W42091  29.682  26.013  11.617
76865W        W42092   7.668  27.179   2.159
76866W        W42093  43.426   2.094  10.264
76867W        W42094   8.108   0.307  10.835
76868W        W42095  39.804  24.285   1.940
76869W        W42096  27.014  37.467   1.290
76870W        W42097  41.572   9.174   1.072
76871W        W42098  10.681  33.660  10.783
76872W        W42099  18.563  20.648  10.672
76873W        W42100   2.340   3.918   1.209
76874W        W42101  35.775  33.914  13.977
76875W        W42102  11.212  24.154  14.359
76876W        W42103  37.938  18.225  11.632
76877W        W42104  15.495  13.365   1.993
76878W        W42105  34.090  22.021  12.145
76879W        W42106  44.767  22.482  12.770
76880W        W42107   2.890  24.054  11.406
76881W        W42108  25.161  36.569  14.831
76882W        W42109  27.990   5.206  11.117
76883W        W42110  21.997  29.000  11.607
76884W        W42111  29.965   3.331   3.921
76885W        W42112  30.831  11.849  10.155
76886W        W42113   5.099  35.530  14.769
76887W        W42114   0.225  33.408   4.126
76888W        W42115  41.790  23.684  14.778
76889W        W42116  15.449  32.021  10.071
76890W        W42117  24.010  10.745  10.748
76891W        W42118   6.922   1.363  11.083
76892W        W42119  19.745  14.691   1.915
76893W        W42120  32.070   9.842  12.504
76894W        W42121  44.439  21.758   4.537
76895W        W42122  32.972  27.384  12.062
76896W        W42123  38.052  39.663   2.892
76897W        W42124  26.614  27.512  10.829
76898W        W42125  14.221   4.682   4.014
76899W        W42126  12.966  14.896   4.129
76900W        W42127  20.271  39.884   2.159
76901W        W42128  12.743  21.947   2.974
76902W        W42129  35.409  19.116  12.716
76903W        W42130   4.379  30.101   4.488
76904W        W42131  29.668  14.999   0.829
76905W        W42132  29.208   0.022   1.417
76906W        W42133  20.041  19.776  14.041
76907W        W42134  19.156  42.261  10.577
76908W        W42135  16.770  41.290   0.289
76909W        W42136   7.651   9.007  11.588
76910W        W42137  20.539  40.917  13.803
76911W        W42138  26.081  40.345   2.802
76912W        W42139  17.726  24.655   2.721
76913W        W42140  15.912  35.012   4.226
76914W        W42141  20.673  32.879  11.594
76915W        W42142  14.809  33.870   1.858
76916W        W42143   8.583   4.760  14.872
76917W        W42144  19.791  42.077  11.659
76918W        W42145   7.680  29.172  12.320
76919W        W42146  31.380  15.347  14.860
76920W        W42147  40.336   0.803   3.077
76921W        W42148   3.053  40.522   0.464
76922W        W42149  20.556   9.243  13.567
76923W        W42150  34.209   7.871   0.468
76924W        W42151  13.840  22.845   3.097
76925W        W42152   6.681   4.323   1.934
76926W        W42153  24.981   4.905  12.992
76927W        W42154  15.150  38.013   2.684
76928W        W42155  30.652  18.042  14.507
76929W        W42156  12.582  40.923   3.343
76930W        W42157  25.416  24.910  11.649
76931W        W42158  31.548  32.219   4.789
76932W        W42159  43.999  12.243   0.159
76933W        W42160  22.729  41.972   0.647
76934W        W42161  44.955  30.535  13.179
76935W        W42162  10.412   3.309  12.048
76936W        W42163  24.671   5.640   2.346
76937W        W42164  35.622  21.312   0.356
76938W        W42165  18.806  36.440  10.408
76939W        W42166  28.518  18.298  13.502
76940W        W42167  28.205  15.326   0.760
76941W        W42168  30.907  30.636  14.348
76942W        W42169  13.170  15.412  14.468
76943W        W42170  16.015  35.146  13.633
76944W        W42171  43.504  10.814  14.075
76945W        W42172   5.292  30.059   1.799
76946W        W42173  23.193  10.209  14.226
76947W        W42174  15.278  19.091  14.558
76948W        W42175  12.668   3.680  14.924
76949W        W42176  20.305  35.466  12.529
76950W        W42177  28.485  17.678   2.730
76951W        W42178  11.852  27.210  11.275
76952W        W42179  29.279  11.252  14.414
76953W        W42180   4.726   0.979   0.324
76954W        W42181  15.186  32.463   9.762
76955W        W42182  11.728  38.164  14.492
76956W        W42183  18.354  42.500   2.336
76957W        W42184   4.718  19.357   1.687
76958W        W42185  27.599  25.805  14.954
76959W        W42186   3.754  41.977  11.644
76960W        W42187   5.228  12.551   0.546
76961W        W42188  11.070  33.861  12.406
76962W        W42189   7.803  37.333  12.554
76963W        W42190  31.373  42.762  11.228
76964W        W42191  37.625  27.672  10.746
76965W        W42192  36.499  21.151   3.836
76966W        W42193  10.746  23.020   3.861
76967W        W42194  34.282  40.503   1.656
76968W        W42195  42.075  40.716  12.044
76969W        W42196  37.816  12.437  12.132
76970W        W42197  24.519  42.053  14.984
76971W        W42198   4.275  34.343  13.712
76972W        W42199   8.757  42.581   2.318
76973W        W42200  32.275  35.306  14.909
76974W        W42201  33.493  27.126   2.236
76975W        W42202  17.800  23.701   4.590
76976W        W42203  39.769   8.724  11.140
76977W        W42204  14.205  20.776   2.568
76978W        W42205  13.254  17.735  12.113
76979W        W42206  18.615   5.018   4.197
76980W        W42207  19.564  25.503  13.895
76981W        W42208   8.681   3.355  10.894
76982W        W42209   8.041  43.075  14.428
76983W        W42210  19.681   2.003  11.572
76984W        W42211   5.209  11.145   0.362
76985W        W42212  10.325  36.900   1.304
76986W        W42213  23.129   6.669  14.919
76987W        W42214  14.593  16.836  13.252
76988W        W42215  15.348  19.605  10.813
76989W        W42216   3.667  32.842  13.802
76990W        W42217  43.937  14.503  14.853
76991W        W42218  18.981  42.310   2.983
76992W        W42219  37.472  23.153   0.213
76993W        W42220  39.986   9.764  13.338
76994W        W42221  30.027  27.654   1.684
76995W        W42222  37.928  44.356  12.934
76996W        W42223  17.587  22.070  11.548
76997W        W42224  40.930   0.530  10.517
76998W        W42225  33.814  26.093   2.757
76999W        W42226  43.015  36.913   1.351
77000W        W42227   0.154   9.378   3.245
77001W        W42228  13.007  36.444  10.544
77002W        W42229  31.566  24.681  10.763
77003W        W42230  38.955  24.531  14.539
77004W        W42231  27.992  24.073   1.308
77005W        W42232  38.089  42.850  10.738
77006W        W42233  36.517   7.928   1.296
77007W        W42234   3.365   9.738   0.681
77008W        W42235  42.059  14.923   2.125
77009W        W42236  12.729  29.122   0.310
77010W        W42237  40.798  42.838   1.399
77011W        W42238  34.877  21.114   2.788
77012W        W42239   3.365  29.197  11.552
77013W        W42240   9.704  37.219  11.997
77014W        W42241  27.532  34.212  13.395
77015W        W42242  13.757  36.667  11.112
77016W        W42243  23.952  29.854  14.910
77017W        W42244  11.361  17.221   2.653
77018W        W42245   5.450  33.346  13.941
77019W        W42246   4.990   5.172  14.172
77020W        W42247   4.766  35.525  13.743
77021W        W42248  16.319   7.430   2.581
77022W        W42249  32.867   8.406   1.190
77023W        W42250  12.283  16.718  12.737
77024W        W42251  29.372   8.196   3.634
77025W        W42252  35.825  29.357   3.086
77026W        W42253  39.611  18.545  10.778
77027W        W42254  19.627  10.735  11.136
77028W        W42255   4.444   5.130  12.978
77029W        W42256   2.434  15.088   2.037
77030W        W42257  12.660   4.638   1.772
77031W        W42258   2.812  21.552   3.162
77032W        W42259   5.423  41.963  14.416
77033W        W42260  10.007  33.475  14.924
77034W        W42261  27.087   7.222  12.960
77035W        W42262  30.152  38.833   0.936
77036W        W42263  29.558  43.331  10.758
77037W        W42264  41.357  44.785   1.005
77038W        W42265   0.769  15.977   2.319
77039W        W42266  32.490   9.278  10.681
77040W        W42267  16.210  24.498  14.263
77041W        W42268  43.541  30.807  11.098
77042W        W42269   5.278  44.838   0.455
77043W        W42270   5.914  33.956   2.390
77044W        W42271  12.294  13.290   3.716
77045W        W42272  39.086   8.231  14.839
77046W        W42273  18.230  24.812   2.921
77047W        W42274  13.674  20.782  12.509
77048W        W42275  37.639   8.123  12.832
77049W        W42276   7.323  20.366   0.705
77050W        W42277  20.290   9.745   2.762
77051W        W42278   6.203  21.391   1.406
77052W        W42279  37.817  33.931  11.669
77053W        W42280  12.441  34.192   4.925
77054W        W42281  25.460   8.849   3.183
77055W        W42282  41.971  27.256  14.995
77056W        W42283   4.281  29.565  11.497
77057W        W42284  38.318   3.334  13.166
77058W        W42285  42.254   3.390   4.109
77059W        W42286  44.529   8.059   3.214
77060W        W42287  44.870  28.796  12.478
77061W        W42288  21.536  20.568   0.212
77062W        W42289  33.548  44.733  12.374
77063W        W42290  31.182  30.953  13.764
77064W        W42291  25.560  14.035  13.012
77065W        W42292  10.674   3.021   1.411
77066W        W42293   6.814  14.063  11.630
77067W        W42294  19.069  14.314  12.121
77068W        W42295  29.589  27.693  12.140
77069W        W42296  26.699   9.274  13.900
77070W        W42297  26.955  39.434   0.855
77071W        W42298  44.017  41.566   3.786
77072W        W42299  24.147  32.496   0.896
77073W        W42300   0.811  14.787   1.129
77074W        W42301   9.138  12.825   3.115
77075W        W42302  39.567  31.401  14.014
77076W        W42303  29.065  37.043  11.062
77077W        W42304   0.732  32.410  11.945
77078W        W42305  26.294  16.162  12.809
77079W        W42306  24.671  37.028   4.381
77080W        W42307   1.797  15.795  13.866
77081W        W42308  13.337  16.638  11.094
77082W        W42309   9.335   4.911   0.427
77083W        W42310  12.261  23.995  13.434
77084W        W42311  36.941  43.645  13.528
77085W        W42312  31.752  41.300   2.224
77086W        W42313  20.546  11.634  11.490
77087W        W42314   7.239   0.101  13.879
77088W        W42315  24.965  36.972  14.526
77089W        W42316  11.717   7.179   5.087
77090W        W42317  36.897   1.929  14.776
77091W        W42318  12.658  20.140   2.283
77092W        W42319  40.663  40.282   4.870
77093W        W42320   4.032  31.417   4.602
77094W        W42321  15.005  39.026   0.232
77095W        W42322  10.866  23.693  14.518
77096W        W42323  21.557  28.990   4.354
77097W        W42324   7.192  14.088  12.575
77098W        W42325  18.475  40.638  10.208
77099W        W42326  41.763  20.032  13.421
77100W        W42327   7.124  39.218   3.078
77101W        W42328  22.024  28.059   3.172
77102W        W42329   5.233   0.452  12.837
77103W        W42330  16.305  27.093   2.648
77104W        W42331  37.543  37.316  11.466
77105W        W42332  30.880  17.577   3.335
77106W        W42333  35.888   4.013  12.881
77107W        W42334   0.401  41.993  12.487
77108W        W42335   7.799  25.583   4.635
77109W        W42336  42.555  33.019   2.352
77110W        W42337  14.369   7.805   1.430
77111W        W42338  30.503   9.471   4.564
77112W        W42339  20.184  15.980  14.738
77113W        W42340   4.858   6.876  13.468
77114W        W42341  42.503  26.132  11.772
77115W        W42342  23.108  26.554  12.071
77116W        W42343  33.026  22.682   0.963
77117W        W42344   2.779   9.123  11.078
77118W        W42345  43.773   6.511   2.701
77119W        W42346  28.509  18.644   1.171
77120W        W42347   6.243  32.674   1.643
77121W        W42348  31.156   8.706   5.353
77122W        W42349  10.877   2.822   0.052
77123W        W42350   8.178  41.888  12.394
77124W        W42351  23.625  39.026   2.144
77125W        W42352  40.291  18.552  13.922
77126W        W42353  20.173  23.087  10.488
77127W        W42354  31.498  18.484   1.291
77128W        W42355   8.482   8.971   2.565
77129W        W42356  21.329  34.601  12.552
77130W        W42357   6.687   8.357  11.197
77131W        W42358   8.267  16.829   0.798
77132W        W42359   2.451  18.527  13.015
77133W        W42360  11.613  41.818   3.653
77134W        W42361  27.649   9.377   3.781
77135W        W42362  15.590  16.716  14.921
77136W        W42363   2.846  34.053   4.136
77137W        W42364   7.669  10.291  11.379
77138W        W42365  19.100  13.787  11.228
77139W        W42366  13.343   0.186   2.283
77140W        W42367  28.828  28.117  13.558
77141W        W42368  28.101  38.223  13.656
77142W        W42369  19.172   9.945   2.338
77143W        W42370   9.596  16.623  12.427
77144W        W42371  31.334  14.526  13.179
77145W        W42372   1.401  13.940   2.704
77146W        W42373  19.395  16.327   0.733
77147W        W42374   9.419  44.486  10.669
77148W        W42375  39.323   8.208   4.863
77149W        W42376  30.680  12.215  11.119
77150W        W42377  14.261  10.762  12.054
77151W        W42378  29.372  24.521   3.864
77152W        W42379  31.432  25.638   5.315
77153W        W42380  37.851  21.591   2.303
77154W        W42381  19.991  31.738  13.901
77155W        W42382  29.547  18.276   0.277
77156W        W42383   6.402  26.242  14.869
77157W        W42384   2.087  40.048   1.839
77158W        W42385  15.325  16.319  13.774
77159W        W42386  37.494  14.416   3.280
77160W        W42387  30.724   2.321  10.693
77161W        W42388  43.557  17.511  11.653
77162W        W42389   1.699  23.217   3.456
77163W        W42390   7.367  41.148  12.731
77164W        W42391  42.391   4.051   0.759
77165W        W42392  13.037   8.756   2.647
77166W        W42393  30.431  20.488  10.906
77167W        W42394  31.699  22.433  11.608
77168W        W42395   3.413  15.891  12.425
77169W        W42396   9.630   5.754   4.611
77170W        W42397  19.567  10.295  14.083
77171W        W42398  23.152  42.314   4.552
77172W        W42399  28.795  20.713  12.078
77173W        W42400  40.530  37.927   2.842
77174W        W42401   1.369  19.199   0.521
77175W        W42402   5.856   9.591  14.622
77176W        W42403  35.218  22.118  13.957
77177W        W42404   3.179  44.755  12.923
77178W        W42405  30.718  21.160  11.134
77179W        W42406  10.577  22.664  10.150
77180W        W42407  35.400  18.658   2.376
77181W        W42408  23.283   6.097   0.449
77182W        W42409  16.987   3.182  11.674
77183W        W42410   2.914  37.272   2.607
77184W        W42411   8.523  17.735  11.920
77185W        W42412  41.923  11.826  10.335
77186W        W42413  12.494   7.278  12.813
77187W        W42414  32.284   1.439  13.019
77188W        W42415  26.209  33.134   0.420
77189W        W42416   8.339  36.155  12.504
77190W        W42417   1.427  38.834  14.023
77191W        W42418  25.065  28.719  12.888
77192W        W42419  36.105  23.577   2.224
77193W        W42420   0.413  23.060   4.553
77194W        W42421  41.251   1.738   1.931
77195W        W42422  20.215  34.705   4.713
77196W        W42423   7.920   6.149  14.907
77197W        W42424  37.156  30.312   4.670
77198W        W42425   3.340  31.805  11.575
77199W        W42426  10.168  41.828   3.149
77200W        W42427  37.885  22.521  12.342
77201W        W42428  18.233  20.828  11.479
77202W        W42429  37.912  25.742   2.725
77203W        W42430  41.939   2.883   5.040
77204W        W42431   4.838  12.858  12.714
77205W        W42432   7.129  43.352   2.741
77206W        W42433  31.824  42.459  13.890
77207W        W42434  39.141  43.316  10.492
77208W        W42435  36.788   4.409   4.626
77209W        W42436   3.267  32.558   1.730
77210W        W42437   3.321  30.233  12.778
77211W        W42438   2.793  31.410   1.296
77212W        W42439  36.166  21.305   0.333
77213W        W42440  34.460   4.068  11.997
77214W        W42441  29.126  22.967   1.449
77215W        W42442  22.057  20.985  13.080
77216W        W42443  21.533  39.599   4.476
77217W        W42444  36.525   3.595  12.446
77218W        W42445  22.944   8.214  13.862
77219W        W42446  18.665  42.190  12.677
77220W        W42447   5.220  43.169  12.948
77221W        W42448  31.547  27.145  14.849
77222W        W42449   0.982  30.297  13.508
77223W        W42450  13.867  16.028  13.721
77224W        W42451   3.034  18.789   3.992
77225W        W42452  10.182   3.255   1.864
77226W        W42453  41.500   4.311   4.244
77227W        W42454  34.652  10.901   2.106
77228W        W42455  42.407   1.049  12.097
77229W        W42456  37.315  25.062  14.564
77230W        W42457  23.013  12.082  13.133
77231W        W42458  42.768  25.212  13.781
77232W        W42459  10.112  41.203  10.502
77233W        W42460  12.001   6.927  10.795
77234W        W42461   2.608  10.030  11.555
77235W        W42462   0.949   9.359   2.219
77236W        W42463  38.026  40.755   3.274
77237W        W42464  40.215  11.261  11.916
77238W        W42465  13.116   6.618  14.320
77239W        W42466  31.433  24.111   5.144
77240W        W42467  14.743  17.231  12.109
77241W        W42468  15.305  14.271   2.788
77242W        W42469  23.818   5.642   1.035
77243W        W42470  37.977  38.934  14.716
77244W        W42471  34.626  37.549   0.300
77245W        W42472  10.665  40.027  11.384
77246W        W42473   2.842  28.784  13.482
77247W        W42474  41.085   7.056   1.113
77248W        W42475  39.310  16.262  13.877
77249W        W42476  13.248  43.386   0.802
77250W        W42477  33.907  28.544  13.426
77251W        W42478  15.553   8.115  12.926
77252W        W42479  15.715  31.530   3.720
77253W        W42480   2.931  11.212   0.034
77254W        W42481   9.731  27.556  12.142
77255W        W42482  39.353  16.816  13.858
77256W        W42483  10.718  33.928   1.198
77257W        W42484  29.522  33.988   2.598
77258W        W42485  36.566  19.597   0.785
77259W        W42486  38.842  15.709   3.835
77260W        W42487  17.266   0.133  11.534
77261W        W42488  36.847  29.031  11.542
77262W        W42489  31.916  32.656   3.628
77263W        W42490  22.767   2.800  13.418
77264W        W42491  26.074  33.166   3.738
77265W        W42492  29.468  13.626  14.219
77266W        W42493  25.713  29.563  12.643
77267W        W42494  32.874  36.100   3.287
77268W        W42495  18.201  38.390  12.402
77269W        W42496  18.496  30.019   2.361
77270W        W42497   7.827  31.540   3.424
77271W        W42498  28.372  40.757   4.062
77272W        W42499  14.572  11.850  13.433
77273W        W42500   2.131   0.370  13.553
77274W        W42501   3.368  19.200  12.063
77275W        W42502  23.477  13.857  14.935
77276W        W42503  42.343   7.951  14.108
77277W        W42504  12.153  18.692   4.711
77278W        W42505  40.762   1.960   4.619
77279W        W42506   7.405  38.497  10.521
77280W        W42507   0.320  30.746  12.876
77281W        W42508   9.380  29.888  14.938
77282W        W42509  12.566  11.395  11.435
77283W        W42510   1.467   5.737  13.122
77284W        W42511  11.345   1.675  13.303
77285W        W42512   2.100  26.053  12.491
77286W        W42513   2.732  18.665   4.893
77287W        W42514  11.275  27.744  11.495
77288W        W42515  13.798  26.982   2.367
77289W        W42516  36.930  30.844   4.192
77290W        W42517  18.277  32.529   1.245
77291W        W42518  39.552   3.365  10.179
77292W        W42519  29.974  39.091  14.845
77293W        W42520  39.319  11.626   4.124
77294W        W42521  21.715  43.818  12.221
77295W        W42522  15.405  26.789   2.316
77296W        W42523  19.210  23.769  10.811
77297W        W42524  27.445  32.462  11.651
77298W        W42525  34.212  36.567  11.705
77299W        W42526   2.106  20.765  10.899
77300W        W42527  34.293   1.311   3.156
77301W        W42528  41.239  31.997   3.622
77302W        W42529  22.543   8.352   2.154
77303W        W42530  26.503  44.771  13.652
77304W        W42531  15.643  29.147  14.342
77305W        W42532  40.060  19.653   3.194
77306W        W42533  26.014  23.773  13.610
77307W        W42534  32.514   3.783  13.278
77308W        W42535  13.887  28.987   1.676
77309W        W42536   9.650  16.024   1.997
77310W        W42537  36.521   6.280   1.160
77311W        W42538  40.385  44.278   4.581
77312W        W42539  30.512  12.678  12.308
77313W        W42540  34.623  36.296   4.737
77314W        W42541   5.743  18.517   0.617
77315W        W42542  21.627  24.065  10.973
77316W        W42543  18.994  20.224   0.160
77317W        W42544   6.396  18.474   2.284
77318W        W42545   0.576  18.167  11.181
77319W        W42546   2.349  27.140  12.894
77320W        W42547  11.029  20.584  11.284
77321W        W42548  37.935  22.695   3.286
77322W        W42549   4.743  35.900  10.388
77323W        W42550  32.673  20.516   2.448
77324W        W42551   4.164  12.329   2.052
77325W        W42552  34.824  42.350   1.292
77326W        W42553  33.053  41.717   1.234
77327W        W42554  13.568  28.440   2.769
77328W        W42555   4.211  15.544   0.917
77329W        W42556  34.575  43.737   3.793
77330W        W42557  30.446   4.149  12.349
77331W        W42558   7.819  37.333  14.855
77332W        W42559  21.231  26.199   4.598
77333W        W42560  43.167  38.125  13.313
77334W        W42561  19.360  41.809  14.897
77335W        W42562   1.985  17.696  11.657
77336W        W42563  18.135  10.502   1.862
77337W        W42564   6.360  13.600   0.772
77338W        W42565  17.635  20.772   0.267
77339W        W42566  18.137  39.379   1.468
77340W        W42567  11.200  14.829   9.632
77341W        W42568  38.304  27.562   1.629
77342W        W42569  29.897  26.041  12.600
77343W        W42570  43.988  14.111   2.711
77344W        W42571  31.108  42.300   3.287
77345W        W42572  30.111   0.267   3.738
77346W        W42573   2.003  22.922  12.646
77347W        W42574  13.805   1.152   1.156
77348W        W42575  32.699  41.002   4.055
77349W        W42576   4.102   0.384   0.889
77350W        W42577   3.146  21.621   1.231
77351W        W42578  33.448  33.847   3.431
77352W        W42579  39.007  40.295  11.566
77353W        W42580   6.056   9.240   1.998
77354W        W42581  13.073  17.127  14.306
77355W        W42582   1.393  25.615  11.725
77356W        W42583  33.365  41.036   2.794
77357W        W42584  14.107  17.957   3.747
77358W        W42585   3.335  42.157   4.696
77359W        W42586  27.201   6.876   0.296
77360W        W42587  31.514  21.741  12.672
77361W        W42588  43.302  14.662   0.687
77362W        W42589  32.607  22.269  11.158
77363W        W42590  24.258  38.915   3.633
77364W        W42591  38.736  29.504  10.429
77365W        W42592  32.605  12.309   1.202
77366W        W42593  40.436   5.678   2.716
77367W        W42594  41.923   2.757  14.982
77368W        W42595   2.200  35.403   3.239
77369W        W42596  11.600  24.961  11.717
77370W        W42597  18.142  35.062  10.612
77371W        W42598   4.237   8.904  14.245
77372W        W42599  40.203  21.452   0.761
77373W        W42600  35.490  37.994  12.005
77374W        W42601  13.660  17.128   1.376
77375W        W42602  27.586   5.460   3.880
77376W        W42603  16.633  21.708   3.606
77377W        W42604  34.915   8.353  14.932
77378W        W42605  20.024  12.620  14.534
77379W        W42606  10.305  13.861  13.390
77380W        W42607  19.201  29.563  12.876
77381W        W42608   0.441  31.259   4.863
77382W        W42609   6.104   9.859  13.434
77383W        W42610  38.119  12.234  13.430
77384W        W42611   8.901  42.731  14.888
77385W        W42612  11.674  31.092   3.685
77386W        W42613  32.153  24.692   4.077
77387W        W42614  19.756  17.243  13.512
77388W        W42615   4.779  22.722   0.893
77389W        W42616  14.140  14.324  11.685
77390W        W42617  11.565  10.703  14.848
77391W        W42618   0.201  39.489   1.380
77392W        W42619  32.649  32.757  11.112
77393W        W42620  32.045  23.089   4.859
77394W        W42621  36.146  17.081   3.702
77395W        W42622   0.323  16.929   9.995
77396W        W42623  31.076  39.534   2.367
77397W        W42624  28.169   7.496  11.438
77398W        W42625  44.954  24.553  13.591
77399W        W42626  37.057  19.338  14.354
77400W        W42627  32.963  43.247  11.492
77401W        W42628  29.097  33.094  12.337
77402W        W42629  27.473   4.226   1.351
77403W        W42630  19.636  39.513  11.461
77404W        W42631   3.317  37.334   3.210
77405W        W42632  33.379  44.902   2.969
77406W        W42633  26.612  39.414  11.184
77407W        W42634   6.435  16.391  10.663
77408W        W42635  11.139  42.585  11.302
77409W        W42636  21.239  28.456   1.403
77410W        W42637   9.834  15.551   2.147
77411W        W42638  39.593   6.361  12.425
77412W        W42639   2.813  26.241   3.271
77413W        W42640   2.162   1.686   2.373
77414W        W42641  43.280  42.687   0.146
77415W        W42642  18.921  22.735   3.341
77416W        W42643  21.267  28.528  14.608
77417W        W42644   7.591   6.727   3.396
77418W        W42645  35.305  13.467   4.110
77419W        W42646  17.175  21.587   2.182
77420W        W42647  44.202  43.481   0.248
77421W        W42648  28.145  43.321   1.462
77422W        W42649  41.681  28.700  10.371
77423W        W42650   6.132   6.916  10.742
77424W        W42651  23.878  41.011   4.340
77425W        W42652  15.312   0.333  13.528
77426W        W42653  10.865  36.653   4.728
77427W        W42654   6.040  38.030   3.250
77428W        W42655   3.296  41.585   1.997
77429W        W42656  15.993  27.923  11.992
77430W        W42657  44.671  38.390   3.861
77431W        W42658  17.657  40.101   1.222
77432W        W42659  40.409  21.530   3.688
77433W        W42660  14.821  12.746  13.951
77434W        W42661   4.380  40.494  12.018
77435W        W42662  16.073  23.024   4.927
77436W        W42663  35.764  40.492  14.412
77437W        W42664  40.417  40.591  13.062
77438W        W42665   6.285  18.016  14.606
77439W        W42666  38.645   3.714   1.392
77440W        W42667  36.513  10.604   3.636
77441W        W42668  15.149  25.071   0.198
77442W        W42669  33.974  31.556  13.924
77443W        W42670  40.206  27.241  11.565
77444W        W42671  16.526  29.131  14.413
77445W        W42672  13.374  11.918   5.160
77446W        W42673  37.613  37.131  12.147
77447W        W42674  29.517  20.969  14.441
77448W        W42675  16.518  17.737  12.882
77449W        W42676   4.746  36.535  14.430
77450W        W42677  43.834  17.448   5.324
77451W        W42678  12.748  14.159   2.421
77452W        W42679  38.563  37.873   1.050
77453W        W42680  40.103  30.369  13.359
77454W        W42681  15.082  30.093   4.627
77455W        W42682  32.393  11.757  12.071
77456W        W42683  44.373  44.387   3.307
77457W        W42684  39.870  20.853   3.617
77458W        W42685  24.653  29.699  14.266
77459W        W42686  38.874  12.297  12.887
77460W        W42687  16.364  35.963   3.662
77461W        W42688   5.960  26.136  13.391
77462W        W42689  21.493  10.910  10.976
77463W        W42690  30.592  43.058  14.282
77464W        W42691   4.995  16.408   2.949
77465W        W42692   5.397  14.438   4.429
77466W        W42693  30.429   8.741   1.301
77467W        W42694  21.630  11.706   4.070
77468W        W42695  30.204  44.009  14.441
77469W        W42696   4.801  44.445  12.008
77470W        W42697  11.356  20.469   3.208
77471W        W42698   7.771  44.911  13.047
77472W        W42699  11.919   5.982   2.156
77473W        W42700   2.947   9.872  13.513
77474W        W42701  31.314  24.580   4.717
77475W        W42702  34.586   2.736  14.590
77476W        W42703  17.244  14.686  13.801
77477W        W42704  23.786  26.110  13.880
77478W        W42705  40.070  37.498   4.623
77479W        W42706  12.572  19.971   0.791
77480W        W42707  30.230  14.502  14.508
77481W        W42708  22.483   1.253   2.126
77482W        W42709   3.302  34.188   4.383
77483W        W42710  28.208  34.367  11.155
77484W        W42711   6.279  24.143   4.393
77485W        W42712  25.475  25.095  11.180
77486W        W42713   2.312  24.078   0.322
77487W        W42714  33.525  20.854  12.089
77488W        W42715  39.111  18.233  12.528
77489W        W42716  20.382  28.147  11.964
77490W        W42717   2.110  34.363   4.809
77491W        W42718   5.443  39.362  11.241
77492W        W42719  14.565  32.567  12.694
77493W        W42720  39.177   4.585   1.094
77494W        W42721  19.005  11.148   1.366
77495W        W42722  27.428  38.902   4.184
77496W        W42723  41.930  25.888   0.961
77497W        W42724  38.086  25.987   3.184
77498W        W42725  33.913  26.480  12.897
77499W        W42726  34.002  35.597  13.633
77500W        W42727  43.305  19.211   2.233
77501W        W42728  22.641  32.063   4.152
77502W        W42729  30.509   5.622  11.631
77503W        W42730  15.390  17.172  14.759
77504W        W42731  23.598   3.759   5.752
77505W        W42732  35.740  28.930  10.743
77506W        W42733   9.918   5.396  12.871
77507W        W42734   5.028   4.965  12.921
77508W        W42735  27.724  28.572   2.618
77509W        W42736   4.754  15.373  13.400
77510W        W42737   6.792   9.909   3.061
77511W        W42738  34.614   1.191  10.746
77512W        W42739  27.507  43.584  10.710
77513W        W42740   1.150  40.392   4.631
77514W        W42741  13.552  21.886  13.940
77515W        W42742   1.891  35.331   0.600
77516W        W42743  17.307   6.211   0.072
77517W        W42744  44.436  38.425   3.231
77518W        W42745  18.217  39.784  13.176
77519W        W42746  44.459  28.445   0.328
77520W        W42747  17.689  27.905  11.044
77521W        W42748  27.232   0.669  13.594
77522W        W42749   3.788   2.455   1.619
77523W        W42750  10.407  24.559   3.310
77524W        W42751  28.107   0.555  11.904
77525W        W42752   9.259   2.972  12.394
77526W        W42753  12.071  13.312  13.113
77527W        W42754  30.022  10.079   5.242
77528W        W42755  14.124  41.019   3.236
77529W        W42756  26.233  32.416  14.260
77530W        W42757  14.592   3.086  13.056
77531W        W42758  16.763  21.918  12.152
77532W        W42759  37.891  14.981   1.748
77533W        W42760  32.859  19.546   1.382
77534W        W42761   8.139  16.622   1.668
77535W        W42762  29.355   2.951   4.963
77536W        W42763   3.966   2.011  13.548
77537W        W42764  25.175  38.553   1.137
77538W        W42765  29.344  15.122   3.260
77539W        W42766  29.625  38.689  14.207
77540W        W42767  37.782  18.319  14.746
77541W        W42768   6.346  13.396  11.955
77542W        W42769  18.069  41.532  11.042
77543W        W42770  36.781  24.918  14.439
77544W        W42771  42.852  38.015  11.873
77545W        W42772  22.191  14.621   4.812
77546W        W42773  19.051  18.112   0.856
77547W        W42774  39.612  39.077  14.121
77548W        W42775  21.753  12.728   3.046
77549W        W42776   3.384   7.867   1.810
77550W        W42777  17.551  11.354  11.605
77551W        W42778  30.940  20.500   3.788
77552W        W42779  33.042   2.611   3.409
77553W        W42780  24.666  39.338   1.861
77554W        W42781  14.824  27.512   1.754
77555W        W42782  12.613  28.443   1.735
77556W        W42783  25.373  36.639   1.058
77557W        W42784  10.229  26.477  12.535
77558W        W42785   3.403  12.468  11.678
77559W        W42786  21.319   9.707   1.702
77560W        W42787  22.210   7.069   2.325
77561W        W42788  26.765  35.216  10.626
77562W        W42789  26.183  40.276   0.277
77563W        W42790  27.989  38.488  12.789
77564W        W42791  17.118   2.186   0.429
77565W        W42792  18.223  31.992   4.502
77566W        W42793  23.589  23.111  10.369
77567W        W42794  16.818  39.502   0.007
77568W        W42795  34.439  32.637  12.995
77569W        W42796   6.765  22.527   2.384
77570W        W42797  19.263  33.890   4.611
77571W        W42798   2.538   3.165   3.497
77572W        W42799  34.217  31.659   4.890
77573W        W42800  19.384  11.143  10.368
77574W        W42801  19.063  26.023  11.895
77575W        W42802   5.837   1.704   2.799
77576W        W42803  44.341  27.160   0.811
77577W        W42804  44.794  18.281   3.864
77578W        W42805  44.514   5.114   1.231
77579W        W42806  40.545  25.994   1.807
77580W        W42807  11.375  28.756  12.015
77581W        W42808  32.974  29.083   0.047
77582W        W42809   9.013  33.135  14.959
77583W        W42810  30.100  42.568   0.501
77584W        W42811  14.267  33.589  11.532
77585W        W42812  27.665  20.278   2.749
77586W        W42813  23.025  33.568   0.865
77587W        W42814  36.084   3.764   3.626
77588W        W42815  11.806  17.785  10.348
77589W        W42816  38.733  34.371   2.645
77590W        W42817  24.653   8.609  12.919
77591W        W42818   1.727   6.182   4.665
77592W        W42819   3.774  35.138   4.670
77593W        W42820  40.751   9.015   0.773
77594W        W42821  23.246  18.108   1.466
77595W        W42822  28.888   5.376  10.261
77596W        W42823   9.846   4.815   4.520
77597W        W42824  22.050  36.590  12.128
77598W        W42825   8.509  28.144  12.908
77599W        W42826   8.791  34.623   9.875
77600W        W42827   3.798  22.997  14.077
77601W        W42828  39.772  12.649  11.918
77602W        W42829  40.586  41.833  13.862
77603W        W42830  26.553  28.701  12.965
77604W        W42831  14.209  43.587  11.975
77605W        W42832  16.979  34.337   1.774
77606W        W42833  37.062  28.101   4.114
77607W        W42834   9.311  28.550   2.723
77608W        W42835  34.482  35.667  10.374
77609W        W42836  35.218  33.615  11.438
77610W        W42837  29.434   4.373   4.118
77611W        W42838  16.991  42.963   4.372
77612W        W42839   3.419  24.672   3.827
77613W        W42840   7.330  13.913   2.244
77614W        W42841  11.551  12.681  11.047
77615W        W42842   1.918  33.457   4.544
77616W        W42843  12.719  38.977   2.603
77617W        W42844  31.393  34.840   3.767
77618W        W42845  39.549   6.010  14.090
77619W        W42846   5.067  19.510  10.974
77620W        W42847  22.016  34.036   2.577
77621W        W42848  13.050  17.737   0.936
77622W        W42849   2.684  28.540   0.777
77623W        W42850  37.813  43.801  13.439
77624W        W42851  16.384  21.179   4.793
77625W        W42852  10.430  15.654  14.415
77626W        W42853  29.036   4.669  12.901
77627W        W42854  42.617   1.847   2.338
77628W        W42855  17.507  20.406  10.654
77629W        W42856  41.044  13.035   2.246
77630W        W42857  39.280  27.402   4.552
77631W        W42858  18.104   6.436  12.023
77632W        W42859  23.808  32.987  11.806
77633W        W42860   0.221  22.128  11.590
77634W        W42861   9.855   9.471  13.085
77635W        W42862   9.392  15.716  14.364
77636W        W42863  28.542  42.447   0.258
77637W        W42864  39.459   4.120  11.656
77638W        W42865  21.214  26.687  14.710
77639W        W42866  10.807  36.831  13.819
77640W        W42867  19.378  33.535  13.952
77641W        W42868  14.590   8.597  11.218
77642W        W42869  29.057  18.314   1.890
77643W        W42870   7.044  10.227   3.384
77644W        W42871  31.875   9.607  14.724
77645W        W42872  17.612   4.868  11.678
77646W        W42873  18.704  25.118  13.857
77647W        W42874  19.351   0.581   4.808
77648W        W42875  22.412  29.871  14.770
77649W        W42876  42.844  32.155  13.396
77650W        W42877  36.028  13.729   1.764
77651W        W42878  10.200  43.250   4.580
77652W        W42879  30.901  32.936   1.728
77653W        W42880  23.222  40.481  10.369
77654W        W42881  28.975   0.404   3.309
77655W        W42882  10.604  34.044  14.418
77656W        W42883   5.763  10.957  11.121
77657W        W42884  23.705  13.378  12.433
77658W        W42885  31.681  34.914  10.135
77659W        W42886  28.098  14.543  13.313
77660W        W42887  36.552  11.085  12.967
77661W        W42888  16.671  28.113  10.762
77662W        W42889  22.630  41.312   2.648
77663W        W42890   4.452  31.895  13.716
77664W        W42891   8.698  24.728  11.135
77665W        W42892  11.954  13.531  12.651
77666W        W42893  34.024  19.703  13.794
77667W        W42894  44.963  14.544  12.954
77668W        W42895  43.901  43.875  13.792
77669W        W42896  15.612  11.096  12.904
77670W        W42897  25.037  28.200   1.528
77671W        W42898  41.503  38.991   0.387
77672W        W42899   5.610   8.243   0.075
77673W        W42900   2.779   8.642  10.325
77674W        W42901  34.336   6.281   2.186
77675W        W42902  20.173  29.885   3.303
77676W        W42903  31.939  35.949   3.627
77677W        W42904  21.241  14.073  11.081
77678W        W42905  44.990  13.820  12.329
77679W        W42906  43.885   8.857   1.657
77680W        W42907  32.864  21.790   0.221
77681W        W42908  21.788  18.249  12.250
77682W        W42909  18.005  29.918   2.434
77683W        W42910  16.118  18.561   3.702
77684W        W42911   3.768  25.940   0.427
77685W        W42912  39.010  35.716  13.840
77686W        W42913  33.899   2.403   2.241
77687W        W42914  43.915   9.578   4.575
77688W        W42915  12.039  33.952  12.129
77689W        W42916  22.585  16.558  13.341
77690W        W42917  18.725  32.545  14.739
77691W        W42918  38.845  38.107  12.549
77692W        W42919  16.842   4.338   2.238
77693W        W42920   8.405  25.774  12.411
77694W        W42921  39.414  18.264  11.163
77695W        W42922  19.306  33.070   1.257
77696W        W42923  20.321  22.112   3.238
77697W        W42924   1.194   5.795   1.701
77698W        W42925   5.935  17.997   3.236
77699W        W42926  25.010  44.393  14.034
77700W        W42927   7.001  33.823   3.232
77701W        W42928  28.946  20.154   2.202
77702W        W42929   3.669  29.026   3.986
77703W        W42930  35.460   5.200   3.687
77704W        W42931  39.605   0.412   3.671
77705W        W42932  30.711  35.495   4.237
77706W        W42933  14.534  43.904   3.174
77707W        W42934  28.520  26.637  14.427
77708W        W42935  27.174  26.760  11.497
77709W        W42936  44.483  29.172   3.622
77710W        W42937   2.150   5.993  13.906
77711W        W42938  26.109  43.326   2.634
77712W        W42939  34.053  10.278  11.604
77713W        W42940  23.285  26.107  13.912
77714W        W42941   3.751  18.908  11.787
77715W        W42942  27.538   2.706  14.501
77716W        W42943  43.960   0.960   3.126
77717W        W42944  44.741  24.486   1.319
77718W        W42945  38.916   9.748  13.415
77719W        W42946  17.833   3.447  13.868
77720W        W42947  39.885  40.247   3.151
77721W        W42948  15.463  22.130   0.618
77722W        W42949   2.053   3.267   3.722
77723W        W42950  21.797  10.121   3.412
77724W        W42951   5.700  33.061  12.622
77725W        W42952  42.517  44.954   2.734
77726W        W42953  33.378   9.270   4.655
77727W        W42954   0.449  44.624  13.367
77728W        W42955  12.598   2.749   0.373
77729W        W42956  34.664  13.693  13.835
77730W        W42957   0.572  43.419  14.957
77731W        W42958  39.026  21.253   2.351
77732W        W42959  11.776   1.168  12.075
77733W        W42960  15.757  26.913  10.774
77734W        W42961  11.926   3.367   3.694
77735W        W42962  37.938  36.033  14.250
77736W        W42963   8.884  24.031   4.129
77737W        W42964  20.584  42.477  11.443
77738W        W42965  25.082  21.192  13.063
77739W        W42966  31.241  37.034   1.695
77740W        W42967  31.541   8.078  11.531
77741W        W42968  32.192  27.492  12.606
77742W        W42969   8.215  21.060   2.830
77743W        W42970   8.206  23.106   0.490
77744W        W42971  19.015   4.692   4.277
77745W        W42972  37.080  35.827  11.994
77746W        W42973  44.625  20.148  12.019
77747W        W42974  12.082  42.832   0.497
77748W        W42975  25.677  21.291  10.927
77749W        W42976  18.605  44.544   0.807
77750W        W42977  42.977  41.880  11.145
77751W        W42978  41.854  44.827   3.863
77752W        W42979   4.439  27.427   4.088
77753W        W42980  41.072   6.795   1.602
77754W        W42981   7.904  35.852  12.585
77755W        W42982   0.394   6.022  11.128
77756W        W42983  40.431  16.557  10.152
77757W        W42984  28.980  34.380   5.124
77758W        W42985  35.077  37.895   9.850
77759W        W42986  26.472  16.619  12.008
77760W        W42987  11.403  17.201  10.359
77761W        W42988  44.251  29.469  13.032
77762W        W42989   6.453  26.469   4.162
77763W        W42990  37.159   4.040  13.135
77764W        W42991   7.364  17.762  12.665
77765W        W42992  31.647  40.917   3.222
77766W        W42993   7.998  39.449  12.408
77767W        W42994  13.530  43.543  13.466
77768W        W42995   8.423  24.749  10.691
77769W        W42996  21.617  41.876  13.364
77770W        W42997  18.744  41.777   2.151
77771W        W42998  17.631  31.748   2.207
77772W        W42999  28.472  28.466   0.738
77773W        W43000  40.806  23.296  13.499
77774W        W43001   0.810  24.374   4.551
77775W        W43002  28.911   0.859   0.409
77776W        W43003   0.027  43.988   5.495
77777W        W43004  38.396  28.251   0.972
77778W        W43005  22.820   6.793  13.578
77779W        W43006   2.018  31.354   3.178
77780W        W43007  17.296  19.507  12.139
77781W        W43008   3.908  11.271   2.681
77782W        W43009  29.559  28.418   0.357
77783W        W43010  37.927  17.445   3.330
77784W        W43011  10.969  13.731  12.589
77785W        W43012  28.542  27.042  10.274
77786W        W43013  21.735  44.371   3.105
77787W        W43014  21.268   1.715   3.665
77788W        W43015  31.849   4.755  12.561
77789W        W43016  44.605  29.078   4.473
77790W        W43017  22.112  28.702   3.777
77791W        W43018  38.608  29.442  12.687
77792W        W43019  41.701  19.929   0.018
77793W        W43020  15.187  35.093  12.966
77794W        W43021  14.995  22.601   3.591
77795W        W43022  41.344   2.216  13.522
77796W        W43023   6.884  40.339  13.561
77797W        W43024  37.957   9.824  10.550
77798W        W43025  37.335   9.738   3.670
77799W        W43026  36.979  26.459   0.704
77800W        W43027  34.294  12.759   0.994
77801W        W43028  10.433  26.493  14.574
77802W        W43029  17.702   2.610   4.747
77803W        W43030  13.414   5.937   2.124
77804W        W43031  20.633  43.895   3.217
77805W        W43032  32.247  35.220  11.725
77806W        W43033   3.702  18.148   4.018
77807W        W43034  28.343  13.116   0.813
77808W        W43035  40.885  35.112  14.556
77809W        W43036  18.342   5.268  10.748
77810W        W43037  12.291  29.964  10.557
77811W        W43038  28.248  19.850   3.883
77812W        W43039  35.330  27.552   4.259
77813W        W43040  10.149  41.243   2.367
77814W        W43041  16.710  42.771   0.126
77815W        W43042   5.426  44.612  12.677
77816W        W43043   6.495   6.930   5.005
77817W        W43044  40.967  32.497  13.820
77818W        W43045  30.446  17.178  11.816
77819W        W43046   0.956   8.875   4.861
77820W        W43047  18.650  21.813   2.174
77821W        W43048  23.066  27.768  10.687
77822W        W43049  35.353   0.171  10.802
77823W        W43050  17.424  27.898  12.055
77824W        W43051  33.454  41.090   1.754
77825W        W43052   8.906   5.044   1.359
77826W        W43053  14.429   7.279   2.230
77827W        W43054  38.116  35.857  14.710
77828W        W43055  10.886  29.212  13.570
77829W        W43056   9.354  38.393   4.122
77830W        W43057  22.492   9.526  12.154
77831W        W43058   8.582  35.410  13.991
77832W        W43059  17.053  25.159  11.200
77833W        W43060  44.831  11.134   1.409
77834W        W43061  17.452   4.638   3.435
77835W        W43062  17.935   3.409   0.012
77836W        W43063  40.558  32.521  12.167
77837W        W43064  43.974  32.190  12.383
77838W        W43065  12.430   9.479  13.466
77839W        W43066  14.540  11.741   0.033
77840W        W43067  40.532   7.408   2.412
77841W        W43068  33.135  21.464   4.745
77842W        W43069  12.081  13.097  12.208
77843W        W43070  24.860  38.811  13.584
77844W        W43071   7.216  17.021   0.257
77845W        W43072  14.563  28.311  13.442
77846W        W43073  29.202  36.239   5.355
77847W        W43074  12.962  13.833   0.847
77848W        W43075   4.985   2.251   2.861
77849W        W43076   5.213  42.097  13.955
77850W        W43077  30.200  24.754  11.702
77851W        W43078   7.152  43.794  11.729
77852W        W43079  41.455   6.673   1.223
77853W        W43080  19.102  10.700  11.133
77854W        W43081  14.231   1.510   1.856
77855W        W43082  32.427   6.992   0.485
77856W        W43083  14.011  33.112  13.921
77857W        W43084   0.429   7.161  13.740
77858W        W43085   4.599  13.839   4.696
77859W        W43086  15.857  15.722  14.934
77860W        W43087  34.357   3.372   1.387
77861W        W43088  23.791  44.322   0.989
77862W        W43089   8.962  29.006  11.026
77863W        W43090  12.997   6.258   0.905
77864W        W43091  44.969   6.650   1.186
77865W        W43092  14.787  23.610   2.928
77866W        W43093   0.554   4.902   4.293
77867W        W43094  14.730  25.698   2.356
77868W        W43095  23.585   4.199  14.373
77869W        W43096  16.252  34.175  14.479
77870W        W43097   9.172  36.152   4.691
77871W        W43098   7.031   1.892  12.210
77872W        W43099   9.728  18.155  12.513
77873W        W43100  23.219  23.661   3.578
77874W        W43101   6.831  21.078   4.849
77875W        W43102  28.459  30.460  14.959
77876W        W43103  36.492  14.616   4.658
77877W        W43104   6.007  34.330  12.014
77878W        W43105  10.755  41.452  11.191
77879W        W43106  38.074  15.972  12.676
77880W        W43107  31.448  14.870  14.028
77881W        W43108  22.779  15.622  14.920
77882W        W43109  21.520  29.963  14.244
77883W        W43110  13.505  40.526  12.036
77884W        W43111  40.543  25.335   3.672
77885W        W43112  15.069  14.289   1.727
77886W        W43113  21.716  22.519   0.458
77887W        W43114  42.843  43.260   0.875
77888W        W43115   7.770   9.524  11.705
77889W        W43116  20.523  20.474   4.390
77890W        W43117   8.873   8.996  11.663
77891W        W43118  23.172  15.079  13.277
77892W        W43119  44.047   0.393  13.102
77893W        W43120  15.335  44.816  13.423
77894W        W43121  18.523  34.376  13.005
77895W        W43122  18.871  44.222  14.995
77896W        W43123  36.270  13.816   2.215
77897W        W43124  18.235  30.248   2.818
77898W        W43125  40.360  29.744   4.283
77899W        W43126  43.527  22.589  14.780
77900W        W43127  41.582  21.539   1.340
77901W        W43128   6.307   7.165  10.325
77902W        W43129  30.645   6.620   3.331
77903W        W43130  28.685  32.349  14.894
77904W        W43131  25.575  17.890   5.106
77905W        W43132  39.429  12.592  13.197
77906W        W43133   0.355  13.506   1.335
77907W        W43134  17.380  19.782  13.699
77908W        W43135   3.432  23.203  13.765
77909W        W43136  31.133  42.573   0.885
77910W        W43137  21.274  10.678  13.505
77911W        W43138  22.129  21.800   3.708
77912W        W43139  20.177  26.044  10.379
77913W        W43140  39.014  13.087  12.502
77914W        W43141   5.046   2.677   3.789
77915W        W43142  21.498   7.974   3.151
77916W        W43143  21.758  15.708  12.025
77917W        W43144  16.847   6.150  13.108
77918W        W43145  41.597  25.930  11.183
77919W        W43146  42.553  12.280  10.632
77920W        W43147  12.234  17.766   1.962
77921W        W43148   8.130  25.550  13.986
77922W        W43149  34.507  23.078   4.141
77923W        W43150   1.232  18.745   2.219
77924W        W43151  22.707   0.958   1.269
77925W        W43152   7.731   9.311  13.304
77926W        W43153   9.325  38.397  11.178
77927W        W43154  36.111   6.314  10.720
77928W        W43155  42.802  11.453  14.429
77929W        W43156   2.759  24.873  11.004
77930W        W43157  15.302  40.493   1.440
77931W        W43158  19.163  42.973   0.325
77932W        W43159   5.400   6.923   3.837
77933W        W43160  20.811   7.129  11.891
77934W        W43161  40.377   0.488   0.270
77935W        W43162  22.544  13.809   1.675
77936W        W43163   0.899  14.677  13.027
77937W        W43164  40.175  40.613   0.859
77938W        W43165  38.376  44.599  12.994
77939W        W43166  44.912   4.754  13.095
77940W        W43167  36.752  16.102   0.418
77941W        W43168  27.609  10.948  12.663
77942W        W43169  22.456  32.698   2.713
77943W        W43170   3.810  41.771   1.487
77944W        W43171  38.287  28.455   0.479
77945W        W43172  17.101   5.920   4.509
77946W        W43173  35.337  20.605   1.944
77947W        W43174  13.672  13.103  14.071
77948W        W43175  36.691  27.638  11.611
77949W        W43176  32.578   2.271  10.681
77950W        W43177  21.256  26.265   2.339
77951W        W43178  13.658  14.787  14.089
77952W        W43179  26.402  22.652   3.713
77953W        W43180  44.514  18.566   3.534
77954W        W43181   3.429  16.342   1.844
77955W        W43182  39.801  16.749   0.081
77956W        W43183  39.893  36.360  14.538
77957W        W43184  19.126  35.890  12.549
77958W        W43185  31.766  20.178   1.828
77959W        W43186  22.960  18.110  13.587
77960W        W43187  36.086  22.657  10.375
77961W        W43188  24.464  27.677  13.512
77962W        W43189  10.590   9.097  14.744
77963W        W43190  37.854  16.787   2.293
77964W        W43191  12.252  33.588   1.404
77965W        W43192   2.980  33.770  12.024
77966W        W43193   4.273  28.951   0.203
77967W        W43194  42.057  20.157   9.737
77968W        W43195   8.535  38.336  12.101
77969W        W43196  36.304  30.329   0.842
77970W        W43197  11.772  13.360  11.869
77971W        W43198  20.009  13.810  11.505
77972W        W43199   2.899  23.609  12.153
77973W        W43200   9.805  38.542   3.887
77974W        W43201   6.587  20.505  12.104
77975W        W43202  39.672  16.529   2.488
77976W        W43203  12.621   1.119   3.791
77977W        W43204  16.174   6.510  13.773
77978W        W43205  39.892  36.028  11.081
77979W        W43206  32.440  32.627  14.380
77980W        W43207  14.205  19.226  14.336
77981W        W43208  36.748  26.462  11.113
77982W        W43209  14.906  27.579   4.249
77983W        W43210  35.274  34.558  14.402
77984W        W43211  41.491  38.030  10.586
77985W        W43212   5.488  12.763   4.305
77986W        W43213  39.182  42.820   0.723
77987W        W43214  33.336  11.160  13.842
77988W        W43215  36.395  18.007  14.913
77989W        W43216  31.651  24.660  12.515
77990W        W43217   7.441  13.215  13.018
77991W        W43218  39.337  38.829   0.873
77992W        W43219  36.962   3.827  12.686
77993W        W43220   7.833  33.577   3.236
77994W        W43221   4.622   4.861   1.449
77995W        W43222   2.408   4.792  13.097
77996W        W43223   5.068  13.127   4.993
77997W        W43224  34.141  20.282  13.148
77998W        W43225  25.571  15.128  12.623
77999W        W43226  37.483  15.590   2.772
78000W        W43227  40.540  24.267  14.438
78001W        W43228   4.112  43.675   1.406
78002W        W43229  38.053  14.723  13.067
78003W        W43230  29.524  32.716  12.100
78004W        W43231   0.936  41.560  11.304
78005W        W43232  11.654  16.170   4.221
78006W        W43233  10.690  26.227  12.570
78007W        W43234   9.724   8.697   0.806
78008W        W43235  21.547   4.885   4.257
78009W        W43236  39.958  23.807  13.321
78010W        W43237   0.774  42.366   0.333
78011W        W43238  18.701   8.828   0.297
78012W        W43239  43.227  28.672  13.521
78013W        W43240  18.783   8.303   1.478
78014W        W43241  18.766  44.151   0.502
78015W        W43242  28.222  20.303   3.637
78016W        W43243  42.852  20.843   1.103
78017W        W43244  43.692  43.429   0.226
78018W        W43245  44.740  36.322  14.849
78019W        W43246  12.887  28.151   3.279
78020W        W43247   0.013   7.669  10.525
78021W        W43248   9.364  30.387   5.017
78022W        W43249   3.834   7.214  12.062
78023W        W43250  21.231   4.030   2.315
78024W        W43251  11.203   4.802  10.160
78025W        W43252   4.850  17.555  14.301
78026W        W43253  24.523   7.454   2.765
78027W        W43254  29.281  19.058  12.015
78028W        W43255  41.617  42.466  12.546
78029W        W43256  44.522  19.052  14.543
78030W        W43257  39.906  14.317   2.742
78031W        W43258   3.723  31.653   1.431
78032W        W43259   2.480   1.978  11.536
78033W        W43260  14.766  39.384  11.878
78034W        W43261   5.298   3.381   2.465
78035W        W43262  39.477  21.149  11.761
78036W        W43263  27.025  19.766   4.122
78037W        W43264  20.241   4.741   3.710
78038W        W43265  19.996  21.591  10.427
78039W        W43266  20.503  38.927  10.988
78040W        W43267  30.462  22.999   0.377
78041W        W43268  10.293  34.049   4.001
78042W        W43269  38.111   7.700  13.526
78043W        W43270  27.155  15.083  12.664
78044W        W43271   2.767  32.589  14.395
78045W        W43272   4.132  14.261  12.600
78046W        W43273  36.144  16.133  14.815
78047W        W43274   4.237   7.672   4.342
78048W        W43275  38.824  31.952   4.955
78049W        W43276  37.406   8.143  13.405
78050W        W43277  11.391  21.187  12.068
78051W        W43278  44.573  14.216   1.781
78052W        W43279  40.858   4.926  13.453
78053W        W43280  12.159  36.308   1.488
78054W        W43281  43.007  16.960   0.318
78055W        W43282  29.064   2.827   1.862
78056W        W43283  25.111  23.540   2.626
78057W        W43284  24.420   8.789   1.206
78058W        W43285   0.236  28.278  13.124
78059W        W43286  30.735  43.306  13.810
78060W        W43287  43.909  43.145   2.873
78061W        W43288  35.129  13.891   0.265
78062W        W43289  40.193  14.361  12.018
78063W        W43290   8.911  42.279   1.856
78064W        W43291   0.928  34.078  14.865
78065W        W43292  34.552  25.632   2.302
78066W        W43293  17.660  14.533   3.651
78067W        W43294  22.568  29.347  11.189
78068W        W43295  36.767  24.636  11.241
78069W        W43296  37.758  10.909   4.712
78070W        W43297  14.411  15.669   2.419
78071W        W43298  12.604  22.823   4.129
78072W        W43299   0.484   8.938  13.903
78073W        W43300   2.196  31.594  10.593
78074W        W43301   7.766  18.511  12.542
78075W        W43302  43.345  16.973  13.510
78076W        W43303  37.096  29.194  11.122
78077W        W43304  24.104  23.664  12.625
78078W        W43305  22.264   7.138   1.306
78079W        W43306  26.179  16.213  11.395
78080W        W43307  24.574   8.416  11.601
78081W        W43308  25.735   8.119  12.086
78082W        W43309  14.942  40.382   1.813
78083W        W43310  22.062  39.358  10.768
78084W        W43311  12.642  22.190  11.056
78085W        W43312  26.473  16.068   4.315
78086W        W43313  29.990  34.075   0.479
78087W        W43314   2.000  37.576   0.847
78088W        W43315  26.711  12.682  13.438
78089W        W43316  36.800  36.166   2.738
78090W        W43317   5.949  14.632  11.642
78091W        W43318  18.285  41.898  10.675
78092W        W43319  25.178  15.369   1.504
78093W        W43320   4.762  39.861  14.029
78094W        W43321  28.146  13.023  11.881
78095W        W43322  14.895   4.837  10.271
78096W        W43323   4.534  43.963  14.921
78097W        W43324   3.941  29.281  11.199
78098W        W43325   6.543  23.208  14.467
78099W        W43326  11.581  19.762   1.383
78100W        W43327  21.640  16.210  13.796
78101W        W43328   9.401  27.254  12.396
78102W        W43329  27.074  20.988   1.599
78103W        W43330  18.799  32.462   1.377
78104W        W43331  20.212  44.794  11.454
78105W        W43332  14.997   6.970  11.131
78106W        W43333  24.165  15.339  10.612
78107W        W43334  13.205  14.232  11.253
78108W        W43335  24.570   5.657   3.179
78109W        W43336  26.222   2.260   3.199
78110W        W43337   5.398  21.655   1.118
78111W        W43338  24.284  39.240  10.345
78112W        W43339  42.586  34.036   0.348
78113W        W43340  31.393   7.857  11.961
78114W        W43341  20.324  30.538  14.568
78115W        W43342   1.067  44.514  14.944
78116W        W43343  36.729  26.925  10.583
78117W        W43344  28.754  19.062  13.196
78118W        W43345   8.631  21.177   4.282
78119W        W43346   1.364  26.091  11.872
78120W        W43347  15.072  33.447  11.902
78121W        W43348  11.121  10.373   2.272
78122W        W43349  35.848  36.325   1.330
78123W        W43350  10.533  25.507  10.706
78124W        W43351   4.911   5.679  12.091
78125W        W43352  19.688  32.566  11.594
78126W        W43353  42.070  40.916   3.401
78127W        W43354   5.633  26.986  12.904
78128W        W43355  17.552  36.567  11.607
78129W        W43356  11.783  40.281   1.580
78130W        W43357   2.089  22.442   0.844
78131W        W43358  12.136  27.507  13.998
78132W        W43359  31.412  37.319  12.545
78133W        W43360  38.329  40.739   1.860
78134W        W43361   7.028  27.688   3.149
78135W        W43362   6.716   7.201  13.860
78136W        W43363  29.112  32.899   2.258
78137W        W43364  42.265  18.319  12.120
78138W        W43365   6.652  39.895  10.704
78139W        W43366  35.476  41.476   4.075
78140W        W43367  37.087   1.495   1.344
78141W        W43368  32.884  43.465   3.989
78142W        W43369  39.044  28.129   3.310
78143W        W43370   1.829   1.985  12.879
78144W        W43371  19.153   1.791  10.705
78145W        W43372  22.140  20.704   3.998
78146W        W43373  36.040   5.668  11.969
78147W        W43374  22.515  41.370   3.147
78148W        W43375  25.987   5.207  11.009
78149W        W43376   9.271  26.797  11.715
78150W        W43377  12.701  42.086  13.820
78151W        W43378  21.633  12.180   4.854
78152W        W43379  14.391  13.077   1.453
78153W        W43380  22.524   5.707  12.943
78154W        W43381  40.601  17.457  13.872
78155W        W43382   8.957   4.247  11.083
78156W        W43383  21.599  37.079  13.519
78157W        W43384  28.691  13.155   3.220
78158W        W43385  18.162   2.981   2.783
78159W        W43386  21.776  15.576  12.966
78160W        W43387  31.155  18.656  14.540
78161W        W43388  30.887  35.085  12.572
78162W        W43389  44.205  34.822  11.609
78163W        W43390  41.965  43.652  11.144
78164W        W43391  33.580  12.190   4.252
78165W        W43392   8.668  33.247   0.368
78166W        W43393  22.529   7.352   3.752
78167W        W43394  42.970  20.399  12.955
78168W        W43395  43.262  26.027   4.139
78169W        W43396   0.923  25.655   2.581
78170W        W43397  28.632  21.145   0.911
78171W        W43398  40.816  43.251  14.690
78172W        W43399  38.291  32.971  11.606
78173W        W43400  32.998  34.068   3.252
78174W        W43401  11.867  31.742  14.010
78175W        W43402  23.644  33.345   1.557
78176W        W43403  25.083  24.553   4.220
78177W        W43404  42.037  44.765  11.890
78178W        W43405   4.337   0.277  14.027
78179W        W43406  19.832   6.342   3.643
78180W        W43407  19.329  21.669   0.610
78181W        W43408  44.840  16.537  12.646
78182W        W43409  24.426  36.874   4.797
78183W        W43410  27.069  34.009   0.480
78184W        W43411   9.327  23.666  11.684
78185W        W43412  25.522  40.046  11.076
78186W        W43413  20.395  32.028  12.241
78187W        W43414  39.273  43.541   0.340
78188W        W43415  29.599  42.613   4.172
78189W        W43416   3.354   7.298   0.720
78190W        W43417  22.611  43.529  12.486
78191W        W43418  44.803  42.731   4.154
78192W        W43419  29.731  39.939   1.683
78193W        W43420  39.789  37.194  11.572
78194W        W43421  24.201  16.139  14.495
78195W        W43422  18.136  34.948  11.521
78196W        W43423  27.188  36.109  11.972
78197W        W43424  32.171  26.752   2.584
78198W        W43425  23.482  18.339   1.945
78199W        W43426  10.232  40.282  14.507
78200W        W43427  21.271  41.416   2.781
78201W        W43428  13.715  19.376  11.612
78202W        W43429   0.901   5.746  12.560
78203W        W43430  29.404  20.744   1.819
78204W        W43431  29.851  16.771   0.413
78205W        W43432  22.970  25.128   3.278
78206W        W43433  36.557  19.725  11.998
78207W        W43434  11.637   1.919  14.042
78208W        W43435  28.370  41.514   3.446
78209W        W43436  10.940  31.551  14.957
78210W        W43437  34.250  28.076  14.337
78211W        W43438   6.568  29.391  11.294
78212W        W43439  15.301   7.392  14.507
78213W        W43440  39.947  35.987  10.550
78214W        W43441   5.672  14.143   4.807
78215W        W43442  28.308  44.088  14.719
78216W        W43443   5.961   3.897   2.216
78217W        W43444  44.812  41.639  13.952
78218W        W43445   6.631   8.649   4.949
78219W        W43446  43.881  24.203  11.154
78220W        W43447  31.307  16.382  11.138
78221W        W43448  12.032   6.244  13.036
78222W        W43449  41.462  30.176  13.892
78223W        W43450   7.565  20.142   2.348
78224W        W43451  43.817  38.930  14.854
78225W        W43452  42.391  40.342   4.595
78226W        W43453   8.369  24.977  12.006
78227W        W43454  34.507   6.860  13.780
78228W        W43455  36.401   5.506  14.497
78229W        W43456  35.578   8.473   3.245
78230W        W43457   5.865  31.433  12.388
78231W        W43458  39.728  11.432   2.815
78232W        W43459  27.825  23.783  11.798
78233W        W43460   2.960   1.986   4.273
78234W        W43461   4.466  26.433   3.676
78235W        W43462   0.556  12.255  11.645
78236W        W43463  17.769  11.803   2.382
78237W        W43464  30.388   1.124  12.901
78238W        W43465   8.641  44.377  11.092
78239W        W43466  15.322   9.879   3.558
78240W        W43467   8.094  11.094  14.844
78241W        W43468  17.814   7.111  14.918
78242W        W43469  13.263  44.991  10.726
78243W        W43470   0.240   7.207  10.495
78244W        W43471   6.346   9.406  10.685
78245W        W43472  18.174  19.044   4.166
78246W        W43473  34.260  14.263  12.082
78247W        W43474  28.203  40.725   1.953
78248W        W43475  14.721  17.578   4.764
78249W        W43476  34.927  21.130   4.478
78250W        W43477  41.914   4.423   2.645
78251W        W43478   1.831  12.893  12.447
78252W        W43479  38.004  29.460  10.357
78253W        W43480   8.727   1.644  14.919
78254W        W43481  11.263  19.011   2.137
78255W        W43482   2.547  25.612   0.539
78256W        W43483  35.589   0.472   2.829
78257W        W43484  33.568  13.406   2.579
78258W        W43485  26.801  41.347  12.994
78259W        W43486  11.090  42.396  13.880
78260W        W43487  27.572  39.838   0.751
78261W        W43488  10.748  38.090   3.556
78262W        W43489  30.867  10.882   3.343
78263W        W43490  13.412  11.407  14.924
78264W        W43491  33.645  30.760  13.964
78265W        W43492   1.402  16.946  11.923
78266W        W43493  36.090  22.074   1.231
78267W        W43494   8.843  23.733   3.696
78268W        W43495   8.740  40.413   2.581
78269W        W43496  38.864   8.654   1.872
78270W        W43497   9.764  10.817  13.415
78271W        W43498   5.555  44.887  12.249
78272W        W43499   5.791  32.964   1.704
78273W        W43500   1.892   2.480   2.679
78274W        W43501  38.134   7.855   3.990
78275W        W43502  25.127  24.512   2.361
78276W        W43503  12.547   5.411   0.439
78277W        W43504  24.028  20.938   1.424
78278W        W43505   5.148  22.593  14.708
78279W        W43506  30.704   5.502   2.393
78280W        W43507  34.733  29.005   0.955
78281W        W43508  31.506  36.219  13.372
78282W        W43509  10.315  40.519   3.429
78283W        W43510  23.701  25.809   3.241
78284W        W43511  16.268  33.603   3.161
78285W        W43512  18.030   3.993   2.942
78286W        W43513  41.319  40.349   3.190
78287W        W43514  11.900  36.641   0.225
78288W        W43515  28.546  10.547   0.892
78289W        W43516  36.262  16.573   3.669
78290W        W43517  36.853  21.233  14.232
78291W        W43518   7.743  29.732  14.277
78292W        W43519   8.140  41.563   1.276
78293W        W43520   7.229   6.337   2.439
78294W        W43521  41.696  38.509   3.121
78295W        W43522  41.053   0.925   4.856
78296W        W43523  17.115  19.524   1.366
78297W        W43524  14.778  41.674   5.040
78298W        W43525   6.329  33.133  13.278
78299W        W43526  16.152  26.124   5.133
78300W        W43527  15.378  29.631  13.883
78301W        W43528  25.869   4.698  12.772
78302W        W43529   9.848  25.815  10.145
78303W        W43530  12.422  19.529   4.933
78304W        W43531   5.711  18.952   3.620
78305W        W43532   0.886  16.348   4.201
78306W        W43533  16.142   7.145  14.775
78307W        W43534  23.158  21.616   4.370
78308W        W43535  32.707  12.598   4.936
78309W        W43536  26.143  23.279   0.430
78310W        W43537  20.443   9.117   1.048
78311W        W43538  11.267   5.276   1.710
78312W        W43539  14.749  13.762   3.857
78313W        W43540  11.737  21.724  11.065
78314W        W43541  44.351  14.076  11.167
78315W        W43542   4.400  18.668   1.305
78316W        W43543  28.186   6.920   4.614
78317W        W43544  11.602  43.936  12.887
78318W        W43545  36.898  14.780   0.868
78319W        W43546  36.774  30.398  13.390
78320W        W43547  40.311  42.888   2.639
78321W        W43548  35.011  10.906  13.317
78322W        W43549  18.386  13.759   3.703
78323W        W43550  42.796   7.451   1.000
78324W        W43551  26.993   4.059  14.292
78325W        W43552   3.523  34.674   0.299
78326W        W43553  27.541  32.227  11.160
78327W        W43554  21.462  29.151  13.016
78328W        W43555  25.966  17.171   3.267
78329W        W43556   8.380  43.923   4.928
78330W        W43557   0.454  14.226   0.521
78331W        W43558  25.588  42.297  13.822
78332W        W43559   9.368  33.328   5.612
78333W        W43560  33.045  11.106  12.115
78334W        W43561   8.986  17.259   1.219
78335W        W43562   5.937  42.986  12.385
78336W        W43563  27.214  12.661  13.546
78337W        W43564  15.794  42.017  13.920
78338W        W43565  27.153  36.516  13.886
78339W        W43566  22.508  30.542  10.695
78340W        W43567  37.546   1.859   2.876
78341W        W43568   6.962  26.556   4.250
78342W        W43569  28.122   1.271   4.109
78343W        W43570   1.947  42.340   2.244
78344W        W43571  44.593  13.369  12.626
78345W        W43572  20.463   5.666   4.192
78346W        W43573   5.382  35.873  13.016
78347W        W43574   1.665  19.831  10.799
78348W        W43575   1.035  43.504  14.672
78349W        W43576   1.130  43.898  14.320
78350W        W43577  20.205  11.412   3.564
78351W        W43578  23.491  23.648  12.599
78352W        W43579  31.593  44.998  13.639
78353W        W43580   8.751  30.801   4.731
78354W        W43581  10.969  11.300   3.085
78355W        W43582  22.054   6.822  11.053
78356W        W43583  15.099  42.598  10.909
78357W        W43584  44.673  37.863  13.368
78358W        W43585  17.244  43.308   2.270
78359W        W43586  26.022   6.435  12.348
78360W        W43587  23.061  17.362   0.864
78361W        W43588  41.445  25.299  14.410
78362W        W43589  27.975  27.669   2.872
78363W        W43590  18.609  12.298  11.600
78364W        W43591   3.779  40.314   1.614
78365W        W43592  36.145   3.271  13.425
78366W        W43593  39.060  18.306   1.997
78367W        W43594  40.472  32.595  13.686
78368W        W43595  36.342  32.047   3.349
78369W        W43596  32.574  15.109  12.519
78370W        W43597  18.335  20.144   3.639
78371W        W43598   4.283  15.800  12.199
78372W        W43599  18.801   0.849   0.870
78373W        W43600  42.428  23.151  10.962
78374W        W43601  15.457  14.135  14.542
78375W        W43602  28.925  28.247  12.218
78376W        W43603  39.544  41.821   1.790
78377W        W43604  24.733  36.524  10.892
78378W        W43605  43.339   0.868  10.901
78379W        W43606  23.987  24.483   2.677
78380W        W43607  21.544   3.055  11.283
78381W        W43608  18.404  15.540   2.859
78382W        W43609  17.674  10.989   2.641
78383W        W43610   0.798   3.116  14.286
78384W        W43611   5.003  27.800  13.532
78385W        W43612  27.963   5.983  13.442
78386W        W43613  24.999  33.492  11.577
78387W        W43614  32.283  30.701   3.661
78388W        W43615  34.628  31.072   3.693
78389W        W43616  11.934  24.167   1.820
78390W        W43617  44.765  31.434  14.792
78391W        W43618  34.516  34.657  11.289
78392W        W43619  32.055  21.526  13.303
78393W        W43620   3.962  28.701   3.292
78394W        W43621  14.162  39.359   1.347
78395W        W43622  31.819  37.598   2.804
78396W        W43623   2.270  34.791   1.836
78397W        W43624  21.539  32.866  14.708
78398W        W43625   2.552  25.238   0.190
78399W        W43626  19.228  36.020   1.848
78400W        W43627  32.480  21.944  13.941
78401W        W43628  32.572  26.363   1.236
78402W        W43629  24.113  38.909  10.731
78403W        W43630  43.966  43.214  12.265
78404W        W43631   5.772  39.770  14.091
78405W        W43632  29.925   3.368  10.919
78406W        W43633  26.185  13.541   3.866
78407W        W43634  15.092  30.576  11.460
78408W        W43635  12.644  22.653   2.162
78409W        W43636  41.994   3.970  12.812
78410W        W43637   5.144   5.286  11.660
78411W        W43638   2.686  41.390   0.740
78412W        W43639  40.377  37.010  12.100
78413W        W43640   0.748  44.544   2.813
78414W        W43641   9.126  26.399   4.516
78415W        W43642  41.061  20.463   3.704
78416W        W43643  20.546  34.681   3.732
78417W        W43644  25.966   8.752  13.670
78418W        W43645  43.772   6.198  11.189
78419W        W43646   5.303  25.613  14.502
78420W        W43647  17.115  32.330   2.695
78421W        W43648  14.370   2.956  14.367
78422W        W43649  22.943   8.213   0.672
78423W        W43650  41.574  39.546  12.800
78424W        W43651  13.523  35.899   3.772
78425W        W43652   8.866  13.654   1.127
78426W        W43653  15.960  38.926   2.403
78427W        W43654  38.100   2.428   2.858
78428W        W43655  42.507  36.094   4.704
78429W        W43656   8.836   8.470   4.632
78430W        W43657   7.204  31.994  13.877
78431W        W43658   5.481   8.234  11.524
78432W        W43659  41.571   2.663   1.696
78433W        W43660  19.704  24.101  14.756
78434W        W43661  41.099  40.507  11.668
78435W        W43662  12.824  29.055   4.553
78436W        W43663  18.824   5.396   0.004
78437W        W43664  25.951  35.649  14.327
78438W        W43665   2.974  23.134   4.709
78439W        W43666   3.018   5.947   3.094
78440W        W43667  38.906  19.964   3.263
78441W        W43668   4.728  24.118  11.610
78442W        W43669  22.192  15.596   1.692
78443W        W43670  13.505  40.815  14.328
78444W        W43671  35.853  37.534  10.315
78445W        W43672  24.938  40.954  12.074
78446W        W43673  12.143  21.243  14.997
78447W        W43674  44.345  43.820   3.449
78448W        W43675   7.275  24.394   1.351
78449W        W43676   9.776  26.725  13.495
78450W        W43677  12.241  34.859  13.360
78451W        W43678  38.244   4.017   3.150
78452W        W43679   7.832   5.767  13.859
78453W        W43680  15.036  31.210   3.792
78454W        W43681   9.773  37.568  12.376
78455W        W43682  10.806  10.105  13.908
78456W        W43683  30.687  28.584  11.653
78457W        W43684   1.429   4.157  13.813
78458W        W43685  30.591  29.407   2.185
78459W        W43686  43.837   2.781  12.132
78460W        W43687  26.660  15.242   1.582
78461W        W43688  42.788  33.951   2.908
78462W        W43689  37.431  13.152   5.052
78463W        W43690  24.018  14.220   3.477
78464W        W43691   7.222  25.625  13.334
78465W        W43692  41.279  38.711  11.443
78466W        W43693   5.222  20.995  14.738
78467W        W43694  24.972  30.978   2.249
78468W        W43695   1.362  13.352  12.138
78469W        W43696  30.472  44.874   2.667
78470W        W43697  32.320  43.295   1.798
78471W        W43698  12.670  28.613  14.341
78472W        W43699   2.285  26.934  12.425
78473W        W43700  28.599   1.513  10.921
78474W        W43701  17.799  23.606   2.195
78475W        W43702  19.078  19.619   3.492
78476W        W43703  36.725  11.996  11.625
78477W        W43704  15.346   2.074   1.287
78478W        W43705  31.555  24.506   3.903
78479W        W43706   4.969  33.861   0.557
78480W        W43707  20.455  23.031  13.580
78481W        W43708   4.731  15.312   2.146
78482W        W43709  24.405  44.707   2.135
78483W        W43710  25.582   6.880  13.356
78484W        W43711   5.244   0.492  13.847
78485W        W43712  40.945   0.293   1.562
78486W        W43713  17.276  22.093   4.005
78487W        W43714   7.985  10.670  13.485
78488W        W43715  28.208  16.047   2.888
78489W        W43716  11.209  23.115  10.834
78490W        W43717  16.283  43.989   0.803
78491W        W43718  33.355   5.638   2.927
78492W        W43719  32.484  43.331   0.706
78493W        W43720   8.531  31.508   2.112
78494W        W43721  29.344  31.110   4.811
78495W        W43722  22.068  41.780  14.993
78496W        W43723  38.905  28.466   4.169
78497W        W43724   2.406  39.413   2.455
78498W        W43725  41.503  33.329  11.562
78499W        W43726  25.129  19.748  14.071
78500W        W43727  20.302  12.182  14.444
78501W        W43728  18.626  33.440  12.306
78502W        W43729   6.285  30.392   2.575
78503W        W43730  30.544  25.508  10.267
78504W        W43731  35.854   3.392   1.198
78505W        W43732   8.500   3.341   4.124
78506W        W43733  27.285  27.191   3.139
78507W        W43734   0.991   4.939   0.241
78508W        W43735   6.335  21.493  11.204
78509W        W43736  33.388  13.659  14.430
78510W        W43737  26.044  35.023   2.464
78511W        W43738  23.775   5.172   1.196
78512W        W43739  29.395  14.410  11.864
78513W        W43740  25.250  25.652   5.130
78514W        W43741  33.944  21.109   2.690
78515W        W43742  14.942   2.582  14.938
78516W        W43743  31.518   0.904  10.932
78517W        W43744   6.602  10.579  14.287
78518W        W43745  28.664  11.593   4.486
78519W        W43746  20.134   9.088   4.113
78520W        W43747   0.238  36.673   3.221
78521W        W43748  12.684   3.189  14.637
78522W        W43749  34.377  25.450  13.953
78523W        W43750  42.478  25.998   2.136
78524W        W43751  43.005  32.009   0.826
78525W        W43752  29.000  26.505   3.532
78526W        W43753  14.122  19.162  11.830
78527W        W43754  41.315  37.446  14.479
78528W        W43755  35.797  44.260   0.755
78529W        W43756  36.869  34.062  12.577
78530W        W43757  10.338   3.407   4.359
78531W        W43758  12.190  18.656  11.208
78532W        W43759  16.278  34.331  11.428
78533W        W43760  19.226  32.171   4.635
78534W        W43761  11.368  34.832   3.707
78535W        W43762   6.216  25.952   0.257
78536W        W43763  12.131  16.749  14.778
78537W        W43764  17.310  35.131  13.858
78538W        W43765  34.014  36.242   4.134
78539W        W43766  36.604  29.983  13.141
78540W        W43767   6.259  13.106  13.877
78541W        W43768  15.869  11.354  14.858
78542W        W43769  24.222   7.580  12.003
78543W        W43770   0.737  29.524   1.314
78544W        W43771   7.311  33.129   3.602
78545W        W43772  40.939  43.039   4.898
78546W        W43773   6.178  14.293   4.062
78547W        W43774  17.154  34.983   1.190
78548W        W43775  12.312   8.719   3.368
78549W        W43776   2.225  22.250   3.321
78550W        W43777  28.583  24.692   3.318
78551W        W43778  43.065   0.411  14.551
78552W        W43779   8.733  32.046  10.958
78553W        W43780  28.215  14.785   2.981
78554W        W43781  35.882   5.904   4.177
78555W        W43782  42.066  42.553   1.882
78556W        W43783  30.057  21.901   3.258
78557W        W43784  22.302  16.474   2.750
78558W        W43785  37.505   9.940   1.429
78559W        W43786  12.784   0.417   4.477
78560W        W43787  31.348  44.489   3.936
78561W        W43788  16.755  35.416   0.906
78562W        W43789  16.262   0.461  10.823
78563W        W43790  20.226  24.258  14.703
78564W        W43791  18.689  33.399   0.337
78565W        W43792  14.586  20.767  10.779
78566W        W43793  13.213  33.817   1.255
78567W        W43794   6.804  19.087  14.820
78568W        W43795  15.466   1.379  11.538
78569W        W43796  25.735   5.678  11.043
78570W        W43797  25.216  29.192   1.967
78571W        W43798  24.112  44.628   3.043
78572W        W43799  29.940  21.603   1.736
78573W        W43800   6.832  31.872   1.804
78574W        W43801  40.514  38.919   3.279
78575W        W43802  17.712  28.710  14.150
78576W        W43803  37.737  37.851  14.924
78577W        W43804  29.251  37.655   3.505
78578W        W43805   0.410  41.028   3.533
78579W        W43806   0.766  34.003  14.341
78580W        W43807  20.261   9.830   3.757
78581W        W43808  38.998  11.928   5.300
78582W        W43809  26.787  22.579   4.146
78583W        W43810  39.411  14.050   4.125
78584W        W43811   4.436  44.973  13.596
78585W        W43812  18.417   1.405  13.487
78586W        W43813  15.102  30.463  13.340
78587W        W43814  26.180  14.508  12.435
78588W        W43815  32.149   4.511   1.754
78589W        W43816  30.612   0.467  12.542
78590W        W43817  30.569   6.495  12.916
78591W        W43818   6.021  12.643  11.693
78592W        W43819  14.400  43.246  14.345
78593W        W43820  24.998  40.544  13.910
78594W        W43821  24.586  13.840  12.114
78595W        W43822  10.838  20.625   3.281
78596W        W43823  41.919  41.044   0.829
78597W        W43824  22.225  33.503   0.109
78598W        W43825  14.260  44.000  13.235
78599W        W43826   4.700  10.780  14.707
78600W        W43827  34.027   5.179  11.072
78601W        W43828  31.227  30.103  13.479
78602W        W43829  19.412  12.295  11.067
78603W        W43830  30.757  20.378   4.507
78604W        W43831  34.876   7.461  11.617
78605W        W43832  40.557  18.526  12.207
78606W        W43833  15.295  42.760  14.047
78607W        W43834  29.429  32.545  14.392
78608W        W43835  40.691  22.730  11.183
78609W        W43836  22.685   6.283  12.445
78610W        W43837   4.949  26.681  11.640
78611W        W43838   6.314  17.288   2.741
78612W        W43839  29.663  16.278  13.613
78613W        W43840  30.576  35.659   0.752
78614W        W43841  32.300   5.312   3.173
78615W        W43842   6.613  20.777  11.664
78616W        W43843  21.121  28.773  13.106
78617W        W43844   6.416  41.202   3.799
78618W        W43845   4.349  33.884   2.374
78619W        W43846   4.413  33.028   1.835
78620W        W43847  29.412  38.887   3.117
78621W        W43848   1.195  23.111   5.762
78622W        W43849  37.089   7.397   1.964
78623W        W43850  16.058  30.992  11.279
78624W        W43851  37.600  31.336  13.675
78625W        W43852  25.066  36.302   1.964
78626W        W43853  12.188  11.697   0.356
78627W        W43854  26.680  38.083  14.934
78628W        W43855  10.366  36.570  13.761
78629W        W43856   5.644  35.914   1.311
78630W        W43857  24.168  33.007  10.789
78631W        W43858  13.629  16.598  10.683
78632W        W43859   8.988   0.185   0.980
78633W        W43860  25.670  18.504   4.104
78634W        W43861  39.853  13.546   3.548
78635W        W43862  27.176  38.399  13.399
78636W        W43863  22.918  25.684  11.405
78637W        W43864  32.379  14.186   1.029
78638W        W43865  13.170  25.635  14.895
78639W        W43866  21.593   2.908  14.627
78640W        W43867  17.871   7.734  10.849
78641W        W43868   5.023   8.850   1.689
78642W        W43869   3.120   0.475   0.628
78643W        W43870  34.207  39.333  12.270
78644W        W43871  21.130   2.216   1.263
78645W        W43872  36.308  15.222  10.808
78646W        W43873   9.727  40.087   3.688
78647W        W43874  33.281   0.548   0.378
78648W        W43875  38.520  38.007   0.374
78649W        W43876   6.361  17.783   1.705
78650W        W43877  32.139   1.717  12.578
78651W        W43878  43.568  38.075   0.732
78652W        W43879  26.992  39.251  11.517
78653W        W43880   4.309  29.405  11.967
78654W        W43881   2.663   1.894  11.076
78655W        W43882  26.932  31.846  12.738
78656W        W43883  39.017   6.720   0.553
78657W        W43884  28.033  36.130   3.127
78658W        W43885   7.422   5.222  14.620
78659W        W43886  14.351  24.720   0.728
78660W        W43887  43.395  38.292   4.888
78661W        W43888  13.681   0.222   4.184
78662W        W43889  42.313  28.191  14.918
78663W        W43890  41.315  20.287  12.538
78664W        W43891   4.932   4.740   1.868
78665W        W43892  43.983   9.564  13.063
78666W        W43893  18.978   7.986   2.354
78667W        W43894   3.286  40.892  11.979
78668W        W43895  34.662  17.647   4.201
78669W        W43896  44.010  12.071   2.892
78670W        W43897  14.556  42.949   0.871
78671W        W43898  18.231  28.949  12.614
78672W        W43899  18.676  31.275   4.687
78673W        W43900  16.296  17.711   2.439
78674W        W43901  22.982  15.196  13.766
78675W        W43902  18.844  25.990   4.112
78676W        W43903  33.120  23.121   3.527
78677W        W43904  32.155   5.302  13.544
78678W        W43905  26.007  11.549   1.152
78679W        W43906  28.991  38.017   3.212
78680W        W43907  33.488  44.026   0.296
78681W        W43908  19.659  14.308   4.134
78682W        W43909  43.386  40.816   2.243
78683W        W43910  11.739  15.830  14.261
78684W        W43911  40.984   2.389  14.726
78685W        W43912  42.817  28.400  13.331
78686W        W43913  31.462  40.343   1.600
78687W        W43914  12.207  18.377  14.972
78688W        W43915   9.628  39.824  12.130
78689W        W43916   5.789  22.160   0.469
78690W        W43917  27.585   6.409   1.951
78691W        W43918  43.487  16.846   3.819
78692W        W43919  26.261  24.806   3.679
78693W        W43920  24.472  20.015   0.299
78694W        W43921  19.813   2.611   2.216
78695W        W43922   1.206   8.536   2.863
78696W        W43923   8.144  17.935   3.892
78697W        W43924  18.030  36.830  12.934
78698W        W43925  33.565  37.448   1.360
78699W        W43926  25.662  36.755   1.979
78700W        W43927   5.532  12.638  11.572
78701W        W43928  39.401   8.370   0.742
78702W        W43929  29.498   3.116  11.817
78703W        W43930  27.067  22.933   1.444
78704W        W43931   2.010  14.325  11.629
78705W        W43932   1.388   5.942  12.648
78706W        W43933  28.997  11.235   3.321
78707W        W43934   2.049  24.791  12.586
78708W        W43935  13.975  35.632  12.814
78709W        W43936  12.375   1.253   2.685
78710W        W43937   7.358  19.207  12.305
78711W        W43938  37.313  17.788  11.167
78712W        W43939  36.586  17.278   0.482
78713W        W43940  34.375  14.117   0.889
78714W        W43941   7.174  34.163  12.357
78715W        W43942  10.839  12.473   4.183
78716W        W43943  16.761   7.648  13.110
78717W        W43944   5.564  28.230   5.595
78718W        W43945  12.164  12.577  14.812
78719W        W43946  41.860  40.040  10.848
78720W        W43947   5.732  13.713   1.437
78721W        W43948   1.505  26.793  11.375
78722W        W43949  25.185  26.125  14.719
78723W        W43950   4.937  15.710  12.902
78724W        W43951  18.681  15.085  13.340
78725W        W43952  16.918  37.009  14.066
78726W        W43953   1.017   0.462  12.871
78727W        W43954  22.780  27.891  12.931
78728W        W43955  16.836  39.440  10.523
78729W        W43956   6.788  23.484  11.200
78730W        W43957   0.521  38.951  12.737
78731W        W43958  20.384  16.134   0.995
78732W        W43959  20.576  36.154  12.195
78733W        W43960  32.598  24.404  14.360
78734W        W43961  15.147  37.923  11.004
78735W        W43962  28.180  10.212   1.218
78736W        W43963   2.274  14.710  14.285
78737W        W43964  21.141  34.570   0.770
78738W        W43965  22.975  19.275  12.038
78739W        W43966  19.517  19.701  11.179
78740W        W43967  14.154  22.216   1.693
78741W        W43968  26.726  39.170  14.445
78742W        W43969   7.866  27.441  12.004
78743W        W43970  17.692   8.657   2.144
78744W        W43971  20.293  25.534  14.449
78745W        W43972  21.462   4.402   4.488
78746W        W43973  22.775  39.543   1.717
78747W        W43974  33.757  18.388   9.789
78748W        W43975  33.975  14.815   3.173
78749W        W43976  14.740  42.254  10.678
78750W        W43977  34.560  29.547   4.862
78751W        W43978  16.624   3.954   4.587
78752W        W43979  21.662  14.355  11.729
78753W        W43980  16.808  20.896  13.068
78754W        W43981  39.002  11.724   0.894
78755W        W43982  22.020  15.638   0.203
78756W        W43983  27.743  29.908   3.676
78757W        W43984  31.806  44.113   4.840
78758W        W43985   1.168  17.573   3.168
78759W        W43986  34.547  42.514  14.547
78760W        W43987  25.080  13.054  10.776
78761W        W43988   7.812   8.081  14.169
78762W        W43989   7.593   6.829  11.934
78763W        W43990  40.226  17.266  10.601
78764W        W43991  40.893  14.180   0.256
78765W        W43992  23.462  32.332  14.791
78766W        W43993  32.681  40.912  11.614
78767W        W43994  44.307  12.073  10.219
78768W        W43995  10.956  23.131   4.330
78769W        W43996  39.787  43.410  11.046
78770W        W43997   6.152  33.333   0.806
78771W        W43998  23.531  39.395   4.534
78772W        W43999  24.602  40.335   4.617
78773W        W44000  14.001   0.290  13.601
78774W        W44001   5.991  12.407   1.193
78775W        W44002  21.028  24.151   2.251
78776W        W44003   3.429  17.083  13.574
78777W        W44004  11.165   7.813   1.361
78778W        W44005  13.211  44.246  14.491
78779W        W44006  17.285  32.006  11.350
78780W        W44007  16.080   9.793  12.942
78781W        W44008  23.235  40.119   3.026
78782W        W44009  21.050  26.737  13.705
78783W        W44010  34.438   8.612  14.877
78784W        W44011   5.985  34.912   1.857
78785W        W44012  34.969   8.293  11.931
78786W        W44013  16.746  30.234  12.709
78787W        W44014   6.830  19.098   2.309
78788W        W44015  18.666  14.269   3.052
78789W        W44016  38.095  11.811   2.724
78790W        W44017  40.350  20.287   0.457
78791W        W44018  39.559  20.618   1.898
78792W        W44019  26.520   1.397  10.942
78793W        W44020   2.726  16.586   0.354
78794W        W44021  18.178  28.967  11.585
78795W        W44022  20.091  27.865  12.255
78796W        W44023   5.665  40.287  13.988
78797W        W44024   1.240  36.618  14.892
78798W        W44025  15.308  40.409  11.634
78799W        W44026   6.052  33.390   5.330
78800W        W44027  26.797  40.035   3.229
78801W        W44028  18.949  16.083   0.857
78802W        W44029  30.395   4.135   0.018
78803W        W44030  22.048   7.214  13.559
78804W        W44031  30.929   1.399  13.520
78805W        W44032  17.238  44.319   3.331
78806W        W44033  17.536  16.351   1.269
78807W        W44034  29.703  37.611   0.116
78808W        W44035  38.349  39.329   4.152
78809W        W44036   2.573  14.132  11.595
78810W        W44037  33.548  31.681  10.461
78811W        W44038  15.876  19.969  13.839
78812W        W44039  15.843  41.845   4.011
78813W        W44040  30.314  19.319  14.126
78814W        W44041  12.298   5.940   1.629
78815W        W44042  37.161  13.361   0.925
78816W        W44043  15.467  30.792   4.151
78817W        W44044  25.598   4.938   4.498
78818W        W44045  25.318   9.857   2.128
78819W        W44046  14.881  32.192  11.583
78820W        W44047  14.711  37.509   3.235
78821W        W44048  42.694  23.212  13.023
78822W        W44049  33.142  38.165   2.826
78823W        W44050  19.210  16.693  13.988
78824W        W44051  15.361  37.814   3.110
78825W        W44052   2.668  10.172   0.882
78826W        W44053  24.530   7.255  12.582
78827W        W44054   7.269  36.371   0.558
78828W        W44055  39.240   7.865  11.491
78829W        W44056  31.945  24.714  12.096
78830W        W44057  39.519  28.645   1.036
78831W        W44058  43.301  27.567  14.256
78832W        W44059  34.828  15.679  12.076
78833W        W44060  30.653  41.415   0.223
78834W        W44061  33.066  24.724   4.101
78835W        W44062  24.358  21.024   3.659
78836W        W44063  29.377  19.213   1.970
78837W        W44064  33.043  12.188   0.399
78838W        W44065  16.871  36.360   4.685
78839W        W44066  34.710  21.258   2.335
78840W        W44067  26.052  44.609  12.946
78841W        W44068  36.127   0.315   0.311
78842W        W44069   8.610   6.709  13.884
78843W        W44070   8.305  19.887  14.103
78844W        W44071   4.826   1.331   2.927
78845W        W44072  34.391  24.287   2.366
78846W        W44073  20.551   4.310  13.059
78847W        W44074   0.824   8.611  13.649
78848W        W44075   2.216  24.771   9.942
78849W        W44076  21.652  32.409  14.406
78850W        W44077  20.232  21.335   0.251
78851W        W44078  29.336  11.197   0.249
78852W        W44079  33.094  14.067   2.168
78853W        W44080  26.197   5.274  14.400
78854W        W44081  10.398  31.929  13.433
78855W        W44082   5.322   1.735   1.698
78856W        W44083  35.339  32.662  11.578
78857W        W44084  39.522  25.019  11.062
78858W        W44085  24.877  15.138  12.171
78859W        W44086  16.606   9.389  10.838
78860W        W44087  33.938  39.778   3.392
78861W        W44088  21.646   5.197  10.789
78862W        W44089  26.052  34.157  12.009
78863W        W44090  42.777  23.034  10.615
78864W        W44091   8.803  18.725  11.511
78865W        W44092  21.615   2.439   0.469
78866W        W44093  22.303  23.184  14.171
78867W        W44094  29.249  32.798  11.355
78868W        W44095  19.356  25.727  11.066
78869W        W44096  27.050  17.344   2.382
78870W        W44097  42.328  24.631   2.534
78871W        W44098  13.642  32.147  12.038
78872W        W44099   8.528  30.308   0.782
78873W        W44100  40.815  15.185   1.950
78874W        W44101  28.042   2.427   2.287
78875W        W44102  41.902  22.754  12.064
78876W        W44103  25.127  34.988   0.949
78877W        W44104  19.244  20.354   4.690
78878W        W44105   2.239  32.444   1.842
78879W        W44106  12.095  37.078  10.683
78880W        W44107  33.212   8.212  11.999
78881W        W44108  22.074  44.171   0.282
78882W        W44109   7.512  12.820  13.381
78883W        W44110  28.378  17.299   4.303
78884W        W44111   2.908  22.533  13.583
78885W        W44112  12.830  40.432   0.171
78886W        W44113  17.422   7.456  12.832
78887W        W44114  12.342   9.023  14.799
78888W        W44115  17.150  37.510   3.323
78889W        W44116  27.433  42.763   1.639
78890W        W44117  26.285  26.403   2.836
78891W        W44118   8.442   0.461   4.168
78892W        W44119  20.191  38.870  10.590
78893W        W44120  12.746  35.458  10.198
78894W        W44121   1.097  31.523  14.544
78895W        W44122  34.135  21.073   0.836
78896W        W44123  15.661  42.268   4.279
78897W        W44124  28.938  20.790  10.588
78898W        W44125   6.360  39.288   1.278
78899W        W44126  38.670  41.555   0.450
78900W        W44127  22.256  17.520   3.758
78901W        W44128  41.536  29.327   0.397
78902W        W44129   2.352  32.176  14.527
78903W        W44130   9.421  14.015  11.219
78904W        W44131  16.324  32.962  12.937
78905W        W44132  11.830  24.157   3.897
78906W        W44133  39.899  13.324   1.790
78907W        W44134  25.028  27.925   3.307
78908W        W44135  22.605  10.718   2.402
78909W        W44136  40.216  18.710   0.782
78910W        W44137  35.348  32.623   0.856
78911W        W44138   5.952  33.483  13.141
78912W        W44139   4.858  37.627  11.210
78913W        W44140  14.941  17.282   3.989
78914W        W44141  26.058   6.052  10.885
78915W        W44142  12.330  16.744  13.237
78916W        W44143  13.705  36.958   1.178
78917W        W44144  41.855  24.134  12.052
78918W        W44145  42.001   1.351  11.020
78919W        W44146  33.845  33.109   1.304
78920W        W44147  15.244   8.269  11.138
78921W        W44148  16.461  14.594   0.685
78922W        W44149  17.157  37.472   4.820
78923W        W44150  43.354   0.077  11.889
78924W        W44151  32.613  15.136   4.009
78925W        W44152  22.716  34.670   4.211
78926W        W44153  14.378  21.604   2.678
78927W        W44154  33.967  35.405  11.244
78928W        W44155  33.493  43.959  12.665
78929W        W44156  27.336  43.600   2.359
78930W        W44157  39.553  41.948   0.816
78931W        W44158  38.108  33.465   2.248
78932W        W44159  40.095  23.464   2.179
78933W        W44160  33.546   8.882  10.455
78934W        W44161  18.230   8.688  10.473
78935W        W44162  13.908   8.163   4.176
78936W        W44163   6.611  40.908  13.431
78937W        W44164  38.073  18.600  14.425
78938W        W44165   6.248  27.534  10.925
78939W        W44166  28.635  12.327   3.734
78940W        W44167  43.261  37.666  12.448
78941W        W44168  11.311  43.391  10.619
78942W        W44169  27.378  14.662   0.061
78943W        W44170  16.328  15.082   4.677
78944W        W44171  13.259  13.042  11.996
78945W        W44172   6.434   4.032   0.806
78946W        W44173  21.947  26.930   3.276
78947W        W44174  15.350  29.132   0.412
78948W        W44175   0.851  32.360   2.846
78949W        W44176   9.240  24.417  11.963
78950W        W44177   1.736  32.782  12.876
78951W        W44178  40.998  16.131  11.402
78952W        W44179  41.743  34.026   4.509
78953W        W44180  27.211  28.027   3.084
78954W        W44181   8.647   6.468   0.445
78955W        W44182   3.143   6.837   1.717
78956W        W44183  18.331   4.954   1.407
78957W        W44184  39.848   5.499  13.421
78958W        W44185  44.356  32.505  12.557
78959W        W44186   2.764  21.285  10.611
78960W        W44187   2.203   3.009   1.411
78961W        W44188  31.991  13.999  11.045
78962W        W44189  35.139  41.890   0.540
78963W        W44190   9.194  36.338  12.438
78964W        W44191  40.613  41.313  14.462
78965W        W44192  28.247   7.216  13.166
78966W        W44193  36.190  16.714   0.823
78967W        W44194  43.400   5.415  14.966
78968W        W44195  44.930  29.254   2.110
78969W        W44196  27.861  30.400   1.280
78970W        W44197  36.204  17.174  12.027
78971W        W44198  13.113  29.196  11.285
78972W        W44199  37.819   8.953  12.921
78973W        W44200   2.113  13.234  13.561
78974W        W44201  26.624  37.014  10.758
78975W        W44202   8.128  40.848   0.784
78976W        W44203  22.002  23.771  12.733
78977W        W44204  15.486   5.296   0.263
78978W        W44205  10.352  23.770   0.777
78979W        W44206  12.402  15.198  11.555
78980W        W44207  24.921  39.937  12.061
78981W        W44208  40.640  30.509  10.221
78982W        W44209  31.057  30.688  13.332
78983W        W44210  24.030  27.700   4.710
78984W        W44211  12.662  21.927   1.466
78985W        W44212  21.743  14.505   4.081
78986W        W44213   1.723  22.988  14.935
78987W        W44214   0.484  36.587   3.689
78988W        W44215  38.047  23.153  13.538
78989W        W44216  22.594  33.185   1.275
78990W        W44217  12.804  14.557  14.327
78991W        W44218  24.111  38.230   3.097
78992W        W44219  40.836  26.249   0.314
78993W        W44220   0.318  42.286  14.510
78994W        W44221   0.987  36.276  12.524
78995W        W44222   7.916  18.221  14.033
78996W        W44223  35.096  29.294   2.399
78997W        W44224  33.943   8.315   0.357
78998W        W44225  18.758  17.241   4.556
78999W        W44226   9.653  30.105   2.271
79000W        W44227   8.096  14.627  11.093
79001W        W44228   1.760  19.638  12.209
79002W        W44229  43.705  20.607  10.662
79003W        W44230  28.067   2.836   0.943
79004W        W44231  39.016  26.195   2.138
79005W        W44232  26.698  33.680   0.310
79006W        W44233  15.290  30.170   3.753
79007W        W44234  16.226  25.983   0.694
79008W        W44235  30.984  15.978   0.939
79009W        W44236  38.911  29.032  10.606
79010W        W44237  16.239  23.491   2.151
79011W        W44238  43.768  35.367   2.673
79012W        W44239   8.466  28.784  14.920
79013W        W44240  25.243  28.011  12.436
79014W        W44241  12.936  36.314  13.341
79015W        W44242  43.786   6.371   4.575
79016W        W44243   2.746   0.806  10.381
79017W        W44244  38.284  42.268  11.571
79018W        W44245  30.234  42.446   1.963
79019W        W44246  42.473  26.599   3.247
79020W        W44247  16.122  31.355   4.568
79021W        W44248   5.546   1.820   3.554
79022W        W44249  20.102  31.001   2.858
79023W        W44250   9.428  44.409   2.468
79024W        W44251  33.894   3.240  11.235
79025W        W44252  12.129  34.625   1.278
79026W        W44253  26.876  32.287  12.489
79027W        W44254  28.662  25.432  12.418
79028W        W44255  16.792   6.237   2.863
79029W        W44256  20.110  30.858  11.166
79030W        W44257  13.361  37.104  14.838
79031W        W44258  16.526  32.080  13.174
79032W        W44259   7.118  21.357   4.029
79033W        W44260  37.528   9.732  10.240
79034W        W44261  29.855  43.362  13.556
79035W        W44262  20.578  44.450  14.516
79036W        W44263  15.101   9.808   1.773
79037W        W44264  17.137  30.291   2.198
79038W        W44265   5.459  42.378  13.594
79039W        W44266  14.047  21.670   2.293
79040W        W44267  22.311  14.100  13.884
79041W        W44268  15.348  34.515   3.735
79042W        W44269  12.459   2.269  11.610
79043W        W44270  26.132   1.874  10.393
79044W        W44271  16.139  34.445  12.391
79045W        W44272  41.251   6.863  13.499
79046W        W44273  16.646   8.375   3.274
79047W        W44274  13.515  18.725   3.863
79048W        W44275  30.655  12.752  13.733
79049W        W44276   5.805  27.460  12.117
79050W        W44277  34.050  22.490   1.334
79051W        W44278  13.123   1.728  14.796
79052W        W44279  23.501  39.112   3.321
79053W        W44280  13.368   9.374  12.506
79054W        W44281  25.953   1.659  13.102
79055W        W44282  33.171  21.183   2.235
79056W        W44283  18.170  15.392  12.629
79057W        W44284   4.963   7.211  10.738
79058W        W44285  33.341   9.962   1.965
79059W        W44286  39.499  39.571  11.116
79060W        W44287   3.763  29.847  14.506
79061W        W44288  27.991   9.366   4.779
79062W        W44289  42.532  27.595  13.545
79063W        W44290  37.091  41.252   4.889
79064W        W44291  34.920  15.526   3.149
79065W        W44292  26.423  41.638  13.918
79066W        W44293  31.177   1.961   4.154
79067W        W44294   4.978  11.427   3.787
79068W        W44295  15.113  44.754   0.512
79069W        W44296  13.953  27.450  12.190
79070W        W44297   6.373  19.467  11.178
79071W        W44298   4.603  34.062   3.798
79072W        W44299   5.485  10.546   2.860
79073W        W44300  32.010  27.813   1.859
79074W        W44301   8.375  10.815  12.214
79075W        W44302  28.574  21.093   3.271
79076W        W44303  37.939  31.618   1.157
79077W        W44304  30.915  23.607  11.594
79078W        W44305  28.758  35.457  14.786
79079W        W44306  10.857  14.270   4.685
79080W        W44307  37.949  33.031  11.084
79081W        W44308  21.239   0.432   1.483
79082W        W44309   7.387  17.587   4.108
79083W        W44310  18.278  27.738  13.434
79084W        W44311   0.987  21.670  10.834
79085W        W44312  31.549  16.111   1.269
79086W        W44313   1.745  26.573   2.478
79087W        W44314  32.126  19.951  13.856
79088W        W44315  15.631  27.101   4.342
79089W        W44316   4.135  41.384   3.871
79090W        W44317   3.292  24.241   1.051
79091W        W44318   2.676  26.748  12.110
79092W        W44319  35.912   7.132  14.797
79093W        W44320  27.601  27.591  12.275
79094W        W44321  10.185  38.031   4.905
79095W        W44322   3.892   9.220   2.301
79096W        W44323  21.904  28.896  13.306
79097W        W44324  40.491  28.555   1.999
79098W        W44325  23.449  30.153  10.739
79099W        W44326  29.708   2.472  10.674
79100W        W44327  19.572  32.247   5.016
79101W        W44328  37.285  12.388  12.989
79102W        W44329  16.029  34.624   4.565
79103W        W44330  30.320  24.419   4.555
79104W        W44331  38.959  25.653  10.652
79105W        W44332   4.770  14.214   3.872
79106W        W44333  26.320  17.566   3.275
79107W        W44334  18.516  26.401   4.090
79108W        W44335  13.924  12.672   0.876
79109W        W44336  16.982  42.901  10.767
79110W        W44337  24.249   6.740  13.032
79111W        W44338  30.957  15.433   4.381
79112W        W44339  39.480  35.797   0.041
79113W        W44340  41.062  44.998  10.583
79114W        W44341  24.287  29.144  10.713
79115W        W44342  21.443  19.219  13.405
79116W        W44343   1.678  11.408   4.115
79117W        W44344  26.702  16.821  12.438
79118W        W44345  14.544  43.109  12.653
79119W        W44346  37.706  11.479  12.471
79120W        W44347  32.464  17.208   3.686
79121W        W44348   3.565  33.394  14.659
79122W        W44349   0.341  31.991   0.707
79123W        W44350  12.862  20.795   4.181
79124W        W44351  37.367   8.829  14.739
79125W        W44352  34.852  33.049   0.282
79126W        W44353   9.175  24.107   4.655
79127W        W44354  36.278   5.213  12.860
79128W        W44355   3.539  25.020   1.692
79129W        W44356  25.449   9.058   1.671
79130W        W44357  34.691   2.438  12.945
79131W        W44358   1.891   5.377  14.950
79132W        W44359  36.057   9.120  14.434
79133W        W44360  29.084  15.808  11.694
79134W        W44361  20.747  43.393  12.314
79135W        W44362   2.399  37.755  14.050
79136W        W44363  16.803  13.765   1.830
79137W        W44364   8.333  39.499  13.381
79138W        W44365   4.657  24.415  12.592
79139W        W44366  39.512  27.008   2.712
79140W        W44367  43.374  23.079  14.841
79141W        W44368  29.575  21.026   4.501
79142W        W44369  28.871   9.788  12.306
79143W        W44370  38.559  21.943  12.984
79144W        W44371  44.333  19.199  13.560
79145W        W44372  40.298   4.881  13.852
79146W        W44373   4.928   4.223   1.664
79147W        W44374  38.940  13.105   0.302
79148W        W44375   7.191  27.006   2.318
79149W        W44376   6.585  33.445   2.581
79150W        W44377  13.252  21.770  13.535
79151W        W44378  22.561  19.225   1.738
79152W        W44379  19.109   3.445  11.646
79153W        W44380  28.096  16.835   4.116
79154W        W44381  15.254  18.749  12.616
79155W        W44382  42.077  44.088  13.746
79156W        W44383  24.111  18.863   2.243
79157W        W44384   0.385  10.989  10.396
79158W        W44385   4.543   3.873   3.288
79159W        W44386  28.031   4.773  12.363
79160W        W44387  20.173  19.912   4.256
79161W        W44388  44.892  28.520   0.012
79162W        W44389  36.558  42.531   1.365
79163W        W44390  24.748  30.858   3.539
79164W        W44391  23.633  23.147  14.559
79165W        W44392  25.092  16.862   0.438
79166W        W44393  10.854  16.299   0.005
79167W        W44394  16.572  17.971   1.471
79168W        W44395  44.242  13.010   3.109
79169W        W44396  20.216  25.042   4.032
79170W        W44397  41.505   5.411  14.652
79171W        W44398  35.012   8.784  10.238
79172W        W44399  22.213  25.505   3.861
79173W        W44400   7.078   2.720  14.471
79174W        W44401  12.445  30.527   3.950
79175W        W44402   2.835   5.887   0.641
79176W        W44403  11.825  42.544  13.423
79177W        W44404  32.177  15.826   4.543
79178W        W44405  33.524  42.989   0.288
79179W        W44406  11.970  33.451  13.426
79180W        W44407  42.591  33.570   1.173
79181W        W44408  35.809  41.486   0.502
79182W        W44409   0.545  38.547   4.628
79183W        W44410   1.843  13.616  11.938
79184W        W44411   6.681  20.110   4.096
79185W        W44412  10.352  25.670   1.095
79186W        W44413  31.495  41.870   0.975
79187W        W44414  40.467  33.108  13.821
79188W        W44415  18.182  42.560   0.217
79189W        W44416   2.238  33.121   3.416
79190W        W44417  39.810  44.345  13.864
79191W        W44418  40.058  31.336  12.446
79192W        W44419   4.365  30.877   1.130
79193W        W44420   6.534  43.141  11.567
79194W        W44421   1.809   6.123   4.128
79195W        W44422  40.450  42.989   0.650
79196W        W44423  27.675   4.689   1.342
79197W        W44424  34.337   5.028  14.721
79198W        W44425  11.624   7.384  11.456
79199W        W44426   1.604   1.480   2.698
79200W        W44427  25.186  34.485   0.837
79201W        W44428  11.732  19.112  10.741
79202W        W44429  34.804  23.007  13.647
79203W        W44430  28.159  33.107  10.985
79204W        W44431  31.647  40.445   1.127
79205W        W44432  29.227  36.628  11.658
79206W        W44433   4.705  15.400   0.832
79207W        W44434   3.716  21.240  10.486
79208W        W44435  32.085  38.506  14.328
79209W        W44436  43.782   3.527   1.687
79210W        W44437   8.814  27.960   0.455
79211W        W44438  21.015  44.280  13.119
79212W        W44439  35.870   5.722  10.518
79213W        W44440  11.707  34.674  10.651
79214W        W44441   9.367  20.427  13.355
79215W        W44442  10.437  29.394  11.952
79216W        W44443  34.102   3.301   3.274
79217W        W44444  31.225  21.701   1.300
79218W        W44445   1.344  10.377  14.378
79219W        W44446  36.817  39.908  13.241
79220W        W44447  27.380   9.782   3.563
79221W        W44448  42.393  16.689   1.271
79222W        W44449  27.189   4.450  12.523
79223W        W44450  39.292  30.668  11.365
79224W        W44451   1.965   7.910   3.797
79225W        W44452  11.643   6.924  12.805
79226W        W44453  30.991  24.491   0.779
79227W        W44454  44.439  10.412   0.793
79228W        W44455  28.390  27.184   5.489
79229W        W44456  38.410   6.628  13.821
79230W        W44457  16.854   7.987   0.494
79231W        W44458  19.321  38.567  14.959
79232W        W44459  31.924  37.306   1.489
79233W        W44460   1.725   3.791  13.985
79234W        W44461  18.636   8.158  14.569
79235W        W44462  37.062   1.577  10.915
79236W        W44463  10.860  10.923  12.465
79237W        W44464  39.612  39.503   2.664
79238W        W44465  21.967  36.282  11.702
79239W        W44466  19.985  14.706   4.192
79240W        W44467   3.925  32.577  12.847
79241W        W44468  44.513   9.480   0.540
79242W        W44469   1.953  10.283  13.568
79243W        W44470   4.903  10.304  14.583
79244W        W44471  38.705  36.996   0.047
79245W        W44472  34.868   3.945  11.682
79246W        W44473  29.703   6.237  14.297
79247W        W44474  10.191  13.077   3.713
79248W        W44475  22.006  12.633   3.667
79249W        W44476  17.319  22.678  13.694
79250W        W44477  10.757  17.654   0.939
79251W        W44478  11.675  25.517   2.395
79252W        W44479  26.433   6.438   4.915
79253W        W44480  13.633  37.708   4.858
79254W        W44481   8.415  14.027  12.147
79255W        W44482  43.511  24.537   0.372
79256W        W44483   2.850  41.052   2.590
79257W        W44484  37.935   7.482  11.415
79258W        W44485   3.692  28.509   2.472
79259W        W44486  31.224  43.793   4.261
79260W        W44487  33.789  20.595   2.737
79261W        W44488  28.220  42.084  12.094
79262W        W44489  26.923  43.307   3.875
79263W        W44490  26.920  38.532  14.758
79264W        W44491   4.369  26.590  14.425
79265W        W44492  30.451  39.523  11.000
79266W        W44493  26.781  26.199   3.133
79267W        W44494  18.675  15.400  14.897
79268W        W44495  44.882  16.085  12.910
79269W        W44496  28.720  38.467   1.348
79270W        W44497  20.254  36.446  13.842
79271W        W44498  42.522  12.353   2.780
79272W        W44499  35.182   0.959   4.975
79273W        W44500  31.158  32.856   2.192
79274W        W44501   0.115  38.103   3.876
79275W        W44502  29.326  26.579   2.678
79276W        W44503  39.831  44.253  12.411
79277W        W44504  18.744  16.320  11.457
79278W        W44505  20.541  23.864  11.546
79279W        W44506   0.277  44.225  12.503
79280W        W44507  28.441  15.736   1.794
79281W        W44508  28.251   8.886  13.000
79282W        W44509  24.239  35.951  12.564
79283W        W44510   7.019  39.124  14.579
79284W        W44511  13.211  43.725  12.144
79285W        W44512  44.936   1.498  11.466
79286W        W44513  11.992  34.869   4.516
79287W        W44514  28.878  25.673   2.395
79288W        W44515  22.577   6.350  11.187
79289W        W44516  20.342   0.792  11.079
79290W        W44517   8.175   2.049   1.875
79291W        W44518  19.074  40.454   1.025
79292W        W44519  31.763  35.400  10.331
79293W        W44520  38.843  26.151  10.461
79294W        W44521  12.351  28.132   0.140
79295W        W44522  38.233  37.984   2.127
79296W        W44523  30.831  24.492   4.606
79297W        W44524   7.426  38.031  14.878
79298W        W44525  12.659  39.407   3.501
79299W        W44526  27.989  36.919   3.790
79300W        W44527   9.393   1.941   2.858
79301W        W44528  17.681  30.478  14.707
79302W        W44529  36.998   2.729   3.814
79303W        W44530   3.511  33.390  13.062
79304W        W44531  44.297  11.813  13.103
79305W        W44532  11.939  39.263  14.362
79306W        W44533  35.219  27.149  12.882
79307W        W44534  28.215   7.181   0.919
79308W        W44535   4.376  29.086  12.365
79309W        W44536  41.555  44.904   2.778
79310W        W44537  29.188  39.487  12.176
79311W        W44538   4.847  15.490   3.079
79312W        W44539   7.390   4.676  12.017
79313W        W44540  43.721  37.959  12.440
79314W        W44541  15.781   5.795   1.488
79315W        W44542  35.480   7.969   3.787
79316W        W44543  29.520  33.589  14.754
79317W        W44544   8.744   1.381   1.927
79318W        W44545  11.153  10.111  10.771
79319W        W44546  40.761  39.953   2.416
79320W        W44547  43.323  35.805  12.569
79321W        W44548  15.156  28.346  14.449
79322W        W44549  41.552   5.589  13.774
79323W        W44550  13.744  44.080   0.171
79324W        W44551   9.614  28.654   2.294
79325W        W44552  32.965  25.580  14.680
79326W        W44553   0.405  14.332  12.759
79327W        W44554  37.825   2.515   2.402
79328W        W44555   8.280   2.360   0.932
79329W        W44556   5.724   7.423   2.276
79330W        W44557  26.984  13.861   4.517
79331W        W44558  22.633  25.686   4.068
79332W        W44559   5.209   6.156  14.425
79333W        W44560  34.371  35.971   3.431
79334W        W44561  28.040   2.520   1.395
79335W        W44562  26.875   0.963   0.220
79336W        W44563  25.607  44.345  11.228
79337W        W44564  13.934  32.990  12.214
79338W        W44565  11.867  37.492   4.206
79339W        W44566  41.496   9.300  12.151
79340W        W44567  36.815  17.117   2.266
79341W        W44568  20.041  43.946  13.343
79342W        W44569  41.368  17.691   1.632
79343W        W44570  19.851  38.462  10.574
79344W        W44571  22.179  34.657  13.457
79345W        W44572  30.619  37.503  14.440
79346W        W44573   5.085  31.444   0.664
79347W        W44574  20.347   8.806   1.864
79348W        W44575  43.246  10.670   2.141
79349W        W44576  10.406  19.198  14.959
79350W        W44577  40.333   2.622   2.679
79351W        W44578  36.287  24.525   1.881
79352W        W44579  34.017  33.492   0.509
79353W        W44580  31.798  24.052  12.970
79354W        W44581  30.979  27.101   0.091
79355W        W44582   1.178   7.604  10.646
79356W        W44583  37.060  32.555  12.849
79357W        W44584  17.012   1.464  14.719
79358W        W44585   5.407  10.919   1.519
79359W        W44586  28.873  43.080   3.235
79360W        W44587  11.577   8.983   4.041
79361W        W44588  38.723  13.609   2.625
79362W        W44589   9.269  21.389  11.119
79363W        W44590   5.674  39.290  14.300
79364W        W44591  14.292   3.871   0.829
79365W        W44592  22.094  30.513   0.727
79366W        W44593  17.271  10.873  12.935
79367W        W44594   0.520  15.169   2.195
79368W        W44595  23.173  15.066  12.506
79369W        W44596  10.746  10.429  12.440
79370W        W44597   2.445  27.532   0.332
79371W        W44598  35.963  15.659   0.853
79372W        W44599  24.259   5.288   5.802
79373W        W44600  28.928  15.286   1.152
79374W        W44601  28.866  19.935   4.251
79375W        W44602  40.308  14.102   0.082
79376W        W44603  19.133   3.791  13.834
79377W        W44604  28.002  39.516   1.930
79378W        W44605  42.263  30.382   0.470
79379W        W44606   5.238  25.174   3.178
79380W        W44607  23.517  22.835   2.926
79381W        W44608   9.771  20.243  11.613
79382W        W44609  37.115  14.320   1.948
79383W        W44610  12.393  10.820  10.805
79384W        W44611   0.679   3.576  11.668
79385W        W44612   2.987  35.018  12.475
79386W        W44613  38.017  11.073  12.846
79387W        W44614  41.433  30.942   1.813
79388W        W44615  19.472  20.629  11.849
79389W        W44616  33.095  27.115  14.119
79390W        W44617  25.115  23.740   1.741
79391W        W44618   6.957  16.610   1.473
79392W        W44619  20.878  21.161   1.742
79393W        W44620  12.562   9.952   4.513
79394W        W44621  17.651  31.913   0.183
79395W        W44622  20.268   1.043  12.353
79396W        W44623  12.448   3.885   3.418
79397W        W44624  24.529   4.177  13.377
79398W        W44625  23.983  24.767  13.903
79399W        W44626   8.218  36.118  13.020
79400W        W44627  44.894  40.370   4.041
79401W        W44628   7.889  27.195   0.422
79402W        W44629   3.308  20.218  12.531
79403W        W44630  18.389  38.449  13.495
79404W        W44631   7.094  35.079  12.479
79405W        W44632  30.939  12.219  14.833
79406W        W44633  18.272  26.270   3.338
79407W        W44634  31.722  38.861  14.478
79408W        W44635   6.625  18.980   1.484
79409W        W44636   5.666  14.819  12.035
79410W        W44637  32.659  38.430   0.991
79411W        W44638  39.313  25.957   0.331
79412W        W44639  16.514  18.562  14.948
79413W        W44640  31.396  16.786   4.033
79414W        W44641   2.878   9.364   0.544
79415W        W44642  26.196   5.789   3.736
79416W        W44643  11.595  31.650   0.877
79417W        W44644  23.959  34.407  11.668
79418W        W44645  29.582  35.744   3.085
79419W        W44646  29.929  26.479  14.276
79420W        W44647  41.219  17.093  11.572
79421W        W44648  36.766  25.053  12.080
79422W        W44649  21.423  41.796  14.424
79423W        W44650   2.170  24.169  10.787
79424W        W44651  21.133   0.023   3.332
79425W        W44652  11.616  44.796  14.341
79426W        W44653  42.332  44.388   0.770
79427W        W44654  24.193   1.893  11.277
79428W        W44655  16.409  35.375  14.901
79429W        W44656   4.830  12.854   0.727
79430W        W44657   0.783  37.105  12.882
79431W        W44658  18.219   2.295  13.861
79432W        W44659  14.200  20.143  10.450
79433W        W44660  16.505  26.228   3.192
79434W        W44661  17.583   0.561   3.444
79435W        W44662  20.602  30.976   1.803
79436W        W44663  13.042  15.162  14.895
79437W        W44664   1.103  15.834   0.492
79438W        W44665   4.869  22.150   1.273
79439W        W44666   5.933  39.371   4.501
79440W        W44667  17.845  30.015   0.424
79441W        W44668  43.781  17.737   1.389
79442W        W44669  20.499  17.040  14.891
79443W        W44670  34.356  15.277   0.389
79444W        W44671  26.157   1.326   9.781
79445W        W44672  16.670   0.512   1.542
79446W        W44673  29.625  29.500   0.423
79447W        W44674   9.653  30.041   4.128
79448W        W44675  31.139  26.928  13.228
79449W        W44676  27.479  12.666  12.850
79450W        W44677  40.449  26.056   4.073
79451W        W44678  13.046  42.900  11.603
79452W        W44679   3.671  32.985  11.208
79453W        W44680   2.352  20.330  10.690
79454W        W44681  13.667  23.569   1.916
79455W        W44682  24.438  20.480   1.697
79456W        W44683   1.219  36.500  13.976
79457W        W44684  20.762   5.804  12.264
79458W        W44685  38.872  40.947  14.928
79459W        W44686  29.245  40.777   3.828
79460W        W44687  20.021  36.634   4.427
79461W        W44688  17.911   4.929  12.079
79462W        W44689  44.073  38.856   0.310
79463W        W44690   7.956  24.190  11.977
79464W        W44691   4.673  13.192  11.269
79465W        W44692  25.733   5.214   3.214
79466W        W44693  35.037   3.762   4.807
79467W        W44694  42.085  20.826  14.564
79468W        W44695  16.214  37.536   1.274
79469W        W44696  28.559  17.107  12.901
79470W        W44697  20.114  14.634  13.446
79471W        W44698   8.434  22.500   2.648
79472W        W44699   1.848  12.918   4.320
79473W        W44700  22.518  24.431   3.858
79474W        W44701  44.372   8.285  10.710
79475W        W44702  33.967   9.688   0.873
79476W        W44703  28.432   1.681  10.447
79477W        W44704  14.682  38.557   2.387
79478W        W44705  40.432   7.582  14.878
79479W        W44706  20.575   1.721  14.284
79480W        W44707  42.869  18.169  12.455
79481W        W44708   4.081  24.714  11.385
79482W        W44709   2.676   5.897  10.480
79483W        W44710  11.487   5.648  11.106
79484W        W44711   7.502  34.402   3.746
79485W        W44712  18.034  32.109   3.208
79486W        W44713   4.284   2.401  13.376
79487W        W44714  19.954  15.679  12.621
79488W        W44715   1.778  16.196   0.408
79489W        W44716   2.201  29.841  10.175
79490W        W44717  22.114  43.356   4.378
79491W        W44718   3.736  24.945  11.079
79492W        W44719   8.429  36.564   0.754
79493W        W44720  20.072  25.565   4.139
79494W        W44721  14.245  31.259   2.874
79495W        W44722  13.840  30.640   1.845
79496W        W44723  43.962  43.098   1.956
79497W        W44724  39.040  43.770   0.824
79498W        W44725  10.663  39.228   1.604
79499W        W44726  10.309   4.964  12.564
79500W        W44727   6.190  10.896   0.516
79501W        W44728  19.642  31.275   2.781
79502W        W44729  40.005  38.340  10.815
79503W        W44730  22.241  11.290  14.023
79504W        W44731  16.243  44.825  11.511
79505W        W44732  30.173  17.402  12.197
79506W        W44733  33.761  16.866   5.306
79507W        W44734  41.047  11.179   3.400
79508W        W44735  25.255  43.833   4.224
79509W        W44736  34.878  33.626  13.800
79510W        W44737   5.724  26.473   2.866
79511W        W44738  30.105  35.987  13.827
79512W        W44739  19.951  22.725  12.173
79513W        W44740  36.090  22.253   2.778
79514W        W44741  12.218  33.264   0.323
79515W        W44742  14.156  33.522  10.693
79516W        W44743  21.270  13.610  10.812
79517W        W44744  19.123  11.134   4.090
79518W        W44745  12.697  24.896   3.277
79519W        W44746  38.417  35.001   3.800
79520W        W44747   2.273  23.080   1.215
79521W        W44748  29.090  33.333  10.497
79522W        W44749  43.026  32.476   1.297
79523W        W44750  39.997  22.321   3.390
79524W        W44751  25.133  20.526  10.468
79525W        W44752   4.728  25.479  11.132
79526W        W44753  20.167  28.701   1.303
79527W        W44754  21.959   0.520   2.182
79528W        W44755   2.666  17.327   4.183
79529W        W44756  34.598   9.263   2.695
79530W        W44757  34.033  34.879  11.139
79531W        W44758  43.163  41.444  12.412
79532W        W44759  32.349  33.079   0.406
79533W        W44760  37.997   6.856   0.469
79534W        W44761  25.393  32.646  12.479
79535W        W44762  10.804  32.544  12.935
79536W        W44763  25.875  36.104  11.448
79537W        W44764  35.433  17.235   0.729
79538W        W44765  16.292  17.505   3.797
79539W        W44766   3.552  18.261  14.573
79540W        W44767  41.467  44.427   4.378
79541W        W44768  33.015  23.906  14.282
79542W        W44769  35.294   9.379   4.716
79543W        W44770  16.134  27.558  14.789
79544W        W44771  23.738   9.175   0.290
79545W        W44772   0.085  41.305  12.547
79546W        W44773  43.630  19.714  14.724
79547W        W44774   7.273  36.191  13.203
79548W        W44775  19.788  26.637  10.924
79549W        W44776  23.532   8.297   2.289
79550W        W44777  32.245  28.788   1.697
79551W        W44778   1.629  28.832   1.393
79552W        W44779  23.693  25.474  10.786
79553W        W44780  42.042  39.725   1.723
79554W        W44781  36.282  39.219   2.355
79555W        W44782  37.914  41.466   1.976
79556W        W44783  25.999  37.838  12.662
79557W        W44784   4.665  14.746  12.952
79558W        W44785  35.207  42.848  11.328
79559W        W44786   8.939  13.827   1.603
79560W        W44787  43.851  23.540  11.674
79561W        W44788  10.442  24.032   2.681
79562W        W44789  23.030   0.264   1.184
79563W        W44790  41.848  43.425  13.037
79564W        W44791  20.188   2.408   1.834
79565W        W44792  22.241  38.694   5.052
79566W        W44793  20.049  37.360  14.070
79567W        W44794   4.136  38.104   1.171
79568W        W44795  31.001  12.756  14.609
79569W        W44796  23.411  37.801  11.702
79570W        W44797  32.750   1.386   0.649
79571W        W44798  20.095   4.450   4.576
79572W        W44799  29.206   9.326   1.458
79573W        W44800   1.450   8.616  13.076
79574W        W44801  22.588  41.927  11.043
79575W        W44802  10.271   9.799  13.798
79576W        W44803  30.118   7.581  13.239
79577W        W44804   2.053  10.439   1.265
79578W        W44805  33.038  11.391   4.056
79579W        W44806   6.839  32.375  13.475
79580W        W44807  12.617  12.619   1.215
79581W        W44808   8.082  28.636   1.932
79582W        W44809  42.839  43.732  13.502
79583W        W44810  19.553  30.905   0.852
79584W        W44811   8.186  15.648   0.807
79585W        W44812  10.331  23.752   0.261
79586W        W44813  40.509  20.802   0.468
79587W        W44814  34.104   7.143  12.162
79588W        W44815  18.010  16.335   0.386
79589W        W44816  29.669  12.548   0.134
79590W        W44817  43.359  21.693  14.083
79591W        W44818  22.406  14.713  12.573
79592W        W44819  23.772  36.113   4.604
79593W        W44820   9.359  38.411   2.601
79594W        W44821  36.256   9.519   0.793
79595W        W44822   2.043  24.905  14.375
79596W        W44823  19.313  43.451  11.105
79597W        W44824  32.024  44.544   4.584
79598W        W44825  31.113  11.732  14.660
79599W        W44826  29.584  38.129   1.640
79600W        W44827  40.979  36.127  11.497
79601W        W44828  26.619  23.677  10.307
79602W        W44829  34.615   6.918   1.346
79603W        W44830   2.996   9.983   3.679
79604W        W44831  29.268   4.650   2.793
79605W        W44832  44.389  19.162   0.035
79606W        W44833   6.007   8.484   1.474
79607W        W44834  21.727  28.738  12.840
79608W        W44835  41.320  27.022  11.479
79609W        W44836  24.077  18.159  14.995
79610W        W44837  13.712   4.926   1.415
79611W        W44838   3.759  17.051  14.880
79612W        W44839  41.871  12.975  10.289
79613W        W44840  10.057  37.050   2.780
79614W        W44841  30.885  29.466   1.206
79615W        W44842  31.542  32.092  12.954
79616W        W44843  31.944  17.597   0.668
79617W        W44844  33.539   1.730  13.740
79618W        W44845  43.480  11.228   2.840
79619W        W44846   5.115  26.941  13.790
79620W        W44847  42.953  42.082   4.470
79621W        W44848  28.062  16.724  11.474
79622W        W44849  36.785   8.727  10.254
79623W        W44850  24.132  10.299   1.734
79624W        W44851  11.505  32.618  12.388
79625W        W44852  14.819  12.245   3.454
79626W        W44853  18.271   4.277  12.853
79627W        W44854  38.914  24.846   3.154
79628W        W44855  25.944  11.211   0.072
79629W        W44856  10.602   3.668  13.409
79630W        W44857  20.063   4.714   3.208
79631W        W44858   2.727  15.782   3.295
79632W        W44859  26.922  13.608  11.024
79633W        W44860   8.143  15.874  10.444
79634W        W44861  10.361  12.192  13.467
79635W        W44862  44.447  43.241  13.113
79636W        W44863  41.518  20.247  10.794
79637W        W44864  41.525  18.487   2.363
79638W        W44865   0.894  21.450   2.666
79639W        W44866  43.357  12.599   4.657
79640W        W44867  12.800  43.240   3.182
79641W        W44868  11.617  22.662  14.680
79642W        W44869  17.899  32.015   1.268
79643W        W44870  36.304  22.069  14.872
79644W        W44871   7.635  42.776   2.435
79645W        W44872  34.056  41.665   0.289
79646W        W44873   8.947  28.135  11.572
79647W        W44874  17.188  15.342  12.659
79648W        W44875  16.681  11.572   1.810
79649W        W44876  18.829  34.955  13.743
79650W        W44877  15.242  15.919   4.886
79651W        W44878  14.567  25.490  13.595
79652W        W44879   2.328  26.046   3.371
79653W        W44880  39.604   5.784   3.847
79654W        W44881  19.719  38.397  12.349
79655W        W44882  39.012  13.075  10.782
79656W        W44883  12.064  39.502  11.605
79657W        W44884  23.492   4.188  12.517
79658W        W44885  13.883  21.453   0.569
79659W        W44886  32.061   5.971   4.142
79660W        W44887  15.696  26.957  11.760
79661W        W44888  28.857  31.848   4.092
79662W        W44889   2.169   8.767  13.518
79663W        W44890  10.379  36.268  13.316
79664W        W44891  27.359  11.202   4.622
79665W        W44892  25.135   0.570  13.127
79666W        W44893   1.842  39.539  14.082
79667W        W44894  19.388   0.326   3.401
79668W        W44895  42.597  41.734   1.741
79669W        W44896   3.824   7.247   4.417
79670W        W44897   2.356  15.004   4.762
79671W        W44898   3.810  35.552   1.861
79672W        W44899   5.793  43.825  11.477
79673W        W44900  23.086   7.364  11.913
79674W        W44901  15.022   1.480  14.880
79675W        W44902  19.245  11.138  10.866
79676W        W44903  38.422  10.882   2.374
79677W        W44904  40.424  33.609  13.871
79678W        W44905  44.009   5.816   0.876
79679W        W44906  36.039  29.578   4.723
79680W        W44907  26.448   4.174  11.621
79681W        W44908  27.209  35.757   1.722
79682W        W44909  25.428  13.994   3.529
79683W        W44910  39.469   6.443   0.580
79684W        W44911  16.369   9.178  14.834
79685W        W44912  11.317   4.033  10.647
79686W        W44913  25.459  31.823   3.105
79687W        W44914  41.298  35.028   1.777
79688W        W44915  30.095   9.602   1.249
79689W        W44916   0.067  15.661  12.597
79690W        W44917   3.986  16.436  10.423
79691W        W44918  27.040  18.060   3.153
79692W        W44919  13.238  37.984  14.591
79693W        W44920  15.809  24.754  14.513
79694W        W44921  14.543  34.310   1.915
79695W        W44922  39.471   4.648  11.631
79696W        W44923  27.838  18.994   0.380
79697W        W44924   7.253  30.954   0.466
79698W        W44925  16.165  29.884  10.709
79699W        W44926  11.205   2.610  10.983
79700W        W44927  41.784   2.804   3.259
79701W        W44928  30.051  29.384  13.608
79702W        W44929  40.000  14.711  13.267
79703W        W44930  34.873  21.517   1.199
79704W        W44931  12.728   6.121   3.479
79705W        W44932  10.882  37.606   4.213
79706W        W44933   8.993  29.813  12.087
79707W        W44934   9.364  21.299   1.970
79708W        W44935   0.788  32.915  10.715
79709W        W44936  25.236  31.640  11.875
79710W        W44937  12.034  17.050  12.423
79711W        W44938  15.592  31.865  13.596
79712W        W44939  37.570  28.555  11.673
79713W        W44940  41.616  28.048   2.598
79714W        W44941  20.770  34.503  13.369
79715W        W44942   4.508  31.641   0.758
79716W        W44943  27.060  27.704  10.995
79717W        W44944  20.513  27.611   3.888
79718W        W44945   0.694  30.512   2.218
79719W        W44946  40.011   7.863   1.613
79720W        W44947  15.734  19.307  14.427
79721W        W44948  29.658   5.832   1.145
79722W        W44949  29.678  40.889  12.969
79723W        W44950  17.148  21.663   1.180
79724W        W44951  10.223  22.567   4.088
79725W        W44952   8.238  24.030   0.302
79726W        W44953   3.394   5.145  13.481
79727W        W44954  35.356  28.121   1.226
79728W        W44955  22.765   2.011   1.277
79729W        W44956  22.497  34.095   0.344
79730W        W44957  13.668   1.332   3.122
79731W        W44958  40.005   0.438  14.511
79732W        W44959   4.328  39.463   0.365
79733W        W44960  27.355  18.112   4.248
79734W        W44961  22.492  28.133   4.079
79735W        W44962   3.693   3.733   1.541
79736W        W44963  18.773  37.720  13.889
79737W        W44964  11.501  37.044  11.621
79738W        W44965  43.617  16.512   3.342
79739W        W44966  35.998  23.993  11.525
79740W        W44967  39.852   0.525   0.250
79741W        W44968  42.575  34.955   1.349
79742W        W44969  40.942  16.695   2.589
79743W        W44970  24.257  32.032   2.814
79744W        W44971  33.095  24.395  14.195
79745W        W44972  20.586  14.392   2.414
79746W        W44973  25.846  26.677  10.336
79747W        W44974   8.868  17.443  11.145
79748W        W44975  10.130  10.898   1.309
79749W        W44976  20.306  24.559  13.473
79750W        W44977  36.608   6.555   3.261
79751W        W44978  38.931  43.460   1.272
79752W        W44979   6.070  27.820   2.357
79753W        W44980  30.723  27.000   0.906
79754W        W44981  37.980  44.448   0.633
79755W        W44982  35.358  27.838   3.841
79756W        W44983  18.019   1.357   0.873
79757W        W44984  24.342  42.660  13.040
79758W        W44985  32.266  17.282   3.204
79759W        W44986  16.324  20.441  14.480
79760W        W44987  32.580   8.865   3.156
79761W        W44988  36.328   4.967  12.404
79762W        W44989   8.602  29.474  12.116
79763W        W44990   3.082   5.776  14.948
79764W        W44991  25.102   3.504   4.823
79765W        W44992   7.370  13.623   2.682
79766W        W44993   0.790  17.957   0.808
79767W        W44994   3.669  43.560  14.194
79768W        W44995  31.127  24.543  12.598
79769W        W44996  27.283  19.093   4.558
79770W        W44997  16.575   6.184   3.693
79771W        W44998   1.475  13.378  14.397
79772W        W44999  30.861  14.380   2.083
79773W        W45000  33.642   7.841   1.259
79774W        W45001  34.758  19.304  11.139
79775W        W45002   4.916   8.793  13.037
79776W        W45003  32.584  27.997  14.357
79777W        W45004  42.415  44.065  13.354
79778W        W45005  20.186   0.175   0.358
79779W        W45006  14.845  36.239   5.056
79780W        W45007  30.389  19.679   2.193
79781W        W45008  39.305  36.687   1.974
79782W        W45009  27.360  15.844  13.366
79783W        W45010  29.801  35.295   2.842
79784W        W45011  33.498  16.287  13.884
79785W        W45012  33.955  18.634   1.962
79786W        W45013  19.225  41.847   2.894
79787W        W45014   5.865  27.867  10.517
79788W        W45015  22.980  23.065   1.713
79789W        W45016  43.601   6.290   0.042
79790W        W45017  15.712  41.714   0.370
79791W        W45018  28.543  36.436  10.848
79792W        W45019   1.353  19.280   2.359
79793W        W45020  22.602  42.349  14.274
79794W        W45021  38.816  34.674  12.955
79795W        W45022  30.886  12.573  10.614
79796W        W45023  33.345  41.375  12.090
79797W        W45024  35.770  25.640   4.996
79798W        W45025  13.396  36.016   1.350
79799W        W45026  12.574  26.400  13.481
79800W        W45027  10.075   7.705  14.053
79801W        W45028  20.678   9.057  11.386
79802W        W45029  35.057  40.370  14.095
79803W        W45030  37.607  30.596   1.273
79804W        W45031   9.640  22.995  13.296
79805W        W45032  44.775  27.185   0.536
79806W        W45033  15.591  41.636   2.290
79807W        W45034  17.440  29.571   2.904
79808W        W45035  17.270  38.953  14.945
79809W        W45036  15.305  20.909   1.190
79810W        W45037   8.363  20.163  12.765
79811W        W45038   0.920  37.576   4.729
79812W        W45039  29.629  13.491   1.761
79813W        W45040  41.268  22.203  14.872
79814W        W45041  42.448  32.449   2.734
79815W        W45042  12.816  38.888   3.535
79816W        W45043  35.495  34.150   2.438
79817W        W45044  33.470  20.272   3.276
79818W        W45045  14.229  35.556   0.703
79819W        W45046  39.346  29.768   3.345
79820W        W45047   1.491  30.117   4.899
79821W        W45048  42.794  14.261   2.178
79822W        W45049  43.572  15.049  11.671
79823W        W45050   0.779  37.514   4.229
79824W        W45051  23.511   1.969   0.804
79825W        W45052   6.375  41.001   0.977
79826W        W45053  41.440  17.090  13.381
79827W        W45054  37.981   5.603   1.434
79828W        W45055   8.157   9.717   1.789
79829W        W45056  41.573  18.011  11.693
79830W        W45057   6.396  24.554  14.736
79831W        W45058  19.632  17.244   4.541
79832W        W45059  18.985  34.153  12.893
79833W        W45060  44.413  10.710   3.160
79834W        W45061  41.354  37.054  12.023
79835W        W45062  37.530   4.814   4.736
79836W        W45063  13.892  41.779   2.804
79837W        W45064   0.135  44.702   4.422
79838W        W45065  32.916  27.755   0.993
79839W        W45066  36.738  24.564   1.612
79840W        W45067  29.850   3.124  14.530
79841W        W45068  28.658  15.647  14.384
79842W        W45069  13.133  36.968  13.414
79843W        W45070  40.773  24.704  12.096
79844W        W45071   2.488  38.278   1.843
79845W        W45072  30.395  23.216   3.406
79846W        W45073   5.644  38.554   3.180
79847W        W45074  44.339   8.910  13.426
79848W        W45075   7.834  30.444   1.423
79849W        W45076  17.295  25.245  12.916
79850W        W45077  24.986  17.559  11.714
79851W        W45078   7.298  29.020  11.558
79852W        W45079  41.389  13.320   1.081
79853W        W45080  10.593  30.069  14.661
79854W        W45081  34.754   5.268   0.473
79855W        W45082  31.271  42.957   4.790
79856W        W45083   3.089  24.154  14.553
79857W        W45084  42.920  23.528   2.209
79858W        W45085   0.186  42.779   4.528
79859W        W45086  21.797  34.308  12.558
79860W        W45087   6.690  20.851   3.387
79861W        W45088  23.663  42.182  11.273
79862W        W45089  22.527  37.633   4.286
79863W        W45090  42.482   7.361   3.389
79864W        W45091  31.458   6.267   3.195
79865W        W45092  16.828  32.571  11.544
79866W        W45093  30.313  11.881  12.459
79867W        W45094  25.490  15.685   3.280
79868W        W45095  43.475  30.878   3.526
79869W        W45096  23.046   4.698  14.000
79870W        W45097  15.312  19.867   3.536
79871W        W45098  27.266  43.521  14.505
79872W        W45099  15.559  39.416  10.370
79873W        W45100   0.249  13.616   4.330
79874W        W45101  40.145  21.593  10.583
79875W        W45102  27.082  30.442  12.599
79876W        W45103   3.388  29.265  12.933
79877W        W45104  16.899  20.243  12.970
79878W        W45105   0.334  32.994   1.668
79879W        W45106   7.492  13.325  10.675
79880W        W45107  44.369  28.630   3.043
79881W        W45108  21.248   7.245   0.769
79882W        W45109  12.812  30.944   2.955
79883W        W45110  44.917  20.003  13.909
79884W        W45111  32.467  30.052   1.736
79885W        W45112  17.301  19.037   1.836
79886W        W45113  34.617  19.030   2.171
79887W        W45114  41.141  19.345  13.342
79888W        W45115  30.598   8.313   2.841
79889W        W45116   4.313  28.641  11.468
79890W        W45117  37.603  28.721  13.137
79891W        W45118   7.753  34.439  14.346
79892W        W45119   8.303  43.338  14.048
79893W        W45120  27.273  44.799   2.741
79894W        W45121  44.583  44.156   0.720
79895W        W45122  34.123  35.844  14.737
79896W        W45123  37.451  15.652   3.859
79897W        W45124  21.742   2.806   0.100
79898W        W45125  35.356  25.577   2.772
79899W        W45126  39.118  20.029  14.564
79900W        W45127   0.469   1.945  13.076
79901W        W45128  13.579  17.497  10.784
79902W        W45129  10.813  37.793   1.241
79903W        W45130  13.765  24.077  13.854
79904W        W45131   9.146  10.389   4.149
79905W        W45132  23.262  22.566  10.914
79906W        W45133  21.192  25.250  14.247
79907W        W45134  11.634   8.604  11.199
79908W        W45135  36.509  14.609  12.395
79909W        W45136  24.433  44.354  13.196
79910W        W45137  23.026  35.948   4.040
79911W        W45138   1.982   4.733   3.491
79912W        W45139  35.522  11.606  11.925
79913W        W45140  21.148  33.652   1.665
79914W        W45141  29.289  21.079  12.993
79915W        W45142  35.688   0.473   1.539
79916W        W45143  37.572  19.549   4.539
79917W        W45144  31.845  30.608  10.583
79918W        W45145  20.676  41.886   3.210
79919W        W45146  15.421  21.205   4.129
79920W        W45147  18.998  19.543  11.161
79921W        W45148  12.890  42.410   1.423
79922W        W45149   9.337   4.832  10.613
79923W        W45150  28.548   0.453  14.765
79924W        W45151  43.484  44.501  12.749
79925W        W45152  33.795   7.854  13.942
79926W        W45153  19.611  43.900  11.122
79927W        W45154  18.003  38.462   4.131
79928W        W45155   6.439   6.504  10.813
79929W        W45156  22.687  41.506   3.862
79930W        W45157  16.633  15.715  10.490
79931W        W45158  26.534  42.018   1.981
79932W        W45159   3.413  39.521  12.440
79933W        W45160  22.141  24.107   2.667
79934W        W45161  33.014  31.444  14.434
79935W        W45162  22.128   7.853  10.628
79936W        W45163  12.214  36.263   2.821
79937W        W45164  11.635  21.606  11.551
79938W        W45165  15.456  31.110  14.090
79939W        W45166  35.992  11.423   4.075
79940W        W45167  36.347   0.918  12.955
79941W        W45168  38.148  42.976   5.017
79942W        W45169  24.046  34.410   1.911
79943W        W45170   2.146  15.849  11.211
79944W        W45171  24.537  29.363  12.079
79945W        W45172  41.118  41.251  14.501
79946W        W45173  42.904  25.401   2.720
79947W        W45174  44.834  10.618  11.541
79948W        W45175  37.334  23.170  11.404
79949W        W45176  10.316  44.080  10.429
79950W        W45177  16.413  12.917  12.154
79951W        W45178  32.504  11.135   2.814
79952W        W45179  36.577  37.505  12.968
79953W        W45180  19.860   3.382  12.869
79954W        W45181  10.527  10.962   3.086
79955W        W45182  43.966  40.978   4.680
79956W        W45183  11.386   8.855   3.242
79957W        W45184   4.927   5.809  14.769
79958W        W45185  42.351  32.992  10.493
79959W        W45186  38.869   3.833  10.681
79960W        W45187  20.212  31.448   4.589
79961W        W45188  15.593  40.538   5.017
79962W        W45189  25.435  36.998  14.757
79963W        W45190  31.527  39.129  14.009
79964W        W45191  44.944  17.447   2.685
79965W        W45192   9.577  25.039  13.862
79966W        W45193  22.037  26.370  12.959
79967W        W45194  39.454  16.802   1.728
79968W        W45195  31.330  23.485   0.312
79969W        W45196  26.545  18.980   4.063
79970W        W45197  11.826  17.026  14.009
79971W        W45198  20.238   2.635  10.993
79972W        W45199  43.937   5.475   1.743
79973W        W45200  15.151  30.001  13.043
79974W        W45201  30.452   9.646   2.259
79975W        W45202  30.032  27.318   2.502
79976W        W45203  10.772  23.884   1.064
79977W        W45204  13.140  11.677   2.793
79978W        W45205  14.673  30.465   3.956
79979W        W45206  22.718  31.824   3.688
79980W        W45207  34.779  13.624  12.920
79981W        W45208  26.908  38.456  12.769
79982W        W45209  15.308  30.536  10.974
79983W        W45210   0.396  42.437  10.593
79984W        W45211  12.746  18.596  13.915
79985W        W45212  14.824  43.253  13.058
79986W        W45213  32.088   6.350   1.414
79987W        W45214  29.022  16.204  12.033
79988W        W45215  31.623  17.714   4.587
79989W        W45216  29.363   9.189  10.779
79990W        W45217  14.799  26.538   4.507
79991W        W45218   6.627  39.910  12.510
79992W        W45219  29.353  36.426  11.192
79993W        W45220  13.884   2.187  11.882
79994W        W45221  17.419   9.525   0.332
79995W        W45222   1.694  40.389   0.374
79996W        W45223  35.757   5.631   1.982
79997W        W45224  40.013   2.670  13.894
79998W        W45225  22.105  22.180   0.595
79999W        W45226  39.576  27.765  12.362
80000W        W45227  35.308  31.180   3.410
80001W        W45228  34.706   3.272  11.615
80002W        W45229  43.877  38.884  13.444
80003W        W45230   3.789  42.480  11.516
80004W        W45231  13.737  35.833  11.524
80005W        W45232  14.534  33.174  14.491
80006W        W45233  23.193  43.658   5.441
80007W        W45234  40.040   4.269  14.467
80008W        W45235  43.269  42.534   1.423
80009W        W45236  42.812  16.709  12.419
80010W        W45237  16.379  12.479   0.886
80011W        W45238  34.309  29.156  11.626
80012W        W45239  33.383   3.833   3.056
80013W        W45240  19.168   0.841  14.292
80014W        W45241  44.347  21.101   4.949
80015W        W45242  17.690   3.173   1.003
80016W        W45243  32.479  33.983   1.339
80017W        W45244  18.880  42.918  11.930
80018W        W45245  29.068  11.269  11.254
80019W        W45246  40.794   1.700   5.086
80020W        W45247  25.678  20.576  14.181
80021W        W45248  31.969   1.062   4.826
80022W        W45249   5.317  15.817   0.292
80023W        W45250  21.982  38.090   1.347
80024W        W45251  23.773  12.388   3.715
80025W        W45252  18.935  19.015   2.694
80026W        W45253  40.239  38.316  12.166
80027W        W45254  42.540   2.417  10.729
80028W        W45255  12.153  24.544   2.675
80029W        W45256  19.738  18.047   4.188
80030W        W45257  40.042   7.217   3.282
80031W        W45258  34.070   1.357   1.835
80032W        W45259  33.347  29.978  11.462
80033W        W45260  28.002  38.539  10.406
80034W        W45261  28.678  22.779  13.987
80035W        W45262  31.963  28.694   0.249
80036W        W45263   6.810   6.109  10.884
80037W        W45264   7.296  12.029   4.912
80038W        W45265  39.955   4.198   0.497
80039W        W45266  14.161   9.056   4.105
80040W        W45267  34.391   7.208   0.655
80041W        W45268  32.298  19.658   5.098
80042W        W45269  38.077  10.429   1.665
80043W        W45270  17.869  42.667  14.162
80044W        W45271  35.095  34.659   3.103
80045W        W45272  24.103  39.875   1.300
80046W        W45273  24.677   4.827   4.629
80047W        W45274  13.059  41.914   3.156
80048W        W45275  14.139   5.935   1.493
80049W        W45276  33.877   8.087   0.827
80050W        W45277  42.669  11.955  14.514
80051W        W45278  36.567  33.257  14.119
80052W        W45279  31.604   4.690   0.843
80053W        W45280  33.411   3.434  13.990
80054W        W45281  40.588   5.720  12.202
80055W        W45282   7.864   2.643  13.223
80056W        W45283  41.048  40.393  12.507
80057W        W45284  41.413  20.614   1.925
80058W        W45285  33.073  15.355   4.130
80059W        W45286  11.337  24.248   3.705
80060W        W45287  40.288  12.629  11.944
80061W        W45288  27.117   5.802   3.294
80062W        W45289  36.879   0.221  11.643
80063W        W45290  21.729  36.630   0.768
80064W        W45291  18.294   6.208   4.304
80065W        W45292   8.663   9.239  13.711
80066W        W45293  27.572  18.677  12.978
80067W        W45294  43.420   8.666   2.850
80068W        W45295  28.170  28.175   2.744
80069W        W45296  15.192  11.358  10.851
80070W        W45297  39.473  33.927  14.964
80071W        W45298  34.372   1.866   2.723
80072W        W45299  42.443   1.688   0.271
80073W        W45300  40.881   0.358  13.992
80074W        W45301  39.724   8.701   1.926
80075W        W45302  40.037  20.603   1.715
80076W        W45303  43.256  43.688   0.048
80077W        W45304  37.040  41.934  13.866
80078W        W45305   2.965  42.292   4.324
80079W        W45306   1.889  14.943   4.959
80080W        W45307  18.287  20.263  12.299
80081W        W45308  21.995   2.797   1.990
80082W        W45309  34.037  22.169  13.697
80083W        W45310  29.108  32.098  14.812
80084W        W45311  40.902   4.394   3.646
80085W        W45312  37.270  19.614   1.684
80086W        W45313  17.059   6.228  10.782
80087W        W45314  12.145  32.902  11.234
80088W        W45315   5.491  17.802  12.290
80089W        W45316  18.725   9.973  11.653
80090W        W45317   0.113  13.547  12.742
80091W        W45318  43.844  21.520  13.780
80092W        W45319  18.667   0.139  12.483
80093W        W45320  17.747  25.610  12.224
80094W        W45321  38.780  38.001  14.002
80095W        W45322  24.560  34.121   3.252
80096W        W45323  31.434  38.012   4.137
80097W        W45324  17.124  30.966  11.088
80098W        W45325   4.970  27.740  14.886
80099W        W45326  36.804   9.345  11.417
80100W        W45327  33.368  32.450   0.959
80101W        W45328  25.162  27.640   1.197
80102W        W45329  22.057  37.248   0.748
80103W        W45330  39.727  15.760   0.934
80104W        W45331  21.613  22.612  14.177
80105W        W45332   3.960  27.461  12.787
80106W        W45333  15.241  12.261  11.861
80107W        W45334  28.761   3.421   0.336
80108W        W45335  25.224  31.998   4.052
80109W        W45336  36.994  14.347  13.451
80110W        W45337  36.046  31.571   2.786
80111W        W45338  12.050  14.864   2.714
80112W        W45339  10.241  23.254  11.982
80113W        W45340  32.621  16.931  10.986
80114W        W45341  43.108  14.283  14.799
80115W        W45342  24.802  44.551   1.113
80116W        W45343  33.544  16.729  11.234
80117W        W45344  26.185  21.600  13.853
80118W        W45345  29.116  20.179  14.665
80119W        W45346  32.600  41.930  10.759
80120W        W45347  35.051  36.499   0.434
80121W        W45348  23.031  16.512  14.843
80122W        W45349  28.220  35.549   4.121
80123W        W45350  10.862  21.079  13.445
80124W        W45351  29.404  35.009   2.696
80125W        W45352   3.949   6.804   1.299
80126W        W45353  41.077  36.202   4.141
80127W        W45354  27.185   4.238  12.051
80128W        W45355   2.581  43.179   0.776
80129W        W45356   8.444  38.300   4.608
80130W        W45357  17.138  24.193   2.909
80131W        W45358  34.331   3.161  14.463
80132W        W45359  36.907  10.246  11.994
80133W        W45360  32.058  23.211   4.198
80134W        W45361   2.168   3.941  13.764
80135W        W45362  23.499  33.432   2.948
80136W        W45363  30.493  17.193  14.709
80137W        W45364   9.471  24.034   2.485
80138W        W45365  30.035  22.604  14.250
80139W        W45366  33.694  18.239   1.086
80140W        W45367   7.968  16.865  11.129
80141W        W45368  13.748   6.493   1.278
80142W        W45369  23.732  27.633  13.914
80143W        W45370   1.123  16.310   1.562
80144W        W45371   1.953  16.844  11.990
80145W        W45372   6.369  33.445  11.948
80146W        W45373   8.183   6.167  11.403
80147W        W45374  37.135  36.902   3.992
80148W        W45375  14.644  15.822  13.345
80149W        W45376   8.351   2.725  11.502
80150W        W45377  23.674  14.248  12.991
80151W        W45378  23.037  10.506  14.832
80152W        W45379  13.135  27.547  11.034
80153W        W45380  39.273  12.424   0.893
80154W        W45381   8.213  11.751   0.346
80155W        W45382  39.312  27.003  11.761
80156W        W45383  17.195  37.994   0.777
80157W        W45384   1.808  27.148  13.355
80158W        W45385  36.944   5.256   2.262
80159W        W45386  21.746  22.157  10.347
80160W        W45387  38.345  26.167   3.599
80161W        W45388  36.772   8.241  12.451
80162W        W45389  37.485  30.496  11.131
80163W        W45390  41.965   3.830   3.109
80164W        W45391  17.090  15.713  13.886
80165W        W45392  22.057  11.159   3.265
80166W        W45393  28.210  21.030   3.642
80167W        W45394  11.813  44.984   0.841
80168W        W45395  41.184  16.200   2.310
80169W        W45396  23.387  25.844  13.090
80170W        W45397  33.357  35.821  11.829
80171W        W45398  36.100  42.719   0.598
80172W        W45399  20.025  43.422   2.400
80173W        W45400  26.463  43.046  10.637
80174W        W45401   1.766  25.671   4.057
80175W        W45402  13.706   7.204  14.950
80176W        W45403  32.415   3.755   2.582
80177W        W45404   9.743  26.960  12.611
80178W        W45405  38.086  21.717  11.435
80179W        W45406  27.889  43.864  12.944
80180W        W45407  16.367  22.613  12.935
80181W        W45408  40.760  32.436   2.210
80182W        W45409  20.449  21.621  13.568
80183W        W45410  37.905  37.062   4.525
80184W        W45411  44.483  28.493  12.712
80185W        W45412  28.876  38.041   2.116
80186W        W45413  38.917  18.484  13.969
80187W        W45414  44.841  44.595   2.835
80188W        W45415   0.387  14.065  11.120
80189W        W45416  10.379  36.057  13.780
80190W        W45417  26.941  32.877  13.066
80191W        W45418  43.585   7.693   2.238
80192W        W45419   1.674  24.370  12.072
80193W        W45420  43.663  28.002   9.834
80194W        W45421  21.004  33.393   3.796
80195W        W45422   1.260  22.170   3.129
80196W        W45423  18.263  27.231   3.786
80197W        W45424  23.706  35.603  14.687
80198W        W45425  11.462  21.885   0.770
80199W        W45426  35.371  33.356   3.399
80200W        W45427  19.402  20.011   3.385
80201W        W45428  15.908  20.783  14.372
80202W        W45429   6.710  10.329  12.924
80203W        W45430  18.239   0.723  14.069
80204W        W45431   5.983   5.672  14.840
80205W        W45432  36.251  32.846  14.045
80206W        W45433  15.250   2.430  12.019
80207W        W45434   6.973  10.778   2.723
80208W        W45435  19.273   5.582  12.602
80209W        W45436  31.277   7.332   0.806
80210W        W45437  31.131  29.253  11.108
80211W        W45438   2.260  43.200  12.118
80212W        W45439  22.734  42.412   2.875
80213W        W45440   5.882   6.504   4.544
80214W        W45441  37.339  33.796  11.481
80215W        W45442  21.520  13.860   2.260
80216W        W45443   0.857  34.463   4.602
80217W        W45444  10.339  21.668  10.271
80218W        W45445  28.590  10.676  14.545
80219W        W45446   4.363   6.294   1.084
80220W        W45447  40.487  20.204  10.772
80221W        W45448  31.912  13.892   9.983
80222W        W45449  35.400  22.965   1.788
80223W        W45450   8.413  30.119  11.993
80224W        W45451  34.234  17.536  12.074
80225W        W45452  11.312   4.217   0.281
80226W        W45453  13.837  22.148   2.314
80227W        W45454  36.349  25.427  11.178
80228W        W45455  41.040  15.092  13.556
80229W        W45456  26.594  34.488   4.081
80230W        W45457   1.240  10.775   0.093
80231W        W45458   3.359  27.725   2.403
80232W        W45459  22.155  35.672  11.344
80233W        W45460  43.907  42.877   2.433
80234W        W45461   8.275   9.182   0.792
80235W        W45462  25.776  18.219   1.181
80236W        W45463  43.997   1.673   2.322
80237W        W45464  38.251  35.827   0.500
80238W        W45465   3.077  35.791   2.963
80239W        W45466  25.599  11.878  10.983
80240W        W45467  29.043  21.661   1.418
80241W        W45468  32.164  42.781  11.683
80242W        W45469  20.706  38.777  14.960
80243W        W45470  17.734   7.155  13.995
80244W        W45471   1.478  38.046  11.263
80245W        W45472  23.223   3.818  11.543
80246W        W45473   7.184   7.921   3.310
80247W        W45474  40.020  28.537   2.284
80248W        W45475  44.990  34.546   3.137
80249W        W45476  17.187  36.397  13.259
80250W        W45477  17.704  43.921  10.733
80251W        W45478   1.827   0.158   0.931
80252W        W45479  21.641  16.220  14.956
80253W        W45480   1.916  20.183  14.849
80254W        W45481  28.740   7.080   0.022
80255W        W45482  15.543   0.969   2.279
80256W        W45483   4.038  28.506   1.461
80257W        W45484   7.854  33.451  14.321
80258W        W45485  41.419   3.219   2.611
80259W        W45486  25.669  44.904  10.646
80260W        W45487  16.129  16.317   0.842
80261W        W45488  41.715   5.394   4.969
80262W        W45489  13.633   0.495   0.013
80263W        W45490  35.229  29.793  13.058
80264W        W45491  13.592  26.596  12.391
80265W        W45492   8.700  44.344  13.570
80266W        W45493   3.569  39.956   0.389
80267W        W45494  39.027  37.562   1.840
80268W        W45495  25.230   4.241   3.132
80269W        W45496  28.679  30.606   3.214
80270W        W45497   7.657  13.864  10.649
80271W        W45498   7.109   9.743   4.156
80272W        W45499  22.072  33.482   4.408
80273W        W45500   4.154  35.528   2.740
80274W        W45501  29.153  21.663  13.051
80275W        W45502  29.097   1.889  11.192
80276W        W45503  26.883  16.934   0.606
80277W        W45504  38.806   5.303   2.308
80278W        W45505  24.809  12.288  10.448
80279W        W45506  36.730  41.507  13.969
80280W        W45507  16.198  44.867  14.695
80281W        W45508   3.138  41.346   0.472
80282W        W45509  13.766  18.294  10.784
80283W        W45510  41.202  36.095  11.027
80284W        W45511  24.109  39.875  10.639
80285W        W45512  17.584   6.396  12.073
80286W        W45513  19.489   4.879   4.185
80287W        W45514  15.741  21.068  12.431
80288W        W45515  25.530  10.636  10.754
80289W        W45516  32.079  24.247   1.750
80290W        W45517  35.141  31.946   0.835
80291W        W45518  25.907  13.296  10.655
80292W        W45519  37.014  29.061   2.571
80293W        W45520   1.115   0.248  13.716
80294W        W45521   1.253  15.239  14.907
80295W        W45522   0.293   5.514  11.207
80296W        W45523  11.444  24.338  12.959
80297W        W45524  32.157  18.282   0.658
80298W        W45525  22.155  17.232   1.862
80299W        W45526  30.070   5.749  11.870
80300W        W45527  40.061  37.380  10.774
80301W        W45528  26.119   1.765  14.520
80302W        W45529  33.301  10.241  12.456
80303W        W45530  43.189   1.807   5.004
80304W        W45531  32.944  26.453  12.994
80305W        W45532  23.003  22.687  11.972
80306W        W45533   0.592  42.380   5.529
80307W        W45534  39.055  26.016  11.021
80308W        W45535  43.689  43.467   1.221
80309W        W45536   2.856  36.813  13.365
80310W        W45537  11.111  38.869  11.935
80311W        W45538   2.373   6.815   4.647
80312W        W45539  26.819  42.278   0.030
80313W        W45540  12.048  18.668   1.894
80314W        W45541  30.410  20.091   1.758
80315W        W45542  14.755   1.897  11.427
80316W        W45543  28.489  19.117   3.251
80317W        W45544  37.527  13.593   2.930
80318W        W45545  23.442   1.409  14.762
80319W        W45546   7.341  12.708   2.615
80320W        W45547  22.915   9.690  14.969
80321W        W45548   9.970   5.415   4.365
80322W        W45549   3.182  19.531   2.548
80323W        W45550  10.103   1.989  14.854
80324W        W45551   9.543  19.950  13.122
80325W        W45552  13.223  43.994  13.493
80326W        W45553   3.438  34.360   1.729
80327W        W45554  34.202   6.898   2.271
80328W        W45555  22.845   5.150  13.890
80329W        W45556  32.783  24.100  12.929
80330W        W45557  16.071  40.441  10.422
80331W        W45558   9.929   4.298  14.864
80332W        W45559   4.395   1.883  13.295
80333W        W45560  41.413  44.635   3.366
80334W        W45561  40.864  16.314   1.325
80335W        W45562  13.991  29.200  12.390
80336W        W45563  38.341  27.802  11.870
80337W        W45564   7.128  39.440  11.968
80338W        W45565  32.314  20.585  11.673
80339W        W45566  13.318   4.861  14.532
80340W        W45567  11.292  16.134   3.259
80341W        W45568  36.094   4.492  12.629
80342W        W45569  41.609  38.111  11.962
80343W        W45570  33.642  10.759   1.325
80344W        W45571  37.077  34.918   2.603
80345W        W45572  34.929  29.427  10.781
80346W        W45573   5.316  31.486  10.703
80347W        W45574  21.429   9.872  10.666
80348W        W45575   3.923  28.189   0.743
80349W        W45576  31.404   0.998  10.428
80350W        W45577  27.615   1.437  14.945
80351W        W45578  24.116   1.496   1.449
80352W        W45579  25.962  25.967   0.498
80353W        W45580   1.262  38.888   3.433
80354W        W45581  37.062  17.336  14.372
80355W        W45582  31.020   2.294  12.056
80356W        W45583  27.123   9.942  12.934
80357W        W45584  40.715  39.435  11.533
80358W        W45585  29.600  39.309  12.502
80359W        W45586  34.896  37.322  12.870
80360W        W45587  39.903  36.895  11.977
80361W        W45588  34.823  11.280   0.903
80362W        W45589  43.758   2.470   3.231
80363W        W45590  33.395  42.485   0.247
80364W        W45591  40.787  21.894   3.706
80365W        W45592  12.617  13.362  13.068
80366W        W45593  39.271  24.426   0.330
80367W        W45594   0.903  24.740  12.488
80368W        W45595  44.803  16.877   0.382
80369W        W45596   9.916  34.408  13.623
80370W        W45597  36.129   6.788   2.343
80371W        W45598  16.001  35.962  11.590
80372W        W45599   7.709  26.261  10.902
80373W        W45600  16.641  37.382  14.877
80374W        W45601  22.424  30.539  13.593
80375W        W45602  42.958  17.346   1.345
80376W        W45603  24.490  14.167   1.521
80377W        W45604  22.442   5.370   0.072
80378W        W45605  32.324  35.408   2.253
80379W        W45606  22.211   3.100  11.301
80380W        W45607  26.340   6.862  14.980
80381W        W45608  26.122  41.467  12.854
80382W        W45609  14.316  12.974  13.516
80383W        W45610  17.629   6.299   5.083
80384W        W45611  16.232  12.712  11.729
80385W        W45612  32.816  38.255   1.923
80386W        W45613   7.927  40.007   0.380
80387W        W45614  12.051   0.614  12.515
80388W        W45615  29.100   7.672  10.556
80389W        W45616  29.546  17.489  13.385
80390W        W45617  42.846  44.764   3.139
80391W        W45618  35.103  17.845  12.359
80392W        W45619   3.886  14.251   1.319
80393W        W45620  12.477  11.754  12.889
80394W        W45621  17.323  40.066   1.748
80395W        W45622  33.389  14.981   0.533
80396W        W45623  39.352  33.885   3.225
80397W        W45624  42.331  12.003   1.108
80398W        W45625  10.836  16.289  11.098
80399W        W45626  12.003  29.419  14.266
80400W        W45627  25.476  36.389   4.193
80401W        W45628  24.462  13.693  10.656
80402W        W45629  31.234  14.037  13.535
80403W        W45630   9.158  12.027  12.715
80404W        W45631   8.296  35.698   1.321
80405W        W45632  26.679  40.396  11.216
80406W        W45633   0.029  35.778  12.971
80407W        W45634  41.582   7.256  13.461
80408W        W45635  38.390  40.463   2.633
80409W        W45636  19.970  16.648   4.134
80410W        W45637  15.857  40.041  10.054
80411W        W45638  23.187  11.120  12.653
80412W        W45639  26.868  14.233   3.437
80413W        W45640  40.791  12.223  13.616
80414W        W45641  27.150  13.599   1.227
80415W        W45642   6.772   0.317  11.913
80416W        W45643  32.826  32.938   0.299
80417W        W45644  28.113  15.668  12.603
80418W        W45645   6.644  25.504  14.390
80419W        W45646   0.609  36.880  13.341
80420W        W45647   0.960  12.971   4.744
80421W        W45648  29.261   3.369   2.297
80422W        W45649  38.199  12.896  11.453
80423W        W45650  40.775  15.993   3.808
80424W        W45651  33.264  44.210  12.262
80425W        W45652  10.610  31.513  13.627
80426W        W45653   2.333  21.489  11.662
80427W        W45654  16.203  16.037   1.778
80428W        W45655  32.178  34.481   3.420
80429W        W45656  10.097  35.941  11.122
80430W        W45657   1.295  34.132  13.288
80431W        W45658   9.124  10.236   1.773
80432W        W45659   4.454  17.736  14.695
80433W        W45660  15.793  21.428   2.767
80434W        W45661   6.200  29.495  13.931
80435W        W45662  26.949  10.766  10.758
80436W        W45663  34.398  10.327   0.382
80437W        W45664  39.823   1.071   1.406
80438W        W45665   0.520  25.196   1.134
80439W        W45666  37.461  38.581  14.972
80440W        W45667  42.392   9.109  12.609
80441W        W45668  27.595  42.504   0.445
80442W        W45669  42.012   1.704  10.620
80443W        W45670  43.957  21.153   4.090
80444W        W45671  21.533   5.753  11.699
80445W        W45672  36.008   7.121   4.745
80446W        W45673  21.146  44.525  11.272
80447W        W45674  10.608  20.656   4.748
80448W        W45675  14.921  36.721   4.299
80449W        W45676   6.320  17.655  13.289
80450W        W45677  25.433   7.390   3.956
80451W        W45678  36.874  14.362   0.538
80452W        W45679  24.616  11.940   1.306
80453W        W45680  19.618  33.640   3.769
80454W        W45681  43.304   5.010   9.629
80455W        W45682  35.512  36.051  12.861
80456W        W45683  44.029   9.624   0.633
80457W        W45684  32.357   4.348   0.467
80458W        W45685  18.501  39.040   2.376
80459W        W45686  21.646  38.361  10.749
80460W        W45687  28.161  36.420  10.244
80461W        W45688   5.292  19.390   0.423
80462W        W45689   8.546  36.538  13.113
80463W        W45690  17.371  14.210  13.594
80464W        W45691   8.385   0.124  12.177
80465W        W45692  11.350  28.251  11.448
80466W        W45693   5.468   1.186  12.187
80467W        W45694  19.774  19.625   4.104
80468W        W45695  38.009  24.971   4.203
80469W        W45696  13.659  30.454  13.390
80470W        W45697  27.027  29.355   3.951
80471W        W45698   0.440  18.815   0.802
80472W        W45699   0.390  16.150  10.626
80473W        W45700   4.008  18.732  13.518
80474W        W45701  24.180  44.682  14.949
80475W        W45702  38.340  36.286  14.525
80476W        W45703  25.400  29.976   3.850
80477W        W45704  20.523   2.698  10.369
80478W        W45705  41.479   3.006  13.910
80479W        W45706   4.230  24.047  12.554
80480W        W45707  30.546   9.967   1.847
80481W        W45708  20.279  29.744  11.386
80482W        W45709  33.690  17.043  14.804
80483W        W45710  25.033   7.898   4.678
80484W        W45711  33.197  26.655  11.662
80485W        W45712  41.316  43.197   0.419
80486W        W45713  31.096  29.214   0.319
80487W        W45714  22.109  41.803  12.080
80488W        W45715  16.117  23.923  12.850
80489W        W45716  19.804  38.490   2.534
80490W        W45717  30.006  20.943   2.166
80491W        W45718  19.081  35.092  14.329
80492W        W45719  21.551  25.542   2.765
80493W        W45720   7.424   8.149   2.053
80494W        W45721  15.242  34.121  12.590
80495W        W45722  21.381  33.189  12.541
80496W        W45723  36.262  21.095   2.806
80497W        W45724  13.662  20.970  11.979
80498W        W45725  39.160  35.533  12.175
80499W        W45726   9.185  13.987   0.302
80500W        W45727  36.867  15.845   1.630
80501W        W45728  30.208  30.494  12.871
80502W        W45729  31.665  38.575   3.255
80503W        W45730  20.612  12.886  11.105
80504W        W45731   5.835  42.834   0.196
80505W        W45732  22.571  33.641   4.201
80506W        W45733  28.973   7.901   3.725
80507W        W45734  32.359   3.143  14.892
80508W        W45735  39.757  29.531  13.427
80509W        W45736  17.212  37.346   2.335
80510W        W45737  17.654   5.112   0.957
80511W        W45738  35.961  18.660   1.471
80512W        W45739  30.259  39.609  13.469
80513W        W45740  33.345  29.952  12.882
80514W        W45741  32.634  37.019   1.202
80515W        W45742  11.632  40.490   4.006
80516W        W45743  29.484  14.519  14.384
80517W        W45744  37.769   6.584   4.514
80518W        W45745   5.869  31.698   4.243
80519W        W45746   3.306   6.202  13.278
80520W        W45747   6.130   6.476  13.491
80521W        W45748  44.297  10.483   4.565
80522W        W45749   3.001   9.203  12.083
80523W        W45750   7.330  15.645  12.129
80524W        W45751  19.486  37.900  11.776
80525W        W45752  13.395   9.211   0.323
80526W        W45753   1.395  20.577   2.684
80527W        W45754   0.464  15.973  12.552
80528W        W45755   0.999  25.526  10.695
80529W        W45756  21.550  18.643   2.819
80530W        W45757   4.252  12.190   2.538
80531W        W45758  19.022  40.310  11.620
80532W        W45759  11.262  19.528   2.152
80533W        W45760  21.982  33.706  10.860
80534W        W45761  29.951   1.484  12.138
80535W        W45762  39.817  16.114   3.742
80536W        W45763  24.372   3.067  11.194
80537W        W45764  42.020  28.508   0.822
80538W        W45765   1.420   5.563  14.899
80539W        W45766   2.041  33.495  11.625
80540W        W45767  35.380  34.658   2.511
80541W        W45768  27.359  20.565   1.731
80542W        W45769  42.446   3.026   2.666
80543W        W45770   4.410  18.944   2.891
80544W        W45771  19.776  13.358  11.671
80545W        W45772  20.068   4.609  11.285
80546W        W45773  15.124  17.739  10.740
80547W        W45774   0.533  22.281  10.674
80548W        W45775  21.675   0.037  13.017
80549W        W45776  14.736  27.157   2.725
80550W        W45777  16.625   5.317  12.087
80551W        W45778  24.970   2.979   1.728
80552W        W45779   3.712  26.792   0.897
80553W        W45780  35.688  17.327  14.671
80554W        W45781  18.580  15.997  13.911
80555W        W45782   5.950  34.461   3.624
80556W        W45783  18.666   3.204   2.696
80557W        W45784  42.195  42.466   0.859
80558W        W45785   2.975  30.129  11.521
80559W        W45786  30.032  40.125  13.396
80560W        W45787  23.121  31.096   2.857
80561W        W45788   9.635  21.223  10.749
80562W        W45789  35.852  38.649   1.198
80563W        W45790  22.130  41.242   4.532
80564W        W45791   5.592   6.838  12.868
80565W        W45792  28.299  10.919  12.116
80566W        W45793  22.025  38.436  14.729
80567W        W45794  12.314  44.116  10.660
80568W        W45795  32.275  21.756  11.990
80569W        W45796  34.200  10.665   2.743
80570W        W45797  42.577  43.612  11.159
80571W        W45798   6.275  33.570   3.683
80572W        W45799  40.606  23.489  13.048
80573W        W45800  38.559   0.382  14.333
80574W        W45801  16.539  23.129  14.043
80575W        W45802  12.981  10.730  10.770
80576W        W45803  19.522  22.110  11.406
80577W        W45804  23.872  38.551  11.098
80578W        W45805  42.263  12.515  13.383
80579W        W45806   5.117  18.756  12.380
80580W        W45807   9.945  20.816  10.938
80581W        W45808  17.078  19.500  14.019
80582W        W45809  12.663  44.977  11.340
80583W        W45810  28.063  35.370   3.663
80584W        W45811   2.064  15.658   2.645
80585W        W45812  32.038  41.168  10.813
80586W        W45813  33.693  22.507  13.875
80587W        W45814  11.178  29.443  10.829
80588W        W45815   9.703   7.044   1.714
80589W        W45816  17.261  25.883   2.232
80590W        W45817  26.492   1.986   2.765
80591W        W45818  42.235  35.816   3.885
80592W        W45819  35.042  32.109  12.498
80593W        W45820  36.933  41.367   2.431
80594W        W45821   4.572   3.000   1.146
80595W        W45822   6.561  30.724   2.861
80596W        W45823   6.232  37.201  10.758
80597W        W45824  26.934   5.887  14.407
80598W        W45825   1.765  33.345  10.979
80599W        W45826  19.792   8.257   1.271
80600W        W45827  39.891   3.917  14.860
80601W        W45828   1.744  35.312   1.479
80602W        W45829  36.830   1.010   3.599
80603W        W45830   8.938  14.903   3.232
80604W        W45831   8.773  20.775   4.584
80605W        W45832  30.530   7.137  14.888
80606W        W45833  37.149  22.021   4.726
80607W        W45834   0.361  32.845   0.124
80608W        W45835  25.714  17.171  13.394
80609W        W45836  44.717  40.546   2.599
80610W        W45837  16.768  38.197  12.593
80611W        W45838  19.640  33.766   0.688
80612W        W45839  12.078   8.116   4.178
80613W        W45840   1.809   8.707  13.888
80614W        W45841  10.215  28.622   1.276
80615W        W45842  21.674   4.967  10.313
80616W        W45843   2.193   5.835   4.964
80617W        W45844  29.716   7.845   3.326
80618W        W45845   1.018  41.305  12.569
80619W        W45846  15.730   0.316   0.668
80620W        W45847  28.345  13.185   4.954
80621W        W45848  38.869   1.850  12.434
80622W        W45849  23.887   2.981  13.179
80623W        W45850  31.872  25.967   0.461
80624W        W45851  13.349  44.331   3.302
80625W        W45852  22.643  36.568   1.800
80626W        W45853   1.178  13.668   0.432
80627W        W45854  13.868  17.482  12.874
80628W        W45855  15.651   4.941  10.778
80629W        W45856  43.491   9.715  13.058
80630W        W45857   9.161  35.895  14.266
80631W        W45858   6.871  26.246   4.672
80632W        W45859  16.006  31.508   3.087
80633W        W45860  11.169  21.719   1.342
80634W        W45861  36.153   7.611  13.368
80635W        W45862  30.308  20.536   4.767
80636W        W45863  20.569   3.388  11.183
80637W        W45864  17.110  26.360  10.212
80638W        W45865  39.271  43.310  11.711
80639W        W45866  36.059  43.999  10.738
80640W        W45867  43.510  44.875   2.575
80641W        W45868   8.144  40.934   2.441
80642W        W45869  35.548  31.976  12.404
80643W        W45870   0.183   7.668   2.243
80644W        W45871  11.758   9.638   9.954
80645W        W45872  36.897  39.356  13.878
80646W        W45873  41.163  40.352  13.949
80647W        W45874   4.322   4.598   2.389
80648W        W45875  15.208  11.418  12.933
80649W        W45876   3.202  24.596   1.710
80650W        W45877   5.564  34.205   3.836
80651W        W45878  29.922  20.112   1.915
80652W        W45879   7.111   3.350   3.060
80653W        W45880  35.417  40.335   4.830
80654W        W45881  36.570   1.253   0.227
80655W        W45882  33.241  40.585   1.641
80656W        W45883   6.669  40.437  14.901
80657W        W45884  35.019  40.315  13.595
80658W        W45885  44.086  16.808  14.031
80659W        W45886  30.424  33.445  14.857
80660W        W45887  26.576   1.560  13.384
80661W        W45888   0.331  14.788   1.902
80662W        W45889  28.374  27.170  12.222
80663W        W45890   2.917  44.760   0.402
80664W        W45891  27.022  14.403  14.786
80665W        W45892   0.200   9.928  13.974
80666W        W45893   6.979  26.752  13.899
80667W        W45894  20.997  28.152   3.170
80668W        W45895  17.283  28.678  11.210
80669W        W45896  28.305  32.126  12.768
80670W        W45897   8.089  31.675   0.452
80671W        W45898  44.465  24.766  10.615
80672W        W45899  24.687  32.030  14.329
80673W        W45900   3.914  10.635   3.261
80674W        W45901  44.868  35.736  12.134
80675W        W45902  20.658  18.000  14.642
80676W        W45903   1.493  20.734   4.030
80677W        W45904  25.239  28.963   3.702
80678W        W45905  34.406  15.827  13.094
80679W        W45906  24.491  33.500  11.515
80680W        W45907  18.959   0.262   2.533
80681W        W45908  27.307  18.970   0.385
80682W        W45909  30.922  22.498   2.413
80683W        W45910   4.859  31.246   2.979
80684W        W45911  36.028   0.744   2.693
80685W        W45912  24.228  39.169  11.167
80686W        W45913  44.297  39.308  11.539
80687W        W45914  27.778  25.741  11.966
80688W        W45915  37.879  16.335   3.330
80689W        W45916  15.739  12.023   3.112
80690W        W45917   5.675  25.477   4.395
80691W        W45918   5.238  20.315  14.142
80692W        W45919  22.964  43.957  12.416
80693W        W45920  12.980   2.986   4.928
80694W        W45921   5.191   7.780  13.790
80695W        W45922  37.225  16.410   4.881
80696W        W45923  18.950  22.953  14.940
80697W        W45924  31.530  43.182  11.515
80698W        W45925  15.648   1.206   2.710
80699W        W45926  37.835  17.816  14.821
80700W        W45927  20.902   5.462   4.381
80701W        W45928   1.867  41.057   0.887
80702W        W45929  41.347  41.288   3.160
80703W        W45930  16.526  28.350   2.211
80704W        W45931  37.736  10.297  14.216
80705W        W45932   7.941  42.571   4.204
80706W        W45933  16.638  41.085   3.032
80707W        W45934  16.766   0.736   2.808
80708W        W45935  33.346   7.565   4.956
80709W        W45936  30.818   5.628  11.161
80710W        W45937  42.450  20.115  12.628
80711W        W45938  25.192  16.610   3.160
80712W        W45939  34.939  20.743  14.919
80713W        W45940   0.864  15.878   1.347
80714W        W45941  36.677   9.176  11.877
80715W        W45942  34.534  27.947   4.570
80716W        W45943   5.972  43.908   3.816
80717W        W45944  44.251  26.642   1.889
80718W        W45945  17.348  28.387  12.430
80719W        W45946  29.579  40.833  12.282
80720W        W45947  31.658  24.486   1.961
80721W        W45948  43.884  42.540  10.920
80722W        W45949  36.105  27.213   2.698
80723W        W45950  39.702  28.717   2.825
80724W        W45951  44.479  20.712  12.931
80725W        W45952  43.988  14.618   2.871
80726W        W45953  36.639  43.009   2.084
80727W        W45954  13.735  14.835  10.691
80728W        W45955   9.226  32.120   5.174
80729W        W45956  22.417  23.604  11.212
80730W        W45957  12.613  28.178   2.455
80731W        W45958   6.723  43.542  14.420
80732W        W45959  23.447   2.186   4.241
80733W        W45960  26.058   4.204   3.604
80734W        W45961  28.198  33.536   1.515
80735W        W45962  30.090  34.098  13.252
80736W        W45963  32.639  32.422  10.692
80737W        W45964  19.197  24.234   3.151
80738W        W45965  35.054   0.859  13.539
80739W        W45966  18.187   8.207   4.954
80740W        W45967  29.869  14.862  10.684
80741W        W45968  44.364  42.859   2.196
80742W        W45969   6.302   3.191   2.938
80743W        W45970  35.595  28.140   2.990
80744W        W45971  30.495   7.444   1.761
80745W        W45972   9.658  41.991   2.270
80746W        W45973  21.560  42.139  12.098
80747W        W45974   6.983  37.857  12.745
80748W        W45975  17.810  35.342   3.395
80749W        W45976   5.862  39.643  13.541
80750W        W45977  25.983  16.810   2.746
80751W        W45978  21.559  44.255   0.324
80752W        W45979   9.096  35.490  13.962
80753W        W45980   7.777  18.897   3.050
80754W        W45981  18.549  19.494  12.636
80755W        W45982  41.302  24.819  14.377
80756W        W45983  29.973  26.056   0.530
80757W        W45984  20.909  16.130  12.823
80758W        W45985  22.805  40.503   9.878
80759W        W45986  38.101  10.204  10.867
80760W        W45987  41.349  40.874   1.246
80761W        W45988   1.320   1.734   2.341
80762W        W45989  11.759  16.035  11.570
80763W        W45990   6.833  22.599  10.761
80764W        W45991  23.521  14.350   1.717
80765W        W45992   6.742  28.071   1.669
80766W        W45993  11.401  21.726  14.852
80767W        W45994  23.970  42.575   0.511
80768W        W45995  43.656   6.727   1.323
80769W        W45996  23.817  30.609  10.749
80770W        W45997   1.203  36.933  11.943
80771W        W45998  36.597  35.073   2.489
80772W        W45999  16.724  40.795  10.521
80773W        W46000  17.773  19.916   0.082
80774W        W46001   9.323  43.333   2.280
80775W        W46002  21.186  29.270  11.794
80776W        W46003  12.630  27.777  11.085
80777W        W46004  30.386  17.785   0.034
80778W        W46005  35.111  26.384   0.356
80779W        W46006  43.767   4.928  13.909
80780W        W46007  24.690  41.561  11.107
80781W        W46008  37.571   9.757   1.908
80782W        W46009  29.013   4.715  14.726
80783W        W46010  22.736  44.437   1.950
80784W        W46011  23.062  20.299  11.108
80785W        W46012  44.729  37.394  14.665
80786W        W46013  29.371  42.314  14.635
80787W        W46014  28.145   2.773  14.942
80788W        W46015  37.060   2.230  14.402
80789W        W46016  20.721  15.854  10.729
80790W        W46017  16.176   5.730  10.384
80791W        W46018  23.922  20.108  12.367
80792W        W46019  39.521   9.169  11.453
80793W        W46020  24.062   6.282  14.401
80794W        W46021  27.607  39.816   4.611
80795W        W46022  25.013   6.279  13.118
80796W        W46023  34.519  40.415  12.389
80797W        W46024  36.046  21.117   1.262
80798W        W46025  42.653  24.214   0.950
80799W        W46026  35.893   4.677  12.195
80800W        W46027  10.638  22.509   1.192
80801W        W46028  15.161   5.256   1.033
80802W        W46029  18.787  37.717  10.501
80803W        W46030   9.239   2.247  10.626
80804W        W46031  22.035  39.931  14.764
80805W        W46032  32.372  31.089  12.373
80806W        W46033  40.182  22.788  13.629
80807W        W46034  27.273  31.952   1.230
80808W        W46035  22.685   8.367  14.327
80809W        W46036  31.357  13.573  12.928
80810W        W46037  17.640  38.370  13.925
80811W        W46038  18.552  32.252  13.907
80812W        W46039  41.899  11.205  12.914
80813W        W46040  31.360  28.180   5.341
80814W        W46041  20.606  18.708   4.615
80815W        W46042  26.403  16.145  12.260
80816W        W46043  14.175   3.262   3.735
80817W        W46044   8.181  16.796   2.679
80818W        W46045  24.298  21.443   0.536
80819W        W46046   1.538  19.002  14.505
80820W        W46047  41.205  38.214   3.127
80821W        W46048  18.742  12.429  10.728
80822W        W46049  25.057  33.078  14.906
80823W        W46050  29.787  30.195  10.212
80824W        W46051  25.053   7.331  14.823
80825W        W46052  41.109   1.617   2.962
80826W        W46053  16.872  34.569   1.287
80827W        W46054   4.068   1.979   2.704
80828W        W46055  15.101   8.891  14.416
80829W        W46056  35.521  26.266   3.553
80830W        W46057  18.170  31.379  12.929
80831W        W46058  10.110  12.870  11.271
80832W        W46059  17.568  16.967   1.432
80833W        W46060  10.258  25.434   0.100
80834W        W46061   8.612  26.990  11.767
80835W        W46062  22.119   9.603  11.196
80836W        W46063  27.660  21.703   4.124
80837W        W46064  25.699   4.185   1.051
80838W        W46065  28.188  31.163  13.696
80839W        W46066   4.349  21.060   2.304
80840W        W46067   8.321  23.435   2.921
80841W        W46068  10.220   5.964  12.626
80842W        W46069  18.314  22.171  12.049
80843W        W46070  20.744  17.040   2.759
80844W        W46071  35.909  26.112  13.457
80845W        W46072  18.271  42.998  10.370
80846W        W46073  21.787  11.298  10.794
80847W        W46074  37.355  13.774   2.484
80848W        W46075   5.875  38.985   3.343
80849W        W46076  19.221  24.486  13.614
80850W        W46077   6.329  41.526   0.419
80851W        W46078  27.074  35.985   1.267
80852W        W46079  37.755  25.113  13.329
80853W        W46080  39.257   8.666  11.147
80854W        W46081  37.933  43.088   1.950
80855W        W46082  38.876  21.256  10.626
80856W        W46083  23.521   2.265  14.478
80857W        W46084   3.899  39.418  14.230
80858W        W46085  16.397  32.931   1.757
80859W        W46086  27.181  38.111   2.113
80860W        W46087  16.902  23.931  14.729
80861W        W46088  44.753  27.182   1.964
80862W        W46089   9.548  31.647  11.397
80863W        W46090  31.627   5.272  14.955
80864W        W46091  17.772  12.862   2.359
80865W        W46092  37.852  26.452  13.868
80866W        W46093   8.425  37.853  11.909
80867W        W46094  39.590   1.778   0.330
80868W        W46095   3.803  39.040   2.596
80869W        W46096  34.327  10.084  11.210
80870W        W46097  10.088   6.214  13.101
80871W        W46098  44.981  30.608   1.855
80872W        W46099  34.459  34.245  14.853
80873W        W46100  15.520  21.651  11.878
80874W        W46101  44.476  23.946   0.272
80875W        W46102  38.450  41.394  11.255
80876W        W46103  26.845  24.908  12.501
80877W        W46104  24.676   7.714   4.316
80878W        W46105  14.932  42.315   2.428
80879W        W46106  35.861  28.669  11.155
80880W        W46107  27.507  21.722   3.642
80881W        W46108   1.008  28.087  14.234
80882W        W46109  32.329   4.933   3.972
80883W        W46110  13.495  20.962   0.277
80884W        W46111  21.667  31.012  12.188
80885W        W46112  18.861  29.035  13.957
80886W        W46113  22.181  37.062   2.189
80887W        W46114  26.006  33.874  12.921
80888W        W46115  32.311   1.243   3.750
80889W        W46116  28.036   7.468  14.540
80890W        W46117   8.012  26.610  14.823
80891W        W46118  36.352  44.819   1.520
80892W        W46119  33.645  15.847  14.134
80893W        W46120  41.029  26.964   4.103
80894W        W46121  22.530  38.882  12.885
80895W        W46122  37.521  26.027   4.668
80896W        W46123  23.898  24.102  11.254
80897W        W46124  36.074  19.876  11.112
80898W        W46125  25.489  33.541   4.102
80899W        W46126  12.264  18.150   4.258
80900W        W46127  28.585  34.026   2.662
80901W        W46128  18.154  25.434  12.517
80902W        W46129  21.478  22.689  12.130
80903W        W46130  30.032  13.651  14.577
80904W        W46131  10.775  20.007   2.792
80905W        W46132  24.514  26.889  14.687
80906W        W46133  33.445   6.315   2.219
80907W        W46134  25.607  12.806   3.565
80908W        W46135  28.990  31.992   4.573
80909W        W46136  13.641  40.806  13.015
80910W        W46137   3.788  23.509   1.092
80911W        W46138  27.572  21.227   4.290
80912W        W46139  23.678   9.684   2.410
80913W        W46140  16.169  44.926  12.041
80914W        W46141  25.518  35.191  10.867
80915W        W46142  28.736  40.909   2.689
80916W        W46143  12.698  18.812   0.305
80917W        W46144  27.387  30.343  10.460
80918W        W46145  20.221  33.013   4.197
80919W        W46146  30.868  24.599  10.021
80920W        W46147  22.950   9.663  11.611
80921W        W46148  29.412  19.095  10.732
80922W        W46149  20.628   3.006  13.805
80923W        W46150   2.929  13.230  10.980
80924W        W46151  27.965  22.434  14.276
80925W        W46152  40.076   7.573   4.058
80926W        W46153  31.625  20.451   1.406
80927W        W46154  39.872  39.565  12.348
80928W        W46155  25.592   0.834   0.244
80929W        W46156  23.244  14.624  12.222
80930W        W46157  16.060  19.464   3.088
80931W        W46158  14.574   3.521  12.538
80932W        W46159   0.385   7.795   1.762
80933W        W46160   8.286   6.418  13.218
80934W        W46161  35.135  44.004  11.660
80935W        W46162  31.236  26.647   0.283
80936W        W46163   3.433  43.974  14.846
80937W        W46164  19.100   9.200  12.604
80938W        W46165  21.303  24.964   2.018
80939W        W46166   3.338  28.367   5.035
80940W        W46167  35.639  14.901   2.952
80941W        W46168  40.535  13.608   2.867
80942W        W46169   2.977  27.962   2.696
80943W        W46170   3.699  44.064   1.357
80944W        W46171   5.414  25.082  13.023
80945W        W46172  31.348   9.367  12.548
80946W        W46173  14.657  33.326   3.610
80947W        W46174  38.530   4.689  14.947
80948W        W46175  14.398  41.554   1.778
80949W        W46176  21.139  31.016  12.412
80950W        W46177  27.678   6.247  12.963
80951W        W46178  33.906  17.695   2.319
80952W        W46179  16.198  15.101  12.939
80953W        W46180  32.151  31.474   2.087
80954W        W46181  29.179  25.507  12.435
80955W        W46182  39.880  31.431  11.956
80956W        W46183  24.836  40.074   3.802
80957W        W46184  13.193  27.571   3.715
80958W        W46185  34.189  12.156  14.914
80959W        W46186  38.363  32.546   4.503
80960W        W46187   8.842   4.690  10.435
80961W        W46188  13.178  37.574  12.084
80962W        W46189  35.921  21.554  11.736
80963W        W46190  20.673  19.169   3.712
80964W        W46191  20.423   3.213   4.525
80965W        W46192  11.177  11.228  11.577
80966W        W46193  34.946  42.858   1.291
80967W        W46194  27.414  15.780  11.001
80968W        W46195  32.500  18.259   0.250
80969W        W46196  34.657  33.104  10.719
80970W        W46197   2.290  30.135   4.489
80971W        W46198  40.599  14.063  14.278
80972W        W46199  16.579   5.855  13.793
80973W        W46200  14.102  42.010   2.358
80974W        W46201   3.016  11.817  12.985
80975W        W46202  10.762  26.011   1.234
80976W        W46203  36.707  33.630  14.470
80977W        W46204  30.824  12.470   5.365
80978W        W46205  37.131  13.815   4.656
80979W        W46206  27.420  13.732  11.094
80980W        W46207  19.682  34.133   3.926
80981W        W46208  41.796  29.410   2.686
80982W        W46209   5.509  16.376  12.906
80983W        W46210  13.296   7.850  14.844
80984W        W46211  27.262  41.606  14.967
80985W        W46212  17.595  39.290   4.144
80986W        W46213  11.164  44.775  10.502
80987W        W46214  36.918   3.678   4.014
80988W        W46215  13.258  19.410   5.032
80989W        W46216  37.399   6.270   0.212
80990W        W46217  11.313  42.772  13.533
80991W        W46218  11.790  18.274   0.300
80992W        W46219  16.716  16.487  13.983
80993W        W46220  21.442  14.441   2.219
80994W        W46221  34.847  20.008  13.605
80995W        W46222  19.515  38.866   2.722
80996W        W46223  43.877  27.903   2.818
80997W        W46224  43.993  42.550   0.784
80998W        W46225  36.331  44.593   4.216
80999W        W46226  12.377  25.502   2.756
81000W        W46227  13.079  11.815  11.985
81001W        W46228  12.257  39.537   2.171
81002W        W46229   2.990  34.278  11.943
81003W        W46230  24.563  38.474   3.175
81004W        W46231  33.583   1.513   1.725
81005W        W46232  29.351  28.942  12.618
81006W        W46233  31.061   7.186  12.533
81007W        W46234  33.364  24.412  10.789
81008W        W46235  42.575   4.383  12.051
81009W        W46236  15.089  38.646   4.890
81010W        W46237  26.491  16.526  13.570
81011W        W46238  20.467  44.931   4.090
81012W        W46239  18.864  15.179   4.657
81013W        W46240  19.724  40.808  11.014
81014W        W46241  32.556  25.700   0.006
81015W        W46242  25.948   7.857   4.800
81016W        W46243   2.317  19.345  10.998
81017W        W46244   8.577   5.258   2.779
81018W        W46245   6.483  16.990   3.979
81019W        W46246  24.021  20.666  14.525
81020W        W46247  41.239  39.155   0.813
81021W        W46248  14.660   7.402   1.726
81022W        W46249  23.168  20.821  13.520
81023W        W46250  38.332  42.528   0.152
81024W        W46251  17.800  42.893   1.264
81025W        W46252  13.650  39.556   2.434
81026W        W46253  17.016  29.978  13.126
81027W        W46254  35.166   6.623   3.318
81028W        W46255  30.691  29.953  11.743
81029W        W46256  30.054   3.469   1.800
81030W        W46257  19.459   0.452  14.475
81031W        W46258   7.317  13.097   0.753
81032W        W46259   5.277  12.544   3.840
81033W        W46260  22.274  14.632  13.991
81034W        W46261   6.680  25.518   3.869
81035W        W46262   2.682  22.377   2.815
81036W        W46263   1.879  19.685   4.618
81037W        W46264   1.999  34.537  11.539
81038W        W46265  16.570  31.117   0.698
81039W        W46266  30.954  14.878  13.346
81040W        W46267  13.090  38.865  14.883
81041W        W46268  21.695  44.259   1.901
81042W        W46269  10.417  11.765   2.558
81043W        W46270  34.991   3.745  12.609
81044W        W46271  31.271  16.224  13.981
81045W        W46272  24.644  29.660  13.393
81046W        W46273  28.384  30.184   3.109
81047W        W46274  29.252  34.916  13.527
81048W        W46275  31.098  43.072  13.451
81049W        W46276  18.773   4.872  11.616
81050W        W46277  30.517  14.121   3.544
81051W        W46278   9.201   8.647   0.612
81052W        W46279  19.667  24.227   2.852
81053W        W46280  35.441  33.584  11.988
81054W        W46281   8.105  11.705  12.666
81055W        W46282  17.569   6.318   1.469
81056W        W46283  22.084  38.121   3.615
81057W        W46284  26.391  35.890   4.088
81058W        W46285  16.140  23.285  11.026
81059W        W46286  43.761  42.225   2.617
81060W        W46287  42.917   4.987  10.958
81061W        W46288  10.612  15.946   1.836
81062W        W46289  25.804  26.754  12.071
81063W        W46290  28.095  17.546  12.057
81064W        W46291   2.214  15.366   0.780
81065W        W46292  31.447  44.506  12.229
81066W        W46293  29.168  28.212  14.518
81067W        W46294  13.490  27.553   1.715
81068W        W46295   2.259  32.599   4.888
81069W        W46296   9.230  43.517  13.604
81070W        W46297  28.109  11.306   4.130
81071W        W46298  28.929  34.077  11.146
81072W        W46299  41.238   2.266   0.727
81073W        W46300  37.078  31.107  12.631
81074W        W46301  13.790  22.076  14.888
81075W        W46302  18.970  17.060  10.684
81076W        W46303  11.877   0.864   3.204
81077W        W46304  32.051   0.258  10.989
81078W        W46305   8.239   9.874  13.472
81079W        W46306  34.977  17.565  13.839
81080W        W46307  38.152  10.894   1.897
81081W        W46308  28.257  34.820   1.912
81082W        W46309  18.018  43.563  14.032
81083W        W46310  23.703  26.798   3.190
81084W        W46311  31.682  30.920   4.632
81085W        W46312  28.954  13.368  11.802
81086W        W46313  37.583  17.057   2.668
81087W        W46314  43.551  18.193   9.580
81088W        W46315  28.635  30.031  14.416
81089W        W46316   3.225  12.072  14.036
81090W        W46317  19.200  43.496   0.404
81091W        W46318  24.645  34.651   4.176
81092W        W46319   6.520  16.873   0.478
81093W        W46320  37.445  36.544   5.034
81094W        W46321   0.773  41.081  13.383
81095W        W46322  43.025  20.523  13.877
81096W        W46323   6.242  13.312   0.371
81097W        W46324  25.781  26.536  11.208
81098W        W46325  14.408   3.160   0.230
81099W        W46326  10.415  37.395   4.196
81100W        W46327  22.020  44.494  14.008
81101W        W46328  17.892  14.398   2.336
81102W        W46329  42.723   4.721   1.757
81103W        W46330  31.504  23.016  12.002
81104W        W46331  21.144  29.359  13.856
81105W        W46332  15.984  23.265  14.204
81106W        W46333   5.704  14.585   2.379
81107W        W46334   9.264  25.983  13.013
81108W        W46335  39.686  11.727  14.052
81109W        W46336  32.097   8.645   4.061
81110W        W46337  32.028  20.010   2.789
81111W        W46338  17.841  15.153   4.642
81112W        W46339  35.616  39.564  14.352
81113W        W46340   8.654  33.318   3.758
81114W        W46341  20.291   1.128   3.631
81115W        W46342  29.171  21.310  13.431
81116W        W46343  14.384  17.783   0.989
81117W        W46344  28.255   5.422   3.041
81118W        W46345  35.846  18.529   0.974
81119W        W46346  28.348  23.441   3.007
81120W        W46347  12.188   3.117   0.446
81121W        W46348  35.532  44.333  14.483
81122W        W46349   4.628  33.630   3.090
81123W        W46350  16.782   3.437   4.609
81124W        W46351  29.656  23.719   0.569
81125W        W46352   1.547  21.146  14.878
81126W        W46353  19.912   8.619  12.005
81127W        W46354  31.208  40.423  11.708
81128W        W46355  26.534  26.803  13.744
81129W        W46356  22.096  36.336   4.149
81130W        W46357  41.304  20.049   4.620
81131W        W46358  43.662  34.859  13.480
81132W        W46359   8.911  21.551  10.765
81133W        W46360   2.825  21.962   4.085
81134W        W46361   7.421  25.587   2.529
81135W        W46362  43.535  32.145   4.539
81136W        W46363   3.596   4.898  14.232
81137W        W46364  29.671  35.523  14.691
81138W        W46365  22.680  11.498   2.051
81139W        W46366  37.115   0.369  12.995
81140W        W46367   9.347  14.990  13.075
81141W        W46368   3.465  18.027   1.004
81142W        W46369   1.666   4.492   1.459
81143W        W46370   8.906   1.901   0.363
81144W        W46371  41.112   3.056   2.013
81145W        W46372  21.986   6.846  10.540
81146W        W46373   1.931  21.657  10.776
81147W        W46374   5.461   7.834   0.907
81148W        W46375  16.643   8.353  14.784
81149W        W46376  33.441  28.947  11.577
81150W        W46377   7.168  43.983   2.391
81151W        W46378  31.835   8.315  10.663
81152W        W46379  16.052   7.083   1.926
81153W        W46380  19.289  37.573  12.477
81154W        W46381  40.377   8.192   5.003
81155W        W46382  42.237  38.562  14.396
81156W        W46383  26.721  38.290   4.046
81157W        W46384  12.438  27.984   1.113
81158W        W46385  32.800  35.214  14.912
81159W        W46386  43.305  34.000   3.785
81160W        W46387  14.242  42.975  10.877
81161W        W46388  40.154  14.622   0.963
81162W        W46389  37.777  23.594   4.728
81163W        W46390  36.309  11.456  14.980
81164W        W46391  31.249  27.056  12.285
81165W        W46392  25.224  16.357  13.362
81166W        W46393   5.454  39.363   1.688
81167W        W46394   1.418  22.820  14.260
81168W        W46395  17.270  13.274  11.135
81169W        W46396  37.521  10.317  13.200
81170W        W46397  21.310   1.248   1.500
81171W        W46398   9.208   7.404   2.475
81172W        W46399   8.830  17.093   1.675
81173W        W46400  27.426   6.694  13.872
81174W        W46401  44.073  20.618   2.251
81175W        W46402  16.159  10.314  13.030
81176W        W46403  17.281  15.063  11.865
81177W        W46404  44.167  34.582  13.487
81178W        W46405  35.373  38.303   5.374
81179W        W46406  41.024  35.252   3.285
81180W        W46407  16.749   1.213   0.352
81181W        W46408  19.870   2.565   3.206
81182W        W46409  39.489  16.206   3.354
81183W        W46410  13.377  40.422  13.914
81184W        W46411  31.433  35.555   1.273
81185W        W46412  39.002  16.260   3.193
81186W        W46413   8.157  35.356  14.974
81187W        W46414  41.790  27.515   2.801
81188W        W46415  12.048  35.975  14.400
81189W        W46416  43.591  32.886  11.115
81190W        W46417   3.009  23.303   1.184
81191W        W46418   6.857  38.943  10.267
81192W        W46419  22.648  27.594  10.463
81193W        W46420  27.163  25.061   3.616
81194W        W46421  35.798  17.680   0.740
81195W        W46422   0.963  10.225   2.269
81196W        W46423   5.903  26.810  13.587
81197W        W46424  12.130  35.205  12.439
81198W        W46425  18.619   0.426  12.067
81199W        W46426  43.783  11.877  11.386
81200W        W46427  36.678  13.575  13.920
81201W        W46428   4.255  24.449   3.640
81202W        W46429   8.271  12.018  11.705
81203W        W46430  16.812  39.936  12.074
81204W        W46431  22.304  32.918  14.057
81205W        W46432   6.357  37.090   2.350
81206W        W46433  21.964  10.318  12.060
81207W        W46434  24.151  14.054   3.007
81208W        W46435  35.219  23.283   2.451
81209W        W46436  30.454   6.271   3.651
81210W        W46437  25.413  11.864  12.070
81211W        W46438   3.779  16.197   4.815
81212W        W46439   4.796  28.409   3.643
81213W        W46440  43.947  43.875  12.299
81214W        W46441  24.602  14.910   4.396
81215W        W46442  27.721   0.745   2.579
81216W        W46443  29.798  28.221   5.023
81217W        W46444  21.244  10.834   1.299
81218W        W46445   0.701  23.246   2.133
81219W        W46446  14.231  24.252  12.812
81220W        W46447  22.010   7.917   3.185
81221W        W46448  11.179   1.671  13.966
81222W        W46449  15.218   2.915   1.363
81223W        W46450  29.399  37.137   3.634
81224W        W46451   0.280  12.386   3.654
81225W        W46452  10.320  32.392  14.206
81226W        W46453   2.191  38.876   0.299
81227W        W46454  22.145  13.672   4.050
81228W        W46455  22.632  13.900  10.828
81229W        W46456  38.256  44.424  14.852
81230W        W46457   6.837   4.475  12.530
81231W        W46458  19.196   5.459   3.617
81232W        W46459  37.421  19.766   4.096
81233W        W46460  33.041   2.547  10.750
81234W        W46461  12.218  37.326   1.175
81235W        W46462  35.869   8.592  13.368
81236W        W46463  39.604  14.408   3.771
81237W        W46464   7.153  12.665   0.353
81238W        W46465  26.104  43.261   3.226
81239W        W46466  36.541  34.466   4.720
81240W        W46467  41.097  17.152   0.348
81241W        W46468  15.231   8.543  12.914
81242W        W46469   8.589   5.861  14.341
81243W        W46470  30.445  43.791   2.727
81244W        W46471  22.540  28.986   0.809
81245W        W46472  35.973  35.414   0.534
81246W        W46473  10.334  11.905   3.070
81247W        W46474   9.329  22.661  14.933
81248W        W46475  19.165  41.410  14.204
81249W        W46476  20.798  15.839   9.810
81250W        W46477  27.498   1.972  14.851
81251W        W46478   2.959  17.582  13.011
81252W        W46479  14.814  27.097  12.204
81253W        W46480  38.840  17.971  14.813
81254W        W46481  40.401  30.788  13.792
81255W        W46482   9.819  43.870   3.405
81256W        W46483   0.338   2.815   2.508
81257W        W46484  36.979  26.424   1.254
81258W        W46485  16.047  28.885  10.824
81259W        W46486  44.288  12.212  13.815
81260W        W46487  12.801  15.694  11.967
81261W        W46488  34.309  20.317  12.057
81262W        W46489  22.141  36.934   1.654
81263W        W46490  42.454  24.167   2.351
81264W        W46491   7.738  40.696   2.169
81265W        W46492  23.465  30.593   4.578
81266W        W46493  29.025   3.222  14.933
81267W        W46494  14.378  38.850  12.918
81268W        W46495  37.558  42.521   2.336
81269W        W46496   0.820  30.423  11.699
81270W        W46497  42.906  24.595   3.136
81271W        W46498  35.969   2.255  13.309
81272W        W46499  31.342   0.391   1.680
81273W        W46500  14.508  15.365  12.503
81274W        W46501  13.059  27.609  14.857
81275W        W46502  36.118  16.999   1.260
81276W        W46503  40.643  34.981   3.771
81277W        W46504   7.154  42.727   1.369
81278W        W46505  28.014   6.013  10.450
81279W        W46506  31.589  32.517   0.194
81280W        W46507   2.356  39.780  14.852
81281W        W46508  25.199  14.894   2.441
81282W        W46509  38.979  36.460   0.293
81283W        W46510  16.086  10.688   0.972
81284W        W46511  35.366  33.565  13.992
81285W        W46512   5.750  11.851   3.928
81286W        W46513  25.711  20.324   1.723
81287W        W46514   2.740  36.440   2.301
81288W        W46515  26.649   3.530  12.166
81289W        W46516  33.294  23.302  14.860
81290W        W46517   2.788  35.103  10.709
81291W        W46518  17.316  10.112   2.332
81292W        W46519  15.571  19.554  13.947
81293W        W46520  19.343  19.814   3.864
81294W        W46521  16.112  15.913  13.000
81295W        W46522  19.032  15.341   3.291
81296W        W46523  33.103  32.884   4.561
81297W        W46524  37.493  40.830   0.322
81298W        W46525   7.148   4.562   1.861
81299W        W46526   3.757  32.580   1.933
81300W        W46527  19.531   3.348  13.352
81301W        W46528   2.629  42.400  11.086
81302W        W46529  25.340   5.728   2.790
81303W        W46530  25.874  37.942  13.725
81304W        W46531   6.629  34.378   2.815
81305W        W46532  36.428  41.808  11.755
81306W        W46533  31.338  35.581   3.236
81307W        W46534  13.060  16.838   1.413
81308W        W46535  25.785  24.956  14.857
81309W        W46536  38.410  27.712  12.914
81310W        W46537  11.965  40.027  11.398
81311W        W46538  17.178  28.876   4.792
81312W        W46539  24.964  26.987   2.863
81313W        W46540  11.032  44.239   3.599
81314W        W46541  44.599  38.906   2.278
81315W        W46542  17.795   6.264  14.800
81316W        W46543  27.698  20.716  14.300
81317W        W46544  44.000  22.180  12.211
81318W        W46545  32.411  21.201  13.488
81319W        W46546   6.746  26.658  13.453
81320W        W46547   1.656  44.966   1.843
81321W        W46548  16.065  13.973   1.496
81322W        W46549  12.212  24.476  13.227
81323W        W46550  41.288  39.385  13.239
81324W        W46551  29.912   8.519  13.351
81325W        W46552  18.239  17.099   0.146
81326W        W46553  20.458  12.886   1.443
81327W        W46554  22.217  26.765   2.351
81328W        W46555  24.081  22.895  14.949
81329W        W46556  22.865  44.264   2.495
81330W        W46557  15.681  43.312   0.462
81331W        W46558  31.558  35.069   0.252
81332W        W46559   8.803  21.175   0.166
81333W        W46560  31.372  10.778   3.295
81334W        W46561   4.819  27.597   2.802
81335W        W46562  12.847  37.538   1.926
81336W        W46563   3.268  40.022   0.856
81337W        W46564  37.468  34.382  14.282
81338W        W46565  29.062  27.720  12.106
81339W        W46566   4.672  20.650   2.413
81340W        W46567  41.383   8.320  14.296
81341W        W46568  38.506  30.216  13.345
81342W        W46569  28.537   4.598  13.984
81343W        W46570  15.121   7.740   2.614
81344W        W46571  13.604  44.160  10.860
81345W        W46572  41.788  39.426   0.419
81346W        W46573  25.688  19.736   3.308
81347W        W46574  18.311   8.206   4.147
81348W        W46575  30.958  22.249   1.975
81349W        W46576  21.780  12.899  14.675
81350W        W46577  12.122  23.426  12.382
81351W        W46578  29.199  32.140   0.826
81352W        W46579  16.616  21.017  12.579
81353W        W46580  29.898  30.202  12.514
81354W        W46581  23.514   6.291  12.169
81355W        W46582   7.626  14.757   2.099
81356W        W46583  13.903  10.638  12.422
81357W        W46584  21.598  28.515  10.910
81358W        W46585  33.255  14.482   2.466
81359W        W46586  37.411  27.749  13.775
81360W        W46587  26.500   7.924  10.633
81361W        W46588   1.169  39.443   1.211
81362W        W46589   6.988  43.866   3.153
81363W        W46590  29.294  40.112  11.103
81364W        W46591  36.139  27.718   2.705
81365W        W46592  19.347  42.774  14.788
81366W        W46593   3.953  38.320  10.598
81367W        W46594  10.200  38.114   4.358
81368W        W46595   0.074  18.239  11.109
81369W        W46596  17.103   9.478  12.124
81370W        W46597  13.397  42.422   4.500
81371W        W46598  14.660   0.356  13.012
81372W        W46599  12.747   9.955  14.014
81373W        W46600  23.668   8.034   0.798
81374W        W46601  19.798  37.840   1.889
81375W        W46602   5.712  11.148   0.532
81376W        W46603  41.656   0.678   1.272
81377W        W46604   2.902  33.143  12.502
81378W        W46605  26.859  17.149  10.265
81379W        W46606  33.498  42.084  11.577
81380W        W46607   4.395   6.947  14.297
81381W        W46608   3.185   7.986  10.975
81382W        W46609  41.857  13.831   4.495
81383W        W46610  44.711  10.899  11.096
81384W        W46611  23.252  42.613   3.384
81385W        W46612  41.343  41.701  14.571
81386W        W46613   8.963  40.825  14.546
81387W        W46614  18.438   2.104  13.089
81388W        W46615   6.550  16.843  14.706
81389W        W46616  37.503  38.453  10.720
81390W        W46617  18.651  14.306  10.746
81391W        W46618  27.752  29.481  14.446
81392W        W46619  43.296  34.848  10.820
81393W        W46620  12.803  39.488   1.938
81394W        W46621  33.458  31.719  13.932
81395W        W46622  27.029  24.832   4.321
81396W        W46623  11.093  38.592   4.176
81397W        W46624  35.312  11.823  13.607
81398W        W46625  21.718  23.759  13.410
81399W        W46626  26.478   3.364  13.899
81400W        W46627  42.133  34.765   1.594
81401W        W46628  24.654   0.824   3.021
81402W        W46629  31.572   5.794   4.098
81403W        W46630  18.520  24.845  13.302
81404W        W46631  37.459  33.000  11.216
81405W        W46632  25.062  24.542  13.847
81406W        W46633  19.078  27.742   4.215
81407W        W46634  44.124  36.856   1.794
81408W        W46635  40.386  25.501  12.084
81409W        W46636  44.968  15.027  13.845
81410W        W46637   0.875   5.205   2.802
81411W        W46638   4.322  14.018   0.863
81412W        W46639   4.891  30.094  11.602
81413W        W46640  36.471   8.098  12.049
81414W        W46641   9.583   3.926  14.984
81415W        W46642  24.550  40.042   5.076
81416W        W46643  24.026  25.214  11.598
81417W        W46644   6.302  33.699   1.625
81418W        W46645  16.086  32.564   2.846
81419W        W46646  17.753   3.205   3.662
81420W        W46647  29.423  36.685   4.546
81421W        W46648  32.084  41.495   3.524
81422W        W46649  13.137  33.923  14.406
81423W        W46650   5.838  19.075  10.414
81424W        W46651  24.956  37.524   2.209
81425W        W46652  31.467  39.894   2.330
81426W        W46653  30.068  37.326  13.796
81427W        W46654  40.460  24.084  11.595
81428W        W46655   4.053  44.355   1.808
81429W        W46656  31.905  24.249   4.249
81430W        W46657  28.454  27.283   3.532
81431W        W46658  44.247  22.614  11.075
81432W        W46659  38.581   1.984  12.856
81433W        W46660   8.408  22.896  12.837
81434W        W46661  14.097  18.206  12.587
81435W        W46662   6.404  25.464   2.821
81436W        W46663  20.956  20.633   4.132
81437W        W46664  14.445   2.649  14.816
81438W        W46665  18.559  26.208  10.993
81439W        W46666  14.522  35.935   2.604
81440W        W46667   2.854  17.108   0.306
81441W        W46668   8.361  39.548   2.783
81442W        W46669  19.131  26.938  11.357
81443W        W46670   7.596  44.463   1.949
81444W        W46671   3.687  17.043   2.424
81445W        W46672  14.653  25.964   3.776
81446W        W46673  19.459  26.225  14.571
81447W        W46674  36.505  31.965  13.921
81448W        W46675  37.989  22.416   4.770
81449W        W46676   9.341  15.046   0.540
81450W        W46677  26.948  32.418  14.836
81451W        W46678  22.345  12.441   1.047
81452W        W46679  33.808  37.899   2.270
81453W        W46680   3.484  36.257   9.775
81454W        W46681  41.361  13.036  12.984
81455W        W46682  42.537  20.413   2.832
81456W        W46683  38.193  11.587  10.289
81457W        W46684  29.473  27.611   1.783
81458W        W46685  24.444  35.497  12.415
81459W        W46686  10.465   4.416  14.262
81460W        W46687   6.397  12.766  12.544
81461W        W46688  13.627  24.602  13.797
81462W        W46689  42.053  22.550  10.268
81463W        W46690  12.802   5.164   1.056
81464W        W46691  26.474  42.459   0.820
81465W        W46692  18.566  43.859  12.809
81466W        W46693  21.287  24.570  11.546
81467W        W46694  13.828   7.760  14.851
81468W        W46695  37.861  34.756  13.491
81469W        W46696  16.472  19.538   4.563
81470W        W46697  35.668   2.312   0.039
81471W        W46698  34.836  38.472   0.065
81472W        W46699  29.975  28.362   2.670
81473W        W46700  36.364  37.365  11.105
81474W        W46701  42.452  34.252   0.782
81475W        W46702  35.839  38.274  14.905
81476W        W46703  40.739  12.055  11.234
81477W        W46704  24.163   1.441   2.708
81478W        W46705  40.777  32.881   0.953
81479W        W46706  31.840  44.189  12.402
81480W        W46707  28.679  42.296  11.990
81481W        W46708  24.055  16.823  13.360
81482W        W46709  14.320  43.466  13.012
81483W        W46710  37.999  19.240   2.142
81484W        W46711  18.508  14.719  13.027
81485W        W46712  31.938   9.836  14.258
81486W        W46713  15.144  18.747   4.124
81487W        W46714  10.889  40.773  13.391
81488W        W46715  24.971  12.121   2.325
81489W        W46716  42.041  39.421  12.486
81490W        W46717   6.393   0.985  10.727
81491W        W46718  23.048   0.342  13.959
81492W        W46719  24.106  37.271  12.090
81493W        W46720  38.876  10.292  13.214
81494W        W46721  21.453  21.995  13.336
81495W        W46722  32.574  39.347   0.945
81496W        W46723  39.537   4.979  13.887
81497W        W46724  14.664  25.059  13.053
81498W        W46725   9.394  18.627   3.862
81499W        W46726   5.162  12.280  13.997
81500W        W46727  33.161  43.932  13.090
81501W        W46728  35.364   1.635   1.883
81502W        W46729  34.166  33.269  10.624
81503W        W46730  33.957   0.566   3.716
81504W        W46731  19.621  42.636   2.209
81505W        W46732  27.932  12.334   0.990
81506W        W46733   1.967  15.119   3.541
81507W        W46734  38.371  28.491   4.130
81508W        W46735  33.882   1.925   1.955
81509W        W46736   2.638  23.005  11.017
81510W        W46737  21.544  12.926  12.354
81511W        W46738  15.958  34.911   0.131
81512W        W46739  34.554  18.268  13.092
81513W        W46740   8.315  35.576  13.468
81514W        W46741  34.050  11.134  12.523
81515W        W46742  44.229  33.354  12.849
81516W        W46743   1.517  36.062   0.135
81517W        W46744  32.940  34.548   0.305
81518W        W46745  27.753   6.614   4.494
81519W        W46746  31.079  35.884   1.959
81520W        W46747  33.737  29.767   1.294
81521W        W46748   9.553  15.165   1.025
81522W        W46749  39.866   9.861  13.836
81523W        W46750  32.174  16.703  11.106
81524W        W46751  37.677  36.720  10.887
81525W        W46752  17.763  37.277   2.219
81526W        W46753  11.302  44.937   0.844
81527W        W46754  21.062  42.389   4.771
81528W        W46755  41.859  30.240  12.537
81529W        W46756  12.783  16.414   3.939
81530W        W46757  19.574   3.866   1.014
81531W        W46758   0.545  28.742  10.845
81532W        W46759  11.141  24.706  11.613
81533W        W46760   1.937   9.817  12.454
81534W        W46761  10.240   9.194  11.002
81535W        W46762  29.002   9.830  12.772
81536W        W46763   6.914   8.227  12.095
81537W        W46764  40.902  23.960  12.371
81538W        W46765  24.135  17.674  11.178
81539W        W46766   4.448  13.280   3.056
81540W        W46767  16.536   1.874  13.283
81541W        W46768  32.676   8.213  14.371
81542W        W46769  32.485   9.821  10.737
81543W        W46770  21.151   3.450   1.034
81544W        W46771   6.791  21.873   4.172
81545W        W46772  41.938  16.352   1.849
81546W        W46773   7.752  17.753   0.207
81547W        W46774  36.497   8.715   0.511
81548W        W46775  29.831  16.459  11.996
81549W        W46776  27.448  33.453   1.236
81550W        W46777  24.277  14.216   0.208
81551W        W46778  11.847   3.170   0.851
81552W        W46779  24.751   7.734   3.281
81553W        W46780  42.321  39.041   2.350
81554W        W46781  39.368   6.965   4.060
81555W        W46782  10.198  12.199   0.734
81556W        W46783  42.603  21.653   1.483
81557W        W46784  19.555   6.219   2.428
81558W        W46785  22.711  35.221   1.334
81559W        W46786  42.027  23.793   1.472
81560W        W46787  18.808  42.705   1.618
81561W        W46788  24.064  25.113  14.412
81562W        W46789  22.050  43.634  12.580
81563W        W46790   4.934   4.406  13.042
81564W        W46791  23.091  14.156  14.580
81565W        W46792   8.450  30.754   0.273
81566W        W46793  42.414  44.994   4.626
81567W        W46794   0.158  43.839  10.621
81568W        W46795   4.255  32.871  12.553
81569W        W46796  11.265  17.781   0.913
81570W        W46797  30.729  16.210  12.000
81571W        W46798  20.592  30.144  11.214
81572W        W46799  12.199  12.762   3.438
81573W        W46800  17.559  17.128   0.598
81574W        W46801  32.556  10.486  12.968
81575W        W46802  43.522  12.198   2.740
81576W        W46803   8.628   6.886   3.298
81577W        W46804  13.052  29.131   2.269
81578W        W46805   9.646   7.764  10.824
81579W        W46806  12.595  19.268   2.045
81580W        W46807   7.791  37.233  10.714
81581W        W46808  33.030   1.002   1.763
81582W        W46809  36.115  17.820   4.263
81583W        W46810  35.529  17.552  12.493
81584W        W46811  34.156  12.030  12.605
81585W        W46812  14.623  41.476  10.731
81586W        W46813   2.291  26.569   2.670
81587W        W46814  23.180  32.614   4.749
81588W        W46815  19.349  44.288   3.972
81589W        W46816  26.064  42.791   1.913
81590W        W46817  33.378  42.409   4.267
81591W        W46818   6.280  33.111   3.443
81592W        W46819   2.262  24.288   0.946
81593W        W46820  33.523  19.544  10.704
81594W        W46821  10.000  16.387  11.603
81595W        W46822   2.510  44.949   2.285
81596W        W46823   0.866  32.023  10.995
81597W        W46824   6.036  18.589  11.097
81598W        W46825  32.874  20.776  10.784
81599W        W46826  14.994   8.171  13.794
81600W        W46827  35.848  20.678  12.256
81601W        W46828  22.786   2.803   0.344
81602W        W46829   9.143   2.816  10.850
81603W        W46830  35.780  44.304   3.404
81604W        W46831  41.773  43.932  10.775
81605W        W46832  37.843  24.146  10.704
81606W        W46833  18.397  39.082   3.136
81607W        W46834  41.849  38.667   4.190
81608W        W46835  29.415  18.487  11.183
81609W        W46836  21.250  33.052   4.061
81610W        W46837  12.862  35.132  10.747
81611W        W46838  31.017  37.692   0.206
81612W        W46839  44.032  44.236   3.709
81613W        W46840  19.571  18.287  14.417
81614W        W46841  21.791  27.185   2.868
81615W        W46842  43.448   9.925  13.921
81616W        W46843  11.797  22.189   2.681
81617W        W46844  23.530   0.234  11.970
81618W        W46845  24.115  38.102  14.311
81619W        W46846  26.017  38.906   1.347
81620W        W46847  42.078  27.012  14.275
81621W        W46848   0.197   0.066   2.090
81622W        W46849  21.565  44.706   2.716
81623W        W46850  30.398  17.854   1.362
81624W        W46851  41.801  20.735  11.530
81625W        W46852  30.461  23.759   2.247
81626W        W46853  43.639  10.586  14.528
81627W        W46854  41.287  17.277  14.890
81628W        W46855  16.012   3.964  12.452
81629W        W46856  29.423   0.217   3.149
81630W        W46857  19.096  31.512   4.118
81631W        W46858  26.613  27.432   3.672
81632W        W46859  24.237   4.533  12.476
81633W        W46860  34.527  37.272   3.671
81634W        W46861  23.648  43.328  14.893
81635W        W46862  14.583  20.408   5.189
81636W        W46863   6.660   9.362  11.087
81637W        W46864  14.854  33.809   3.627
81638W        W46865   1.891  11.655   2.232
81639W        W46866  36.937   6.885  10.769
81640W        W46867  11.781  32.018   2.219
81641W        W46868   6.190  28.929   0.747
81642W        W46869   0.462  37.626   3.192
81643W        W46870  30.985  38.786   4.095
81644W        W46871  16.267  19.086   1.363
81645W        W46872  20.111   6.302  10.867
81646W        W46873  39.568  19.893  10.597
81647W        W46874   2.556  15.451  13.737
81648W        W46875  19.098  15.854  13.568
81649W        W46876  17.564   5.779  13.866
81650W        W46877  21.465  24.033   3.298
81651W        W46878  23.624  24.189  14.847
81652W        W46879  23.510  13.822   1.721
81653W        W46880  37.399  11.497   1.278
81654W        W46881  42.331  37.481  11.408
81655W        W46882  11.876   9.714  10.986
81656W        W46883  34.941  19.412   2.224
81657W        W46884   2.386  23.735   1.794
81658W        W46885   4.289  34.395  14.230
81659W        W46886  39.526  24.160  11.195
81660W        W46887  16.255  29.950   3.651
81661W        W46888   1.480  29.462  11.084
81662W        W46889  18.151  11.376  13.316
81663W        W46890  16.694  38.629   3.209
81664W        W46891  27.664   3.430   4.627
81665W        W46892   4.935  11.875   0.960
81666W        W46893  15.794  13.208   2.395
81667W        W46894  10.855  18.731  10.730
81668W        W46895   6.652  34.276  11.088
81669W        W46896   9.786   4.933  13.355
81670W        W46897  35.200  34.742   0.244
81671W        W46898  42.063   3.342   0.890
81672W        W46899  20.374  38.485  13.113
81673W        W46900  36.049  16.106   3.563
81674W        W46901  40.007  10.870   0.020
81675W        W46902  22.998  24.366  11.220
81676W        W46903  32.780  16.421   4.162
81677W        W46904  23.205   7.916  14.185
81678W        W46905  20.503  36.355   1.626
81679W        W46906   2.449  23.248   2.624
81680W        W46907  20.006  12.633   3.146
81681W        W46908   9.536  23.445   0.352
81682W        W46909  32.654  44.420   0.525
81683W        W46910   0.221   1.002   2.802
81684W        W46911   5.337  27.619  10.880
81685W        W46912  25.147  42.426   2.924
81686W        W46913  14.093   9.855  10.634
81687W        W46914  22.230  25.249  12.077
81688W        W46915   6.497  29.047   4.576
81689W        W46916   9.900   1.889   2.881
81690W        W46917  16.359   2.144   4.293
81691W        W46918  32.798  29.353  12.025
81692W        W46919  15.637  27.904   3.615
81693W        W46920  14.242  30.518   0.874
81694W        W46921   0.515  42.212  11.931
81695W        W46922  39.953  42.410  13.172
81696W        W46923   8.802  40.357   3.224
81697W        W46924  21.683   1.060   0.686
81698W        W46925  35.048  11.723   2.279
81699W        W46926  16.354   8.205   2.168
81700W        W46927  12.553  21.288   5.037
81701W        W46928   2.482   3.211   4.015
81702W        W46929  16.658   2.676   2.953
81703W        W46930  33.657  22.906   1.297
81704W        W46931  17.738  36.367  11.186
81705W        W46932  11.431  16.027   1.199
81706W        W46933  32.681  18.628  10.752
81707W        W46934  16.371  19.980  12.092
81708W        W46935  31.805  38.987  12.649
81709W        W46936  35.410  27.617   1.047
81710W        W46937  24.787  29.171   1.679
81711W        W46938   2.799  31.381   3.663
81712W        W46939  40.067  19.226   2.801
81713W        W46940  13.222  42.836   2.366
81714W        W46941  29.506  35.960  12.823
81715W        W46942  38.440  15.777  10.845
81716W        W46943   9.155  35.774  11.137
81717W        W46944   5.192   0.353   4.069
81718W        W46945  41.688  31.054   3.800
81719W        W46946  21.898  42.273   4.497
81720W        W46947  40.444  12.243   0.873
81721W        W46948  43.262  15.143   3.279
81722W        W46949  41.280  13.573   3.773
81723W        W46950  17.844  31.954  13.309
81724W        W46951  21.897  40.443   1.529
81725W        W46952  32.784  17.299  10.055
81726W        W46953  44.355  27.682   0.787
81727W        W46954  24.603  10.635  10.770
81728W        W46955  36.753  21.631  11.578
81729W        W46956  30.903  44.694  14.009
81730W        W46957  11.528  16.385   5.467
81731W        W46958   3.006  20.855  10.819
81732W        W46959  16.711  10.640   0.173
81733W        W46960  12.633  29.800  11.953
81734W        W46961  26.862   6.748  12.967
81735W        W46962   4.405  16.340  14.470
81736W        W46963  20.467   7.362  13.257
81737W        W46964  42.491  25.567  14.419
81738W        W46965  13.685  18.140  12.921
81739W        W46966  43.992  41.099  14.870
81740W        W46967  40.998  18.317   2.595
81741W        W46968   8.439   9.968  12.131
81742W        W46969  44.688  38.955   3.217
81743W        W46970  17.023  18.122  13.993
81744W        W46971  29.203  10.253  12.967
81745W        W46972  26.389  37.486   3.767
81746W        W46973  39.046  12.052  11.597
81747W        W46974  11.227  21.581  12.837
81748W        W46975  43.092  27.250  11.025
81749W        W46976  19.159  22.407  12.425
81750W        W46977  20.775  18.032   3.574
81751W        W46978  33.916  14.693   0.709
81752W        W46979  10.380  12.732   2.556
81753W        W46980  24.055   6.691   2.815
81754W        W46981   0.425  25.924   4.553
81755W        W46982  36.033  19.025  11.538
81756W        W46983  25.605  34.443  12.098
81757W        W46984   9.900  19.136  14.928
81758W        W46985  23.033  26.980   1.986
81759W        W46986  19.506  12.706   1.990
81760W        W46987  26.315  26.402   0.472
81761W        W46988  10.634  42.735  12.545
81762W        W46989  34.039  25.625  11.557
81763W        W46990  23.268   5.238   1.305
81764W        W46991   7.355  23.244  10.609
81765W        W46992  12.864  36.051  13.770
81766W        W46993   8.463  24.711   0.873
81767W        W46994  16.816  42.981   2.363
81768W        W46995   1.469  21.384   0.911
81769W        W46996  39.579  30.586   1.816
81770W        W46997  35.418  18.647   0.311
81771W        W46998  40.304  30.243   4.068
81772W        W46999  44.783  25.764  12.648
81773W        W47000  34.923  10.158  12.660
81774W        W47001  35.855   9.217   0.656
81775W        W47002  10.168  40.744  10.745
81776W        W47003   4.685  34.564  10.182
81777W        W47004  12.183  13.748   3.955
81778W        W47005   4.336  42.509   0.753
81779W        W47006   6.238  17.028   3.184
81780W        W47007  39.556  38.085   3.716
81781W        W47008  44.789  10.242  14.022
81782W        W47009  35.359  12.617  10.597
81783W        W47010  18.761  14.692   2.759
81784W        W47011  37.903  10.861   1.422
81785W        W47012  15.037   5.431  13.419
81786W        W47013  37.015  40.349   0.086
81787W        W47014   6.387  15.634   3.185
81788W        W47015  26.111   5.882  12.186
81789W        W47016  10.962  21.231   0.515
81790W        W47017   5.173  12.235   2.320
81791W        W47018   3.934  32.600  10.999
81792W        W47019  14.280  26.418  10.674
81793W        W47020   5.169  21.067   2.794
81794W        W47021  32.669   4.225  12.013
81795W        W47022  19.171  43.590   1.797
81796W        W47023  29.786   2.233   1.474
81797W        W47024  25.758  24.667   3.694
81798W        W47025   5.653  36.134  12.530
81799W        W47026   3.872  40.647  11.185
81800W        W47027  37.757  27.473  13.513
81801W        W47028   1.006   4.841  11.253
81802W        W47029  15.631  42.500   3.233
81803W        W47030  16.463  12.788  14.047
81804W        W47031  34.070  12.311   4.355
81805W        W47032  12.066   2.217   4.042
81806W        W47033   2.644  26.282   2.406
81807W        W47034  27.625  18.260   1.536
81808W        W47035  16.410   2.699   3.416
81809W        W47036  37.793  30.513  12.475
81810W        W47037  35.389  19.155   2.157
81811W        W47038  21.588  26.514   0.952
81812W        W47039  40.027   4.899   2.856
81813W        W47040  10.244  23.660  12.960
81814W        W47041   1.560  38.757   4.734
81815W        W47042   2.895  18.975  10.128
81816W        W47043  26.737  13.418  13.922
81817W        W47044  28.894  31.259   0.357
81818W        W47045  12.209  28.455   3.278
81819W        W47046   2.514  19.250   4.740
81820W        W47047  41.120  20.010   0.896
81821W        W47048  16.304  19.600   1.357
81822W        W47049  22.746   3.237   2.909
81823W        W47050  13.148  27.449   0.866
81824W        W47051   4.621   5.363   4.070
81825W        W47052  39.456   0.081  12.391
81826W        W47053  16.001   5.852  11.617
81827W        W47054  10.597  42.825  10.748
81828W        W47055  21.031   1.184   4.914
81829W        W47056  17.231  38.485   1.721
81830W        W47057  17.736  16.729  12.120
81831W        W47058  18.462  27.984   3.315
81832W        W47059  42.210   3.518  11.941
81833W        W47060  29.117  34.177  13.924
81834W        W47061   1.805  21.018   0.765
81835W        W47062  25.220   3.976   2.322
81836W        W47063  11.778  30.610   0.936
81837W        W47064  36.141  41.828  12.162
81838W        W47065  37.009   7.878   3.089
81839W        W47066  22.495  15.855   0.311
81840W        W47067   2.707  22.440   4.201
81841W        W47068  35.522   6.075   2.899
81842W        W47069  19.026  20.770  13.513
81843W        W47070   2.967  24.081  13.538
81844W        W47071  39.320  38.844   1.933
81845W        W47072  39.485  21.529  14.562
81846W        W47073  41.867  33.458   2.301
81847W        W47074  40.770   1.914  10.913
81848W        W47075  32.165  37.961   2.771
81849W        W47076   3.912  41.278  13.709
81850W        W47077  23.280   4.976   3.621
81851W        W47078  30.745   6.982  12.862
81852W        W47079  20.054  11.725   4.962
81853W        W47080  39.373  36.062   3.835
81854W        W47081  35.030  22.134   1.881
81855W        W47082  19.634   0.973   2.659
81856W        W47083   8.353  16.342  14.855
81857W        W47084  30.173  22.038  14.926
81858W        W47085  11.286  30.587   5.171
81859W        W47086  38.517  21.440  11.460
81860W        W47087   5.379  39.988   0.001
81861W        W47088  30.978  12.538   1.833
81862W        W47089   1.700  31.918  13.935
81863W        W47090   9.447  32.956   1.647
81864W        W47091   3.155  13.658  11.177
81865W        W47092  20.650  31.164  12.563
81866W        W47093   0.373   6.468   0.944
81867W        W47094   6.871  38.784   3.270
81868W        W47095  33.035  39.479   4.315
81869W        W47096   5.716  31.900  13.390
81870W        W47097  19.000  30.265  14.403
81871W        W47098  34.053  40.235   3.188
81872W        W47099  15.244  44.517   4.953
81873W        W47100   6.278   2.813   4.261
81874W        W47101  36.797  36.646  11.460
81875W        W47102  37.066   6.884   4.965
81876W        W47103  35.804  13.955  11.228
81877W        W47104  18.045  16.821  11.728
81878W        W47105  19.066  31.174   2.117
81879W        W47106  27.466  39.625   2.294
81880W        W47107   5.072  34.560  13.444
81881W        W47108   3.580  18.767   1.662
81882W        W47109   6.811   2.919   4.306
81883W        W47110  22.743  11.260  10.514
81884W        W47111  39.389  15.255   4.735
81885W        W47112  13.576  23.223   0.805
81886W        W47113  19.471  17.271  10.700
81887W        W47114   6.862   4.800   0.461
81888W        W47115  39.026  10.502   3.243
81889W        W47116  31.866  19.373  14.968
81890W        W47117  26.223  39.893  10.624
81891W        W47118   0.068  18.612   3.593
81892W        W47119  15.393   4.181  11.248
81893W        W47120  29.602  23.752  12.477
81894W        W47121  22.630  24.138   5.046
81895W        W47122  26.568   9.446   3.612
81896W        W47123  35.859  12.795  12.685
81897W        W47124   5.008  42.231   1.179
81898W        W47125  32.057  41.745   0.277
81899W        W47126   3.283  23.597   0.375
81900W        W47127  41.269  21.995   0.370
81901W        W47128  34.360   4.436  13.928
81902W        W47129  32.941  17.839   0.774
81903W        W47130  29.741  39.488  13.510
81904W        W47131  11.858  40.859   5.032
81905W        W47132   6.702  13.964  10.751
81906W        W47133  37.734  35.660   1.842
81907W        W47134  21.109  28.201   4.420
81908W        W47135  35.341  11.278   2.277
81909W        W47136  16.675  15.833  12.044
81910W        W47137  20.033  10.307   3.756
81911W        W47138  28.643  17.919   0.175
81912W        W47139  33.503  14.703   1.518
81913W        W47140   1.162   4.270   3.649
81914W        W47141  39.938  20.486  13.819
81915W        W47142  37.059  31.045  11.712
81916W        W47143  36.886   7.740   3.569
81917W        W47144  24.209  13.063   1.906
81918W        W47145   1.024  17.409  13.875
81919W        W47146  13.197  25.568   3.090
81920W        W47147  17.517  44.359  14.477
81921W        W47148  32.640  10.764  13.549
81922W        W47149  18.636  31.676   0.009
81923W        W47150  42.364  36.880  14.940
81924W        W47151   5.394  43.049  14.289
81925W        W47152  32.122  24.610   2.145
81926W        W47153  40.389  25.945  13.978
81927W        W47154  18.107  21.231   4.696
81928W        W47155  34.397  22.638   2.274
81929W        W47156   6.088  43.030   2.167
81930W        W47157  34.491  20.554   3.841
81931W        W47158   9.179  16.632   0.808
81932W        W47159  38.761   2.639  11.334
81933W        W47160  39.868  37.968   4.573
81934W        W47161  17.908   9.304  13.393
81935W        W47162  13.176  11.882  14.770
81936W        W47163  29.440  26.959   2.359
81937W        W47164  20.510  17.848   2.368
81938W        W47165  17.592  26.878   0.353
81939W        W47166  29.062  36.548   3.237
81940W        W47167   5.181  25.403  10.296
81941W        W47168   2.125  13.852  11.560
81942W        W47169  43.026  35.481   4.370
81943W        W47170   2.441  39.546   2.985
81944W        W47171   2.508  11.574   3.338
81945W        W47172   1.454  38.485   4.302
81946W        W47173   3.692  35.223  11.424
81947W        W47174  29.923  38.136  10.777
81948W        W47175  27.027  20.322   3.217
81949W        W47176  44.784  41.071  12.195
81950W        W47177   4.795  37.462  13.573
81951W        W47178   4.492  11.929   3.302
81952W        W47179  36.626  27.403  11.153
81953W        W47180  39.025  22.196   4.568
81954W        W47181  31.526  18.295  13.753
81955W        W47182   4.333   6.234  10.889
81956W        W47183  10.266  27.566  11.285
81957W        W47184   8.093  33.157   4.862
81958W        W47185  21.739  27.566   3.866
81959W        W47186  42.525  35.231   4.527
81960W        W47187  24.101  27.042  14.454
81961W        W47188  30.776  36.739   2.602
81962W        W47189  18.875  35.608  14.356
81963W        W47190   0.406  26.957  14.674
81964W        W47191  34.410  11.899   4.321
81965W        W47192  36.817  12.873  14.095
81966W        W47193  20.300   7.263  12.053
81967W        W47194  36.889  22.478  12.193
81968W        W47195  37.975  12.727   3.148
81969W        W47196  24.094  44.448   4.923
81970W        W47197   3.423  36.254  14.306
81971W        W47198  39.520  32.079  13.435
81972W        W47199  16.992   0.864  13.443
81973W        W47200   8.194  13.301   1.740
81974W        W47201  41.346   5.170   9.872
81975W        W47202  30.690  31.164   1.729
81976W        W47203  44.887  31.622  12.380
81977W        W47204  16.166   0.565   4.727
81978W        W47205  19.147  32.607   0.976
81979W        W47206   0.057  26.535   0.809
81980W        W47207  20.746  31.064   3.522
81981W        W47208  21.175   3.149  12.809
81982W        W47209   8.854  23.593  11.980
81983W        W47210  23.246  24.655  13.408
81984W        W47211  36.579   0.284   1.632
81985W        W47212  27.429   4.802   2.222
81986W        W47213  34.339  42.511   2.170
81987W        W47214  25.158  19.116  11.945
81988W        W47215  41.871  39.246  13.914
81989W        W47216   4.256  14.811   2.876
81990W        W47217  35.783  44.819  11.581
81991W        W47218   3.343   3.503   3.420
81992W        W47219  24.247  33.025   3.879
81993W        W47220  20.480  15.369  13.987
81994W        W47221  32.106  12.023   2.814
81995W        W47222  27.278  11.284   2.136
81996W        W47223   8.171   5.228  11.141
81997W        W47224   7.239  33.678   0.838
81998W        W47225   5.678   2.729  12.694
81999W        W47226  15.201   2.932   2.838
82000W        W47227  35.902   7.186  13.519
82001W        W47228  28.189  17.953   0.475
82002W        W47229  42.251  23.088  10.480
82003W        W47230  19.217  23.131  13.010
82004W        W47231  26.620  26.170  10.805
82005W        W47232  36.107  41.872   2.322
82006W        W47233  31.142  19.303  11.850
82007W        W47234  33.058   7.175  13.792
82008W        W47235  24.963  18.370   2.517
82009W        W47236  34.953  38.996  11.102
82010W        W47237  15.203   1.372   1.796
82011W        W47238  44.530  25.102  14.790
82012W        W47239  29.158  28.739   0.227
82013W        W47240   0.322  30.445  13.559
82014W        W47241  22.714  16.607   0.828
82015W        W47242  38.839  36.981  11.512
82016W        W47243   0.212  16.368  11.068
82017W        W47244   0.718  14.603  14.887
82018W        W47245  11.385  19.694   2.631
82019W        W47246   3.895  11.287  11.193
82020W        W47247   5.646  17.270   4.294
82021W        W47248  18.867  34.897   4.990
82022W        W47249   9.700  43.440   2.885
82023W        W47250  29.105   8.842   2.774
82024W        W47251  28.616   6.231   1.747
82025W        W47252   6.858  24.802  13.873
82026W        W47253  42.707   3.172  11.046
82027W        W47254  20.108  26.758  13.558
82028W        W47255   1.461  44.391  14.154
82029W        W47256  39.919  12.189   0.330
82030W        W47257  34.424  37.081  10.653
82031W        W47258  44.922  10.888  12.016
82032W        W47259  25.418  44.319  12.222
82033W        W47260  34.172  29.178   4.908
82034W        W47261   9.890  19.376  10.959
82035W        W47262   4.668  19.102   1.186
82036W        W47263   2.090  22.042  14.810
82037W        W47264  33.101  38.956   4.402
82038W        W47265   1.050  30.215   0.994
82039W        W47266  35.138  39.933  14.873
82040W        W47267  37.082  18.668   4.033
82041W        W47268  28.973   6.712  11.373
82042W        W47269   6.346  43.430   0.004
82043W        W47270  26.112   0.216   3.233
82044W        W47271  18.644  10.361   0.712
82045W        W47272  33.924  19.041  13.042
82046W        W47273  32.460  28.083  12.097
82047W        W47274  42.024  40.908   2.189
82048W        W47275   3.832   9.327  11.867
82049W        W47276  12.966  18.951   0.732
82050W        W47277  25.213  28.530   2.411
82051W        W47278  22.814  43.727  10.747
82052W        W47279  25.514  11.400   2.423
82053W        W47280  10.714  10.923  11.588
82054W        W47281  28.697   1.476  12.819
82055W        W47282  11.254  22.985   2.698
82056W        W47283  26.224  30.064   1.369
82057W        W47284   4.710  26.466  13.118
82058W        W47285  13.561  18.428  13.936
82059W        W47286  24.013   8.951   4.101
82060W        W47287  14.060  28.537   1.845
82061W        W47288  22.670  23.665  13.466
82062W        W47289  37.087   2.855   4.839
82063W        W47290  13.671  37.114  12.839
82064W        W47291  27.512  18.831  11.116
82065W        W47292  29.584   0.699   3.078
82066W        W47293  32.044  41.414  11.524
82067W        W47294  36.076  28.214  14.225
82068W        W47295   7.386   4.051  11.504
82069W        W47296  17.210  26.303   4.687
82070W        W47297  32.782  24.462   0.907
82071W        W47298  34.173  23.436   4.335
82072W        W47299  41.068  10.563  11.199
82073W        W47300   0.005   8.355   1.743
82074W        W47301  11.949  12.753   1.003
82075W        W47302  28.460  39.370  13.114
82076W        W47303  44.810  33.997   1.410
82077W        W47304  15.587  35.631  11.494
82078W        W47305  25.502  11.222  14.791
82079W        W47306  30.097  31.068  14.603
82080W        W47307   8.366  10.860  11.696
82081W        W47308   4.730  36.633  12.567
82082W        W47309  32.892  23.178   0.809
82083W        W47310  39.373  35.467  12.648
82084W        W47311  26.465   9.219   4.495
82085W        W47312  39.371  19.215  12.225
82086W        W47313  35.043  24.823  11.145
82087W        W47314  10.155  25.629  13.155
82088W        W47315  10.881  28.714  13.388
82089W        W47316  17.633   3.125  14.204
82090W        W47317  27.970  40.615  13.856
82091W        W47318   7.100  36.887  14.647
82092W        W47319  22.104  14.111  11.977
82093W        W47320  29.687  23.633   4.197
82094W        W47321  17.180  17.284   4.187
82095W        W47322  10.734   7.040   1.885
82096W        W47323  18.829  33.796   2.511
82097W        W47324   6.222  26.677   3.156
82098W        W47325  29.819  18.065   4.849
82099W        W47326  40.014   3.621  13.137
82100W        W47327   6.390  27.428  12.360
82101W        W47328   0.869   2.755   2.667
82102W        W47329  13.596   9.986  11.824
82103W        W47330  14.797  16.999   2.714
82104W        W47331  12.675  16.815  10.601
82105W        W47332   4.374  17.360  14.343
82106W        W47333   7.280  11.720   0.832
82107W        W47334  34.606  41.030  10.627
82108W        W47335   0.817  32.137   3.373
82109W        W47336  10.852  22.266   4.578
82110W        W47337  19.788  22.768  12.988
82111W        W47338  14.391  42.414   4.111
82112W        W47339  31.539  31.559   2.795
82113W        W47340  12.306   5.945   3.831
82114W        W47341   1.987  23.421  13.184
82115W        W47342  23.607  29.723   2.285
82116W        W47343   6.088  22.494   0.235
82117W        W47344  27.195  24.017   0.606
82118W        W47345   4.712  29.740   3.708
82119W        W47346  34.397  16.131   3.216
82120W        W47347  14.838  23.074  14.997
82121W        W47348   0.379   7.030  10.955
82122W        W47349  15.119  37.046  12.034
82123W        W47350   2.426   7.292   3.241
82124W        W47351   0.302  40.538   3.628
82125W        W47352  42.613  24.257   4.239
82126W        W47353   9.016  21.503  14.736
82127W        W47354  38.607   2.600   0.242
82128W        W47355  17.966  28.105  13.593
82129W        W47356  31.697  39.386   9.747
82130W        W47357  10.574  33.618   4.057
82131W        W47358  13.859   1.666   1.313
82132W        W47359   3.732  35.863  10.774
82133W        W47360  40.384  18.339   2.228
82134W        W47361  11.536  28.943   4.936
82135W        W47362  12.394   8.162  12.100
82136W        W47363   9.366  10.353  12.370
82137W        W47364  43.822   2.765   1.313
82138W        W47365   7.538  36.969  14.391
82139W        W47366  12.663  25.410   3.230
82140W        W47367   3.742   0.571   1.258
82141W        W47368   2.275   0.953   3.869
82142W        W47369  26.945  20.210  14.935
82143W        W47370   3.203  38.789  13.994
82144W        W47371  40.565  40.989  12.037
82145W        W47372  13.711   2.901  10.760
82146W        W47373  19.203  23.820   1.377
82147W        W47374  30.946  23.015   2.390
82148W        W47375  42.081  43.900  12.806
82149W        W47376  10.255   7.508  12.543
82150W        W47377  18.291  28.936   2.196
82151W        W47378  44.399  16.273  11.667
82152W        W47379  11.535  11.951  13.038
82153W        W47380  37.008  37.291   3.640
82154W        W47381   3.127   8.363   1.942
82155W        W47382  12.926  27.394  11.985
82156W        W47383  11.224  25.953   4.187
82157W        W47384  12.232  30.989  14.674
82158W        W47385  37.388  44.543  13.941
82159W        W47386  21.056  36.125   0.979
82160W        W47387   1.243  20.083   0.424
82161W        W47388  21.088  29.521   0.493
82162W        W47389  34.911  19.714  12.319
82163W        W47390  23.012  18.487   2.717
82164W        W47391  31.478   3.659  14.019
82165W        W47392  24.030  11.029   4.538
82166W        W47393  37.959   7.394   0.980
82167W        W47394  13.391  41.635   0.625
82168W        W47395  32.569  30.110  14.510
82169W        W47396  38.498  41.793   4.220
82170W        W47397  11.376   4.159   4.024
82171W        W47398  26.494  18.049   3.106
82172W        W47399   0.517  34.639   0.426
82173W        W47400  32.592  44.209  10.677
82174W        W47401   8.345  24.566  13.966
82175W        W47402  37.012  19.505  13.361
82176W        W47403  21.023  39.121  11.369
82177W        W47404  40.340  44.299   3.708
82178W        W47405  21.240  18.889   4.639
82179W        W47406  27.992  44.919   4.010
82180W        W47407  12.621  18.571   0.799
82181W        W47408  22.376  39.639   3.563
82182W        W47409  39.225  31.555   2.416
82183W        W47410   2.342  34.622  13.544
82184W        W47411   8.850   1.488  14.042
82185W        W47412  41.133   0.013  11.091
82186W        W47413   6.404   1.931  14.763
82187W        W47414  34.024  17.028  14.410
82188W        W47415  43.484  22.842   2.408
82189W        W47416  44.462   7.147   0.363
82190W        W47417   5.933  23.953  11.560
82191W        W47418  16.488  36.084  10.811
82192W        W47419  29.517  20.149   3.173
82193W        W47420  33.250   8.733  11.887
82194W        W47421  33.196  28.473  12.861
82195W        W47422  29.721  18.545  14.383
82196W        W47423  44.471  37.968  12.000
82197W        W47424  12.598  23.482  14.952
82198W        W47425   8.317  23.896   3.150
82199W        W47426  19.635  26.112   3.594
82200W        W47427  26.163  19.828   0.903
82201W        W47428  22.323  19.244  13.689
82202W        W47429  25.664  22.005   1.276
82203W        W47430   6.210  37.432  12.407
82204W        W47431  17.792  18.192   4.158
82205W        W47432  34.167  15.433   2.614
82206W        W47433   3.464   6.707  11.717
82207W        W47434  39.108  40.629  13.873
82208W        W47435   6.096  27.131  13.951
82209W        W47436  19.021  36.868  10.644
82210W        W47437  28.456   7.637   0.806
82211W        W47438  13.681  32.658  12.848
82212W        W47439   6.152  13.888  12.018
82213W        W47440  41.293  22.495   0.592
82214W        W47441   2.252  31.134  14.251
82215W        W47442  12.124  19.608  11.600
82216W        W47443  33.660   5.180   4.152
82217W        W47444   7.945  21.744   4.130
82218W        W47445   8.216  40.896  11.637
82219W        W47446   0.889  30.984   3.634
82220W        W47447  34.062  31.044  14.000
82221W        W47448  24.243  13.816   4.192
82222W        W47449  17.338  13.185   9.790
82223W        W47450  14.624   4.286  12.072
82224W        W47451  38.159  19.818  11.138
82225W        W47452  20.473   5.227  11.541
82226W        W47453  26.385   4.772  12.768
82227W        W47454   4.316  25.952   4.433
82228W        W47455   8.289   4.983  13.853
82229W        W47456   5.669  14.269  13.455
82230W        W47457  42.819  38.141   3.626
82231W        W47458  28.131  41.313  10.765
82232W        W47459   0.372  11.870  13.547
82233W        W47460  39.666  27.113  13.897
82234W        W47461  14.547   9.194   4.609
82235W        W47462  40.513   0.930  14.851
82236W        W47463  40.811  37.037   1.410
82237W        W47464  41.925  31.336  11.612
82238W        W47465   8.137  11.421  13.570
82239W        W47466   1.292  27.141  14.612
82240W        W47467  16.821  20.406  11.257
82241W        W47468  26.505  23.470  13.323
82242W        W47469  35.075  41.006  14.779
82243W        W47470  13.669   5.627   4.458
82244W        W47471  15.638  37.296   4.464
82245W        W47472  28.120  26.597   3.168
82246W        W47473  38.552  40.816   1.388
82247W        W47474   6.242  39.240  12.368
82248W        W47475  40.803  14.654   4.010
82249W        W47476  34.069   2.041  11.598
82250W        W47477   4.849  33.353   0.400
82251W        W47478  34.359  25.385  14.851
82252W        W47479  43.500   8.746  14.802
82253W        W47480  30.133  39.612  12.069
82254W        W47481  42.821  34.147  14.369
82255W        W47482  44.663   5.610   1.240
82256W        W47483  12.622  13.237   0.754
82257W        W47484  24.243   3.489   0.864
82258W        W47485  40.062  17.183   0.265
82259W        W47486   6.946  40.512   2.838
82260W        W47487  17.532  40.495   4.813
82261W        W47488  36.845   5.952  13.907
82262W        W47489  39.101   8.435   4.451
82263W        W47490  41.368  13.784   2.388
82264W        W47491   5.896  33.481   1.863
82265W        W47492  44.031  20.599  10.240
82266W        W47493  12.393  33.162  13.315
82267W        W47494  33.988  31.559  12.538
82268W        W47495  44.237  40.391  12.222
82269W        W47496  30.065  13.099   1.331
82270W        W47497  37.860  38.118   4.538
82271W        W47498  40.449  23.954  14.901
82272W        W47499   8.310  33.862  13.968
82273W        W47500  41.764  41.617  12.144
82274W        W47501   0.716  13.791  10.503
82275W        W47502  13.672  22.984   1.814
82276W        W47503   6.371  36.508   0.513
82277W        W47504  22.290   5.872   0.068
82278W        W47505  15.550   3.939  13.407
82279W        W47506  29.448  31.350  12.882
82280W        W47507  20.725   2.555  10.837
82281W        W47508   5.301  29.197   2.765
82282W        W47509  28.040  31.232   3.773
82283W        W47510  33.174  17.069  14.944
82284W        W47511  40.910  16.548   4.515
82285W        W47512   6.293  11.421  11.657
82286W        W47513  33.897  25.217  14.624
82287W        W47514   6.516  34.133  12.842
82288W        W47515  15.900  26.090   1.345
82289W        W47516   6.738  37.447  10.622
82290W        W47517   2.849  14.165   1.689
82291W        W47518  35.366  19.009  13.878
82292W        W47519  22.190   7.317   1.808
82293W        W47520  32.541  27.981   0.275
82294W        W47521  11.069  41.218   1.273
82295W        W47522  24.800   8.794   2.091
82296W        W47523  37.635   1.474   4.429
82297W        W47524  44.431   1.933   2.305
82298W        W47525  10.172  17.231   4.095
82299W        W47526  16.388  13.043   3.757
82300W        W47527  13.632  21.716   3.168
82301W        W47528   3.194  44.331  14.031
82302W        W47529  29.007   6.417   0.764
82303W        W47530  16.207  32.394   9.822
82304W        W47531  21.072  20.197   3.816
82305W        W47532  43.832  18.397   1.800
82306W        W47533   5.875  28.155  13.792
82307W        W47534  17.742  39.926  11.887
82308W        W47535   8.235  39.851  13.983
82309W        W47536  13.435  19.351   1.663
82310W        W47537  15.146  37.640  13.395
82311W        W47538  41.298   4.211  12.412
82312W        W47539  35.031  23.179  11.662
82313W        W47540  43.287   4.457   2.221
82314W        W47541  37.861   0.379   3.252
82315W        W47542  15.880  29.653  12.057
82316W        W47543   1.634  11.546   3.620
82317W        W47544  13.156  31.018   2.560
82318W        W47545  39.057   9.145  11.185
82319W        W47546  34.919  17.765   0.220
82320W        W47547  38.882   0.719   1.060
82321W        W47548  14.081  40.862  13.422
82322W        W47549  37.056   2.530   1.193
82323W        W47550  28.119  15.844  10.659
82324W        W47551   6.703  11.650  11.897
82325W        W47552   5.934  20.193   1.855
82326W        W47553  18.903  32.521   4.340
82327W        W47554  15.360  33.988   1.719
82328W        W47555  44.772  16.939   4.975
82329W        W47556   7.881  24.186   3.167
82330W        W47557  14.889  35.036  12.524
82331W        W47558  25.719  40.396   4.778
82332W        W47559  22.091  28.445  12.544
82333W        W47560  14.363  40.117  10.769
82334W        W47561  33.148  18.480  13.375
82335W        W47562  35.998  13.195  11.819
82336W        W47563  37.338  24.945  13.575
82337W        W47564   3.679  12.808  11.085
82338W        W47565   0.817   3.107   2.283
82339W        W47566  25.107   1.288  11.715
82340W        W47567   8.774  15.738   1.722
82341W        W47568  32.245  41.606  11.051
82342W        W47569  16.534  12.995   0.905
82343W        W47570   1.350  32.738  14.074
82344W        W47571  21.259  29.506  13.363
82345W        W47572  11.819  26.058  10.665
82346W        W47573  15.523  33.102  11.535
82347W        W47574  26.692   7.867  12.585
82348W        W47575  38.787  31.125   3.190
82349W        W47576  28.713  28.707   1.138
82350W        W47577  19.712  11.588  11.479
82351W        W47578  37.289  25.035  12.087
82352W        W47579   2.384  39.455  10.552
82353W        W47580  43.532  42.272  13.526
82354W        W47581  37.125   2.738   0.289
82355W        W47582   5.217  37.545  10.386
82356W        W47583  38.962  38.363  11.495
82357W        W47584  31.087  17.636  14.333
82358W        W47585  44.632   4.100   2.063
82359W        W47586  41.833  21.441  12.028
82360W        W47587  29.051  39.583   2.779
82361W        W47588  43.069  10.023  13.527
82362W        W47589  44.283   7.164   2.304
82363W        W47590  10.630   7.689  12.866
82364W        W47591   3.770  38.889  11.256
82365W        W47592  37.730  15.866   3.155
82366W        W47593   4.414   4.502  10.573
82367W        W47594   4.433  34.540   1.904
82368W        W47595  19.035  28.176   0.535
82369W        W47596  28.990  29.317  11.240
82370W        W47597  15.083  18.464   4.736
82371W        W47598  37.177  39.478  11.119
82372W        W47599  17.745   0.807  13.350
82373W        W47600  19.979  25.367  12.544
82374W        W47601  32.400   0.640  11.681
82375W        W47602  32.509  30.255   3.561
82376W        W47603  42.877  42.904  13.972
82377W        W47604  37.441  29.437   0.549
82378W        W47605  23.060  26.046   0.873
82379W        W47606  17.675  33.718  11.930
82380W        W47607   1.176  10.166   0.402
82381W        W47608  23.383  10.237  13.246
82382W        W47609  29.047  18.316  12.662
82383W        W47610  21.559   8.523  14.293
82384W        W47611  17.026  21.587   2.715
82385W        W47612  14.610  16.866   4.021
82386W        W47613  43.478  26.581   0.807
82387W        W47614  11.788  14.620  13.168
82388W        W47615   5.727   5.431   1.773
82389W        W47616  22.591  23.199  12.394
82390W        W47617  14.716  16.326  14.735
82391W        W47618   1.738  38.631   2.123
82392W        W47619  21.073  30.151  11.501
82393W        W47620  32.024  40.262  11.152
82394W        W47621  42.614  11.095  11.693
82395W        W47622   5.309  26.194  14.564
82396W        W47623  26.932  14.786   3.651
82397W        W47624  36.430  15.591   1.860
82398W        W47625  29.468  14.917  11.916
82399W        W47626  12.188  36.951  12.843
82400W        W47627  34.902  37.312   2.170
82401W        W47628  13.770   7.807   2.113
82402W        W47629   0.263  11.273  12.377
82403W        W47630  15.499  28.069   4.586
82404W        W47631  35.512  33.375   2.630
82405W        W47632  37.153  41.765  12.510
82406W        W47633  43.390  32.061   2.582
82407W        W47634  30.430   1.470   1.993
82408W        W47635  39.437  43.399  13.948
82409W        W47636  22.217  15.716  14.290
82410W        W47637  33.455  35.318  11.847
82411W        W47638  25.589  33.927  12.107
82412W        W47639  24.489  38.625  12.117
82413W        W47640   2.351   9.301  10.805
82414W        W47641   1.834  13.953   1.886
82415W        W47642  24.666   7.268  12.076
82416W        W47643  40.457  26.503   2.652
82417W        W47644   9.464  13.913   4.593
82418W        W47645  19.700  37.862  14.911
82419W        W47646  24.171   0.993  13.882
82420W        W47647   3.139   1.472  11.531
82421W        W47648  12.374  39.308  13.780
82422W        W47649  32.442  43.610  12.665
82423W        W47650  26.100  18.284  13.745
82424W        W47651  41.012  12.808  14.704
82425W        W47652  21.423  17.243   2.047
82426W        W47653  15.865  21.900  13.033
82427W        W47654  19.645  33.083  11.504
82428W        W47655   2.658  12.092  13.996
82429W        W47656  28.741   0.517  14.289
82430W        W47657  36.093   2.950  12.557
82431W        W47658  37.442  15.514  12.972
82432W        W47659   2.106  24.092  13.497
82433W        W47660   8.784  22.588  13.006
82434W        W47661   5.882  18.457   1.676
82435W        W47662  33.613  20.020  13.853
82436W        W47663   7.321  38.248  10.998
82437W        W47664  43.000  25.037   0.756
82438W        W47665  36.985  19.072   3.089
82439W        W47666  38.426  20.419   0.521
82440W        W47667  27.264  32.533   0.949
82441W        W47668  20.201  37.251   2.744
82442W        W47669  12.437   7.204  12.043
82443W        W47670  28.949  23.715  11.518
82444W        W47671  14.271   8.529   4.135
82445W        W47672   6.403   2.372   3.871
82446W        W47673   8.160  13.700   5.269
82447W        W47674   7.434  38.918  14.975
82448W        W47675   0.890  21.217  13.696
82449W        W47676  34.440  19.643  14.590
82450W        W47677  26.045  20.806  13.877
82451W        W47678  34.407   7.260  11.615
82452W        W47679  26.521  31.481  10.783
82453W        W47680  26.670  40.967  13.454
82454W        W47681   8.892  31.593   0.947
82455W        W47682  44.332  14.860   2.567
82456W        W47683  25.542  18.772  11.735
82457W        W47684  10.088  10.555  12.886
82458W        W47685   9.371  18.004   0.386
82459W        W47686  18.563  37.907  13.477
82460W        W47687   9.263  38.359   0.313
82461W        W47688  42.114  37.819   2.750
82462W        W47689  12.516  38.909  10.620
82463W        W47690  24.212   2.467  11.244
82464W        W47691  28.484  32.338  12.329
82465W        W47692  44.058   2.877   3.289
82466W        W47693  10.435   7.179  12.145
82467W        W47694  28.054  35.077  11.539
82468W        W47695  22.213   0.864   2.889
82469W        W47696  24.816  23.981   3.552
82470W        W47697  26.638  23.611  12.415
82471W        W47698  25.677  32.343  13.964
82472W        W47699  30.436   1.513  11.211
82473W        W47700  12.824  34.907   1.841
82474W        W47701   0.802   6.684  11.185
82475W        W47702  26.931  28.537   3.375
82476W        W47703  12.486  27.544   1.382
82477W        W47704  41.552   4.813   2.764
82478W        W47705  14.565  30.500   1.297
82479W        W47706   2.474  30.207  12.354
82480W        W47707  12.191  29.354  10.464
82481W        W47708  22.183  19.300   0.412
82482W        W47709  36.551  34.225  11.445
82483W        W47710  21.734  31.906  11.582
82484W        W47711  36.945  31.621  13.986
82485W        W47712  32.088  16.775  12.558
82486W        W47713   8.619  25.518  13.045
82487W        W47714  41.898  43.765  14.523
82488W        W47715  37.322   7.847   1.893
82489W        W47716  25.632  40.986  13.070
82490W        W47717  24.596  17.708  13.410
82491W        W47718  28.889  20.713   1.892
82492W        W47719  42.481   5.457  13.724
82493W        W47720   1.385   3.395  12.522
82494W        W47721  43.773  19.780   1.247
82495W        W47722  30.823  41.274  13.515
82496W        W47723   3.909   7.704  14.895
82497W        W47724  20.683  31.929   0.012
82498W        W47725  11.283  27.704  12.854
82499W        W47726  25.474  21.176   4.489
82500W        W47727  38.788  10.981   1.513
82501W        W47728   9.457   0.531  14.298
82502W        W47729  24.652  40.740   4.223
82503W        W47730  23.870  27.115  14.925
82504W        W47731  30.444  44.779  12.510
82505W        W47732  41.121  21.066  12.050
82506W        W47733  10.414  27.234   1.906
82507W        W47734   7.836  18.358  12.031
82508W        W47735  23.737  13.259   2.806
82509W        W47736  28.427  14.640  10.489
82510W        W47737  25.707  16.096   1.829
82511W        W47738  24.160  37.334   4.587
82512W        W47739  34.383   9.301   4.744
82513W        W47740  40.296   9.418  14.357
82514W        W47741  30.011  32.101   2.424
82515W        W47742  37.861  32.162   0.264
82516W        W47743   2.171  32.691  14.436
82517W        W47744  26.039  42.494  13.252
82518W        W47745  32.523  25.718  13.657
82519W        W47746  19.208  13.184  10.803
82520W        W47747  31.402  41.345   4.520
82521W        W47748   9.861  42.065   2.740
82522W        W47749   8.022  10.300  11.020
82523W        W47750  40.809  39.234  13.088
82524W        W47751  27.873  41.368   3.359
82525W        W47752  15.403  40.724   2.908
82526W        W47753   6.960   0.698   2.414
82527W        W47754  24.017  31.211  10.794
82528W        W47755   3.987  33.501   2.374
82529W        W47756   7.471  20.051  12.683
82530W        W47757  37.303  17.323   2.321
82531W        W47758   7.440   9.016   0.901
82532W        W47759   3.770   0.657   3.474
82533W        W47760  34.330   2.975  11.159
82534W        W47761  19.676   5.039  10.167
82535W        W47762  23.379  26.024   1.266
82536W        W47763  12.974   0.859  12.172
82537W        W47764  30.706  34.067  12.860
82538W        W47765  14.462  32.194   2.247
82539W        W47766  36.903  24.110   4.572
82540W        W47767  29.533  26.140  14.734
82541W        W47768  20.718  38.544  11.665
82542W        W47769  24.930   6.331   2.381
82543W        W47770   1.798  13.196   3.309
82544W        W47771   2.335  41.109  12.594
82545W        W47772  42.984  25.077   4.248
82546W        W47773  27.634  29.072  13.378
82547W        W47774   6.752  16.016   1.882
82548W        W47775   6.122  30.015  14.874
82549W        W47776  34.602   1.518  12.890
82550W        W47777  17.298  43.080  13.445
82551W        W47778  14.226  10.920  13.907
82552W        W47779  35.493  40.733   3.397
82553W        W47780  44.804  36.137   4.588
82554W        W47781  23.536  21.495   3.609
82555W        W47782  29.010  41.617   2.422
82556W        W47783  37.346  44.399   9.842
82557W        W47784  12.815   8.877   3.670
82558W        W47785  19.891   6.330   2.933
82559W        W47786  17.167  10.697  10.723
82560W        W47787  19.317  29.615  10.945
82561W        W47788  43.387   2.774   1.614
82562W        W47789  11.075  16.938  12.429
82563W        W47790  16.588  37.556   3.545
82564W        W47791  20.455   5.840  13.210
82565W        W47792  39.423  15.444  13.474
82566W        W47793  19.260  14.897   3.541
82567W        W47794   9.752  38.849  12.370
82568W        W47795  21.252  37.300  10.986
82569W        W47796   4.847  43.905  12.653
82570W        W47797  41.994   7.186  12.598
82571W        W47798  35.424  12.099   4.617
82572W        W47799  26.717  23.586   0.225
82573W        W47800   5.388  28.549  14.397
82574W        W47801  25.033  37.518  12.071
82575W        W47802  25.047  18.871   2.307
82576W        W47803   7.386  39.861   0.329
82577W        W47804   7.333  30.968   2.345
82578W        W47805  44.032  11.760   0.983
82579W        W47806  22.719  19.807  11.589
82580W        W47807  44.753   4.965   9.767
82581W        W47808  35.901  11.173   1.688
82582W        W47809  34.801   3.191  11.110
82583W        W47810  41.340  24.162  10.743
82584W        W47811  25.557  11.094   3.749
82585W        W47812   2.368  11.676   1.872
82586W        W47813  44.255  20.710  13.447
82587W        W47814  15.268  44.953   4.145
82588W        W47815   4.177  19.292   0.979
82589W        W47816  10.401  41.562  12.957
82590W        W47817  26.505  17.155  12.101
82591W        W47818  14.128  35.860  12.046
82592W        W47819  30.941  11.060  10.524
82593W        W47820  27.698  33.368   4.723
82594W        W47821   0.702  31.631   1.454
82595W        W47822  12.462  16.845  11.085
82596W        W47823  35.863   9.135   2.186
82597W        W47824  44.331  13.120   0.431
82598W        W47825  23.285   5.852  13.480
82599W        W47826   5.833  24.512   4.524
82600W        W47827   4.146  12.868   3.819
82601W        W47828  10.212  31.118   4.426
82602W        W47829  13.651  26.574  11.890
82603W        W47830   0.709  18.688  12.488
82604W        W47831  22.169  10.326  13.912
82605W        W47832  21.453   6.188  11.999
82606W        W47833  20.636   5.618   3.276
82607W        W47834  12.074   9.799   3.610
82608W        W47835   1.299  40.392  11.244
82609W        W47836   2.730  25.125   3.671
82610W        W47837  34.568  26.226  13.446
82611W        W47838   5.281   9.290   4.498
82612W        W47839   7.726   8.898   1.702
82613W        W47840  16.793  43.197  13.473
82614W        W47841  35.717  27.516  13.712
82615W        W47842   1.167  27.600  14.420
82616W        W47843  43.639   9.751  11.713
82617W        W47844  36.843  30.308   0.763
82618W        W47845  20.533   2.362  12.294
82619W        W47846  15.839  38.306  13.393
82620W        W47847  29.038   8.679  11.645
82621W        W47848  13.382  15.605  13.097
82622W        W47849   4.938  17.267  11.024
82623W        W47850  17.299  21.072  11.957
82624W        W47851  31.188  17.168  10.538
82625W        W47852  23.765  12.840   2.092
82626W        W47853  17.539  20.575  11.889
82627W        W47854  12.243  34.881  14.312
82628W        W47855   4.429  38.956   3.825
82629W        W47856  28.723  44.299  13.012
82630W        W47857  40.975  32.302   2.676
82631W        W47858  37.945  16.578   1.248
82632W        W47859  10.672   8.400   4.950
82633W        W47860   8.405  35.649   0.808
82634W        W47861  14.188  35.749   1.169
82635W        W47862  21.197  30.191   4.644
82636W        W47863  38.664  26.826   2.694
82637W        W47864  39.251  23.256   2.718
82638W        W47865  22.223  39.068   4.667
82639W        W47866  12.165  24.196   3.493
82640W        W47867  34.064  12.890  14.326
82641W        W47868  31.554   2.193   2.697
82642W        W47869  39.933  39.928   3.681
82643W        W47870  40.771  42.883   2.407
82644W        W47871  30.462  32.917   1.441
82645W        W47872  44.653  17.583   9.895
82646W        W47873  32.098  35.364  12.996
82647W        W47874  15.361  35.356   3.155
82648W        W47875  18.097  31.517   2.307
82649W        W47876  25.522   4.437   3.590
82650W        W47877  12.650  33.744   2.650
82651W        W47878   3.884  16.672   3.240
82652W        W47879   3.425   6.687  13.488
82653W        W47880  38.488  42.454   2.341
82654W        W47881  20.272  38.510   0.097
82655W        W47882   3.777  26.427   9.893
82656W        W47883  31.525  10.041   0.197
82657W        W47884  41.573  36.028  12.684
82658W        W47885  35.970  32.999  12.973
82659W        W47886   3.008   9.907   2.771
82660W        W47887  36.307  35.227   4.163
82661W        W47888  22.425  24.093  12.677
82662W        W47889  33.866  33.936  12.739
82663W        W47890  20.069   2.322  11.537
82664W        W47891  11.712   8.773  11.676
82665W        W47892  44.717   5.431   0.348
82666W        W47893  43.235  22.634   1.134
82667W        W47894  11.097  36.698  11.566
82668W        W47895  27.101  27.996  14.308
82669W        W47896  42.172  28.959  13.452
82670W        W47897  12.880  36.415   1.819
82671W        W47898  29.914  35.032  11.191
82672W        W47899   4.731  12.182  12.464
82673W        W47900  37.633  20.650   4.379
82674W        W47901  14.555  25.251  12.055
82675W        W47902   4.449   7.440   1.750
82676W        W47903  18.369  12.728  14.513
82677W        W47904  43.684  15.484  11.441
82678W        W47905  24.915  12.046  12.166
82679W        W47906  14.349  24.713   4.418
82680W        W47907  12.179  12.550   2.964
82681W        W47908  37.910  21.573  10.933
82682W        W47909  17.550  31.328  11.130
82683W        W47910  39.530  22.596   0.567
82684W        W47911  36.583  31.461   3.654
82685W        W47912   8.831   3.922  14.557
82686W        W47913   3.156   0.804  13.737
82687W        W47914  19.194  22.808   2.423
82688W        W47915  29.223  20.564   2.284
82689W        W47916   8.085  29.683   2.899
82690W        W47917  32.340  17.592  12.608
82691W        W47918   7.795  25.865   4.078
82692W        W47919  10.852  42.033   2.767
82693W        W47920  43.877   3.162   0.443
82694W        W47921  41.281   9.230   3.706
82695W        W47922  14.758  29.201  12.968
82696W        W47923  22.174   1.729  14.409
82697W        W47924  43.322  21.025  13.555
82698W        W47925  12.611  17.643  12.580
82699W        W47926  42.520  44.442   1.431
82700W        W47927  31.377  31.453  13.802
82701W        W47928  34.765   1.315  11.223
82702W        W47929  31.646  32.943  14.889
82703W        W47930  35.099  18.309  14.571
82704W        W47931   8.883  42.815   1.863
82705W        W47932  10.588  37.051   0.827
82706W        W47933  12.235  38.627   0.316
82707W        W47934  43.486  29.702   4.069
82708W        W47935  21.522  44.976  14.811
82709W        W47936  21.656   6.732  11.375
82710W        W47937  31.583   0.028   0.797
82711W        W47938   5.356  12.595   3.170
82712W        W47939  11.895  32.614  13.835
82713W        W47940   5.452   8.809  14.745
82714W        W47941  16.270  29.707   0.275
82715W        W47942  16.212  19.504   3.633
82716W        W47943  25.626  19.548  13.339
82717W        W47944  11.731  21.768   0.263
82718W        W47945  28.250  35.780  11.086
82719W        W47946  21.772  36.639  13.308
82720W        W47947   0.053  17.542  13.835
82721W        W47948  39.424  30.204   4.070
82722W        W47949   3.246  26.172  10.196
82723W        W47950   0.848  26.099  14.876
82724W        W47951  22.700  31.456   4.878
82725W        W47952  28.919  31.546  14.014
82726W        W47953  25.480  18.028   3.182
82727W        W47954  24.997  44.992   1.394
82728W        W47955  30.334  10.673   2.506
82729W        W47956  29.657  30.952   1.498
82730W        W47957  43.236  33.599   4.184
82731W        W47958   3.451  39.016  14.395
82732W        W47959   3.756  39.591  12.815
82733W        W47960  20.435  36.817   0.759
82734W        W47961  12.680  31.286  14.062
82735W        W47962  16.184  10.062   4.693
82736W        W47963  21.533  25.678  11.170
82737W        W47964  24.625  39.891   2.728
82738W        W47965  18.210   5.837   0.943
82739W        W47966   5.945  43.977  11.967
82740W        W47967  14.652  43.729   1.300
82741W        W47968  20.625   3.162  11.650
82742W        W47969  16.757  22.072   3.939
82743W        W47970   5.344  23.407  11.267
82744W        W47971  13.014  12.190   0.179
82745W        W47972  14.205   0.279  12.158
82746W        W47973  30.133  25.028  10.753
82747W        W47974   3.963  35.582   4.900
82748W        W47975   3.092  16.327   0.663
82749W        W47976  19.718  19.309  12.931
82750W        W47977  16.210  16.542  14.883
82751W        W47978  25.329  30.507  14.950
82752W        W47979  12.743  41.095   0.950
82753W        W47980  31.302   0.065   3.065
82754W        W47981  42.374  13.673   3.281
82755W        W47982  12.592  15.659  13.327
82756W        W47983   9.037   6.774   1.199
82757W        W47984  40.928  39.438  14.063
82758W        W47985  17.795  27.695  12.409
82759W        W47986  43.544  30.379   3.592
82760W        W47987  34.910  15.520  12.995
82761W        W47988  25.050  31.522  14.965
82762W        W47989  24.173  25.469  13.450
82763W        W47990   3.008   1.711   3.085
82764W        W47991  12.823  43.815  10.856
82765W        W47992   6.213  24.176   1.381
82766W        W47993  12.345  12.269   1.966
82767W        W47994  24.785   5.929   2.762
82768W        W47995   7.982  11.512   3.611
82769W        W47996   0.548   4.141  11.546
82770W        W47997  35.348  22.699   0.661
82771W        W47998  10.444   9.548  14.949
82772W        W47999   7.709  14.660  14.334
82773W        W48000  26.964   0.882   3.898
82774W        W48001  42.097  21.729  13.038
82775W        W48002   2.578  14.226  12.468
82776W        W48003   4.226   8.088  11.951
82777W        W48004  28.847   9.224  10.808
82778W        W48005  19.460  36.076   1.342
82779W        W48006  23.768  17.815   3.725
82780W        W48007  17.394  44.977   0.666
82781W        W48008  24.335  11.788  12.578
82782W        W48009  20.792  34.579  12.470
82783W        W48010  30.040   6.462  11.623
82784W        W48011  23.543  42.233  11.766
82785W        W48012  33.752  14.008  10.676
82786W        W48013  37.499  14.888  13.554
82787W        W48014  25.803  31.922   1.440
82788W        W48015   1.506  15.566   0.220
82789W        W48016   6.712  29.711  13.111
82790W        W48017  12.356  31.442   3.648
82791W        W48018  35.338  38.901   2.234
82792W        W48019   7.509   2.949  13.483
82793W        W48020  31.066  14.210   3.393
82794W        W48021  20.523   7.456   3.389
82795W        W48022  25.260   3.933  10.733
82796W        W48023  43.367   2.974   1.124
82797W        W48024  15.581  25.349   0.391
82798W        W48025   2.483  40.719   2.475
82799W        W48026  43.520  14.870  12.831
82800W        W48027  33.403  38.585   4.159
82801W        W48028  23.077  29.397  13.832
82802W        W48029  35.463  39.761   1.830
82803W        W48030  28.513  11.778  14.419
82804W        W48031  35.371  23.967  12.400
82805W        W48032   8.074  14.199   2.621
82806W        W48033  16.654   9.804   1.116
82807W        W48034  11.545  13.620  13.950
82808W        W48035  26.566  42.738   3.648
82809W        W48036   1.324  36.006  13.401
82810W        W48037   3.716  25.049  13.766
82811W        W48038  29.834  29.217   3.569
82812W        W48039  36.034  19.763   2.347
82813W        W48040  31.023  38.577   3.347
82814W        W48041  30.129  29.294   0.360
82815W        W48042  22.533  14.927   5.050
82816W        W48043  31.050  15.600  11.131
82817W        W48044  38.059  14.214  13.055
82818W        W48045  16.868  30.429   1.772
82819W        W48046   4.879  34.990   1.614
82820W        W48047  12.187  10.085   4.853
82821W        W48048   4.367  16.301   0.423
82822W        W48049  19.335  28.218  12.140
82823W        W48050  16.749   5.647   4.168
82824W        W48051  39.389   5.246  13.461
82825W        W48052  21.822  24.007  10.502
82826W        W48053   4.661  37.596   3.113
82827W        W48054  21.517  33.514   4.005
82828W        W48055  43.890  39.385  13.921
82829W        W48056   0.001  23.600   1.525
82830W        W48057  31.844   0.877   2.402
82831W        W48058  13.658   1.437   2.226
82832W        W48059  40.319  44.389  13.884
82833W        W48060   1.996   9.823   0.634
82834W        W48061  23.979  36.512   4.346
82835W        W48062  28.096  31.240  11.651
82836W        W48063  26.103  43.645  14.075
82837W        W48064  34.033  29.956  10.942
82838W        W48065  12.415   5.320  10.800
82839W        W48066  29.707   5.321  11.548
82840W        W48067  33.450   3.990  14.920
82841W        W48068  33.139  11.739  11.584
82842W        W48069   9.679  29.891   1.433
82843W        W48070   2.848  44.850   0.909
82844W        W48071  27.477  31.722  11.187
82845W        W48072   0.111  38.502  14.747
82846W        W48073  24.514  39.934  14.944
82847W        W48074   1.044  34.094  12.832
82848W        W48075  33.879  24.944  10.324
82849W        W48076  27.058  22.130   4.131
82850W        W48077   0.154  42.548   3.620
82851W        W48078  15.349   2.133  13.580
82852W        W48079  11.383  10.596  10.732
82853W        W48080  38.608   4.799  11.144
82854W        W48081   8.117  23.201  11.627
82855W        W48082  33.693  21.143   2.149
82856W        W48083  18.322  43.476  13.062
82857W        W48084  36.333  27.424   0.926
82858W        W48085  28.052  23.560   4.783
82859W        W48086  37.831  26.134   0.175
82860W        W48087  27.454  35.498  10.525
82861W        W48088   8.305  41.437  12.135
82862W        W48089   3.960  28.116   4.967
82863W        W48090  20.437   8.014  14.932
82864W        W48091  39.742  44.114  11.477
82865W        W48092  41.914  34.631  13.866
82866W        W48093   2.361  23.807   4.349
82867W        W48094  42.263   7.002  14.788
82868W        W48095  28.669  16.129   0.952
82869W        W48096   5.895  21.745  11.062
82870W        W48097  29.739   3.898  11.363
82871W        W48098  22.159  11.150  13.037
82872W        W48099  22.389  22.554   0.856
82873W        W48100  34.283  39.483   3.038
82874W        W48101  16.600   8.810  14.534
82875W        W48102  22.265  44.538  13.514
82876W        W48103  31.897  39.353  14.405
82877W        W48104  15.728  22.463   2.756
82878W        W48105  25.564  44.732  14.529
82879W        W48106   8.795  11.566  12.223
82880W        W48107  13.117  15.680   3.734
82881W        W48108  26.418  20.703   2.130
82882W        W48109  39.409  39.399   4.662
82883W        W48110  39.980  17.217  14.364
82884W        W48111  23.639  17.384   3.440
82885W        W48112  19.484  16.373  14.301
82886W        W48113  26.986  32.917  14.966
82887W        W48114  31.656  40.772   2.368
82888W        W48115  17.141  36.427   2.322
82889W        W48116  12.084  16.197  11.991
82890W        W48117  28.134  33.726   0.017
82891W        W48118  11.303   9.803   3.271
82892W        W48119   6.346   6.116   1.890
82893W        W48120   2.119   1.970   4.751
82894W        W48121  25.018   1.704  13.983
82895W        W48122  26.010  31.082   1.443
82896W        W48123   0.331  16.586   1.467
82897W        W48124   0.674  43.102   3.684
82898W        W48125  39.445  24.710   0.716
82899W        W48126  37.894   4.448   4.142
82900W        W48127  40.047  44.248   5.101
82901W        W48128   0.467  21.669  11.665
82902W        W48129  16.514  42.796  13.639
82903W        W48130   6.878  12.587   2.394
82904W        W48131  22.290  34.116   1.418
82905W        W48132  36.845  36.993   1.457
82906W        W48133  32.405   4.891   0.322
82907W        W48134  39.902  28.483  13.899
82908W        W48135  22.039  14.120  11.466
82909W        W48136   0.308  31.580  10.591
82910W        W48137  12.834   9.167  13.502
82911W        W48138   3.949   9.528   4.518
82912W        W48139  42.402  37.606   2.368
82913W        W48140  28.000   1.813   4.625
82914W        W48141  16.559  27.146  11.665
82915W        W48142  37.831   9.324   0.857
82916W        W48143  23.849  25.701  14.971
82917W        W48144  16.706  44.942  14.583
82918W        W48145  38.537  37.371  14.709
82919W        W48146   3.619  33.418   3.879
82920W        W48147   8.893  17.806   0.353
82921W        W48148  36.402  42.952   3.785
82922W        W48149  18.854  30.627  12.392
82923W        W48150  17.926  36.792   2.229
82924W        W48151  12.580  44.291  11.086
82925W        W48152  16.459  39.608  12.935
82926W        W48153  41.033  12.085   4.650
82927W        W48154  11.492  44.826   4.503
82928W        W48155  38.456  16.633   0.809
82929W        W48156   2.845  32.479  13.864
82930W        W48157  34.633  10.656  14.791
82931W        W48158  11.187  23.767   2.277
82932W        W48159  40.586  20.158  14.318
82933W        W48160  18.698   4.359  10.698
82934W        W48161   1.287  17.550  13.200
82935W        W48162  41.669  40.212  13.882
82936W        W48163  35.913  12.391  13.048
82937W        W48164   5.259  11.481  13.316
82938W        W48165   0.628  19.784  13.930
82939W        W48166  38.473   3.295   4.519
82940W        W48167   6.233  37.187  12.895
82941W        W48168   7.317  41.038   3.834
82942W        W48169  31.326   8.025  11.079
82943W        W48170  33.357  25.129  11.984
82944W        W48171  37.642  32.020  14.434
82945W        W48172  14.196  14.313   3.350
82946W        W48173   3.617   9.745   1.809
82947W        W48174  18.094  20.627   0.549
82948W        W48175  40.689  16.357   2.281
82949W        W48176   7.095  24.674   2.238
82950W        W48177  17.459  14.936   3.354
82951W        W48178  44.040  37.013  13.529
82952W        W48179   6.165  18.416  14.938
82953W        W48180  24.516   0.157  12.126
82954W        W48181  37.060  11.577  14.538
82955W        W48182  32.430   0.580  13.840
82956W        W48183  42.545  42.463  11.587
82957W        W48184  21.090  23.733   0.492
82958W        W48185   4.676   5.242   3.255
82959W        W48186   1.342   1.000  14.879
82960W        W48187  23.261   2.632  13.382
82961W        W48188   9.085  11.748   3.743
82962W        W48189  33.450  19.179  12.877
82963W        W48190   5.225   4.747  10.812
82964W        W48191  26.058  20.082   0.463
82965W        W48192  44.092  32.560   2.247
82966W        W48193  25.749  13.716  11.805
82967W        W48194   6.355   0.971   4.557
82968W        W48195  23.054  31.418  11.173
82969W        W48196  29.061  18.328   0.428
82970W        W48197  40.276   9.413   1.432
82971W        W48198  30.140  44.418  12.856
82972W        W48199  43.815  25.327  10.359
82973W        W48200   0.920  30.822   4.531
82974W        W48201  41.830  37.041   3.406
82975W        W48202  10.721  17.669   0.433
82976W        W48203  29.138   6.408   1.720
82977W        W48204  36.475  22.144  10.724
82978W        W48205   3.985  19.317   2.862
82979W        W48206  21.277  30.545   2.176
82980W        W48207  20.099  11.655  13.030
82981W        W48208   6.418   9.846  13.030
82982W        W48209  32.560  38.076  14.462
82983W        W48210  12.085  25.513  13.414
82984W        W48211  21.882  30.710   3.055
82985W        W48212  41.809  40.388   0.457
82986W        W48213   8.701  25.483   2.505
82987W        W48214  12.820  29.104  14.425
82988W        W48215   6.744  38.091   3.767
82989W        W48216  44.115   0.237   2.577
82990W        W48217  12.468   5.396   4.149
82991W        W48218  33.365  39.273  12.044
82992W        W48219  27.032   5.267  14.822
82993W        W48220  34.611  37.941  13.882
82994W        W48221   1.535  24.286   3.667
82995W        W48222  23.154  11.310   1.899
82996W        W48223  19.647   9.820  12.074
82997W        W48224  38.187  21.966   2.153
82998W        W48225  28.845  40.775  11.956
82999W        W48226  25.553  36.983   1.426
83000W        W48227  16.372  40.046   3.618
83001W        W48228  41.178  16.804  12.133
83002W        W48229  24.960  11.342   3.798
83003W        W48230  15.481  15.094  14.311
83004W        W48231  28.627   2.944  14.595
83005W        W48232  38.283  17.828   1.022
83006W        W48233  27.678   4.654   3.572
83007W        W48234  22.067  19.511  12.118
83008W        W48235  29.004  41.467  14.802
83009W        W48236   0.544  30.224   0.892
83010W        W48237  24.266  39.940   4.628
83011W        W48238  41.670  11.415  12.493
83012W        W48239  24.158  10.248  10.720
83013W        W48240  36.948   1.408   3.200
83014W        W48241  23.955  43.966   1.922
83015W        W48242   7.638  22.725   3.795
83016W        W48243  22.162   3.415   1.876
83017W        W48244  42.102   6.934   2.701
83018W        W48245  24.551  10.913   1.383
83019W        W48246  10.610   7.861  10.670
83020W        W48247  17.647  23.235   3.226
83021W        W48248  19.590  12.057  14.980
83022W        W48249  13.293   9.648  10.678
83023W        W48250  42.199  26.972  13.774
83024W        W48251   2.818  44.854  11.562
83025W        W48252   1.837  35.625   4.574
83026W        W48253  34.371   9.401   3.188
83027W        W48254  20.462  44.964  14.779
83028W        W48255   8.672  36.406  11.203
83029W        W48256  33.661  35.569   3.000
83030W        W48257   4.824  11.892   1.867
83031W        W48258  10.160  32.989  14.899
83032W        W48259  26.453  43.622  12.906
83033W        W48260  10.639  42.139  14.373
83034W        W48261   1.973  37.913   4.023
83035W        W48262   1.284   2.665   1.414
83036W        W48263  14.901  44.086  12.805
83037W        W48264  11.275  21.080   2.372
83038W        W48265  10.523  31.802   3.964
83039W        W48266  33.668  25.960   3.303
83040W        W48267  36.935   5.885  11.548
83041W        W48268  21.153  13.820   1.816
83042W        W48269  29.693  10.006   3.595
83043W        W48270  34.504  13.075  10.168
83044W        W48271   3.322   9.281  11.709
83045W        W48272  14.608  41.373  14.239
83046W        W48273  25.758  35.665  11.153
83047W        W48274  26.154  29.257   4.512
83048W        W48275  44.995  11.128  10.739
83049W        W48276  43.026  41.754   2.418
83050W        W48277  18.073  12.983  12.666
83051W        W48278  22.001  39.493  12.001
83052W        W48279  21.509  33.760  11.074
83053W        W48280  37.079   5.380  14.867
83054W        W48281  15.575  34.049   0.762
83055W        W48282  19.168  12.892   2.332
83056W        W48283  24.256   5.693   3.671
83057W        W48284  37.830  43.489  12.635
83058W        W48285  34.114  29.767  10.455
83059W        W48286  31.652  31.339   2.261
83060W        W48287   9.938  15.581   0.203
83061W        W48288  33.599   3.485   4.251
83062W        W48289  25.473  16.780   2.746
83063W        W48290  35.031   4.277   1.644
83064W        W48291  30.952  44.606  12.368
83065W        W48292  15.500   5.633   1.915
83066W        W48293  40.575  29.444   0.671
83067W        W48294  44.770  12.181  12.866
83068W        W48295  29.481  38.188  14.276
83069W        W48296   0.363  44.731  10.560
83070W        W48297  12.632   3.850   1.301
83071W        W48298  11.114  23.267   2.277
83072W        W48299  42.772  12.695  13.606
83073W        W48300  15.750  43.382   3.698
83074W        W48301   7.232  14.197   9.919
83075W        W48302  16.612   6.941   4.178
83076W        W48303   6.626  35.442  10.468
83077W        W48304   3.385  23.590   1.389
83078W        W48305   8.714  31.566  10.721
83079W        W48306  24.748   2.775   2.681
83080W        W48307  19.642   3.790  13.100
83081W        W48308  28.425   0.789  11.420
83082W        W48309  18.963   7.863   4.659
83083W        W48310  22.117  21.273  14.927
83084W        W48311  27.118  18.488   0.330
83085W        W48312  25.977  17.649   0.518
83086W        W48313   9.373  36.675   4.901
83087W        W48314  29.102  38.239   4.208
83088W        W48315  13.608   4.400  13.176
83089W        W48316  27.889  21.627  12.179
83090W        W48317  32.076  44.264  13.909
83091W        W48318  24.540  30.042  11.613
83092W        W48319  31.108   3.956   3.199
83093W        W48320  14.274  42.248  13.442
83094W        W48321  16.291  15.496   0.106
83095W        W48322  16.614  28.552  12.067
83096W        W48323  19.821  17.814  11.549
83097W        W48324   5.733  11.461   1.456
83098W        W48325   7.651  38.413  13.012
83099W        W48326  25.591  32.852  13.964
83100W        W48327  24.138   0.944   2.815
83101W        W48328  28.648  15.836  11.989
83102W        W48329  15.292  43.512   4.518
83103W        W48330  35.006  26.166  11.762
83104W        W48331  21.578  31.219   0.939
83105W        W48332  26.556  15.566   4.073
83106W        W48333   6.381  21.756   4.599
83107W        W48334   3.348   7.946  13.737
83108W        W48335  39.296  44.893  14.423
83109W        W48336  26.218   5.168  11.480
83110W        W48337  33.674   4.329  10.732
83111W        W48338  36.855  11.211   3.903
83112W        W48339   1.279   9.081  14.380
83113W        W48340  14.081  40.346   2.856
83114W        W48341  27.120  11.684   4.583
83115W        W48342  43.819   9.296   0.973
83116W        W48343  26.267  29.761  14.388
83117W        W48344  10.629   5.736  10.575
83118W        W48345  30.456  19.290   0.027
83119W        W48346   6.112  23.137   2.211
83120W        W48347  16.830   0.340  13.426
83121W        W48348  39.082  12.909  10.302
83122W        W48349   7.748   5.725   4.868
83123W        W48350  35.500  42.228  14.882
83124W        W48351  21.146  38.363   0.261
83125W        W48352  38.849   2.856   2.845
83126W        W48353  10.590  10.657  12.873
83127W        W48354  33.787  43.376  11.898
83128W        W48355  40.386  20.082  12.044
83129W        W48356  42.997  38.673  13.569
83130W        W48357  31.643  33.967   2.767
83131W        W48358  18.939   0.366  10.765
83132W        W48359  14.705  44.840  10.846
83133W        W48360  12.747   8.332   2.795
83134W        W48361  40.641   2.208  12.770
83135W        W48362   1.604   4.398  12.153
83136W        W48363  42.104  35.075   1.170
83137W        W48364   4.012   4.055   3.955
83138W        W48365  39.263  24.527  13.280
83139W        W48366  19.708   2.311  12.148
83140W        W48367  33.457  29.738   3.491
83141W        W48368  19.378  40.998   2.207
83142W        W48369   4.793  43.922  12.138
83143W        W48370   3.158   5.750  12.485
83144W        W48371  41.989  37.003  12.560
83145W        W48372  35.782  21.682  11.235
83146W        W48373  28.490  18.182   4.654
83147W        W48374  36.587  26.819  13.307
83148W        W48375  14.063   3.734  11.132
83149W        W48376  19.792  41.374  12.846
83150W        W48377  20.536  31.372   0.960
83151W        W48378  12.196   1.389   1.813
83152W        W48379  16.588  15.520   1.101
83153W        W48380  40.658  37.121   4.184
83154W        W48381  24.167  10.397   4.079
83155W        W48382   2.025  30.564   3.635
83156W        W48383   7.624  13.673   4.641
83157W        W48384  35.345  18.105   4.452
83158W        W48385  23.089  44.057   0.859
83159W        W48386  20.654  25.405  13.592
83160W        W48387   6.337  15.876  14.302
83161W        W48388  17.608  40.928   1.871
83162W        W48389  25.275  32.829  14.359
83163W        W48390   5.686  25.054   1.284
83164W        W48391  30.847  33.321   2.089
83165W        W48392  32.478  30.548  12.410
83166W        W48393  22.649  40.547  13.532
83167W        W48394  24.050  10.963  13.917
83168W        W48395  39.598  26.441   0.324
83169W        W48396  10.402  38.827   0.437
83170W        W48397  21.831   0.424  11.050
83171W        W48398  23.981  30.845  13.435
83172W        W48399   9.892  32.803   0.943
83173W        W48400  19.290   5.158  14.093
83174W        W48401   1.278   3.807   4.608
83175W        W48402  12.032   4.510  10.566
83176W        W48403  28.607  14.028  10.300
83177W        W48404  29.360  35.467   0.772
83178W        W48405  17.805  43.834   4.632
83179W        W48406  30.317   2.416   2.117
83180W        W48407   6.930  25.047   4.673
83181W        W48408  19.527  36.804   4.544
83182W        W48409  30.308   6.472   4.198
83183W        W48410  20.193  17.954   1.618
83184W        W48411  27.489  21.235  10.262
83185W        W48412  42.035   5.337   1.026
83186W        W48413  40.316  43.866  13.337
83187W        W48414  32.365   4.708   2.168
83188W        W48415   5.711  32.922  13.665
83189W        W48416   1.568  41.945   1.472
83190W        W48417  38.624  12.234  13.328
83191W        W48418  21.577  36.259  12.981
83192W        W48419  29.108   5.518   4.081
83193W        W48420   3.621  14.743  10.956
83194W        W48421  38.377  14.628   3.949
83195W        W48422   9.941   1.311  14.330
83196W        W48423   7.173  24.151   3.918
83197W        W48424  26.166  28.116   0.757
83198W        W48425  38.789   3.301  11.908
83199W        W48426  18.562  13.348   3.145
83200W        W48427  43.008  38.980  12.419
83201W        W48428  32.872   9.424   1.441
83202W        W48429  39.029  13.085  11.664
83203W        W48430  20.719  10.690  12.590
83204W        W48431  14.676   3.131  14.781
83205W        W48432  18.892  40.477   3.796
83206W        W48433  15.325  30.459   3.325
83207W        W48434   7.744  13.952   5.038
83208W        W48435  37.002  42.891   4.623
83209W        W48436  41.350  39.518  13.757
83210W        W48437  25.066  20.808   9.933
83211W        W48438  26.425  25.464  12.943
83212W        W48439  30.079   0.449  13.351
83213W        W48440  44.892  19.010   1.913
83214W        W48441  35.607  14.644   0.393
83215W        W48442  32.302  40.381   2.665
83216W        W48443   6.185  28.642   2.256
83217W        W48444  15.714   0.673   2.673
83218W        W48445   5.832  29.658   2.580
83219W        W48446  23.915   1.742   1.040
83220W        W48447   0.613   4.446  11.949
83221W        W48448  14.615  13.815  13.438
83222W        W48449  33.897  42.285  13.911
83223W        W48450   8.883  33.474  13.197
83224W        W48451  16.512  16.685  13.544
83225W        W48452  43.276   0.378  13.590
83226W        W48453   8.812  23.806  12.437
83227W        W48454  14.842   5.358  14.465
83228W        W48455  34.495   0.350   1.678
83229W        W48456  18.187  19.606  14.974
83230W        W48457  25.469  25.811  12.943
83231W        W48458  16.748   0.489  12.532
83232W        W48459  38.423  37.538   2.281
83233W        W48460  33.824   7.388   1.441
83234W        W48461  10.279  19.894  13.476
83235W        W48462   9.640  44.264   3.694
83236W        W48463   7.127  31.370  14.951
83237W        W48464  27.653  12.835  13.836
83238W        W48465   5.310  10.651   0.548
83239W        W48466  26.169  39.964  12.432
83240W        W48467  36.524   0.000   0.026
83241W        W48468  32.863  33.347   3.988
83242W        W48469  19.569  39.312   0.832
83243W        W48470  26.203   0.025  10.494
83244W        W48471  33.969   1.718   3.024
83245W        W48472  30.079  21.323  12.421
83246W        W48473  24.654  39.489  12.030
83247W        W48474  10.326   2.385  10.609
83248W        W48475  18.091   1.919   0.307
83249W        W48476   8.809  44.756   0.766
83250W        W48477  36.153  22.018   2.318
83251W        W48478  22.009  21.947   4.542
83252W        W48479  39.750  44.111   2.113
83253W        W48480  27.648  16.721   3.283
83254W        W48481  24.321  36.061   1.319
83255W        W48482  16.298  14.682   1.789
83256W        W48483   5.170   2.699  14.466
83257W        W48484  16.708  23.169  12.715
83258W        W48485  39.497   2.318  13.991
83259W        W48486   0.214  36.495   4.130
83260W        W48487  23.544  22.742   2.413
83261W        W48488  38.017  18.667   4.745
83262W        W48489  44.280  44.234  13.912
83263W        W48490  43.330  15.063   4.613
83264W        W48491  35.585  28.016  14.041
83265W        W48492  40.240  15.166  14.066
83266W        W48493  25.008  27.427   3.118
83267W        W48494  21.167  18.069  14.903
83268W        W48495  39.552   2.853   2.181
83269W        W48496  23.445  17.753   0.251
83270W        W48497  43.168  26.465   0.309
83271W        W48498   3.162  31.553  12.826
83272W        W48499  34.054  19.236  12.581
83273W        W48500  30.963  14.448   4.854
83274W        W48501  13.718  41.104   4.054
83275W        W48502  30.835  28.576   1.701
83276W        W48503  37.748   3.850   2.977
83277W        W48504  11.888  35.760   1.781
83278W        W48505  44.891  35.916   1.031
83279W        W48506  28.931  36.845   3.638
83280W        W48507  43.694  13.870  12.076
83281W        W48508  22.732  20.635  14.863
83282W        W48509  32.482  11.694  13.603
83283W        W48510   1.791  10.904   4.122
83284W        W48511   0.036  20.181   2.329
83285W        W48512  31.558  37.576   3.231
83286W        W48513  10.942   6.237   2.317
83287W        W48514  41.722   3.481  12.063
83288W        W48515  35.457  29.958  13.523
83289W        W48516  27.431  31.619  14.002
83290W        W48517  15.736  13.229   0.020
83291W        W48518  44.436   7.934   4.569
83292W        W48519  41.334  38.905   2.331
83293W        W48520  23.563  30.826   3.753
83294W        W48521  27.940  32.614   2.439
83295W        W48522  21.274  35.771   3.935
83296W        W48523  44.211  20.946   0.916
83297W        W48524   0.073  33.596  14.682
83298W        W48525   9.734   4.950  11.100
83299W        W48526  39.031  10.410   0.796
83300W        W48527  16.679  34.106   1.158
83301W        W48528  39.916  27.690   0.857
83302W        W48529  21.890  19.270   0.855
83303W        W48530  11.389  19.162   0.843
83304W        W48531  30.586  10.533   3.614
83305W        W48532  22.122  35.845   2.317
83306W        W48533  43.217  41.445  10.925
83307W        W48534  14.199   7.436  10.734
83308W        W48535   8.167  24.613  13.459
83309W        W48536   3.311   2.798   1.707
83310W        W48537  28.813  23.454   2.232
83311W        W48538  30.588   0.639  14.022
83312W        W48539   4.265  30.066   1.835
83313W        W48540   4.947  12.400   0.982
83314W        W48541  27.595  22.589   4.659
83315W        W48542  39.738  35.836  12.497
83316W        W48543  44.783  36.023  12.575
83317W        W48544  22.252  21.096  11.071
83318W        W48545   6.702   2.826   1.949
83319W        W48546   0.702  42.810  10.748
83320W        W48547  16.458  34.900   4.555
83321W        W48548  33.026  16.211  14.340
83322W        W48549   8.298   4.491  10.596
83323W        W48550  33.377  34.029   1.717
83324W        W48551   4.525  17.896   3.391
83325W        W48552  13.299  39.858  14.705
83326W        W48553   1.141   6.631   1.945
83327W        W48554  18.868   6.325  11.646
83328W        W48555   1.915  19.522   0.871
83329W        W48556   3.481  44.104   0.870
83330W        W48557  43.328   4.829  12.088
83331W        W48558  20.715  13.887   5.009
83332W        W48559  39.349  25.353   4.389
83333W        W48560  26.462  21.552  11.818
83334W        W48561   4.293  33.983  14.978
83335W        W48562  42.329  40.598  14.918
83336W        W48563   8.011  12.639  13.303
83337W        W48564   7.984  33.374  14.829
83338W        W48565  37.808   4.682   1.419
83339W        W48566  42.779  10.657   1.856
83340W        W48567  14.742  42.435  13.396
83341W        W48568   6.667  37.335  14.572
83342W        W48569  10.399  35.576  12.374
83343W        W48570  29.683   4.043  11.887
83344W        W48571  42.801  15.091  11.252
83345W        W48572  41.097  41.824   3.266
83346W        W48573  23.699  14.343   0.823
83347W        W48574  16.288  44.146  12.244
83348W        W48575   6.520   0.437  12.593
83349W        W48576  34.315  42.010  14.398
83350W        W48577  12.937  29.672  11.095
83351W        W48578  30.017  26.923  13.950
83352W        W48579  36.310   8.403   9.724
83353W        W48580  39.171  12.930   3.662
83354W        W48581   4.662  35.283  12.786
83355W        W48582  37.314   1.759  14.304
83356W        W48583   8.239  14.918  12.234
83357W        W48584   9.691   2.965   0.510
83358W        W48585  11.678   1.552   4.061
83359W        W48586  43.737  17.063   0.784
83360W        W48587   7.801  30.497  13.407
83361W        W48588  12.214  39.167   4.693
83362W        W48589  19.014  30.152   0.930
83363W        W48590  39.335  42.329  13.835
83364W        W48591  10.462  27.873   3.310
83365W        W48592  16.774   1.106  13.854
83366W        W48593  26.137  24.249   4.525
83367W        W48594   9.450  13.294  10.604
83368W        W48595  43.366  27.017  12.645
83369W        W48596  27.895  40.916   2.357
83370W        W48597  37.398  26.749   5.058
83371W        W48598  26.793  25.487  10.830
83372W        W48599  41.970  10.257  10.766
83373W        W48600  29.372  15.080   1.314
83374W        W48601  19.088  21.510   2.145
83375W        W48602  38.326  39.463   1.394
83376W        W48603   9.381  22.512   0.438
83377W        W48604  41.782  13.344   4.308
83378W        W48605  27.468  10.719   1.425
83379W        W48606  27.632  28.538   0.156
83380W        W48607   8.302  17.848  12.532
83381W        W48608  21.345  14.016   0.482
83382W        W48609  35.909   2.847  14.899
83383W        W48610  34.653  16.835  14.065
83384W        W48611  20.154   1.674   2.367
83385W        W48612   2.229  33.115  11.003
83386W        W48613  17.783  34.452   3.340
83387W        W48614  38.411  10.618   2.821
83388W        W48615  25.677  15.176   4.668
83389W        W48616  39.437  13.901  12.613
83390W        W48617  43.902  34.601   4.893
83391W        W48618  25.978   0.825   1.544
83392W        W48619  39.351   1.412  10.952
83393W        W48620  18.933   7.336  10.627
83394W        W48621  23.227  38.947   2.668
83395W        W48622  30.649   9.879   2.701
83396W        W48623  11.049  21.283  14.983
83397W        W48624  20.705  42.496   3.727
83398W        W48625  35.593  35.039   0.505
83399W        W48626  15.490  38.069   4.347
83400W        W48627   4.246  29.997  12.780
83401W        W48628  36.132  11.400   1.281
83402W        W48629  27.118  28.865  14.033
83403W        W48630  17.215   2.928  11.239
83404W        W48631  29.690   4.742   2.073
83405W        W48632  18.481  14.856  11.461
83406W        W48633  44.505  33.420  13.476
83407W        W48634  22.462  16.816  12.900
83408W        W48635  34.004  31.676  13.432
83409W        W48636   3.503   3.401  14.018
83410W        W48637   5.937  13.941  14.444
83411W        W48638  26.505  19.106   3.167
83412W        W48639  30.979  21.659   0.795
83413W        W48640  44.054  21.811   3.210
83414W        W48641  41.062   9.874   0.499
83415W        W48642  11.593  21.668  14.378
83416W        W48643  44.101  19.177   1.388
83417W        W48644   7.636  23.789  11.153
83418W        W48645   1.290  22.687   3.247
83419W        W48646   1.164  15.681  12.958
83420W        W48647  42.152  24.208  12.841
83421W        W48648  13.214  30.086  14.123
83422W        W48649  22.818  34.853   5.435
83423W        W48650   7.699  37.121  12.015
83424W        W48651   5.820  30.760  11.055
83425W        W48652   5.471  21.693   2.136
83426W        W48653  11.264  11.912   4.121
83427W        W48654   0.982  12.198   1.408
83428W        W48655  21.564   4.144  13.485
83429W        W48656  39.550  29.209  11.122
83430W        W48657  27.874  44.435   0.380
83431W        W48658   9.175   2.004  11.512
83432W        W48659   6.639  27.916  12.049
83433W        W48660  39.439  41.943   2.282
83434W        W48661  28.899  30.419   3.784
83435W        W48662  34.136  36.462   4.584
83436W        W48663   6.045  43.826  10.407
83437W        W48664  33.586  21.344  13.535
83438W        W48665  39.421  30.165   2.625
83439W        W48666  37.437  41.325   3.188
83440W        W48667  16.664  28.910   2.199
83441W        W48668  15.850  33.579   0.222
83442W        W48669  40.091  41.285  12.685
83443W        W48670  28.851  31.981  11.507
83444W        W48671  24.995  43.253   4.957
83445W        W48672  23.414   4.471  10.820
83446W        W48673  31.885  32.096   5.166
83447W        W48674  23.208  32.418  13.933
83448W        W48675  27.176  10.584  11.201
83449W        W48676  18.083   0.328   3.099
83450W        W48677  17.757  30.558   3.302
83451W        W48678  43.520  42.282  10.682
83452W        W48679  39.107   4.437   1.939
83453W        W48680  43.906  39.817  13.047
83454W        W48681  38.470   2.819   1.170
83455W        W48682   5.503  40.938  14.183
83456W        W48683  28.264  23.199  14.703
83457W        W48684   6.220   9.997   1.793
83458W        W48685  39.794  44.874   2.783
83459W        W48686   7.489  27.152   1.343
83460W        W48687  31.001  20.816  10.436
83461W        W48688  21.829  42.434   2.394
83462W        W48689   7.312  35.570  13.923
83463W        W48690  35.372  21.309  11.039
83464W        W48691  43.474  35.262  14.336
83465W        W48692  24.333  35.907  14.526
83466W        W48693  14.823  19.988  12.890
83467W        W48694  32.200  24.002   4.617
83468W        W48695   4.661   3.350   3.257
83469W        W48696   7.269   2.323  11.982
83470W        W48697  40.520  25.755  12.560
83471W        W48698   1.285  27.086  13.337
83472W        W48699  43.294  15.165   2.340
83473W        W48700  13.299  41.275   1.911
83474W        W48701  13.101  34.481   2.324
83475W        W48702  28.095  11.778  14.045
83476W        W48703  16.153  29.396  12.941
83477W        W48704  43.532   7.297  13.556
83478W        W48705   3.681   1.309   1.720
83479W        W48706  22.740  34.664   1.905
83480W        W48707  18.150  36.650   0.323
83481W        W48708  23.153  15.980  14.785
83482W        W48709   0.620  26.112  12.354
83483W        W48710  32.712   9.799  14.962
83484W        W48711  19.285  40.324   3.471
83485W        W48712   9.250   7.143   0.498
83486W        W48713  18.170  38.103   2.228
83487W        W48714  34.151  20.754   3.082
83488W        W48715  17.759   1.104   1.758
83489W        W48716  27.945  26.130  10.386
83490W        W48717  35.940  35.155   3.068
83491W        W48718   3.337  22.696  13.815
83492W        W48719  23.193  32.861   3.348
83493W        W48720  18.624  30.373  13.251
83494W        W48721  12.550   0.106   0.365
83495W        W48722  18.333  31.565   0.718
83496W        W48723  29.437  29.477   3.876
83497W        W48724   1.955  28.166  10.549
83498W        W48725   8.611  14.522  14.394
83499W        W48726  18.133  41.592   1.995
83500W        W48727  27.696  44.985   0.467
83501W        W48728  33.061   5.876   2.545
83502W        W48729  17.338  29.675   4.203
83503W        W48730  23.709   4.095   2.193
83504W        W48731   2.389  31.590  14.982
83505W        W48732   3.974  11.699  10.844
83506W        W48733  30.065   0.495  10.579
83507W        W48734  12.364  15.794  12.892
83508W        W48735   9.117  11.539   1.298
83509W        W48736  10.182   0.273   4.643
83510W        W48737   6.415  20.291  14.637
83511W        W48738  19.528  16.345  10.722
83512W        W48739  30.142   2.697  12.681
83513W        W48740  25.716   0.562  12.007
83514W        W48741  30.479  41.066   4.490
83515W        W48742  25.705  37.329  11.540
83516W        W48743  36.472  41.260   2.683
83517W        W48744   1.991  11.871  11.643
83518W        W48745  16.325  22.527  13.870
83519W        W48746  27.466   7.706  14.265
83520W        W48747  27.637  10.255   1.223
83521W        W48748  19.318  26.079  11.433
83522W        W48749   3.345  39.311  13.957
83523W        W48750  38.082   4.093   2.654
83524W        W48751  37.597   7.628  13.475
83525W        W48752  42.456  14.718  12.442
83526W        W48753  25.920  11.477   5.021
83527W        W48754  39.516  44.980   1.796
83528W        W48755  13.760  35.863  14.806
83529W        W48756  44.462  17.701   1.964
83530W        W48757  29.275  21.436   2.203
83531W        W48758  10.549  43.283  13.669
83532W        W48759  30.868  35.467  13.789
83533W        W48760  38.987   9.405  10.747
83534W        W48761  15.510  37.006   0.399
83535W        W48762  24.706   0.658  13.521
83536W        W48763  26.842  10.364   2.351
83537W        W48764  12.714  27.229  11.112
83538W        W48765  22.721   5.666  14.738
83539W        W48766  23.898  38.111   0.870
83540W        W48767  22.152  43.425  10.678
83541W        W48768  26.464  23.985  13.396
83542W        W48769  19.801  32.515  14.873
83543W        W48770   5.268  36.464  12.670
83544W        W48771   1.284   2.869  13.452
83545W        W48772  23.094   8.105  11.533
83546W        W48773  11.395  20.305  12.014
83547W        W48774  18.565  43.884   4.169
83548W        W48775  20.154  23.129  13.011
83549W        W48776  40.838   4.476   4.551
83550W        W48777  43.938  43.045  10.925
83551W        W48778  28.481  28.552  12.311
83552W        W48779  15.700   3.367   2.296
83553W        W48780  28.114  39.836   3.620
83554W        W48781  42.291  28.536   2.147
83555W        W48782   7.328  41.517   3.590
83556W        W48783  25.656   6.292   3.250
83557W        W48784  21.123  16.640   3.697
83558W        W48785  36.967  20.043   1.598
83559W        W48786  30.220  32.570   2.544
83560W        W48787   4.682   5.547  14.415
83561W        W48788  37.060  30.651   3.681
83562W        W48789  21.297  44.779   3.733
83563W        W48790  37.875  43.040   2.789
83564W        W48791  17.899  24.020   3.969
83565W        W48792   5.434  14.391   0.296
83566W        W48793  11.504  28.616   2.748
83567W        W48794  26.850  18.302   2.027
83568W        W48795  13.054  31.642  14.009
83569W        W48796  10.289   3.840  10.653
83570W        W48797  32.041  27.752   2.662
83571W        W48798  17.341  13.121   2.204
83572W        W48799   6.198  16.744  11.407
83573W        W48800  16.425  28.949   1.365
83574W        W48801  39.057   7.623   4.092
83575W        W48802  43.771  38.426   0.397
83576W        W48803  33.582  27.979  10.530
83577W        W48804  13.167  39.603   2.279
83578W        W48805  24.716  38.836  14.334
83579W        W48806  25.610  36.514   0.296
83580W        W48807  35.284  29.042   4.763
83581W        W48808  34.993  27.179   2.137
83582W        W48809  10.395  27.995  13.439
83583W        W48810   1.913  12.132  13.620
83584W        W48811   5.324  26.785   1.149
83585W        W48812  28.343  37.777   0.954
83586W        W48813   0.741  17.839   2.979
83587W        W48814   4.933  17.836  10.677
83588W        W48815  28.054  14.752  14.303
83589W        W48816  13.052  14.387   4.125
83590W        W48817  36.362  31.373  13.160
83591W        W48818  33.662  26.783   3.618
83592W        W48819   9.321   9.275   2.658
83593W        W48820  12.719  40.878  11.118
83594W        W48821  14.564   7.202   3.235
83595W        W48822  19.265  34.176   3.555
83596W        W48823  11.898  27.150  14.287
83597W        W48824  16.702  39.929   1.985
83598W        W48825  40.296  14.318   3.281
83599W        W48826  40.058  41.607   0.802
83600W        W48827   7.708  36.837   2.794
83601W        W48828   5.422  43.994   4.398
83602W        W48829  23.247  10.031  14.736
83603W        W48830  29.958  21.564   0.800
83604W        W48831  27.582  37.844   1.911
83605W        W48832   0.287  24.272   3.178
83606W        W48833  43.072   4.482  14.555
83607W        W48834  29.906  10.809  12.572
83608W        W48835  16.384   1.868  14.279
83609W        W48836  31.144  32.025   5.031
83610W        W48837  43.356  11.844   3.677
83611W        W48838  23.132  37.184   3.250
83612W        W48839  39.769  14.987  12.535
83613W        W48840   0.941  31.298   4.751
83614W        W48841  37.970   3.456  14.065
83615W        W48842  21.461  21.726  10.322
83616W        W48843  35.387  31.424  14.983
83617W        W48844   7.148  31.544  12.023
83618W        W48845  15.158   4.755   1.162
83619W        W48846   9.631   5.599  14.322
83620W        W48847   2.566  39.608  14.405
83621W        W48848  26.571  32.972  11.206
83622W        W48849  11.388  22.078  14.081
83623W        W48850  12.874  14.573  11.072
83624W        W48851   5.666  22.285   3.611
83625W        W48852  18.978  42.717  10.747
83626W        W48853  42.058  20.020  14.432
83627W        W48854  41.708  14.882   3.919
83628W        W48855  42.601   1.391  11.600
83629W        W48856  29.155  32.447  13.951
83630W        W48857  33.781  14.401  11.924
83631W        W48858  42.539   0.654  11.201
83632W        W48859  22.148  33.955   3.584
83633W        W48860  33.887  24.023   5.057
83634W        W48861  41.810  35.640   2.324
83635W        W48862  17.529   1.341  11.188
83636W        W48863  31.610  32.354  13.387
83637W        W48864  25.899  34.262   1.251
83638W        W48865  19.221  16.987   2.231
83639W        W48866  14.876  36.813  14.976
83640W        W48867  27.253  31.823   3.388
83641W        W48868  26.214  41.792   1.632
83642W        W48869  28.394  11.436   3.225
83643W        W48870  33.136  22.701   2.700
83644W        W48871   1.495  24.267   1.469
83645W        W48872   7.102   2.783   1.633
83646W        W48873  16.455  38.532   2.758
83647W        W48874  42.835  27.019  10.062
83648W        W48875  16.183  12.395  13.922
83649W        W48876  31.906  33.947   1.705
83650W        W48877   9.280  32.761  14.687
83651W        W48878  30.384  17.694  12.619
83652W        W48879   1.058  25.843   9.720
83653W        W48880  30.495   2.882  11.452
83654W        W48881  43.104   7.087   1.805
83655W        W48882  22.892  25.986  12.992
83656W        W48883  43.032  32.644  14.234
83657W        W48884  29.099  39.405  13.910
83658W        W48885  21.263  29.761   3.753
83659W        W48886  32.702  44.850  14.908
83660W        W48887  15.626  23.252  11.699
83661W        W48888  44.954  19.210  13.451
83662W        W48889  21.696  32.940  12.240
83663W        W48890  12.846  36.525   3.972
83664W        W48891  44.921  36.531  10.849
83665W        W48892  16.593  20.548   3.278
83666W        W48893  44.404  11.563  14.505
83667W        W48894   4.251  12.935  13.441
83668W        W48895  43.892  11.670   4.669
83669W        W48896   4.988  43.064  14.608
83670W        W48897  21.398   5.913   9.854
83671W        W48898   0.234   5.702   2.747
83672W        W48899  26.017  35.743  13.397
83673W        W48900  11.815  17.728   4.904
83674W        W48901  33.890  39.663  11.520
83675W        W48902  13.041  17.069   4.621
83676W        W48903  41.098  14.404   2.697
83677W        W48904  15.630  18.770  11.810
83678W        W48905  41.996  13.430   2.236
83679W        W48906  41.355  22.200  11.847
83680W        W48907  38.284  26.711  13.769
83681W        W48908  11.743  12.233   0.767
83682W        W48909  37.531   7.312  13.061
83683W        W48910   0.892   4.253   1.766
83684W        W48911   7.946  31.282  12.089
83685W        W48912   4.843  16.398  10.816
83686W        W48913  28.585  36.312   3.223
83687W        W48914  23.276  30.134  12.146
83688W        W48915  36.025  21.414  13.094
83689W        W48916   8.272  32.878   3.086
83690W        W48917  18.661  10.465   2.449
83691W        W48918  10.303  13.734  14.859
83692W        W48919  10.288  40.279   1.224
83693W        W48920  36.138  24.060   2.016
83694W        W48921  40.433   6.285  13.753
83695W        W48922  43.406  13.608  12.442
83696W        W48923  26.049   8.836  14.445
83697W        W48924  37.599  39.322  14.504
83698W        W48925  40.426  33.864  13.376
83699W        W48926  16.200   2.261   2.003
83700W        W48927  13.126   1.510  14.296
83701W        W48928  14.119  17.326  11.665
83702W        W48929  43.416  28.986  10.529
83703W        W48930  32.542  34.294   3.112
83704W        W48931  19.024  27.696   2.216
83705W        W48932  40.410  27.162   2.281
83706W        W48933  25.718  40.473   0.427
83707W        W48934  42.453  42.928   1.103
83708W        W48935  13.444  16.033  13.380
83709W        W48936  27.985  35.826   2.709
83710W        W48937   2.681  27.243  11.962
83711W        W48938   3.503  25.128  12.540
83712W        W48939  40.467  41.120  11.529
83713W        W48940  44.197  20.794  10.685
83714W        W48941   1.751  22.916   3.041
83715W        W48942   2.356   7.608  13.467
83716W        W48943  24.323  23.994  12.991
83717W        W48944  13.333  28.687  11.957
83718W        W48945   9.455   6.623  14.361
83719W        W48946   5.932   8.393   2.322
83720W        W48947  20.646  19.101  13.815
83721W        W48948   6.251  23.008   3.432
83722W        W48949   0.354  44.269   3.115
83723W        W48950  43.021  29.009   0.286
83724W        W48951  31.338  30.745   0.745
83725W        W48952   8.355  13.877  13.504
83726W        W48953   1.377  14.914  14.509
83727W        W48954   7.501  16.588   3.234
83728W        W48955  37.580  11.396  13.529
83729W        W48956   2.827  13.971   3.587
83730W        W48957  39.172  17.870  11.375
83731W        W48958  35.093  13.840  11.712
83732W        W48959  34.923  15.086  11.995
83733W        W48960  42.316  31.705  11.590
83734W        W48961  15.181   3.193  11.480
83735W        W48962  28.635  36.600  13.046
83736W        W48963  25.507  37.571   3.360
83737W        W48964  28.958  30.982  14.479
83738W        W48965   3.036  14.148  11.231
83739W        W48966   1.148  39.971  11.862
83740W        W48967   6.791  43.768   2.681
83741W        W48968  41.579   6.837   1.698
83742W        W48969  12.890  25.535   4.118
83743W        W48970  32.353  44.376  11.092
83744W        W48971  39.405   9.213  10.457
83745W        W48972  39.827  42.064   2.606
83746W        W48973   7.887  28.186   4.527
83747W        W48974  15.549  32.883  12.635
83748W        W48975  21.660  17.214   1.589
83749W        W48976   3.863   6.791   4.127
83750W        W48977  26.566  34.570  12.629
83751W        W48978   5.741   9.407  13.090
83752W        W48979  20.303  44.803   1.402
83753W        W48980  21.149   4.459  10.480
83754W        W48981   3.017  25.105  12.346
83755W        W48982  25.616  17.994   2.252
83756W        W48983  23.038  38.899  13.639
83757W        W48984  18.174  15.257  13.578
83758W        W48985  38.050  18.147   2.249
83759W        W48986  11.759  43.276  10.306
83760W        W48987   6.771  33.129  11.925
83761W        W48988  29.315  13.161   0.869
83762W        W48989   7.860  20.657  10.946
83763W        W48990  40.517  20.798   1.344
83764W        W48991  42.771  13.913   3.055
83765W        W48992  44.824  18.655  14.395
83766W        W48993  35.031  20.149  13.145
83767W        W48994  32.872  17.336   0.862
83768W        W48995  21.273  31.635  11.527
83769W        W48996   7.612  43.886  11.980
83770W        W48997  32.483  32.119  14.273
83771W        W48998   8.640  21.093  10.622
83772W        W48999  25.936  31.682  10.243
83773W        W49000  24.786   2.548   5.129
83774W        W49001   7.161   1.354   3.104
83775W        W49002  27.961  27.661  11.057
83776W        W49003  30.893  27.954  14.096
83777W        W49004   9.696   0.655   0.934
83778W        W49005  19.669  11.700   0.348
83779W        W49006  18.223  36.946  14.221
83780W        W49007  29.583  28.937   1.310
83781W        W49008  34.174  44.577   2.256
83782W        W49009  33.004  43.531   2.460
83783W        W49010  22.609  27.979   4.558
83784W        W49011  42.500   8.752   3.726
83785W        W49012  32.530  25.291   3.451
83786W        W49013  14.111   3.794  12.530
83787W        W49014  40.128  39.880  14.344
83788W        W49015  16.263  38.799  13.972
83789W        W49016  11.434  25.361   9.952
83790W        W49017  41.088  12.844   0.744
83791W        W49018  16.605  28.077   2.677
83792W        W49019  28.638  44.623   1.328
83793W        W49020  16.152   2.460   2.955
83794W        W49021   3.807  44.576   1.414
83795W        W49022  18.994  27.651   0.221
83796W        W49023  10.894  34.417   0.682
83797W        W49024  40.113  23.521  12.902
83798W        W49025   3.453  31.099  12.946
83799W        W49026   4.913  35.866  11.987
83800W        W49027  13.568  40.354   2.815
83801W        W49028  25.069   6.630  14.486
83802W        W49029   5.919   0.940   0.969
83803W        W49030  23.661   8.219  12.990
83804W        W49031  36.098  36.386  10.997
83805W        W49032  35.378  18.625  14.267
83806W        W49033  17.520   6.867  13.232
83807W        W49034   7.909  37.875  14.977
83808W        W49035  28.918  26.149   3.924
83809W        W49036  31.313   1.651   1.869
83810W        W49037  36.866   9.199   4.598
83811W        W49038  30.842   3.501  10.981
83812W        W49039  42.347  23.779   3.295
83813W        W49040   0.432  23.677   0.468
83814W        W49041   0.423  10.621   1.473
83815W        W49042   2.490  24.574   3.354
83816W        W49043  42.872  40.567  14.930
83817W        W49044  21.631   5.137  11.636
83818W        W49045  22.435  20.235  14.804
83819W        W49046  38.013  41.623  12.487
83820W        W49047  36.077  11.586   3.584
83821W        W49048  19.115  43.064  13.384
83822W        W49049  28.396  32.202  11.464
83823W        W49050  40.727  41.396   1.457
83824W        W49051  25.238  34.943   2.383
83825W        W49052  43.007   1.464   2.150
83826W        W49053  39.326   5.842  14.911
83827W        W49054   2.715  37.757   2.719
83828W        W49055  21.669  28.500   2.262
83829W        W49056   1.256  42.056   0.001
83830W        W49057   8.051   2.177  13.039
83831W        W49058  25.631   1.896   0.365
83832W        W49059  25.473  32.240   2.347
83833W        W49060  40.216  11.233   2.710
83834W        W49061  37.480  19.820  13.579
83835W        W49062  36.296  19.129   4.855
83836W        W49063  35.288  43.427   3.145
83837W        W49064  38.222  13.106  12.188
83838W        W49065  13.288  44.478  13.777
83839W        W49066  13.294  40.021   1.211
83840W        W49067  20.036  13.733  12.490
83841W        W49068  11.741  11.724   4.036
83842W        W49069  44.978  29.897   0.300
83843W        W49070  22.346   6.317  14.379
83844W        W49071  14.023  21.219   1.497
83845W        W49072   7.449  28.513  12.455
83846W        W49073  15.631  15.337   0.827
83847W        W49074   8.907  35.501   9.860
83848W        W49075   5.788  22.587  13.010
83849W        W49076  40.959   6.714  13.094
83850W        W49077  30.061  18.182   0.275
83851W        W49078  28.517  27.258   2.178
83852W        W49079   3.718   1.376  10.327
83853W        W49080   7.119  13.095  10.422
83854W        W49081   5.850   6.944  10.248
83855W        W49082  38.847   1.389  11.086
83856W        W49083   7.916  22.220   3.326
83857W        W49084  14.798   3.268  14.281
83858W        W49085  10.166  33.442   3.741
83859W        W49086  43.456  31.281  12.508
83860W        W49087  15.213  23.459  14.395
83861W        W49088   9.132   8.347  11.780
83862W        W49089  13.640  25.196   4.882
83863W        W49090   5.800  40.318  14.920
83864W        W49091  43.873  28.277   1.316
83865W        W49092  20.465  43.410   3.308
83866W        W49093  38.873  15.064   4.997
83867W        W49094  14.165  10.887   1.058
83868W        W49095  18.829   5.677   1.274
83869W        W49096   8.184  11.747  10.646
83870W        W49097  13.690  17.900   4.064
83871W        W49098  13.317  11.794  10.207
83872W        W49099  16.083   7.124  11.106
83873W        W49100  10.282  40.840   4.807
83874W        W49101  16.700  14.324   3.638
83875W        W49102  42.883  28.207   1.321
83876W        W49103  40.394  31.454   1.201
83877W        W49104   1.158  18.058   3.299
83878W        W49105  15.356  13.837  11.647
83879W        W49106  31.657  21.963   1.079
83880W        W49107  26.406  23.279   3.721
83881W        W49108   3.793  36.029  12.865
83882W        W49109  27.449   1.922   4.669
83883W        W49110  40.516  32.983  12.820
83884W        W49111  35.940  17.711   3.227
83885W        W49112   2.897  22.952  11.496
83886W        W49113  13.001  39.308   4.281
83887W        W49114  32.070  19.554  14.201
83888W        W49115  19.763  32.415   1.306
83889W        W49116  13.864  26.941   4.918
83890W        W49117  43.435  26.477  13.541
83891W        W49118   4.493   4.448  13.878
83892W        W49119  19.621   5.210   1.724
83893W        W49120  25.184  43.559   1.237
83894W        W49121  30.861   8.380  13.945
83895W        W49122  36.025   5.451  12.468
83896W        W49123  33.593  17.240  12.975
83897W        W49124  25.523  27.940  11.159
83898W        W49125  15.727  20.930   0.382
83899W        W49126  42.962  39.924   2.007
83900W        W49127  22.934   5.241  14.934
83901W        W49128  20.636   3.343   0.716
83902W        W49129  42.982   0.414   1.462
83903W        W49130   6.618  14.740   0.476
83904W        W49131  26.712   8.182  14.817
83905W        W49132  33.580   1.303  12.064
83906W        W49133  37.179  20.262  14.457
83907W        W49134  14.753   8.221  13.315
83908W        W49135   9.613   8.789  10.587
83909W        W49136  42.520  36.519   3.441
83910W        W49137  26.899   5.880   1.392
83911W        W49138  28.223   2.746  13.828
83912W        W49139  29.390  21.729  14.951
83913W        W49140  32.075  14.875   4.507
83914W        W49141  20.528  18.079  14.159
83915W        W49142  31.061  21.539  13.507
83916W        W49143   1.307  24.504  10.396
83917W        W49144  28.692  14.583   0.769
83918W        W49145  25.564  33.695  10.581
83919W        W49146  12.520  17.747   2.398
83920W        W49147  28.246  42.618  11.153
83921W        W49148  33.797   8.847   9.979
83922W        W49149  30.303  31.417  12.842
83923W        W49150  37.012   8.842  14.235
83924W        W49151  32.115  29.814  14.383
83925W        W49152   4.952   7.908   1.242
83926W        W49153  29.033   5.294  13.944
83927W        W49154  44.087  35.420  14.009
83928W        W49155  28.428  15.195   1.220
83929W        W49156  17.033  41.351  14.848
83930W        W49157   6.159  41.819   0.833
83931W        W49158  40.046   9.766  12.477
83932W        W49159  11.403   2.161   2.310
83933W        W49160   9.706   4.834   0.911
83934W        W49161  40.356  19.306   4.163
83935W        W49162  14.179  35.898   4.232
83936W        W49163  34.453  22.965   2.686
83937W        W49164  13.886  39.830   2.042
83938W        W49165   1.074  15.916   2.786
83939W        W49166  33.157  16.782   4.735
83940W        W49167  34.081  26.146  11.571
83941W        W49168  19.715  25.736  11.512
83942W        W49169  20.305  44.300   1.810
83943W        W49170   7.491   0.693  11.565
83944W        W49171   4.322  18.139   2.042
83945W        W49172  19.635  17.187   0.276
83946W        W49173  10.199  27.568   3.741
83947W        W49174  16.284  10.253  11.090
83948W        W49175  41.067  21.318  12.545
83949W        W49176  31.622  10.760   3.756
83950W        W49177  37.113  41.842   0.303
83951W        W49178   1.982  41.057   3.579
83952W        W49179  42.480  30.733   2.919
83953W        W49180  16.745   3.384   3.724
83954W        W49181  40.966   8.400   3.254
83955W        W49182   2.895  23.609   0.772
83956W        W49183  33.498  19.442   2.002
83957W        W49184  44.390  17.717  14.447
83958W        W49185  29.476  21.459  10.828
83959W        W49186   0.233  15.432   3.606
83960W        W49187  26.919  21.599   3.346
83961W        W49188   9.438  13.421   4.494
83962W        W49189  38.332  28.751   0.889
83963W        W49190   7.243  10.258  12.870
83964W        W49191  39.953  14.203  13.085
83965W        W49192  35.381  40.239   1.605
83966W        W49193  10.290  30.689   3.743
83967W        W49194  28.543  26.363   0.854
83968W        W49195  43.331   3.964  10.655
83969W        W49196   7.901  15.569   0.356
83970W        W49197  20.340  33.598  13.553
83971W        W49198  10.938  34.054  10.578
83972W        W49199  14.573  27.163  14.511
83973W        W49200  38.392  19.175  10.876
83974W        W49201  33.168  19.220   1.058
83975W        W49202  12.003  30.111  10.951
83976W        W49203  32.593  25.529   1.945
83977W        W49204  41.250  43.166   5.289
83978W        W49205  36.451  34.906  12.063
83979W        W49206  40.322  40.950  11.078
83980W        W49207  25.457  15.874   2.814
83981W        W49208   1.991  12.847  11.558
83982W        W49209  31.035  38.960  12.918
83983W        W49210  38.248  14.378   5.076
83984W        W49211  23.062   6.435   4.985
83985W        W49212  30.063  44.357  11.858
83986W        W49213  41.994  39.232  10.553
83987W        W49214  15.845   1.435   2.271
83988W        W49215  35.762  21.466   2.357
83989W        W49216  35.014   6.272   2.902
83990W        W49217  18.664  20.100  12.665
83991W        W49218  42.391  29.483   4.662
83992W        W49219  37.946  43.476   0.972
83993W        W49220   6.084  20.273   1.344
83994W        W49221  43.577  35.510   4.175
83995W        W49222  24.686  34.329  12.829
83996W        W49223   6.432  13.724  11.579
83997W        W49224   7.293   2.677   4.743
83998W        W49225  26.673  38.375   1.432
83999W        W49226  44.580  28.167  13.471
84000W        W49227  36.923   2.921  14.833
84001W        W49228  36.858  29.292  12.640
84002W        W49229  44.425  40.735  10.752
84003W        W49230  17.016   9.941   9.930
84004W        W49231   4.451  33.026  14.899
84005W        W49232  22.320  40.383   0.023
84006W        W49233  41.068   7.008   4.496
84007W        W49234  40.834   3.914   0.780
84008W        W49235  10.322  23.771   1.310
84009W        W49236  37.343  20.988   3.568
84010W        W49237  40.454  38.293  13.482
84011W        W49238  12.668   4.879  14.818
84012W        W49239  15.595   2.362   3.205
84013W        W49240  36.306   1.901  10.736
84014W        W49241  11.746   0.734  13.539
84015W        W49242  14.936  12.333   2.815
84016W        W49243  15.563  43.967   1.958
84017W        W49244  20.628  42.066   2.709
84018W        W49245  23.998   7.652   3.650
84019W        W49246  16.017   3.954   1.330
84020W        W49247  39.658  33.420   1.333
84021W        W49248  35.512  42.152  13.904
84022W        W49249   3.043  22.124   4.528
84023W        W49250  10.895   7.723  14.879
84024W        W49251   0.852  42.865   3.043
84025W        W49252  23.664  13.218   4.170
84026W        W49253  17.133  17.760   0.493
84027W        W49254  27.553  13.624  12.603
84028W        W49255  15.325  31.966   5.326
84029W        W49256  24.492  28.042   3.319
84030W        W49257  13.543  16.657  11.579
84031W        W49258  38.687  16.387   4.583
84032W        W49259  21.207  20.960  14.772
84033W        W49260   0.464   6.687  14.612
84034W        W49261   6.435  30.845   2.359
84035W        W49262  12.072   3.251   1.993
84036W        W49263  34.959  26.920   1.314
84037W        W49264  44.891  19.133  14.985
84038W        W49265  20.621  25.960  13.535
84039W        W49266  44.576  33.492  14.676
84040W        W49267  14.609  13.311  11.844
84041W        W49268  17.802  34.207  11.728
84042W        W49269  22.247  30.400  14.042
84043W        W49270  43.867   1.206   2.214
84044W        W49271  36.492  17.871   2.901
84045W        W49272  33.880  21.660  12.980
84046W        W49273  19.625   9.818  13.850
84047W        W49274   3.968   6.212  13.879
84048W        W49275  42.192   8.749   3.302
84049W        W49276   7.940   8.603   5.032
84050W        W49277  24.665  17.219   2.729
84051W        W49278  18.693  27.133   0.766
84052W        W49279  33.889  31.967   1.750
84053W        W49280  21.059  21.570   4.378
84054W        W49281  42.308  31.857  10.762
84055W        W49282   2.407  17.752  11.957
84056W        W49283  10.785  32.410   2.726
84057W        W49284  28.117   0.373   3.817
84058W        W49285  24.806  33.331  12.537
84059W        W49286  42.574  18.021   2.896
84060W        W49287  40.665  18.571   3.823
84061W        W49288   2.204  31.495  12.575
84062W        W49289   4.990   5.839  12.978
84063W        W49290  44.995  38.704   0.281
84064W        W49291  43.307  31.502  14.941
84065W        W49292  40.993  22.642  10.687
84066W        W49293  30.430   0.287   0.619
84067W        W49294  16.347  24.032  11.618
84068W        W49295   0.431  34.867  14.618
84069W        W49296  44.250   4.984  14.713
84070W        W49297  16.129  35.323  13.161
84071W        W49298   3.257  30.002  13.772
84072W        W49299  35.609  15.048  11.247
84073W        W49300  27.571  25.312  14.799
84074W        W49301   8.225  13.341   3.722
84075W        W49302   5.144   7.589   4.054
84076W        W49303  40.230  44.775  12.998
84077W        W49304  27.716  43.028  13.910
84078W        W49305  30.647   4.693   4.145
84079W        W49306   9.800  32.353   3.207
84080W        W49307  36.591  37.375   0.476
84081W        W49308  41.428  14.920   3.473
84082W        W49309  10.661  24.471   2.464
84083W        W49310  40.945  11.552  11.207
84084W        W49311  30.538  39.188  13.635
84085W        W49312  31.931   4.482   3.346
84086W        W49313  28.744  14.382  13.448
84087W        W49314  42.293  11.364   1.651
84088W        W49315  20.176  17.366   1.195
84089W        W49316   8.248  13.664  12.990
84090W        W49317  26.424   0.576   5.195
84091W        W49318  24.969  23.472   3.683
84092W        W49319  37.738  25.041   0.365
84093W        W49320   9.668  28.496   1.345
84094W        W49321  26.513  15.772  13.120
84095W        W49322  41.453  16.092   1.857
84096W        W49323   6.164  25.907  11.450
84097W        W49324  34.760  28.996   9.914
84098W        W49325  13.641  38.036  11.268
84099W        W49326  42.288   2.901   3.150
84100W        W49327  22.978  35.895  14.960
84101W        W49328  41.420  31.926   1.741
84102W        W49329  11.168  40.401   0.879
84103W        W49330  35.871  16.799   1.841
84104W        W49331   6.922  30.614  13.949
84105W        W49332  18.815  29.094  12.722
84106W        W49333  29.455  41.531  10.696
84107W        W49334  44.414  31.084  11.534
84108W        W49335  39.997  10.625  12.033
84109W        W49336   1.420   2.391   3.756
84110W        W49337  40.231  25.362  10.266
84111W        W49338   0.255  27.700   3.486
84112W        W49339  32.616  31.759  10.219
84113W        W49340  41.091  21.481   0.436
84114W        W49341   1.339  25.135  13.202
84115W        W49342  19.570  37.758   0.917
84116W        W49343  11.708  16.811  14.483
84117W        W49344  25.456  28.873  12.120
84118W        W49345  42.446   3.330   1.990
84119W        W49346  18.536  15.341   1.007
84120W        W49347  19.221  32.781  11.619
84121W        W49348   3.738  37.560   2.779
84122W        W49349  24.768  36.168  14.823
84123W        W49350  35.092   6.663  14.294
84124W        W49351  22.982   4.227  12.533
84125W        W49352   1.809  22.394  12.626
84126W        W49353  37.562  31.845  10.553
84127W        W49354  12.690  33.887  13.483
84128W        W49355  17.374  38.515  13.373
84129W        W49356  17.206  23.023   3.637
84130W        W49357  28.082  38.415   2.111
84131W        W49358   2.653   8.382   3.244
84132W        W49359  21.497  42.490  11.523
84133W        W49360  13.481  23.648  10.465
84134W        W49361   8.373  32.529  13.066
84135W        W49362  15.886  20.643   1.880
84136W        W49363   3.920  44.452  14.003
84137W        W49364  35.433  10.442   2.194
84138W        W49365  23.229  44.766  12.754
84139W        W49366  34.527  33.558  12.074
84140W        W49367  30.088   5.289  13.887
84141W        W49368   6.763  16.368   4.968
84142W        W49369  41.076  37.915  12.913
84143W        W49370  34.305  29.999   2.104
84144W        W49371  20.981  16.533  11.234
84145W        W49372  40.762  10.379  10.841
84146W        W49373   8.879   5.855   0.743
84147W        W49374   9.704  26.470   3.740
84148W        W49375  31.434  18.508  11.202
84149W        W49376   9.384  35.066  11.812
84150W        W49377  42.289  24.164  12.355
84151W        W49378  19.163   9.350   0.051
84152W        W49379  38.926  14.422  14.912
84153W        W49380  15.095  37.319   4.147
84154W        W49381  10.345  34.615   3.230
84155W        W49382  12.809  20.942  10.028
84156W        W49383  28.149  41.828  10.798
84157W        W49384  29.979  21.951   2.159
84158W        W49385  34.448  13.177  11.964
84159W        W49386   3.926  44.352  12.204
84160W        W49387   1.940  43.835  13.451
84161W        W49388   7.073  15.403  13.685
84162W        W49389  30.256  43.572  11.138
84163W        W49390   4.409  25.863  14.980
84164W        W49391  34.092  17.033  11.485
84165W        W49392  20.287  30.575   1.201
84166W        W49393   2.921  27.190   0.794
84167W        W49394  14.763  36.271  11.181
84168W        W49395   5.398  17.242  11.688
84169W        W49396  34.339  24.624  12.497
84170W        W49397  19.300  36.698   2.207
84171W        W49398  37.950  37.359  13.867
84172W        W49399   9.034  39.664  11.682
84173W        W49400  20.739  28.010  12.952
84174W        W49401  28.267  30.089   1.286
84175W        W49402  11.172  23.765   1.355
84176W        W49403  11.430  14.648  13.526
84177W        W49404   5.360  34.853   4.401
84178W        W49405  19.577  14.312   0.679
84179W        W49406  22.002   4.825   3.243
84180W        W49407  38.363  17.047  12.943
84181W        W49408  20.615  29.526   0.254
84182W        W49409  34.926  12.035   4.298
84183W        W49410   3.796  18.643  10.972
84184W        W49411  11.369   7.559  12.159
84185W        W49412  22.664  31.936  12.407
84186W        W49413  43.985  22.106   5.070
84187W        W49414   9.151  34.637  11.979
84188W        W49415   3.710  15.239  13.322
84189W        W49416  42.728   8.257   1.398
84190W        W49417   6.322  44.555   2.388
84191W        W49418  30.397  35.910   1.279
84192W        W49419  19.509  18.497   1.436
84193W        W49420  23.310  42.119  13.702
84194W        W49421  10.912  42.258  12.596
84195W        W49422  11.785  41.846  11.562
84196W        W49423  12.833  11.348  11.890
84197W        W49424  29.701  12.204   0.763
84198W        W49425  17.170  13.052   0.112
84199W        W49426  38.732  33.647   3.117
84200W        W49427  28.978  16.600   1.473
84201W        W49428  15.535  42.561   0.804
84202W        W49429  14.243   2.291  13.401
84203W        W49430  33.329  19.655  12.047
84204W        W49431   7.861   5.255   1.358
84205W        W49432  25.233  31.101  11.784
84206W        W49433  16.334  10.670   1.915
84207W        W49434  35.581  41.961  11.211
84208W        W49435  14.780   6.235  14.946
84209W        W49436   3.316  39.589   1.845
84210W        W49437  26.304  44.911   1.365
84211W        W49438  39.313  43.313   1.923
84212W        W49439  37.671  28.994  13.893
84213W        W49440  25.737   6.444  11.529
84214W        W49441  11.176  21.433   1.981
84215W        W49442  20.228  34.799  12.898
84216W        W49443  26.573  26.654  14.643
84217W        W49444  33.343   3.744   0.812
84218W        W49445  26.555  10.073   2.742
84219W        W49446  42.242  31.165   2.263
84220W        W49447  12.050  36.157   4.153
84221W        W49448  23.041   4.725  14.926
84222W        W49449  24.700  29.685   4.603
84223W        W49450  38.065   1.239  14.508
84224W        W49451  33.179  12.403   5.089
84225W        W49452  27.016  21.698   2.287
84226W        W49453  28.999   2.012  11.690
84227W        W49454  36.061  14.418  14.446
84228W        W49455  42.404  18.797   5.051
84229W        W49456  11.474  26.487   5.102
84230W        W49457  35.499  27.702   0.448
84231W        W49458   9.864  31.566  11.008
84232W        W49459   0.354  20.230   2.738
84233W        W49460   2.419  40.320  12.938
84234W        W49461  10.603   5.846   2.272
84235W        W49462  22.603   7.714  14.909
84236W        W49463  42.351  13.121  14.821
84237W        W49464  43.564  40.309   1.150
84238W        W49465   2.317   9.176  11.330
84239W        W49466  12.170  13.548   0.949
84240W        W49467  38.014  14.156  10.488
84241W        W49468  39.740  13.832   0.864
84242W        W49469   5.214  32.974  13.528
84243W        W49470  33.129  24.269   3.686
84244W        W49471  41.185   7.880   4.106
84245W        W49472  13.787   4.165   3.682
84246W        W49473  18.036  42.797  12.470
84247W        W49474  38.883  34.940  12.521
84248W        W49475  17.593   7.292   4.113
84249W        W49476   4.576  40.989  12.957
84250W        W49477  39.848   1.867  10.446
84251W        W49478  27.670  28.093   2.861
84252W        W49479  15.176  27.722   3.832
84253W        W49480   4.799  38.491   4.567
84254W        W49481  38.535   2.659   5.066
84255W        W49482  36.449  26.919   1.822
84256W        W49483  16.188  38.144  13.020
84257W        W49484  36.098  30.508   1.513
84258W        W49485   8.926  12.961  10.399
84259W        W49486  33.712  19.464   3.818
84260W        W49487  11.829  42.851  11.874
84261W        W49488  11.152   5.839  13.030
84262W        W49489  27.463  12.360  13.952
84263W        W49490  20.990  15.328   1.296
84264W        W49491  13.160  43.825   4.480
84265W        W49492  43.613   7.780   2.899
84266W        W49493  21.536   0.996  12.923
84267W        W49494  29.449  18.148   2.848
84268W        W49495  26.385  15.471   0.783
84269W        W49496  18.307  20.346   2.007
84270W        W49497  13.102  16.637   0.060
84271W        W49498  32.786  40.402   0.379
84272W        W49499  25.624   2.807  12.489
84273W        W49500  15.544  34.844   3.376
84274W        W49501   7.467  14.284  12.146
84275W        W49502  17.213   5.404   1.055
84276W        W49503  29.929  13.661   1.352
84277W        W49504  17.367  21.514  12.540
84278W        W49505  41.514  10.349   1.905
84279W        W49506  19.713  34.581  14.222
84280W        W49507  31.158  14.605  11.079
84281W        W49508  20.908   9.230   4.933
84282W        W49509  15.737   3.195   3.556
84283W        W49510  44.042  24.805  13.997
84284W        W49511   2.436  33.080   3.877
84285W        W49512  10.983  30.597  14.522
84286W        W49513   4.813  16.060  13.933
84287W        W49514  39.418  26.459  14.460
84288W        W49515  42.997  38.252  10.657
84289W        W49516  44.004   6.909  10.580
84290W        W49517   5.112   3.960  12.887
84291W        W49518   3.950   0.109   1.366
84292W        W49519  38.018  15.489  12.459
84293W        W49520  21.531   3.834   0.871
84294W        W49521  31.458  11.139  11.449
84295W        W49522  30.211  32.127   0.568
84296W        W49523   4.532  38.641  14.074
84297W        W49524  28.314   3.897   0.297
84298W        W49525  37.900  34.101  12.715
84299W        W49526  15.323  25.715  12.572
84300W        W49527  33.706  35.888   2.593
84301W        W49528   9.865  21.976   0.025
84302W        W49529  22.042   9.330  13.002
84303W        W49530  12.141  14.092  13.403
84304W        W49531  16.618  43.201   1.894
84305W        W49532  27.703   1.736  13.523
84306W        W49533  34.991   7.775  12.037
84307W        W49534   1.256  10.195   4.204
84308W        W49535   6.908  38.919  13.528
84309W        W49536  34.868   4.190  11.221
84310W        W49537  28.080  13.890  13.151
84311W        W49538  39.870   4.099  13.925
84312W        W49539  40.388  16.201  10.546
84313W        W49540  30.850  43.335   0.425
84314W        W49541  10.020  12.831  12.216
84315W        W49542  39.588  34.449  13.397
84316W        W49543  37.232  14.751   0.459
84317W        W49544   2.531  30.235  10.712
84318W        W49545  38.380  41.810   0.786
84319W        W49546   3.179  27.873  11.909
84320W        W49547   7.628  17.327   3.688
84321W        W49548  29.558   2.023  13.893
84322W        W49549  17.365  36.075   3.793
84323W        W49550  42.815  13.070  12.956
84324W        W49551  36.100   7.148  11.152
84325W        W49552  30.548  18.348  14.027
84326W        W49553  14.320  24.120   0.209
84327W        W49554  40.770   8.506   0.935
84328W        W49555   8.921  18.838   4.581
84329W        W49556  11.196  43.545  12.923
84330W        W49557  24.750  21.983   1.849
84331W        W49558  21.776  15.995   2.881
84332W        W49559  34.847  30.192  11.436
84333W        W49560  29.120  21.275  14.292
84334W        W49561   1.796  29.538   0.529
84335W        W49562  15.669  15.268  11.169
84336W        W49563  30.997  40.574   1.962
84337W        W49564  29.111   3.720   0.751
84338W        W49565  41.834  13.267  12.879
84339W        W49566  41.038   3.770  13.949
84340W        W49567   0.275  25.431   0.729
84341W        W49568  36.014  34.483  10.751
84342W        W49569  39.420  15.846  12.583
84343W        W49570  29.418  31.491  12.385
84344W        W49571  19.510  39.876   2.692
84345W        W49572  26.504   4.521  10.695
84346W        W49573  24.751  17.273   0.418
84347W        W49574  17.180  18.823  11.633
84348W        W49575  19.688  38.809  12.039
84349W        W49576  18.231  28.459  12.313
84350W        W49577  37.641   3.752   0.336
84351W        W49578  37.970  36.363  12.982
84352W        W49579  37.835   6.393   1.851
84353W        W49580  27.845  43.550   2.434
84354W        W49581   1.016  36.441  12.034
84355W        W49582   8.794  13.730  12.923
84356W        W49583   1.774   2.017   2.485
84357W        W49584  22.539   6.539   0.817
84358W        W49585   3.541  10.973   3.183
84359W        W49586  14.693   9.679   0.276
84360W        W49587  24.755   7.449  14.403
84361W        W49588  44.631   4.421   3.460
84362W        W49589  43.374  31.652   0.440
84363W        W49590  15.154  43.867   0.400
84364W        W49591   7.885   2.692  13.732
84365W        W49592  21.608   1.981  12.023
84366W        W49593  35.064  26.767   1.809
84367W        W49594  14.112   9.643   1.914
84368W        W49595  31.075  27.656  11.667
84369W        W49596  39.821  28.235  10.703
84370W        W49597   8.432  20.920   1.045
84371W        W49598  11.272  31.030   0.925
84372W        W49599  42.259  39.476  13.402
84373W        W49600   0.336  18.551  14.542
84374W        W49601  17.496  19.295   2.738
84375W        W49602  27.323  34.909   1.685
84376W        W49603  29.225   8.436  12.056
84377W        W49604  44.010  18.623   3.555
84378W        W49605   4.264   6.561  13.184
84379W        W49606  27.037  29.500  12.258
84380W        W49607  15.103  23.561  12.957
84381W        W49608  44.460  25.535   4.835
84382W        W49609  43.846  29.851  11.598
84383W        W49610  18.218   0.809  14.565
84384W        W49611  17.019  30.917   2.200
84385W        W49612  28.481  22.916  12.429
84386W        W49613  32.007  26.015  12.777
84387W        W49614   4.203  34.901  14.442
84388W        W49615  33.576  28.761   2.368
84389W        W49616   9.674  33.040  11.714
84390W        W49617  44.335  10.367  11.710
84391W        W49618   5.303  37.820  12.421
84392W        W49619  30.029  27.447  13.901
84393W        W49620  18.033  41.894  12.437
84394W        W49621  27.066  40.434   0.760
84395W        W49622  17.060  36.389  11.616
84396W        W49623  20.785  39.953  13.481
84397W        W49624  23.408  19.122  11.785
84398W        W49625  17.599  44.857  13.180
84399W        W49626  42.956  40.080   4.763
84400W        W49627  18.119  33.682   3.034
84401W        W49628  18.241  19.044  12.017
84402W        W49629  43.110  14.111  12.443
84403W        W49630  34.898   6.136  13.783
84404W        W49631  36.288  43.303   4.677
84405W        W49632   2.773  33.544   3.012
84406W        W49633  10.844  32.601  14.235
84407W        W49634  13.157   7.354   5.108
84408W        W49635  31.139  18.627   4.631
84409W        W49636  31.117  15.798  10.642
84410W        W49637  36.092   8.870  11.556
84411W        W49638  21.027   4.118  13.265
84412W        W49639   8.707  35.857  10.224
84413W        W49640  17.638   4.900  13.390
84414W        W49641  23.716  29.340   1.413
84415W        W49642  10.577  23.180  10.749
84416W        W49643  37.488  37.069   0.981
84417W        W49644  37.818  18.623   1.013
84418W        W49645  31.597  32.994   1.912
84419W        W49646   9.640   9.717  12.697
84420W        W49647  21.732  35.076  11.096
84421W        W49648   7.619  21.021   5.149
84422W        W49649   9.681  36.027  14.293
84423W        W49650  13.208  14.177   3.047
84424W        W49651  42.250  31.371  12.025
84425W        W49652   7.687  24.511  11.639
84426W        W49653  27.104  20.103  12.422
84427W        W49654   0.266  43.755  10.106
84428W        W49655  19.924  42.623   4.126
84429W        W49656  44.744  38.576   1.151
84430W        W49657  42.749  38.985   2.074
84431W        W49658  41.368  10.610  13.903
84432W        W49659  23.600  35.117  14.837
84433W        W49660   2.179  26.737  14.922
84434W        W49661  38.791   2.452  12.886
84435W        W49662  37.042  10.351   2.796
84436W        W49663  40.400   6.141   0.894
84437W        W49664  43.315  23.735   3.273
84438W        W49665  16.872  38.681  11.998
84439W        W49666   9.857  40.082   0.429
84440W        W49667  36.567   5.668  12.004
84441W        W49668  11.691  15.326  14.247
84442W        W49669  30.555  18.654   0.831
84443W        W49670  18.417  42.858   2.681
84444W        W49671  25.243  33.006  10.919
84445W        W49672  24.003  11.322   0.727
84446W        W49673  23.239   1.861   0.368
84447W        W49674   6.687  42.407   1.486
84448W        W49675  17.232  39.021   1.810
84449W        W49676  31.428  39.855  11.710
84450W        W49677   3.212  11.912   3.757
84451W        W49678  40.354   3.877   0.363
84452W        W49679   3.253   7.934   0.216
84453W        W49680   2.637  14.045   0.711
84454W        W49681   9.217  31.943  11.143
84455W        W49682   5.137   3.151  13.607
84456W        W49683   4.234   7.061  13.046
84457W        W49684  26.071  14.621  11.966
84458W        W49685  21.296  12.740  14.631
84459W        W49686  24.534  21.281  11.683
84460W        W49687   8.371   1.038   1.719
84461W        W49688  21.108  37.998   0.971
84462W        W49689  18.667  21.333  12.040
84463W        W49690  14.726  12.599   0.375
84464W        W49691   7.413  24.991   3.883
84465W        W49692  40.754  32.663   1.755
84466W        W49693  31.459  23.999   0.387
84467W        W49694  23.474  44.961  13.190
84468W        W49695  15.209  25.087   4.827
84469W        W49696   3.834  15.391   3.668
84470W        W49697   2.683  10.450  13.362
84471W        W49698  11.344  35.943   1.280
84472W        W49699   6.328  15.518   0.265
84473W        W49700  32.473  36.661   1.537
84474W        W49701   5.845  38.440  12.732
84475W        W49702  43.089  14.704  11.043
84476W        W49703  26.811  17.307  12.508
84477W        W49704  40.163  13.176   2.614
84478W        W49705  11.289  15.170  13.376
84479W        W49706  36.494   2.752   1.205
84480W        W49707  35.060  10.161  11.536
84481W        W49708  27.045  44.358  10.015
84482W        W49709  27.953   0.973  12.161
84483W        W49710  25.236  37.026  13.553
84484W        W49711  39.818   4.431   4.527
84485W        W49712  14.005  12.053   0.437
84486W        W49713   6.082  10.495  12.552
84487W        W49714  36.404   2.900   3.048
84488W        W49715   0.149  23.150   9.891
84489W        W49716  15.413  44.305  10.516
84490W        W49717   6.003  31.584  13.919
84491W        W49718  19.581  33.002  10.720
84492W        W49719  28.791  42.824  14.961
84493W        W49720  41.835  40.732   3.809
84494W        W49721  10.115   9.840   3.070
84495W        W49722   1.363  39.026  14.485
84496W        W49723  10.045  40.938   3.221
84497W        W49724  17.206  12.526   0.164
84498W        W49725  41.490  12.286  11.884
84499W        W49726  27.164  20.553   4.858
84500W        W49727  15.429  29.893  12.008
84501W        W49728  44.454  12.264   2.685
84502W        W49729  36.880   5.912   3.962
84503W        W49730  30.616  25.937  14.874
84504W        W49731   6.919   7.838   3.943
84505W        W49732   3.907   5.356   2.291
84506W        W49733  44.368  43.929   3.945
84507W        W49734  33.176  40.898  14.725
84508W        W49735   6.764  23.240   0.453
84509W        W49736  32.417   5.747  13.353
84510W        W49737  16.566  43.655   0.450
84511W        W49738  11.561  36.065   4.344
84512W        W49739  31.088  30.211  12.159
84513W        W49740  22.692  26.472   0.283
84514W        W49741  18.127  20.732   0.052
84515W        W49742  23.632  37.847   0.060
84516W        W49743  23.044  12.181  12.189
84517W        W49744  31.892  29.553   4.547
84518W        W49745  29.897  40.451   4.510
84519W        W49746  21.580  18.744  14.977
84520W        W49747   0.535  21.200  11.937
84521W        W49748  33.743   9.827  12.073
84522W        W49749  27.100  15.784   9.991
84523W        W49750  25.502  13.624  12.256
84524W        W49751  42.733  19.958   2.658
84525W        W49752  18.865   7.033  11.050
84526W        W49753  21.278  27.735   3.258
84527W        W49754  42.372  28.048  12.991
84528W        W49755   5.393   9.340  14.706
84529W        W49756   9.912  28.358  11.670
84530W        W49757   6.235  15.790  12.435
84531W        W49758  17.528  39.639   1.953
84532W        W49759  39.296  10.426  14.441
84533W        W49760  13.199   3.114   3.378
84534W        W49761   4.331  38.982  13.136
84535W        W49762  11.907  38.577   0.768
84536W        W49763  40.317  13.383  11.023
84537W        W49764  38.418  22.530   3.263
84538W        W49765  16.736   7.349   0.846
84539W        W49766  26.704  29.016  11.650
84540W        W49767  26.663  40.105  12.422
84541W        W49768   6.630  15.102   2.225
84542W        W49769   8.227  16.183   1.937
84543W        W49770   9.485   1.041  14.322
84544W        W49771  17.251  19.323   3.584
84545W        W49772   8.451  28.619   4.827
84546W        W49773  27.183  13.974   0.709
84547W        W49774   0.257  42.312  13.533
84548W        W49775  18.621  33.817  14.509
84549W        W49776   7.365  24.136   3.059
84550W        W49777  17.164  43.262   0.221
84551W        W49778   3.680  20.754  11.496
84552W        W49779  10.245   9.907   0.282
84553W        W49780  44.924  30.998   4.086
84554W        W49781  29.927   3.926  13.059
84555W        W49782  17.362  33.855   0.693
84556W        W49783   6.880   1.459  11.927
84557W        W49784  13.146   8.309  13.298
84558W        W49785  23.639  43.258   3.094
84559W        W49786   3.331  12.288   4.390
84560W        W49787   5.035  24.198  13.979
84561W        W49788  22.579  43.737  13.811
84562W        W49789  23.857  41.816   3.312
84563W        W49790   2.824  44.353   4.981
84564W        W49791  36.472  19.041  11.207
84565W        W49792  39.906  21.955   1.780
84566W        W49793  17.727  34.118   0.409
84567W        W49794  13.806  19.594   0.813
84568W        W49795  24.921  17.133  14.588
84569W        W49796  22.220  29.219  12.992
84570W        W49797  22.806   4.237  13.772
84571W        W49798  20.347  25.956   1.872
84572W        W49799  31.261  12.774  10.284
84573W        W49800  25.644  40.025   2.889
84574W        W49801   0.013  10.677  14.211
84575W        W49802  27.066   7.732   3.848
84576W        W49803   7.853  25.018  13.396
84577W        W49804  21.143   4.829   0.516
84578W        W49805  33.445  11.271  12.456
84579W        W49806  11.100  23.639   4.397
84580W        W49807  31.190  38.899   1.955
84581W        W49808   2.034   2.918  12.996
84582W        W49809   5.108   7.271   3.139
84583W        W49810   8.372  14.411  10.709
84584W        W49811  41.771  19.106   4.617
84585W        W49812  32.982  21.824  13.935
84586W        W49813  25.433  25.202   1.814
84587W        W49814  10.220  23.984  14.795
84588W        W49815   7.189  23.616  10.918
84589W        W49816  17.451  29.744  11.296
84590W        W49817   5.732  38.899   2.399
84591W        W49818  15.026  36.778   1.233
84592W        W49819  22.666  43.864   4.362
84593W        W49820  13.075  15.700  14.880
84594W        W49821   6.875  40.440   4.878
84595W        W49822  42.575  32.916  14.361
84596W        W49823   1.870   3.956  11.135
84597W        W49824  13.569  38.401  12.446
84598W        W49825  44.767  40.049   2.419
84599W        W49826  18.868  20.734   3.177
84600W        W49827  29.122  22.091   0.876
84601W        W49828  25.618   9.512  14.068
84602W        W49829  17.573  37.250   2.946
84603W        W49830  18.342  16.537   1.313
84604W        W49831  21.114  30.060  10.998
84605W        W49832   3.223  19.035  14.879
84606W        W49833  15.078  34.426  11.932
84607W        W49834  37.982  25.412  12.808
84608W        W49835  15.630  26.421   3.751
84609W        W49836   9.713  20.017   4.450
84610W        W49837   8.739  39.564   1.347
84611W        W49838  15.312  23.075   3.267
84612W        W49839   5.947  17.667  13.905
84613W        W49840   8.744   8.953   4.432
84614W        W49841   7.975  37.984   3.230
84615W        W49842  44.502  15.205   4.390
84616W        W49843   8.382  41.082   3.703
84617W        W49844  32.335   4.057  11.116
84618W        W49845  15.750   5.826  11.162
84619W        W49846  43.442  26.706  14.012
84620W        W49847  17.374  22.782   1.340
84621W        W49848  13.342   7.333   1.253
84622W        W49849  19.991  17.609   3.232
84623W        W49850   4.510  38.659   0.802
84624W        W49851  34.454   9.589  11.233
84625W        W49852  35.842  25.110   0.753
84626W        W49853  24.206  33.409  12.453
84627W        W49854  37.259   8.082   3.735
84628W        W49855  35.596  26.847  10.507
84629W        W49856  37.884  18.741   3.415
84630W        W49857  38.160  11.300  14.898
84631W        W49858  25.597   5.421   4.673
84632W        W49859  10.322  27.043   3.509
84633W        W49860  28.642   5.476  13.044
84634W        W49861   1.552   3.316   3.760
84635W        W49862  19.058  41.875  14.449
84636W        W49863  10.214  11.011   3.717
84637W        W49864  10.249  24.666  14.240
84638W        W49865  40.841  14.117  11.124
84639W        W49866  10.215   1.906  10.739
84640W        W49867  13.259  35.955   5.530
84641W        W49868   7.271  21.544  11.669
84642W        W49869  30.716  12.537  11.838
84643W        W49870  39.086  28.425   1.236
84644W        W49871  19.782   1.173   3.738
84645W        W49872   8.154   4.824  13.374
84646W        W49873  37.158  29.522   2.768
84647W        W49874  28.036  10.916   2.846
84648W        W49875  19.563  38.129   2.249
84649W        W49876  32.574  25.689  13.148
84650W        W49877  31.899  44.827   0.352
84651W        W49878  31.318  13.834  11.757
84652W        W49879   0.974  35.206   4.658
84653W        W49880  37.990   1.964  11.155
84654W        W49881  33.097  32.889   4.049
84655W        W49882   0.402  15.986   0.034
84656W        W49883  43.754  12.877   3.198
84657W        W49884  24.740  42.537   0.100
84658W        W49885  19.689   2.628   4.786
84659W        W49886  25.607  31.410  11.039
84660W        W49887  35.839  21.613   1.210
84661W        W49888  16.341  29.361  13.419
84662W        W49889  25.517   7.417  14.077
84663W        W49890  39.243  32.526   4.191
84664W        W49891  17.553  44.781   1.765
84665W        W49892  38.101  26.238  14.299
84666W        W49893  26.924  29.984   2.222
84667W        W49894  25.047  26.179  11.392
84668W        W49895  43.465  25.623   4.401
84669W        W49896  44.869   7.900   1.912
84670W        W49897  42.005  37.083  13.466
84671W        W49898  23.741   6.277   4.648
84672W        W49899  43.792  12.323   1.638
84673W        W49900  40.019   8.277  11.069
84674W        W49901  26.432  14.136   1.185
84675W        W49902   7.610  10.767  14.433
84676W        W49903  12.599  17.295  14.353
84677W        W49904  44.979  21.682   1.039
84678W        W49905   9.418  19.179   5.586
84679W        W49906   3.226   1.331  14.442
84680W        W49907  10.660  16.306   4.020
84681W        W49908  25.263  35.932  12.603
84682W        W49909  37.550   8.913   2.687
84683W        W49910  27.111  13.689   0.273
84684W        W49911  17.808  30.704   1.231
84685W        W49912   6.770   8.617   0.381
84686W        W49913  34.134  27.654   1.282
84687W        W49914   8.705  37.858  12.363
84688W        W49915  41.611  30.053   1.193
84689W        W49916   7.439  17.461  13.419
84690W        W49917  35.770  21.276   2.851
84691W        W49918  33.538  35.129   1.388
84692W        W49919  14.873   7.311  12.929
84693W        W49920  22.116  20.274   2.270
84694W        W49921  10.937  28.629   3.599
84695W        W49922  12.840  12.121   3.560
84696W        W49923   5.966  29.939  10.716
84697W        W49924   9.253   6.888   2.378
84698W        W49925  25.160  40.874   4.189
84699W        W49926  33.442  27.156  12.089
84700W        W49927  38.783  34.178   4.427
84701W        W49928  43.171  23.701   4.332
84702W        W49929  26.516  23.989   1.798
84703W        W49930  41.962  21.974   2.555
84704W        W49931   4.892   8.689   5.123
84705W        W49932  18.726   4.591  11.167
84706W        W49933  26.630  28.517  11.603
84707W        W49934  31.905  32.975   2.327
84708W        W49935  23.204  28.297  11.574
84709W        W49936   3.097  25.279   1.361
84710W        W49937  24.416  32.824  12.638
84711W        W49938  30.206  29.888  13.439
84712W        W49939  39.002   3.334  13.290
84713W        W49940   4.577   5.032  14.454
84714W        W49941  37.508  32.832   3.073
84715W        W49942  43.088   4.515  13.467
84716W        W49943  31.925  11.662   0.934
84717W        W49944  35.449  22.445   1.734
84718W        W49945  19.669  12.919  12.015
84719W        W49946  19.902  41.031   2.164
84720W        W49947  44.790  36.033  10.782
84721W        W49948   4.881  34.557   3.378
84722W        W49949  11.384  25.676   0.464
84723W        W49950  35.874  20.827   0.365
84724W        W49951  18.222   6.881  13.972
84725W        W49952  33.276  41.007  12.454
84726W        W49953  39.084  42.770  13.901
84727W        W49954  37.789  38.915  10.736
84728W        W49955   8.292  25.728  10.486
84729W        W49956  13.662  22.305  10.506
84730W        W49957  20.384  14.644   4.511
84731W        W49958   5.496  42.033   4.099
84732W        W49959   6.687   6.609   4.149
84733W        W49960  39.304   5.415   0.764
84734W        W49961  24.984   3.884   2.786
84735W        W49962  25.118  33.829  11.956
84736W        W49963  24.626  22.539   0.031
84737W        W49964   3.683  37.686  12.592
84738W        W49965  44.996  37.813   2.723
84739W        W49966  41.532  24.945   0.810
84740W        W49967   8.870   9.459  14.545
84741W        W49968  30.556  20.216   1.242
84742W        W49969  10.307  28.443   1.747
84743W        W49970   2.683  17.062  12.388
84744W        W49971  31.132  23.304  14.418
84745W        W49972   9.832  25.765   0.219
84746W        W49973  37.019   4.977   4.574
84747W        W49974   6.692  12.284  13.510
84748W        W49975  18.262   1.816   4.439
84749W        W49976   0.443  30.389   1.741
84750W        W49977  22.527   4.659  13.890
84751W        W49978   5.656  19.636  13.154
84752W        W49979  12.443   5.962   2.923
84753W        W49980   0.746  35.041   2.050
84754W        W49981   3.484  25.471   3.164
84755W        W49982  13.901  42.456   3.922
84756W        W49983   7.304  36.342   2.643
84757W        W49984   6.923  25.458   2.690
84758W        W49985   2.766  37.268   3.977
84759W        W49986  11.402   0.400  11.258
84760W        W49987   7.931  28.594  10.527
84761W        W49988  16.339  36.946  14.928
84762W        W49989  13.180  33.325   0.299
84763W        W49990  34.775  10.076   4.198
84764W        W49991  19.369   3.397   2.200
84765W        W49992   6.675  34.943  11.176
84766W        W49993  44.247   8.126   1.305
84767W        W49994  38.832  36.449   0.832
84768W        W49995  29.106  29.789   1.775
84769W        W49996  30.331   6.250   3.145
84770W        W49997  33.001  36.688  13.805
84771W        W49998  11.285  12.420  14.621
84772W        W49999  15.211  30.011  11.030
84773W        W50000  37.841  37.655   2.294
84774W        W50001  41.575  23.679  10.724
84775W        W50002  44.713  24.210  13.955
84776W        W50003  41.280  12.802   1.245
84777W        W50004  33.506  39.858   3.654
84778W        W50005  44.561  20.442   2.326
84779W        W50006   2.327  22.775   4.402
84780W        W50007  44.332  19.770   0.751
84781W        W50008  44.403   2.921  14.585
84782W        W50009   8.932  43.560  10.709
84783W        W50010  22.280   3.949  11.303
84784W        W50011  31.014  42.366   4.642
84785W        W50012  29.251  17.532   0.182
84786W        W50013   2.302  13.864   3.735
84787W        W50014  14.676  20.526   3.310
84788W        W50015  28.341  19.112  10.745
84789W        W50016   5.383  13.734  12.450
84790W        W50017   4.592  27.235   0.890
84791W        W50018   6.285  32.670  12.928
84792W        W50019   2.732   4.023   2.849
84793W        W50020   3.195  32.376  11.698
84794W        W50021  17.520   1.928  11.962
84795W        W50022  15.773  16.905   4.573
84796W        W50023   4.769  21.027   4.738
84797W        W50024  30.707  41.983   4.477
84798W        W50025  16.115  29.866  14.179
84799W        W50026   5.806  27.000   3.303
84800W        W50027   7.296  25.995  10.733
84801W        W50028   7.362  20.780   0.256
84802W        W50029  17.638   2.375   4.270
84803W        W50030  16.621  30.724  14.346
84804W        W50031  37.878   8.448   1.690
84805W        W50032  33.895   7.801   2.214
84806W        W50033  15.799  16.166  13.643
84807W        W50034  16.129  26.592   2.874
84808W        W50035  14.159  28.725  12.543
84809W        W50036  44.107  19.088  12.936
84810W        W50037  26.540  23.492   3.245
84811W        W50038  36.422  44.109  13.917
84812W        W50039  41.136  40.560   0.753
84813W        W50040  11.780  10.788   2.140
84814W        W50041  39.334  10.833   0.946
84815W        W50042  43.908  28.478  11.080
84816W        W50043  15.134  11.152  11.641
84817W        W50044   0.245   6.202   0.528
84818W        W50045   9.607  16.759  13.849
84819W        W50046  23.221  28.623  12.999
84820W        W50047  13.147  19.247   1.147
84821W        W50048  26.201  26.625  13.370
84822W        W50049   9.585  32.412  14.403
84823W        W50050  24.894  20.168  11.242
84824W        W50051  43.350  21.261  14.481
84825W        W50052  39.750  29.434  12.436
84826W        W50053   2.963  18.626  13.870
84827W        W50054  18.860  31.045  14.475
84828W        W50055  39.648  42.584   0.632
84829W        W50056  22.197  32.194  14.638
84830W        W50057  40.408  22.696  14.270
84831W        W50058  41.787  28.964  12.633
84832W        W50059   1.641  42.713   2.444
84833W        W50060   4.951  33.357  14.886
84834W        W50061  19.822  18.585  14.759
84835W        W50062  32.168  37.604  12.995
84836W        W50063  21.887  22.351  11.044
84837W        W50064   8.646  18.747  14.039
84838W        W50065  41.885   9.450   0.277
84839W        W50066  25.467  15.752  14.449
84840W        W50067  13.660  15.190   3.383
84841W        W50068   7.534   9.151  12.847
84842W        W50069  39.969  41.102   0.808
84843W        W50070  18.492   2.376  12.507
84844W        W50071   7.212  10.654  13.911
84845W        W50072  38.731  19.725   1.846
84846W        W50073  17.703  26.215   2.136
84847W        W50074  41.484  25.631  13.842
84848W        W50075  39.857  36.107  13.589
84849W        W50076  24.940  43.230  14.976
84850W        W50077  26.790   6.527   1.622
84851W        W50078  15.152  10.201  14.803
84852W        W50079  44.832  31.367  11.582
84853W        W50080  11.010  13.808   4.501
84854W        W50081   9.407  29.656   2.395
84855W        W50082  13.918  38.502  14.806
84856W        W50083  24.939   8.931   2.576
84857W        W50084   3.649  16.976   0.761
84858W        W50085  35.024  40.567   4.555
84859W        W50086  35.132  18.454   4.828
84860W        W50087  19.761   8.395  12.597
84861W        W50088  31.568  15.839  14.772
84862W        W50089  10.230  13.742  11.494
84863W        W50090  15.757  35.406  12.408
84864W        W50091  11.600  30.426   2.685
84865W        W50092  27.426  26.794  11.043
84866W        W50093  13.762  42.021   0.573
84867W        W50094  13.155  28.382   1.600
84868W        W50095  20.132  20.890  12.470
84869W        W50096  16.848   4.182  11.164
84870W        W50097  20.259  14.779   3.761
84871W        W50098  35.923   6.497   5.017
84872W        W50099  31.329  19.075   3.731
84873W        W50100  21.171  12.333  14.954
84874W        W50101  17.596   8.212   2.844
84875W        W50102  24.231  26.895   0.229
84876W        W50103  17.319  12.825   2.628
84877W        W50104  36.930  40.012  11.046
84878W        W50105  20.522  19.706   2.163
84879W        W50106  32.712  28.621  12.959
84880W        W50107   1.681  42.533  13.948
84881W        W50108  29.135  18.066   0.931
84882W        W50109  14.200  26.718   3.651
84883W        W50110  40.490   8.323  11.301
84884W        W50111  44.733   5.344  10.972
84885W        W50112   6.126   1.435  10.812
84886W        W50113  34.637  36.822   2.107
84887W        W50114   2.258   6.755  14.887
84888W        W50115  34.982  10.200   2.427
84889W        W50116  44.439  14.524   4.076
84890W        W50117  15.399  14.644   1.318
84891W        W50118  17.360  13.124  13.147
84892W        W50119  20.454  40.684   3.732
84893W        W50120   0.210  37.022   3.655
84894W        W50121  23.943  14.682  12.870
84895W        W50122  16.771   9.279   2.871
84896W        W50123  30.855  29.643   3.607
84897W        W50124  20.102  22.950   0.782
84898W        W50125  15.325  41.061  14.553
84899W        W50126  15.436  44.823  12.325
84900W        W50127  39.413  42.840  11.755
84901W        W50128   9.367   2.214   0.371
84902W        W50129   2.348  31.935   1.957
84903W        W50130  13.264  40.381  11.600
84904W        W50131  22.033  12.057   1.228
84905W        W50132  37.458   1.483  12.433
84906W        W50133  20.930  40.495  11.098
84907W        W50134   4.934  19.213  10.578
84908W        W50135  20.645  25.225   3.773
84909W        W50136   9.747   0.281  11.563
84910W        W50137  39.009  36.144  11.425
84911W        W50138  33.994  35.881   3.764
84912W        W50139  25.563   8.266  12.979
84913W        W50140   5.725  35.633  12.439
84914W        W50141   2.393  26.778  14.463
84915W        W50142   2.901  10.036  11.951
84916W        W50143  10.464  40.422  12.697
84917W        W50144   6.776  35.022   0.360
84918W        W50145  34.094  32.487   3.116
84919W        W50146  42.553  44.919  11.595
84920W        W50147  37.805  19.136  11.530
84921W        W50148   5.261  28.576   4.648
84922W        W50149  33.806  44.658   3.215
84923W        W50150  41.265  23.530  13.843
84924W        W50151  26.111  39.927   3.120
84925W        W50152  35.331  39.813  11.595
84926W        W50153  34.494  17.312  11.689
84927W        W50154  36.047  36.021  12.052
84928W        W50155   7.792  43.433  13.495
84929W        W50156  30.499  12.433   4.960
84930W        W50157  24.188  13.595   1.871
84931W        W50158  41.693  15.928   3.681
84932W        W50159  22.002  36.862  14.100
84933W        W50160   4.439   3.169   0.669
84934W        W50161   1.181  15.268  13.548
84935W        W50162   0.930   8.606  14.566
84936W        W50163  40.585  38.584   2.152
84937W        W50164  19.687  24.885  14.852
84938W        W50165  38.560  22.725  11.163
84939W        W50166  23.753   8.600  11.278
84940W        W50167   9.800  40.607   3.566
84941W        W50168  31.868  31.952   2.867
84942W        W50169  11.850  17.288   4.107
84943W        W50170  10.918  22.190  14.343
84944W        W50171  20.268  24.506  12.527
84945W        W50172  39.018  10.286  12.219
84946W        W50173  29.996   6.697  10.734
84947W        W50174   0.605  21.061   3.912
84948W        W50175   2.476   6.259   1.920
84949W        W50176  17.560  28.045  13.251
84950W        W50177  12.563  13.172   2.566
84951W        W50178  36.963   0.605   2.756
84952W        W50179   8.749  26.728  12.518
84953W        W50180  22.251  18.244   2.402
84954W        W50181   1.473  27.525   3.232
84955W        W50182   6.414  29.737  10.500
84956W        W50183   1.572  44.311   0.984
84957W        W50184  14.706  28.930  10.311
84958W        W50185  18.001  34.754   0.944
84959W        W50186  21.826   8.307   2.860
84960W        W50187   3.406   7.830   0.713
84961W        W50188  20.150  16.358   3.667
84962W        W50189  39.306   5.132  11.475
84963W        W50190  26.898  28.700  11.197
84964W        W50191  30.905  23.499  13.511
84965W        W50192  33.143  33.622   3.006
84966W        W50193  38.444  21.496   4.101
84967W        W50194  32.417  16.496   2.660
84968W        W50195  26.008  36.960  11.325
84969W        W50196   3.917  22.579   4.737
84970W        W50197  37.784   2.424  13.140
84971W        W50198  14.530   1.610  14.926
84972W        W50199  23.751  42.324   2.782
84973W        W50200  19.784  37.524   4.600
84974W        W50201  14.839  44.838   3.357
84975W        W50202  21.511  41.103  13.937
84976W        W50203  33.144  22.309  11.944
84977W        W50204  36.886   6.773   1.783
84978W        W50205   0.154  25.799  12.277
84979W        W50206  38.587  11.013   0.028
84980W        W50207   4.198  22.620  12.371
84981W        W50208  40.915  22.281  11.028
84982W        W50209  13.264  20.207   3.387
84983W        W50210  23.181  33.381  11.163
84984W        W50211   8.319  12.154  14.972
84985W        W50212  27.508  44.080   0.434
84986W        W50213  36.656  23.249  11.011
84987W        W50214   7.335  21.573   1.840
84988W        W50215  22.598  34.620  12.127
84989W        W50216  31.529  13.139   2.742
84990W        W50217   0.755  22.723   0.773
84991W        W50218  34.998  26.935  10.609
84992W        W50219   5.239   6.322   4.191
84993W        W50220  23.422   4.896  11.181
84994W        W50221  14.662  19.547   2.183
84995W        W50222  39.146  25.760   4.151
84996W        W50223  31.835  15.178   3.356
84997W        W50224  38.297  19.278  11.371
84998W        W50225  43.247   5.637  11.551
84999W        W50226  38.303  23.795   2.125
85000W        W50227   3.303  28.990   0.485
85001W        W50228  19.611  11.356   1.881
85002W        W50229  13.668  13.284   0.817
85003W        W50230  20.201  13.490  14.954
85004W        W50231   8.860  14.610   3.651
85005W        W50232   2.779  38.276   2.860
85006W        W50233  15.850  19.599  10.817
85007W        W50234  23.163  30.590   2.753
85008W        W50235  39.899  35.952   3.750
85009W        W50236   3.914   7.929  12.881
85010W        W50237  41.383  10.703   2.331
85011W        W50238  12.031   8.477   3.813
85012W        W50239   7.879  34.845   3.754
85013W        W50240   7.950  15.791   1.239
85014W        W50241  13.387  31.266  13.848
85015W        W50242  13.453  19.664   1.230
85016W        W50243  32.869  25.981   0.299
85017W        W50244  40.983  15.536   4.569
85018W        W50245  34.876  40.252  14.560
85019W        W50246  21.973  37.392   1.849
85020W        W50247   6.511  36.350  12.556
85021W        W50248  23.032  42.530   2.410
85022W        W50249  25.093  35.163  14.917
85023W        W50250   3.182  44.417  13.523
85024W        W50251  27.201  21.846  13.921
85025W        W50252  32.682  12.844  10.741
85026W        W50253  28.155   3.376   1.014
85027W        W50254  41.405   5.204   0.298
85028W        W50255  12.737  24.874   0.021
85029W        W50256  42.250  24.116   0.643
85030W        W50257  13.598  35.639  13.761
85031W        W50258  14.412  14.384  14.349
85032W        W50259  41.300   7.110  13.947
85033W        W50260   0.844  31.366  12.547
85034W        W50261  19.724  42.873   0.516
85035W        W50262   7.490  12.364  14.709
85036W        W50263  36.909  36.089   4.115
85037W        W50264  22.242  17.314   5.054
85038W        W50265  17.785   2.296  10.636
85039W        W50266   9.855  22.645   0.633
85040W        W50267  33.415   7.126   2.800
85041W        W50268   9.060  28.042   0.002
85042W        W50269   1.430  27.895  11.991
85043W        W50270   5.732   8.253  12.762
85044W        W50271  27.236  25.998   3.279
85045W        W50272  13.898  15.611  14.017
85046W        W50273  38.981  18.205  13.513
85047W        W50274  33.917  22.580  13.399
85048W        W50275   5.970  13.491  14.195
85049W        W50276  42.510  39.478  11.954
85050W        W50277  28.051  34.345  13.371
85051W        W50278  31.674   6.755   4.490
85052W        W50279  24.476  39.521  12.859
85053W        W50280  11.797  11.171  12.070
85054W        W50281  37.863   4.416   0.379
85055W        W50282   6.205  37.509  13.356
85056W        W50283  39.498   1.380   4.532
85057W        W50284  19.178  16.481   2.238
85058W        W50285  36.072  11.951   2.306
85059W        W50286  38.548   2.234  13.832
85060W        W50287   1.953  14.719   2.716
85061W        W50288  39.979  13.761  13.485
85062W        W50289  36.384  28.923   1.435
85063W        W50290  24.686   9.789   2.788
85064W        W50291  39.321   7.145  14.824
85065W        W50292   1.377  11.792  13.784
85066W        W50293  31.613  10.226   0.672
85067W        W50294  41.042   9.415  13.046
85068W        W50295  13.584   4.936   3.222
85069W        W50296   3.513  38.671  14.787
85070W        W50297  30.940   2.706   3.633
85071W        W50298  44.388   6.224  14.326
85072W        W50299  39.685   3.749   2.282
85073W        W50300  13.420  42.357  12.413
85074W        W50301   6.350  43.903  12.300
85075W        W50302  15.824  22.116   0.990
85076W        W50303  20.099  34.028  11.635
85077W        W50304  16.245   9.091  10.591
85078W        W50305  33.651  26.916  11.619
85079W        W50306  32.297  39.876  11.450
85080W        W50307   6.002  38.633   2.790
85081W        W50308  23.772   2.492   5.023
85082W        W50309  30.075  42.484  12.434
85083W        W50310  16.695   8.110   2.834
85084W        W50311  43.424  31.299  14.488
85085W        W50312  16.123   7.873  12.562
85086W        W50313   5.438   9.817  14.946
85087W        W50314  31.349  10.160  11.153
85088W        W50315  32.886  20.646   0.944
85089W        W50316   1.582  16.570  12.223
85090W        W50317   6.611  29.674   0.706
85091W        W50318  10.843  26.165  13.484
85092W        W50319   9.596   5.480  11.141
85093W        W50320   3.168  16.773  11.453
85094W        W50321   2.075   6.456   4.403
85095W        W50322  39.507  34.374   3.177
85096W        W50323  10.444   9.954  14.262
85097W        W50324  31.067  27.110   1.977
85098W        W50325  35.543  37.754  14.934
85099W        W50326  12.373  39.831  14.480
85100W        W50327  29.578  36.953   4.982
85101W        W50328  13.664  42.924  12.969
85102W        W50329   8.446  20.644  12.587
85103W        W50330  41.387   1.907  12.221
85104W        W50331  25.704  38.528  11.757
85105W        W50332  40.321  21.599   1.762
85106W        W50333  28.555  31.193   4.199
85107W        W50334  33.183  21.071  13.331
85108W        W50335  40.671   7.758  13.930
85109W        W50336  20.356  12.194  13.439
85110W        W50337   9.299  26.270  11.662
85111W        W50338  31.125   5.840  12.458
85112W        W50339   3.250  21.533   2.900
85113W        W50340  39.837  10.712  14.294
85114W        W50341  44.830   8.829   1.703
85115W        W50342   5.912  14.622  12.604
85116W        W50343  14.265   1.359   2.758
85117W        W50344  28.063   0.284  14.857
85118W        W50345  34.901  21.717   2.171
85119W        W50346  32.679  43.030   0.053
85120W        W50347   6.202  11.493   3.351
85121W        W50348  42.192  33.096  12.350
85122W        W50349  15.117   2.465  10.610
85123W        W50350   5.890  12.253  12.645
85124W        W50351  34.298  37.279  12.020
85125W        W50352  24.553   1.750  12.882
85126W        W50353   5.039  26.097  12.882
85127W        W50354  23.635  21.564  11.522
85128W        W50355  29.723  27.230   2.039
85129W        W50356  11.788  32.714  11.552
85130W        W50357  40.995  32.432   3.798
85131W        W50358  29.574  18.048  12.087
85132W        W50359   5.788  23.281   3.368
85133W        W50360  30.146  18.155  13.090
85134W        W50361  31.659  16.756  11.159
85135W        W50362  18.117  16.375   1.733
85136W        W50363  38.868  30.916  13.990
85137W        W50364  37.343  31.678  13.332
85138W        W50365  40.798   2.936  13.476
85139W        W50366  22.530  43.480   4.690
85140W        W50367  14.243  15.153  11.166
85141W        W50368  30.785  22.943  14.807
85142W        W50369   7.447  36.063  12.465
85143W        W50370  10.232  29.596  13.437
85144W        W50371  18.539  21.225   4.992
85145W        W50372   8.644  31.486  14.764
85146W        W50373  40.654  17.288  12.651
85147W        W50374  25.911  31.089  13.383
85148W        W50375  11.404  44.289   0.127
85149W        W50376  38.927  24.759   0.531
85150W        W50377   9.087  25.628   4.150
85151W        W50378  43.510  22.277  12.393
85152W        W50379   6.218  19.773  12.482
85153W        W50380   1.755  44.474   5.229
85154W        W50381  21.934  26.528  11.147
85155W        W50382  35.528  40.776  12.869
85156W        W50383  36.615  11.680   4.630
85157W        W50384  13.388  18.884   1.463
85158W        W50385  28.439  24.999   2.129
85159W        W50386   4.411   2.650  13.824
85160W        W50387  16.689   8.682  13.594
85161W        W50388   8.203  39.770   3.653
85162W        W50389  24.960   4.836   0.937
85163W        W50390  43.696   3.870   1.317
85164W        W50391  15.483  34.406  13.496
85165W        W50392  40.382  13.033   0.290
85166W        W50393   0.615   1.646  10.686
85167W        W50394  17.629   4.583   0.875
85168W        W50395  43.846  42.383  11.394
85169W        W50396  30.573  27.447  13.896
85170W        W50397  35.854   7.661  12.453
85171W        W50398  30.105   6.229   2.464
85172W        W50399  28.528  29.171  11.060
85173W        W50400  19.014  13.513   2.898
85174W        W50401   7.756  29.409  10.923
85175W        W50402  21.153   9.644  13.438
85176W        W50403  26.528  13.027  13.090
85177W        W50404  16.271  28.690   2.495
85178W        W50405   7.080  27.245  14.978
85179W        W50406  27.717  29.168  11.913
85180W        W50407   8.451  40.662   0.366
85181W        W50408  13.993  12.720  14.317
85182W        W50409   8.960   4.888  14.487
85183W        W50410  14.171  24.639   0.237
85184W        W50411   8.059  28.871   1.047
85185W        W50412  36.168  22.520  11.540
85186W        W50413   1.276   2.375  14.681
85187W        W50414   5.747   0.447   4.098
85188W        W50415  16.285  32.594  11.564
85189W        W50416  28.160   9.098   4.090
85190W        W50417  20.161  29.582  14.960
85191W        W50418  39.595  14.959  14.357
85192W        W50419  42.403   9.405   1.945
85193W        W50420  28.014  15.592   4.037
85194W        W50421  41.748  42.349   1.502
85195W        W50422  14.732  44.188   4.484
85196W        W50423  15.348   4.491   3.612
85197W        W50424  25.493  14.014   0.083
85198W        W50425  29.706  29.685   2.437
85199W        W50426  33.172  30.107  11.931
85200W        W50427  12.114  12.337  14.131
85201W        W50428  30.053  18.145   2.407
85202W        W50429   8.997  28.535  13.424
85203W        W50430   1.688  29.534  11.793
85204W        W50431   9.777   4.591  10.728
85205W        W50432   6.209   1.329   2.779
85206W        W50433  39.011  32.026  13.402
85207W        W50434  22.371  28.195  14.759
85208W        W50435   3.782  35.783   2.444
85209W        W50436  37.846  31.470   2.269
85210W        W50437  12.899  39.772  13.523
85211W        W50438  27.347  27.244  10.732
85212W        W50439   8.720  38.241  11.632
85213W        W50440  33.914  44.081  11.137
85214W        W50441  10.160  32.136  12.907
85215W        W50442   8.207  28.659  14.050
85216W        W50443  34.042  36.556   0.389
85217W        W50444  26.437  13.518   3.419
85218W        W50445   2.590  11.823  12.022
85219W        W50446  20.444   2.489   2.619
85220W        W50447  17.307  20.982  14.500
85221W        W50448  11.877  41.381   4.916
85222W        W50449  14.692  41.490   0.764
85223W        W50450  18.579  37.536  14.325
85224W        W50451  41.718  23.881   1.895
85225W        W50452  44.766   5.779   3.706
85226W        W50453  12.487  26.681   3.219
85227W        W50454  40.731   1.767  12.528
85228W        W50455  18.622  15.294   4.209
85229W        W50456   5.689  18.860  11.684
85230W        W50457   4.852  19.895  12.869
85231W        W50458  34.497  36.506  14.544
85232W        W50459   9.875  24.401  14.785
85233W        W50460  23.648  35.999  11.547
85234W        W50461  11.779  25.068   3.598
85235W        W50462   4.745  34.063   4.946
85236W        W50463  35.648  14.102   1.703
85237W        W50464  25.170  37.181   5.088
85238W        W50465  39.802  36.512  13.233
85239W        W50466  24.193  24.479   4.531
85240W        W50467  14.742  26.307  12.885
85241W        W50468   1.175  17.773   2.644
85242W        W50469  15.249  28.476  12.926
85243W        W50470   6.386   4.408   1.136
85244W        W50471   7.375   5.346   2.284
85245W        W50472  35.337  12.868  11.534
85246W        W50473  33.859   4.665  13.893
85247W        W50474  21.059  39.257   2.798
85248W        W50475  28.952  37.527  10.786
85249W        W50476  30.895  43.180  14.841
85250W        W50477  33.934   0.271  12.921
85251W        W50478  28.416  42.460  11.591
85252W        W50479  14.236  21.550  12.625
85253W        W50480  18.024  37.283  11.466
85254W        W50481  16.089   7.282   0.306
85255W        W50482  38.334  40.508   4.784
85256W        W50483  16.538  32.364  11.965
85257W        W50484  42.777   0.786  11.772
85258W        W50485  28.839   2.229  10.916
85259W        W50486  25.906  42.127  11.149
85260W        W50487  31.689  44.353  13.571
85261W        W50488   5.534  19.765  10.893
85262W        W50489  13.507  24.227  14.836
85263W        W50490  19.241   0.834  10.821
85264W        W50491   5.905  35.118  14.856
85265W        W50492  31.912   7.160  11.702
85266W        W50493  14.786  14.292   2.640
85267W        W50494   3.369  29.119   0.977
85268W        W50495  23.377  41.367  12.420
85269W        W50496  40.377   7.354  13.026
85270W        W50497  25.892  12.743   4.246
85271W        W50498  20.317  20.102   3.062
85272W        W50499   9.466  21.041  13.278
85273W        W50500  16.102   3.987  13.374
85274W        W50501   4.477  36.845   2.740
85275W        W50502  37.816  33.933   3.684
85276W        W50503   2.733   2.147   3.845
85277W        W50504  23.690  41.212  14.353
85278W        W50505   6.266   0.432  12.106
85279W        W50506  17.165  10.831   4.064
85280W        W50507  28.289  20.712  12.009
85281W        W50508  20.815  20.675   4.759
85282W        W50509  23.223  26.030   2.374
85283W        W50510  15.302  15.566   2.975
85284W        W50511  44.272  16.718   1.365
85285W        W50512   7.836  39.263   0.120
85286W        W50513  14.646  32.101  14.741
85287W        W50514  39.292   5.866   2.996
85288W        W50515  10.806  25.654   4.098
85289W        W50516  26.975  42.479  11.202
85290W        W50517  24.776   6.680   0.940
85291W        W50518  37.857  29.149  11.542
85292W        W50519  44.542  32.296   2.235
85293W        W50520   9.917  42.724   0.923
85294W        W50521  12.686  24.649  14.551
85295W        W50522   4.132  20.648  13.424
85296W        W50523  27.735  10.741   1.867
85297W        W50524  13.827  27.966   1.238
85298W        W50525   8.186  19.747   3.398
85299W        W50526  21.079  22.773   0.644
85300W        W50527   9.315  28.207   4.237
85301W        W50528  29.064  30.888   3.007
85302W        W50529  43.018  35.026   2.283
85303W        W50530  17.605   1.019   3.099
85304W        W50531  30.049  31.884   3.418
85305W        W50532   2.353  39.003  11.458
85306W        W50533  13.090  35.584  13.755
85307W        W50534  12.748  37.262   1.222
85308W        W50535  26.503  33.328  14.002
85309W        W50536   7.636  41.906  12.452
85310W        W50537  32.589  14.299   9.946
85311W        W50538  40.566   2.492  12.324
85312W        W50539  36.842  13.106  14.936
85313W        W50540  14.539  11.335  10.162
85314W        W50541  33.858  12.061  13.034
85315W        W50542  12.194  17.673  14.826
85316W        W50543  42.873  39.285   4.098
85317W        W50544  18.641  34.051   3.377
85318W        W50545  33.264  36.333   3.537
85319W        W50546  22.530  43.751   3.232
85320W        W50547   2.974  37.396   4.462
85321W        W50548  43.163   6.118   0.946
85322W        W50549  42.335  15.827   4.610
85323W        W50550  25.735  38.760   4.679
85324W        W50551  35.319   5.453  13.082
85325W        W50552   6.245  15.646   0.777
85326W        W50553   2.360  35.886   1.641
85327W        W50554   3.327  14.032  10.822
85328W        W50555  22.408  20.298   4.214
85329W        W50556  39.765  26.539   4.245
85330W        W50557  14.722  30.856   1.656
85331W        W50558   4.116  25.811  14.085
85332W        W50559  16.153   7.537   1.686
85333W        W50560  34.982  17.238   4.239
85334W        W50561   6.283  27.649   1.154
85335W        W50562  18.757  23.244  13.266
85336W        W50563  13.158   6.100  14.310
85337W        W50564   9.120  23.970   2.846
85338W        W50565  11.750  35.642  12.958
85339W        W50566  42.108  10.250   4.200
85340W        W50567  15.218  22.602   2.588
85341W        W50568  36.246  38.996   1.894
85342W        W50569  37.947  25.573   1.253
85343W        W50570  39.360  24.071  14.545
85344W        W50571  10.125  31.900  10.177
85345W        W50572  28.581  16.262   1.449
85346W        W50573  33.121   1.689  14.050
85347W        W50574  30.985  21.911   3.240
85348W        W50575  12.306  13.841  14.358
85349W        W50576  40.630  44.337  11.222
85350W        W50577   2.854  26.710   1.005
85351W        W50578   9.423   5.448  12.678
85352W        W50579   0.350  27.794  12.961
85353W        W50580   2.944   8.089  11.552
85354W        W50581   7.879  16.672  12.940
85355W        W50582  42.936  30.960  11.599
85356W        W50583  16.778  17.570  12.439
85357W        W50584  34.321  16.586  14.408
85358W        W50585  25.034  27.758  14.820
85359W        W50586  38.979  42.051  12.544
85360W        W50587   4.734  21.079  12.374
85361W        W50588  31.703  38.403  10.789
85362W        W50589   7.162  10.229  11.410
85363W        W50590  26.801  26.733  12.955
85364W        W50591   7.451  23.182   3.263
85365W        W50592  27.544  40.619  14.361
85366W        W50593  34.209  43.661  10.995
85367W        W50594  20.138  14.071   2.202
85368W        W50595  12.273  38.035   0.057
85369W        W50596  42.038   1.914  11.086
85370W        W50597  18.737  38.281   0.677
85371W        W50598  35.001  32.636  12.240
85372W        W50599  24.370  38.695  11.114
85373W        W50600   6.781  31.714  13.947
85374W        W50601  41.667  32.550   3.270
85375W        W50602  17.686  32.986   1.700
85376W        W50603  44.906  28.638  12.971
85377W        W50604  13.752  32.455   0.547
85378W        W50605  34.718  39.118  12.160
85379W        W50606  12.662  18.312  14.359
85380W        W50607  10.278  13.672   2.304
85381W        W50608  29.018   4.773   2.329
85382W        W50609  12.746  19.846  10.799
85383W        W50610  24.110  43.965   5.085
85384W        W50611  34.739   9.241  12.494
85385W        W50612  30.058  16.435  11.517
85386W        W50613  25.830  41.738   2.123
85387W        W50614   5.458  23.156  12.145
85388W        W50615  10.975  16.248   1.047
85389W        W50616  14.286   3.491  12.963
85390W        W50617  14.229  38.051  11.566
85391W        W50618  37.907  37.759  12.609
85392W        W50619   0.714  36.919  10.455
85393W        W50620  35.779   0.813  13.814
85394W        W50621  44.446  20.243  12.741
85395W        W50622  31.723  23.589  13.192
85396W        W50623  38.217  35.116  11.703
85397W        W50624  15.110  30.956  12.162
85398W        W50625  13.135  15.001   1.102
85399W        W50626  30.159  15.641  11.043
85400W        W50627  26.128  15.775   4.926
85401W        W50628  22.823   0.730   3.053
85402W        W50629   8.798  31.281   2.592
85403W        W50630  36.267  25.118   1.075
85404W        W50631  43.084   6.909   3.655
85405W        W50632  28.321  27.920  13.567
85406W        W50633   0.673   6.234  10.741
85407W        W50634  42.119  14.776  10.981
85408W        W50635  22.205   4.902  10.433
85409W        W50636  25.963  15.837   3.445
85410W        W50637  12.669   0.743   1.374
85411W        W50638  31.558   6.270   4.652
85412W        W50639  13.527  17.303   2.390
85413W        W50640  31.951  16.102  10.381
85414W        W50641  16.903  15.711   0.735
85415W        W50642  32.829  41.487   2.111
85416W        W50643  42.040   3.342   3.298
85417W        W50644  18.037  11.692  12.032
85418W        W50645   4.842  17.218   3.575
85419W        W50646  17.268  42.217  11.138
85420W        W50647  29.382  28.064  13.773
85421W        W50648  30.319  30.859   0.748
85422W        W50649  17.516  32.804  11.900
85423W        W50650  15.268  36.037   0.525
85424W        W50651   9.105  35.336   2.391
85425W        W50652  31.173   3.115   0.413
85426W        W50653   9.157  39.400  13.805
85427W        W50654  30.704   5.475  12.461
85428W        W50655  10.268   7.747   4.567
85429W        W50656  39.115  18.523  12.089
85430W        W50657  42.773  25.160   2.279
85431W        W50658   2.675  21.799   0.500
85432W        W50659  28.584  35.298   2.371
85433W        W50660  43.454   1.988  12.168
85434W        W50661  11.629   8.283  12.606
85435W        W50662   6.984   9.722  12.216
85436W        W50663  35.552   4.866  14.374
85437W        W50664   9.241   3.372  13.889
85438W        W50665   9.674  28.237   0.169
85439W        W50666  22.616  32.891  11.374
85440W        W50667  18.986   4.850  13.804
85441W        W50668  32.988  23.495  11.598
85442W        W50669  42.818  38.519  13.120
85443W        W50670  27.910   8.429  14.318
85444W        W50671  15.076  19.215   4.481
85445W        W50672  44.987  13.045  12.657
85446W        W50673  44.735  33.059  11.617
85447W        W50674  18.825  19.257   3.746
85448W        W50675  18.819  15.090   0.299
85449W        W50676   2.370  30.692   2.682
85450W        W50677  11.710  39.889  10.985
85451W        W50678  30.101  40.131  12.832
85452W        W50679  41.524  37.845   3.290
85453W        W50680   2.825  22.723   3.781
85454W        W50681  38.764  33.741   0.195
85455W        W50682  18.114  23.278  13.882
85456W        W50683   6.780  28.566  13.651
85457W        W50684  26.937  11.622   2.368
85458W        W50685  30.853  11.857  13.362
85459W        W50686  41.546   5.160   0.838
85460W        W50687  20.756  41.999   3.936
85461W        W50688  27.139  12.496   2.846
85462W        W50689  21.088  26.045  10.635
85463W        W50690  44.202   0.600   4.063
85464W        W50691  44.991   5.329  12.033
85465W        W50692  33.638   3.868  14.082
85466W        W50693  32.601  41.610  12.737
85467W        W50694  27.479   2.611  13.632
85468W        W50695  41.619  26.835  11.121
85469W        W50696  36.516   0.807   9.968
85470W        W50697   3.871  22.271   2.833
85471W        W50698  21.067  12.686   1.930
85472W        W50699  33.966  17.589  10.626
85473W        W50700  11.730   4.949  12.983
85474W        W50701  19.484   6.308  14.411
85475W        W50702   9.369  42.005   1.836
85476W        W50703   2.631  40.930  13.266
85477W        W50704  22.645  15.654   2.636
85478W        W50705  41.077  23.808  14.232
85479W        W50706   9.638   6.355   0.554
85480W        W50707  22.254  10.142   0.926
85481W        W50708  20.631  28.116   3.776
85482W        W50709  36.346  41.425   0.347
85483W        W50710  10.271  26.900   5.062
85484W        W50711  22.260   4.764   2.422
85485W        W50712   6.638  17.562   3.683
85486W        W50713   3.764  34.882  11.053
85487W        W50714  11.166  16.525  12.139
85488W        W50715  33.005  23.726   1.821
85489W        W50716  10.340  26.639  14.088
85490W        W50717  25.111  22.966  13.847
85491W        W50718  42.906  23.851  10.675
85492W        W50719  28.589  43.713  14.462
85493W        W50720  23.109   3.868  13.531
85494W        W50721  39.779   0.697  11.691
85495W        W50722  33.637   8.246   2.054
85496W        W50723  10.354  38.865  11.262
85497W        W50724  10.291  39.350   1.251
85498W        W50725  16.842  15.765  14.370
85499W        W50726   9.733  24.760  14.324
85500W        W50727  33.228   0.796  14.892
85501W        W50728  10.317  19.164   3.711
85502W        W50729   4.252  12.333   3.100
85503W        W50730  23.159   4.415   0.892
85504W        W50731  27.388   3.885  13.947
85505W        W50732  31.249  15.632  14.416
85506W        W50733  41.421  34.104  11.083
85507W        W50734  10.941  29.505   4.101
85508W        W50735  32.372  23.093   0.839
85509W        W50736  40.319  23.548   3.846
85510W        W50737   9.406  29.195  12.988
85511W        W50738  43.009  42.592   2.758
85512W        W50739  35.312   0.482   4.604
85513W        W50740  27.858  17.256  13.919
85514W        W50741  28.513  12.619   0.997
85515W        W50742   6.691  38.626   3.737
85516W        W50743  31.937  15.762   0.118
85517W        W50744  26.557   8.364   1.818
85518W        W50745   5.849  44.102   0.937
85519W        W50746  44.585  40.218   4.513
85520W        W50747  44.129  27.635   5.422
85521W        W50748  29.498  13.260  13.464
85522W        W50749   4.039  42.851  14.480
85523W        W50750  39.314   9.666   4.159
85524W        W50751  27.255  15.825  12.080
85525W        W50752  19.239   6.676   2.365
85526W        W50753  18.117  17.604  11.956
85527W        W50754  26.491  31.299  13.897
85528W        W50755  25.021  24.598   2.864
85529W        W50756  23.822  34.187   0.372
85530W        W50757  39.818  39.297  11.417
85531W        W50758  29.964   4.444  13.038
85532W        W50759  28.001  34.962   0.949
85533W        W50760   7.252  35.552   3.722
85534W        W50761  17.747  20.785  10.947
85535W        W50762  20.225  39.089   4.221
85536W        W50763  21.453  32.089  13.082
85537W        W50764  30.406  10.032   0.949
85538W        W50765  24.865  21.189   3.639
85539W        W50766  38.974  31.634   3.706
85540W        W50767  18.619  26.718  13.544
85541W        W50768  17.584   9.710  10.785
85542W        W50769  31.378  33.461   2.801
85543W        W50770   2.857   4.739   3.108
85544W        W50771   7.233  28.414  10.650
85545W        W50772  32.408  42.353   2.138
85546W        W50773  19.514   4.798  14.737
85547W        W50774  32.213  18.135  11.340
85548W        W50775  26.525  41.339   3.379
85549W        W50776   1.770  40.012  10.571
85550W        W50777  38.620  13.304  11.928
85551W        W50778  36.315  25.171  10.492
85552W        W50779  28.250  18.975  14.568
85553W        W50780   4.826  28.183  13.831
85554W        W50781   0.223   4.026  12.506
85555W        W50782  36.964  18.695   0.070
85556W        W50783  43.182   2.308   3.743
85557W        W50784  19.454   6.463  12.497
85558W        W50785  35.499   1.201  11.658
85559W        W50786  24.573  19.772   0.756
85560W        W50787  42.698  37.889  11.384
85561W        W50788  20.157  42.781  14.179
85562W        W50789   6.423   2.891   3.782
85563W        W50790  39.457  19.697   2.337
85564W        W50791  39.443  33.028   3.155
85565W        W50792  11.671  27.875   4.154
85566W        W50793  39.511  29.451   2.257
85567W        W50794  26.087  15.234  11.014
85568W        W50795  29.004  11.998  10.542
85569W        W50796  24.047  39.016   4.993
85570W        W50797  19.537  12.803   1.468
85571W        W50798  30.587  23.637  14.868
85572W        W50799  39.457  30.116  12.944
85573W        W50800  10.722  23.564   2.548
85574W        W50801  35.289  30.884   1.655
85575W        W50802  23.583  41.447   3.100
85576W        W50803  39.867  28.121  12.998
85577W        W50804   7.371  23.213   2.747
85578W        W50805  25.210  33.166   3.846
85579W        W50806  34.175  21.023  14.821
85580W        W50807  31.397  20.829  10.779
85581W        W50808  10.466  13.239   0.112
85582W        W50809  44.329  44.266  11.171
85583W        W50810  34.157  43.754   1.867
85584W        W50811  28.204  16.799  10.773
85585W        W50812  22.694   1.082   2.662
85586W        W50813  34.197  34.488   1.923
85587W        W50814   5.091  40.869  12.499
85588W        W50815  17.965  18.330   2.877
85589W        W50816  29.281  17.761  13.875
85590W        W50817  19.537  33.700  14.452
85591W        W50818  36.874  35.685  13.412
85592W        W50819  38.109  14.870  11.627
85593W        W50820  21.723   5.446   2.083
85594W        W50821  35.271  24.539   1.871
85595W        W50822   4.715   6.069  14.345
85596W        W50823  27.282  13.405   3.533
85597W        W50824  19.472  33.383   3.326
85598W        W50825  29.050  34.772   0.282
85599W        W50826  35.228  31.871  12.012
85600W        W50827   4.247  32.378   2.679
85601W        W50828  44.615  17.926   4.161
85602W        W50829  40.067  20.271  11.676
85603W        W50830  16.441  37.486  14.398
85604W        W50831  40.034  26.198   0.733
85605W        W50832   3.769   0.052   0.433
85606W        W50833  40.884  39.395   3.764
85607W        W50834   4.705  11.066  13.298
85608W        W50835  35.573  40.865   0.727
85609W        W50836   8.196   3.032   2.871
85610W        W50837   6.586  24.632   2.250
85611W        W50838  38.729  36.859   0.546
85612W        W50839  11.563  31.950   1.348
85613W        W50840  40.050  20.087   1.785
85614W        W50841  40.192   0.202  13.822
85615W        W50842  27.248  15.165  14.371
85616W        W50843  14.120   3.769   0.326
85617W        W50844  13.943  12.172  11.933
85618W        W50845  11.052  37.072  14.783
85619W        W50846  16.233  22.801   3.946
85620W        W50847  17.600   4.502  12.081
85621W        W50848   9.883  10.328  12.137
85622W        W50849  25.524  39.150  14.893
85623W        W50850  43.885  18.397   4.374
85624W        W50851   3.407   5.321  13.988
85625W        W50852  23.290  30.830   3.283
85626W        W50853  10.736  18.137   1.124
85627W        W50854   7.850   1.035   4.290
85628W        W50855  12.110  15.899  11.099
85629W        W50856  40.933   2.039   2.181
85630W        W50857   8.339  30.790   0.787
85631W        W50858   0.391  41.560   4.036
85632W        W50859  34.394  19.533   2.213
85633W        W50860  29.699  25.527  13.403
85634W        W50861  19.291   2.940  11.065
85635W        W50862  14.777  24.125  13.447
85636W        W50863  25.042   5.409  13.646
85637W        W50864  32.025   3.878  14.778
85638W        W50865   3.118   1.776   0.293
85639W        W50866  10.020  29.060  11.977
85640W        W50867  37.981  31.590   2.794
85641W        W50868  23.244  38.423   0.831
85642W        W50869   3.184  29.482  14.268
85643W        W50870  24.575  38.587   2.285
85644W        W50871  42.763   0.633   1.917
85645W        W50872  10.336  14.372   3.301
85646W        W50873  18.547  43.362  12.023
85647W        W50874  37.026  28.037   4.971
85648W        W50875   7.587   1.421   3.892
85649W        W50876   0.838  35.648   4.408
85650W        W50877  26.016  39.601  12.806
85651W        W50878  37.467  37.737   4.385
85652W        W50879  36.801  18.738   1.909
85653W        W50880   3.525  36.864   3.281
85654W        W50881  31.393  11.834   1.484
85655W        W50882   4.223  34.458  12.441
85656W        W50883  33.582  31.245  13.793
85657W        W50884  14.805  38.864   0.675
85658W        W50885   4.018  17.311   3.826
85659W        W50886  28.542  37.482   4.080
85660W        W50887  31.946  17.229   1.022
85661W        W50888  10.312  24.272  13.820
85662W        W50889  13.182  41.212  11.883
85663W        W50890  11.011  14.397  12.115
85664W        W50891  12.077  39.353  13.364
85665W        W50892  25.862   7.032  13.863
85666W        W50893  34.895  18.518   2.394
85667W        W50894  14.708  31.889  13.352
85668W        W50895  31.127   0.601  10.652
85669W        W50896  44.404  25.495  14.282
85670W        W50897  14.775  29.658   2.287
85671W        W50898   4.263  40.832  13.567
85672W        W50899  38.024   9.982  13.947
85673W        W50900   6.339   5.686  11.102
85674W        W50901  12.272  42.796  13.410
85675W        W50902   5.764  43.051   3.784
85676W        W50903   7.552  37.384   4.558
85677W        W50904  43.736   3.841  13.545
85678W        W50905  19.137   5.360  12.146
85679W        W50906   2.866  18.998  12.126
85680W        W50907   5.931  36.783   0.338
85681W        W50908   7.947   9.710  13.064
85682W        W50909  27.766  25.096  11.623
85683W        W50910  17.279   1.047  12.075
85684W        W50911  26.736  39.409   2.759
85685W        W50912  32.581   9.378   3.120
85686W        W50913  26.791  18.737  14.991
85687W        W50914  27.441  32.689  13.557
85688W        W50915   7.851  39.589   2.807
85689W        W50916  35.833  29.960   4.400
85690W        W50917  35.111  25.420   1.922
85691W        W50918  30.758  11.968  11.596
85692W        W50919   3.896   6.686   0.425
85693W        W50920  11.183  13.505  13.033
85694W        W50921  20.716   6.155  13.539
85695W        W50922  29.115  39.596   0.298
85696W        W50923   9.053  21.596  14.228
85697W        W50924   5.794   5.210   3.837
85698W        W50925  24.956  28.496  12.434
85699W        W50926  20.111  24.173  11.541
85700W        W50927  22.038  33.353  14.078
85701W        W50928  15.609  41.844  13.403
85702W        W50929  30.424   6.384  11.266
85703W        W50930  31.740  25.957  10.515
85704W        W50931   1.325  29.206  12.597
85705W        W50932  22.640  41.875  11.556
85706W        W50933   5.649  11.968   2.380
85707W        W50934  43.378   2.841   2.138
85708W        W50935  30.975  32.205  10.616
85709W        W50936  28.569  35.733  12.768
85710W        W50937  28.225  26.642  10.131
85711W        W50938  44.718  35.351   0.029
85712W        W50939  15.128  34.978  11.241
85713W        W50940  14.237  30.915   1.338
85714W        W50941   8.477   4.740   1.473
85715W        W50942  30.046   1.770   2.210
85716W        W50943  27.684  38.175   3.578
85717W        W50944   2.153  36.053  11.295
85718W        W50945  19.356  44.837   2.654
85719W        W50946  37.447   5.291   4.538
85720W        W50947   9.124  27.206   2.280
85721W        W50948  13.702  40.637   0.409
85722W        W50949  32.554  21.752   1.590
85723W        W50950  44.241   1.706   3.753
85724W        W50951   2.968  39.561  11.603
85725W        W50952  24.589  18.883   1.242
85726W        W50953  44.306  26.959   4.913
85727W        W50954  30.897  44.843   1.244
85728W        W50955  26.713  21.510  14.346
85729W        W50956   0.511  21.666  13.075
85730W        W50957  31.332  44.745  12.729
85731W        W50958   6.057   0.931  13.880
85732W        W50959  11.306  41.283  10.565
85733W        W50960  32.795  13.862  13.002
85734W        W50961  42.209  35.872   1.151
85735W        W50962   7.618  13.857   4.181
85736W        W50963  13.353  40.348  14.481
85737W        W50964  18.057  29.978   4.209
85738W        W50965  19.229   1.905  12.933
85739W        W50966  35.826   2.913  10.639
85740W        W50967  34.827  27.571   2.881
85741W        W50968  16.474  25.946   2.221
85742W        W50969  33.661   4.133   2.727
85743W        W50970  13.231  18.842  12.185
85744W        W50971   5.514   8.387   4.011
85745W        W50972  36.100  19.336   0.740
85746W        W50973  41.835  25.334  13.481
85747W        W50974  40.974  30.579  10.618
85748W        W50975  36.568  33.059   3.298
85749W        W50976  25.692  38.532   2.850
85750W        W50977  19.123  29.422  13.461
85751W        W50978   1.999  27.269  11.524
85752W        W50979   7.253  22.506   3.535
85753W        W50980  23.252   0.208  14.429
85754W        W50981  35.092  39.966   1.245
85755W        W50982  42.762  36.544  12.934
85756W        W50983  24.074   0.517   3.085
85757W        W50984  13.444   6.640   1.684
85758W        W50985  14.730  35.590  14.383
85759W        W50986  16.109  35.883   0.984
85760W        W50987  39.501   9.104   3.309
85761W        W50988  21.167  41.914  14.977
85762W        W50989  38.956   0.554   4.709
85763W        W50990  17.339  12.671   3.743
85764W        W50991  36.961  42.922  12.967
85765W        W50992  27.953  30.739  11.617
85766W        W50993  17.231  26.034  12.525
85767W        W50994   0.603   3.405   4.191
85768W        W50995   9.626  22.187  13.654
85769W        W50996  29.571   3.713  13.392
85770W        W50997  30.844  27.569   2.193
85771W        W50998  34.143  19.215   3.678
85772W        W50999  11.606  27.956  10.244
85773W        W51000   7.542  26.081  14.379
85774W        W51001  37.484  10.016  10.707
85775W        W51002  40.931  25.215  14.369
85776W        W51003  35.274   3.681  14.904
85777W        W51004  21.775   4.788   4.703
85778W        W51005  24.206  15.220  13.131
85779W        W51006   2.483  21.572   0.928
85780W        W51007  22.053  35.907  10.672
85781W        W51008   1.741  28.714  12.180
85782W        W51009  20.808   9.720   1.752
85783W        W51010  39.942  40.060  10.521
85784W        W51011   8.728  23.442   0.814
85785W        W51012  22.794   6.325   4.041
85786W        W51013  10.678  29.927  11.535
85787W        W51014  13.582  33.005   0.157
85788W        W51015  20.081   2.173   2.289
85789W        W51016  26.146  38.805  11.760
85790W        W51017  25.615  33.195   2.273
85791W        W51018  36.672  44.844   1.933
85792W        W51019  31.444  40.807   4.534
85793W        W51020  27.152  30.925   3.082
85794W        W51021  12.255  30.920  10.423
85795W        W51022  43.464   4.963   2.303
85796W        W51023  35.155  25.061   5.062
85797W        W51024  43.377  42.385   1.901
85798W        W51025  41.381  30.648   0.623
85799W        W51026  26.611  38.926  14.888
85800W        W51027   1.240  36.905  10.405
85801W        W51028  13.631   7.796  13.035
85802W        W51029  21.490  42.783   3.141
85803W        W51030   8.538  18.818   4.200
85804W        W51031  41.405   0.687  13.436
85805W        W51032  41.370  14.016   0.427
85806W        W51033  42.046  42.015   1.787
85807W        W51034  44.690   4.680   2.500
85808W        W51035   1.873   0.210   3.742
85809W        W51036  36.913  20.761   2.735
85810W        W51037   0.217  42.246   1.428
85811W        W51038  31.329  11.986  11.307
85812W        W51039  44.257   4.498   4.588
85813W        W51040  22.961  25.470  12.404
85814W        W51041  37.999  40.329   2.144
85815W        W51042  18.847  39.396  14.421
85816W        W51043  13.597   7.919   0.737
85817W        W51044  37.299  12.765  14.249
85818W        W51045  25.885   2.352  12.588
85819W        W51046  19.634   9.554  14.823
85820W        W51047  22.247   9.623  12.590
85821W        W51048  13.771  20.599   2.380
85822W        W51049   2.247  43.910   3.490
85823W        W51050   3.457  36.594   3.722
85824W        W51051  32.423  23.835   2.503
85825W        W51052  34.947  12.183   2.011
85826W        W51053   1.281   1.074  12.067
85827W        W51054  17.275  28.470  13.381
85828W        W51055   9.846   0.871   1.874
85829W        W51056  35.711  43.822  14.463
85830W        W51057   9.478   7.700  14.869
85831W        W51058   1.196   3.509  11.649
85832W        W51059  33.063   1.511   1.644
85833W        W51060  17.588  18.312   1.187
85834W        W51061   8.830  38.622  11.314
85835W        W51062  38.805  34.168   0.682
85836W        W51063  33.357  28.228  12.008
85837W        W51064  14.127  16.608   2.269
85838W        W51065  39.098   1.845  11.159
85839W        W51066  41.917  31.171  13.435
85840W        W51067   0.747   2.656  12.827
85841W        W51068  30.085  30.648  10.625
85842W        W51069  21.092   3.514  12.456
85843W        W51070  40.076  31.624  13.951
85844W        W51071  23.031  37.903  12.923
85845W        W51072  15.868  36.632   4.220
85846W        W51073   1.763  40.374  14.341
85847W        W51074  36.176  22.186  11.153
85848W        W51075  35.205   4.421  12.462
85849W        W51076  20.673  39.109  13.858
85850W        W51077  12.760  18.826  14.404
85851W        W51078  16.847  33.916   0.705
85852W        W51079  11.376  28.646   0.760
85853W        W51080  11.169  36.189  11.616
85854W        W51081   4.994  21.220   1.780
85855W        W51082  14.681  40.016   3.574
85856W        W51083  32.150  17.019  11.509
85857W        W51084  23.980  43.805   1.072
85858W        W51085  35.767  10.621   3.386
85859W        W51086  37.392  39.528   1.153
85860W        W51087  29.841   2.489  11.160
85861W        W51088  36.476  31.326   0.667
85862W        W51089  25.138  33.762   0.297
85863W        W51090  35.584   5.797   1.517
85864W        W51091  42.056  44.810  12.393
85865W        W51092   7.907   4.652  11.979
85866W        W51093   8.211  38.758   4.511
85867W        W51094  29.043  40.754  10.599
85868W        W51095   2.817   0.436  10.731
85869W        W51096  35.586  35.559  12.910
85870W        W51097  25.480  21.727  10.735
85871W        W51098  28.313  12.931   5.398
85872W        W51099  22.140  17.623  13.914
85873W        W51100  34.940  40.034  11.889
85874W        W51101  14.609  16.195   0.335
85875W        W51102  42.347  20.050  10.169
85876W        W51103  21.466  13.369   1.397
85877W        W51104  34.868  39.655  12.934
85878W        W51105  15.829  13.667  12.024
85879W        W51106  32.075  23.139  10.679
85880W        W51107   5.743   4.775   0.752
85881W        W51108  39.925  29.397   1.508
85882W        W51109  41.438  31.634  13.110
85883W        W51110  38.420  27.563   3.049
85884W        W51111  26.936   5.559  10.720
85885W        W51112   4.316   2.410   1.718
85886W        W51113   0.665  42.444  11.113
85887W        W51114  34.910  43.386  14.754
85888W        W51115  13.648   9.327  11.507
85889W        W51116  41.762  35.540  11.593
85890W        W51117   4.281  16.355   1.831
85891W        W51118  29.371   7.110   3.756
85892W        W51119  13.323  30.837   1.776
85893W        W51120  39.741  19.634   2.789
85894W        W51121   7.418  26.915  13.640
85895W        W51122  37.910  28.249  12.492
85896W        W51123   7.101   6.722  12.011
85897W        W51124  24.630  24.490   3.223
85898W        W51125   5.230  33.605   2.665
85899W        W51126   1.671  23.964  14.602
85900W        W51127  44.635  32.286   0.176
85901W        W51128  25.067  39.739  12.505
85902W        W51129  14.111  30.614  11.064
85903W        W51130  37.597  15.999  13.028
85904W        W51131  25.238  41.085   1.279
85905W        W51132  27.960  24.619  11.629
85906W        W51133  29.516  24.793   2.970
85907W        W51134  10.662  34.586  12.948
85908W        W51135   4.477  31.119   4.745
85909W        W51136  31.234  27.808   4.980
85910W        W51137  24.794  12.889   2.346
85911W        W51138  36.000   4.824   3.037
85912W        W51139  13.864  40.279   3.707
85913W        W51140  17.119  21.068  11.138
85914W        W51141   8.238  27.009   4.499
85915W        W51142  42.482  30.440   1.940
85916W        W51143  36.848  20.666  10.578
85917W        W51144  41.429  44.747  13.469
85918W        W51145  43.260   3.793   3.603
85919W        W51146   0.876  32.863   0.339
85920W        W51147  29.479  33.020  10.669
85921W        W51148  35.535   4.011  14.561
85922W        W51149  21.042  25.246  12.714
85923W        W51150  43.811   7.910  13.946
85924W        W51151  39.334  31.085  11.069
85925W        W51152   8.796  11.426  13.036
85926W        W51153  39.509  17.012   4.592
85927W        W51154  34.142  26.989   0.895
85928W        W51155  18.727  25.126  10.325
85929W        W51156  14.294  42.759   0.450
85930W        W51157  38.224  35.100  14.027
85931W        W51158  41.921  27.487   3.766
85932W        W51159  32.967  16.192  12.887
85933W        W51160  11.884  37.552   3.049
85934W        W51161  22.165  31.168   2.922
85935W        W51162  24.489  11.203  14.976
85936W        W51163  10.680  12.333  13.929
85937W        W51164   0.333  12.097   3.214
85938W        W51165  28.179   8.566  10.320
85939W        W51166  36.851  33.680   2.585
85940W        W51167  22.567  19.248   2.612
85941W        W51168   4.176  16.590  14.081
85942W        W51169  23.818  14.843  12.399
85943W        W51170  19.634  10.717  13.304
85944W        W51171  28.366  43.075   9.782
85945W        W51172  29.871  30.541   1.756
85946W        W51173  40.812  39.288   1.641
85947W        W51174  26.245  31.470  12.440
85948W        W51175  36.382  26.861  11.008
85949W        W51176   1.564  33.545  12.406
85950W        W51177  22.652  37.805  12.325
85951W        W51178   2.501  28.508  13.802
85952W        W51179   0.519  30.691   2.697
85953W        W51180  15.774  19.151  10.545
85954W        W51181  38.593  24.372  11.562
85955W        W51182  27.203   4.091   3.143
85956W        W51183   6.030  30.737   2.898
85957W        W51184  26.611  39.432  14.908
85958W        W51185  35.974  33.984  13.125
85959W        W51186  19.847  31.095   1.431
85960W        W51187  21.082  26.204   3.247
85961W        W51188  27.088  36.749   0.286
85962W        W51189  42.056  15.694  10.860
85963W        W51190  30.810  10.435   2.460
85964W        W51191   9.346  42.045   4.736
85965W        W51192  32.435  40.565  14.987
85966W        W51193   9.049  13.151   3.604
85967W        W51194   5.044  19.072   0.733
85968W        W51195  24.192   7.874  13.956
85969W        W51196   7.274   9.128   1.612
85970W        W51197  18.863   8.556  12.474
85971W        W51198  14.342  44.969  13.407
85972W        W51199  35.961  13.277  10.844
85973W        W51200  12.078  24.685   4.191
85974W        W51201  42.062  10.831  12.595
85975W        W51202  27.187  14.661  13.448
85976W        W51203  17.774  31.604   3.169
85977W        W51204  15.728  42.286   3.726
85978W        W51205  19.186  25.806   0.755
85979W        W51206  33.873  22.150  10.689
85980W        W51207  15.496   4.280  12.967
85981W        W51208  29.782  22.577  11.550
85982W        W51209  17.327  43.878   1.607
85983W        W51210  12.087   1.896  12.965
85984W        W51211   4.465  32.549   3.587
85985W        W51212  21.196  14.372  11.549
85986W        W51213  12.332   5.338  14.067
85987W        W51214  22.863  33.393  10.732
85988W        W51215  41.886  35.094   2.631
85989W        W51216   9.943  29.176  11.089
85990W        W51217  31.561  27.456  11.574
85991W        W51218  22.683  26.206  12.104
85992W        W51219   9.224  35.393  12.158
85993W        W51220  23.800   5.191  12.104
85994W        W51221  13.310  42.058  13.346
85995W        W51222  10.683  36.475  10.824
85996W        W51223  29.922  31.391  11.142
85997W        W51224  26.148   8.445   0.897
85998W        W51225  37.194  31.970   3.200
85999W        W51226  29.713  42.958   2.295
86000W        W51227  44.703  31.362  12.778
86001W        W51228  26.931  23.138   4.785
86002W        W51229  24.566  18.406  12.035
86003W        W51230  27.131  23.386  12.488
86004W        W51231  30.389  42.773   0.893
86005W        W51232  20.017   0.676  11.444
86006W        W51233  10.293  28.424  10.687
86007W        W51234   9.292   4.508   0.853
86008W        W51235  35.984   6.194   3.739
86009W        W51236  28.377  21.538   3.112
86010W        W51237   9.321  20.065  11.421
86011W        W51238  17.501  41.423   0.766
86012W        W51239  24.042  19.068   4.523
86013W        W51240  43.355   3.752  12.160
86014W        W51241   7.850  36.855  12.430
86015W        W51242  13.693  17.763   2.289
86016W        W51243  27.034  42.375   0.540
86017W        W51244   1.142   0.087   9.911
86018W        W51245  21.280  17.666  13.462
86019W        W51246  36.364  19.361   1.198
86020W        W51247  16.633  23.884   0.239
86021W        W51248  39.913  18.141   3.638
86022W        W51249   5.448  16.308   4.222
86023W        W51250  14.934   5.926  11.563
86024W        W51251  36.691  12.331  14.839
86025W        W51252  34.677  18.333  10.777
86026W        W51253  18.808  23.037   0.436
86027W        W51254  13.137  30.355   1.840
86028W        W51255  39.538  36.566   1.544
86029W        W51256  24.349  35.900   2.134
86030W        W51257   3.799   6.352  13.386
86031W        W51258   4.745   7.953  13.534
86032W        W51259  26.102  40.672  10.524
86033W        W51260  43.371   3.253   1.853
86034W        W51261  28.587   9.671  14.535
86035W        W51262  18.571   8.958  10.798
86036W        W51263  41.390   4.889  14.530
86037W        W51264   2.862  42.435   5.668
86038W        W51265  10.312  15.594  12.072
86039W        W51266  22.515  11.791   4.120
86040W        W51267  23.253  28.260  10.726
86041W        W51268  10.745  19.275  14.506
86042W        W51269  40.528  15.149   3.326
86043W        W51270  33.433  11.285   4.370
86044W        W51271  15.631  33.042   1.288
86045W        W51272  43.129  44.570  12.380
86046W        W51273  39.863  34.394   3.776
86047W        W51274  39.610  18.154   4.105
86048W        W51275   3.883  30.539  10.653
86049W        W51276  34.107  36.827   2.190
86050W        W51277  35.156  16.224   4.276
86051W        W51278   8.737  12.125   0.814
86052W        W51279  19.815  38.954   4.457
86053W        W51280  33.907  15.757  11.867
86054W        W51281   4.187   8.358   0.202
86055W        W51282  37.074   6.816   3.133
86056W        W51283   1.314  10.758  11.405
86057W        W51284  26.754   7.608  13.057
86058W        W51285  20.338  18.578  12.016
86059W        W51286  42.195   0.602  14.459
86060W        W51287  14.147  42.937   3.308
86061W        W51288  40.459  35.536  12.849
86062W        W51289  27.271  18.173  12.246
86063W        W51290  44.471  42.263  10.603
86064W        W51291  33.539  42.040   3.145
86065W        W51292   3.371   5.014   0.370
86066W        W51293  24.144   9.395   2.397
86067W        W51294  27.311  41.074   4.045
86068W        W51295  43.753   9.794   3.144
86069W        W51296  37.355  31.952  14.002
86070W        W51297  34.870   8.801   2.715
86071W        W51298  27.238  14.763  11.487
86072W        W51299  34.542  43.513  14.410
86073W        W51300  38.103   0.348  13.027
86074W        W51301  21.501   1.399   2.362
86075W        W51302  37.092   1.252   0.166
86076W        W51303  10.748  31.432  10.646
86077W        W51304  12.745  42.951   3.613
86078W        W51305  38.836   7.350   1.339
86079W        W51306  31.928  18.953   2.870
86080W        W51307   5.556  24.809  13.439
86081W        W51308   4.722   1.364   1.677
86082W        W51309  39.366   5.470  12.160
86083W        W51310   6.630  44.737   1.169
86084W        W51311  34.693  10.695   2.594
86085W        W51312  23.123   1.977   1.639
86086W        W51313  22.681  14.815  13.051
86087W        W51314  17.454   8.366  10.904
86088W        W51315  39.494  14.911  10.917
86089W        W51316  15.874  44.071   1.133
86090W        W51317   9.405  43.999  13.584
86091W        W51318  29.813  24.566  14.490
86092W        W51319  23.055  15.014   2.789
86093W        W51320  23.164  43.102  14.500
86094W        W51321  32.876  39.453   1.919
86095W        W51322  10.917  24.908  13.827
86096W        W51323  33.048  40.293   0.833
86097W        W51324  35.674   0.515   2.317
86098W        W51325  29.928  42.672  11.257
86099W        W51326   2.359  27.571  11.711
86100W        W51327  44.427  36.823  12.604
86101W        W51328  31.080  20.078  13.544
86102W        W51329  33.542   6.145   1.732
86103W        W51330  10.396  22.565   4.581
86104W        W51331  10.159  21.189  10.647
86105W        W51332  34.557  36.392   3.719
86106W        W51333  35.280  17.743   2.579
86107W        W51334  28.533   0.293  11.954
86108W        W51335   4.478   8.198  12.378
86109W        W51336  18.760  14.669   3.773
86110W        W51337  12.237  15.790   4.589
86111W        W51338  31.097  25.265  10.418
86112W        W51339  16.728   5.755  12.798
86113W        W51340  26.248  37.046  13.151
86114W        W51341  40.053  32.545   1.456
86115W        W51342  37.888  36.950   0.132
86116W        W51343   9.817  33.319  12.620
86117W        W51344  29.455  26.968  13.364
86118W        W51345  22.451  37.421  13.659
86119W        W51346   5.312  14.345  13.894
86120W        W51347   6.181  22.924  12.956
86121W        W51348  25.257  25.736   4.596
86122W        W51349   9.214  11.167  12.920
86123W        W51350  30.526  23.453   1.273
86124W        W51351  31.439  17.139   2.726
86125W        W51352  41.711  13.462  11.074
86126W        W51353  32.407  38.644   1.405
86127W        W51354  21.080   5.121  13.398
86128W        W51355  27.715   5.783  14.955
86129W        W51356  44.341   1.995  12.441
86130W        W51357  32.832  10.828  11.719
86131W        W51358  27.102  24.261  11.700
86132W        W51359   4.200  34.170   0.866
86133W        W51360  42.374   9.381  14.463
86134W        W51361   3.006  19.621   3.040
86135W        W51362  15.805  18.304  11.965
86136W        W51363   8.631  15.080   3.605
86137W        W51364   4.650  30.104   4.924
86138W        W51365  22.651  28.319   3.616
86139W        W51366   0.269  37.478   0.436
86140W        W51367  40.501  10.118  14.925
86141W        W51368  28.448  28.451   4.284
86142W        W51369   4.981   6.260  13.932
86143W        W51370  29.082  29.088   1.106
86144W        W51371  13.293  20.991   0.763
86145W        W51372  16.210  40.676   1.928
86146W        W51373  33.463   4.520  14.844
86147W        W51374  25.649  16.523   4.973
86148W        W51375  32.290  41.066  14.984
86149W        W51376  21.858   3.142  13.478
86150W        W51377   2.935   7.253  10.833
86151W        W51378   2.984  37.520   3.569
86152W        W51379  34.966  15.483  11.617
86153W        W51380   8.657  38.861   4.231
86154W        W51381   4.894  26.932  13.327
86155W        W51382   8.810   2.152   4.647
86156W        W51383  19.552  15.079  14.243
86157W        W51384   5.327  36.803   0.933
86158W        W51385  17.350   8.168   0.428
86159W        W51386  35.604  35.056   3.989
86160W        W51387  17.948   3.934   0.425
86161W        W51388  33.164  42.935   4.975
86162W        W51389  24.523  19.954  13.039
86163W        W51390  16.540   1.686   5.076
86164W        W51391  36.625  30.831  13.095
86165W        W51392  38.482   3.488  12.438
86166W        W51393   8.097  30.543   4.201
86167W        W51394   9.774   6.353  14.064
86168W        W51395  32.415  24.293   3.361
86169W        W51396  25.143   8.405   2.174
86170W        W51397  25.169  34.023  10.631
86171W        W51398  30.177  21.729   0.336
86172W        W51399  41.924  16.617   0.296
86173W        W51400  44.148   4.833   4.182
86174W        W51401  42.466  35.702  12.649
86175W        W51402  26.137  24.038  14.770
86176W        W51403  18.993   9.842   3.095
86177W        W51404  23.730  30.510  12.016
86178W        W51405  40.263  42.529  12.745
86179W        W51406  41.198   8.773  12.091
86180W        W51407   2.055  17.907   9.827
86181W        W51408  38.787  33.431  12.616
86182W        W51409  28.145   9.577   3.876
86183W        W51410  25.439  29.355   1.150
86184W        W51411   0.830  44.392  11.885
86185W        W51412   6.622  13.058   3.209
86186W        W51413  14.186  13.499  11.134
86187W        W51414  23.057  15.548   3.919
86188W        W51415  20.235  29.451  10.973
86189W        W51416   3.760  37.771  12.086
86190W        W51417   2.292  44.231  13.524
86191W        W51418   4.946  33.132  13.069
86192W        W51419  17.782  12.680   0.938
86193W        W51420  22.586   6.624  12.847
86194W        W51421  39.995   6.357   9.819
86195W        W51422  38.025   9.730   2.838
86196W        W51423  34.147  18.717  12.517
86197W        W51424   4.811   1.285  14.903
86198W        W51425  23.601  20.551   2.001
86199W        W51426  20.936   9.149   0.871
86200W        W51427   1.960  20.733   0.323
86201W        W51428  17.583  30.085   3.473
86202W        W51429  10.409   7.766   0.807
86203W        W51430  37.380   5.059   2.036
86204W        W51431   7.333  35.640  14.467
86205W        W51432  35.555  14.825   0.916
86206W        W51433  35.009  13.033  10.577
86207W        W51434  29.005  42.481   4.162
86208W        W51435  30.349   2.881   2.735
86209W        W51436   6.089   5.603  11.522
86210W        W51437  26.644  34.892  11.017
86211W        W51438  29.270  22.490   1.557
86212W        W51439  31.599   0.473  13.842
86213W        W51440  10.437  44.963   3.558
86214W        W51441   4.406  37.838  14.360
86215W        W51442   0.965  39.295   2.831
86216W        W51443  15.128  25.726   3.961
86217W        W51444  41.248  13.445   2.033
86218W        W51445   2.347  27.631  10.736
86219W        W51446  34.497   3.991  12.536
86220W        W51447   2.706  15.256   3.209
86221W        W51448  10.561  39.518  14.371
86222W        W51449  32.417  44.712  11.971
86223W        W51450  11.164   7.215  10.717
86224W        W51451   7.696  23.086   0.486
86225W        W51452  10.088  22.299   1.881
86226W        W51453   0.920   2.923   9.951
86227W        W51454  21.831  29.689   1.169
86228W        W51455   8.651  39.364   4.070
86229W        W51456   1.777  18.989  11.124
86230W        W51457  31.905  38.600   4.073
86231W        W51458   9.829  38.446   2.403
86232W        W51459   9.881   4.419  13.420
86233W        W51460  15.937   0.923   5.050
86234W        W51461  44.987   1.370  12.364
86235W        W51462  42.256  28.495  13.238
86236W        W51463  42.077   4.450  12.047
86237W        W51464   7.749  21.574  11.498
86238W        W51465  15.048  15.514  13.444
86239W        W51466  20.629  16.925   0.396
86240W        W51467  27.780  18.643   1.885
86241W        W51468  21.323  27.456  12.658
86242W        W51469  35.973  15.318  11.478
86243W        W51470  37.253  16.152  14.055
86244W        W51471  29.094  41.958  12.847
86245W        W51472   7.631   7.836  12.990
86246W        W51473  39.355  30.367   0.352
86247W        W51474  29.740  34.907  13.690
86248W        W51475  39.915  37.919  12.050
86249W        W51476  26.106  35.799   0.132
86250W        W51477  27.231  41.090  14.850
86251W        W51478  33.416  41.480   4.141
86252W        W51479  24.128  34.774   0.929
86253W        W51480  44.463  16.376  13.077
86254W        W51481  43.880   9.670  10.358
86255W        W51482  22.456  26.607   1.489
86256W        W51483  28.587  32.007  14.512
86257W        W51484   8.209  44.219  13.605
86258W        W51485  34.519   8.166  14.072
86259W        W51486  13.309  38.299  12.920
86260W        W51487  23.544  30.087   3.979
86261W        W51488  15.232   5.698  10.749
86262W        W51489   9.899  19.540  13.215
86263W        W51490  40.862  37.326   0.276
86264W        W51491  43.480   7.836   0.396
86265W        W51492   7.815  35.871  13.245
86266W        W51493  24.215  31.601   4.571
86267W        W51494   2.517  34.395   3.875
86268W        W51495  39.987  37.133   3.812
86269W        W51496  40.304  24.575  11.582
86270W        W51497  42.255   6.521  11.964
86271W        W51498  36.963  16.432   3.561
86272W        W51499  25.326  34.761  13.052
86273W        W51500  10.931  25.928   0.304
86274W        W51501  33.116  38.785   3.765
86275W        W51502   3.280  16.554  13.799
86276W        W51503  11.585   2.975   1.239
86277W        W51504   1.073  34.351  11.601
86278W        W51505  42.346  22.197   2.287
86279W        W51506  18.678  20.716  12.838
86280W        W51507  19.204  39.274   1.230
86281W        W51508  29.676   2.923   4.139
86282W        W51509  13.434  26.197   2.464
86283W        W51510  41.310  29.934   1.890
86284W        W51511  16.853  42.023   0.988
86285W        W51512  39.410  27.922  10.752
86286W        W51513  21.826  21.600  13.442
86287W        W51514  13.187  30.419  11.578
86288W        W51515  25.922  37.715   3.046
86289W        W51516  11.866  16.854  11.965
86290W        W51517   9.257  26.689  13.425
86291W        W51518   0.938  17.229  14.839
86292W        W51519  25.640   5.774   3.213
86293W        W51520  29.650  39.084   1.942
86294W        W51521  22.562   0.463   1.283
86295W        W51522   8.691  23.710   2.675
86296W        W51523   0.052  28.278   4.922
86297W        W51524  40.953   2.381  14.209
86298W        W51525  40.467   7.745  11.923
86299W        W51526  31.491  36.160   4.106
86300W        W51527  43.164  24.186   5.092
86301W        W51528  16.652  36.563  12.396
86302W        W51529  13.111  21.686  12.437
86303W        W51530  41.956   7.183  10.666
86304W        W51531  32.188  12.267  11.126
86305W        W51532  27.117  26.204   1.009
86306W        W51533  23.400  44.773   0.413
86307W        W51534  24.507  14.331   3.353
86308W        W51535  16.975   6.173  12.586
86309W        W51536  41.915  42.030   0.224
86310W        W51537  42.244  42.991   5.055
86311W        W51538  17.472  19.018  13.356
86312W        W51539  26.524  21.725   3.685
86313W        W51540  23.039  27.234   3.934
86314W        W51541  13.817  21.497   2.730
86315W        W51542  12.697  39.142  11.581
86316W        W51543  31.053  22.701   4.536
86317W        W51544  25.878  19.113  13.461
86318W        W51545  29.474  33.198   4.604
86319W        W51546  12.937  40.390   1.392
86320W        W51547  37.034   1.137   2.734
86321W        W51548   8.137  18.033   1.285
86322W        W51549  17.134   8.934   2.733
86323W        W51550  14.237  41.500   2.312
86324W        W51551   7.446  20.282   1.863
86325W        W51552  32.528   1.331  12.108
86326W        W51553  19.173  30.417   2.772
86327W        W51554  37.644   7.120  11.212
86328W        W51555  16.868  31.062  12.419
86329W        W51556  11.587   3.922  14.538
86330W        W51557  18.655  42.833  14.036
86331W        W51558   8.638  35.058   3.379
86332W        W51559   4.906  23.700  11.216
86333W        W51560  13.411  17.093   0.159
86334W        W51561  30.182  44.890  12.092
86335W        W51562  10.566  44.448  10.110
86336W        W51563  15.230  40.309  10.705
86337W        W51564  43.893   1.465  10.728
86338W        W51565   6.893   7.775   0.076
86339W        W51566  21.538  33.587   5.032
86340W        W51567  11.705   4.315  13.797
86341W        W51568  37.836  38.457  11.983
86342W        W51569  31.061  40.811  11.358
86343W        W51570   1.758  32.451   4.855
86344W        W51571  23.133   8.346   4.587
86345W        W51572  25.879  39.475  12.333
86346W        W51573  28.356  12.022  14.939
86347W        W51574  22.028  25.643   1.935
86348W        W51575  37.822  22.086   3.644
86349W        W51576  16.682   7.527  10.909
86350W        W51577   2.936  36.868   0.847
86351W        W51578  41.159  33.663   3.747
86352W        W51579   0.496  28.697  12.968
86353W        W51580  26.952  36.445  14.374
86354W        W51581   0.787  29.971   0.005
86355W        W51582  26.132  32.344  11.563
86356W        W51583  13.919  10.215  12.774
86357W        W51584  34.372   4.913  12.448
86358W        W51585  18.087   4.902   2.416
86359W        W51586  27.581  24.803  14.631
86360W        W51587   4.327  35.826   4.606
86361W        W51588  35.117   1.745  13.391
86362W        W51589  37.581  21.139   3.102
86363W        W51590  33.228  19.708   0.895
86364W        W51591  23.615  37.368  11.917
86365W        W51592  16.198   9.964  11.572
86366W        W51593  18.273  41.590   3.164
86367W        W51594  27.752  41.487  11.545
86368W        W51595   6.949  12.298   2.858
86369W        W51596  42.787  12.894   3.441
86370W        W51597  36.829  22.165   3.462
86371W        W51598  10.328  27.035  13.382
86372W        W51599  43.325   0.353   0.946
86373W        W51600  31.701  26.112   1.338
86374W        W51601  31.332  39.511   1.920
86375W        W51602   1.173  42.490   2.300
86376W        W51603  36.475   4.849  11.456
86377W        W51604  11.440   7.111  13.954
86378W        W51605  21.748  35.567   1.200
86379W        W51606  24.073  42.917  11.762
86380W        W51607  34.918  12.592  12.765
86381W        W51608   0.044  40.250  12.533
86382W        W51609  14.044  39.211   3.575
86383W        W51610   0.170  40.043   3.754
86384W        W51611  28.093  42.913   4.610
86385W        W51612   0.957   2.419  12.404
86386W        W51613  41.237  19.515   1.171
86387W        W51614  29.940  33.051  14.209
86388W        W51615  10.386  20.206  12.224
86389W        W51616  37.360  14.204   0.636
86390W        W51617  40.441  29.531   1.723
86391W        W51618  10.818  39.872   2.243
86392W        W51619   2.678  40.781  12.778
86393W        W51620  36.993  15.143   3.481
86394W        W51621  22.857  30.493  14.786
86395W        W51622  29.292   7.230   1.967
86396W        W51623  36.014  17.767   2.248
86397W        W51624  17.506  27.659  12.842
86398W        W51625  30.932  14.699   3.679
86399W        W51626  12.282   2.141  13.414
86400W        W51627  32.742  40.915   4.994
86401W        W51628  14.169   3.620   4.129
86402W        W51629  38.072   8.191  13.122
86403W        W51630  40.961  25.469  12.499
86404W        W51631  37.723  38.787   2.964
86405W        W51632   1.955  43.295  14.160
86406W        W51633  36.453  15.514  12.954
86407W        W51634  35.580  41.289   2.621
86408W        W51635  29.162  10.716  11.493
86409W        W51636  14.770  20.708  12.569
86410W        W51637  21.282  36.951  14.965
86411W        W51638  20.669  29.276   2.680
86412W        W51639  15.943   6.665  11.251
86413W        W51640  30.470  37.524  12.596
86414W        W51641   8.660  20.684   1.487
86415W        W51642  32.974   0.988   0.319
86416W        W51643  30.482  29.383   0.760
86417W        W51644  36.341  12.902  12.515
86418W        W51645  38.534  36.633   4.041
86419W        W51646  16.349   6.943  12.516
86420W        W51647  25.559  33.943   3.762
86421W        W51648  18.609  35.218  14.113
86422W        W51649  25.618  17.656  13.518
86423W        W51650   7.609  19.635  12.969
86424W        W51651  39.240  32.090   3.917
86425W        W51652  29.716  13.893   0.493
86426W        W51653  19.921  18.369   9.979
86427W        W51654  33.972   0.392  10.870
86428W        W51655   2.217   0.327   0.634
86429W        W51656  28.036   1.457   1.293
86430W        W51657  24.540  39.333  10.780
86431W        W51658   0.640  11.426   2.710
86432W        W51659   1.473  35.726   2.299
86433W        W51660  39.135  27.413   5.060
86434W        W51661  22.494  11.103   1.090
86435W        W51662  42.392  40.553   3.215
86436W        W51663  39.506  18.523   0.274
86437W        W51664   7.383   5.486  13.738
86438W        W51665  36.358   2.275   4.853
86439W        W51666  41.815  18.903  12.591
86440W        W51667  10.648   4.516  11.234
86441W        W51668  30.503  39.552   0.596
86442W        W51669  25.559  28.683   3.352
86443W        W51670  24.121  37.002   4.179
86444W        W51671  30.426  43.704   0.412
86445W        W51672  38.889   3.923   1.837
86446W        W51673   1.797   9.281   5.017
86447W        W51674  33.908  28.048   3.560
86448W        W51675  39.103  37.851  14.396
86449W        W51676  30.809  40.240   0.080
86450W        W51677  37.973  41.537  11.133
86451W        W51678  25.534  21.785   3.068
86452W        W51679  44.326  17.834   3.249
86453W        W51680  21.604  35.548   4.292
86454W        W51681   3.719   0.225  14.851
86455W        W51682  15.322  41.681  11.097
86456W        W51683  18.769  12.301   1.840
86457W        W51684  10.989  29.627   2.665
86458W        W51685  43.562  38.710  11.580
86459W        W51686  40.888  15.671  14.869
86460W        W51687  44.729  23.005  13.254
86461W        W51688  18.774  21.295   2.989
86462W        W51689  42.259  25.205  13.963
86463W        W51690  27.180  33.484   2.628
86464W        W51691  36.351  29.981   4.589
86465W        W51692  37.797  35.510  14.473
86466W        W51693  34.097  41.924  12.083
86467W        W51694  33.376  26.662   0.923
86468W        W51695  43.357  36.764  14.641
86469W        W51696  16.789   4.256   0.312
86470W        W51697  25.458  16.261  13.817
86471W        W51698  27.604  36.372   4.247
86472W        W51699   5.154   3.820   2.681
86473W        W51700   0.932  38.280  12.172
86474W        W51701  11.796  41.011   1.458
86475W        W51702   4.309  27.065  10.747
86476W        W51703  17.021  22.224  14.390
86477W        W51704   9.468  32.496   1.021
86478W        W51705  22.769  31.891   2.148
86479W        W51706   6.468   8.915  10.907
86480W        W51707   0.435  27.335  14.313
86481W        W51708  15.221   1.698  10.335
86482W        W51709  22.064  11.112  11.204
86483W        W51710  22.643  31.019  13.442
86484W        W51711  15.993  35.082  14.162
86485W        W51712  36.283  14.575   3.739
86486W        W51713  19.772  16.194   4.014
86487W        W51714   0.437  44.784   4.019
86488W        W51715  35.348  28.726   4.328
86489W        W51716  35.288  19.485  13.072
86490W        W51717  27.869   9.723   3.475
86491W        W51718  37.915   5.367  10.328
86492W        W51719  39.287   8.845  12.092
86493W        W51720  38.873  15.545  10.673
86494W        W51721  38.542  12.019   2.871
86495W        W51722  30.471  38.328   4.882
86496W        W51723  39.994  24.125  11.398
86497W        W51724  34.585   5.817  14.711
86498W        W51725  14.746  28.033  11.572
86499W        W51726   3.455  13.858  14.961
86500W        W51727  38.413  31.337   2.905
86501W        W51728  18.708  22.765   0.885
86502W        W51729  38.484  39.976   3.640
86503W        W51730  23.021  36.381  10.376
86504W        W51731  31.352   1.445   0.949
86505W        W51732  26.101  21.248  14.859
86506W        W51733   3.748  15.622   0.708
86507W        W51734  17.701   8.883  10.145
86508W        W51735   1.384   2.443   2.580
86509W        W51736  26.997  12.534  14.016
86510W        W51737  42.750  18.582  13.626
86511W        W51738  34.086  24.162   0.088
86512W        W51739  39.002   1.508   4.614
86513W        W51740  42.407  29.276   2.922
86514W        W51741  36.198  34.830   2.215
86515W        W51742  10.250   0.012  11.539
86516W        W51743  32.713  40.996   1.423
86517W        W51744  26.562  31.437   2.840
86518W        W51745  24.079  42.208  14.445
86519W        W51746  18.672  15.187  12.321
86520W        W51747   6.321  18.500  14.384
86521W        W51748   8.181  24.432  11.185
86522W        W51749  42.251  36.027   3.413
86523W        W51750   0.065  34.870  11.990
86524W        W51751  42.492  27.891  13.994
86525W        W51752  10.945  21.937  13.861
86526W        W51753  13.498  18.711   0.434
86527W        W51754  39.988  29.899  12.168
86528W        W51755  35.887  36.656   4.843
86529W        W51756   3.696  38.791  10.177
86530W        W51757   5.861  34.137  13.912
86531W        W51758  26.479  16.525   4.565
86532W        W51759  34.332   8.834   1.383
86533W        W51760  32.696  18.256  13.530
86534W        W51761   8.932  32.549   0.883
86535W        W51762  41.846  16.019   4.660
86536W        W51763  41.896  24.988  12.557
86537W        W51764   6.474   9.238  12.380
86538W        W51765  24.732  28.220   4.213
86539W        W51766   9.429  40.287  13.042
86540W        W51767  10.673  41.472   0.394
86541W        W51768  44.063  10.126   2.639
86542W        W51769  33.925  35.932   1.701
86543W        W51770  19.361  44.862   3.176
86544W        W51771  17.344  39.173  11.248
86545W        W51772  24.175   9.683  12.536
86546W        W51773  36.221  31.949  10.617
86547W        W51774  17.204  44.772  12.241
86548W        W51775  25.239  28.109  11.575
86549W        W51776  44.304   9.757   2.398
86550W        W51777   9.035  39.884   3.214
86551W        W51778   1.545  16.614   0.940
86552W        W51779  17.802   8.366  11.272
86553W        W51780  11.719   6.238   9.928
86554W        W51781  43.288  37.076  12.921
86555W        W51782  25.878  21.113   4.808
86556W        W51783  38.448  26.635   1.638
86557W        W51784  16.145  25.543   3.371
86558W        W51785   8.762   2.746   2.773
86559W        W51786  34.621  41.384  10.998
86560W        W51787  20.505   5.831   0.747
86561W        W51788  40.004  35.410  11.840
86562W        W51789  17.160  13.167  10.648
86563W        W51790  18.745  14.753  12.588
86564W        W51791  39.972  36.169  11.564
86565W        W51792  25.091  17.613   4.488
86566W        W51793  34.405   8.089   1.707
86567W        W51794   0.127   0.136  12.512
86568W        W51795  31.528   1.896  10.572
86569W        W51796   2.351  24.740   4.918
86570W        W51797   3.843  12.093  14.631
86571W        W51798   7.438   5.000  11.597
86572W        W51799  44.493  41.941   2.559
86573W        W51800  31.940  32.537  12.126
86574W        W51801  14.865  26.599   1.492
86575W        W51802  21.045   7.701   0.904
86576W        W51803   3.753   8.074   0.263
86577W        W51804  12.779   4.195   0.897
86578W        W51805  24.327  42.714  11.360
86579W        W51806  30.657  22.625   1.794
86580W        W51807  13.096  39.268   3.771
86581W        W51808  36.870  25.274   3.101
86582W        W51809  40.914  30.897   1.885
86583W        W51810  38.904   7.706  11.145
86584W        W51811  14.043   6.478   3.706
86585W        W51812  32.416  11.214  11.810
86586W        W51813  33.161  19.605   2.824
86587W        W51814  35.038  15.644   4.928
86588W        W51815   3.224  13.516   1.327
86589W        W51816  32.913  21.664   1.205
86590W        W51817  33.181  23.113   1.228
86591W        W51818  33.059  10.615  11.300
86592W        W51819  37.528  25.630  12.940
86593W        W51820  17.926   9.017  11.930
86594W        W51821  36.648   3.342   3.225
86595W        W51822  35.581  13.873  12.558
86596W        W51823  41.297  39.619   1.731
86597W        W51824  26.630  12.997   4.593
86598W        W51825  20.584   8.822  12.686
86599W        W51826  26.976  35.001  14.776
86600W        W51827   3.821  18.001  11.210
86601W        W51828   3.916  24.109   4.664
86602W        W51829   6.464  44.796  12.729
86603W        W51830   9.408  29.883   1.871
86604W        W51831  30.834  34.443   2.864
86605W        W51832  12.355  25.657   1.835
86606W        W51833  18.158  12.198  10.701
86607W        W51834   3.997  24.668  10.742
86608W        W51835   4.531   1.717  11.454
86609W        W51836  30.951  24.682   2.831
86610W        W51837  33.617  34.371  12.168
86611W        W51838  28.867  33.857  14.551
86612W        W51839  31.620  23.740  11.177
86613W        W51840  21.307   2.707  12.582
86614W        W51841   2.635  18.670   2.127
86615W        W51842   3.940   6.279   1.376
86616W        W51843  42.995  10.759  14.025
86617W        W51844  21.655  28.124   4.517
86618W        W51845  28.039  14.961  14.798
86619W        W51846  13.358  24.647  10.958
86620W        W51847  12.256  13.729   1.440
86621W        W51848  13.888   4.737  12.230
86622W        W51849  41.291  17.313  12.109
86623W        W51850  36.561  34.981   0.524
86624W        W51851  34.338  14.057  14.112
86625W        W51852   3.464   8.873  14.856
86626W        W51853   7.942  30.922   0.095
86627W        W51854  13.437  30.160   0.768
86628W        W51855  38.553  31.089  13.326
86629W        W51856  23.533  32.373   3.568
86630W        W51857   9.708  26.256  12.045
86631W        W51858  23.478   7.891   2.866
86632W        W51859  41.317  38.725  14.388
86633W        W51860  42.683  10.915  14.407
86634W        W51861  33.079  30.676  12.037
86635W        W51862  25.678  27.585   1.069
86636W        W51863  29.722  27.480   0.076
86637W        W51864  32.087  16.723   1.908
86638W        W51865  16.222   6.650  14.885
86639W        W51866  38.251  38.977  12.889
86640W        W51867  19.001   1.953   0.668
86641W        W51868  17.676  30.530  14.214
86642W        W51869  16.752  36.691   4.125
86643W        W51870  39.925  19.800  12.532
86644W        W51871  32.514  39.505   1.430
86645W        W51872  13.305  28.248  11.616
86646W        W51873  15.972  30.141   0.164
86647W        W51874  23.657  41.905   3.778
86648W        W51875  42.714  34.563  10.718
86649W        W51876  22.953  28.659  10.579
86650W        W51877  15.573  32.618   2.787
86651W        W51878  35.172  23.808  14.821
86652W        W51879  36.964  26.996   1.968
86653W        W51880   9.638   2.214  11.460
86654W        W51881   0.918  33.040  13.885
86655W        W51882  14.834  40.678  11.832
86656W        W51883  36.545   4.543  13.895
86657W        W51884  44.556  23.156   3.314
86658W        W51885   4.031  15.610   0.259
86659W        W51886  30.346  16.045  12.965
86660W        W51887   5.942  28.961   0.295
86661W        W51888  19.748  21.205  12.536
86662W        W51889  13.204  37.023   0.425
86663W        W51890  21.059  43.255  10.660
86664W        W51891  15.513  25.572  13.038
86665W        W51892  31.095  41.462   3.611
86666W        W51893  38.025  19.493  13.872
86667W        W51894  33.487   1.752   4.640
86668W        W51895  36.084  44.541  13.859
86669W        W51896  27.008  35.174   4.939
86670W        W51897  40.522  22.009  13.539
86671W        W51898   3.949  34.380   1.801
86672W        W51899  17.222  41.089  13.042
86673W        W51900  32.411  12.044   4.112
86674W        W51901  44.823  35.878   2.441
86675W        W51902  32.353   5.393   3.717
86676W        W51903  17.321   2.730  12.494
86677W        W51904  26.204  42.799  14.327
86678W        W51905  44.942  15.138  12.020
86679W        W51906   0.843  42.142   1.739
86680W        W51907  10.683   8.253   2.388
86681W        W51908  36.554  21.017  13.359
86682W        W51909  10.193  41.320  14.502
86683W        W51910  12.130  22.851   3.884
86684W        W51911   3.803  13.216   1.644
86685W        W51912  20.513  14.665   2.886
86686W        W51913  16.425  12.066   1.274
86687W        W51914  19.951  12.915  12.510
86688W        W51915  24.554   6.437  14.537
86689W        W51916  29.214  35.819  10.717
86690W        W51917  33.141   1.750   0.721
86691W        W51918  44.984  22.275   4.049
86692W        W51919  24.076  34.433   2.427
86693W        W51920  17.546  24.385   0.112
86694W        W51921  25.184  18.659   4.225
86695W        W51922  30.691  37.151   0.222
86696W        W51923  21.594  30.974  14.615
86697W        W51924  27.442  42.719  11.210
86698W        W51925  37.170  40.106   4.850
86699W        W51926   6.612   0.711   5.821
86700W        W51927  43.017  18.105   1.777
86701W        W51928  20.568  37.343   3.376
86702W        W51929  18.174  21.958  13.486
86703W        W51930  26.905  12.759   4.181
86704W        W51931  31.603  10.140  12.157
86705W        W51932  36.405  17.917   3.407
86706W        W51933   6.781   2.272  14.667
86707W        W51934  13.270  34.612  13.977
86708W        W51935  21.627  11.692  12.635
86709W        W51936  10.229   1.118   0.307
86710W        W51937  25.933  11.302   0.617
86711W        W51938  36.814  24.138  13.273
86712W        W51939  22.712  41.304  10.762
86713W        W51940   1.249  23.069   3.653
86714W        W51941  31.204  23.651   5.040
86715W        W51942  43.276  34.935  13.822
86716W        W51943  18.011  27.972   4.922
86717W        W51944  39.593  22.611   2.510
86718W        W51945  18.674  41.803  14.099
86719W        W51946  14.188   9.777  14.833
86720W        W51947   9.249  33.649  14.282
86721W        W51948  24.598  37.962   3.071
86722W        W51949  31.894  39.479  11.958
86723W        W51950  35.075  17.761  13.357
86724W        W51951   2.920  37.764   4.033
86725W        W51952   8.720  14.818   0.775
86726W        W51953   3.292  41.363  11.646
86727W        W51954  34.176  37.063  13.431
86728W        W51955  21.135   6.880  10.668
86729W        W51956   1.313  14.713  10.972
86730W        W51957  17.696  13.122   2.815
86731W        W51958  17.264  29.692  14.893
86732W        W51959  20.665  24.912   0.016
86733W        W51960   7.000  43.489   2.257
86734W        W51961  43.926  40.042   1.895
86735W        W51962  19.805   8.859  10.576
86736W        W51963  15.606   3.371  13.633
86737W        W51964  21.765  24.107  13.052
86738W        W51965  24.457  40.267   4.126
86739W        W51966  18.849  36.787   3.357
86740W        W51967  18.747  39.571   1.312
86741W        W51968  39.155  36.041  13.448
86742W        W51969   0.216  42.988  12.243
86743W        W51970  11.069  35.308   2.387
86744W        W51971  22.703  28.383  13.837
86745W        W51972   5.952  14.755  13.551
86746W        W51973   4.724   6.158  12.139
86747W        W51974  14.020  17.120  14.480
86748W        W51975  17.301   5.449   3.832
86749W        W51976  40.080   8.345   1.935
86750W        W51977  36.551   4.918   2.233
86751W        W51978  12.145  26.727   4.576
86752W        W51979  27.201  40.060  14.650
86753W        W51980  22.611  26.101   4.348
86754W        W51981   7.676  40.265  14.850
86755W        W51982  36.873  40.268   3.863
86756W        W51983  13.268  23.870  13.623
86757W        W51984  39.772   9.290  13.334
86758W        W51985  38.386  10.730  14.389
86759W        W51986  36.467  18.759  10.777
86760W        W51987  43.302   6.478  11.849
86761W        W51988  42.484  27.161   0.640
86762W        W51989  19.107  31.545  13.354
86763W        W51990  15.738  40.634   2.177
86764W        W51991  16.192  43.380  14.210
86765W        W51992  31.514  24.952   1.751
86766W        W51993  14.509  43.440  10.734
86767W        W51994  22.548  21.962  12.391
86768W        W51995  37.912  23.539   3.752
86769W        W51996  42.208   8.850  12.195
86770W        W51997  37.488  37.252   0.497
86771W        W51998  32.477  26.737  13.970
86772W        W51999  12.681  31.338   0.334
86773W        W52000  41.079  29.488   0.590
86774W        W52001   2.898   7.711  14.873
86775W        W52002  17.502  31.972  13.697
86776W        W52003  43.717   6.221   2.259
86777W        W52004  30.532  31.884  10.749
86778W        W52005  27.010  39.464  10.848
86779W        W52006  22.789  36.961  14.257
86780W        W52007  11.442  40.120  11.382
86781W        W52008  20.790  41.883  12.375
86782W        W52009  22.698  23.612  10.331
86783W        W52010   6.010  20.699  11.228
86784W        W52011  23.569  40.952   1.798
86785W        W52012  43.532   7.562   5.592
86786W        W52013  28.175   6.227   3.653
86787W        W52014  38.800  30.700   2.228
86788W        W52015  34.026  20.242   0.783
86789W        W52016  27.912  32.944   0.379
86790W        W52017   5.349  29.393  13.928
86791W        W52018  13.118  27.701  13.452
86792W        W52019  21.733  25.629  13.419
86793W        W52020  42.061   8.861  12.930
86794W        W52021  21.788   8.026   1.304
86795W        W52022  19.718   1.395   2.398
86796W        W52023  23.219   3.874   3.142
86797W        W52024  21.391   4.873  13.010
86798W        W52025   8.116   7.086  13.887
86799W        W52026  36.056  23.984   2.888
86800W        W52027  16.548  36.330  14.877
86801W        W52028  31.524   1.053  14.545
86802W        W52029  40.048  18.639  11.065
86803W        W52030  29.511  40.102   0.770
86804W        W52031  44.902  40.573  14.840
86805W        W52032   1.019  23.625   4.091
86806W        W52033  41.131  28.034   4.557
86807W        W52034  12.083  17.560  12.519
86808W        W52035  19.558  21.107  12.072
86809W        W52036  28.436   4.944   0.989
86810W        W52037   3.367  17.992  14.967
86811W        W52038  24.767  42.381   2.572
86812W        W52039  37.605  27.975   3.215
86813W        W52040  28.046  44.499  14.880
86814W        W52041   8.679   1.364  13.468
86815W        W52042  37.610  44.287  13.324
86816W        W52043   9.295   4.270  10.668
86817W        W52044  14.370   1.838  14.471
86818W        W52045   4.397  37.329  14.378
86819W        W52046  40.937  29.003  13.874
86820W        W52047  41.832  10.358   1.409
86821W        W52048   1.811  16.856   2.009
86822W        W52049  15.720  15.808   1.701
86823W        W52050  12.327  16.213   4.904
86824W        W52051  31.698  39.950   1.319
86825W        W52052  42.083  26.400  11.683
86826W        W52053  19.973   7.311   1.360
86827W        W52054   0.839  16.781   0.085
86828W        W52055  34.573  26.512  12.530
86829W        W52056  33.576  18.063  13.453
86830W        W52057  14.809  41.069  13.756
86831W        W52058  13.197  28.063  10.263
86832W        W52059  21.999  16.324   3.198
86833W        W52060  33.604   0.793   0.747
86834W        W52061  30.227  41.694   0.129
86835W        W52062  39.975  34.128  13.340
86836W        W52063  16.590  25.741   0.407
86837W        W52064   8.986  37.394   1.526
86838W        W52065  10.422  18.687   4.250
86839W        W52066   2.177  28.193  14.998
86840W        W52067   3.105   7.432   0.279
86841W        W52068  12.296  15.301   2.790
86842W        W52069  41.867  33.033   3.307
86843W        W52070   9.217  33.858   4.794
86844W        W52071  34.050  32.176  13.345
86845W        W52072  18.853  11.318   0.807
86846W        W52073   0.481   5.822   3.217
86847W        W52074  37.722  38.222   1.290
86848W        W52075  28.883  26.698  13.391
86849W        W52076  19.163  36.080   2.989
86850W        W52077  21.115   5.655   3.967
86851W        W52078  12.017   1.165  13.486
86852W        W52079  21.485  15.649  12.478
86853W        W52080   2.517   2.242   0.842
86854W        W52081  35.167  16.768   0.844
86855W        W52082   6.397  40.588  10.577
86856W        W52083  10.731  38.427  12.950
86857W        W52084  20.599  23.893   3.903
86858W        W52085  34.545  33.052   4.319
86859W        W52086  40.539  31.037   1.480
86860W        W52087  21.318  28.947  10.179
86861W        W52088  40.825  18.981  12.454
86862W        W52089  37.016   7.388  14.907
86863W        W52090  24.993  12.468  11.649
86864W        W52091   2.600  11.839   2.906
86865W        W52092  35.616  12.727  13.376
86866W        W52093  23.683  20.512  13.407
86867W        W52094  26.970   5.163   4.554
86868W        W52095  30.879  33.756   1.777
86869W        W52096  33.642  16.899   4.029
86870W        W52097  26.160  44.375  12.499
86871W        W52098   1.491   9.366   1.424
86872W        W52099  43.703  26.632  10.603
86873W        W52100  24.979   7.734   1.370
86874W        W52101  38.966  26.278  12.884
86875W        W52102  16.602  27.913  12.617
86876W        W52103  42.668  11.174   1.938
86877W        W52104  43.409   9.867   1.828
86878W        W52105  25.477  23.771  11.905
86879W        W52106  14.704  28.847  11.269
86880W        W52107  32.632  11.894   2.724
86881W        W52108  40.921  44.025   3.756
86882W        W52109  29.168  31.375   4.257
86883W        W52110  19.528  21.713   2.982
86884W        W52111   5.025  16.130   1.190
86885W        W52112  17.558  36.796  13.418
86886W        W52113   1.183  19.147   3.678
86887W        W52114   1.304  11.364   0.780
86888W        W52115   8.829  39.893  10.854
86889W        W52116   7.868  28.530  14.683
86890W        W52117  25.954  16.987  14.438
86891W        W52118  26.547   2.914  14.158
86892W        W52119   0.859   4.621   5.060
86893W        W52120  22.192  24.097  14.006
86894W        W52121   3.757  26.158   3.232
86895W        W52122  32.630  39.126   2.241
86896W        W52123  41.290  23.839   4.416
86897W        W52124  41.807  16.063   2.810
86898W        W52125  22.606  12.738  13.593
86899W        W52126  25.547  12.413  11.642
86900W        W52127  28.911  30.131   3.220
86901W        W52128  10.188   3.106   0.566
86902W        W52129  34.381   3.475  11.252
86903W        W52130   1.897   3.863   0.419
86904W        W52131  34.832   3.293   1.147
86905W        W52132  22.209   4.864   4.353
86906W        W52133  42.872  40.119  10.532
86907W        W52134  11.255  33.795   1.338
86908W        W52135  42.318   8.119   2.464
86909W        W52136  33.605  43.910  10.275
86910W        W52137  35.867  43.737   2.193
86911W        W52138   2.807  42.218   9.802
86912W        W52139  39.076   5.676  13.478
86913W        W52140  42.820  36.168   5.212
86914W        W52141  17.058   9.917   1.472
86915W        W52142   2.704  24.612   1.880
86916W        W52143   7.367   4.282   3.105
86917W        W52144  26.422  41.128  13.918
86918W        W52145  21.405  11.388   2.148
86919W        W52146  11.834  23.420  14.255
86920W        W52147  17.281  29.128  14.753
86921W        W52148  35.689   9.214  12.138
86922W        W52149   2.002   6.246   0.932
86923W        W52150   9.658  32.325   4.175
86924W        W52151  41.762  21.403   3.670
86925W        W52152  14.227  12.598  14.844
86926W        W52153  34.403  41.485  14.548
86927W        W52154  36.123  33.305   3.157
86928W        W52155   0.218  13.785  10.727
86929W        W52156  10.539  44.015  14.221
86930W        W52157  34.617   9.065  12.977
86931W        W52158  21.094  26.215  14.899
86932W        W52159  17.794  18.263  13.747
86933W        W52160  43.442   6.141   2.898
86934W        W52161  37.028   9.728  14.909
86935W        W52162  31.795  24.893  14.338
86936W        W52163  44.313  19.554  12.257
86937W        W52164   8.013  13.116  10.617
86938W        W52165   0.709   9.085  14.457
86939W        W52166  38.720  44.549   3.007
86940W        W52167  41.350   4.842   3.254
86941W        W52168  37.028  41.283   1.943
86942W        W52169  11.364  40.757   1.275
86943W        W52170  32.303   2.459   1.452
86944W        W52171  16.748  40.809   4.056
86945W        W52172  22.523   9.426  13.374
86946W        W52173   7.175  30.571  12.851
86947W        W52174   3.531  36.578   1.448
86948W        W52175   7.366  11.888   2.199
86949W        W52176  37.464  17.751   0.217
86950W        W52177  13.497  31.634   5.105
86951W        W52178   4.707  14.342  14.750
86952W        W52179  40.398  33.840   0.691
86953W        W52180  10.591  20.563   3.754
86954W        W52181  33.594  37.897   2.748
86955W        W52182  14.778  19.725  11.617
86956W        W52183  12.626  21.187   1.896
86957W        W52184  15.073  42.576  14.525
86958W        W52185  43.279  42.075  14.415
86959W        W52186   2.694  41.320   1.250
86960W        W52187  37.953  14.649   4.225
86961W        W52188  19.262  39.512  11.096
86962W        W52189  37.606  21.979  12.157
86963W        W52190  36.095  23.791  11.996
86964W        W52191  14.627  37.834  11.180
86965W        W52192   4.905  16.794   1.779
86966W        W52193   2.197  27.229   1.363
86967W        W52194  12.840  12.250   2.161
86968W        W52195   1.501  34.140  13.752
86969W        W52196  23.140  38.933   4.464
86970W        W52197  39.471  37.319  12.568
86971W        W52198  26.352  25.685   0.778
86972W        W52199   2.460  40.171  11.123
86973W        W52200   7.888  42.100   3.349
86974W        W52201  15.252  20.795  12.340
86975W        W52202   8.172   0.442   2.583
86976W        W52203  39.257  33.210  14.440
86977W        W52204  34.038  28.208  14.805
86978W        W52205  12.148  14.541  14.892
86979W        W52206   0.971  34.294   0.331
86980W        W52207   4.642   4.724   0.446
86981W        W52208   5.730  38.062  14.189
86982W        W52209  42.946  29.634   4.159
86983W        W52210  11.775  24.768  14.557
86984W        W52211  15.672  27.098  11.259
86985W        W52212  30.411  26.929   3.249
86986W        W52213  31.884  19.471   1.285
86987W        W52214  32.975  30.546   0.404
86988W        W52215  40.372  15.398   1.331
86989W        W52216  34.308  11.275   4.481
86990W        W52217  29.479  22.205   1.963
86991W        W52218  23.665  32.332   0.982
86992W        W52219  40.783  40.071   4.400
86993W        W52220  21.351  41.457  11.237
86994W        W52221   4.892  39.296   0.833
86995W        W52222  43.979   7.695   3.838
86996W        W52223  25.013  38.939  11.570
86997W        W52224  19.351  10.723   1.223
86998W        W52225   0.713  43.806   2.260
86999W        W52226  41.582  20.761  14.779
87000W        W52227  37.319  13.193   1.877
87001W        W52228  11.308   5.352   3.258
87002W        W52229  14.013  33.429   0.932
87003W        W52230  36.002  33.037   4.192
87004W        W52231  33.417  28.269   3.578
87005W        W52232  23.132  12.677  10.546
87006W        W52233  31.527  20.564  12.093
87007W        W52234  44.332   2.866   4.254
87008W        W52235  20.325  40.571   0.864
87009W        W52236  42.516  34.883   2.275
87010W        W52237   9.857   6.834   0.370
87011W        W52238   5.397  14.377  12.023
87012W        W52239  39.134  17.939  13.949
87013W        W52240  42.713  30.520  12.658
87014W        W52241  20.226   8.121  12.559
87015W        W52242  29.194  28.125   0.888
87016W        W52243  11.624   5.547   2.457
87017W        W52244  23.549  43.450  14.367
87018W        W52245  27.083   8.738   3.949
87019W        W52246  22.641   9.243   1.733
87020W        W52247  42.956   2.761  12.604
87021W        W52248   6.610  37.541  12.973
87022W        W52249   8.796  38.324  12.580
87023W        W52250   3.004  30.227  12.201
87024W        W52251   1.608  28.674   3.949
87025W        W52252  29.208   5.322  11.694
87026W        W52253  27.526  29.595   3.316
87027W        W52254   4.442  32.517  13.473
87028W        W52255   8.754   5.810  11.022
87029W        W52256  10.244  43.804   1.218
87030W        W52257  42.727  43.055   1.831
87031W        W52258  11.214  11.250   1.498
87032W        W52259   9.818  40.263  13.375
87033W        W52260  28.102   9.368  12.079
87034W        W52261  30.707  24.595   3.281
87035W        W52262  37.715  44.877  14.290
87036W        W52263  14.910  10.556   5.044
87037W        W52264  26.937  31.607   2.537
87038W        W52265  14.853   9.603   4.547
87039W        W52266   7.901   9.123   1.235
87040W        W52267  44.422  14.836  10.691
87041W        W52268  13.417  10.426   0.873
87042W        W52269  42.854  14.359   4.774
87043W        W52270  38.931  41.279  13.008
87044W        W52271  12.764   4.708  11.469
87045W        W52272  30.165   9.151   0.450
87046W        W52273  21.847  31.859  14.440
87047W        W52274   7.462  25.625   1.208
87048W        W52275  43.623  27.535   9.609
87049W        W52276   2.911  37.338  10.126
87050W        W52277  12.270  13.245  10.708
87051W        W52278   8.161  34.889   0.227
87052W        W52279  26.639   7.421   1.458
87053W        W52280  25.155  32.552  11.647
87054W        W52281  10.121  22.008   4.129
87055W        W52282  31.072  20.485   1.355
87056W        W52283  37.337  28.206   4.577
87057W        W52284   2.342  42.723   4.055
87058W        W52285  31.671  23.166  12.906
87059W        W52286   1.463   3.986  12.467
87060W        W52287   4.695   2.822   0.377
87061W        W52288   6.233  34.664   2.676
87062W        W52289  38.285  42.248   2.796
87063W        W52290  22.475  17.385   4.216
87064W        W52291  26.648  17.692   1.205
87065W        W52292  22.048   2.431  11.645
87066W        W52293   2.279  12.645   1.359
87067W        W52294  13.845  26.209  13.090
87068W        W52295  41.561  19.338  11.822
87069W        W52296   7.135  17.191   3.577
87070W        W52297  40.129  44.486  10.303
87071W        W52298   3.970   1.803  11.206
87072W        W52299  33.053  10.004   3.716
87073W        W52300   0.744  20.381  12.907
87074W        W52301  25.011  11.137  14.951
87075W        W52302  20.145   0.754  11.931
87076W        W52303   2.933  19.235   1.226
87077W        W52304   0.430  15.802   1.830
87078W        W52305  14.205  12.622   1.301
87079W        W52306  43.059   3.560   3.176
87080W        W52307  38.857  28.402   1.730
87081W        W52308   5.865  19.204  13.350
87082W        W52309   0.972  32.034   0.262
87083W        W52310  35.309  31.605  13.161
87084W        W52311  19.074  28.610   4.443
87085W        W52312  25.528  24.318  14.041
87086W        W52313  23.007  35.879   0.823
87087W        W52314  22.677  19.496  13.430
87088W        W52315  22.555  10.244   0.003
87089W        W52316  44.739  25.871   2.276
87090W        W52317  26.141  26.029   4.117
87091W        W52318   8.838  24.262  12.230
87092W        W52319  32.287  34.330   9.913
87093W        W52320  12.788   6.251   4.524
87094W        W52321  42.603  32.363  12.978
87095W        W52322  30.634   4.458   1.732
87096W        W52323  15.592  34.321   4.613
87097W        W52324  44.064  26.533  12.547
87098W        W52325  37.425   1.928  11.553
87099W        W52326  42.617   8.934  14.293
87100W        W52327  13.140  36.896  10.756
87101W        W52328   4.902  23.009   3.660
87102W        W52329  37.944  14.541  12.033
87103W        W52330  19.034   7.935  11.173
87104W        W52331  14.147   8.368   1.415
87105W        W52332   4.221   4.834  12.321
87106W        W52333  25.575  10.105   1.746
87107W        W52334  12.388  20.728   1.699
87108W        W52335  33.417   1.988  12.875
87109W        W52336  43.530   4.529  14.781
87110W        W52337  38.430  21.173  13.235
87111W        W52338   6.267  29.530   2.357
87112W        W52339   9.197  35.008   4.066
87113W        W52340  26.417  33.611   2.242
87114W        W52341  30.417   4.704   1.287
87115W        W52342  26.898  38.988  11.061
87116W        W52343  25.050  15.370  13.468
87117W        W52344  11.133   3.775  14.303
87118W        W52345   0.570  41.338  14.334
87119W        W52346  42.897  10.250  12.203
87120W        W52347   9.412  43.562   1.799
87121W        W52348  15.383  22.356  10.465
87122W        W52349  29.988  17.108  10.851
87123W        W52350   8.663   4.280   4.797
87124W        W52351  28.906  24.055   0.755
87125W        W52352   2.431  14.971  11.116
87126W        W52353  14.673  35.530   1.184
87127W        W52354  24.489  35.416   3.690
87128W        W52355  13.794   5.588  12.020
87129W        W52356   2.374   0.855   0.789
87130W        W52357  26.372  37.898   4.122
87131W        W52358  34.428  22.706  12.670
87132W        W52359  12.243  21.969  10.735
87133W        W52360   0.996   5.733   4.633
87134W        W52361  42.736   1.221  14.615
87135W        W52362  12.188  30.854  14.184
87136W        W52363  27.037   6.647   0.737
87137W        W52364  13.177  18.613   4.655
87138W        W52365  26.867   8.343   0.336
87139W        W52366  28.431  40.566  14.088
87140W        W52367  19.662  42.350  14.815
87141W        W52368  18.017  18.678  14.637
87142W        W52369  17.100  15.686  10.765
87143W        W52370   7.375  40.039  11.138
87144W        W52371  42.322  18.728  10.765
87145W        W52372  23.175  34.001   1.594
87146W        W52373  22.088  29.933   2.337
87147W        W52374   0.123  36.312  14.502
87148W        W52375  30.972   2.869  11.649
87149W        W52376  29.516  29.442   1.479
87150W        W52377  16.871  42.322  12.541
87151W        W52378  22.385   2.334  13.840
87152W        W52379  40.497  30.542   1.807
87153W        W52380  13.655  15.130  13.346
87154W        W52381  27.034  23.054   4.269
87155W        W52382  41.056  10.038  11.172
87156W        W52383  37.099  20.422  11.603
87157W        W52384   7.703   0.870   0.484
87158W        W52385   3.991   1.789   2.220
87159W        W52386   8.843  34.146   2.226
87160W        W52387  36.832  27.577   3.235
87161W        W52388  27.339  12.321  14.965
87162W        W52389  10.425   2.438   0.761
87163W        W52390  37.890   8.867  11.901
87164W        W52391  27.117  11.822  14.987
87165W        W52392  41.486  41.789   2.303
87166W        W52393  44.511  33.397  11.186
87167W        W52394  21.036   9.117  11.976
87168W        W52395  40.491  12.733  14.779
87169W        W52396  12.155  44.577  10.888
87170W        W52397  34.345  26.480   4.154
87171W        W52398  30.754  32.541   2.726
87172W        W52399  30.112  10.180   0.378
87173W        W52400  36.926   5.480   4.575
87174W        W52401  17.185  21.274   4.437
87175W        W52402   7.173   9.928  10.703
87176W        W52403   8.869  28.627  11.643
87177W        W52404  11.854  40.868   0.260
87178W        W52405  31.410  23.735   2.592
87179W        W52406  17.092  22.174  11.808
87180W        W52407  34.840  35.518   3.723
87181W        W52408  24.741  33.943  11.541
87182W        W52409   3.430  20.221  11.925
87183W        W52410  40.084   6.423  14.547
87184W        W52411  25.219  38.776  11.132
87185W        W52412  27.181  42.630  14.028
87186W        W52413  43.881  42.700  12.418
87187W        W52414  25.705  19.548   5.005
87188W        W52415  41.411   4.262   1.536
87189W        W52416   9.136  13.555   3.282
87190W        W52417   9.912  34.920  14.049
87191W        W52418  26.097  20.039   3.170
87192W        W52419  40.345  25.319   2.328
87193W        W52420  23.060  18.981  10.667
87194W        W52421  26.508  14.816  13.208
87195W        W52422   6.165  20.907  10.777
87196W        W52423  12.706  36.295   3.121
87197W        W52424  11.251  28.467   1.691
87198W        W52425   8.632  37.418  12.090
87199W        W52426  29.067   9.749   0.687
87200W        W52427  13.849  16.290  12.473
87201W        W52428  41.981  31.861   1.757
87202W        W52429  19.854  14.788  13.882
87203W        W52430  17.083   9.369  13.987
87204W        W52431   9.850  26.066  13.885
87205W        W52432  30.950  44.376  14.435
87206W        W52433  10.757  26.451   0.879
87207W        W52434  34.961   4.079  12.175
87208W        W52435   6.432  21.138  12.519
87209W        W52436  22.867   8.859  11.219
87210W        W52437  20.169   5.969   1.161
87211W        W52438  16.284   2.190   4.889
87212W        W52439  43.424  42.597  11.138
87213W        W52440  17.148   9.050   0.186
87214W        W52441  41.623  34.650  12.458
87215W        W52442  11.507  43.334  13.938
87216W        W52443  34.226   7.177   4.216
87217W        W52444  12.327   6.700  14.023
87218W        W52445  28.414  35.498  10.684
87219W        W52446  40.540  32.659   0.531
87220W        W52447  38.828   6.577  13.506
87221W        W52448  15.615  16.015   0.326
87222W        W52449  23.086  28.826   4.385
87223W        W52450  38.280   9.223   1.717
87224W        W52451   3.936   4.391  12.122
87225W        W52452  21.503   6.315  11.098
87226W        W52453  27.947  33.945   5.058
87227W        W52454  36.360   2.422   2.755
87228W        W52455  43.588  35.907   3.814
87229W        W52456   3.818  11.156  13.473
87230W        W52457  13.409  32.597  14.084
87231W        W52458  34.382  32.903   4.868
87232W        W52459  34.932  22.384  14.358
87233W        W52460  41.848  20.640  10.745
87234W        W52461  25.658   7.822  13.796
87235W        W52462  26.252   1.370  10.289
87236W        W52463  26.610  26.332  13.569
87237W        W52464  17.622  36.262  12.012
87238W        W52465  22.242  34.488   1.777
87239W        W52466  14.961  23.628   0.845
87240W        W52467   0.251   5.497   2.129
87241W        W52468   8.782   4.973   2.387
87242W        W52469   6.366  19.153   3.991
87243W        W52470   0.523  32.245   2.183
87244W        W52471  12.091  17.327   2.215
87245W        W52472  32.076  28.164  10.396
87246W        W52473   8.211  29.496  14.374
87247W        W52474   2.370  11.074  10.715
87248W        W52475  10.936  18.705   4.069
87249W        W52476   7.801   5.165  11.979
87250W        W52477  36.486  26.458   0.835
87251W        W52478  32.567  41.651  12.026
87252W        W52479  22.678  41.890   2.950
87253W        W52480  26.694  27.487   4.693
87254W        W52481  16.251  18.646   2.167
87255W        W52482  34.976  24.676   0.420
87256W        W52483  42.908   1.796  11.374
87257W        W52484  22.697  20.730   4.209
87258W        W52485   4.182   3.692  13.014
87259W        W52486  35.655  36.847   2.270
87260W        W52487   3.569   1.036   4.663
87261W        W52488  21.229  12.241   1.699
87262W        W52489  10.804  19.948   4.440
87263W        W52490  35.340  10.525  13.113
87264W        W52491  34.582   7.423   4.513
87265W        W52492  35.526   1.209  10.774
87266W        W52493  13.777  34.113   1.825
87267W        W52494   5.013  19.234  12.090
87268W        W52495  28.637  18.097  12.943
87269W        W52496  11.479  38.122  12.168
87270W        W52497  14.868   9.835   4.101
87271W        W52498   9.736  14.698   2.718
87272W        W52499  19.714  40.337   4.401
87273W        W52500  30.692  26.523   3.101
87274W        W52501  18.468  31.121   3.143
87275W        W52502  43.472  25.675   3.835
87276W        W52503   4.771  30.165   0.958
87277W        W52504  43.363  28.511   1.956
87278W        W52505  14.480  10.828  10.490
87279W        W52506  44.411  43.813  10.152
87280W        W52507  12.597  30.355  10.350
87281W        W52508  17.256   0.935   2.710
87282W        W52509   9.634  43.110   1.446
87283W        W52510  34.287  18.671   0.538
87284W        W52511   0.687  29.970   2.173
87285W        W52512  32.026   1.873   3.132
87286W        W52513  13.855  24.271  11.954
87287W        W52514  37.902   4.422   2.299
87288W        W52515  42.386  40.304  12.044
87289W        W52516   1.480  17.847   0.300
87290W        W52517  31.902  34.378   0.743
87291W        W52518   9.691   5.430  13.777
87292W        W52519  31.681  20.587   2.179
87293W        W52520  30.348  19.950  14.315
87294W        W52521  37.408   5.191  11.565
87295W        W52522   4.194   7.606   3.837
87296W        W52523   7.638  25.750  13.990
87297W        W52524  33.603  23.057  12.250
87298W        W52525  25.602  29.354  12.183
87299W        W52526  34.366  32.183  10.776
87300W        W52527  23.740  24.984  10.628
87301W        W52528  15.114  28.036   0.712
87302W        W52529  16.355  13.590  12.083
87303W        W52530  30.318  27.522   0.165
87304W        W52531  23.045   5.148  12.504
87305W        W52532  42.977  22.578  10.734
87306W        W52533  42.870   3.926   0.956
87307W        W52534   4.447   2.330   2.819
87308W        W52535  29.715  36.503  10.313
87309W        W52536   2.834   7.036   4.455
87310W        W52537  44.598  35.636   0.668
87311W        W52538   4.853  42.197   4.920
87312W        W52539  21.805  25.256  10.755
87313W        W52540  43.598   1.657  13.943
87314W        W52541  25.611  21.763   1.722
87315W        W52542  22.588  28.696   2.222
87316W        W52543  18.151  15.778   2.344
87317W        W52544  26.211  21.997  12.006
87318W        W52545  42.668   1.285   3.319
87319W        W52546  39.926  21.801  14.456
87320W        W52547  35.312  38.227   4.132
87321W        W52548  34.380   1.455  12.413
87322W        W52549  10.341  28.046   1.420
87323W        W52550   2.948  34.147   1.825
87324W        W52551  29.235  22.746   2.754
87325W        W52552  25.490  19.704   3.772
87326W        W52553   2.804  24.227   4.528
87327W        W52554   4.830  10.148  10.650
87328W        W52555  44.070  32.508  13.384
87329W        W52556  10.573  23.743  10.991
87330W        W52557   9.842  43.596   1.449
87331W        W52558   9.696  16.489   3.664
87332W        W52559  39.510  22.650  13.070
87333W        W52560  34.501  20.474  14.867
87334W        W52561  42.339  34.610   3.374
87335W        W52562  39.828   8.294  12.464
87336W        W52563   7.100  16.193   0.304
87337W        W52564   7.635  25.741  12.966
87338W        W52565  37.942  27.867  11.144
87339W        W52566  14.068   0.724  14.748
87340W        W52567   9.972   9.655   0.913
87341W        W52568  33.535  38.926  11.237
87342W        W52569   3.681  36.031  12.021
87343W        W52570  24.068  30.693  11.650
87344W        W52571  20.652   0.299   3.366
87345W        W52572  22.537   5.180  12.456
87346W        W52573  18.405  38.601  11.964
87347W        W52574  10.845  38.448  14.925
87348W        W52575  19.605  41.756   1.866
87349W        W52576  44.104  25.686   0.228
87350W        W52577  11.242  14.654   1.720
87351W        W52578  42.397  11.332   0.649
87352W        W52579   2.432  18.248   1.874
87353W        W52580  40.936  31.497  13.932
87354W        W52581   3.800   5.139  11.100
87355W        W52582  33.683  13.056  10.783
87356W        W52583   6.709  35.039   4.379
87357W        W52584  24.739   8.154   1.165
87358W        W52585  44.531  43.887   0.244
87359W        W52586   4.960  25.087   1.738
87360W        W52587  29.106  17.685   4.905
87361W        W52588  21.269  15.838  12.034
87362W        W52589   7.433   0.538   2.553
87363W        W52590  15.658  28.482  11.535
87364W        W52591  29.596  37.084   1.428
87365W        W52592   8.046   0.114   4.099
87366W        W52593  38.379  43.329   4.303
87367W        W52594  36.182  13.230   4.182
87368W        W52595   9.913   3.652   2.702
87369W        W52596  14.715  39.977  14.970
87370W        W52597   6.419  24.452  13.851
87371W        W52598  24.480  24.935   0.924
87372W        W52599  29.695   1.261  10.686
87373W        W52600  34.953  33.975   4.751
87374W        W52601   5.960  24.639   1.497
87375W        W52602   0.997   8.310   2.111
87376W        W52603  21.605   7.109  14.046
87377W        W52604  14.245   4.901   1.883
87378W        W52605  36.850   2.506  13.516
87379W        W52606  44.948  29.577   1.724
87380W        W52607  16.932   0.876   2.305
87381W        W52608  23.891  16.674  11.560
87382W        W52609  43.748  44.992   0.048
87383W        W52610  33.980  24.111   3.191
87384W        W52611  35.478  40.025  10.580
87385W        W52612   1.394  41.600   2.242
87386W        W52613  25.090  12.876   4.908
87387W        W52614   0.068  43.458   4.065
87388W        W52615  18.333  16.022  11.227
87389W        W52616   0.820  40.650   2.812
87390W        W52617  13.745  29.717  13.906
87391W        W52618   7.069   6.778  14.306
87392W        W52619  44.734  17.513  12.395
87393W        W52620  30.845  15.214  12.969
87394W        W52621   4.015  24.050  13.907
87395W        W52622  40.955   7.145   2.114
87396W        W52623  42.151   1.316   3.382
87397W        W52624  42.141   7.931  12.102
87398W        W52625  34.020  25.002   0.689
87399W        W52626  22.234  18.983  14.160
87400W        W52627  16.014  14.652  13.897
87401W        W52628   2.526  41.426  10.189
87402W        W52629  28.139  15.668   0.313
87403W        W52630  17.689  41.050  11.171
87404W        W52631   1.909  38.554  13.558
87405W        W52632  44.506  31.871  11.123
87406W        W52633  20.285   1.873   0.434
87407W        W52634  38.427   1.228   2.066
87408W        W52635  41.976  31.017   1.743
87409W        W52636  21.714   7.177  14.935
87410W        W52637   5.768  36.826  14.484
87411W        W52638  12.172  32.692   2.378
87412W        W52639  41.220  26.102  11.618
87413W        W52640  29.548  22.230  14.956
87414W        W52641   1.841  18.079  12.582
87415W        W52642  30.356  20.561   3.182
87416W        W52643  31.435  18.168   4.792
87417W        W52644  39.574  18.759  11.249
87418W        W52645  16.915   9.137  13.526
87419W        W52646  40.270   9.292  10.362
87420W        W52647  34.461  27.058   4.402
87421W        W52648  30.553  28.472   0.334
87422W        W52649  16.945  40.872  12.624
87423W        W52650  12.166  10.054  14.821
87424W        W52651   9.770  37.820  10.601
87425W        W52652  39.427  21.576   3.479
87426W        W52653   6.803  41.449  10.746
87427W        W52654   4.152  27.019  12.981
87428W        W52655   0.648  25.636   0.214
87429W        W52656  33.495  10.784  11.049
87430W        W52657  23.505  33.132  13.553
87431W        W52658  27.219  29.047  12.052
87432W        W52659   9.349  11.847  13.942
87433W        W52660  14.789  13.167  14.287
87434W        W52661  43.383  39.721  12.532
87435W        W52662  36.353  38.437  11.956
87436W        W52663  36.504  32.189  12.906
87437W        W52664  20.817   1.388  10.922
87438W        W52665  29.112  11.884  13.959
87439W        W52666  39.360  33.450   1.843
87440W        W52667  26.217  34.444   0.817
87441W        W52668  17.129  32.817  12.688
87442W        W52669  23.427  37.497  13.297
87443W        W52670  10.809   6.681  14.920
87444W        W52671  17.275  38.744  13.970
87445W        W52672   1.936  15.602  14.326
87446W        W52673  31.561   0.348  11.765
87447W        W52674  44.797  38.047  10.688
87448W        W52675  41.461  20.350  11.644
87449W        W52676   8.299  25.949   4.173
87450W        W52677   8.860   3.313  12.378
87451W        W52678  16.143  34.806  13.254
87452W        W52679  22.205   8.630   3.673
87453W        W52680   4.359  14.764   1.435
87454W        W52681  39.743  25.035   4.507
87455W        W52682  39.046  24.050  13.325
87456W        W52683  14.725  38.008   2.303
87457W        W52684   6.651  21.119  14.870
87458W        W52685   6.335  11.211   2.410
87459W        W52686  26.193   7.166  11.691
87460W        W52687   5.202  17.315  10.588
87461W        W52688   6.270  20.783  14.461
87462W        W52689   9.308  20.752  14.171
87463W        W52690   3.823   1.079   1.252
87464W        W52691  28.500  26.166  11.126
87465W        W52692  35.578   5.939  14.401
87466W        W52693   2.427  41.835   0.509
87467W        W52694  16.027  42.980  14.530
87468W        W52695  23.681  21.150   0.552
87469W        W52696  26.567  17.145   3.111
87470W        W52697  33.883   4.286  13.016
87471W        W52698  29.431  29.550  11.942
87472W        W52699  36.840  31.517   4.102
87473W        W52700   2.973   0.920  14.650
87474W        W52701  16.768   0.169   0.035
87475W        W52702  12.762  25.764   0.394
87476W        W52703  12.982  23.220  11.266
87477W        W52704   5.027  39.725  13.434
87478W        W52705  10.945  33.546  13.319
87479W        W52706  16.141  37.681   0.776
87480W        W52707  13.758  44.004  13.357
87481W        W52708  43.827  38.349  12.908
87482W        W52709  29.890  31.121   0.640
87483W        W52710   7.942  40.477   2.639
87484W        W52711  26.400  33.861   0.981
87485W        W52712  23.216  32.882   2.296
87486W        W52713   9.794  43.311   4.262
87487W        W52714   0.987  39.657  13.915
87488W        W52715  36.318  23.348  11.420
87489W        W52716  15.576  41.561   0.885
87490W        W52717  26.544  21.718   1.712
87491W        W52718  39.698  35.658   4.117
87492W        W52719  29.406  28.594  14.802
87493W        W52720  28.044   3.050   1.432
87494W        W52721  20.749  23.971  13.816
87495W        W52722  42.083  37.224   1.229
87496W        W52723   0.571  29.452  13.451
87497W        W52724  15.374  40.716   3.410
87498W        W52725  28.682   1.846  12.445
87499W        W52726  33.486  34.639  14.956
87500W        W52727  36.007  43.216   0.346
87501W        W52728  13.930  31.428   2.477
87502W        W52729   8.103  17.658   3.030
87503W        W52730  27.714  42.668   2.096
87504W        W52731  30.092  24.774  13.040
87505W        W52732  13.487  21.476   1.453
87506W        W52733  14.122   1.293  12.531
87507W        W52734  36.483  17.362   1.437
87508W        W52735  19.367   7.863  10.774
87509W        W52736  24.267  18.121   0.458
87510W        W52737  40.232  22.670   2.818
87511W        W52738  38.827  26.851   4.289
87512W        W52739  15.109  43.014   4.225
87513W        W52740  16.790  33.484  13.339
87514W        W52741   4.662  17.696  12.017
87515W        W52742  17.522  17.674   1.901
87516W        W52743   3.851   6.198   3.403
87517W        W52744  12.593  25.696  10.791
87518W        W52745   5.683  23.889   2.233
87519W        W52746   5.961   5.356  12.698
87520W        W52747  44.313  11.105   2.009
87521W        W52748  31.149  28.332  13.820
87522W        W52749  29.950  28.516  12.036
87523W        W52750  25.629  35.403  14.971
87524W        W52751  40.803  44.258   0.712
87525W        W52752  10.967  26.756  12.025
87526W        W52753  15.137  29.525  12.839
87527W        W52754  16.378  28.598  12.549
87528W        W52755   5.839  15.163  14.367
87529W        W52756  28.146  30.398  11.960
87530W        W52757  11.782   2.499   2.355
87531W        W52758  11.561  44.824   1.284
87532W        W52759  37.960  29.665   4.872
87533W        W52760  36.506  10.565   2.768
87534W        W52761  32.998  41.988  13.622
87535W        W52762  43.960  41.915  11.187
87536W        W52763   4.777  11.650   1.410
87537W        W52764  34.623  27.920  12.316
87538W        W52765  30.686   3.274   0.324
87539W        W52766   2.454  36.433   3.719
87540W        W52767  13.109  29.146  12.524
87541W        W52768  19.133  14.133   1.662
87542W        W52769  22.171  27.653  12.086
87543W        W52770   7.065   9.839  14.438
87544W        W52771   6.315   6.578  11.584
87545W        W52772  20.089  10.378   4.646
87546W        W52773   4.439  12.091  11.189
87547W        W52774  18.677   9.092   3.131
87548W        W52775  24.700  29.489  11.618
87549W        W52776  10.969  19.777   3.570
87550W        W52777  32.034   9.930  11.983
87551W        W52778   5.169   8.408   3.641
87552W        W52779  24.192   6.673  11.591
87553W        W52780  21.075  43.715   1.617
87554W        W52781  37.090  34.329  13.912
87555W        W52782  36.339  25.508   1.443
87556W        W52783   6.181  20.842  13.931
87557W        W52784  32.652  16.576   5.456
87558W        W52785  11.073  23.630  10.810
87559W        W52786  34.459  41.074  14.094
87560W        W52787  31.322  11.875  10.284
87561W        W52788  20.352   6.844  13.402
87562W        W52789  20.736  33.399  13.857
87563W        W52790  22.151   7.961  14.961
87564W        W52791  41.313   9.716  14.696
87565W        W52792  22.140  13.655   3.516
87566W        W52793   4.017  19.467  14.653
87567W        W52794  18.657  33.372   2.219
87568W        W52795  21.622  10.214  12.426
87569W        W52796  21.208  39.994  14.270
87570W        W52797  39.159  13.775  10.266
87571W        W52798   2.450  34.013   3.040
87572W        W52799  31.041  11.801   0.154
87573W        W52800   3.843  17.822   1.302
87574W        W52801   4.745  20.329  14.988
87575W        W52802  23.509  21.279   0.058
87576W        W52803  18.122   1.823  14.409
87577W        W52804   1.035  38.149  14.487
87578W        W52805   0.012  11.327  12.840
87579W        W52806  32.582  37.272  13.501
87580W        W52807  36.309  43.421   3.088
87581W        W52808  14.721  31.111   3.089
87582W        W52809  44.450  26.517  13.382
87583W        W52810  29.733  44.330  13.135
87584W        W52811  30.374   0.151  12.870
87585W        W52812  17.135  41.127   1.865
87586W        W52813   5.376  38.465   0.910
87587W        W52814  15.359   1.120  12.989
87588W        W52815  32.869  33.393  14.184
87589W        W52816  33.070   3.754   4.491
87590W        W52817  27.052  35.941  13.249
87591W        W52818  23.263  37.666   0.370
87592W        W52819  12.508  26.958   1.882
87593W        W52820  25.732  18.734  14.941
87594W        W52821   3.736  31.390   2.673
87595W        W52822  21.622  28.668  11.419
87596W        W52823  18.634  19.127  11.641
87597W        W52824   1.340   8.671  10.592
87598W        W52825  16.238   3.019  13.478
87599W        W52826  15.838   6.968  12.760
87600W        W52827  17.773  33.337  14.741
87601W        W52828  10.548   2.423   4.511
87602W        W52829  26.527  14.170  11.716
87603W        W52830  18.947   5.572   0.495
87604W        W52831   6.521  11.150  10.868
87605W        W52832  16.071  28.907  14.580
87606W        W52833  41.092  37.502   1.420
87607W        W52834  28.415   7.239   4.946
87608W        W52835  25.043  31.963  11.091
87609W        W52836  18.190  29.568   0.974
87610W        W52837   7.407  25.153  11.056
87611W        W52838  17.000  15.701  12.994
87612W        W52839  17.140  25.089   0.999
87613W        W52840  16.373  37.875  12.605
87614W        W52841   5.649  15.138   3.255
87615W        W52842  29.616   1.954  14.812
87616W        W52843  18.210  12.087   3.860
87617W        W52844  43.046  39.184  11.109
87618W        W52845  25.504  44.391   4.237
87619W        W52846  40.064  41.406  13.573
87620W        W52847  41.472   5.197   4.541
87621W        W52848   9.541  12.357  12.875
87622W        W52849  26.248  41.066   0.796
87623W        W52850  39.820   7.175  12.113
87624W        W52851  44.327  18.135   0.884
87625W        W52852   5.403  29.444   4.142
87626W        W52853  41.361  32.099  11.582
87627W        W52854   0.843   6.289   0.779
87628W        W52855   7.584  31.115   4.572
87629W        W52856  17.703  38.953  10.939
87630W        W52857  27.744  14.033   0.859
87631W        W52858   6.704  14.594  14.382
87632W        W52859  20.366  28.413  12.879
87633W        W52860   2.476  24.250   4.119
87634W        W52861   5.215  35.355  13.875
87635W        W52862  19.952   6.390  12.549
87636W        W52863  26.814  16.768   3.322
87637W        W52864   2.655  29.221  13.245
87638W        W52865  25.902   3.994   1.846
87639W        W52866  23.134  32.412  13.019
87640W        W52867  23.080   3.353  11.362
87641W        W52868  10.579   9.401  11.327
87642W        W52869  44.477  13.254  13.584
87643W        W52870  17.502   6.947   0.491
87644W        W52871  29.708  15.139   0.005
87645W        W52872  30.585  34.486   4.231
87646W        W52873  24.930  43.950  14.798
87647W        W52874   2.244  34.073  12.075
87648W        W52875  43.037   9.157   2.705
87649W        W52876  19.989  29.546  14.447
87650W        W52877  38.993  35.538   0.626
87651W        W52878  43.958  33.101   1.231
87652W        W52879  23.509  23.744   4.030
87653W        W52880   9.758   1.233  11.038
87654W        W52881   8.806   4.955   3.284
87655W        W52882   9.769  10.741   2.792
87656W        W52883   9.913  40.567   0.290
87657W        W52884  32.822  30.051   4.041
87658W        W52885  42.034   3.262  10.418
87659W        W52886  33.992   0.081  12.431
87660W        W52887  42.424  23.949  11.911
87661W        W52888   5.257  30.892   3.246
87662W        W52889  23.373  14.290   4.738
87663W        W52890  31.213  12.398  14.321
87664W        W52891  43.591   8.313  11.456
87665W        W52892   4.172  25.732  12.834
87666W        W52893  21.816  19.688   1.367
87667W        W52894  27.959  16.105  10.218
87668W        W52895  11.648  19.201  14.024
87669W        W52896  37.555   1.372   1.567
87670W        W52897  40.898  16.012   4.757
87671W        W52898  38.221  19.747   2.811
87672W        W52899  16.286  11.669  10.580
87673W        W52900  13.100  23.671   4.200
87674W        W52901  34.544   2.253   4.136
87675W        W52902  21.768   9.965   3.925
87676W        W52903  41.334   9.341   4.584
87677W        W52904  22.584  29.633   1.895
87678W        W52905  34.323  21.708  13.965
87679W        W52906  33.086  41.908   2.275
87680W        W52907  34.462  39.551   1.827
87681W        W52908  20.119   9.034  11.414
87682W        W52909  25.037  17.931  12.499
87683W        W52910  32.136  22.633   1.911
87684W        W52911  20.459  20.530   2.343
87685W        W52912  20.232  11.267   3.071
87686W        W52913   8.847   5.998  13.447
87687W        W52914  26.243  16.881  13.988
87688W        W52915  18.299   1.778   0.758
87689W        W52916  12.634   6.229  11.523
87690W        W52917  20.551  36.985  10.700
87691W        W52918  23.077   7.604   0.055
87692W        W52919  43.721  20.204   2.175
87693W        W52920  13.749  44.348   5.051
87694W        W52921  34.919  28.295  11.554
87695W        W52922   1.917  27.079   0.761
87696W        W52923  10.215  34.126   3.232
87697W        W52924  29.192  31.097  14.022
87698W        W52925   3.851   6.351   4.434
87699W        W52926  30.893  23.034  10.896
87700W        W52927  25.842  13.138   3.925
87701W        W52928  22.319  38.575  14.322
87702W        W52929   7.901  38.494  14.312
87703W        W52930   6.548   8.337  12.516
87704W        W52931  18.283  34.507  14.625
87705W        W52932  19.064  12.601  12.682
87706W        W52933  27.630  42.399   4.169
87707W        W52934   6.635   5.797  11.528
87708W        W52935  41.735  10.838   1.128
87709W        W52936  22.785  26.941   2.735
87710W        W52937  37.358  39.106  14.961
87711W        W52938  35.877  30.238  13.393
87712W        W52939  15.077  32.069   1.089
87713W        W52940   6.539  42.937  10.215
87714W        W52941  16.961  20.791  13.547
87715W        W52942  13.821  21.553   0.049
87716W        W52943  27.482  21.060  13.490
87717W        W52944  37.052  13.772  14.218
87718W        W52945  39.302  16.592  13.020
87719W        W52946  40.246   9.239   2.490
87720W        W52947  20.257  27.620  13.733
87721W        W52948  28.143   1.601  11.115
87722W        W52949  24.693   1.599   3.431
87723W        W52950  28.560  24.281   1.436
87724W        W52951   2.590  13.261  13.325
87725W        W52952  36.831   4.880   0.771
87726W        W52953   5.497   3.430  12.071
87727W        W52954   4.619  14.862  12.000
87728W        W52955  34.542   8.761  12.561
87729W        W52956  22.970  42.005   0.152
87730W        W52957  14.180  18.281  13.094
87731W        W52958  40.391  39.919  13.445
87732W        W52959   9.759   9.296   3.460
87733W        W52960  22.488  17.270  13.726
87734W        W52961  24.711  41.215  14.560
87735W        W52962  24.490  20.278   1.217
87736W        W52963   1.019  10.716  11.811
87737W        W52964  14.731  34.879   4.669
87738W        W52965   0.974  33.829  11.680
87739W        W52966  42.046   3.506  13.041
87740W        W52967  35.612  30.523   1.914
87741W        W52968  40.886  11.902  14.727
87742W        W52969  11.002  21.973   3.782
87743W        W52970  12.550  15.090   4.335
87744W        W52971  15.006  44.618   2.181
87745W        W52972  10.593  26.706   3.224
87746W        W52973  19.328   2.310   1.272
87747W        W52974   6.797   5.871   1.778
87748W        W52975   1.288  24.958   4.146
87749W        W52976  20.745  42.371  13.971
87750W        W52977   4.927  18.086   1.254
87751W        W52978  38.281   9.679  12.035
87752W        W52979  40.825   9.143  12.352
87753W        W52980  13.734  11.744  11.680
87754W        W52981  31.521   4.745   3.146
87755W        W52982  35.900   7.621   3.611
87756W        W52983   4.273  43.314  11.505
87757W        W52984   1.654  15.819  10.371
87758W        W52985   4.703  12.207  10.485
87759W        W52986  23.999  19.635   1.590
87760W        W52987  41.561  32.552  10.391
87761W        W52988   4.010  36.587   2.798
87762W        W52989  14.079   8.860  12.197
87763W        W52990   2.594  19.589  10.612
87764W        W52991  31.561  11.128   0.404
87765W        W52992  44.964   1.824  13.987
87766W        W52993   4.527  30.027  12.360
87767W        W52994  22.263  21.301  13.437
87768W        W52995   9.102  29.287  12.098
87769W        W52996  27.667  26.642   2.302
87770W        W52997  33.164   3.379  13.526
87771W        W52998  42.948  19.044   2.609
87772W        W52999   6.879  24.148  10.562
87773W        W53000  33.051   0.190  11.241
87774W        W53001   6.258  31.735   2.684
87775W        W53002  17.178   0.859   3.584
87776W        W53003  20.572  43.961  12.828
87777W        W53004  14.739   0.489  12.507
87778W        W53005   4.160  10.257   0.794
87779W        W53006  39.257  38.277  12.285
87780W        W53007   4.948   3.932  14.333
87781W        W53008  14.257   2.390   2.653
87782W        W53009  10.068  27.016  13.840
87783W        W53010  10.386  34.848   2.770
87784W        W53011  31.535  27.962  11.687
87785W        W53012  42.734  35.582  11.690
87786W        W53013  21.610  26.218  14.912
87787W        W53014  25.389  43.947  10.982
87788W        W53015  22.169  32.982   0.049
87789W        W53016  41.041  42.897   0.019
87790W        W53017  19.577  22.055  12.465
87791W        W53018  37.011  31.251  14.408
87792W        W53019  24.277  27.171   1.509
87793W        W53020  24.090  24.631  11.300
87794W        W53021  40.483   4.900  10.722
87795W        W53022  11.209  12.773  13.524
87796W        W53023  40.748  10.145   2.366
87797W        W53024  11.995  37.674   5.081
87798W        W53025   2.323   0.054  12.915
87799W        W53026   5.054  36.391  14.850
87800W        W53027  11.137  14.120  11.681
87801W        W53028  16.714  43.719  13.577
87802W        W53029  13.394  44.185   2.775
87803W        W53030  19.036  26.032   0.320
87804W        W53031  12.680  39.319  12.836
87805W        W53032  35.101  24.449  12.097
87806W        W53033  11.031  29.720   5.247
87807W        W53034  36.878  38.127   3.868
87808W        W53035   0.472   0.849   2.389
87809W        W53036  10.404   9.328   2.172
87810W        W53037  16.027  19.610  12.169
87811W        W53038   6.693  16.185   1.344
87812W        W53039  21.365  27.440   4.193
87813W        W53040  32.166  25.371  13.427
87814W        W53041  38.344  25.096   2.311
87815W        W53042   3.854  17.214   1.961
87816W        W53043   8.718  31.448  13.923
87817W        W53044  18.072  22.943  11.553
87818W        W53045  25.330   8.897   2.171
87819W        W53046  25.727  29.400  10.845
87820W        W53047  19.864  40.892   1.322
87821W        W53048   7.699   6.328  11.229
87822W        W53049   0.443  16.731  14.206
87823W        W53050  18.225  40.128  11.201
87824W        W53051  17.239  39.916  12.331
87825W        W53052  41.712  40.081   2.956
87826W        W53053  20.700  24.489   4.830
87827W        W53054  37.808  12.279   2.350
87828W        W53055   9.691  17.635  13.798
87829W        W53056  23.149  23.472  11.582
87830W        W53057  12.237  22.013  13.877
87831W        W53058  37.381  28.435   3.288
87832W        W53059   4.132  16.184   3.196
87833W        W53060  39.078  40.376   0.193
87834W        W53061  23.752  16.707   2.593
87835W        W53062   7.198   0.837   4.825
87836W        W53063  18.688   8.253  12.099
87837W        W53064  17.523   7.123   1.364
87838W        W53065  24.282   7.089   0.291
87839W        W53066  29.772  43.750  11.051
87840W        W53067   5.263  20.575   0.028
87841W        W53068  29.861   4.337  10.560
87842W        W53069   1.224  31.413   3.564
87843W        W53070  21.139   9.032  10.216
87844W        W53071  10.689  14.821  12.987
87845W        W53072  16.361  31.367  14.073
87846W        W53073  43.708  26.102   4.370
87847W        W53074  41.779  31.818  14.420
87848W        W53075  16.507  31.594   1.347
87849W        W53076   4.614  30.005  10.428
87850W        W53077  40.283  33.365  12.533
87851W        W53078   7.360  35.666  13.403
87852W        W53079  16.111  37.554  14.859
87853W        W53080  21.294  36.006   1.853
87854W        W53081  22.735   8.367  11.291
87855W        W53082   1.158  39.842   2.644
87856W        W53083   4.899  23.530   3.713
87857W        W53084  36.898  24.935  12.939
87858W        W53085  22.549  18.616   0.694
87859W        W53086  11.766  27.323   2.892
87860W        W53087  32.461   0.457  11.216
87861W        W53088   0.665   1.735  14.927
87862W        W53089  23.090  11.198   4.445
87863W        W53090  24.220  25.172  14.935
87864W        W53091   1.428  34.852  12.570
87865W        W53092  11.548  17.166  12.507
87866W        W53093  29.557  42.562   0.948
87867W        W53094  26.716  34.503  13.670
87868W        W53095  11.966  26.818   2.026
87869W        W53096  13.542  13.746   3.122
87870W        W53097  41.722  25.154  13.954
87871W        W53098   2.393  16.555  14.916
87872W        W53099  33.019   9.161   2.877
87873W        W53100   9.952  34.012   2.122
87874W        W53101  35.803  12.140   2.797
87875W        W53102  25.921   3.660  14.440
87876W        W53103  17.872  25.504   0.803
87877W        W53104  26.540  16.078   3.800
87878W        W53105   1.306  16.672   4.207
87879W        W53106   8.385  41.006  14.857
87880W        W53107  34.775  35.459  10.755
87881W        W53108  42.106  21.663   1.216
87882W        W53109  22.206  31.790  12.120
87883W        W53110  24.784  32.921  14.485
87884W        W53111   6.178   6.423   3.240
87885W        W53112   3.375   2.105  11.894
87886W        W53113   1.332  33.648   2.878
87887W        W53114   8.917   4.411  14.643
87888W        W53115  13.157   1.513   0.920
87889W        W53116  13.242   5.385   0.900
87890W        W53117  35.370  20.528  14.760
87891W        W53118   7.996  36.962  11.113
87892W        W53119  24.659   9.142   3.080
87893W        W53120  18.803  35.878   2.687
87894W        W53121  37.683   7.092   4.414
87895W        W53122  32.900  10.290   1.289
87896W        W53123  31.939   8.581   4.922
87897W        W53124  34.448  22.392   2.722
87898W        W53125  31.696   8.803  10.770
87899W        W53126  10.815  15.098  12.483
87900W        W53127  40.472   0.503  10.775
87901W        W53128  37.483  22.195   2.718
87902W        W53129  17.035  41.492  10.735
87903W        W53130  14.156   0.475  13.159
87904W        W53131  40.565  31.436   2.723
87905W        W53132   7.607  37.457   1.673
87906W        W53133  41.751  27.742   3.340
87907W        W53134  16.867   5.923  11.804
87908W        W53135  11.347  15.610   4.777
87909W        W53136  16.503  29.153  11.562
87910W        W53137  35.016  20.986   0.357
87911W        W53138  25.282  31.871   1.704
87912W        W53139  13.096  12.683   1.432
87913W        W53140  10.349   2.705   0.297
87914W        W53141  32.518  17.790   9.654
87915W        W53142   6.143  26.674  11.101
87916W        W53143  19.489  16.065   2.177
87917W        W53144  33.383   0.517   3.131
87918W        W53145  38.638  39.749  10.560
87919W        W53146   3.494   9.685  13.356
87920W        W53147   2.877  11.696  11.587
87921W        W53148  24.955  28.275  14.887
87922W        W53149  11.627  10.953  11.640
87923W        W53150  38.305  31.211  11.174
87924W        W53151  37.435  25.289   0.027
87925W        W53152  21.811  36.019   1.919
87926W        W53153  30.574   8.666   4.113
87927W        W53154  22.776  40.398  10.647
87928W        W53155  43.546  22.912  14.372
87929W        W53156  40.774  31.062  10.499
87930W        W53157  23.470  29.533  12.922
87931W        W53158  27.884   7.941  14.428
87932W        W53159  15.071  38.751  11.105
87933W        W53160  25.428  35.458  12.453
87934W        W53161  41.741   6.939  14.796
87935W        W53162  33.075  43.496  14.397
87936W        W53163  12.910   5.152  14.398
87937W        W53164  17.303  17.246  14.742
87938W        W53165  16.529  30.695  12.566
87939W        W53166  29.327  37.697   1.768
87940W        W53167  33.706  34.589   3.663
87941W        W53168  19.057  23.676  11.808
87942W        W53169   8.765  30.540  11.530
87943W        W53170  39.161  23.266   9.889
87944W        W53171   4.538   2.479   1.239
87945W        W53172  31.092  23.029  13.406
87946W        W53173   8.070  14.658   2.339
87947W        W53174   8.777  28.758   1.149
87948W        W53175   0.232   5.213  10.803
87949W        W53176  40.898  16.404   0.802
87950W        W53177  15.120  22.005   0.224
87951W        W53178   5.412  32.812   2.072
87952W        W53179   3.667  22.705   4.271
87953W        W53180  41.403  15.596  11.948
87954W        W53181   2.779  37.880  14.850
87955W        W53182  12.329  35.146   0.277
87956W        W53183  17.086  38.500  14.735
87957W        W53184  36.096  10.628   0.308
87958W        W53185  29.488  25.501   0.346
87959W        W53186   1.061  18.108  14.473
87960W        W53187  13.289  35.797  12.225
87961W        W53188  37.453  27.073  11.194
87962W        W53189  31.009  11.158   0.923
87963W        W53190  34.106  19.801   4.694
87964W        W53191  14.611  24.525   2.328
87965W        W53192  11.131  30.530  12.998
87966W        W53193  11.741  10.802   4.505
87967W        W53194   0.802   7.166   4.122
87968W        W53195  15.497  17.254   0.246
87969W        W53196   8.273  22.419  11.912
87970W        W53197  19.141  21.494   1.617
87971W        W53198  25.575  13.050   0.431
87972W        W53199  34.177  40.857  14.941
87973W        W53200   2.455   8.298   2.759
87974W        W53201  24.517  19.134   3.181
87975W        W53202  15.768   2.170   1.729
87976W        W53203   1.469  27.140   1.817
87977W        W53204  24.685  22.085   0.863
87978W        W53205  21.112  41.949   0.500
87979W        W53206   2.517   6.251   0.862
87980W        W53207  14.813  15.195   2.929
87981W        W53208  15.706   0.801   4.530
87982W        W53209  30.581  25.036  11.492
87983W        W53210  35.078  42.071   3.572
87984W        W53211  39.177  44.950   0.434
87985W        W53212   9.321  17.281   3.778
87986W        W53213  37.094   1.646   2.757
87987W        W53214   0.407   0.255   0.186
87988W        W53215  31.057  23.986  13.539
87989W        W53216  24.399  14.149  14.689
87990W        W53217  26.705  33.989  11.387
87991W        W53218  26.794  20.674   0.280
87992W        W53219  37.491  41.768  13.622
87993W        W53220  14.293  26.821  14.211
87994W        W53221  41.931  34.192   1.795
87995W        W53222  44.594  30.858  12.856
87996W        W53223  17.701  31.210   2.209
87997W        W53224  38.293  32.570   2.450
87998W        W53225  16.684   6.637  12.942
87999W        W53226   3.362  11.345  13.614
88000W        W53227   5.450   8.064   1.420
88001W        W53228  22.085  41.370  12.386
88002W        W53229  19.296  27.575  13.409
88003W        W53230  33.500  37.618   3.199
88004W        W53231  44.902  10.205   0.986
88005W        W53232  29.832  22.689  10.617
88006W        W53233  16.351  33.917   0.817
88007W        W53234  35.333  15.459   0.023
88008W        W53235  15.768  28.764  11.983
88009W        W53236  23.952  38.832   4.047
88010W        W53237  13.065  12.732  14.515
88011W        W53238  21.161  15.232  11.434
88012W        W53239  27.643  23.228  11.128
88013W        W53240  19.669  21.406   0.924
88014W        W53241  23.280  13.725   4.235
88015W        W53242  27.510  22.638  14.777
88016W        W53243  35.848  15.117  10.540
88017W        W53244  35.182  38.404   2.376
88018W        W53245  41.034  13.436  11.526
88019W        W53246   5.568  32.339  14.481
88020W        W53247  33.426  10.285   1.301
88021W        W53248  21.848  32.010   4.371
88022W        W53249  20.356  32.144  11.641
88023W        W53250  25.450  42.957   0.037
88024W        W53251   6.520  23.296   4.381
88025W        W53252  17.302   3.556   2.191
88026W        W53253  20.908  38.704   1.751
88027W        W53254  17.082  13.723  13.421
88028W        W53255  27.633  22.125   2.832
88029W        W53256   3.577  23.266  12.769
88030W        W53257  41.350  15.872  14.741
88031W        W53258  37.639  29.766   2.703
88032W        W53259   5.442  33.147  11.624
88033W        W53260  17.092   8.408   3.700
88034W        W53261  30.071   2.888  10.677
88035W        W53262  34.978  14.151  11.282
88036W        W53263  26.529  33.876   3.692
88037W        W53264  33.481  31.631   2.459
88038W        W53265  29.661  25.470   2.782
88039W        W53266  26.215  40.759  13.617
88040W        W53267  27.821  13.380  10.997
88041W        W53268   8.071  15.278  13.484
88042W        W53269  15.825  33.485   2.375
88043W        W53270  17.518  16.531   4.525
88044W        W53271   9.707   3.398  14.887
88045W        W53272  44.710   1.059   2.752
88046W        W53273  37.871  40.725   4.597
88047W        W53274  33.628  19.118   0.672
88048W        W53275  43.274  42.075  12.991
88049W        W53276  36.549   7.339   3.573
88050W        W53277  35.397   8.361  13.477
88051W        W53278  11.857   8.681   3.115
88052W        W53279   1.952  11.128   2.875
88053W        W53280   0.404  35.222   3.774
88054W        W53281  16.909  21.959  13.917
88055W        W53282  43.908  14.755  10.656
88056W        W53283  25.006  26.934  14.466
88057W        W53284  22.948  19.496  14.920
88058W        W53285   9.208  35.199   1.505
88059W        W53286  37.909  36.989  14.306
88060W        W53287  44.092  22.615   3.771
88061W        W53288  15.698  43.444  14.967
88062W        W53289  31.968  18.188   3.998
88063W        W53290  18.552  10.871   0.733
88064W        W53291  17.784  24.133  12.534
88065W        W53292  26.658   6.929  12.529
88066W        W53293  12.392  21.021   4.194
88067W        W53294  16.850   1.349   2.023
88068W        W53295  26.207   4.230   0.941
88069W        W53296  13.886  29.536   3.315
88070W        W53297  19.745  43.863  12.409
88071W        W53298  22.085  30.120  14.457
88072W        W53299  29.139   8.948   1.847
88073W        W53300  34.042   4.407  14.344
88074W        W53301  11.291  11.082   0.501
88075W        W53302  38.841   2.478  11.874
88076W        W53303  26.095  44.346   3.541
88077W        W53304  13.463  32.968   3.369
88078W        W53305  16.882  22.807   1.149
88079W        W53306   5.346   2.688  13.503
88080W        W53307  42.896  44.720   4.547
88081W        W53308  10.509  29.460   2.537
88082W        W53309   8.464  35.171  12.678
88083W        W53310   8.723  20.725  11.170
88084W        W53311   3.774  27.076   0.451
88085W        W53312   7.194   4.561   2.657
88086W        W53313  12.278  16.182  12.572
88087W        W53314   7.701  18.279   1.418
88088W        W53315  32.468  44.028  11.455
88089W        W53316  11.847  29.723  11.238
88090W        W53317  11.344   3.273  14.267
88091W        W53318   8.766  18.567  13.581
88092W        W53319   0.950  42.193   3.635
88093W        W53320   7.916  41.358   2.768
88094W        W53321  27.692  16.773  12.362
88095W        W53322  38.517  33.541  14.027
88096W        W53323  40.347  32.366   1.853
88097W        W53324  33.423  26.459   2.762
88098W        W53325  24.698  27.428   0.770
88099W        W53326  40.873   3.818   3.128
88100W        W53327  29.555  44.222   1.400
88101W        W53328   1.328   3.185  11.259
88102W        W53329  10.796  25.233   4.387
88103W        W53330  12.685   5.877  14.241
88104W        W53331   0.763  36.533   4.136
88105W        W53332  44.463  22.615  13.472
88106W        W53333  21.196  12.402   4.677
88107W        W53334  42.458  18.916   4.130
88108W        W53335  43.259  11.783  14.504
88109W        W53336  31.364  40.415   3.340
88110W        W53337  27.668   2.935   4.445
88111W        W53338   3.734  25.960  14.409
88112W        W53339  42.482   2.840  12.363
88113W        W53340   7.808  26.017   3.055
88114W        W53341  44.123  24.654  12.606
88115W        W53342  36.984  24.721  12.434
88116W        W53343  22.798  10.872  13.555
88117W        W53344   6.699  40.032   4.578
88118W        W53345   0.490  22.701   5.332
88119W        W53346  42.419  35.139   1.834
88120W        W53347   2.192  22.047  12.662
88121W        W53348  36.140  11.745   0.896
88122W        W53349  39.925   7.842   2.625
88123W        W53350  19.633  19.336  11.987
88124W        W53351  24.218   7.276  13.439
88125W        W53352   5.984   1.276   4.760
88126W        W53353   4.452   3.854  14.311
88127W        W53354  34.122  19.027   2.269
88128W        W53355  12.746  10.461  13.870
88129W        W53356  10.494  33.819   3.589
88130W        W53357  24.855  22.238  11.086
88131W        W53358  20.151   9.177  12.542
88132W        W53359  18.536  18.316   1.264
88133W        W53360  23.203  17.207  12.567
88134W        W53361   9.041  32.377  14.443
88135W        W53362  39.422  28.958   0.231
88136W        W53363  13.416  42.380   1.657
88137W        W53364  38.607   4.773  13.524
88138W        W53365  29.539  26.001   0.235
88139W        W53366   4.843  25.410   5.023
88140W        W53367   4.915  42.586  14.900
88141W        W53368  23.800  14.701   4.032
88142W        W53369  40.016   4.955   1.837
88143W        W53370  14.191  37.667  12.517
88144W        W53371  13.028  38.471  11.975
88145W        W53372  27.329  20.695   3.013
88146W        W53373  13.847  24.261   5.004
88147W        W53374  37.351  16.842  10.571
88148W        W53375  23.851  36.469  13.432
88149W        W53376  21.491  31.874  11.074
88150W        W53377  16.605  35.302  12.971
88151W        W53378  20.626  29.970  11.708
88152W        W53379   0.251  15.136   4.047
88153W        W53380  43.161  27.926   5.010
88154W        W53381   3.033  21.702  10.417
88155W        W53382  40.598  22.709   2.182
88156W        W53383  28.392  39.144   2.332
88157W        W53384  37.213  28.955   3.805
88158W        W53385  31.025  13.860   1.267
88159W        W53386  21.275   2.162  10.235
88160W        W53387  24.517  36.991   3.375
88161W        W53388   1.951  36.417   1.952
88162W        W53389  32.971   0.696  13.716
88163W        W53390  40.526  21.587   4.692
88164W        W53391  35.505  34.890   3.498
88165W        W53392  12.790  21.315  11.588
88166W        W53393  10.897   0.914   3.619
88167W        W53394  37.368  23.731  11.110
88168W        W53395   4.713  31.172  13.508
88169W        W53396  38.354   6.357   0.692
88170W        W53397  11.813   9.851   2.251
88171W        W53398  43.382   0.303   2.822
88172W        W53399   4.783  12.355  11.800
88173W        W53400  13.148   7.995   4.688
88174W        W53401  36.809  15.263   4.482
88175W        W53402  15.578  35.095  11.028
88176W        W53403  10.402   9.868  11.157
88177W        W53404  27.643  28.102  14.412
88178W        W53405  33.722  35.522  14.709
88179W        W53406  40.864  33.141  10.570
88180W        W53407  30.610  16.146   4.883
88181W        W53408  19.450  32.059   0.320
88182W        W53409  26.059  25.992  12.141
88183W        W53410  24.767  44.329   3.635
88184W        W53411  10.776  25.422   1.983
88185W        W53412   1.800   7.191   1.051
88186W        W53413  39.119   1.220  13.371
88187W        W53414  41.389  11.093  12.902
88188W        W53415   4.831   8.681  11.193
88189W        W53416  14.672  37.226   1.894
88190W        W53417  10.667  26.733  12.437
88191W        W53418  20.501  12.766   3.197
88192W        W53419  11.090  40.318  13.548
88193W        W53420  27.200  29.415   2.939
88194W        W53421   0.883  23.477  11.043
88195W        W53422  24.512  16.809  14.549
88196W        W53423  43.093  13.278   3.669
88197W        W53424  23.441  27.701  14.351
88198W        W53425  15.297  43.485   3.994
88199W        W53426  43.974  34.159  13.818
88200W        W53427   4.926  44.788   3.323
88201W        W53428  17.722  14.724  12.527
88202W        W53429  23.919  39.566  12.949
88203W        W53430  20.441   0.284  14.327
88204W        W53431  23.342   9.170   1.351
88205W        W53432  20.370   4.867  10.928
88206W        W53433  36.729  17.069  11.996
88207W        W53434   1.980  13.224   0.259
88208W        W53435  31.416  43.839   1.426
88209W        W53436   9.873  41.600  12.937
88210W        W53437  15.683  10.124  12.933
88211W        W53438  35.420  42.933  14.365
88212W        W53439  42.973  30.123  14.097
88213W        W53440  14.647  35.863   0.744
88214W        W53441  25.643  19.414  10.505
88215W        W53442   7.032  21.993   2.835
88216W        W53443  42.741   6.581   3.264
88217W        W53444  41.287  38.904  14.886
88218W        W53445   1.392  18.058   1.437
88219W        W53446  27.680  44.499  13.019
88220W        W53447   4.517   3.972   3.910
88221W        W53448  36.966  18.973  12.045
88222W        W53449  27.976  44.771  11.108
88223W        W53450   7.823  29.355   5.075
88224W        W53451  32.220   0.304   4.138
88225W        W53452   3.902  42.340   0.979
88226W        W53453  23.236  38.900  11.030
88227W        W53454  15.326  39.903  11.957
88228W        W53455  37.248  30.434   3.250
88229W        W53456  33.475   6.865   0.409
88230W        W53457   0.440  32.615  12.864
88231W        W53458  14.068   4.370  11.926
88232W        W53459   6.230  24.463   1.904
88233W        W53460  34.236  12.140  13.887
88234W        W53461  22.587  38.323   3.698
88235W        W53462  16.392   2.429   3.861
88236W        W53463   8.313  22.300  10.525
88237W        W53464  29.834  35.074  11.704
88238W        W53465   8.682  44.720   4.707
88239W        W53466   3.007  21.078  12.916
88240W        W53467   5.051  18.327  13.770
88241W        W53468  28.435  35.327   4.531
88242W        W53469  38.932   2.201   4.184
88243W        W53470  12.914  18.858  11.721
88244W        W53471  18.718  10.443  14.738
88245W        W53472  11.259   3.219   2.466
88246W        W53473  25.210   1.434  14.403
88247W        W53474  16.332  19.135  13.074
88248W        W53475   8.415  37.656   4.942
88249W        W53476  20.269  17.329  13.496
88250W        W53477  42.845  29.357   3.272
88251W        W53478  12.715  36.759   2.265
88252W        W53479  37.872   0.978   3.753
88253W        W53480  37.058  25.105   1.625
88254W        W53481  17.734  41.539  11.858
88255W        W53482  28.865  28.293  11.168
88256W        W53483  15.963  31.074   3.381
88257W        W53484  12.835   9.094  11.235
88258W        W53485  17.501  12.807   3.218
88259W        W53486  42.569  11.804   0.720
88260W        W53487  18.229  15.726  14.897
88261W        W53488   2.491  18.690  13.515
88262W        W53489  11.761   9.603  11.971
88263W        W53490  17.257  41.471  11.642
88264W        W53491  28.406  38.472   3.738
88265W        W53492   5.977   7.482   5.000
88266W        W53493   5.121  23.801  11.674
88267W        W53494  15.824  40.823  12.010
88268W        W53495  26.182   5.644  14.759
88269W        W53496  23.409  11.797  13.256
88270W        W53497  16.290  12.299  12.962
88271W        W53498   4.827  44.813  11.554
88272W        W53499  43.586  36.403   2.795
88273W        W53500  25.106   5.348  10.283
88274W        W53501  41.971  31.933  12.941
88275W        W53502  22.702   3.548   1.244
88276W        W53503   2.936  32.121  12.803
88277W        W53504  10.669  36.162   1.641
88278W        W53505   0.262   3.336  11.947
88279W        W53506   4.586  35.071   0.365
88280W        W53507  38.090  24.531  12.171
88281W        W53508  35.982  26.501   3.701
88282W        W53509  21.135  41.812   2.450
88283W        W53510  17.081  29.200   2.879
88284W        W53511  44.233  33.008   3.470
88285W        W53512  10.920  13.002   4.143
88286W        W53513  31.844  40.323  13.603
88287W        W53514   0.716  12.450   4.481
88288W        W53515  41.204  23.509  13.260
88289W        W53516   1.037   3.785   1.910
88290W        W53517   6.399  36.911  12.489
88291W        W53518  18.586  38.183  13.044
88292W        W53519   1.007  24.522   4.109
88293W        W53520  25.640  19.676  14.356
88294W        W53521  40.034  35.444   3.767
88295W        W53522  19.938  24.894  12.329
88296W        W53523  16.997  24.242   4.092
88297W        W53524  16.772   7.426  14.100
88298W        W53525  29.812  44.467   0.890
88299W        W53526  33.469  11.362  11.158
88300W        W53527   1.929  40.495  14.823
88301W        W53528  41.995   2.587   1.371
88302W        W53529   6.671  18.852  12.884
88303W        W53530   4.850   8.833   1.217
88304W        W53531  30.396   1.256   2.868
88305W        W53532  29.109  35.286   0.356
88306W        W53533   7.153  24.170  13.409
88307W        W53534  31.144  14.163  14.440
88308W        W53535  10.626  31.285   3.231
88309W        W53536  41.414  25.498  14.895
88310W        W53537  34.486  26.633  11.186
88311W        W53538   3.215  21.899   3.314
88312W        W53539  38.979  14.241   2.149
88313W        W53540  35.118  20.071  12.632
88314W        W53541   7.633  39.588   4.186
88315W        W53542  38.898  11.712  14.493
88316W        W53543  14.763  43.452   0.830
88317W        W53544  37.788  34.808  11.646
88318W        W53545  25.626   9.783   4.319
88319W        W53546  27.917  30.222  11.534
88320W        W53547  21.176  12.865  11.693
88321W        W53548  17.530  24.022  13.896
88322W        W53549  29.985   1.798  13.011
88323W        W53550  42.128  32.466  13.129
88324W        W53551  37.875  39.551  14.128
88325W        W53552   8.781  33.465  12.697
88326W        W53553   7.200  30.813   3.349
88327W        W53554  21.683  12.890   1.303
88328W        W53555  23.900  42.596  11.090
88329W        W53556  31.513  21.947   3.084
88330W        W53557  22.927  19.222   0.899
88331W        W53558  17.179  39.795   1.322
88332W        W53559   2.251  33.544   3.763
88333W        W53560   2.322  14.262  11.180
88334W        W53561  25.976  23.311  12.454
88335W        W53562  14.668   3.865  11.642
88336W        W53563  31.123  19.062   2.436
88337W        W53564  38.460  28.528  11.210
88338W        W53565   3.851  14.780   1.293
88339W        W53566  18.281  18.274   0.492
88340W        W53567   1.248  11.781   0.428
88341W        W53568  33.959   2.249  13.629
88342W        W53569  22.969  10.533  13.225
88343W        W53570   6.204  11.199   4.354
88344W        W53571  17.998  15.743  13.015
88345W        W53572  13.815   2.841   1.704
88346W        W53573   6.019  36.518  12.592
88347W        W53574  25.110   3.965  13.562
88348W        W53575  19.375  43.819   3.762
88349W        W53576   2.288   5.442  13.048
88350W        W53577  23.111  28.926  14.001
88351W        W53578  15.763  16.602   3.728
88352W        W53579   3.967  30.987   0.314
88353W        W53580  12.782  34.174   4.555
88354W        W53581   2.850   5.426  11.642
88355W        W53582  42.738  38.494  14.437
88356W        W53583  32.371  30.905  11.510
88357W        W53584  26.597   0.536   3.965
88358W        W53585  44.123  38.609   5.039
88359W        W53586   5.484  12.265   4.682
88360W        W53587  36.594   5.189   2.782
88361W        W53588  41.816  39.017   4.569
88362W        W53589  40.961  34.337  11.197
88363W        W53590  11.794  38.979  12.449
88364W        W53591  20.566  22.824   0.610
88365W        W53592  27.485  29.330   1.858
88366W        W53593   7.700  17.275   0.370
88367W        W53594  11.211  37.420   4.592
88368W        W53595  32.720  23.218  12.922
88369W        W53596  10.331  17.663  12.967
88370W        W53597  31.975  39.135   3.986
88371W        W53598   6.508   1.284   0.324
88372W        W53599  24.661  32.477  11.760
88373W        W53600   5.056   1.523  11.504
88374W        W53601  22.746  10.677   0.279
88375W        W53602  23.446  19.181   0.882
88376W        W53603  26.286  40.471  12.534
88377W        W53604  28.873  36.884   2.807
88378W        W53605  40.419   4.204   0.783
88379W        W53606   8.736   0.450  11.962
88380W        W53607  32.897  41.775   3.736
88381W        W53608  35.593   9.640  12.447
88382W        W53609  30.505   5.344  12.946
88383W        W53610  32.387  22.100  11.614
88384W        W53611  41.316  24.106  12.673
88385W        W53612   8.472   3.788  10.693
88386W        W53613  41.521   1.527   4.143
88387W        W53614  37.934  22.774   1.833
88388W        W53615  44.213  12.616   0.426
88389W        W53616   8.823   7.439  12.382
88390W        W53617  23.467  41.338  11.911
88391W        W53618  34.718  34.493  14.417
88392W        W53619  15.835  14.598   2.323
88393W        W53620  31.216  12.379   4.519
88394W        W53621  26.681  16.047  13.584
88395W        W53622   9.463  20.133  10.934
88396W        W53623  15.835  21.975  12.126
88397W        W53624  23.775  31.625  10.604
88398W        W53625   9.758  30.901   4.466
88399W        W53626   8.481  42.866   0.703
88400W        W53627  41.304   4.806  14.031
88401W        W53628   5.721  29.540  11.629
88402W        W53629  32.884   9.278  11.039
88403W        W53630  28.543  23.104   3.337
88404W        W53631  21.185   9.657  11.080
88405W        W53632   4.115  39.052   4.220
88406W        W53633  25.572  42.305  13.287
88407W        W53634  24.154  32.878   2.369
88408W        W53635  20.583  30.655  11.168
88409W        W53636   3.827  30.469   0.380
88410W        W53637  38.285  10.969  13.556
88411W        W53638  32.871  11.976  12.168
88412W        W53639  27.562   4.953  11.215
88413W        W53640   9.589   5.908   2.234
88414W        W53641   0.427   7.923  11.243
88415W        W53642  20.473  38.777   0.891
88416W        W53643  35.655  31.213  13.096
88417W        W53644  27.973   2.184   2.734
88418W        W53645  29.551  18.513  12.562
88419W        W53646   5.441  13.379   1.764
88420W        W53647  33.056  35.122   1.167
88421W        W53648   7.866  25.556  14.439
88422W        W53649  14.132   3.259   2.344
88423W        W53650  26.024  16.856  12.095
88424W        W53651  33.099   5.779  12.654
88425W        W53652  34.902  38.089   3.247
88426W        W53653  44.115  27.262   9.577
88427W        W53654  16.582  14.474  13.954
88428W        W53655  31.522  39.521   4.989
88429W        W53656   2.960  12.114  12.213
88430W        W53657   5.273  39.561  14.084
88431W        W53658  18.622  41.027   0.970
88432W        W53659  44.143  14.148  13.333
88433W        W53660  43.812  17.292  14.021
88434W        W53661   9.865  29.151  14.784
88435W        W53662  32.782   2.744   1.008
88436W        W53663   7.484   4.822   4.081
88437W        W53664  14.693  13.261  13.281
88438W        W53665  33.713  12.526   9.747
88439W        W53666  19.079   5.382   3.091
88440W        W53667  29.243  37.180   1.836
88441W        W53668  44.309   2.455  10.704
88442W        W53669  34.923  36.906  10.607
88443W        W53670  34.004  27.128   3.044
88444W        W53671  23.919  35.420   4.066
88445W        W53672  42.973  25.757   3.670
88446W        W53673   4.365  35.494  14.589
88447W        W53674  42.345  34.121  13.439
88448W        W53675  41.665   4.384  13.340
88449W        W53676   4.989  36.074   2.729
88450W        W53677  20.030  14.866   2.867
88451W        W53678  34.615   3.290   3.206
88452W        W53679  21.492  11.283   3.806
88453W        W53680  27.733  35.535  12.974
88454W        W53681  32.504  20.538  14.886
88455W        W53682  23.789  42.430   1.177
88456W        W53683  25.579  43.457  14.872
88457W        W53684  40.618   3.777   2.224
88458W        W53685  24.378  41.938   2.600
88459W        W53686   1.972  42.346  14.717
88460W        W53687  42.985  34.037  11.407
88461W        W53688  29.480  22.489   4.614
88462W        W53689  11.430  28.733   3.662
88463W        W53690  24.569  16.352  14.800
88464W        W53691  28.715  12.640   1.486
88465W        W53692  11.043  33.887   3.476
88466W        W53693   2.883  32.815  13.381
88467W        W53694  15.287  11.322   2.766
88468W        W53695  26.521  26.151  11.315
88469W        W53696   0.905   4.340  11.091
88470W        W53697  14.591  40.110  12.464
88471W        W53698  10.162  16.337   3.874
88472W        W53699  31.127  22.117  10.843
88473W        W53700  13.703   7.583  12.554
88474W        W53701   1.730  10.102   1.030
88475W        W53702  44.200   2.215   3.671
88476W        W53703  21.799  25.987  13.825
88477W        W53704  40.419  17.953   4.603
88478W        W53705  43.303   2.282  14.335
88479W        W53706  10.774  11.013   2.271
88480W        W53707  35.631  31.565   0.426
88481W        W53708   3.760  38.851  10.726
88482W        W53709  15.351   3.696  11.657
88483W        W53710  21.713   3.372  13.925
88484W        W53711   5.919   9.419   1.381
88485W        W53712   7.169  27.375   2.718
88486W        W53713  34.017  30.704  12.169
88487W        W53714  19.842  24.090  10.828
88488W        W53715  33.438  18.207  11.021
88489W        W53716  26.668  33.057   4.144
88490W        W53717  41.164  13.054   2.752
88491W        W53718  29.913   7.672  14.825
88492W        W53719  16.161   5.776   3.250
88493W        W53720   7.962  26.783  13.020
88494W        W53721   0.966   7.165  11.117
88495W        W53722   3.760  38.816  11.768
88496W        W53723  19.136   8.862   3.344
88497W        W53724  37.097   2.517  13.979
88498W        W53725   9.308  12.898   2.591
88499W        W53726  44.278  11.218   5.251
88500W        W53727   7.914  38.133   4.187
88501W        W53728  16.576  30.860  12.039
88502W        W53729  11.188   4.821  14.919
88503W        W53730  26.992   5.380  12.408
88504W        W53731  26.632  21.997  10.684
88505W        W53732  39.496  26.389  11.091
88506W        W53733  20.386   6.861   3.152
88507W        W53734  17.683   6.787  11.243
88508W        W53735   7.949   8.186   0.884
88509W        W53736  10.240  30.895  14.780
88510W        W53737  27.405   3.600   1.952
88511W        W53738  40.757   9.412  10.557
88512W        W53739  17.225  42.657  12.899
88513W        W53740   3.437   9.331  10.671
88514W        W53741  42.741   8.823  10.673
88515W        W53742  33.559   0.015  14.291
88516W        W53743  27.542  44.396  14.577
88517W        W53744  33.996  17.837   3.272
88518W        W53745  26.145  42.816  10.290
88519W        W53746   5.353  34.202   0.685
88520W        W53747   0.879  40.886  10.767
88521W        W53748  38.010  16.485  14.346
88522W        W53749  36.580  24.157  11.167
88523W        W53750  25.629   0.299  12.444
88524W        W53751  15.856  19.132  12.220
88525W        W53752  22.666   7.351   1.647
88526W        W53753  20.164  14.185  11.799
88527W        W53754  19.281  21.018   3.261
88528W        W53755  32.782   9.815   4.134
88529W        W53756  23.499  27.823   1.118
88530W        W53757   3.330  35.540  13.205
88531W        W53758  34.876  25.361  13.882
88532W        W53759  18.731  42.451  12.151
88533W        W53760  38.340  19.087  11.872
88534W        W53761  33.519   5.935   0.008
88535W        W53762  22.633  34.962   3.197
88536W        W53763   2.403  36.186  10.312
88537W        W53764  40.371  22.487   0.703
88538W        W53765  39.162  44.839   0.981
88539W        W53766  27.537  12.945   1.760
88540W        W53767  42.577   3.295   4.529
88541W        W53768  18.792  24.543   1.749
88542W        W53769  21.228  39.109   1.811
88543W        W53770  36.980  11.142   1.286
88544W        W53771   0.774  21.630   1.703
88545W        W53772   4.413  43.977   1.718
88546W        W53773  11.623   7.605  10.999
88547W        W53774  24.235  17.661   0.708
88548W        W53775  33.229   9.705  11.534
88549W        W53776   3.970  10.747   4.105
88550W        W53777  11.255  24.955  13.398
88551W        W53778  34.950  31.041  10.459
88552W        W53779  21.766  32.106   4.880
88553W        W53780  39.868   8.338   4.958
88554W        W53781  38.841  13.753   1.444
88555W        W53782  42.975  31.564  10.588
88556W        W53783  40.834  44.499   4.840
88557W        W53784  15.333  25.928   1.227
88558W        W53785  27.233  23.658   0.257
88559W        W53786   9.672  22.622   2.392
88560W        W53787  29.089  14.747   1.760
88561W        W53788   1.941  19.317  14.391
88562W        W53789  31.362  38.298  11.607
88563W        W53790  42.874  27.037  11.459
88564W        W53791   4.392  33.536   0.241
88565W        W53792  15.179  29.492  10.823
88566W        W53793  13.249   3.936   4.756
88567W        W53794  35.052   7.739  13.036
88568W        W53795   1.960   8.396   3.601
88569W        W53796  21.129  43.906  11.239
88570W        W53797  28.454  17.608   3.244
88571W        W53798  28.660  20.287   0.441
88572W        W53799  23.569  17.613  11.444
88573W        W53800   4.001  33.204   4.124
88574W        W53801  40.768  25.987  10.543
88575W        W53802  24.946  18.133   3.006
88576W        W53803  42.352  13.311  12.256
88577W        W53804  17.714   9.952  11.619
88578W        W53805  14.206  30.051   4.351
88579W        W53806  39.767   7.073  11.207
88580W        W53807  15.318  36.004   1.872
88581W        W53808  42.241  36.648   0.391
88582W        W53809   6.209  43.082   2.656
88583W        W53810  43.860   0.422   3.735
88584W        W53811  18.094   5.657   1.828
88585W        W53812  28.753  39.461   0.825
88586W        W53813  26.872  12.153   4.551
88587W        W53814   4.523   9.367  14.227
88588W        W53815  18.627  11.328   2.197
88589W        W53816  32.509  24.727  12.423
88590W        W53817  36.618  21.598  14.761
88591W        W53818  23.278   5.686   2.916
88592W        W53819  44.885  42.558  10.581
88593W        W53820  26.671   4.900   1.256
88594W        W53821  16.530  25.529   4.013
88595W        W53822  11.495  17.984   9.967
88596W        W53823   6.224  33.096   0.211
88597W        W53824  35.414  23.749   2.348
88598W        W53825  24.724  44.358  14.550
88599W        W53826  37.062   7.432   0.736
88600W        W53827  28.054  35.159  10.544
88601W        W53828   2.020  24.039   2.249
88602W        W53829  38.950  16.398  11.073
88603W        W53830  12.174   7.662  12.892
88604W        W53831  31.313   2.450  14.769
88605W        W53832  13.086  37.582   1.470
88606W        W53833  32.631  42.052  11.713
88607W        W53834  20.047   9.828   4.634
88608W        W53835  42.035  28.011  10.802
88609W        W53836  35.710  43.381   1.785
88610W        W53837   8.307   0.947   4.079
88611W        W53838  35.408  41.181  13.884
88612W        W53839  43.219   7.346   2.228
88613W        W53840  27.563  29.208  12.886
88614W        W53841  27.082  41.834   0.801
88615W        W53842  31.524   4.701  13.863
88616W        W53843  10.735  14.848  14.921
88617W        W53844  17.029  44.773   0.257
88618W        W53845   1.721   8.905  12.322
88619W        W53846  37.333  23.835   0.756
88620W        W53847  10.473  14.384   1.080
88621W        W53848  24.017   2.948   5.079
88622W        W53849  19.566  27.170  12.127
88623W        W53850  22.657  22.800  14.443
88624W        W53851  28.925  21.051   3.663
88625W        W53852  26.999  28.580  12.614
88626W        W53853  28.503  39.183  13.769
88627W        W53854   1.322  30.085   3.828
88628W        W53855  13.304  35.815  14.547
88629W        W53856  20.914  19.721  11.469
88630W        W53857  14.151  16.403  14.004
88631W        W53858  11.786  43.720   0.715
88632W        W53859  41.478   0.244   5.031
88633W        W53860  26.934  20.618   1.262
88634W        W53861  23.352   8.346   4.109
88635W        W53862  38.838  30.858   4.121
88636W        W53863   1.620  39.088  11.503
88637W        W53864   4.210  39.505   1.893
88638W        W53865  40.091   6.164   0.106
88639W        W53866  22.181   7.753  13.116
88640W        W53867  42.462  43.416  10.692
88641W        W53868  25.466  37.580  11.162
88642W        W53869  10.846   7.798  13.382
88643W        W53870  16.252   8.369   2.888
88644W        W53871  22.508  23.827   2.401
88645W        W53872   6.617  41.362  11.237
88646W        W53873   8.126  20.210   3.194
88647W        W53874  42.393   0.424  11.635
88648W        W53875   2.813   4.727   0.216
88649W        W53876  20.488   2.817   3.138
88650W        W53877   6.642  17.829  12.865
88651W        W53878  35.170  26.113   1.141
88652W        W53879   6.971  13.221  12.777
88653W        W53880  37.424  23.017  11.896
88654W        W53881   6.598   9.016  11.766
88655W        W53882  10.669  16.630   2.221
88656W        W53883  37.133  17.755  11.644
88657W        W53884  33.031  29.239  12.471
88658W        W53885   1.501  26.216  14.540
88659W        W53886  20.270  43.132  13.416
88660W        W53887   9.590  33.616  10.335
88661W        W53888  34.057   3.969  10.536
88662W        W53889  20.090  24.067   2.576
88663W        W53890  22.479  17.699  12.641
88664W        W53891  35.536  27.724   1.563
88665W        W53892   1.458  17.816  11.577
88666W        W53893   7.329   7.521  14.881
88667W        W53894  20.073   1.780  14.407
88668W        W53895  29.881  23.656   4.700
88669W        W53896  26.061  37.209   1.272
88670W        W53897  36.405  23.033  10.585
88671W        W53898   7.204  26.717   3.642
88672W        W53899  31.814  33.778  14.432
88673W        W53900  16.258  22.261   2.788
88674W        W53901  44.937   7.364   0.361
88675W        W53902  19.515   1.731  11.096
88676W        W53903  44.016   8.982  13.855
88677W        W53904  25.633  16.085  10.599
88678W        W53905  11.960   8.810  10.447
88679W        W53906  29.554  40.273   1.290
88680W        W53907  29.352  35.537   2.665
88681W        W53908  31.862  35.291  10.829
88682W        W53909  16.949   0.845   4.099
88683W        W53910  30.319   3.716  12.626
88684W        W53911  12.224  22.342   4.705
88685W        W53912  10.430  24.768  13.778
88686W        W53913   7.215  40.781   2.392
88687W        W53914  44.934  26.807   2.657
88688W        W53915  19.353  25.042   2.275
88689W        W53916  13.759  12.356  10.965
88690W        W53917  26.475  37.455  11.012
88691W        W53918  39.380   9.944   1.722
88692W        W53919   1.230  35.445  13.918
88693W        W53920  22.567  29.625   2.428
88694W        W53921  11.752  28.176  10.711
88695W        W53922  38.716  17.665  11.488
88696W        W53923  44.272  34.021   1.376
88697W        W53924   2.841  12.295   3.009
88698W        W53925  16.450  11.690  11.080
88699W        W53926   7.849  27.496  14.731
88700W        W53927  26.937   4.000  13.022
88701W        W53928  36.011  22.587  13.280
88702W        W53929   3.154   0.229   1.082
88703W        W53930  16.405  29.855  12.793
88704W        W53931   5.747  44.754   1.717
88705W        W53932  13.853  11.244  11.580
88706W        W53933  35.451  36.443   4.597
88707W        W53934  21.992  11.204   3.790
88708W        W53935   2.137  13.122   1.674
88709W        W53936  27.201  12.237  12.622
88710W        W53937  21.108  22.059  11.048
88711W        W53938  16.334  22.259   0.866
88712W        W53939  44.412  15.332  12.867
88713W        W53940  22.710  15.890  14.482
88714W        W53941  40.100  35.176   3.027
88715W        W53942  32.054   0.052  11.945
88716W        W53943  39.710  37.383  12.077
88717W        W53944  37.016   8.122   1.535
88718W        W53945  11.818  23.977  10.652
88719W        W53946  23.695  33.672   1.955
88720W        W53947  10.275  21.982   2.711
88721W        W53948  17.127  15.896   2.851
88722W        W53949   3.783  33.006   0.644
88723W        W53950  40.812  30.506   4.176
88724W        W53951  31.122  32.363   2.388
88725W        W53952  29.661   9.196  11.221
88726W        W53953  25.535  16.756  13.116
88727W        W53954  32.136  12.347   1.467
88728W        W53955  15.761  43.019  14.056
88729W        W53956   9.855  29.463   2.617
88730W        W53957  12.844   3.702   1.790
88731W        W53958  18.978  23.162   4.657
88732W        W53959  31.189   1.092   3.873
88733W        W53960  10.666  30.794   1.370
88734W        W53961  26.740  27.928  10.585
88735W        W53962   9.281  28.743   4.213
88736W        W53963  33.018  19.720  12.536
88737W        W53964   7.673   5.689  14.767
88738W        W53965   3.054   2.861  10.698
88739W        W53966   3.181   8.891  11.409
88740W        W53967  40.093  30.582  11.639
88741W        W53968  10.252  26.084   1.407
88742W        W53969   6.333  39.603   4.229
88743W        W53970  22.501  20.657  11.704
88744W        W53971  27.967  16.357  10.668
88745W        W53972  18.143   3.889  11.069
88746W        W53973  18.514   5.752  10.671
88747W        W53974  42.775  28.448  10.612
88748W        W53975  30.773  39.117   2.232
88749W        W53976  12.719  14.543  12.403
88750W        W53977  41.686  21.265  11.539
88751W        W53978  28.391  30.373   2.636
88752W        W53979  20.806  37.474   1.249
88753W        W53980  30.218  16.709  12.417
88754W        W53981  20.250  43.594  10.686
88755W        W53982  21.660  13.587   4.878
88756W        W53983  10.050  20.915   1.548
88757W        W53984   0.363  39.390  12.991
88758W        W53985   7.164  19.327  14.558
88759W        W53986  27.713   8.721  11.695
88760W        W53987   6.162  25.005  14.842
88761W        W53988  27.966  28.097  11.765
88762W        W53989  32.846  30.479  14.796
88763W        W53990  16.051   4.310  13.821
88764W        W53991  11.261  40.536  13.093
88765W        W53992  11.821  37.566  14.469
88766W        W53993  43.363   7.344  14.527
88767W        W53994  43.271  29.266   2.979
88768W        W53995  27.032  37.562  12.885
88769W        W53996  25.152   0.100   2.417
88770W        W53997   2.057   1.422  13.702
88771W        W53998  18.536  30.967   3.667
88772W        W53999  32.397  41.162  11.255
88773W        W54000  37.731  13.112  11.360
88774W        W54001  38.593  27.382  11.665
88775W        W54002  15.250  30.855  10.292
88776W        W54003  44.882  17.502   4.169
88777W        W54004  11.748   1.297  11.520
88778W        W54005   4.437  39.606   0.896
88779W        W54006  42.860   6.327  10.713
88780W        W54007  38.456  21.764   0.684
88781W        W54008  35.463   5.539  10.252
88782W        W54009  27.081  40.371  14.208
88783W        W54010  10.573  41.923   5.069
88784W        W54011  21.345  16.315   2.855
88785W        W54012  26.111  15.734   4.429
88786W        W54013  20.293  41.430  12.966
88787W        W54014  15.606  14.153   3.209
88788W        W54015  43.925  23.116  12.623
88789W        W54016  19.390  27.985   1.337
88790W        W54017  12.323  24.779   4.641
88791W        W54018  19.179  12.125   0.936
88792W        W54019  12.286  35.607   0.528
88793W        W54020  37.362  16.810   3.074
88794W        W54021  22.595  41.408  13.054
88795W        W54022   6.400  13.650  12.450
88796W        W54023  33.367  23.521  14.361
88797W        W54024  26.587  34.623  14.825
88798W        W54025  34.631  41.968   1.902
88799W        W54026   6.192  43.997   3.354
88800W        W54027   3.371   4.184  13.366
88801W        W54028  26.895   9.386  14.391
88802W        W54029  36.580  16.114  13.487
88803W        W54030  32.962  12.858  12.508
88804W        W54031  33.962  31.306   4.545
88805W        W54032  19.649  18.254  11.714
88806W        W54033  14.747   1.656   2.717
88807W        W54034  44.784  41.451  10.313
88808W        W54035   4.183  39.824   3.635
88809W        W54036  43.583  32.554   2.196
88810W        W54037  17.566  21.663   1.845
88811W        W54038  27.233   9.573  12.614
88812W        W54039   7.380  11.821   4.439
88813W        W54040   1.186  40.964   4.045
88814W        W54041  22.566  18.199   3.657
88815W        W54042  20.531  25.985  14.427
88816W        W54043  32.311  31.468  11.998
88817W        W54044  17.172  20.795  11.558
88818W        W54045  10.676   7.858   4.211
88819W        W54046  20.685  37.647  12.128
88820W        W54047  30.651  26.794   4.013
88821W        W54048   4.770  13.693  11.440
88822W        W54049  39.592  11.370   3.756
88823W        W54050  35.670  20.114  14.710
88824W        W54051  19.642   4.824   0.789
88825W        W54052   8.789   9.320   4.839
88826W        W54053   7.893  15.795   3.073
88827W        W54054  22.984  13.803  11.236
88828W        W54055   6.720  35.187   4.872
88829W        W54056  23.587  38.867   0.024
88830W        W54057   1.837  36.106   1.539
88831W        W54058  17.640  36.452   0.215
88832W        W54059  40.865  24.219  10.489
88833W        W54060  36.410   1.834  13.949
88834W        W54061  35.479  19.206   1.611
88835W        W54062   4.167  21.141  10.757
88836W        W54063  11.278  40.779  10.772
88837W        W54064   5.252  36.764  14.509
88838W        W54065   7.863  24.969  12.547
88839W        W54066   1.897   8.512  12.002
88840W        W54067  26.251  17.108  12.563
88841W        W54068  26.617   3.389   1.314
88842W        W54069  42.239  33.891   4.581
88843W        W54070  23.060  31.919   0.486
88844W        W54071  32.929  44.539  11.995
88845W        W54072  10.659  44.319  12.953
88846W        W54073  16.117  34.413  10.424
88847W        W54074  26.670  28.826  10.579
88848W        W54075  16.453  33.850   9.749
88849W        W54076  17.778  36.741  12.080
88850W        W54077  12.622  40.389  10.981
88851W        W54078  32.083  23.015   0.405
88852W        W54079  20.577  21.036   2.253
88853W        W54080  16.765  11.755  11.504
88854W        W54081  32.960   4.484   3.257
88855W        W54082  41.392  10.082   1.426
88856W        W54083  43.639  25.937   0.314
88857W        W54084  26.202  30.862   2.211
88858W        W54085   6.849  27.414  11.222
88859W        W54086  18.253   9.259  11.120
88860W        W54087  43.678  25.529  13.473
88861W        W54088  13.807   3.433  12.047
88862W        W54089  29.335   8.160  12.513
88863W        W54090   8.749   0.157   1.420
88864W        W54091  36.924  34.647  14.888
88865W        W54092   1.280  44.828  14.482
88866W        W54093  41.409   4.539   3.739
88867W        W54094  20.571  34.900  11.445
88868W        W54095  10.554  28.921  12.036
88869W        W54096  41.778  41.331   2.304
88870W        W54097  42.513  39.303  14.575
88871W        W54098  35.495  21.309  11.935
88872W        W54099  30.373  35.539  13.924
88873W        W54100  20.161  11.787   0.476
88874W        W54101  26.753  21.326   0.592
88875W        W54102  43.480  22.956   0.762
88876W        W54103  24.933  43.519   4.523
88877W        W54104   6.400  40.945   1.489
88878W        W54105  15.275  38.951   4.520
88879W        W54106  40.872  35.121   4.253
88880W        W54107  39.599  21.808  11.203
88881W        W54108  38.920  21.665  12.237
88882W        W54109  40.560  11.348   0.366
88883W        W54110   6.172  32.668  14.429
88884W        W54111   5.476  27.241  11.217
88885W        W54112  13.518   7.272   4.680
88886W        W54113  10.527   1.434  11.152
88887W        W54114  14.095   6.794   4.108
88888W        W54115  24.846   1.221  14.740
88889W        W54116   2.562   6.459  13.227
88890W        W54117  42.646  21.668  13.474
88891W        W54118   4.455  26.588  11.565
88892W        W54119  24.738  12.614   0.706
88893W        W54120  43.999   8.177  13.547
88894W        W54121  31.143  33.858  12.781
88895W        W54122  23.664  42.430   3.848
88896W        W54123   9.399  35.182   2.817
88897W        W54124   0.576  19.636   0.227
88898W        W54125  42.472   5.226  11.164
88899W        W54126  19.702  22.693   2.296
88900W        W54127  28.402  11.608   2.740
88901W        W54128  21.628   6.721   0.782
88902W        W54129   2.290  36.990   2.484
88903W        W54130  40.452  10.600  12.602
88904W        W54131  34.411  12.819  13.969
88905W        W54132  32.613  14.748  14.823
88906W        W54133  25.572  10.122   4.715
88907W        W54134  40.126  24.570   3.675
88908W        W54135  23.953  44.274  10.034
88909W        W54136  15.614  44.269  12.326
88910W        W54137  31.521   5.949   0.235
88911W        W54138  19.598  34.652  11.150
88912W        W54139   7.221   5.756  12.638
88913W        W54140   8.102  35.058   4.171
88914W        W54141  20.678   0.625   4.337
88915W        W54142  10.216  37.959   0.341
88916W        W54143   5.736  28.625  13.555
88917W        W54144   1.706   8.754   1.074
88918W        W54145  18.566  44.003  11.079
88919W        W54146  41.438   9.699  11.050
88920W        W54147  13.352  33.886  12.412
88921W        W54148  28.852  40.996   4.083
88922W        W54149  12.199  21.130   4.685
88923W        W54150  19.770  41.288   1.701
88924W        W54151  11.677  42.515   0.020
88925W        W54152   9.125  28.525  13.915
88926W        W54153  37.168  11.564  11.114
88927W        W54154   5.533  39.340  14.847
88928W        W54155  23.568   1.012   0.035
88929W        W54156   9.859  22.002   3.449
88930W        W54157  23.400  39.518  12.913
88931W        W54158  44.114   4.423   0.817
88932W        W54159  31.942  26.306  11.790
88933W        W54160   7.759  44.699   2.409
88934W        W54161  37.670   3.705  10.792
88935W        W54162   3.813  18.065   2.243
88936W        W54163  34.568  23.283   2.300
88937W        W54164  29.132  33.480  11.975
88938W        W54165  41.502  22.069   1.230
88939W        W54166  44.387  15.992   3.725
88940W        W54167  34.853  38.470   4.379
88941W        W54168  15.452  25.089  12.841
88942W        W54169  42.058   6.690  10.799
88943W        W54170   3.209   5.196  14.505
88944W        W54171  17.610  20.215  13.542
88945W        W54172   0.490  31.370   3.007
88946W        W54173   8.428   6.283  13.682
88947W        W54174  43.853   1.328  13.622
88948W        W54175  35.102  15.102   4.869
88949W        W54176  21.825  29.657  11.539
88950W        W54177  19.779  32.511  10.815
88951W        W54178  36.136  15.587   2.811
88952W        W54179  31.581  26.222   2.051
88953W        W54180  12.245  18.162  13.520
88954W        W54181   2.306  27.593   3.568
88955W        W54182  34.995   3.975  10.782
88956W        W54183  32.757  40.120   3.992
88957W        W54184  28.029  43.823   1.658
88958W        W54185  33.582  33.710  10.753
88959W        W54186   3.747  31.565   9.950
88960W        W54187   3.046  10.416  10.783
88961W        W54188  24.563  18.634   2.336
88962W        W54189  34.135  38.984   0.228
88963W        W54190  30.487   9.255  12.947
88964W        W54191   8.059  31.704   2.535
88965W        W54192   5.719  13.221   4.198
88966W        W54193  39.896  33.049  11.685
88967W        W54194  17.401   9.246  13.444
88968W        W54195  21.175  10.170  13.580
88969W        W54196  14.778  33.915  12.716
88970W        W54197  13.103  16.516  10.630
88971W        W54198  40.252  28.086   0.983
88972W        W54199  15.192   7.705   1.745
88973W        W54200  36.750  24.326   2.129
88974W        W54201  19.158  40.756   2.608
88975W        W54202  16.887  34.839  11.134
88976W        W54203  35.532  20.982  14.513
88977W        W54204  28.411   1.447   1.782
88978W        W54205  32.368  40.387  13.088
88979W        W54206  31.067  16.757  14.050
88980W        W54207  18.569   7.377  14.491
88981W        W54208  30.171  17.186   0.526
88982W        W54209  42.946  40.594   1.562
88983W        W54210  38.868  29.327   1.910
88984W        W54211   1.725  42.571  12.525
88985W        W54212   0.895  31.085  14.803
88986W        W54213  28.645  31.069   1.278
88987W        W54214  30.902  16.877  11.930
88988W        W54215  10.723  12.558   1.331
88989W        W54216  32.133  36.321   2.459
88990W        W54217  14.175   5.899  13.822
88991W        W54218  23.620  36.573  12.970
88992W        W54219  11.729   8.780  12.595
88993W        W54220   1.838  30.197  11.484
88994W        W54221  30.575  27.931   3.575
88995W        W54222  30.710  34.386  14.382
88996W        W54223  34.586  35.473  14.345
88997W        W54224  28.520  43.657   1.549
88998W        W54225  29.703  18.188   3.305
88999W        W54226   7.951  41.294  14.848
89000W        W54227  30.298  17.075   4.706
89001W        W54228  26.910  32.509   1.293
89002W        W54229  11.964  35.681  11.622
89003W        W54230  40.704  22.133  10.586
89004W        W54231  25.779   4.686   3.214
89005W        W54232  40.140  24.299  13.400
89006W        W54233   2.463  42.225  14.601
89007W        W54234  26.788   1.582   0.661
89008W        W54235   9.368  25.947   4.429
89009W        W54236  38.380  36.817   1.867
89010W        W54237  18.247  21.411   3.132
89011W        W54238   4.295  39.107   0.968
89012W        W54239  10.963   0.761   0.742
89013W        W54240  18.563   4.870   3.280
89014W        W54241  40.861  14.778   0.473
89015W        W54242  19.807  11.429   0.801
89016W        W54243  25.598  32.657   1.795
89017W        W54244   5.795  19.159   2.280
89018W        W54245   5.713  33.965  11.766
89019W        W54246  10.215   8.733  11.223
89020W        W54247  23.776  15.124   0.388
89021W        W54248  10.955  25.725   2.842
89022W        W54249  10.564  26.973   3.992
89023W        W54250  30.024   5.370  12.757
89024W        W54251  18.662  28.626   3.373
89025W        W54252  40.712  38.537   0.980
89026W        W54253   1.034   3.337   3.883
89027W        W54254  20.627  16.285   2.398
89028W        W54255   6.922   9.856  13.074
89029W        W54256  17.015   3.611   0.412
89030W        W54257  11.892  21.276  11.265
89031W        W54258   1.362  21.644  12.915
89032W        W54259  37.517   4.268   1.607
89033W        W54260  28.490   9.907  10.602
89034W        W54261  19.480  31.098   4.124
89035W        W54262  16.133  13.356   2.800
89036W        W54263  13.816   2.626   2.834
89037W        W54264  23.264   5.068   0.323
89038W        W54265  24.206  30.730  12.141
89039W        W54266  29.801   8.421   3.787
89040W        W54267  23.990  15.217  13.629
89041W        W54268  32.535  16.220  14.136
89042W        W54269  36.665   6.342  12.412
89043W        W54270   7.375  36.971  10.531
89044W        W54271  10.904   5.697   3.216
89045W        W54272  32.503  17.173   2.740
89046W        W54273  16.089   9.502   2.641
89047W        W54274  35.101  32.570   0.389
89048W        W54275  16.572   1.639  11.106
89049W        W54276  24.508  39.628   2.280
89050W        W54277  23.095  32.599   3.803
89051W        W54278  34.598  20.991  13.286
89052W        W54279   6.418  37.368  13.859
89053W        W54280  21.188   5.846   2.018
89054W        W54281  18.199   2.311  11.442
89055W        W54282   2.821   8.575  11.599
89056W        W54283  41.826  35.485   3.884
89057W        W54284   9.455  12.260  14.264
89058W        W54285   5.787  39.850   0.945
89059W        W54286  41.779  33.316  14.380
89060W        W54287  12.612  11.800   3.899
89061W        W54288  17.407  21.160   3.429
89062W        W54289   1.495  36.990  12.385
89063W        W54290  38.911   0.382  13.823
89064W        W54291  24.876  25.027   4.537
89065W        W54292  21.421   3.868   1.394
89066W        W54293  35.016  14.709   2.696
89067W        W54294  24.052   2.809  12.701
89068W        W54295   0.130  20.964   1.751
89069W        W54296   1.494  21.395  10.623
89070W        W54297   5.599  12.639   0.915
89071W        W54298  13.164   5.902  10.855
89072W        W54299  43.449  29.507  10.614
89073W        W54300  43.967   1.325   1.716
89074W        W54301   1.475   3.825   2.225
89075W        W54302  23.913  41.586  11.836
89076W        W54303  35.327  27.518  11.633
89077W        W54304   4.663  26.359   9.650
89078W        W54305  27.925  42.901   1.681
89079W        W54306  20.746  34.929  12.057
89080W        W54307  20.467  13.839  13.487
89081W        W54308  41.669  22.060   3.538
89082W        W54309  22.506  14.197  11.665
89083W        W54310  28.988  39.677  11.718
89084W        W54311  19.874  40.901  13.073
89085W        W54312  11.165  36.422  10.658
89086W        W54313  32.586  34.564  11.036
89087W        W54314  41.325  19.008  12.409
89088W        W54315  19.715  15.230  12.927
89089W        W54316  43.899  20.675   2.728
89090W        W54317  20.761   7.114   1.597
89091W        W54318   9.431  16.863   2.172
89092W        W54319  30.575  26.986   1.856
89093W        W54320  40.094  37.484  13.309
89094W        W54321   9.160   7.886  11.537
89095W        W54322   0.857  13.606   1.358
89096W        W54323  29.630  10.614  13.616
89097W        W54324   4.802   4.859   0.934
89098W        W54325  40.530  11.829   3.756
89099W        W54326  23.541   3.904   3.712
89100W        W54327  14.072  11.487   3.271
89101W        W54328  18.987  41.327   2.268
89102W        W54329  41.917  36.565  13.465
89103W        W54330   8.339  39.462  12.019
89104W        W54331  35.811   8.823  13.820
89105W        W54332   1.100  40.323  13.535
89106W        W54333   2.890  36.875  14.359
89107W        W54334  43.279  14.558   4.418
89108W        W54335   7.187  24.603   4.159
89109W        W54336  41.092  42.658  13.797
89110W        W54337  38.248  15.278  14.033
89111W        W54338  33.069  30.965   3.156
89112W        W54339  39.327  14.197  13.948
89113W        W54340  38.748   4.759   2.213
89114W        W54341  28.177  24.436  12.060
89115W        W54342  36.768  38.930  10.518
89116W        W54343   3.500  43.614   1.063
89117W        W54344   7.540  23.512  12.888
89118W        W54345  18.875   5.751  11.901
89119W        W54346  25.952  17.588  13.104
89120W        W54347  32.929   6.443  11.315
89121W        W54348   3.357  27.734  12.796
89122W        W54349  39.322  31.699   0.521
89123W        W54350  17.218  30.501  10.767
89124W        W54351  27.800  32.099   1.226
89125W        W54352  40.786   8.051  11.648
89126W        W54353  37.383  10.344  12.710
89127W        W54354  35.454   7.334   2.325
89128W        W54355  15.328  23.014   2.229
89129W        W54356  29.145  30.808   0.432
89130W        W54357  32.659   6.453   2.827
89131W        W54358  30.252   4.955  14.455
89132W        W54359  23.687  33.046  10.446
89133W        W54360  41.718  29.055   0.845
89134W        W54361   7.282  22.115  14.952
89135W        W54362  40.989  43.949  12.028
89136W        W54363   1.514  14.748   0.904
89137W        W54364  31.449  40.482   0.652
89138W        W54365  35.555   5.568   2.802
89139W        W54366  33.923   5.886  13.492
89140W        W54367   5.945  23.437   2.667
89141W        W54368  33.745  12.877   1.700
89142W        W54369  31.135  29.566   5.212
89143W        W54370  42.877   0.444  14.058
89144W        W54371   0.826  32.259   4.394
89145W        W54372  44.581  37.262  12.901
89146W        W54373  27.616  22.057  12.510
89147W        W54374  35.684  28.884  14.615
89148W        W54375  34.097  33.370   0.031
89149W        W54376  27.005  35.827   0.711
89150W        W54377  31.135  17.310   4.273
89151W        W54378  31.117   4.170  14.403
89152W        W54379  23.071  39.563   1.284
89153W        W54380  21.849  44.439  11.118
89154W        W54381  18.605   4.840  10.723
89155W        W54382  21.826  22.779   3.836
89156W        W54383  37.343  13.585   1.481
89157W        W54384  15.286  18.328   3.811
89158W        W54385  24.459  44.284   2.964
89159W        W54386   1.500  38.082   1.720
89160W        W54387  38.278   3.724  12.817
89161W        W54388   8.900   6.467   3.179
89162W        W54389  29.079  36.347   4.341
89163W        W54390   1.685   0.302   2.328
89164W        W54391  30.705  24.092   3.702
89165W        W54392  34.903  27.267  11.571
89166W        W54393  15.215  23.484   0.401
89167W        W54394  30.890  14.231   3.873
89168W        W54395  35.595  10.796   0.931
89169W        W54396  15.563  22.300  12.625
89170W        W54397   3.842  21.756   2.821
89171W        W54398  22.687  14.382   4.123
89172W        W54399  30.393  18.128  12.338
89173W        W54400   5.271  33.278   0.986
89174W        W54401   4.062  16.018  12.956
89175W        W54402   0.410   3.473  14.426
89176W        W54403  37.999  25.901  12.925
89177W        W54404  37.345  36.855   3.543
89178W        W54405  38.952  39.165   2.137
89179W        W54406  35.950  20.276   3.284
89180W        W54407  26.632  40.373   4.567
89181W        W54408   3.911  13.195  11.782
89182W        W54409  16.347  30.199  11.543
89183W        W54410  25.584  28.685   0.476
89184W        W54411  44.796  12.488   3.798
89185W        W54412  18.030  32.472   4.734
89186W        W54413  30.919  33.062   1.173
89187W        W54414  43.018  22.136   0.909
89188W        W54415  30.693   8.204   0.730
89189W        W54416  30.276  40.509  11.912
89190W        W54417  44.831  16.674   2.610
89191W        W54418   2.431  44.645   5.186
89192W        W54419  39.533  14.354  10.878
89193W        W54420  12.337  37.901  10.488
89194W        W54421  10.463   4.069  13.843
89195W        W54422  18.222   0.867  13.556
89196W        W54423  11.461  37.435  12.634
89197W        W54424  25.128  34.729  11.962
89198W        W54425  14.920  42.479   4.221
89199W        W54426   2.208   6.878  11.740
89200W        W54427  23.330  18.622  12.770
89201W        W54428   1.990  16.146  14.338
89202W        W54429  32.903   7.183   1.967
89203W        W54430  44.396  32.656  10.737
89204W        W54431  41.057  40.487   4.535
89205W        W54432  16.759  13.816  13.015
89206W        W54433  11.766  44.461  13.606
89207W        W54434   2.987   6.649   4.098
89208W        W54435  33.479  33.785   4.478
89209W        W54436   8.827  36.417  13.538
89210W        W54437  27.455  26.948  11.901
89211W        W54438  15.106  20.457  14.427
89212W        W54439  22.833  44.831  14.435
89213W        W54440  40.924  44.948   3.871
89214W        W54441  44.832  10.761   4.159
89215W        W54442  18.741  10.068   4.166
89216W        W54443  39.847  23.495  14.360
89217W        W54444  28.038   9.883   4.732
89218W        W54445  34.038  25.589   2.186
89219W        W54446  24.004  40.853  14.095
89220W        W54447  37.171  41.278  11.535
89221W        W54448  31.107   3.946  10.762
89222W        W54449  38.758  19.177  11.588
89223W        W54450  21.329  35.104  12.445
89224W        W54451   8.882  27.786  13.038
89225W        W54452  21.183  19.793  11.027
89226W        W54453  38.063  19.233   2.651
89227W        W54454  16.775   6.553   1.185
89228W        W54455  21.091  18.707  12.427
89229W        W54456  17.837  12.622  11.903
89230W        W54457  37.129  41.004  11.071
89231W        W54458   7.149  13.602   1.403
89232W        W54459  24.200  25.332  10.635
89233W        W54460  15.861   8.330  11.657
89234W        W54461  11.233  26.903   1.360
89235W        W54462  41.322  16.567  13.410
89236W        W54463  32.623  31.502  13.543
89237W        W54464   2.539  41.091   3.776
89238W        W54465   4.899   5.769   4.238
89239W        W54466   6.245  28.021   0.433
89240W        W54467  15.840   8.299   4.163
89241W        W54468  14.548   6.843   1.504
89242W        W54469  37.644  32.941  12.103
89243W        W54470   6.122  35.405  10.371
89244W        W54471  14.584  14.467   1.066
89245W        W54472  35.968  22.082   4.633
89246W        W54473  36.870  25.317   2.607
89247W        W54474  43.863  31.955   4.892
89248W        W54475  42.620  15.565  10.900
89249W        W54476  17.194  24.723  12.983
89250W        W54477  10.952  20.935   3.726
89251W        W54478   0.922   3.724  13.276
89252W        W54479  20.085  23.615  11.614
89253W        W54480  43.336  44.031  12.074
89254W        W54481   1.344  41.869   3.566
89255W        W54482  35.904  10.194   2.235
89256W        W54483  24.815   8.693   4.242
89257W        W54484  26.120  33.354  11.556
89258W        W54485  37.997  38.642   4.550
89259W        W54486   7.743  36.361   3.858
89260W        W54487  40.973  11.280   1.059
89261W        W54488  44.383   8.427  12.516
89262W        W54489  13.267  20.867   4.560
89263W        W54490  18.570  29.372  14.243
89264W        W54491   9.822   5.684  12.436
89265W        W54492   3.283  27.197   2.244
89266W        W54493  28.922  19.304   0.836
89267W        W54494   0.278  17.732   3.282
89268W        W54495  38.349  35.629   4.030
89269W        W54496  29.070   8.940  12.085
89270W        W54497  27.292   8.512   1.162
89271W        W54498  39.061  10.457  13.998
89272W        W54499  40.390  35.383  13.343
89273W        W54500   7.172  31.160  10.824
89274W        W54501  36.030   2.850   0.853
89275W        W54502   9.235  28.796   1.414
89276W        W54503   3.463  13.055  14.012
89277W        W54504  19.145  10.069  13.856
89278W        W54505   6.959  25.114   4.129
89279W        W54506   9.182  27.635   1.469
89280W        W54507  22.679  39.609   0.957
89281W        W54508  11.646  19.190   3.672
89282W        W54509  24.685  44.870  14.442
89283W        W54510   7.460  30.694  11.684
89284W        W54511  33.897  37.919  14.398
89285W        W54512  15.550  32.669   0.587
89286W        W54513  15.726  31.965   4.596
89287W        W54514  19.313  37.517   4.835
89288W        W54515  25.749   9.355   0.412
89289W        W54516  38.697  25.981   3.966
89290W        W54517   1.776  14.809   3.194
89291W        W54518  21.542  19.255  14.221
89292W        W54519  40.373  19.670   3.624
89293W        W54520   0.927  36.830   1.172
89294W        W54521  17.511  12.644   1.987
89295W        W54522  24.694  42.998  12.275
89296W        W54523  40.573  23.551  10.678
89297W        W54524  29.723  12.849  11.907
89298W        W54525  34.777  37.373   0.772
89299W        W54526  14.673   5.180   1.981
89300W        W54527  22.747  42.724   5.172
89301W        W54528  42.226  38.006  11.147
89302W        W54529  23.566  19.703   0.415
89303W        W54530   5.914  19.084  10.926
89304W        W54531  44.792   0.089   4.533
89305W        W54532  18.294  19.313   1.932
89306W        W54533  31.091  33.487  13.951
89307W        W54534  22.259   6.391   4.572
89308W        W54535   4.970  44.079   3.798
89309W        W54536  17.773  42.360   4.568
89310W        W54537  34.357  32.353  11.599
89311W        W54538  39.906  20.987  11.052
89312W        W54539  11.376  24.717   2.280
89313W        W54540  35.921  10.130  14.401
89314W        W54541  16.884   8.497   4.163
89315W        W54542  42.137   3.910  11.205
89316W        W54543  15.277  31.371  11.846
89317W        W54544  10.660  38.486   3.880
89318W        W54545  13.163  31.368  14.496
89319W        W54546   1.437   3.560   4.185
89320W        W54547  23.243  36.051   0.395
89321W        W54548  14.113  40.402   4.135
89322W        W54549  43.505  14.107   4.202
89323W        W54550  18.167  25.147  12.080
89324W        W54551  29.841   1.503   4.106
89325W        W54552  28.092  21.590   1.284
89326W        W54553  11.908  39.487  12.466
89327W        W54554  33.017   2.677   2.882
89328W        W54555  29.831  40.109  14.879
89329W        W54556  25.008  39.472  12.930
89330W        W54557   6.952  43.727  13.970
89331W        W54558  34.064  27.205  12.452
89332W        W54559   6.338   5.623   1.683
89333W        W54560  34.942  28.039  11.096
89334W        W54561  24.345  10.303   4.532
89335W        W54562  30.870   2.988   2.702
89336W        W54563   9.332   8.096   3.177
89337W        W54564  44.752   0.516  12.452
89338W        W54565  10.271  24.570  13.330
89339W        W54566   4.784  32.564   1.339
89340W        W54567  10.001  39.389  13.452
89341W        W54568  37.311  31.385   2.205
89342W        W54569  15.214  30.528   0.714
89343W        W54570  16.264  13.136   0.309
89344W        W54571   9.355   7.243  14.047
89345W        W54572   9.382  28.181  14.295
89346W        W54573  21.560  29.678  13.783
89347W        W54574  24.506  39.101   2.293
89348W        W54575  18.093  28.493  11.805
89349W        W54576  12.317  37.448  11.696
89350W        W54577  41.533  22.543  10.423
89351W        W54578  20.137  34.911  14.233
89352W        W54579  37.257  38.926  10.715
89353W        W54580  27.512  16.225   9.960
89354W        W54581  31.832  32.148  12.536
89355W        W54582  29.544  12.294   5.137
89356W        W54583  28.625  34.448   4.732
89357W        W54584   2.850  12.088   2.535
89358W        W54585  29.353  25.025   3.980
89359W        W54586  38.026  26.559  11.582
89360W        W54587  13.803  17.055   2.747
89361W        W54588  30.179  35.039  13.479
89362W        W54589   8.586   9.851   4.165
89363W        W54590  34.412  17.640  14.995
89364W        W54591   8.486  19.219   2.621
89365W        W54592   3.509  10.384  14.843
89366W        W54593  41.751  41.900  13.338
89367W        W54594  43.962   9.110  11.661
89368W        W54595  15.864  37.850   1.525
89369W        W54596  14.029  40.952  12.376
89370W        W54597   1.351  23.694  11.001
89371W        W54598  27.697   0.001  10.641
89372W        W54599  30.520  37.858   2.278
89373W        W54600  19.080  23.285  11.483
89374W        W54601  11.253  41.584  14.877
89375W        W54602  32.338   5.330  14.455
89376W        W54603  32.386  40.265  14.416
89377W        W54604  30.454  14.814  13.489
89378W        W54605  12.650  25.086  12.148
89379W        W54606  16.796  22.665  12.610
89380W        W54607  20.962   5.358   4.869
89381W        W54608   8.759  44.719  12.339
89382W        W54609  44.444  32.352  13.059
89383W        W54610  28.401  11.368  14.088
89384W        W54611  19.812  34.879   5.109
89385W        W54612  32.926  41.342  11.802
89386W        W54613  28.390  44.765   2.013
89387W        W54614  21.745  38.926   3.786
89388W        W54615  41.793  31.480  13.883
89389W        W54616   7.895   7.741   4.337
89390W        W54617  19.185  10.728  13.016
89391W        W54618  40.462   6.399   0.395
89392W        W54619   1.127  36.755   1.627
89393W        W54620  16.576  19.634  13.919
89394W        W54621  28.901  42.890   1.840
89395W        W54622  39.068  21.085  12.643
89396W        W54623   4.026  24.650   4.635
89397W        W54624  19.808  13.338  12.243
89398W        W54625  11.934  34.060   2.265
89399W        W54626  27.382   0.815   3.631
89400W        W54627  22.574  41.906   1.934
89401W        W54628  29.404  16.836   0.182
89402W        W54629   1.929  26.000  12.997
89403W        W54630  12.200  21.593  12.760
89404W        W54631   4.235   9.768   1.800
89405W        W54632  38.439  22.298   0.360
89406W        W54633  40.109  34.551   0.224
89407W        W54634   2.164  32.691   3.101
89408W        W54635  15.007  19.634  12.094
89409W        W54636  18.067  11.373  14.185
89410W        W54637  42.267  23.672  12.562
89411W        W54638   5.969  22.560   1.888
89412W        W54639  41.974   1.766   3.544
89413W        W54640  22.152  14.108  10.972
89414W        W54641  42.864   5.884   2.246
89415W        W54642  32.101  19.237   3.274
89416W        W54643   6.751   8.130   1.404
89417W        W54644   0.845  20.939   2.653
89418W        W54645   6.919  34.415  11.527
89419W        W54646   8.022  12.308  12.153
89420W        W54647   4.362   4.482   3.961
89421W        W54648  44.720  38.108   1.433
89422W        W54649  20.215  23.538  10.760
89423W        W54650  37.035  13.206  12.053
89424W        W54651  37.546  43.338   1.714
89425W        W54652  41.937  18.665   2.607
89426W        W54653  26.528  23.045   4.157
89427W        W54654   9.238   1.329  12.597
89428W        W54655  24.214  38.246   2.178
89429W        W54656  27.770   3.520   0.652
89430W        W54657   4.882  39.897  10.558
89431W        W54658  42.477   7.819   3.708
89432W        W54659  42.420  14.692   3.173
89433W        W54660   2.764  27.215   2.220
89434W        W54661   3.709   4.231   0.453
89435W        W54662  44.798  32.828   4.702
89436W        W54663  29.659  38.445  14.672
89437W        W54664   9.101   2.506  14.965
89438W        W54665  41.845  23.020   1.727
89439W        W54666  16.532   1.189   2.886
89440W        W54667  32.035  12.646   0.022
89441W        W54668  19.997   3.849  13.955
89442W        W54669  35.552  33.932  11.618
89443W        W54670   6.007  19.707   4.514
89444W        W54671  19.970  13.051  14.821
89445W        W54672   0.475  38.032   2.792
89446W        W54673   2.743  22.879   1.375
89447W        W54674  41.053  12.366   1.485
89448W        W54675  16.961  39.443  12.961
89449W        W54676  35.856  24.212  11.065
89450W        W54677   1.499  18.105   2.865
89451W        W54678   9.615  20.157   0.494
89452W        W54679   3.941  28.375  12.420
89453W        W54680  34.630  15.905   0.340
89454W        W54681  22.616   9.806   3.437
89455W        W54682  28.930  39.121  13.487
89456W        W54683  19.657   4.877  11.544
89457W        W54684  34.066  30.933  14.509
89458W        W54685  29.431  41.901  13.751
89459W        W54686  43.134  27.393  12.938
89460W        W54687  12.068  16.407  10.203
89461W        W54688  33.582  14.558   4.141
89462W        W54689  43.257  21.568   1.891
89463W        W54690   0.476  16.799  13.138
89464W        W54691  30.364   5.427   0.268
89465W        W54692  40.515  27.094   1.164
89466W        W54693  21.569   0.312   3.469
89467W        W54694  17.066   5.108   1.619
89468W        W54695  12.707  22.471   3.139
89469W        W54696  42.020  17.788  13.543
89470W        W54697   9.007   3.410   4.043
89471W        W54698  35.089  14.233   2.434
89472W        W54699  30.666  12.365   0.256
89473W        W54700  37.700  14.554   0.341
89474W        W54701  44.396   3.597  11.177
89475W        W54702  19.075  32.638   0.409
89476W        W54703   7.053  11.139  14.067
89477W        W54704  35.411   7.461   3.655
89478W        W54705   0.457   2.695   2.977
89479W        W54706  37.145   7.290  12.689
89480W        W54707  34.453   6.356  13.943
89481W        W54708  30.227  42.856  11.696
89482W        W54709  14.334   0.229   2.409
89483W        W54710  38.749  21.771  10.653
89484W        W54711   4.980  28.930   1.313
89485W        W54712   5.778  32.126   2.762
89486W        W54713   1.280   8.728   3.487
89487W        W54714  22.070   9.874  12.994
89488W        W54715  43.400   4.090  14.491
89489W        W54716  30.958  26.570  14.832
89490W        W54717  15.094  21.732  13.880
89491W        W54718  38.826  21.774  14.479
89492W        W54719  13.734  41.327  13.065
89493W        W54720   8.873  27.597  14.750
89494W        W54721  29.048  21.035   9.801
89495W        W54722  35.127  14.411   0.327
89496W        W54723  23.964   4.292  11.666
89497W        W54724  12.407  27.054   3.644
89498W        W54725  22.742  37.668   1.480
89499W        W54726  27.968  34.309   3.748
89500W        W54727   0.391  39.554   2.195
89501W        W54728  34.972  24.708  14.894
89502W        W54729  30.991  14.096  12.102
89503W        W54730  39.395   5.255   1.691
89504W        W54731  19.105  12.275  12.302
89505W        W54732   2.360  41.390  10.675
89506W        W54733  17.592  28.189   0.898
89507W        W54734  10.194  11.342  14.929
89508W        W54735   8.244   4.886  12.853
89509W        W54736  37.525  44.146  14.231
89510W        W54737  44.855  28.688   0.531
89511W        W54738  33.147  31.978  11.096
89512W        W54739  20.985  41.408  10.245
89513W        W54740  36.261  28.877   1.947
89514W        W54741  29.894  17.804  11.527
89515W        W54742  38.542  26.665  10.692
89516W        W54743   7.167  40.399  12.029
89517W        W54744  13.598  18.206   3.067
89518W        W54745  15.299  36.532   3.009
89519W        W54746  31.881  15.281   2.355
89520W        W54747  27.840  25.858  13.933
89521W        W54748  31.409   1.570  14.480
89522W        W54749  11.552  36.155  14.406
89523W        W54750  23.583  17.159  10.738
89524W        W54751  43.398  32.985  10.661
89525W        W54752   7.382  38.830   3.338
89526W        W54753  16.763  12.098   0.892
89527W        W54754  15.642   6.325  11.002
89528W        W54755  36.547  16.078  11.695
89529W        W54756  23.711  35.852  13.872
89530W        W54757  22.314  41.791  12.553
89531W        W54758   2.802   3.004   1.776
89532W        W54759  20.979   5.937   0.401
89533W        W54760  23.701  18.526   2.378
89534W        W54761  31.052  13.361   4.022
89535W        W54762  33.119   6.831   3.101
89536W        W54763  40.837   1.183   1.344
89537W        W54764   6.286   4.453  12.385
89538W        W54765  40.606   2.887   2.324
89539W        W54766   3.297  34.884  10.809
89540W        W54767  33.905   7.967  12.422
89541W        W54768   5.672  16.165  14.774
89542W        W54769  40.413  37.433   0.537
89543W        W54770  41.130   8.588  12.949
89544W        W54771  18.075  39.897   1.483
89545W        W54772  36.750  31.703   3.211
89546W        W54773  44.945  25.540  14.014
89547W        W54774  17.541  37.631  12.243
89548W        W54775  16.860   5.343  14.868
89549W        W54776   0.165  12.706   2.913
89550W        W54777   9.690  41.911   0.932
89551W        W54778   4.436  19.959   0.363
89552W        W54779  42.439  11.897   3.758
89553W        W54780  33.442  22.819  13.329
89554W        W54781  40.516  18.670  10.076
89555W        W54782   3.958  35.531   4.383
89556W        W54783   1.315  10.904   1.022
89557W        W54784  14.664  11.215   0.510
89558W        W54785  12.118   5.000   4.038
89559W        W54786  31.844  29.674  10.888
89560W        W54787  21.438   9.208   0.745
89561W        W54788  17.797  34.096   3.730
89562W        W54789  24.075  30.878  13.994
89563W        W54790  25.321   2.743  12.983
89564W        W54791   9.473  28.973  11.140
89565W        W54792  30.625   6.401  14.384
89566W        W54793   4.734  11.625  12.512
89567W        W54794  22.981  25.075  11.148
89568W        W54795   5.291  23.380   4.536
89569W        W54796  22.913  20.629  10.127
89570W        W54797  38.622  20.133  11.514
89571W        W54798  28.678   5.406  11.664
89572W        W54799  30.946   7.802   4.148
89573W        W54800   1.139   8.080  11.652
89574W        W54801  11.362  17.981   3.247
89575W        W54802  35.998  15.076   0.702
89576W        W54803   7.993  27.925  11.672
89577W        W54804  10.307  39.106  13.883
89578W        W54805  40.864  20.111   0.446
89579W        W54806  35.328   3.324   1.351
89580W        W54807   8.586  11.005   2.006
89581W        W54808   9.893  28.120   4.890
89582W        W54809  14.853  24.051   4.025
89583W        W54810  21.500   9.160   4.307
89584W        W54811  24.712  42.085  11.213
89585W        W54812  34.145  25.370   1.722
89586W        W54813  34.144   3.324  12.612
89587W        W54814  26.287  10.355   4.000
89588W        W54815  43.341   5.199   0.942
89589W        W54816   9.162  21.990   0.480
89590W        W54817  23.272  20.035   1.058
89591W        W54818  11.298  11.127  12.667
89592W        W54819  29.565  33.101   2.406
89593W        W54820  21.506  44.238  11.472
89594W        W54821   2.526  43.966  11.705
89595W        W54822   0.031  39.336   3.149
89596W        W54823  15.383  17.598   3.167
89597W        W54824   8.753  41.951   1.409
89598W        W54825  24.208  36.555  13.867
89599W        W54826  16.112  39.170   0.753
89600W        W54827  32.451  21.296  12.937
89601W        W54828  26.069  38.804  14.988
89602W        W54829   9.197  21.557   3.960
89603W        W54830  35.798  28.698   1.778
89604W        W54831  28.081   1.901   2.227
89605W        W54832   7.553  33.864  14.243
89606W        W54833  32.593  20.320   3.382
89607W        W54834  13.552   1.343   4.107
89608W        W54835  37.765   0.005   3.788
89609W        W54836  29.903  20.627   1.754
89610W        W54837  28.056   2.105  13.469
89611W        W54838  32.591  17.887   1.964
89612W        W54839  33.255  17.055   3.162
89613W        W54840  21.199  14.180  14.891
89614W        W54841   0.759  35.809  12.562
89615W        W54842  37.021   3.992   3.637
89616W        W54843   6.102  33.613  10.055
89617W        W54844   4.796   0.707  11.226
89618W        W54845  24.721  36.700  13.904
89619W        W54846  10.496   8.862   3.065
89620W        W54847  41.742  30.386   0.335
89621W        W54848  37.930   4.906   3.789
89622W        W54849  40.329  28.759   4.413
89623W        W54850  39.850  38.334   0.314
89624W        W54851  37.323  29.562  14.633
89625W        W54852  11.847  22.980   4.714
89626W        W54853  23.778  29.503  11.170
89627W        W54854  13.454   6.848   4.336
89628W        W54855  15.157  23.191  11.992
89629W        W54856   2.469  14.059   0.207
89630W        W54857   4.186  43.545   2.234
89631W        W54858  12.814  19.178  13.014
89632W        W54859  10.081   4.487   2.580
89633W        W54860  29.504  17.733  14.747
89634W        W54861  37.616  20.631   0.806
89635W        W54862  41.958  14.257   0.761
89636W        W54863  26.089  12.601  13.598
89637W        W54864  44.301  17.279  14.166
89638W        W54865  42.605  44.160  11.095
89639W        W54866  14.551  23.651   0.012
89640W        W54867  36.960  33.190  12.703
89641W        W54868   3.930  37.793  10.747
89642W        W54869  39.383  37.762  12.312
89643W        W54870  27.334  15.484  12.943
89644W        W54871  27.457  15.122   4.249
89645W        W54872  32.210   6.377   0.035
89646W        W54873   2.943  18.269   1.754
89647W        W54874  33.547  18.170   0.514
89648W        W54875  40.115   3.215   3.155
89649W        W54876  32.117  25.540   0.225
89650W        W54877  30.655   3.919  14.310
89651W        W54878   8.745  31.152   3.102
89652W        W54879  24.049  41.608   1.939
89653W        W54880  14.314  20.448   1.177
89654W        W54881  36.267   7.600   1.755
89655W        W54882   8.230   8.156   4.928
89656W        W54883  26.393   0.797   2.167
89657W        W54884  30.113  25.021  11.251
89658W        W54885  16.976  20.584  10.402
89659W        W54886  15.269  31.735   1.973
89660W        W54887   1.263  39.304  14.918
89661W        W54888  22.496  16.680   4.000
89662W        W54889  12.690   5.554   3.195
89663W        W54890  15.788   7.315  10.741
89664W        W54891   4.127  44.347  13.088
89665W        W54892  16.847  22.492  13.884
89666W        W54893  39.984  14.141  12.481
89667W        W54894  26.671  32.511   2.901
89668W        W54895  22.077  44.696   4.097
89669W        W54896  10.364  13.567  14.371
89670W        W54897   2.650  13.814  11.166
89671W        W54898  40.085  35.545   2.667
89672W        W54899  14.920  30.869   4.171
89673W        W54900  41.395  11.578   2.684
89674W        W54901  21.178   7.668   4.120
89675W        W54902  33.908  27.501   3.406
89676W        W54903  33.510  11.149   2.394
89677W        W54904  15.312  37.828   3.630
89678W        W54905  25.974  28.980   4.111
89679W        W54906  24.723   6.784  12.710
89680W        W54907  21.136   6.774  12.113
89681W        W54908  31.602   7.126  13.838
89682W        W54909  39.875  18.164   2.260
89683W        W54910  37.302  35.527  12.426
89684W        W54911  12.965  18.693   1.196
89685W        W54912  24.849  44.799  12.002
89686W        W54913  10.328   5.471  12.566
89687W        W54914  34.860  33.776   0.990
89688W        W54915  11.875  38.683   2.588
89689W        W54916  19.796  40.307   1.764
89690W        W54917  14.323  10.190  13.326
89691W        W54918   1.721  27.079   3.108
89692W        W54919  44.370  43.026   4.184
89693W        W54920  37.961  37.558  13.388
89694W        W54921  30.376   1.944  11.543
89695W        W54922  14.876  40.508   3.639
89696W        W54923  19.581  10.290   0.334
89697W        W54924  11.845  15.517   4.893
89698W        W54925  32.383  36.972   3.313
89699W        W54926   1.378  16.053   0.115
89700W        W54927  16.678  28.983   4.605
89701W        W54928  10.748  16.336  13.014
89702W        W54929  39.211  38.972  12.445
89703W        W54930  12.696  17.168  12.983
89704W        W54931  28.492   3.319   1.413
89705W        W54932  42.989   9.658  13.912
89706W        W54933  29.181   8.104  13.152
89707W        W54934  30.292   2.940   0.341
89708W        W54935  34.209  38.095  12.432
89709W        W54936   0.668  28.200  12.012
89710W        W54937  12.818   3.622   4.612
89711W        W54938   7.829  29.308   2.606
89712W        W54939   8.903  40.827  13.441
89713W        W54940  39.411   4.640  12.854
89714W        W54941  38.847  19.295   9.893
89715W        W54942  44.453  19.158   4.243
89716W        W54943   5.006   0.525   0.344
89717W        W54944  12.058  14.801   0.341
89718W        W54945  31.075  15.756  10.114
89719W        W54946  33.869  32.864  10.464
89720W        W54947  28.444  36.493  14.202
89721W        W54948  41.826   4.964   0.098
89722W        W54949   1.017  25.547   4.947
89723W        W54950  29.963  18.834   1.363
89724W        W54951  23.288  17.211   3.102
89725W        W54952  24.665  28.137  12.962
89726W        W54953  44.390  32.954   1.482
89727W        W54954  43.459  19.755   2.333
89728W        W54955  13.331  23.504  14.439
89729W        W54956  23.038  27.602  12.055
89730W        W54957  40.048  43.980   1.695
89731W        W54958  36.708  39.898   4.702
89732W        W54959  29.491   8.651   0.959
89733W        W54960  28.585  18.381  11.061
89734W        W54961  38.291  41.268  10.784
89735W        W54962   1.289  41.499  12.977
89736W        W54963   4.798  26.383   4.983
89737W        W54964   3.191  11.202   2.293
89738W        W54965  41.777  33.056  10.455
89739W        W54966  42.916  43.435   3.654
89740W        W54967  41.654  39.600  10.697
89741W        W54968  31.002  24.980   1.858
89742W        W54969  12.452  27.155  13.795
89743W        W54970  34.947   1.354  13.811
89744W        W54971  37.981  21.784   1.488
89745W        W54972  36.433  39.640  12.055
89746W        W54973  31.492   9.052   0.373
89747W        W54974   8.632  28.625  13.061
89748W        W54975  18.123  13.087   0.928
89749W        W54976  43.593  26.533   3.485
89750W        W54977   2.173   2.347  14.508
89751W        W54978  27.963   8.428   3.632
89752W        W54979  14.264   4.383   3.585
89753W        W54980  31.118  44.955   3.532
89754W        W54981  30.224   1.894  13.474
89755W        W54982   1.521   6.342  12.010
89756W        W54983  20.515  11.164  14.251
89757W        W54984  38.618  25.224  14.774
89758W        W54985  20.812   3.984  14.928
89759W        W54986   9.899  30.705  12.095
89760W        W54987   0.822   2.956   3.596
89761W        W54988  43.742   5.783  11.540
89762W        W54989  31.204   1.171   4.449
89763W        W54990  32.064   5.078  11.065
89764W        W54991   8.438  13.088  10.298
89765W        W54992  38.354  43.388  12.557
89766W        W54993  17.349  19.736   1.791
89767W        W54994  26.147  22.794  11.570
89768W        W54995  14.251  41.452   0.085
89769W        W54996  27.215  36.658  12.936
89770W        W54997   8.703  42.043   2.275
89771W        W54998  32.371  18.337   1.143
89772W        W54999   7.948  23.126   3.152
89773W        W55000  24.276  35.993   4.586
89774W        W55001  31.977  26.909  13.090
89775W        W55002  33.376  26.030  13.335
89776W        W55003  20.576  19.980   4.578
89777W        W55004  20.208  32.950   3.662
89778W        W55005  16.641  27.147   4.635
89779W        W55006   2.668  28.131   2.306
89780W        W55007   6.642  42.955   2.245
89781W        W55008  15.562  21.516  13.944
89782W        W55009   4.226  22.669  11.864
89783W        W55010  25.978   3.725   3.450
89784W        W55011  42.055  41.298  12.898
89785W        W55012  25.022  29.930  10.465
89786W        W55013  36.396  30.104   4.093
89787W        W55014  15.014  26.053  11.222
89788W        W55015  38.408  29.129  12.359
89789W        W55016  15.708  12.391   3.508
89790W        W55017   4.743  19.434  13.055
89791W        W55018   9.232  23.926  12.151
89792W        W55019   7.468  14.129   5.455
89793W        W55020  13.975  35.607   1.856
89794W        W55021  44.508  18.456   4.910
89795W        W55022  31.351  14.422   1.849
89796W        W55023  31.327  23.940  13.094
89797W        W55024  36.158  37.214   4.078
89798W        W55025   7.823  24.753  13.851
89799W        W55026   8.975  42.848   2.776
89800W        W55027  40.455  30.467  10.688
89801W        W55028  39.398  28.442  13.497
89802W        W55029  33.452  28.148  13.144
89803W        W55030  28.638   0.022  14.508
89804W        W55031   7.241  31.433   1.185
89805W        W55032   3.661  29.431   3.653
89806W        W55033  44.319   2.891   2.460
89807W        W55034  22.983  17.441   2.778
89808W        W55035  12.776  30.149   2.312
89809W        W55036  40.348  22.097   4.210
89810W        W55037   2.521  26.036   1.934
89811W        W55038  17.033  31.489   2.900
89812W        W55039   2.721  29.895   4.626
89813W        W55040   5.264  29.969  11.231
89814W        W55041  31.876  34.634   1.178
89815W        W55042   3.527  12.775   0.836
89816W        W55043  35.864  21.168   0.776
89817W        W55044  15.064  40.377   0.036
89818W        W55045  27.377  31.482  10.748
89819W        W55046   8.364  12.459  13.637
89820W        W55047  42.436  42.155   4.088
89821W        W55048  30.057  42.861  13.584
89822W        W55049  44.603  28.279   4.624
89823W        W55050   5.544  18.712   1.376
89824W        W55051  14.145  32.947   2.778
89825W        W55052  27.240  33.072  12.715
89826W        W55053  32.797  26.615   0.797
89827W        W55054  44.829  15.658  12.115
89828W        W55055  30.475  16.753   3.631
89829W        W55056  35.411  24.749   1.365
89830W        W55057  18.111   5.409  12.114
89831W        W55058  11.278  14.082   0.720
89832W        W55059  21.721   7.308   1.589
89833W        W55060  32.796   1.324  14.316
89834W        W55061   3.341  25.638  12.842
89835W        W55062  26.667  21.767  13.917
89836W        W55063  24.908   8.114   0.365
89837W        W55064  32.500  31.508   1.677
89838W        W55065  33.887   3.413  13.050
89839W        W55066  17.270   2.898  14.866
89840W        W55067  25.925   7.641  11.746
89841W        W55068   3.657  25.589   4.837
89842W        W55069   1.027   7.935   3.690
89843W        W55070   0.373  12.644   4.106
89844W        W55071  28.459   6.659   2.009
89845W        W55072  27.590   4.639  11.649
89846W        W55073  42.246   8.271   1.250
89847W        W55074  43.961  32.530   3.061
89848W        W55075  10.349  29.027  10.700
89849W        W55076  23.972  36.687   2.670
89850W        W55077  12.318   4.878  11.690
89851W        W55078   1.661   5.975  14.084
89852W        W55079  43.996  14.390   0.938
89853W        W55080  43.695  36.041   3.333
89854W        W55081  41.616   4.449  14.228
89855W        W55082  29.239   6.519   1.235
89856W        W55083  27.515   5.407  14.626
89857W        W55084  14.354   4.197  11.138
89858W        W55085   1.652  19.491   5.441
89859W        W55086  20.653  24.188  14.372
89860W        W55087  11.520  29.025   2.351
89861W        W55088  28.875  28.919   3.791
89862W        W55089  38.070  20.909  14.484
89863W        W55090  35.001   9.305   1.365
89864W        W55091  41.896   2.245   1.745
89865W        W55092   8.155  38.108   1.303
89866W        W55093  38.124   4.978  12.937
89867W        W55094  33.826   3.854   3.966
89868W        W55095  44.410  26.647   0.842
89869W        W55096  24.632  30.084  14.609
89870W        W55097  37.415  28.699   1.000
89871W        W55098  21.914  32.679  13.806
89872W        W55099  33.963  27.212  10.099
89873W        W55100  33.342  11.320   1.860
89874W        W55101   7.149  40.810  13.510
89875W        W55102  19.486  11.334  14.467
89876W        W55103   4.391  21.610  13.999
89877W        W55104  38.259  18.293   1.803
89878W        W55105   2.801  39.735   1.202
89879W        W55106  37.860   0.711  13.317
89880W        W55107  12.660  25.541  13.490
89881W        W55108  43.960   7.321  12.667
89882W        W55109  28.634  43.531  11.965
89883W        W55110  41.477   1.764   0.294
89884W        W55111   1.215  17.615   1.704
89885W        W55112  40.523  33.559   2.179
89886W        W55113  34.981   8.899   1.744
89887W        W55114  31.135  40.854   3.233
89888W        W55115   5.622  15.537   4.506
89889W        W55116  38.409  42.318   4.314
89890W        W55117  44.704   3.679   4.258
89891W        W55118  34.888  14.136   0.710
89892W        W55119  22.773  34.320  14.044
89893W        W55120  42.780  37.467  11.658
89894W        W55121  35.104  14.273   3.863
89895W        W55122  44.733  21.716   1.796
89896W        W55123  23.863   4.240  10.815
89897W        W55124  40.787  44.856  11.498
89898W        W55125  26.628  30.930   1.872
89899W        W55126   0.353  16.252   0.479
89900W        W55127  24.575  13.371   0.365
89901W        W55128  42.072   9.134   1.171
89902W        W55129  25.493  37.878  14.086
89903W        W55130  30.142  14.267   2.674
89904W        W55131  18.322  31.180  12.478
89905W        W55132   2.772  33.013  14.711
89906W        W55133   1.599  35.694  14.235
89907W        W55134  31.987   8.816  11.206
89908W        W55135  34.725  35.003  10.533
89909W        W55136  25.634  17.355   0.930
89910W        W55137  14.294  26.794  11.513
89911W        W55138  25.684  36.689  12.952
89912W        W55139  35.115  28.670  13.870
89913W        W55140  10.725  11.342   5.092
89914W        W55141  30.720  11.286  14.422
89915W        W55142  40.350  21.766   2.775
89916W        W55143   1.419  41.184  13.357
89917W        W55144  20.723  37.295  11.094
89918W        W55145  33.512  40.549  14.411
89919W        W55146  16.364  16.150  10.591
89920W        W55147  16.149  35.052   2.735
89921W        W55148  43.650  16.151  14.378
89922W        W55149   5.893  13.681  12.424
89923W        W55150  30.641   3.733   2.219
89924W        W55151  32.369  39.358   4.907
89925W        W55152  29.944  26.181   1.927
89926W        W55153   3.859  32.631   2.440
89927W        W55154  21.479  38.061   0.597
89928W        W55155  37.806  11.174   2.420
89929W        W55156  44.222   7.277  11.794
89930W        W55157  13.965   0.304   1.460
89931W        W55158  35.023  43.073   2.769
89932W        W55159  32.102   4.298   2.892
89933W        W55160  32.223  34.766   0.745
89934W        W55161  39.520  32.187   2.946
89935W        W55162  25.270  13.531  11.479
89936W        W55163  18.315  36.854  12.060
89937W        W55164  35.039   0.011  13.464
89938W        W55165  32.703  32.957  11.987
89939W        W55166  25.815  11.970  12.565
89940W        W55167   3.160  25.069   2.709
89941W        W55168  19.637   0.493  14.965
89942W        W55169   7.034  12.980  11.439
89943W        W55170   4.303  41.082  14.015
89944W        W55171  12.711   2.628   0.876
89945W        W55172  36.180   3.921   2.659
89946W        W55173  25.554  42.612  10.922
89947W        W55174   0.977  13.168   2.431
89948W        W55175  36.867   3.811   4.690
89949W        W55176  44.284  17.747   1.249
89950W        W55177  27.157  38.799  13.079
89951W        W55178   0.320  42.509  14.050
89952W        W55179   1.058  10.293   1.292
89953W        W55180  44.551  30.520   3.467
89954W        W55181   4.980   1.784   0.761
89955W        W55182  14.263  31.434  10.690
89956W        W55183  17.170  11.437  13.761
89957W        W55184  27.628  28.388  10.625
89958W        W55185  38.128  14.987   1.273
89959W        W55186  22.191  21.272  12.469
89960W        W55187  22.678  36.969   2.137
89961W        W55188  30.879  20.172  11.732
89962W        W55189  40.442  13.420  11.541
89963W        W55190  33.150   1.204   3.522
89964W        W55191  18.625  30.090  14.086
89965W        W55192  17.507  35.939   0.293
89966W        W55193   3.712  42.499  10.074
89967W        W55194  42.042  39.585   0.836
89968W        W55195   6.026  33.654   1.202
89969W        W55196  12.697   9.655  12.099
89970W        W55197  32.567  31.459  10.649
89971W        W55198  37.437  36.737  14.270
89972W        W55199  26.610  14.101  13.597
89973W        W55200  16.371  13.748  10.681
89974W        W55201  39.241  21.698   0.331
89975W        W55202   0.326  30.593  12.393
89976W        W55203  30.440  42.533  13.444
89977W        W55204  18.017   8.814   3.104
89978W        W55205  25.110  18.120   4.332
89979W        W55206   5.822  33.282   3.638
89980W        W55207  42.319   5.775   3.843
89981W        W55208  20.152  31.434  14.286
89982W        W55209  26.525  13.082  12.537
89983W        W55210  34.822  41.897   4.534
89984W        W55211  22.793  30.020  12.358
89985W        W55212   9.672  22.338  14.656
89986W        W55213  23.052  44.793  11.483
89987W        W55214   4.302  32.152  11.237
89988W        W55215   3.765  34.437  10.760
89989W        W55216   2.035  11.492  12.955
89990W        W55217  42.783  28.964   0.737
89991W        W55218  27.031   2.896  12.358
89992W        W55219  20.957  38.995   0.935
89993W        W55220  24.287  13.317   1.375
89994W        W55221  22.923   2.536  11.171
89995W        W55222  16.092  39.700   0.775
89996W        W55223  13.795  44.856  13.419
89997W        W55224  31.492   6.266   2.315
89998W        W55225  41.522  33.867   1.370
89999W        W55226  25.097  25.101   2.671
90000W        W55227  18.315  29.388  11.847
90001W        W55228  23.532   9.250  12.078
90002W        W55229  21.038   4.989   4.240
90003W        W55230   8.400  17.175  11.109
90004W        W55231  14.393  29.639   3.325
90005W        W55232  28.799  27.056  14.549
90006W        W55233  43.346   1.329   2.906
90007W        W55234   8.808  27.459  11.858
90008W        W55235  28.413  21.351  11.282
90009W        W55236   4.055  31.539   3.075
90010W        W55237  16.770  13.762   2.859
90011W        W55238  26.561  19.096  13.784
90012W        W55239  18.660  38.843   3.775
90013W        W55240  37.296  22.921  13.861
90014W        W55241  13.997  40.352  12.035
90015W        W55242  41.251  21.170  14.728
90016W        W55243  27.437   7.091  11.178
90017W        W55244  38.035   4.273   1.730
90018W        W55245  36.665  26.088   1.495
90019W        W55246  19.532  20.065   1.434
90020W        W55247  20.538  11.557   2.478
90021W        W55248   9.754   3.481   3.179
90022W        W55249  14.231   2.640   4.029
90023W        W55250  27.029  41.493   3.938
90024W        W55251  13.220  10.299   1.332
90025W        W55252   1.500  19.393   9.885
90026W        W55253  33.674  43.723  14.847
90027W        W55254   5.429   4.792  14.247
90028W        W55255  10.162  12.771  14.895
90029W        W55256   1.884  33.326   5.036
90030W        W55257   2.375  16.547   3.866
90031W        W55258   9.766  16.766  13.350
90032W        W55259  19.078  21.611   4.238
90033W        W55260   2.169  27.701  12.173
90034W        W55261   1.018  23.120   4.146
90035W        W55262  22.605   7.404   2.159
90036W        W55263  27.429  40.854   0.736
90037W        W55264  43.029  20.015  13.752
90038W        W55265  19.325  38.773  13.938
90039W        W55266   5.359   9.780   3.123
90040W        W55267  36.062  42.586   1.606
90041W        W55268  40.946  14.747   3.143
90042W        W55269  25.180  23.955   2.267
90043W        W55270  29.148   0.365  10.831
90044W        W55271  17.049   7.765   0.933
90045W        W55272  23.996  15.791   2.145
90046W        W55273   2.969   5.406   2.439
90047W        W55274  36.831  34.835   1.724
90048W        W55275  25.069  27.900   5.137
90049W        W55276  43.179  42.859   3.182
90050W        W55277  26.088  21.175   4.358
90051W        W55278  32.389  37.539  14.399
90052W        W55279  19.750   4.919   3.730
90053W        W55280  34.817  32.389   2.077
90054W        W55281  27.401   0.341   2.674
90055W        W55282  38.354  32.033  11.667
90056W        W55283  31.929  21.064  14.446
90057W        W55284  30.646  12.609   2.215
90058W        W55285  18.918  35.234   2.103
90059W        W55286  10.419  40.925  13.532
90060W        W55287   9.166   1.423   1.644
90061W        W55288   7.363   7.544  11.660
90062W        W55289  14.643  43.220   1.302
90063W        W55290   1.526  19.695   4.977
90064W        W55291  16.271  32.321   3.655
90065W        W55292  22.491  19.700  10.721
90066W        W55293  42.058  43.718   3.278
90067W        W55294   4.805  35.458   3.793
90068W        W55295   7.197  19.476  10.857
90069W        W55296   1.826  35.824  10.968
90070W        W55297  29.156  13.336  14.818
90071W        W55298  42.944   1.509   2.659
90072W        W55299  31.887  16.572   1.378
90073W        W55300  12.312  36.951  11.123
90074W        W55301  18.979  37.466  13.484
90075W        W55302  24.494  36.307  14.247
90076W        W55303  18.638  25.770  13.114
90077W        W55304  41.460   7.816  13.448
90078W        W55305  23.753   3.405   0.750
90079W        W55306  40.778  24.490  12.999
90080W        W55307  35.019  10.903  13.848
90081W        W55308  25.478  37.043   3.260
90082W        W55309  43.179   6.599   1.141
90083W        W55310  26.719  34.034   2.346
90084W        W55311   4.154   5.247   3.213
90085W        W55312  13.135   5.597  14.247
90086W        W55313  11.417  37.836  10.596
90087W        W55314   1.948  44.220  14.704
90088W        W55315  29.548   7.450  14.493
90089W        W55316   6.437   4.117  12.755
90090W        W55317  30.480  38.402   0.989
90091W        W55318  21.721   1.778  14.068
90092W        W55319  16.288  21.770  12.365
90093W        W55320   7.181  10.400   0.484
90094W        W55321  43.264  22.125  11.459
90095W        W55322   3.085  25.368  11.885
90096W        W55323  19.069   2.924  14.414
90097W        W55324  44.994  33.227   3.702
90098W        W55325   2.534  25.520  13.111
90099W        W55326  21.233  20.641   0.750
90100W        W55327  36.502   2.882  13.360
90101W        W55328  38.016  32.536  11.700
90102W        W55329  10.983   1.935  13.571
90103W        W55330  43.280  13.099   3.224
90104W        W55331  42.825  43.817   1.387
90105W        W55332   2.649   1.356   0.773
90106W        W55333  21.631   4.464  10.239
90107W        W55334  11.487  44.697   3.575
90108W        W55335  32.140  34.038   4.257
90109W        W55336   1.528  34.531  14.437
90110W        W55337  34.051  19.138   2.798
90111W        W55338   1.204  27.581  14.951
90112W        W55339  40.831  44.425  13.920
90113W        W55340  44.465  39.963  10.324
90114W        W55341   5.574  40.429  11.466
90115W        W55342  10.198  11.694  11.577
90116W        W55343  29.646   3.210   3.514
90117W        W55344  34.469  43.212  10.752
90118W        W55345  23.885   9.098  11.253
90119W        W55346  28.422   5.745   3.818
90120W        W55347   6.629  17.195   4.436
90121W        W55348  42.730  20.409   2.038
90122W        W55349  17.608  38.858  12.430
90123W        W55350  16.668   3.240  14.482
90124W        W55351  42.048  28.455   3.751
90125W        W55352   3.669  19.210  13.861
90126W        W55353  26.506  32.717  14.858
90127W        W55354   0.044   0.493  12.902
90128W        W55355  44.733  12.616  12.528
90129W        W55356   6.790  31.907  11.266
90130W        W55357   0.255  19.099   0.360
90131W        W55358  44.889  34.947   2.350
90132W        W55359  26.595  29.571   3.319
90133W        W55360  11.048  25.121  14.272
90134W        W55361  33.837  26.487   4.159
90135W        W55362  33.886  33.966   1.756
90136W        W55363  28.497   9.922  12.625
90137W        W55364  27.611   4.665  13.940
90138W        W55365  14.747  22.333   3.218
90139W        W55366   7.327  19.447  11.329
90140W        W55367  30.870  19.669  11.558
90141W        W55368  40.019  33.152   3.079
90142W        W55369  29.227  15.601   2.335
90143W        W55370   4.312  42.046   2.636
90144W        W55371   4.195   5.424  14.411
90145W        W55372  18.173  32.777   2.794
90146W        W55373   6.752  33.038   0.291
90147W        W55374  41.095  22.538   2.322
90148W        W55375  28.111  28.638   3.924
90149W        W55376  33.952  32.536  11.938
90150W        W55377  37.410  34.813   4.617
90151W        W55378  38.833   8.884   4.484
90152W        W55379  42.127  17.110   2.713
90153W        W55380  37.750  22.445  13.346
90154W        W55381   9.199  34.112  12.108
90155W        W55382  21.601  41.271  14.464
90156W        W55383  30.217  40.980  12.845
90157W        W55384  44.746  36.519  11.848
90158W        W55385  37.990  36.482  13.512
90159W        W55386  37.379  15.178  14.463
90160W        W55387  20.604  39.404   4.138
90161W        W55388  36.027   9.297   3.664
90162W        W55389  39.502  43.961  10.561
90163W        W55390  34.676  38.237  12.249
90164W        W55391  33.388  25.394  11.523
90165W        W55392  21.049  25.462   4.043
90166W        W55393  23.776  36.920   0.048
90167W        W55394  19.126  34.400  10.682
90168W        W55395   5.778  20.807  11.857
90169W        W55396  13.844  23.597  12.597
90170W        W55397  33.415  37.544   2.303
90171W        W55398   4.056  23.235  10.668
90172W        W55399   2.513  13.709   4.776
90173W        W55400  43.880  15.272  12.874
90174W        W55401   6.489  23.058  12.539
90175W        W55402   8.550   5.993   1.246
90176W        W55403  18.514  10.913  14.728
90177W        W55404  12.077  35.641  10.687
90178W        W55405  34.673  21.562   0.341
90179W        W55406  19.939  40.401  11.274
90180W        W55407  38.109  17.431  12.105
90181W        W55408  28.467  14.597   2.547
90182W        W55409  21.269  20.925   2.019
90183W        W55410  32.406  10.283  13.421
90184W        W55411  18.583  44.790   3.813
90185W        W55412  39.802  18.052   1.417
90186W        W55413  38.583  18.243   0.781
90187W        W55414  32.625   5.670   3.379
90188W        W55415  30.004   4.928   4.677
90189W        W55416  15.243  12.079  11.396
90190W        W55417   3.121  42.910   3.356
90191W        W55418  34.070  30.589   1.533
90192W        W55419  22.323   9.950   2.106
90193W        W55420  29.890  23.152   3.943
90194W        W55421  39.036  31.042   1.844
90195W        W55422   8.711  36.134   4.156
90196W        W55423  14.587   8.071  12.023
90197W        W55424  26.057  41.941  13.079
90198W        W55425  21.339  33.652  13.252
90199W        W55426  20.774   7.881  14.483
90200W        W55427  40.562  33.080   4.325
90201W        W55428   0.059   4.302   2.244
90202W        W55429  14.880  17.822   0.818
90203W        W55430  21.269   1.190   0.992
90204W        W55431  35.606  44.556   0.361
90205W        W55432  30.767  37.979   0.773
90206W        W55433  15.470  16.460   2.566
90207W        W55434  30.834  21.666  11.010
90208W        W55435   9.461  22.312   3.306
90209W        W55436  22.442   9.376   2.210
90210W        W55437  30.925  41.244  11.109
90211W        W55438  21.168  32.078  14.903
90212W        W55439   2.338  21.749   3.247
90213W        W55440  26.479  13.461  11.240
90214W        W55441  21.789  17.614   1.937
90215W        W55442  40.048  19.034  11.916
90216W        W55443  27.751  22.148  12.028
90217W        W55444   5.267  15.214  13.649
90218W        W55445  24.728  19.182  11.594
90219W        W55446  41.196  17.299   3.663
90220W        W55447  40.966  22.297  13.541
90221W        W55448   3.217  31.033   0.864
90222W        W55449  36.223   8.237  11.245
90223W        W55450  13.694  28.862   4.365
90224W        W55451  23.976  33.637   0.340
90225W        W55452  42.085  25.479   3.701
90226W        W55453  42.723  22.364  14.564
90227W        W55454  31.114  11.407  10.078
90228W        W55455  20.797  22.493   0.305
90229W        W55456   9.994  26.067   2.749
90230W        W55457  38.070  30.130  14.412
90231W        W55458   3.240  22.874  12.836
90232W        W55459  26.110  30.015   0.821
90233W        W55460  34.523   9.825   4.593
90234W        W55461  24.398  28.061   4.556
90235W        W55462  37.921  40.012  11.158
90236W        W55463  23.113  16.811  11.993
90237W        W55464  38.776  26.944  13.953
90238W        W55465   8.950  39.594  13.322
90239W        W55466  24.340  28.032   3.814
90240W        W55467  39.879  20.159  10.899
90241W        W55468   7.350   5.826   4.161
90242W        W55469  19.104   3.971  12.376
90243W        W55470  22.392   2.569  11.177
90244W        W55471  39.598  44.722   1.298
90245W        W55472   1.460  12.481   2.651
90246W        W55473  29.204  30.237  13.732
90247W        W55474   4.754  25.258   2.169
90248W        W55475  36.274  14.588  11.728
90249W        W55476  11.710  30.712  12.046
90250W        W55477  36.988  29.510   2.290
90251W        W55478  30.216  26.983   0.882
90252W        W55479  26.146   9.711  14.283
90253W        W55480  26.168  40.805   3.126
90254W        W55481  14.133  11.280   1.439
90255W        W55482  44.428  20.732   0.378
90256W        W55483  18.177   3.742  11.582
90257W        W55484  32.496  17.854   1.307
90258W        W55485  43.551  41.749   3.528
90259W        W55486  31.458  21.306   2.698
90260W        W55487  37.430  39.913   2.608
90261W        W55488   4.409  37.151   3.186
90262W        W55489  10.154  39.096  12.136
90263W        W55490  13.244  16.499  13.508
90264W        W55491  31.093   4.958  13.997
90265W        W55492  13.591  11.412  11.177
90266W        W55493  26.112   9.221  13.510
90267W        W55494  31.572  33.567   4.618
90268W        W55495  32.097  44.021   2.599
90269W        W55496  18.523  11.320  12.470
90270W        W55497   4.194  30.591   3.936
90271W        W55498  31.302  25.511   9.749
90272W        W55499  13.192   5.981   4.740
90273W        W55500  43.914  39.283  13.041
90274W        W55501  15.757  36.049  13.878
90275W        W55502  39.669   1.018  10.800
90276W        W55503  14.833  21.672  10.431
90277W        W55504   2.989  28.587  12.555
90278W        W55505  24.698   0.320  12.932
90279W        W55506  25.873  26.108  14.059
90280W        W55507  20.348  41.733  12.086
90281W        W55508  33.033   0.686   3.547
90282W        W55509  42.744  27.499  11.617
90283W        W55510  22.446  41.841  14.288
90284W        W55511   8.677  37.948  13.554
90285W        W55512  34.476  17.836   4.681
90286W        W55513  35.950  23.233  14.426
90287W        W55514  26.452  26.916  12.003
90288W        W55515   2.809  39.565   1.729
90289W        W55516  31.401  20.974  14.428
90290W        W55517  21.487  20.088   1.369
90291W        W55518  15.324  37.145  12.917
90292W        W55519  14.199  28.728   4.450
90293W        W55520   3.955  32.940  11.632
90294W        W55521   7.424  18.101  13.977
90295W        W55522  12.765  39.892  12.584
90296W        W55523   2.511  32.014  11.914
90297W        W55524  23.762  34.913  11.671
90298W        W55525  29.149  41.266   3.723
90299W        W55526  26.598  43.464   9.877
90300W        W55527  21.166   8.436   4.591
90301W        W55528   0.246  21.594  12.157
90302W        W55529  28.096  41.220  13.417
90303W        W55530  41.736  39.012  12.648
90304W        W55531  24.751  34.432   3.627
90305W        W55532  31.976  26.205  12.296
90306W        W55533  42.267  39.014   4.304
90307W        W55534   5.538  37.988   0.329
90308W        W55535  11.073   6.157  12.012
90309W        W55536  36.458  24.378   3.769
90310W        W55537  13.181   2.892  11.543
90311W        W55538  26.291  40.357  10.886
90312W        W55539  20.955  16.831  13.883
90313W        W55540  14.052  37.959   0.863
90314W        W55541  35.121  15.047  13.074
90315W        W55542  27.060  13.349   4.646
90316W        W55543  19.027   7.864  12.093
90317W        W55544  27.103  32.201   0.266
90318W        W55545  39.517  18.342  12.815
90319W        W55546  16.629  36.513  11.865
90320W        W55547  31.923   3.012  12.935
90321W        W55548   3.903  32.506  10.502
90322W        W55549   5.468   7.205   1.879
90323W        W55550  14.078  18.757  14.511
90324W        W55551  24.110  43.493   2.930
90325W        W55552   7.154  30.115   0.895
90326W        W55553   4.069  27.185   1.830
90327W        W55554   4.845  44.785   0.751
90328W        W55555  12.172  26.731  14.027
90329W        W55556  18.194  34.444   0.142
90330W        W55557  21.644  19.508  10.496
90331W        W55558  14.182  26.089  13.451
90332W        W55559  21.043  35.112  13.288
90333W        W55560   6.675  21.091  13.021
90334W        W55561  36.797  29.076   4.829
90335W        W55562  13.843  28.243   0.351
90336W        W55563  19.283  36.901   1.711
90337W        W55564  26.173  27.651   2.399
90338W        W55565  32.907  23.993   0.718
90339W        W55566  34.330  41.278   1.905
90340W        W55567  29.625  43.506  11.595
90341W        W55568  34.922  20.003   4.662
90342W        W55569  28.766   3.685  13.993
90343W        W55570  39.341  34.010   0.707
90344W        W55571  19.759  26.475   1.255
90345W        W55572  35.435  29.550   1.334
90346W        W55573  32.200   8.435  11.997
90347W        W55574  28.826  14.349  10.727
90348W        W55575  25.624  40.782   2.387
90349W        W55576  35.920   2.508   0.432
90350W        W55577  41.896   1.294   3.841
90351W        W55578  28.030   1.732  14.937
90352W        W55579  23.561  19.562   2.372
90353W        W55580  37.847  13.782  14.852
90354W        W55581  38.495  25.112   4.154
90355W        W55582  13.618  42.896   3.271
90356W        W55583  33.444  33.656  12.838
90357W        W55584   9.645   8.951  14.343
90358W        W55585  35.676   7.647  13.588
90359W        W55586  27.399  28.237   0.486
90360W        W55587  12.269  10.423  12.073
90361W        W55588   0.893   2.483   0.503
90362W        W55589   7.199  17.118   2.764
90363W        W55590  18.607  27.377   2.205
90364W        W55591  33.895   7.217   3.773
90365W        W55592  40.932  28.774  11.072
90366W        W55593  26.771   3.353  14.344
90367W        W55594  21.227  41.600   1.985
90368W        W55595  25.665  42.768   3.581
90369W        W55596  14.320   5.280  14.040
90370W        W55597  37.151  24.088  14.617
90371W        W55598  17.184  12.280   1.857
90372W        W55599  34.398  19.570   4.013
90373W        W55600  16.183  24.726   1.348
90374W        W55601  17.507  40.585   1.069
90375W        W55602  22.237   3.231  13.952
90376W        W55603  19.429  31.758   2.692
90377W        W55604  23.158  44.885  11.969
90378W        W55605  39.051  28.795  13.321
90379W        W55606  14.142  38.127   0.380
90380W        W55607  29.706  13.181  14.033
90381W        W55608  15.797  12.798   0.316
90382W        W55609   8.841  15.825   3.543
90383W        W55610  41.493  13.075  10.678
90384W        W55611  28.655  37.329   3.205
90385W        W55612  39.965  36.901   1.488
90386W        W55613   1.517   2.795  10.385
90387W        W55614  27.666   0.383  13.736
90388W        W55615  37.123  24.686   1.946
90389W        W55616  28.498  30.563  14.345
90390W        W55617  38.366  16.215  14.022
90391W        W55618  28.994  12.346   5.033
90392W        W55619  33.920  39.583  12.961
90393W        W55620  36.971   0.945  12.153
90394W        W55621  15.186  22.604   3.105
90395W        W55622  12.942  29.603  14.351
90396W        W55623  21.025  21.393   1.283
90397W        W55624  11.210  42.571  14.775
90398W        W55625  13.816  42.787  11.984
90399W        W55626  44.439  44.398  10.694
90400W        W55627  25.415   4.361  11.598
90401W        W55628  20.059  44.775   2.516
90402W        W55629   4.493   6.902   2.726
90403W        W55630  19.081  22.032   2.372
90404W        W55631  37.311  34.554   2.319
90405W        W55632   7.396  42.786  13.997
90406W        W55633  32.165  29.039  11.985
90407W        W55634   4.603   4.363  14.375
90408W        W55635  29.534   0.560  11.154
90409W        W55636  31.586  28.747   4.629
90410W        W55637  22.310  23.768   3.658
90411W        W55638  12.964  38.008  13.160
90412W        W55639   9.256  39.303  14.836
90413W        W55640  44.202  23.855   1.729
90414W        W55641  30.066  33.633   4.067
90415W        W55642   9.248  38.140  10.710
90416W        W55643  33.821   1.723  11.110
90417W        W55644  26.065  30.656  13.132
90418W        W55645   3.869  34.335   3.353
90419W        W55646  26.118  33.175  12.052
90420W        W55647  20.378  31.930   4.784
90421W        W55648  28.556  18.659  10.636
90422W        W55649  36.334  16.386   0.269
90423W        W55650  42.140  43.419  12.628
90424W        W55651  36.965  23.065  13.041
90425W        W55652   8.856   7.264   2.896
90426W        W55653   3.940  25.717   0.847
90427W        W55654  36.324  11.149   3.737
90428W        W55655  13.177  42.445  14.949
90429W        W55656  14.885  44.301   0.499
90430W        W55657  11.711  12.731  13.383
90431W        W55658   3.015  36.887   4.204
90432W        W55659   6.420  20.785  13.432
90433W        W55660  22.411  43.996  12.437
90434W        W55661   5.285  36.086   2.308
90435W        W55662  19.929  33.088   2.796
90436W        W55663   9.281   7.380  11.631
90437W        W55664   5.385  30.161   9.915
90438W        W55665  32.965  35.730   3.672
90439W        W55666  40.008  13.261  12.613
90440W        W55667  37.518  13.191  13.749
90441W        W55668  34.372  26.567   2.248
90442W        W55669  28.832   4.804  13.360
90443W        W55670  24.247  16.916  13.828
90444W        W55671  25.613  40.087   1.913
90445W        W55672  24.632  13.327  12.070
90446W        W55673   0.141   5.153   0.281
90447W        W55674   1.822  40.517   1.827
90448W        W55675  39.454  19.723   3.275
90449W        W55676  41.311   1.266   4.522
90450W        W55677   2.230  13.356   3.662
90451W        W55678   9.354  35.811   0.255
90452W        W55679  29.049  41.458  11.038
90453W        W55680   1.366  31.843   2.218
90454W        W55681  11.687  31.589  12.350
90455W        W55682  41.377  23.887   2.257
90456W        W55683   6.381  31.478  10.503
90457W        W55684   0.545  35.806  11.155
90458W        W55685  26.185  37.209   3.093
90459W        W55686   3.403  43.942  13.437
90460W        W55687  12.235  43.074   3.438
90461W        W55688   7.911  17.384  11.129
90462W        W55689  20.047  20.009   0.974
90463W        W55690  37.972  27.423  11.970
90464W        W55691  20.334  11.658  14.412
90465W        W55692  34.892  19.212  12.130
90466W        W55693  43.460  38.009  11.259
90467W        W55694  27.672  23.619   1.317
90468W        W55695  26.721  34.554  13.136
90469W        W55696  18.538  13.837   4.182
90470W        W55697   5.865  20.176  11.108
90471W        W55698  14.217  35.114   2.641
90472W        W55699  17.574  25.126   3.269
90473W        W55700   0.779  35.369  13.630
90474W        W55701  14.846  44.938  14.522
90475W        W55702  18.785  29.505   0.631
90476W        W55703   5.428   4.881   3.682
90477W        W55704  27.539  25.691   4.632
90478W        W55705  11.158   4.837  10.691
90479W        W55706  23.244  32.657   0.905
90480W        W55707  25.508  42.361  14.780
90481W        W55708  30.876  18.481   0.473
90482W        W55709  34.256  39.826  10.325
90483W        W55710   6.362  24.036  12.264
90484W        W55711  35.829   6.135  11.967
90485W        W55712  27.240  21.378   0.744
90486W        W55713  21.483  17.550  11.087
90487W        W55714   1.379  44.409  13.635
90488W        W55715  44.763  42.921  12.525
90489W        W55716  31.402  20.762   1.069
90490W        W55717  16.071   5.015   2.742
90491W        W55718  18.169  27.445   2.492
90492W        W55719   1.219  20.116   5.036
90493W        W55720  24.058  34.084   4.132
90494W        W55721  28.179  18.049  12.132
90495W        W55722  27.023  19.237   4.120
90496W        W55723  15.906  28.827   1.952
90497W        W55724  32.208   3.419  11.674
90498W        W55725  41.837  15.118  14.811
90499W        W55726  30.369  32.143   1.846
90500W        W55727  12.286  30.050   4.203
90501W        W55728  36.815   4.835  14.883
90502W        W55729  39.182   3.811   2.251
90503W        W55730  42.000  10.108  11.691
90504W        W55731  33.114  42.852  14.073
90505W        W55732  27.503  30.476  11.357
90506W        W55733  32.828  10.192  11.037
90507W        W55734  17.557  36.999   0.806
90508W        W55735  19.484   1.541  12.476
90509W        W55736  16.430  34.846  14.847
90510W        W55737  16.110  43.010   4.990
90511W        W55738  34.679  28.245   0.298
90512W        W55739   8.272  26.724  13.459
90513W        W55740  27.861   0.680  14.584
90514W        W55741  22.203  33.568   2.275
90515W        W55742  36.730   9.453   1.688
90516W        W55743   6.698  24.030  14.975
90517W        W55744  34.045   7.771  12.945
90518W        W55745  44.500  19.132  11.992
90519W        W55746  42.066  13.663  12.000
90520W        W55747  35.260  27.957  13.081
90521W        W55748  16.249  34.552   0.417
90522W        W55749  41.497  21.789  13.976
90523W        W55750  35.966   9.858  13.943
90524W        W55751   6.888  42.868  12.687
90525W        W55752  25.094  14.859  11.184
90526W        W55753   5.976  31.451   4.696
90527W        W55754  11.195  17.496   1.343
90528W        W55755  19.529  38.063  13.172
90529W        W55756  44.979  42.999   3.424
90530W        W55757  41.071   4.128   4.065
90531W        W55758  22.022   5.349  13.321
90532W        W55759   7.496  25.899   2.125
90533W        W55760  24.347  42.290  13.792
90534W        W55761   1.830   9.375  11.514
90535W        W55762  10.747  31.559  14.458
90536W        W55763  13.105  21.741   2.667
90537W        W55764  38.520   9.483   2.108
90538W        W55765  17.647  27.466   2.511
90539W        W55766  30.440   0.266   0.118
90540W        W55767  39.632  23.822  11.600
90541W        W55768   5.519  42.641   1.685
90542W        W55769  26.659  36.222  13.944
90543W        W55770   9.343  42.212   4.069
90544W        W55771  10.256  33.929   2.766
90545W        W55772   7.922   1.296  10.824
90546W        W55773  24.552   0.749  12.067
90547W        W55774  34.854   7.815  12.548
90548W        W55775  35.862  14.302   4.817
90549W        W55776  34.843   5.614  13.756
90550W        W55777  30.678   0.990  12.481
90551W        W55778  14.642  14.592  11.532
90552W        W55779   4.310  26.298   5.203
90553W        W55780   5.011  32.689   4.480
90554W        W55781  30.359  15.110   3.231
90555W        W55782  35.135  36.990  11.908
90556W        W55783   9.705  10.848   3.727
90557W        W55784   3.231  32.380   0.353
90558W        W55785  18.849  44.597   4.848
90559W        W55786  36.923  17.266   1.759
90560W        W55787   1.227  14.189   3.181
90561W        W55788  11.826  44.544  12.444
90562W        W55789   4.407   2.664   0.780
90563W        W55790  22.534  13.988  10.296
90564W        W55791  27.346  13.442   1.684
90565W        W55792  43.976   0.574   0.396
90566W        W55793  17.744  36.032  13.839
90567W        W55794  20.176  42.257  14.811
90568W        W55795  18.046  26.624   0.343
90569W        W55796  10.752  25.257  11.103
90570W        W55797  33.836   8.730   3.606
90571W        W55798  10.294  28.233   0.922
90572W        W55799   2.453  27.276  14.582
90573W        W55800  15.605   9.555  12.925
90574W        W55801  33.569  38.686  10.777
90575W        W55802  25.464  26.105  11.062
90576W        W55803  34.657  23.581   3.452
90577W        W55804   3.728  32.213   4.175
90578W        W55805  29.756  18.013   0.678
90579W        W55806  22.331  28.904  11.228
90580W        W55807  36.396  27.593  13.933
90581W        W55808  16.615   6.577   0.237
90582W        W55809  20.146  25.227   1.185
90583W        W55810  13.137  30.883  14.710
90584W        W55811   9.291  42.939   4.590
90585W        W55812  29.005  23.258   3.579
90586W        W55813  44.196  25.950  10.844
90587W        W55814  36.045  22.252   0.349
90588W        W55815  19.973  15.722   1.879
90589W        W55816  25.916  15.650   1.999
90590W        W55817   5.589   9.938  13.383
90591W        W55818   1.204  25.213  12.076
90592W        W55819  27.309   3.285   4.032
90593W        W55820  29.435  25.256   3.192
90594W        W55821  33.628  15.245   0.909
90595W        W55822   5.416  37.388   2.711
90596W        W55823   0.960   3.604   0.972
90597W        W55824  38.369  33.563  12.893
90598W        W55825  21.136  10.966   4.439
90599W        W55826   5.685  35.345   2.584
90600W        W55827  21.077  19.273   4.289
90601W        W55828  41.010  12.144  12.073
90602W        W55829   8.248  30.054   2.571
90603W        W55830   1.287  30.361  11.486
90604W        W55831  16.730  22.954   3.400
90605W        W55832  28.562  36.852   4.905
90606W        W55833  44.012   1.249  12.635
90607W        W55834  43.478  25.567   3.336
90608W        W55835  44.321  26.748   4.174
90609W        W55836  13.213  44.762   4.993
90610W        W55837  30.822   6.887   2.356
90611W        W55838  35.989  22.994  14.888
90612W        W55839  43.051  25.230  12.004
90613W        W55840  15.055   8.807  12.414
90614W        W55841  12.161  22.830  11.085
90615W        W55842  35.647  37.774   3.333
90616W        W55843  43.784  44.292  12.031
90617W        W55844  36.121  38.266   2.058
90618W        W55845  25.943  21.263  13.012
90619W        W55846  10.869   1.817   1.820
90620W        W55847  14.655  11.261   1.405
90621W        W55848  10.534  28.956   3.741
90622W        W55849  44.316  42.748  10.722
90623W        W55850  40.540  40.596   3.811
90624W        W55851  25.809  18.701  12.581
90625W        W55852  14.717  18.444  13.290
90626W        W55853  36.067  12.314  12.543
90627W        W55854   9.355  43.334   0.398
90628W        W55855  21.490   8.441   1.142
90629W        W55856  31.956  29.652   5.055
90630W        W55857  20.819  22.493   4.099
90631W        W55858  42.940  22.925  12.553
90632W        W55859  33.483  43.989  14.458
90633W        W55860  32.346   3.719   1.642
90634W        W55861  44.504  30.774  13.353
90635W        W55862   5.564  43.621   5.589
90636W        W55863   2.914   8.320  12.038
90637W        W55864  39.026  37.624  12.679
90638W        W55865  42.542  27.499  12.118
90639W        W55866  40.464  12.797   3.304
90640W        W55867  40.805  40.855  12.522
90641W        W55868  17.372  29.922  13.532
90642W        W55869   1.307  21.565   0.068
90643W        W55870  33.093   6.572   0.671
90644W        W55871   7.148   3.332   3.577
90645W        W55872   3.508  10.858   0.825
90646W        W55873  17.734  31.688   3.681
90647W        W55874  39.560   7.382  12.502
90648W        W55875  19.042  44.426   3.558
90649W        W55876  12.177  10.094  10.799
90650W        W55877  26.552  18.697  13.124
90651W        W55878   1.562  30.029  11.890
90652W        W55879   9.623  34.456  12.140
90653W        W55880  11.974   3.239   2.817
90654W        W55881  18.582  20.753   2.205
90655W        W55882   9.768  17.741  12.861
90656W        W55883   8.093  29.920   2.083
90657W        W55884  31.570   1.698   1.403
90658W        W55885  13.797  28.774  12.161
90659W        W55886  42.963   3.344   3.655
90660W        W55887  30.035   2.286  14.860
90661W        W55888  39.246   1.452  11.451
90662W        W55889   2.781  22.313   1.376
90663W        W55890  10.205  10.657  10.753
90664W        W55891  19.333  35.907  13.042
90665W        W55892  37.509   1.083   4.740
90666W        W55893  20.109  17.042   2.268
90667W        W55894   8.932  31.149  10.932
90668W        W55895  39.205  13.067   4.152
90669W        W55896  35.656  10.341  10.685
90670W        W55897  16.261   7.941   2.615
90671W        W55898  43.120   0.993   1.962
90672W        W55899  24.566  37.305  14.299
90673W        W55900   1.127   3.156  10.369
90674W        W55901  15.555  36.307  10.784
90675W        W55902  38.515  19.108  12.364
90676W        W55903   7.104  41.341  11.152
90677W        W55904  18.722  33.373   4.058
90678W        W55905  40.006  32.944  12.681
90679W        W55906  31.376  19.459   2.216
90680W        W55907  41.345  29.563  14.835
90681W        W55908  44.479  26.450   3.776
90682W        W55909  11.131  12.594   4.832
90683W        W55910  32.959  37.647  13.522
90684W        W55911  23.958   4.990   3.132
90685W        W55912  21.204   1.671  10.170
90686W        W55913   8.599  37.015   3.271
90687W        W55914  25.705  28.355   0.872
90688W        W55915  23.552   4.776  12.956
90689W        W55916   0.917  13.972   1.718
90690W        W55917   2.243   2.068  14.955
90691W        W55918   7.556  33.388  10.840
90692W        W55919  40.141  19.323   1.920
90693W        W55920  43.485   8.280   4.938
90694W        W55921   4.601  18.550   4.136
90695W        W55922  27.899  23.735   2.608
90696W        W55923  44.620  15.527   4.801
90697W        W55924  32.507  43.388   3.259
90698W        W55925  23.221   6.036   1.781
90699W        W55926   7.808   2.298  10.473
90700W        W55927  18.129  24.523  10.776
90701W        W55928   4.412   5.721  12.140
90702W        W55929  10.746  24.747  11.126
90703W        W55930  21.306  14.084  14.333
90704W        W55931  31.769  22.107   1.777
90705W        W55932  35.395   6.669   0.503
90706W        W55933  42.217  21.251  11.362
90707W        W55934  41.185  28.863  14.294
90708W        W55935  12.790   3.811  13.138
90709W        W55936   3.090  40.800  11.537
90710W        W55937  18.143   9.686   4.583
90711W        W55938  39.347  25.991  10.597
90712W        W55939  19.722   1.928   4.799
90713W        W55940  16.962  26.761  14.397
90714W        W55941  39.271  22.003  14.487
90715W        W55942  25.255  38.091   4.873
90716W        W55943  41.565  29.649  13.905
90717W        W55944  31.565  18.394  14.280
90718W        W55945   6.982  17.499  14.833
90719W        W55946  35.000   4.119   3.158
90720W        W55947  16.463  20.866   0.095
90721W        W55948   0.304  41.465   2.563
90722W        W55949  10.711   5.923  13.307
90723W        W55950  11.331  35.592   0.901
90724W        W55951  41.734  31.837   1.275
90725W        W55952  24.811  42.521   1.534
90726W        W55953  44.873   3.275  12.473
90727W        W55954   7.318  18.294   0.719
90728W        W55955  29.377   8.573  13.295
90729W        W55956   1.728  17.555  14.951
90730W        W55957  17.794  35.915   2.282
90731W        W55958  11.662   1.371   1.728
90732W        W55959  20.818  35.954  11.271
90733W        W55960   0.378   9.991  12.054
90734W        W55961  17.278  33.975  13.318
90735W        W55962  18.674  13.249   3.635
90736W        W55963  29.468  30.484  14.506
90737W        W55964  10.237  24.129   3.625
90738W        W55965  21.268  32.032  12.085
90739W        W55966   6.623  12.128  12.098
90740W        W55967  44.309  35.625  12.013
90741W        W55968   9.323  39.030   0.756
90742W        W55969  27.481  31.185  11.883
90743W        W55970  43.632  31.273   2.836
90744W        W55971  42.021  14.644   1.248
90745W        W55972  26.604  23.668  13.820
90746W        W55973   4.787  23.216  11.360
90747W        W55974  14.090  10.006   0.922
90748W        W55975  30.088  25.098   2.252
90749W        W55976  21.517  17.644   1.329
90750W        W55977  16.313  29.676   4.088
90751W        W55978  34.003  19.589  14.306
90752W        W55979  40.131   2.425  14.911
90753W        W55980   4.851  16.201   2.472
90754W        W55981  26.472  25.369   2.953
90755W        W55982  12.585  23.041   0.978
90756W        W55983  40.980  11.554   4.864
90757W        W55984  33.632  14.297  11.097
90758W        W55985   3.759  33.417   1.414
90759W        W55986  35.298  42.516   3.368
90760W        W55987  43.886  32.508  11.950
90761W        W55988   1.880  14.962  13.076
90762W        W55989  39.003  20.194   2.720
90763W        W55990  13.170   2.931  14.828
90764W        W55991  33.056   1.962  12.543
90765W        W55992  28.888   8.097   3.273
90766W        W55993   5.906  43.087  14.194
90767W        W55994   1.860  17.548   0.484
90768W        W55995  27.130  26.670  14.913
90769W        W55996  34.089  30.323  13.137
90770W        W55997  41.830  10.997  14.702
90771W        W55998  41.474  44.067   2.475
90772W        W55999  24.037  20.951  12.559
90773W        W56000  31.907  29.977   4.274
90774W        W56001  18.840  22.453   0.025
90775W        W56002  23.193  24.964  14.376
90776W        W56003  11.204  28.486  13.927
90777W        W56004  34.440  42.694   1.237
90778W        W56005  39.922  23.085  11.083
90779W        W56006  38.331  44.065  12.940
90780W        W56007  13.501   5.398   1.439
90781W        W56008  17.076  42.798   2.805
90782W        W56009  40.949  18.734  11.982
90783W        W56010   0.410  29.882   1.729
90784W        W56011  18.499  20.382   3.224
90785W        W56012  32.625  44.985   0.842
90786W        W56013  10.783  18.849  11.227
90787W        W56014  17.131  35.823  14.513
90788W        W56015  20.404  33.673   1.379
90789W        W56016  12.723  30.607  10.815
90790W        W56017   7.231  30.939   1.814
90791W        W56018   8.370  26.238  14.789
90792W        W56019  31.411  10.065  13.553
90793W        W56020   9.794  42.926   3.157
90794W        W56021  11.708  33.034  14.097
90795W        W56022   5.178  17.652  11.920
90796W        W56023  16.040  38.442  11.159
90797W        W56024  41.702   7.845  14.970
90798W        W56025  38.080  11.631  11.187
90799W        W56026  14.228  16.335   0.007
90800W        W56027   3.319   5.361   4.816
90801W        W56028   1.409  25.295  14.012
90802W        W56029   3.092  13.161  13.444
90803W        W56030  28.190  10.975  14.417
90804W        W56031   3.417  26.274   4.091
90805W        W56032  20.196   0.431  10.270
90806W        W56033  40.978  36.358   2.016
90807W        W56034   3.981   9.723  12.648
90808W        W56035  38.820   8.617  12.128
90809W        W56036  41.988  14.142   1.772
90810W        W56037  39.159  35.638  14.660
90811W        W56038  11.348  24.644   3.168
90812W        W56039  33.562  42.424   3.767
90813W        W56040   1.843  19.472   4.158
90814W        W56041  23.774   3.705   4.713
90815W        W56042  28.119  17.104   0.884
90816W        W56043   5.250  25.388   4.693
90817W        W56044  42.784   7.825  11.437
90818W        W56045  13.769  20.016  14.515
90819W        W56046  37.011  10.844   4.226
90820W        W56047  38.789  23.974  11.824
90821W        W56048  10.616   6.697  12.560
90822W        W56049  28.413   3.974  13.031
90823W        W56050  19.763  36.347  12.802
90824W        W56051  31.398  30.632  11.580
90825W        W56052  28.172  21.383   4.051
90826W        W56053  44.006   9.804  14.760
90827W        W56054  16.937  27.246   1.677
90828W        W56055  38.108  21.105   3.098
90829W        W56056  16.883  28.491   4.544
90830W        W56057  32.980  31.938  14.224
90831W        W56058  43.365  24.628   3.390
90832W        W56059  30.508   8.637   3.226
90833W        W56060  41.731   0.830   2.217
90834W        W56061  44.428  25.438   3.811
90835W        W56062  17.105   0.614   1.275
90836W        W56063   4.858  26.208  11.489
90837W        W56064   1.938  18.017   2.177
90838W        W56065   1.325  19.044   1.414
90839W        W56066  32.464  37.938   0.984
90840W        W56067  25.455  17.502   2.276
90841W        W56068  25.160  37.430   3.720
90842W        W56069  22.301  16.178   4.205
90843W        W56070  26.237   2.524  12.954
90844W        W56071   4.325  17.251  10.055
90845W        W56072  36.028  10.896  12.155
90846W        W56073  33.977  19.205  13.918
90847W        W56074   5.850  21.569  14.791
90848W        W56075  31.565  11.402   1.286
90849W        W56076   8.941  25.550  10.807
90850W        W56077  34.981  33.502   0.004
90851W        W56078  19.780  36.889   3.392
90852W        W56079  36.367  26.397   1.857
90853W        W56080  17.122  19.337   4.093
90854W        W56081  36.720  34.559   2.752
90855W        W56082  11.111  14.144  14.742
90856W        W56083  32.675  36.952   2.427
90857W        W56084  39.410   4.315   1.504
90858W        W56085  13.821  28.601   2.303
90859W        W56086   1.998  11.201   3.751
90860W        W56087  21.749  38.686   1.367
90861W        W56088   7.728   0.192   2.816
90862W        W56089   9.423  40.650  11.766
90863W        W56090  13.125  38.494  13.368
90864W        W56091  19.601  40.033  12.054
90865W        W56092  13.118  19.412   3.552
90866W        W56093  20.565   6.068  10.822
90867W        W56094  32.389  44.533  14.579
90868W        W56095  34.920  31.223  13.312
90869W        W56096  16.531  14.444  11.724
90870W        W56097   4.295  32.804   4.005
90871W        W56098   3.847  16.614   1.697
90872W        W56099  18.030  18.210  11.472
90873W        W56100  43.815  14.825   0.722
90874W        W56101  12.163  15.388  13.125
90875W        W56102  35.867  34.040   2.769
90876W        W56103   3.994   8.223   1.153
90877W        W56104   6.700  21.670   3.176
90878W        W56105  30.531  38.207  10.769
90879W        W56106  41.762  22.056   4.814
90880W        W56107   2.305  17.061  14.918
90881W        W56108  11.210  36.614  14.986
90882W        W56109   1.417  13.430   2.574
90883W        W56110  25.935  35.296   1.847
90884W        W56111  27.971  13.042   2.082
90885W        W56112  19.845  18.726  11.188
90886W        W56113  40.486  34.433   3.163
90887W        W56114   4.690  14.697   3.624
90888W        W56115  43.008  31.088   1.731
90889W        W56116  26.962  22.225   1.209
90890W        W56117  27.529  16.794   1.849
90891W        W56118  20.763  26.554  13.291
90892W        W56119  23.953  25.106   4.844
90893W        W56120  27.674  37.276   4.069
90894W        W56121  26.698  17.492   4.480
90895W        W56122   2.592  31.774  11.189
90896W        W56123  43.574  35.972   1.607
90897W        W56124  22.298   0.402   0.712
90898W        W56125  38.986  39.260  11.751
90899W        W56126  13.329  37.319   1.869
90900W        W56127  41.410  11.426  13.862
90901W        W56128  22.980   1.225  13.055
90902W        W56129  23.590  39.759  10.654
90903W        W56130   0.794  36.585  12.904
90904W        W56131  35.734  38.414   5.028
90905W        W56132  17.629  18.270  11.164
90906W        W56133   5.860  24.651  13.052
90907W        W56134  23.221  37.314  11.570
90908W        W56135  36.171  24.587   4.602
90909W        W56136   3.027  17.678  14.150
90910W        W56137  25.294  29.626   0.293
90911W        W56138  20.594  11.380  11.046
90912W        W56139  42.775  10.601  14.847
90913W        W56140  40.957  42.005   1.794
90914W        W56141  21.513   5.976   4.087
90915W        W56142  11.959  42.952   0.001
90916W        W56143  27.730   3.675  14.268
90917W        W56144   5.567  11.842   4.396
90918W        W56145  21.872  25.635  12.108
90919W        W56146  16.506  42.709   1.936
90920W        W56147  23.940  28.171  14.042
90921W        W56148  21.993  17.183  11.968
90922W        W56149  38.501  20.078   9.971
90923W        W56150  42.946  23.680  11.367
90924W        W56151  32.412  22.461  14.056
90925W        W56152  15.711   7.302  11.929
90926W        W56153  22.969  28.748   0.418
90927W        W56154   6.855  34.930  12.909
90928W        W56155  32.113  17.753  12.145
90929W        W56156  25.195  40.714  12.510
90930W        W56157  19.404  22.518   3.344
90931W        W56158   7.827  22.058  10.697
90932W        W56159   0.249  23.259   3.662
90933W        W56160  16.304  12.852   2.911
90934W        W56161  30.142  24.980  12.178
90935W        W56162  28.467  14.618  11.019
90936W        W56163  24.211  37.332   0.493
90937W        W56164  11.581  34.414   3.924
90938W        W56165   8.064  40.261   1.596
90939W        W56166  44.877  41.126  13.861
90940W        W56167   3.457   2.725   0.811
90941W        W56168   8.803   1.999  11.163
90942W        W56169  37.523   1.505   2.492
90943W        W56170  31.439  42.262  14.421
90944W        W56171   5.435   7.667  11.741
90945W        W56172  10.855   0.503   5.068
90946W        W56173   7.251   5.453   0.920
90947W        W56174  26.068  37.907   3.686
90948W        W56175  24.038   5.817  10.488
90949W        W56176   4.699  29.406  12.685
90950W        W56177  42.980   4.939   2.158
90951W        W56178  35.815  35.218  13.195
90952W        W56179   7.568   8.127  11.424
90953W        W56180  32.494   8.792  12.224
90954W        W56181  20.738   1.316  11.811
90955W        W56182  34.458  18.238  11.248
90956W        W56183  23.144  17.734  11.705
90957W        W56184  40.866  28.266   4.939
90958W        W56185  38.606  28.868   1.788
90959W        W56186  44.862  13.085   2.689
90960W        W56187  43.852  12.467  13.780
90961W        W56188  16.295  13.130  12.785
90962W        W56189  18.114   7.697   2.445
90963W        W56190   6.468  10.773   2.675
90964W        W56191  32.301  31.186   0.728
90965W        W56192  24.146  13.812   1.266
90966W        W56193   6.116  15.891  10.853
90967W        W56194  23.566  32.096  10.509
90968W        W56195   0.972  15.569  10.318
90969W        W56196  14.833  11.213  14.124
90970W        W56197  34.200  30.260  14.804
90971W        W56198  35.427  28.023  11.666
90972W        W56199   4.652  10.231  13.601
90973W        W56200  31.222  29.280   3.711
90974W        W56201   9.396  41.484   2.770
90975W        W56202  25.021  14.079   4.231
90976W        W56203   3.146  26.237   1.446
90977W        W56204  43.538  40.359  11.244
90978W        W56205  12.336  22.162   3.798
90979W        W56206   6.416  31.584  13.604
90980W        W56207  27.363  14.763   2.720
90981W        W56208  30.702  12.323  14.369
90982W        W56209   3.831  15.611  14.255
90983W        W56210  22.530  39.566  11.179
90984W        W56211   4.723  24.670  11.581
90985W        W56212  20.062  36.018  13.460
90986W        W56213  21.819  33.897   4.677
90987W        W56214  17.029  43.454   1.708
90988W        W56215  43.993   5.650   3.356
90989W        W56216  21.297  40.762  12.009
90990W        W56217   7.172   2.701   0.329
90991W        W56218  29.730  25.818   3.741
90992W        W56219  37.773  26.511   4.779
90993W        W56220  10.242  31.940  11.068
90994W        W56221  27.205   8.098  13.486
90995W        W56222  44.337   0.289  14.210
90996W        W56223   0.417  39.515   0.545
90997W        W56224  26.582  33.124  12.763
90998W        W56225  16.501  44.977  11.075
90999W        W56226  13.618   0.024  11.116
91000W        W56227  20.215  41.572  10.753
91001W        W56228  34.374  14.089  13.597
91002W        W56229  42.472  21.490  13.952
91003W        W56230  43.473  28.623  14.533
91004W        W56231  41.138   4.965  11.174
91005W        W56232  22.489  41.081  11.170
91006W        W56233  33.442  20.627   0.305
91007W        W56234  35.469  42.422  14.404
91008W        W56235  35.024   1.460  11.639
91009W        W56236  12.474  24.005  14.777
91010W        W56237  28.490  26.633   0.406
91011W        W56238  20.832  33.327   0.023
91012W        W56239  36.975   1.656  11.608
91013W        W56240   1.552  19.224   4.562
91014W        W56241   3.154  20.831   0.882
91015W        W56242   6.245   7.894  11.126
91016W        W56243  41.528  40.300   4.609
91017W        W56244  14.935  10.899  10.770
91018W        W56245   6.511  20.205  12.511
91019W        W56246   9.354  30.428  10.461
91020W        W56247  13.824  37.593   2.783
91021W        W56248  16.798  21.745  11.645
91022W        W56249  20.506  39.897  11.197
91023W        W56250  17.596  27.066   4.614
91024W        W56251   7.243   0.778   0.751
91025W        W56252  14.227  41.969  14.321
91026W        W56253  30.481  14.882   0.464
91027W        W56254  30.044  14.118  12.201
91028W        W56255  29.214  28.961   4.178
91029W        W56256  38.592  16.888   2.720
91030W        W56257  37.098  42.507   1.247
91031W        W56258  12.327  20.757  14.934
91032W        W56259  23.376  44.705  11.109
91033W        W56260  11.314  42.022   1.737
91034W        W56261  13.895  37.143  10.895
91035W        W56262   4.425  39.379   3.548
91036W        W56263  35.867  44.052  13.917
91037W        W56264  20.725  16.361   0.210
91038W        W56265   7.422  32.325   2.306
91039W        W56266  36.271  34.580  11.717
91040W        W56267  16.385  15.485   0.605
91041W        W56268  32.919  22.116   4.050
91042W        W56269  30.042  44.787  14.915
91043W        W56270   6.499  19.244   2.701
91044W        W56271  15.661   9.814   2.668
91045W        W56272  39.797  11.748  11.700
91046W        W56273  25.063  23.419   2.126
91047W        W56274  16.478  41.079  12.545
91048W        W56275   9.805   8.771   1.852
91049W        W56276  44.017  18.686   2.207
91050W        W56277  19.047   6.901  12.072
91051W        W56278  32.277   6.302   0.937
91052W        W56279  10.162   9.892  14.688
91053W        W56280  11.867   7.602  13.478
91054W        W56281   3.050  40.279   4.113
91055W        W56282   2.213  30.874   0.773
91056W        W56283  23.820  17.186  13.670
91057W        W56284  29.020  32.124   1.812
91058W        W56285  40.499  13.434   0.588
91059W        W56286  16.763  26.282  13.431
91060W        W56287  12.290  17.792   1.424
91061W        W56288   1.687  17.418   3.257
91062W        W56289  42.896  43.747  12.003
91063W        W56290  18.350  29.754   2.821
91064W        W56291  42.048  42.539  11.611
91065W        W56292  26.570  39.829   4.496
91066W        W56293  37.967  41.880  11.511
91067W        W56294  29.399  14.881   2.215
91068W        W56295  43.735  21.612   4.088
91069W        W56296  41.446   3.930  11.980
91070W        W56297   4.465  39.328   4.504
91071W        W56298  40.526  28.262  10.271
91072W        W56299  41.517  32.094   3.073
91073W        W56300  13.930  26.867  13.777
91074W        W56301  40.448  35.656  11.870
91075W        W56302  38.175   7.244  11.011
91076W        W56303   4.194  25.124  10.932
91077W        W56304   9.212   9.855  12.452
91078W        W56305   3.785  16.314   3.600
91079W        W56306  43.534  11.544  14.904
91080W        W56307  19.312   2.117   3.665
91081W        W56308  13.837  20.909   0.660
91082W        W56309  24.935  34.322  14.332
91083W        W56310  37.785  13.327  10.772
91084W        W56311  23.136  24.739   1.690
91085W        W56312   5.433  13.893   0.183
91086W        W56313  33.699  25.367   0.440
91087W        W56314  20.680  43.097   2.606
91088W        W56315  30.540  44.939  14.298
91089W        W56316  14.943  20.285  13.875
91090W        W56317  26.399   7.743   0.856
91091W        W56318  36.681  25.550  11.924
91092W        W56319  34.634  24.075  12.695
91093W        W56320  10.644  34.297   3.499
91094W        W56321   5.158  29.480  12.936
91095W        W56322  21.452  38.805  14.482
91096W        W56323  36.633   3.085  11.540
91097W        W56324  27.441  38.444  12.865
91098W        W56325  29.689  13.242  12.816
91099W        W56326  27.577   3.487   2.754
91100W        W56327  40.389  38.007  13.037
91101W        W56328  40.863  37.320   1.868
91102W        W56329  30.683  17.870  13.948
91103W        W56330  39.374  16.307   1.501
91104W        W56331  41.860   8.912   0.119
91105W        W56332  31.932  22.075   2.286
91106W        W56333  14.962  16.744  11.143
91107W        W56334  29.448  30.637   2.702
91108W        W56335  28.876  19.379  11.198
91109W        W56336   1.451  34.482   0.381
91110W        W56337  28.173   0.690   1.864
91111W        W56338  20.266  12.263   2.715
91112W        W56339  28.722  30.257  13.047
91113W        W56340   7.598  26.086  11.892
91114W        W56341  42.606  43.763   3.339
91115W        W56342  41.362  35.895   3.366
91116W        W56343  35.594  33.355   4.311
91117W        W56344  10.294  12.910   1.322
91118W        W56345  35.879  41.815  14.833
91119W        W56346  15.796  35.839  14.345
91120W        W56347  18.322  13.809   0.424
91121W        W56348  10.749  40.346  13.130
91122W        W56349  33.906  29.655   2.771
91123W        W56350  14.092  15.518   3.513
91124W        W56351   4.045  42.521   0.211
91125W        W56352  31.454  20.001   3.730
91126W        W56353  12.823  43.255   0.514
91127W        W56354  24.442   7.375  13.895
91128W        W56355  14.735  24.489  11.059
91129W        W56356  36.342  12.696  10.374
91130W        W56357   5.537  44.460   0.738
91131W        W56358  28.000   5.520  12.462
91132W        W56359   0.460  33.388   0.827
91133W        W56360  36.625   2.245  10.995
91134W        W56361  37.759  43.891   1.240
91135W        W56362  40.131  42.343   3.693
91136W        W56363  27.039  39.938  12.769
91137W        W56364  35.926   6.278  13.095
91138W        W56365  20.160  19.721   4.733
91139W        W56366  28.887  37.452   4.845
91140W        W56367  39.287   0.721  14.876
91141W        W56368  41.845   6.905  13.063
91142W        W56369  37.334  11.858  13.516
91143W        W56370  34.609  28.568   5.447
91144W        W56371  19.769  20.541   4.609
91145W        W56372   4.059   0.477  12.590
91146W        W56373  37.476   4.214   2.119
91147W        W56374  41.036   7.896   0.685
91148W        W56375   9.820  20.732  14.344
91149W        W56376  35.985  25.571   1.054
91150W        W56377  43.783   1.795   1.596
91151W        W56378  10.907  31.350   1.945
91152W        W56379  27.759  14.078  14.427
91153W        W56380  34.633  11.505  12.020
91154W        W56381  21.289  27.472  10.887
91155W        W56382  25.773  27.215  11.603
91156W        W56383  39.262  14.835   3.792
91157W        W56384  22.228  43.602   2.849
91158W        W56385  18.142  39.326  14.419
91159W        W56386  22.943   4.233  11.657
91160W        W56387  18.720  28.220   3.713
91161W        W56388   1.428  35.043  12.020
91162W        W56389   8.612   9.460   1.747
91163W        W56390  36.508  24.679   3.327
91164W        W56391   1.770  36.544  13.965
91165W        W56392  17.307  19.154  12.859
91166W        W56393  22.026  42.926   2.272
91167W        W56394  36.082  37.839  11.686
91168W        W56395   4.381  12.795   2.929
91169W        W56396  23.447  41.365  12.941
91170W        W56397  23.925  27.528  14.398
91171W        W56398   7.756  22.944  13.820
91172W        W56399  22.060  26.212  11.649
91173W        W56400  38.183   0.874   4.183
91174W        W56401  11.429   5.429  11.587
91175W        W56402  14.599   8.901  14.813
91176W        W56403  34.878   5.955   0.965
91177W        W56404  28.627  20.018  13.343
91178W        W56405   6.682  11.624   3.636
91179W        W56406  27.073  37.947   2.787
91180W        W56407  20.877  42.473   0.706
91181W        W56408  11.161  23.523   1.815
91182W        W56409  11.703   6.122   0.070
91183W        W56410  14.134  14.022  11.216
91184W        W56411   2.808  20.503   4.139
91185W        W56412  11.692  18.708  11.944
91186W        W56413  39.766  42.982   4.641
91187W        W56414   7.607  35.905   5.104
91188W        W56415  33.493  44.780   0.857
91189W        W56416   5.208  34.559  14.344
91190W        W56417   0.251  21.933   3.764
91191W        W56418  10.805  12.950   2.336
91192W        W56419   4.776  28.747  14.681
91193W        W56420  44.857   9.656  12.917
91194W        W56421  39.628   5.491  13.941
91195W        W56422  10.522   9.726   1.661
91196W        W56423  18.635   2.663   2.756
91197W        W56424  38.594   0.257   5.086
91198W        W56425  17.498  19.065   3.213
91199W        W56426   2.501  25.123   3.226
91200W        W56427  18.117   9.762   4.055
91201W        W56428  33.108  12.533  10.713
91202W        W56429  12.720  21.835  13.903
91203W        W56430  10.347   3.649  11.119
91204W        W56431  14.311  15.907  14.028
91205W        W56432   1.478  42.508  14.811
91206W        W56433  42.456  41.234   0.280
91207W        W56434  11.036  27.423  13.839
91208W        W56435  17.356  15.119  13.110
91209W        W56436  41.538   9.710   3.710
91210W        W56437   3.302  34.973  13.404
91211W        W56438   6.128   4.126  11.423
91212W        W56439   4.441  28.496   3.240
91213W        W56440  15.683  42.788  10.487
91214W        W56441  10.244  13.082  14.235
91215W        W56442   7.911  10.930   2.783
91216W        W56443  25.707  10.402   0.380
91217W        W56444  33.893  13.518  10.794
91218W        W56445  43.830  36.789  10.730
91219W        W56446   6.817   3.020  12.834
91220W        W56447  16.528  20.562  12.794
91221W        W56448  43.315   8.780   4.153
91222W        W56449  37.676  28.598   1.418
91223W        W56450  39.018  12.809  12.924
91224W        W56451   4.286   6.759   4.404
91225W        W56452  11.866  40.459   3.560
91226W        W56453  14.553  10.259   2.288
91227W        W56454  32.693  31.499   4.737
91228W        W56455   2.877  14.478   2.671
91229W        W56456   9.196  17.711  14.926
91230W        W56457   9.298  37.903   3.915
91231W        W56458  20.605  16.547  12.935
91232W        W56459  11.645  20.554   2.785
91233W        W56460  32.454   7.331  12.434
91234W        W56461   0.077  28.942  11.650
91235W        W56462  13.807  43.308  12.553
91236W        W56463   4.935   4.565  11.219
91237W        W56464  34.447  24.113  11.954
91238W        W56465  40.082   4.344  11.160
91239W        W56466   0.731  16.299  14.315
91240W        W56467  42.819  37.492   0.598
91241W        W56468  23.172  39.775  11.473
91242W        W56469   9.471  35.161  13.923
91243W        W56470  23.703  27.151   0.450
91244W        W56471   8.873   3.761   1.753
91245W        W56472  31.109  21.111  13.185
91246W        W56473  34.621  17.279   1.878
91247W        W56474  36.391   6.165   2.594
91248W        W56475   8.484  37.195   1.483
91249W        W56476  41.973  17.039   1.282
91250W        W56477  12.814  44.209   4.175
91251W        W56478  43.513  40.803   3.772
91252W        W56479   0.134  35.884   2.010
91253W        W56480  41.360  29.098   2.071
91254W        W56481   0.797   7.978  13.039
91255W        W56482   6.677  14.836  12.239
91256W        W56483   2.077  43.335  13.410
91257W        W56484  22.749  38.376  11.568
91258W        W56485  37.836  18.302   3.129
91259W        W56486   9.302  11.172  11.617
91260W        W56487   0.305  39.109  14.590
91261W        W56488  42.245   2.452   4.060
91262W        W56489  41.422  21.668  14.806
91263W        W56490  21.684  27.660  11.168
91264W        W56491  12.578  36.013   0.717
91265W        W56492  28.288   1.284  14.242
91266W        W56493  26.616  25.896  12.778
91267W        W56494  41.253  21.417  13.275
91268W        W56495  20.528  22.451   3.636
91269W        W56496  13.652  36.992   4.193
91270W        W56497  17.375   8.316  12.520
91271W        W56498   6.662  27.147  14.042
91272W        W56499  12.933  23.207   4.122
91273W        W56500  27.004   4.951  13.471
91274W        W56501  17.158   1.143  12.967
91275W        W56502   7.756  40.467  10.673
91276W        W56503  29.680   4.651   3.630
91277W        W56504  44.792  19.060  13.923
91278W        W56505   7.582  16.466  13.307
91279W        W56506  44.525  22.521   2.867
91280W        W56507  18.623  26.919  12.196
91281W        W56508   5.342  30.593   3.671
91282W        W56509  14.178  34.041   2.139
91283W        W56510  37.314  34.800  14.041
91284W        W56511  28.691  27.076  14.050
91285W        W56512  40.104  25.068   2.740
91286W        W56513   2.449  40.442  14.851
91287W        W56514  28.643  31.110   2.234
91288W        W56515   6.246  10.235   2.552
91289W        W56516  12.290  44.237  12.368
91290W        W56517  35.155   3.515  11.679
91291W        W56518  34.934   7.916   3.669
91292W        W56519  34.393  38.874  13.477
91293W        W56520  27.908  21.669   2.841
91294W        W56521   6.539  11.152  12.077
91295W        W56522  33.015  21.491  13.014
91296W        W56523  17.052  40.935   3.290
91297W        W56524  38.961   2.372  12.396
91298W        W56525  25.564  31.363  14.781
91299W        W56526  25.245  20.039  10.624
91300W        W56527  40.057   9.759   3.673
91301W        W56528  17.236  32.204   4.435
91302W        W56529   0.607  18.942   4.032
91303W        W56530   7.395  19.184   3.244
91304W        W56531  31.629  13.272   2.244
91305W        W56532  29.370  11.857  14.819
91306W        W56533  28.616  28.445   3.799
91307W        W56534  27.622  43.017   1.209
91308W        W56535  24.797   6.445   3.648
91309W        W56536  30.535  17.815   3.643
91310W        W56537  16.047  23.074   1.208
91311W        W56538   2.617  19.982   3.108
91312W        W56539  37.087  24.171  11.145
91313W        W56540  39.904  15.878  11.568
91314W        W56541  14.716   9.883   2.776
91315W        W56542  18.852   3.957   1.793
91316W        W56543  31.428  42.802  13.768
91317W        W56544  34.160   0.686  14.519
91318W        W56545  13.895  24.881  12.557
91319W        W56546   4.235  12.788   4.632
91320W        W56547   9.723   1.017   2.828
91321W        W56548  23.898   2.861  11.129
91322W        W56549  28.645  10.341   0.362
91323W        W56550   8.687  22.734   2.236
91324W        W56551  25.625  13.965   2.292
91325W        W56552   4.343  26.391   4.701
91326W        W56553  41.414  30.308  12.821
91327W        W56554   1.919  29.909   1.899
91328W        W56555  25.768  38.641   4.165
91329W        W56556  43.811   1.552   2.805
91330W        W56557  29.898  42.964   3.192
91331W        W56558   9.146  18.218  12.097
91332W        W56559  44.439  29.776  11.107
91333W        W56560  30.582  14.155   0.170
91334W        W56561   2.328   3.857  12.819
91335W        W56562  16.430   0.794  12.136
91336W        W56563  15.506   6.652   0.839
91337W        W56564  36.715  25.428  14.368
91338W        W56565   4.266  23.744  11.020
91339W        W56566  33.913  25.039  13.307
91340W        W56567  11.179  41.957   4.722
91341W        W56568   1.007  22.602   3.684
91342W        W56569   9.493  19.293   4.987
91343W        W56570   5.799  37.338  14.542
91344W        W56571  43.374  24.506  11.630
91345W        W56572  19.273   2.441   4.509
91346W        W56573  23.942   5.788  11.698
91347W        W56574  40.972  28.391   1.755
91348W        W56575  32.617  33.197   1.789
91349W        W56576  41.540   7.285  10.364
91350W        W56577  44.013  39.964  14.020
91351W        W56578   1.849  33.433   2.688
91352W        W56579  40.034  21.161   4.012
91353W        W56580  35.783  15.074   4.532
91354W        W56581  26.660  44.009   1.332
91355W        W56582  15.522  12.869   2.115
91356W        W56583  41.618  44.745  11.152
91357W        W56584   0.318  26.117   2.632
91358W        W56585  30.089   0.803  13.892
91359W        W56586   6.733   0.259  10.282
91360W        W56587  26.870   6.358  13.380
91361W        W56588  24.240  31.834   1.866
91362W        W56589  19.160  38.001  12.218
91363W        W56590  15.238  25.235  12.399
91364W        W56591  37.100  11.793   1.781
91365W        W56592  42.492  21.651  14.901
91366W        W56593  16.699  35.848   1.824
91367W        W56594  31.965   2.326   1.028
91368W        W56595  33.858  26.577   3.012
91369W        W56596  32.951  34.883   4.619
91370W        W56597  34.938  20.714   0.787
91371W        W56598  20.687  15.094   3.780
91372W        W56599  15.115  30.138   2.960
91373W        W56600  31.689  31.019  13.573
91374W        W56601  23.842  39.366  14.384
91375W        W56602  29.089  33.817  10.660
91376W        W56603  30.891   5.585  11.981
91377W        W56604   9.177   2.432   2.738
91378W        W56605  28.892  28.473  14.876
91379W        W56606  17.767  26.842  11.182
91380W        W56607  37.218   5.021  11.068
91381W        W56608  27.523  20.488   4.035
91382W        W56609   9.971  33.897   3.618
91383W        W56610  39.122   5.363  13.009
91384W        W56611  30.920   3.382  11.511
91385W        W56612  37.011   0.466   1.401
91386W        W56613   8.074  37.398   4.594
91387W        W56614  27.131   6.320  11.990
91388W        W56615   9.531   4.850  14.425
91389W        W56616  10.312  22.188   3.674
91390W        W56617  37.853  32.957   2.210
91391W        W56618  37.468  22.719   4.193
91392W        W56619  26.036  31.059  12.182
91393W        W56620  25.679  32.570  11.618
91394W        W56621   4.702  26.752  14.946
91395W        W56622  18.159  31.417  14.788
91396W        W56623  20.752  19.291   1.724
91397W        W56624   3.023  23.495  14.930
91398W        W56625  37.953  26.948   4.470
91399W        W56626  21.596   5.738  14.037
91400W        W56627  43.157  16.612   2.338
91401W        W56628  29.427  24.061   4.392
91402W        W56629  35.213   4.973   2.128
91403W        W56630  26.744  17.059  11.643
91404W        W56631  32.471  24.264  13.373
91405W        W56632  33.432  10.148   2.450
91406W        W56633   3.821  23.901   4.053
91407W        W56634  35.817  16.870  14.447
91408W        W56635   9.335  39.625  12.506
91409W        W56636  35.811  34.082  11.014
91410W        W56637  31.519  31.216  12.923
91411W        W56638   8.500  29.750   3.854
91412W        W56639  22.755   5.310   1.411
91413W        W56640  10.751  20.312  10.508
91414W        W56641   9.245   7.667   4.422
91415W        W56642  40.185  22.109  10.717
91416W        W56643  32.544  38.881  14.022
91417W        W56644   3.474  30.476  14.525
91418W        W56645  43.560   4.690  12.541
91419W        W56646   8.281   4.044   2.652
91420W        W56647  15.861  42.830   0.516
91421W        W56648  21.937   7.220   3.998
91422W        W56649  20.127  32.603   2.141
91423W        W56650   2.687   3.682  12.124
91424W        W56651  20.060  22.425   0.932
91425W        W56652  28.270  22.690   4.011
91426W        W56653  36.554  37.598  10.660
91427W        W56654  33.142  10.861   4.055
91428W        W56655   9.715  42.786  12.225
91429W        W56656  30.871  39.456  12.774
91430W        W56657  22.022   8.421  14.062
91431W        W56658  13.398  41.937  11.383
91432W        W56659  17.266   5.969  12.119
91433W        W56660  11.754   7.906   3.089
91434W        W56661   8.873  16.880  13.052
91435W        W56662   4.707  23.907  12.547
91436W        W56663   6.676  30.751  11.988
91437W        W56664  27.773  17.746  11.154
91438W        W56665  28.941  30.429   2.774
91439W        W56666  34.908  21.098  10.330
91440W        W56667  27.846  15.928  14.933
91441W        W56668  28.764  30.895  14.974
91442W        W56669  20.616  26.341   5.042
91443W        W56670   4.645  35.480   0.028
91444W        W56671  16.875  29.422  14.665
91445W        W56672  27.919  25.226   4.148
91446W        W56673  44.885  30.337  11.608
91447W        W56674  19.106  38.372  12.983
91448W        W56675  35.953   9.316  13.951
91449W        W56676  44.902   6.297  13.605
91450W        W56677  26.764  11.787   0.474
91451W        W56678   9.809   4.312   0.858
91452W        W56679  16.581  37.726   2.456
91453W        W56680   5.636  19.433  11.742
91454W        W56681  33.050  22.530  13.514
91455W        W56682  35.794  24.243  13.514
91456W        W56683  23.563  41.302  13.842
91457W        W56684  24.689   2.706  14.393
91458W        W56685  33.054  13.385   2.793
91459W        W56686   3.842  34.229   1.289
91460W        W56687  19.495  37.348   1.868
91461W        W56688  24.717   4.316  11.061
91462W        W56689  29.267  30.784  14.900
91463W        W56690  21.974  29.948  12.846
91464W        W56691  31.481   3.181   3.189
91465W        W56692  21.035  22.120   3.816
91466W        W56693  15.111   0.914  12.364
91467W        W56694  22.256  24.933  10.721
91468W        W56695  35.129  42.077   3.061
91469W        W56696  13.601   5.256  11.523
91470W        W56697  38.405  37.828  10.963
91471W        W56698   5.663  42.231   2.867
91472W        W56699  42.447  20.017   0.472
91473W        W56700  37.414  28.133  14.718
91474W        W56701  18.331   2.270   5.001
91475W        W56702  32.611  36.954   1.927
91476W        W56703  41.450  14.018  14.342
91477W        W56704   9.731   1.694  10.782
91478W        W56705  19.680  28.057  12.522
91479W        W56706   5.016   4.513  14.075
91480W        W56707  43.288  25.109   3.098
91481W        W56708   7.711  33.167   2.350
91482W        W56709  14.810  39.182   4.158
91483W        W56710  35.024   0.996  10.476
91484W        W56711  35.434  13.117   3.709
91485W        W56712  44.688  16.462  10.916
91486W        W56713  22.575   3.715   1.965
91487W        W56714  41.224  16.061  13.331
91488W        W56715  27.628  20.530   2.236
91489W        W56716   1.446  24.577   3.256
91490W        W56717  28.560  13.636  13.433
91491W        W56718  26.223   3.425   0.877
91492W        W56719  35.535   0.985   1.522
91493W        W56720  33.121   3.887   1.259
91494W        W56721  39.561  27.695  12.911
91495W        W56722  33.213  10.661   2.658
91496W        W56723  16.560   9.993  13.136
91497W        W56724  35.865  15.400  10.975
91498W        W56725  16.561  12.169  11.718
91499W        W56726  32.220  15.560   1.376
91500W        W56727  28.775  31.869   0.970
91501W        W56728  30.013  32.115  11.575
91502W        W56729  29.976  20.244   3.413
91503W        W56730  14.124  26.966   2.779
91504W        W56731  28.469  39.351   1.817
91505W        W56732  32.105  13.042  12.896
91506W        W56733  29.043  11.417  14.864
91507W        W56734  43.772   4.609  10.470
91508W        W56735  41.029  13.761  14.503
91509W        W56736   4.369  34.128  12.064
91510W        W56737  32.770  20.965  14.833
91511W        W56738  13.142  19.437  14.817
91512W        W56739   3.649   3.712   0.571
91513W        W56740  16.778  33.532   3.323
91514W        W56741  35.355   7.084  14.095
91515W        W56742  23.000  34.468   2.418
91516W        W56743  38.109   1.474  14.964
91517W        W56744   7.047  11.262  11.943
91518W        W56745  12.190  29.672  14.927
91519W        W56746  35.829  39.990  13.491
91520W        W56747  38.109  39.177  11.050
91521W        W56748  32.881   5.458   3.775
91522W        W56749   3.835   8.642  13.946
91523W        W56750  40.545   8.370   2.196
91524W        W56751  30.110  29.601   2.089
91525W        W56752  41.103  34.992   0.824
91526W        W56753  23.576  15.702   4.952
91527W        W56754  33.865  33.818  14.953
91528W        W56755  21.057  22.338   2.544
91529W        W56756   6.055  21.938   3.641
91530W        W56757   8.937   0.739  11.567
91531W        W56758   1.429   5.456  13.555
91532W        W56759   0.760  40.717   3.812
91533W        W56760  12.093  27.720   1.941
91534W        W56761  39.480  22.204  13.341
91535W        W56762   7.959  10.114   1.460
91536W        W56763  28.857  33.937   4.242
91537W        W56764   7.939  19.623   3.864
91538W        W56765  43.812   0.571   2.830
91539W        W56766  30.368  20.268  11.577
91540W        W56767  39.926  22.627  10.816
91541W        W56768  42.224  14.147  14.910
91542W        W56769  26.597   6.427  14.956
91543W        W56770  14.605  36.534   1.388
91544W        W56771  17.224  14.621   4.825
91545W        W56772   5.085   8.685   2.485
91546W        W56773   5.964   8.214  14.579
91547W        W56774  37.884  42.215  11.886
91548W        W56775  20.089  39.365   1.364
91549W        W56776   2.264   9.781  14.851
91550W        W56777  14.755   9.034  12.046
91551W        W56778  35.976  17.487  13.850
91552W        W56779   7.285   9.412   3.618
91553W        W56780  10.417  37.802  12.106
91554W        W56781  24.160  24.242  14.709
91555W        W56782  40.324  18.051  12.200
91556W        W56783  11.590  32.124  12.197
91557W        W56784  23.368  27.204   0.057
91558W        W56785  43.582   5.513  11.949
91559W        W56786  30.550  35.312   3.809
91560W        W56787  15.953   1.303   4.311
91561W        W56788   2.749  13.155  14.831
91562W        W56789  19.626  27.132   2.595
91563W        W56790  22.637  32.279  11.504
91564W        W56791  43.027  30.941  12.510
91565W        W56792   6.400  15.696  14.790
91566W        W56793   0.952  28.007  13.731
91567W        W56794  39.790  27.395  12.019
91568W        W56795  44.799  25.176   3.376
91569W        W56796  31.121  13.195  12.311
91570W        W56797   3.706  39.730  11.185
91571W        W56798  13.873  11.594   2.226
91572W        W56799  11.170  21.414   3.593
91573W        W56800   6.428   1.537   4.701
91574W        W56801  11.897  23.626  13.350
91575W        W56802  11.362  36.636   1.781
91576W        W56803  33.567  12.874  11.256
91577W        W56804   7.941  37.966  13.086
91578W        W56805  22.484  29.035   3.980
91579W        W56806  27.187   3.024  11.439
91580W        W56807   9.820  34.642   3.257
91581W        W56808  33.612  12.678   4.998
91582W        W56809  29.096  28.168  10.697
91583W        W56810  33.467  43.921   1.391
91584W        W56811  40.698  27.430   4.161
91585W        W56812  12.764  11.173  14.415
91586W        W56813  37.000  35.317  12.023
91587W        W56814  22.051   8.485   4.520
91588W        W56815  42.548  14.957   4.975
91589W        W56816  42.657   7.685  12.747
91590W        W56817   7.775   4.467   0.362
91591W        W56818  24.247  19.245  14.027
91592W        W56819  40.719  19.640   4.021
91593W        W56820  12.838   1.594   3.574
91594W        W56821  37.569  16.850  11.491
91595W        W56822  22.088  19.995  12.996
91596W        W56823  24.150   3.443   1.363
91597W        W56824  28.943  22.163   0.385
91598W        W56825  12.501  24.098   4.472
91599W        W56826  12.795  38.458  12.954
91600W        W56827  30.392   5.053  12.501
91601W        W56828   5.285  44.976  13.041
91602W        W56829  23.187  36.374   0.863
91603W        W56830  42.625  42.937  14.857
91604W        W56831   3.925  27.327  11.687
91605W        W56832  22.393   3.314   3.314
91606W        W56833  33.390  42.448   4.925
91607W        W56834  23.645  29.218  11.616
91608W        W56835  27.178  28.677  10.634
91609W        W56836  36.103   4.651   2.137
91610W        W56837  33.283   7.464   1.424
91611W        W56838  32.989  12.237   2.871
91612W        W56839   7.746  19.701   1.556
91613W        W56840   9.367   5.724  14.775
91614W        W56841  27.903  44.843   4.508
91615W        W56842  41.969  13.720   1.413
91616W        W56843  38.884  34.816   2.370
91617W        W56844   5.199   3.259  11.682
91618W        W56845  28.471  18.529  14.368
91619W        W56846  25.387   1.237   2.097
91620W        W56847   0.024   2.522   0.118
91621W        W56848  36.096  34.474   3.682
91622W        W56849   1.383  14.180   1.782
91623W        W56850   8.826   7.175  12.804
91624W        W56851  29.600  20.482  13.428
91625W        W56852  33.441  28.785   0.984
91626W        W56853   2.473  19.246   9.530
91627W        W56854  25.585  28.221   2.692
91628W        W56855  35.290   1.456   0.791
91629W        W56856  19.139   9.798  11.439
91630W        W56857  36.866  23.698  11.204
91631W        W56858  41.462  26.629  13.953
91632W        W56859  21.331  32.868   5.073
91633W        W56860   9.131  20.591   2.763
91634W        W56861  40.002   6.928  14.356
91635W        W56862  42.923   8.603   0.491
91636W        W56863   6.798  41.837   3.589
91637W        W56864   9.110   7.732  13.054
91638W        W56865   2.349  18.628   3.379
91639W        W56866   3.265   3.676  14.814
91640W        W56867   6.932   1.815  14.463
91641W        W56868  41.602   5.180  11.156
91642W        W56869  22.871  44.319   4.136
91643W        W56870  31.575   2.320   1.788
91644W        W56871  17.369   5.815  14.331
91645W        W56872  34.210   2.318   1.823
91646W        W56873  21.819  36.424   3.696
91647W        W56874  33.074  12.603  14.359
91648W        W56875  19.563  23.006  11.354
91649W        W56876  10.353  11.199  13.360
91650W        W56877   3.250  40.131   3.644
91651W        W56878  23.097  24.525   4.036
91652W        W56879  43.548  34.181   3.204
91653W        W56880   5.652  27.669   3.778
91654W        W56881  12.391  35.107   1.385
91655W        W56882  43.693  34.361  14.790
91656W        W56883   7.756   2.651   4.987
91657W        W56884   0.876   3.434  11.218
91658W        W56885  13.595  34.048  14.630
91659W        W56886  10.669  13.682  11.196
91660W        W56887  37.339  32.450   2.139
91661W        W56888  27.698  41.026  12.585
91662W        W56889   2.684  44.604   4.017
91663W        W56890  40.386  10.353   1.331
91664W        W56891  32.384  21.456   2.041
91665W        W56892   3.935  12.569   3.461
91666W        W56893   3.575  39.437   5.012
91667W        W56894   6.160   1.101  14.383
91668W        W56895   2.986  30.381   3.739
91669W        W56896   6.926  23.814  11.653
91670W        W56897  13.558   4.589  11.887
91671W        W56898  29.031  24.757   3.576
91672W        W56899  32.559  11.882   3.630
91673W        W56900  32.416  41.316   0.778
91674W        W56901   1.973   7.269  13.645
91675W        W56902  20.579  32.845  13.832
91676W        W56903  12.597  40.729  10.566
91677W        W56904   3.835  39.469   2.891
91678W        W56905   2.328  10.163  12.643
91679W        W56906   6.423  10.838  11.679
91680W        W56907  20.503  11.335  12.871
91681W        W56908  24.034  15.828   4.136
91682W        W56909  11.384  27.454  12.414
91683W        W56910  10.758  33.966   2.621
91684W        W56911  15.714  42.376   0.306
91685W        W56912  30.645  19.623   3.569
91686W        W56913  41.539  24.612   2.798
91687W        W56914  30.252   3.430  14.528
91688W        W56915  21.860  20.992  10.726
91689W        W56916   5.139  11.847   2.675
91690W        W56917  36.814   7.176   0.333
91691W        W56918  24.204   7.586   0.168
91692W        W56919  14.411  37.183  10.260
91693W        W56920  31.990   6.594  11.126
91694W        W56921  30.604  23.746  12.431
91695W        W56922   8.817   4.329  10.051
91696W        W56923   3.867  21.759  11.679
91697W        W56924  15.721  11.424   4.547
91698W        W56925  17.789  20.624  13.856
91699W        W56926   9.667  41.468   2.308
91700W        W56927  32.940  14.624  10.167
91701W        W56928   2.976  14.292  14.840
91702W        W56929  13.423  27.554   2.256
91703W        W56930  41.237  33.752   0.563
91704W        W56931  16.240  25.217   5.116
91705W        W56932  31.663   7.558   0.522
91706W        W56933  26.556  38.474  11.663
91707W        W56934  38.889   3.969   3.606
91708W        W56935  43.601  10.423   0.918
91709W        W56936  37.517  42.360   0.944
91710W        W56937  32.238   6.735  14.345
91711W        W56938  11.022  44.012  12.066
91712W        W56939   6.841  42.243  11.438
91713W        W56940  34.968  42.287  10.631
91714W        W56941  35.598  13.363  12.582
91715W        W56942  15.653  32.859  13.555
91716W        W56943  36.875  35.436   0.527
91717W        W56944  24.952  17.169   1.005
91718W        W56945   9.907  35.065  12.580
91719W        W56946  13.906  15.333  11.527
91720W        W56947  13.078  38.053   3.604
91721W        W56948  41.629  16.117  12.543
91722W        W56949   7.388  12.914   2.118
91723W        W56950   9.834  39.160   0.823
91724W        W56951  32.141  29.514   4.105
91725W        W56952  38.437   9.250   2.561
91726W        W56953  16.994  21.277  11.591
91727W        W56954  27.349  22.970   3.841
91728W        W56955   1.456  20.571   4.965
91729W        W56956  36.476  11.356   4.220
91730W        W56957  38.300  27.753  12.384
91731W        W56958  20.523  18.304   1.815
91732W        W56959  12.337   0.033   0.843
91733W        W56960  18.366  33.061   4.233
91734W        W56961   1.635  13.969  11.642
91735W        W56962  14.893   4.484   2.913
91736W        W56963  12.582  15.662  11.496
91737W        W56964  12.710  26.278   0.365
91738W        W56965  26.729  36.920  14.488
91739W        W56966  20.475  35.416   1.741
91740W        W56967  22.978  39.291  14.847
91741W        W56968  14.979   5.261   0.413
91742W        W56969  22.183  27.740   4.728
91743W        W56970  11.368  16.561  14.150
91744W        W56971  33.260  21.465   0.404
91745W        W56972  44.823  35.461  12.623
91746W        W56973   1.415  32.868   2.305
91747W        W56974   4.256  14.540  10.853
91748W        W56975   2.690   9.429   1.880
91749W        W56976  19.880  26.255  12.988
91750W        W56977  15.625  30.962   2.989
91751W        W56978  16.801  29.147   4.095
91752W        W56979  14.087  41.990   3.258
91753W        W56980  11.898  19.635   3.781
91754W        W56981  17.858  18.526   2.352
91755W        W56982  29.568  35.650  13.262
91756W        W56983  19.642  21.092  13.938
91757W        W56984  16.908  19.122  12.032
91758W        W56985  42.840  21.129  10.746
91759W        W56986  10.392   9.903  10.306
91760W        W56987  30.029  12.110   1.387
91761W        W56988  11.854  41.399  11.248
91762W        W56989  31.683  28.792   4.100
91763W        W56990   3.787  14.715  14.789
91764W        W56991  39.935   2.999  12.439
91765W        W56992   9.967  27.165   4.584
91766W        W56993   5.922  18.642   2.174
91767W        W56994  13.954  32.201  11.626
91768W        W56995   3.396  12.452  12.572
91769W        W56996  19.268  18.605   2.619
91770W        W56997  29.655  19.406  11.989
91771W        W56998  34.177  15.130   3.552
91772W        W56999  44.592  35.378   4.065
91773W        W57000  10.687  31.332   3.770
91774W        W57001  19.571  44.009  14.464
91775W        W57002  31.811   9.229  14.323
91776W        W57003  35.042  36.060   4.150
91777W        W57004  31.955   4.417  13.814
91778W        W57005   0.422  19.563   1.712
91779W        W57006  33.692  36.700   3.621
91780W        W57007   3.921  36.343   1.193
91781W        W57008   6.766  37.009   4.167
91782W        W57009  28.413   0.789   0.423
91783W        W57010  35.039  12.541   0.065
91784W        W57011  36.629  11.652   1.934
91785W        W57012  39.921  18.203  14.572
91786W        W57013  32.372  10.089   1.747
91787W        W57014  30.580  29.392   5.406
91788W        W57015  36.022  30.147   0.123
91789W        W57016  10.933  12.642   0.783
91790W        W57017  22.020  16.537   1.336
91791W        W57018   2.872  42.040  10.760
91792W        W57019  44.509  33.734  10.795
91793W        W57020  20.215  27.929   1.722
91794W        W57021   7.947  20.046  12.425
91795W        W57022  40.898  19.103   1.194
91796W        W57023  20.746  34.113   0.383
91797W        W57024  27.322  33.000  13.951
91798W        W57025  43.876  43.564   0.725
91799W        W57026   0.117  17.280   0.377
91800W        W57027   6.878   1.910   4.204
91801W        W57028  14.722  12.703   1.186
91802W        W57029  26.788  26.424   2.654
91803W        W57030  19.543  37.985   4.827
91804W        W57031  10.958  13.187   3.248
91805W        W57032  18.036   1.793  13.370
91806W        W57033  41.960   7.695   0.460
91807W        W57034  21.773   6.411   4.140
91808W        W57035   1.752   2.800   4.576
91809W        W57036  32.381   7.419   0.191
91810W        W57037   1.306   3.334   0.669
91811W        W57038  14.126  34.337  12.061
91812W        W57039  13.547  44.683   2.993
91813W        W57040   6.598  24.502   0.212
91814W        W57041  25.994  31.629  12.029
91815W        W57042   9.530   6.752   1.335
91816W        W57043   9.723  44.857  10.356
91817W        W57044  38.516  35.400   4.606
91818W        W57045   4.220   0.306  13.079
91819W        W57046  11.459  35.435   3.212
91820W        W57047  44.329  28.766  11.129
91821W        W57048  27.988  19.530   1.339
91822W        W57049  12.595  35.582  10.690
91823W        W57050  16.833  16.911   3.472
91824W        W57051  30.020  10.827  10.551
91825W        W57052  41.711   1.961   0.706
91826W        W57053  11.552  17.640  14.769
91827W        W57054  20.220  12.497   2.259
91828W        W57055   9.361  16.032   3.441
91829W        W57056  29.086  43.580  11.665
91830W        W57057  15.221  21.670   4.682
91831W        W57058  17.722  32.833  14.837
91832W        W57059  27.372   9.398  14.963
91833W        W57060  38.550  29.499   2.635
91834W        W57061  34.368  42.705   4.108
91835W        W57062  39.996  40.816  12.902
91836W        W57063  40.452  22.532  10.799
91837W        W57064  16.663  21.081  10.483
91838W        W57065  44.560   4.878   3.195
91839W        W57066  37.002   8.174  14.978
91840W        W57067  21.819  14.494   2.613
91841W        W57068  43.759  12.043  11.897
91842W        W57069   5.896  38.867   0.789
91843W        W57070  29.914  34.626  14.064
91844W        W57071  15.998  40.422  13.321
91845W        W57072   1.546  17.494  10.749
91846W        W57073   7.904  35.811  14.990
91847W        W57074   3.819  26.118  12.007
91848W        W57075  25.500  30.113  11.726
91849W        W57076  38.666  28.962  11.058
91850W        W57077  41.428  24.681  13.897
91851W        W57078  14.356   5.317  12.487
91852W        W57079   4.850  11.375   1.873
91853W        W57080  19.191   6.646   4.145
91854W        W57081  13.128  37.537   2.346
91855W        W57082  30.470  15.755  11.752
91856W        W57083  42.034  44.367   1.202
91857W        W57084  33.364  10.336  14.882
91858W        W57085  15.736  42.919  12.121
91859W        W57086   2.206  18.132   3.222
91860W        W57087  15.306  23.760   4.090
91861W        W57088  40.891  10.334  14.021
91862W        W57089  31.570   8.689   2.292
91863W        W57090  13.790   7.772  13.947
91864W        W57091  31.840  33.121   4.830
91865W        W57092   6.569   8.173   4.189
91866W        W57093  39.588  36.141   2.248
91867W        W57094  31.140  23.187   4.324
91868W        W57095   5.294  44.972  13.813
91869W        W57096   8.385  32.485  11.622
91870W        W57097   3.066  22.730   2.768
91871W        W57098  15.269   6.421  13.295
91872W        W57099  24.011  32.116  11.729
91873W        W57100  29.997  41.671   4.051
91874W        W57101  41.832  13.933   2.223
91875W        W57102  12.244  16.274   1.799
91876W        W57103  41.864  40.783   1.316
91877W        W57104  29.981  40.600   1.310
91878W        W57105   0.534  12.712  12.952
91879W        W57106   4.288  24.793  13.904
91880W        W57107  41.966  16.659  12.137
91881W        W57108  32.129  17.252   2.036
91882W        W57109  10.516  37.557  13.080
91883W        W57110  18.678  12.378  12.970
91884W        W57111  14.205  33.966   2.653
91885W        W57112  10.634   4.459   3.795
91886W        W57113  31.118  24.205   2.642
91887W        W57114  12.808  38.076   4.081
91888W        W57115   3.661  31.509  10.699
91889W        W57116  17.519  11.817  12.983
91890W        W57117  22.550   6.661  14.000
91891W        W57118  23.621   6.156  14.116
91892W        W57119   9.922  43.873  10.740
91893W        W57120  28.819  27.434   1.025
91894W        W57121  20.519  19.561  11.162
91895W        W57122   1.132  34.365  10.684
91896W        W57123   5.126  18.153  12.001
91897W        W57124  15.255  38.596   1.866
91898W        W57125  12.304  26.002   3.643
91899W        W57126  17.284   3.425  13.108
91900W        W57127  22.500  11.744  13.812
91901W        W57128  17.189  41.642  14.450
91902W        W57129   7.824   7.766  11.682
91903W        W57130  16.810  17.467   4.503
91904W        W57131  36.049  40.770  12.954
91905W        W57132   2.287  40.578  12.512
91906W        W57133  15.041  24.679  14.850
91907W        W57134  17.830  25.101  13.859
91908W        W57135   3.210  40.609   2.788
91909W        W57136   1.517  30.181  12.747
91910W        W57137  43.873  26.013   2.833
91911W        W57138  30.089   4.729  10.803
91912W        W57139  17.220   6.291   3.739
91913W        W57140   7.427  35.564  11.129
91914W        W57141   6.925  32.320   0.930
91915W        W57142  20.008  23.971   0.662
91916W        W57143  21.249  23.786  13.783
91917W        W57144  27.947  10.659   3.734
91918W        W57145  30.277  40.557  11.094
91919W        W57146   9.119  13.797  13.879
91920W        W57147  22.067   5.412  14.729
91921W        W57148   3.248  15.539   0.918
91922W        W57149  37.419  12.172   0.344
91923W        W57150  17.075  42.657   4.826
91924W        W57151   4.673  37.925  14.915
91925W        W57152  16.630  34.424   0.766
91926W        W57153  34.207  17.110   2.140
91927W        W57154  43.799  34.621  12.487
91928W        W57155   2.829   0.314  10.223
91929W        W57156  21.803  36.872  14.934
91930W        W57157   1.211   8.984   3.942
91931W        W57158  15.751  21.001  10.904
91932W        W57159   4.470  29.405   2.842
91933W        W57160  14.139  16.173   0.569
91934W        W57161  18.021  21.029   0.931
91935W        W57162  40.536  38.803  10.465
91936W        W57163  33.613  44.573   0.335
91937W        W57164  39.238   9.917  13.031
91938W        W57165   4.452  26.895   2.774
91939W        W57166  15.737  34.104  10.601
91940W        W57167  17.277   8.631  14.270
91941W        W57168   7.857  40.515   1.138
91942W        W57169  24.905   4.603   3.322
91943W        W57170  30.483   5.889  12.166
91944W        W57171  27.400  24.333   3.364
91945W        W57172  26.239  23.289  11.534
91946W        W57173  30.178  30.965   1.666
91947W        W57174  24.940  10.412  13.317
91948W        W57175  10.296  41.172  11.115
91949W        W57176  41.492  38.548  10.620
91950W        W57177   4.495  44.757  14.982
91951W        W57178  16.052  24.460  10.745
91952W        W57179  44.300   9.878  13.462
91953W        W57180  43.801  11.760   0.312
91954W        W57181  33.810  29.841  12.728
91955W        W57182  10.632  36.392   1.196
91956W        W57183  22.753  29.459   4.118
91957W        W57184   6.866   4.704  12.057
91958W        W57185  20.799  15.369   4.199
91959W        W57186   1.504  15.321   4.817
91960W        W57187  32.970  19.474   4.232
91961W        W57188  19.515  32.011  10.749
91962W        W57189  42.580  24.996  11.950
91963W        W57190  38.587  40.561   0.296
91964W        W57191  21.288  16.575  10.827
91965W        W57192  42.065  35.780  14.439
91966W        W57193  42.762   0.530   4.158
91967W        W57194  37.849  38.394  13.893
91968W        W57195  29.093  19.691   2.006
91969W        W57196  32.442  34.813  14.894
91970W        W57197  27.025  25.908   0.280
91971W        W57198  33.579   2.052   5.040
91972W        W57199  12.047  21.689  12.285
91973W        W57200   2.242  17.417   4.451
91974W        W57201  43.029  37.497   0.139
91975W        W57202  16.629  35.599   2.407
91976W        W57203   6.929  36.997  10.806
91977W        W57204  19.556  21.687   1.927
91978W        W57205  20.111  42.510   4.866
91979W        W57206  37.876  21.604   3.216
91980W        W57207  21.429  43.320   1.721
91981W        W57208   4.423  14.455  11.632
91982W        W57209   8.268  40.589  10.723
91983W        W57210  30.694   1.234   4.541
91984W        W57211   9.171  20.892  11.957
91985W        W57212  14.036  16.874  14.957
91986W        W57213   2.978  32.602  12.570
91987W        W57214  17.351  22.195   2.576
91988W        W57215   4.471  24.493  13.472
91989W        W57216  25.551  31.416   1.742
91990W        W57217  23.526  41.343   4.165
91991W        W57218  29.035   2.871  11.694
91992W        W57219  14.633  29.684  11.697
91993W        W57220  42.014  36.494   2.837
91994W        W57221  12.644  29.608   3.702
91995W        W57222  40.814  27.694  11.131
91996W        W57223  23.699  17.668   4.211
91997W        W57224  16.821  44.982  12.527
91998W        W57225  44.590   3.377  14.799
91999W        W57226   9.213   8.012   3.714
92000W        W57227  41.186   9.197  13.914
92001W        W57228  42.855  14.544   1.653
92002W        W57229  28.809  37.556  12.602
92003W        W57230  14.196  18.288   1.741
92004W        W57231  15.544   7.343  12.430
92005W        W57232  16.751   3.010  13.425
92006W        W57233  35.214  43.764  10.799
92007W        W57234  17.200  30.953   3.773
92008W        W57235  19.497  26.986   3.085
92009W        W57236  34.096  14.604   4.900
92010W        W57237  40.940  39.681   2.847
92011W        W57238   6.015   1.783   4.951
92012W        W57239   0.530  13.792   2.808
92013W        W57240  29.440  20.031   2.310
92014W        W57241  39.338  16.725   0.781
92015W        W57242  40.377  16.013  13.964
92016W        W57243  25.224  11.600   0.094
92017W        W57244   4.941  42.201  13.492
92018W        W57245  38.845  27.686   0.153
92019W        W57246  19.443  22.799  13.373
92020W        W57247   6.522   6.839  13.492
92021W        W57248  36.393  26.947   0.765
92022W        W57249   7.165  17.402  12.988
92023W        W57250   2.311   4.757  14.521
92024W        W57251  13.697  12.195   0.928
92025W        W57252   6.032  31.469   1.751
92026W        W57253  36.802  14.511   5.071
92027W        W57254   6.637  43.288  12.802
92028W        W57255  16.573  17.406   2.133
92029W        W57256  39.660  44.575   3.202
92030W        W57257  12.608  34.595   5.538
92031W        W57258  14.274   4.453   2.680
92032W        W57259  41.491   0.163  13.159
92033W        W57260  21.000  31.884  10.673
92034W        W57261  14.950   8.661   3.140
92035W        W57262  36.060  34.445  12.655
92036W        W57263  20.041   9.308  13.486
92037W        W57264   8.650  12.875   3.263
92038W        W57265  22.134  29.619   2.737
92039W        W57266  27.814  13.296  10.254
92040W        W57267  13.225  24.610  11.446
92041W        W57268  32.683  33.412   4.869
92042W        W57269  27.498  12.591  10.662
92043W        W57270  20.727  29.691  13.327
92044W        W57271  26.602  13.664  11.681
92045W        W57272  37.048   1.238  13.461
92046W        W57273   7.947  21.514  11.957
92047W        W57274  27.488   1.970   2.745
92048W        W57275  38.854   6.406  13.000
92049W        W57276  11.177  38.982  13.736
92050W        W57277   1.314  27.896   4.093
92051W        W57278  23.680  41.409   3.631
92052W        W57279  20.139   0.424   4.155
92053W        W57280  12.900  20.546   3.217
92054W        W57281  43.901  36.542   4.335
92055W        W57282   6.158  40.281   3.641
92056W        W57283  41.960  23.973   3.640
92057W        W57284  27.178  21.968   1.611
92058W        W57285  32.782   4.338  11.159
92059W        W57286   6.538  26.132   3.777
92060W        W57287  18.076  19.693   3.636
92061W        W57288  25.040  42.768   5.233
92062W        W57289  41.846  27.002  12.887
92063W        W57290   9.231  33.027   2.666
92064W        W57291  26.507   2.330  13.381
92065W        W57292  32.123  34.996  13.484
92066W        W57293  10.531   0.937  14.695
92067W        W57294  25.153  18.617   2.924
92068W        W57295  44.439  38.316  11.633
92069W        W57296  28.450  15.984  11.509
92070W        W57297  41.061  17.902   0.603
92071W        W57298   7.414  30.140   1.360
92072W        W57299  21.207   7.884  10.539
92073W        W57300  35.172   7.677   3.250
92074W        W57301  15.099  39.808   3.098
92075W        W57302   2.251   3.151  11.943
92076W        W57303  41.943  33.338   3.739
92077W        W57304  19.511  21.743  14.594
92078W        W57305  18.635  38.447  11.155
92079W        W57306  44.149  20.597  14.418
92080W        W57307  38.343  22.010   3.815
92081W        W57308  44.464   9.591   3.726
92082W        W57309  26.075   7.361  12.152
92083W        W57310  26.103  44.851   3.592
92084W        W57311  39.028  14.772  13.032
92085W        W57312   9.885  40.553  11.542
92086W        W57313  32.968  24.109  10.639
92087W        W57314  16.509  34.523  13.499
92088W        W57315  33.445  26.947  13.401
92089W        W57316  27.183  32.151   1.944
92090W        W57317  23.777  29.134  10.807
92091W        W57318  30.220  11.337   0.637
92092W        W57319  39.763  22.209   2.223
92093W        W57320  28.588   0.321   0.263
92094W        W57321  39.618  43.363   2.360
92095W        W57322   2.777  22.088  13.855
92096W        W57323   7.950  14.610   0.331
92097W        W57324  16.656   7.321  12.290
92098W        W57325  43.304  32.919   1.291
92099W        W57326  41.485  16.618   1.930
92100W        W57327  21.514  21.276   4.251
92101W        W57328  31.283  17.667  12.513
92102W        W57329  10.104  37.134  14.675
92103W        W57330  21.170  16.611   1.017
92104W        W57331  31.414  23.460  13.587
92105W        W57332   4.482  12.601  10.745
92106W        W57333  41.373  26.389  11.214
92107W        W57334  12.036  21.754   2.502
92108W        W57335  27.929  35.969   4.150
92109W        W57336  18.159  31.583   1.419
92110W        W57337  24.163  39.560   2.681
92111W        W57338  17.868   6.530   1.879
92112W        W57339   6.920   8.183  14.201
92113W        W57340   2.039  37.290  14.496
92114W        W57341   8.793  13.057   1.070
92115W        W57342  37.537  16.554   0.920
92116W        W57343  27.177  13.054  13.871
92117W        W57344  31.070  22.561  14.993
92118W        W57345  18.541   2.338   1.782
92119W        W57346  12.248  25.095  10.864
92120W        W57347  10.781  29.177   1.894
92121W        W57348  18.408  36.670   3.617
92122W        W57349   1.426  29.013  13.065
92123W        W57350  42.550  21.141  13.552
92124W        W57351   9.350  15.114   2.745
92125W        W57352  39.359  38.033   4.674
92126W        W57353  26.161   1.372  11.860
92127W        W57354  29.487   0.758  10.683
92128W        W57355   3.136  17.611  14.673
92129W        W57356   0.350  18.271   0.032
92130W        W57357  37.988  39.162   2.721
92131W        W57358  22.925  27.719  14.271
92132W        W57359  29.943  32.375  12.042
92133W        W57360   9.660  17.001  14.589
92134W        W57361  11.799  12.761   0.504
92135W        W57362  36.515  22.542  14.900
92136W        W57363  11.127  41.597   3.565
92137W        W57364   9.621  26.127   3.075
92138W        W57365  24.887  19.719   2.130
92139W        W57366  28.397   0.779  10.547
92140W        W57367  31.036  39.356   1.261
92141W        W57368  23.452  43.197  11.489
92142W        W57369  44.024  32.378   4.578
92143W        W57370  14.203  19.778   2.807
92144W        W57371  23.510  21.041  11.385
92145W        W57372  17.480  40.512  11.648
92146W        W57373  20.123   1.363   0.982
92147W        W57374  20.103  12.118  12.117
92148W        W57375  20.118  29.360   3.341
92149W        W57376   2.515  33.903  13.885
92150W        W57377  20.992   7.559   1.432
92151W        W57378  37.312  13.673   0.019
92152W        W57379  21.752  25.073   2.920
92153W        W57380   0.413   6.767   3.153
92154W        W57381  20.671  38.053   2.869
92155W        W57382  20.752  37.450   4.362
92156W        W57383  13.893  23.906  14.713
92157W        W57384  34.086  28.052   1.617
92158W        W57385   7.407   3.732  14.483
92159W        W57386   9.743  38.598   2.912
92160W        W57387  37.425  28.011  14.219
92161W        W57388  12.767  24.067  13.296
92162W        W57389  11.914  26.477   4.181
92163W        W57390  29.044  41.276   0.780
92164W        W57391  37.563   3.044   0.795
92165W        W57392  23.538  38.165   0.473
92166W        W57393   1.344  16.651  12.676
92167W        W57394  10.358   3.013   3.327
92168W        W57395   4.243   9.217   2.714
92169W        W57396  42.296  20.590  11.661
92170W        W57397   0.230  39.088  14.081
92171W        W57398  30.669  35.338  11.416
92172W        W57399  34.346  33.014   0.356
92173W        W57400  36.345  16.646  13.532
92174W        W57401  18.411   0.515   3.763
92175W        W57402  29.489  35.634   4.571
92176W        W57403  33.833  16.519  14.235
92177W        W57404  30.548  11.323   4.938
92178W        W57405   7.274   9.057  14.952
92179W        W57406  23.582  18.321  14.962
92180W        W57407  36.042  13.295  12.319
92181W        W57408  30.398   9.575  13.422
92182W        W57409  44.999  43.331   2.113
92183W        W57410  44.503  27.142   2.799
92184W        W57411  27.284  32.738  14.549
92185W        W57412  25.100  23.221  14.297
92186W        W57413  32.500   7.448   2.642
92187W        W57414  13.751  16.213   4.039
92188W        W57415   2.395  41.935  10.922
92189W        W57416   0.053  28.133   1.272
92190W        W57417  29.131  14.853   2.862
92191W        W57418  19.868  21.485   2.673
92192W        W57419  24.288  19.274  10.667
92193W        W57420  37.396   5.741   0.575
92194W        W57421  27.918  38.827  14.915
92195W        W57422  43.993  22.524  10.623
92196W        W57423  18.962  40.338   1.510
92197W        W57424  15.650  20.225  14.958
92198W        W57425  12.185  30.727  13.313
92199W        W57426  43.871   7.253  12.191
92200W        W57427  25.492  41.846  13.479
92201W        W57428  20.297  21.703  11.321
92202W        W57429  39.821  32.359   2.520
92203W        W57430  16.973  26.015   3.842
92204W        W57431   3.912  14.716  10.518
92205W        W57432  26.681   3.769  12.611
92206W        W57433   2.937   9.719   0.987
92207W        W57434  43.027  13.624   2.717
92208W        W57435  25.032  38.269   3.117
92209W        W57436  19.118  16.024  10.706
92210W        W57437  42.032  31.373  14.360
92211W        W57438   7.369  17.962  13.499
92212W        W57439  27.221  28.843   0.342
92213W        W57440   3.357  15.397   4.603
92214W        W57441  25.399  32.729   2.260
92215W        W57442   0.330  10.007  12.605
92216W        W57443  43.434  30.175  11.749
92217W        W57444   4.729  39.735  11.956
92218W        W57445  35.907  19.952   2.855
92219W        W57446  20.174  44.503   4.203
92220W        W57447  20.874  19.446   0.415
92221W        W57448   1.405   4.104  11.774
92222W        W57449  17.122   2.042  10.282
92223W        W57450  23.283  24.953  12.965
92224W        W57451   8.900   0.961  10.773
92225W        W57452  28.145   5.427  11.585
92226W        W57453  21.044  41.909  14.051
92227W        W57454   6.888  42.828   2.695
92228W        W57455   6.139  13.193  12.377
92229W        W57456  44.972  35.924  13.855
92230W        W57457  41.216   7.651  13.962
92231W        W57458  23.474  36.541   4.541
92232W        W57459  35.343  10.148  11.047
92233W        W57460  19.325  37.371   1.254
92234W        W57461   1.829  26.864  14.102
92235W        W57462  11.533  22.989  13.362
92236W        W57463   7.786  36.178  10.783
92237W        W57464   4.354  17.580  13.774
92238W        W57465   8.403   0.699  14.035
92239W        W57466  34.455  30.530   1.926
92240W        W57467   4.843  37.726  13.123
92241W        W57468  35.390  23.221   0.291
92242W        W57469  26.053   6.519   2.968
92243W        W57470   8.401  26.561   1.468
92244W        W57471  33.060   4.191   0.863
92245W        W57472   1.695   1.924   1.997
92246W        W57473  33.522  27.417  11.640
92247W        W57474  18.759  42.952  11.153
92248W        W57475  38.526  27.059   3.129
92249W        W57476  33.137  37.328  13.173
92250W        W57477   4.151  26.559  13.246
92251W        W57478  33.679  18.707   1.542
92252W        W57479  16.979  30.126   0.654
92253W        W57480  36.937  21.687   3.240
92254W        W57481  44.657  39.180  13.440
92255W        W57482  10.840   8.358   4.424
92256W        W57483  10.930  13.311  14.880
92257W        W57484  10.953  11.445  12.489
92258W        W57485   8.417  31.061   1.221
92259W        W57486  21.528  28.904  11.877
92260W        W57487  28.645  34.127  14.187
92261W        W57488  33.544  34.644   5.310
92262W        W57489  17.780  33.316  13.215
92263W        W57490   7.287  27.982  12.616
92264W        W57491  13.415   8.977  14.336
92265W        W57492  16.176  17.063  14.471
92266W        W57493   6.350  17.303   0.767
92267W        W57494  40.400  43.019   4.998
92268W        W57495  35.769  29.667   5.152
92269W        W57496  38.992   3.769  11.694
92270W        W57497  21.962  21.449   4.675
92271W        W57498  20.537  20.656  12.645
92272W        W57499  35.536  17.500   1.511
92273W        W57500  22.268  43.260   1.472
92274W        W57501   6.762  24.182  13.010
92275W        W57502   6.221  35.601  11.708
92276W        W57503  17.281  11.734   4.487
92277W        W57504  22.552  20.783  14.400
92278W        W57505  17.758  21.252  14.385
92279W        W57506   6.954  21.225   3.024
92280W        W57507  15.434  17.064   4.133
92281W        W57508   6.967   0.087  10.854
92282W        W57509  35.973  31.921   2.261
92283W        W57510  44.879  41.001  10.580
92284W        W57511  23.372  37.024   1.401
92285W        W57512   4.311  21.623  13.063
92286W        W57513  17.408  26.837  12.759
92287W        W57514  38.048  14.612  11.133
92288W        W57515  27.014  26.426   0.357
92289W        W57516   6.491  34.428  11.831
92290W        W57517   2.900   4.465   1.692
92291W        W57518  30.145  25.702  14.710
92292W        W57519  20.390  16.073  12.898
92293W        W57520   9.413  28.877  14.853
92294W        W57521  23.199  31.413  14.428
92295W        W57522  41.430   9.168   0.354
92296W        W57523  24.732  28.666  14.561
92297W        W57524  31.004  26.444  13.081
92298W        W57525  39.909   3.804  11.795
92299W        W57526   8.253  34.686  13.483
92300W        W57527   5.104  24.041   2.690
92301W        W57528  21.186  33.512   2.614
92302W        W57529  42.802   9.840   2.190
92303W        W57530   2.132  16.073   4.004
92304W        W57531  23.115  10.265  10.721
92305W        W57532   2.096  20.012   3.139
92306W        W57533  21.307  26.009  13.947
92307W        W57534  13.316   0.503  12.338
92308W        W57535  11.585   9.305   3.431
92309W        W57536  20.645  14.269  10.755
92310W        W57537   5.376   0.758  14.557
92311W        W57538  21.108  27.190  13.448
92312W        W57539  19.129   9.113  13.672
92313W        W57540  14.768  41.763   4.537
92314W        W57541  42.060  22.441   2.774
92315W        W57542   8.029  34.009  14.416
92316W        W57543  43.396   4.704  13.102
92317W        W57544  39.800  21.367  11.379
92318W        W57545  32.408  32.894  10.679
92319W        W57546  11.664  27.456  11.669
92320W        W57547  26.845   0.085  13.364
92321W        W57548  22.555  10.237   0.519
92322W        W57549  13.197  15.285  11.259
92323W        W57550  20.751  22.585   1.622
92324W        W57551  34.095  11.858   0.766
92325W        W57552  23.513  21.124  12.491
92326W        W57553   9.015  24.573  13.403
92327W        W57554  21.705  42.040   0.804
92328W        W57555   0.472  26.019  10.191
92329W        W57556  21.985   4.493  13.489
92330W        W57557   2.365  29.879  14.328
92331W        W57558  21.306  36.298   0.554
92332W        W57559  31.837   7.938  11.155
92333W        W57560  13.599   9.382  12.021
92334W        W57561  41.033  26.576  13.504
92335W        W57562  23.081  10.077   2.615
92336W        W57563   7.601  30.475  12.532
92337W        W57564  30.950   9.211   1.547
92338W        W57565  36.817  18.287  14.793
92339W        W57566  15.523  44.487  11.001
92340W        W57567  23.620   0.144   1.381
92341W        W57568   0.338  13.914  13.094
92342W        W57569  38.410   6.243  14.325
92343W        W57570  23.446  21.175   4.214
92344W        W57571  18.089   4.832   0.868
92345W        W57572  15.387  34.480  12.995
92346W        W57573  13.108  31.597   2.141
92347W        W57574  21.632  41.000   4.538
92348W        W57575  13.678  36.095   4.254
92349W        W57576  14.798  23.208  13.613
92350W        W57577   5.861   0.108  10.638
92351W        W57578   8.768  10.987  10.955
92352W        W57579  26.188  12.806   2.271
92353W        W57580   9.177   8.932   4.733
92354W        W57581  23.494  22.214  11.376
92355W        W57582  39.092  26.926   0.367
92356W        W57583  17.631  36.453   4.017
92357W        W57584   7.355  21.264  13.556
92358W        W57585  16.128  20.372  12.427
92359W        W57586  17.148  34.423  14.383
92360W        W57587   0.245  17.625  14.676
92361W        W57588   0.455   7.771   3.204
92362W        W57589  14.225  13.476   2.343
92363W        W57590  25.220   2.802   1.323
92364W        W57591  18.548  33.865  12.874
92365W        W57592  23.972  13.836  10.756
92366W        W57593  44.510  27.318   5.238
92367W        W57594  28.155  42.038  13.003
92368W        W57595  13.031  27.508   1.390
92369W        W57596   2.420   0.094  11.317
92370W        W57597  15.544  30.662   1.488
92371W        W57598  35.470   1.983   3.314
92372W        W57599  30.092  44.953   4.722
92373W        W57600  19.312  37.049  12.519
92374W        W57601  28.577  31.101   3.112
92375W        W57602  13.743  43.247   4.243
92376W        W57603   5.280  28.569  10.480
92377W        W57604   4.281   8.892  11.650
92378W        W57605  31.477  14.564  12.013
92379W        W57606  25.289  37.087  14.097
92380W        W57607  18.916  17.436  12.794
92381W        W57608  38.106  21.110   4.006
92382W        W57609  12.224   8.469  13.311
92383W        W57610  20.020  16.746   1.853
92384W        W57611  17.355   7.886  10.731
92385W        W57612  33.524  21.323  10.303
92386W        W57613  10.635  36.067   4.036
92387W        W57614  34.206  34.501  14.474
92388W        W57615  18.774  14.183   2.564
92389W        W57616  28.905  38.982   1.261
92390W        W57617  43.929  41.363   0.352
92391W        W57618  41.164  30.528   3.182
92392W        W57619  30.555  14.651  12.565
92393W        W57620   9.864  28.118   1.644
92394W        W57621   7.274  10.656   3.228
92395W        W57622  32.507  39.106   3.162
92396W        W57623  34.063  15.542   4.310
92397W        W57624  41.913   5.477  14.965
92398W        W57625  21.706  43.409  13.971
92399W        W57626  14.092   0.829   4.647
92400W        W57627  16.263  13.847   1.033
92401W        W57628  34.593  28.279   5.003
92402W        W57629   9.850  14.157   3.319
92403W        W57630  12.240  11.378  10.995
92404W        W57631  22.963  30.426   3.194
92405W        W57632   0.938  16.074  13.835
92406W        W57633  19.217   5.746   0.930
92407W        W57634  25.329  43.817   2.473
92408W        W57635   0.869  11.381   1.776
92409W        W57636   9.462  33.140  14.353
92410W        W57637  22.590  32.419  13.174
92411W        W57638   6.941  19.729   4.356
92412W        W57639  15.146  39.148  13.426
92413W        W57640  24.140   8.630  14.371
92414W        W57641   6.420  42.312  14.501
92415W        W57642  13.671  42.494   4.956
92416W        W57643  10.407  20.442   2.334
92417W        W57644   6.648  18.162   2.620
92418W        W57645  37.761  13.510   0.280
92419W        W57646  24.733  30.349   0.410
92420W        W57647   1.919  37.056  13.721
92421W        W57648  43.486   2.831  12.616
92422W        W57649  41.083  37.420   4.528
92423W        W57650   4.852  20.199  13.791
92424W        W57651  20.229   4.934   4.655
92425W        W57652   8.371  39.114  12.532
92426W        W57653   0.032  36.229  12.162
92427W        W57654  38.068   7.171   2.272
92428W        W57655  19.179  23.159   3.190
92429W        W57656  38.244  36.440  11.753
92430W        W57657   3.824  33.639  12.423
92431W        W57658  40.805  12.534   4.794
92432W        W57659  20.749  10.023  13.373
92433W        W57660   4.792  41.300  12.573
92434W        W57661  10.407  16.987  13.489
92435W        W57662  29.888  30.558  11.546
92436W        W57663  32.854   6.256   0.272
92437W        W57664  42.283  24.174   4.618
92438W        W57665  13.908  19.627   0.238
92439W        W57666   7.591   0.608  14.985
92440W        W57667  41.710  21.528   2.733
92441W        W57668  28.390  13.034  10.267
92442W        W57669  28.230   9.552  11.620
92443W        W57670  12.046   0.199   0.434
92444W        W57671  17.928   5.449  13.716
92445W        W57672  12.397  44.605  10.439
92446W        W57673  12.860  27.897   2.825
92447W        W57674   8.312  12.797   2.528
92448W        W57675  34.230  28.637   4.995
92449W        W57676  36.905  23.607  13.160
92450W        W57677   4.403  27.111  11.573
92451W        W57678  41.383  44.968  11.534
92452W        W57679  16.607   7.352   3.315
92453W        W57680   7.625  26.727   1.860
92454W        W57681   9.751   2.219   0.818
92455W        W57682  23.099  26.163  13.428
92456W        W57683  31.149   0.888   1.771
92457W        W57684  13.173  34.647  12.823
92458W        W57685  20.070  18.004   0.685
92459W        W57686   8.573  39.199   0.440
92460W        W57687  22.558  29.975   4.837
92461W        W57688  43.387  22.075   1.683
92462W        W57689  24.472  25.440   0.752
92463W        W57690  19.964  15.600  10.312
92464W        W57691  16.575  41.884  12.465
92465W        W57692  14.087  16.767   3.090
92466W        W57693  13.103  28.426   4.241
92467W        W57694   3.761   1.000   3.066
92468W        W57695  35.945  39.112   1.489
92469W        W57696   2.680   7.235   0.055
92470W        W57697  30.977  10.728   1.694
92471W        W57698  43.533  44.073   3.726
92472W        W57699  38.742  37.542   5.133
92473W        W57700  15.204  32.081  14.764
92474W        W57701   6.722  23.506  12.608
92475W        W57702  29.443   1.039  10.256
92476W        W57703  42.946  14.795  13.608
92477W        W57704  21.339   7.189  13.053
92478W        W57705  14.060  36.472  14.700
92479W        W57706  32.837  44.517  14.300
92480W        W57707   6.172   3.858  14.960
92481W        W57708  34.978  12.904   0.428
92482W        W57709  42.162  11.912  14.655
92483W        W57710  27.271  35.431   4.025
92484W        W57711   1.691  29.246  14.335
92485W        W57712   5.744   0.232  12.617
92486W        W57713  23.719   2.671   1.372
92487W        W57714  22.940  21.584   0.345
92488W        W57715   1.069  31.147  10.574
92489W        W57716  26.014   6.942   1.680
92490W        W57717  40.626  29.158  13.401
92491W        W57718  34.572  36.291  12.617
92492W        W57719  37.074  28.584  11.569
92493W        W57720   3.488  25.420  13.514
92494W        W57721  32.617  29.149  12.829
92495W        W57722  32.677  16.201  11.656
92496W        W57723  10.677   7.180   3.302
92497W        W57724  20.985  29.906   3.316
92498W        W57725  19.090  41.395  14.702
92499W        W57726   2.901  31.882   3.655
92500W        W57727   7.082  42.386  13.842
92501W        W57728   3.983   2.511   2.698
92502W        W57729  14.108  19.116  12.817
92503W        W57730  15.584  39.920  13.952
92504W        W57731  25.731  28.104   4.077
92505W        W57732  17.703  12.130   2.754
92506W        W57733  21.284  27.945   1.279
92507W        W57734   4.887   0.536   1.261
92508W        W57735  26.018  25.591   3.150
92509W        W57736  41.127   7.466  12.528
92510W        W57737   6.414  39.863  11.178
92511W        W57738  22.330  34.098   0.885
92512W        W57739   8.364  35.989   3.786
92513W        W57740  29.570  35.985  10.297
92514W        W57741  36.853  42.083  13.370
92515W        W57742  38.077  33.565   4.707
92516W        W57743   6.535   1.127   5.524
92517W        W57744  35.897  36.739   4.069
92518W        W57745  26.421  39.556   1.862
92519W        W57746  14.029  35.804   0.281
92520W        W57747  35.174  16.553  13.018
92521W        W57748  21.700   4.250   0.576
92522W        W57749  41.724  28.101  11.194
92523W        W57750  14.356  19.788  13.039
92524W        W57751  32.611  43.937  14.771
92525W        W57752  44.333  20.552  14.911
92526W        W57753  37.571  34.756   3.375
92527W        W57754  17.296  10.838   4.575
92528W        W57755   8.665   7.875   1.741
92529W        W57756  35.380  39.757   2.818
92530W        W57757  23.100  12.722   4.507
92531W        W57758  36.424   1.958   0.949
92532W        W57759  29.415  18.121   3.717
92533W        W57760  40.540   5.681   1.780
92534W        W57761  40.575   1.875   1.348
92535W        W57762  28.457  43.921  11.051
92536W        W57763  13.147  21.150   3.886
92537W        W57764  35.056   9.822  14.707
92538W        W57765  13.735   8.310   2.936
92539W        W57766  10.878  43.812  14.783
92540W        W57767  18.557  28.507   2.264
92541W        W57768  17.206  35.518   3.690
92542W        W57769  35.130  38.479  13.658
92543W        W57770  27.854  27.621  13.609
92544W        W57771  11.092  40.432   2.712
92545W        W57772  19.102  11.282   2.412
92546W        W57773  30.778   6.425   4.019
92547W        W57774   1.332  15.585  13.931
92548W        W57775  15.658  28.407   1.771
92549W        W57776  25.611  23.782  14.026
92550W        W57777   5.913  25.038  12.741
92551W        W57778   6.241  31.711  13.090
92552W        W57779  32.389  28.575  12.161
92553W        W57780  28.629  17.024   3.250
92554W        W57781  30.042  43.802   2.078
92555W        W57782  22.047   4.531   2.822
92556W        W57783  39.555  19.794   1.386
92557W        W57784  37.179  28.124   2.768
92558W        W57785  33.089  35.558  13.001
92559W        W57786  30.923   7.798   4.966
92560W        W57787   3.765  30.490  14.000
92561W        W57788   0.231   0.806  11.667
92562W        W57789  32.609  40.225  13.942
92563W        W57790  28.040  12.956   1.586
92564W        W57791  26.736  41.067  12.517
92565W        W57792  11.239  36.345   0.441
92566W        W57793  31.466  30.827  12.601
92567W        W57794  33.408  19.773   2.402
92568W        W57795  14.439  26.701   0.512
92569W        W57796  34.435  41.773   2.870
92570W        W57797  14.508  15.122   4.568
92571W        W57798  11.334   9.429   1.588
92572W        W57799  12.853   6.668   3.623
92573W        W57800  17.483  40.725   0.350
92574W        W57801  29.055  16.599   4.043
92575W        W57802  19.333  32.657  14.459
92576W        W57803  41.988  35.108  13.617
92577W        W57804  17.121  20.326  11.686
92578W        W57805  13.288  25.407  14.330
92579W        W57806  19.323   0.961   0.774
92580W        W57807  19.691  22.958   3.295
92581W        W57808   7.189  44.450   1.599
92582W        W57809   1.720   1.919   0.957
92583W        W57810  12.164  26.730  13.503
92584W        W57811   1.808  24.466  14.572
92585W        W57812   5.380   9.321   3.993
92586W        W57813  10.806  31.548  12.496
92587W        W57814  19.674  29.281   4.425
92588W        W57815  12.685  13.078  14.349
92589W        W57816   5.358   1.920  12.996
92590W        W57817  31.302   5.236   3.197
92591W        W57818  31.401  32.907  14.444
92592W        W57819  24.278  39.667  11.091
92593W        W57820  33.019  31.495   3.344
92594W        W57821  38.852  11.356  13.716
92595W        W57822  14.486  15.197  14.550
92596W        W57823  19.507  31.149   1.838
92597W        W57824   8.212  18.579  13.764
92598W        W57825  17.592  22.125  10.594
92599W        W57826  26.549   4.066   4.109
92600W        W57827  17.963   7.685  12.821
92601W        W57828  31.161   1.930   0.811
92602W        W57829   8.789  30.181  13.416
92603W        W57830  15.822  33.621  14.722
92604W        W57831  44.890  13.996  13.926
92605W        W57832  15.299  37.030   0.881
92606W        W57833  36.266  39.973   2.716
92607W        W57834   4.521  33.082   3.631
92608W        W57835  25.727  30.112   1.519
92609W        W57836  37.938  41.258   3.355
92610W        W57837  36.029  38.866   0.501
92611W        W57838   7.842   5.492   3.295
92612W        W57839  16.676  44.495   2.130
92613W        W57840  22.980  20.567   0.310
92614W        W57841  31.230  38.007   0.539
92615W        W57842   7.824   5.027   2.418
92616W        W57843   7.761  26.970  12.166
92617W        W57844  30.480   2.831   4.584
92618W        W57845   2.772  39.249  11.251
92619W        W57846  43.353   4.424  10.877
92620W        W57847  38.135   3.968   0.308
92621W        W57848  36.315  10.262   4.504
92622W        W57849  41.479   0.384  11.228
92623W        W57850  34.369  13.779   0.469
92624W        W57851   2.501  25.614   2.742
92625W        W57852  40.188  25.159  14.887
92626W        W57853   0.237  16.865  12.657
92627W        W57854  36.810  29.082  10.707
92628W        W57855  26.195  13.727   4.900
92629W        W57856  18.777  40.908   2.914
92630W        W57857  39.281  41.968  11.554
92631W        W57858  33.627   2.414  11.575
92632W        W57859  21.737  18.584  10.997
92633W        W57860  44.856  30.584  11.159
92634W        W57861  34.251  40.585   3.528
92635W        W57862  13.545  15.378   1.864
92636W        W57863  27.566  36.851  14.018
92637W        W57864  15.761  40.981  10.588
92638W        W57865  38.764   5.125   2.782
92639W        W57866  18.114  42.630   3.899
92640W        W57867   5.446  40.389   2.719
92641W        W57868  37.355  17.688   2.706
92642W        W57869  29.961   6.623   2.152
92643W        W57870  10.737   7.901   2.762
92644W        W57871  39.123  16.683   4.643
92645W        W57872  38.632  29.929  13.823
92646W        W57873  19.803  39.073   3.928
92647W        W57874  41.481  14.033   3.754
92648W        W57875   4.700   2.188  12.073
92649W        W57876  13.252   2.909   3.851
92650W        W57877  18.226   7.233  12.809
92651W        W57878  44.814  37.313   1.846
92652W        W57879  38.060  12.404  11.672
92653W        W57880   1.865  40.565  13.855
92654W        W57881  18.677  21.248  14.462
92655W        W57882  36.111   7.823  13.833
92656W        W57883  15.589   5.025   1.259
92657W        W57884   4.477   3.197  11.191
92658W        W57885  31.079  31.715  10.645
92659W        W57886  33.378   0.213  12.479
92660W        W57887  40.796  28.998   4.244
92661W        W57888   8.455  14.087  10.321
92662W        W57889   8.943  43.011   4.140
92663W        W57890  22.110  36.385   1.041
92664W        W57891  28.734  44.875   3.482
92665W        W57892  33.924  24.944   2.578
92666W        W57893  43.966   7.220   4.685
92667W        W57894  32.354  25.035  12.047
92668W        W57895  10.104  26.658   0.788
92669W        W57896  13.824  37.725  10.691
92670W        W57897  37.846  44.541   2.640
92671W        W57898  16.371   0.884   3.288
92672W        W57899  44.972  10.042  10.143
92673W        W57900  36.042   9.399  12.460
92674W        W57901  41.851  40.463   2.344
92675W        W57902  24.117  41.199   3.849
92676W        W57903  37.077  14.046  14.687
92677W        W57904  16.422  20.724   2.819
92678W        W57905   7.932  34.063   3.063
92679W        W57906   3.904  34.852  12.626
92680W        W57907  40.491  43.861   1.937
92681W        W57908  29.869   8.226  12.569
92682W        W57909   4.992  23.288   0.006
92683W        W57910  30.287  17.522  13.929
92684W        W57911   9.945  32.037   0.526
92685W        W57912  37.296  33.931   3.730
92686W        W57913   3.865  30.703  14.860
92687W        W57914  17.681  26.603  14.913
92688W        W57915  19.341  29.933   0.072
92689W        W57916  44.932  14.226   0.473
92690W        W57917   3.596  26.756   4.117
92691W        W57918  37.179   5.088  12.010
92692W        W57919  16.280  10.683  10.757
92693W        W57920  41.630  14.474   3.582
92694W        W57921  44.006  20.507   3.596
92695W        W57922  25.972   6.397   2.427
92696W        W57923  38.081  44.034   1.669
92697W        W57924  40.513  17.826   3.280
92698W        W57925   7.555   9.324   2.601
92699W        W57926  29.181  38.491  14.871
92700W        W57927  22.252  35.813   1.762
92701W        W57928  12.590  40.934   3.860
92702W        W57929  27.381  12.034  11.411
92703W        W57930   4.729  10.419  11.960
92704W        W57931  12.761  42.961  13.426
92705W        W57932  15.593   0.527  13.910
92706W        W57933  41.261  10.210   2.390
92707W        W57934   3.534  41.383   4.660
92708W        W57935  12.518  32.840   3.047
92709W        W57936  40.593  37.291   9.825
92710W        W57937  20.499  26.937  11.810
92711W        W57938  41.622  17.007  12.379
92712W        W57939  44.215  11.361   0.419
92713W        W57940  34.455  30.268   0.270
92714W        W57941  15.770  40.106   2.180
92715W        W57942   6.211  28.732   3.263
92716W        W57943   5.780   9.401  13.592
92717W        W57944  35.123  11.735   0.776
92718W        W57945  42.571  23.439  14.319
92719W        W57946   6.957  35.817  11.197
92720W        W57947  27.526  13.061  11.497
92721W        W57948  17.831  32.751  12.311
92722W        W57949  28.022   6.741   5.074
92723W        W57950  23.541   3.870   1.721
92724W        W57951  22.736  34.729  14.574
92725W        W57952  30.707   3.682  12.983
92726W        W57953  40.802   9.179   4.581
92727W        W57954  44.403  33.689   4.664
92728W        W57955  39.463  35.291   1.862
92729W        W57956  14.100   0.283  14.978
92730W        W57957   5.545  33.076  12.119
92731W        W57958   8.490  21.575  11.698
92732W        W57959   5.243  35.380  12.465
92733W        W57960   0.330  42.032   3.698
92734W        W57961  20.281   0.859  13.451
92735W        W57962   4.752  29.092  12.011
92736W        W57963  16.390  36.310  14.052
92737W        W57964  36.927  10.848   2.724
92738W        W57965  35.828   5.403  12.955
92739W        W57966  21.316   7.603  13.385
92740W        W57967   3.164  33.226   4.591
92741W        W57968  27.908   2.715  10.674
92742W        W57969  33.662  23.195  12.737
92743W        W57970  40.057  31.006   3.676
92744W        W57971  44.211  42.369  12.175
92745W        W57972  29.033  21.777  14.017
92746W        W57973  39.299  32.997  13.017
92747W        W57974  40.527  39.468   3.217
92748W        W57975  19.623  14.254  11.859
92749W        W57976  44.951  34.112  14.629
92750W        W57977  29.285  14.406  11.339
92751W        W57978  16.127  14.516  13.396
92752W        W57979  38.466  20.544  10.200
92753W        W57980  42.471   9.284   1.458
92754W        W57981   5.170  28.121  10.209
92755W        W57982  29.008  35.513   1.735
92756W        W57983  44.998  31.630   2.688
92757W        W57984  27.339  18.043   3.662
92758W        W57985  28.345  40.642  10.284
92759W        W57986  21.452  11.459  14.498
92760W        W57987  34.030  29.984   0.316
92761W        W57988  30.652  19.319   0.795
92762W        W57989   4.959  39.887   2.234
92763W        W57990   1.014  22.355   2.662
92764W        W57991   6.412  43.040  14.331
92765W        W57992   8.868  24.397  13.889
92766W        W57993   9.451  29.233   4.101
92767W        W57994  11.813  11.212  11.250
92768W        W57995   0.744   9.704   0.979
92769W        W57996  19.090  32.641   4.817
92770W        W57997   4.941  37.032   2.456
92771W        W57998  12.043  30.050  13.647
92772W        W57999  30.190  18.689   1.788
92773W        W58000   9.299  41.922  11.416
92774W        W58001   9.750  13.355   3.690
92775W        W58002   4.068   4.283  13.080
92776W        W58003  27.883  44.634   0.871
92777W        W58004  42.444  29.474   0.898
92778W        W58005  36.912  15.393  14.274
92779W        W58006  41.563   4.073   2.862
92780W        W58007  23.436  33.931   2.820
92781W        W58008   0.721  26.944   2.994
92782W        W58009  31.646   6.227  14.614
92783W        W58010  26.620  32.304  13.791
92784W        W58011  23.849  36.822  10.765
92785W        W58012   7.118  21.460  14.410
92786W        W58013  33.712  33.930   1.272
92787W        W58014  35.693  29.402  11.998
92788W        W58015  42.403  42.218  12.021
92789W        W58016  20.687   9.876  14.699
92790W        W58017  32.010  29.076   4.384
92791W        W58018   3.277  33.664   3.156
92792W        W58019  28.440  44.574   0.822
92793W        W58020  36.196  23.098   2.012
92794W        W58021  38.596  29.183   0.793
92795W        W58022  15.027   0.956  13.366
92796W        W58023   6.519  21.996   2.821
92797W        W58024  24.630  33.451  13.780
92798W        W58025  41.464  11.647  11.699
92799W        W58026  38.725   7.414  12.447
92800W        W58027  14.560   4.054  12.542
92801W        W58028  31.331  22.362  14.618
92802W        W58029  23.565  31.053   0.318
92803W        W58030  40.898  34.656   2.357
92804W        W58031  35.589  21.710  13.075
92805W        W58032   9.859  20.690  13.377
92806W        W58033  12.909  12.654   4.384
92807W        W58034  33.101  10.080  10.618
92808W        W58035  14.971  23.004  14.492
92809W        W58036  32.083  30.967  11.958
92810W        W58037  40.228  40.156  11.727
92811W        W58038  21.214   8.217  12.601
92812W        W58039  15.677   3.669   3.739
92813W        W58040  42.369   8.391   1.735
92814W        W58041   7.929  32.677  11.564
92815W        W58042  36.435  34.896   3.777
92816W        W58043  15.712  26.030   0.865
92817W        W58044   0.362  43.502  11.560
92818W        W58045  16.060  27.367  12.965
92819W        W58046  29.648  38.859   3.980
92820W        W58047  40.239  23.021  12.838
92821W        W58048   3.191  34.035   0.788
92822W        W58049  20.867  27.188  12.630
92823W        W58050  30.912  15.166   1.389
92824W        W58051   1.894  14.357   0.199
92825W        W58052  39.446  42.439   2.454
92826W        W58053  32.211  21.197   1.448
92827W        W58054  26.812  16.321   2.754
92828W        W58055  18.270  12.577   1.065
92829W        W58056  29.377   6.423   2.895
92830W        W58057  14.525  16.984  11.705
92831W        W58058  13.253   3.474   0.983
92832W        W58059  31.723  39.829  13.534
92833W        W58060   8.587  35.097   9.724
92834W        W58061  24.165  33.634  14.832
92835W        W58062  15.050  20.536  10.822
92836W        W58063  18.657   5.687   2.621
92837W        W58064  42.460  28.808   3.866
92838W        W58065   5.517  22.049  10.809
92839W        W58066  44.877   8.158  12.690
92840W        W58067  33.962  15.145   4.005
92841W        W58068   5.979  19.340   2.744
92842W        W58069  43.297  37.613  10.666
92843W        W58070  43.284   8.679  10.628
92844W        W58071  38.260   2.934  14.347
92845W        W58072  32.762  24.541  10.873
92846W        W58073  31.951   5.168   0.382
92847W        W58074   9.640   7.230   2.220
92848W        W58075  12.716  15.760   0.716
92849W        W58076  38.126  38.221   3.671
92850W        W58077  20.518  44.201   0.414
92851W        W58078   1.278  23.779  14.333
92852W        W58079  30.091  19.627   1.775
92853W        W58080  40.633  11.279   3.010
92854W        W58081   3.427  35.132   1.455
92855W        W58082  33.939  27.436  12.895
92856W        W58083  22.237  22.104   3.263
92857W        W58084   4.457  36.585  13.013
92858W        W58085  27.544  40.514   2.538
92859W        W58086  24.180  10.761   2.041
92860W        W58087  13.305   7.899  10.952
92861W        W58088  34.416  18.331  11.760
92862W        W58089  29.211   7.682   3.260
92863W        W58090  42.922  35.462  10.778
92864W        W58091  31.384   0.732   1.283
92865W        W58092  27.538   6.877   4.897
92866W        W58093  35.403  32.090  11.554
92867W        W58094  17.812  33.306  11.084
92868W        W58095  42.625  18.813   1.205
92869W        W58096  44.574  40.061  11.976
92870W        W58097  26.054  16.552  13.042
92871W        W58098  43.481  39.123   0.808
92872W        W58099  17.896   7.287  11.937
92873W        W58100  20.337  23.246   0.358
92874W        W58101  31.006  10.157   1.512
92875W        W58102  38.301   4.099   4.530
92876W        W58103   4.969   7.153  10.225
92877W        W58104   8.507  44.796  11.358
92878W        W58105  32.083   4.893  12.077
92879W        W58106  23.018  26.121   3.231
92880W        W58107  12.779  19.373  14.438
92881W        W58108  22.739  33.454   0.044
92882W        W58109   9.359  35.917  13.798
92883W        W58110  31.700  33.184   3.179
92884W        W58111   7.420  38.874   1.831
92885W        W58112   1.819  19.495  11.146
92886W        W58113  44.869  39.869  13.565
92887W        W58114  26.035   8.788  10.680
92888W        W58115   2.930   8.129  14.378
92889W        W58116  26.079  14.102  11.963
92890W        W58117  18.484  24.940   3.360
92891W        W58118  37.481  15.157   3.683
92892W        W58119  42.383  43.054   2.616
92893W        W58120  20.257  24.550   1.764
92894W        W58121  43.498  33.960  12.144
92895W        W58122  12.307  14.091   2.180
92896W        W58123  34.789  37.008   5.013
92897W        W58124  17.011  32.239  10.486
92898W        W58125  30.950   2.404   4.041
92899W        W58126   5.544  42.522   3.267
92900W        W58127  18.049  25.486  10.737
92901W        W58128  19.090  20.232   1.029
92902W        W58129  11.118   2.772   1.243
92903W        W58130  27.095  40.873  14.361
92904W        W58131  25.540  23.737   2.769
92905W        W58132  11.238  13.579   0.822
92906W        W58133   9.617  14.215   3.782
92907W        W58134   0.876  24.121   2.279
92908W        W58135  16.078  31.420   2.552
92909W        W58136  13.117  18.463  14.572
92910W        W58137  31.241  25.993   4.985
92911W        W58138   2.663  22.959  13.402
92912W        W58139   5.935  28.069   0.884
92913W        W58140   3.867  35.021   1.755
92914W        W58141   5.436  37.568   4.194
92915W        W58142   9.684  23.682  12.165
92916W        W58143   4.980  19.858   2.160
92917W        W58144  31.709  27.667  12.649
92918W        W58145   3.365  21.403   5.059
92919W        W58146  22.810  17.475  12.235
92920W        W58147  34.113  11.728   1.948
92921W        W58148  10.327   5.052   0.296
92922W        W58149  43.283  11.304  12.188
92923W        W58150  42.855   9.672   4.158
92924W        W58151  21.334  21.417   1.822
92925W        W58152  28.133  14.291   2.822
92926W        W58153  27.179   6.729   1.908
92927W        W58154   1.488  23.397   3.980
92928W        W58155  38.854  20.431  14.754
92929W        W58156  16.060   6.506  13.248
92930W        W58157  25.154  28.594   1.203
92931W        W58158  44.424  34.463   4.152
92932W        W58159   8.298  17.132   1.706
92933W        W58160  22.605  16.777  10.587
92934W        W58161   9.309  17.532  14.198
92935W        W58162   6.074  41.991  11.924
92936W        W58163  43.933  24.403  12.167
92937W        W58164  27.655  31.614   3.140
92938W        W58165  15.885  16.642  11.008
92939W        W58166  26.832  34.186  14.579
92940W        W58167  11.055   0.814  14.805
92941W        W58168  41.586  20.404   2.703
92942W        W58169  39.546  36.959   4.104
92943W        W58170  39.598   1.891  12.961
92944W        W58171   7.959  12.344   3.725
92945W        W58172  42.093  20.035  13.004
92946W        W58173   0.706  18.969   3.510
92947W        W58174   7.999  38.683  13.839
92948W        W58175  39.429   8.601  14.759
92949W        W58176   4.757   4.629   3.231
92950W        W58177  27.405  27.649  14.544
92951W        W58178  42.413  43.431   4.820
92952W        W58179  17.472  42.526   1.868
92953W        W58180  28.970  12.095  12.947
92954W        W58181  16.129  24.558   3.077
92955W        W58182   4.249  33.387  13.328
92956W        W58183  27.372  35.537   0.920
92957W        W58184  13.298   5.303  12.828
92958W        W58185   8.610  44.738   0.294
92959W        W58186  17.960   1.853  11.429
92960W        W58187  11.323  27.445   4.115
92961W        W58188  25.240  17.493  10.827
92962W        W58189  24.988  36.908   1.315
92963W        W58190  43.541  14.300   1.818
92964W        W58191  36.680  42.681   4.141
92965W        W58192  17.856   8.196   2.362
92966W        W58193   2.664   3.223  10.710
92967W        W58194  20.056  42.046  13.493
92968W        W58195   8.224  44.653  12.269
92969W        W58196  35.241  31.557   2.356
92970W        W58197   6.774  22.962  11.238
92971W        W58198  28.717  25.779  10.821
92972W        W58199   3.658  29.636   0.829
92973W        W58200   0.061   0.902   1.215
92974W        W58201  21.559  43.505   5.074
92975W        W58202  25.212  33.081   4.842
92976W        W58203  38.643   5.163  12.993
92977W        W58204  28.158  23.694   0.721
92978W        W58205   9.280  11.703  10.548
92979W        W58206  26.523  18.567  14.495
92980W        W58207   3.340  12.296   4.946
92981W        W58208  25.660  35.909  14.859
92982W        W58209  40.017   4.367  12.677
92983W        W58210  10.335  41.539   1.713
92984W        W58211  21.465  19.890   4.497
92985W        W58212  26.455  26.841   2.611
92986W        W58213  18.835  11.735  12.441
92987W        W58214  22.075  18.260  11.445
92988W        W58215  28.148  19.026   1.271
92989W        W58216  42.964   7.640  14.699
92990W        W58217  18.734  23.637  12.489
92991W        W58218  17.082  33.736  13.769
92992W        W58219  14.143   9.809  11.155
92993W        W58220  10.008  26.997  14.917
92994W        W58221  23.136  40.582  11.430
92995W        W58222  34.168  39.324   0.610
92996W        W58223  30.892  17.900  13.454
92997W        W58224   5.773  14.102   4.304
92998W        W58225  44.669  28.598   2.605
92999W        W58226  42.378  43.995   4.759
93000W        W58227  42.559  28.780  11.109
93001W        W58228  42.329  16.646  14.916
93002W        W58229   8.431  31.216  13.251
93003W        W58230   9.818   8.813  12.469
93004W        W58231  34.616   4.683  12.838
93005W        W58232  35.401  41.252  13.071
93006W        W58233  40.231   6.157   2.646
93007W        W58234  38.035  34.170   3.239
93008W        W58235  10.268  31.907  14.406
93009W        W58236  33.745  14.622   2.260
93010W        W58237   3.999  32.052  12.902
93011W        W58238  29.384  25.994  12.465
93012W        W58239  42.816  15.651  14.834
93013W        W58240   3.694   5.372  14.425
93014W        W58241  13.241  13.091  13.246
93015W        W58242  18.764  27.651   0.700
93016W        W58243  17.914  19.594   1.021
93017W        W58244  12.233  13.187  11.704
93018W        W58245  37.438  28.186   1.103
93019W        W58246  32.344   5.417  12.976
93020W        W58247  42.117  42.958   0.714
93021W        W58248  15.774  38.966   1.083
93022W        W58249  29.351  11.738  11.289
93023W        W58250  18.252  21.773  14.018
93024W        W58251  33.809  31.996   4.743
93025W        W58252  17.827  29.552  12.042
93026W        W58253  41.351  41.879  12.437
93027W        W58254  26.858  26.315  12.622
93028W        W58255   6.301  24.516   4.750
93029W        W58256  12.127  27.244   1.673
93030W        W58257   9.669  11.271  12.053
93031W        W58258  18.746   7.632   3.171
93032W        W58259   3.776  18.653   4.487
93033W        W58260  24.483  40.283  11.692
93034W        W58261  24.168  28.701   2.248
93035W        W58262  15.779  33.851   4.570
93036W        W58263  43.423  28.134  11.911
93037W        W58264  36.320  34.856   2.875
93038W        W58265  38.859   7.102  13.494
93039W        W58266  37.310  24.220  13.352
93040W        W58267  34.171   6.205  12.132
93041W        W58268  35.439   7.963  14.475
93042W        W58269  37.396  18.228  11.529
93043W        W58270  14.414  16.101   3.813
93044W        W58271   1.202  39.260   3.781
93045W        W58272  17.947  39.644   1.015
93046W        W58273  35.406  27.211   2.461
93047W        W58274  25.672  36.559  11.215
93048W        W58275  12.344  16.651   3.817
93049W        W58276  10.474  18.254  12.891
93050W        W58277  15.565   4.188  12.105
93051W        W58278  21.631   0.236   2.949
93052W        W58279  17.706  18.487   4.585
93053W        W58280  11.718   7.817  13.022
93054W        W58281   3.349   6.754  12.623
93055W        W58282  43.501  16.046   0.871
93056W        W58283  25.120   4.710   3.802
93057W        W58284  13.867   5.454  13.861
93058W        W58285  10.704  42.913   3.896
93059W        W58286  41.970  17.999  14.957
93060W        W58287  30.446  38.508  11.207
93061W        W58288  21.431  19.828  11.455
93062W        W58289  13.816  42.944   3.748
93063W        W58290  30.457  13.647   0.022
93064W        W58291   5.490  35.005   0.212
93065W        W58292  17.172  36.997   4.591
93066W        W58293  18.382  14.343  10.279
93067W        W58294  30.486  20.927   1.969
93068W        W58295  22.279  40.632  11.326
93069W        W58296  37.245  11.304  12.632
93070W        W58297   2.910  29.096   1.265
93071W        W58298   9.482  24.346  13.003
93072W        W58299   1.443  18.181   1.931
93073W        W58300   3.342   4.708   0.840
93074W        W58301  23.356  34.054   0.573
93075W        W58302  40.538  44.065   4.129
93076W        W58303   1.458  29.638  14.065
93077W        W58304  10.103   9.175  11.499
93078W        W58305  27.484  39.517  11.522
93079W        W58306   5.622  13.914  12.047
93080W        W58307  30.641  29.167  12.881
93081W        W58308  36.295  26.704   2.327
93082W        W58309  11.421   5.138   2.782
93083W        W58310   6.787  21.584   4.852
93084W        W58311   4.033  38.904   1.392
93085W        W58312  39.176  27.277  13.900
93086W        W58313  16.819  28.534   2.584
93087W        W58314  28.168  27.777   2.397
93088W        W58315  10.643  40.000  11.893
93089W        W58316   1.375  21.784  14.598
93090W        W58317  39.589  16.680   1.226
93091W        W58318  24.461   6.102   2.352
93092W        W58319  43.491  30.281  13.025
93093W        W58320   0.110  38.939   2.319
93094W        W58321  32.380   2.497  11.102
93095W        W58322  17.594  36.229  14.275
93096W        W58323  13.323  37.544   4.445
93097W        W58324   3.949   1.782   0.884
93098W        W58325  28.937   3.048   1.366
93099W        W58326   9.128  36.544   1.926
93100W        W58327  35.691   4.223  12.434
93101W        W58328  30.048  12.125   5.150
93102W        W58329  25.177  18.996  11.445
93103W        W58330  21.042  18.222  10.667
93104W        W58331  28.709  38.926  14.190
93105W        W58332  40.130  29.092  13.524
93106W        W58333   1.228   4.356   2.775
93107W        W58334  15.292  23.524   4.546
93108W        W58335  31.465  39.636  12.180
93109W        W58336  39.713   4.850  12.056
93110W        W58337  43.229   8.301  11.821
93111W        W58338  11.753  12.183  11.040
93112W        W58339  27.940  21.496  10.799
93113W        W58340   1.214  13.369  11.183
93114W        W58341  41.279  41.783  11.095
93115W        W58342  40.579  21.637   4.182
93116W        W58343  41.022  38.934   3.571
93117W        W58344  43.484  37.586   0.919
93118W        W58345   5.841  18.837   2.678
93119W        W58346  19.101  31.004  11.170
93120W        W58347  21.599   7.426  14.451
93121W        W58348  15.146  36.597  14.139
93122W        W58349  22.103  25.495  12.976
93123W        W58350   9.032  42.625   0.865
93124W        W58351  19.215   7.453   3.758
93125W        W58352  10.751  25.683   3.287
93126W        W58353  31.570  11.640  14.043
93127W        W58354  20.574  16.698   4.466
93128W        W58355  10.529  18.111   2.821
93129W        W58356  40.605   3.497  12.444
93130W        W58357  18.936  13.030  12.461
93131W        W58358  38.749  37.466  10.912
93132W        W58359  13.355  38.030   1.499
93133W        W58360  21.305   5.407   2.743
93134W        W58361   3.789  29.939  12.548
93135W        W58362  40.205  40.257   4.158
93136W        W58363  31.483  39.009   4.124
93137W        W58364  20.853   4.010  10.462
93138W        W58365  35.054  42.490  14.782
93139W        W58366   6.784  18.568  13.427
93140W        W58367  37.817  30.906  13.902
93141W        W58368  39.330   0.603  12.518
93142W        W58369  14.892  24.092   3.114
93143W        W58370  18.277   7.404   0.984
93144W        W58371  23.099   7.402  13.325
93145W        W58372  28.522  31.663   0.474
93146W        W58373  38.360   3.854   1.810
93147W        W58374  23.845   5.866  11.197
93148W        W58375  26.144   4.734  13.594
93149W        W58376   1.188  44.470  12.637
93150W        W58377  44.775   9.305  12.532
93151W        W58378  25.712  21.408  14.555
93152W        W58379  11.410   6.297  10.689
93153W        W58380   9.842  28.336   2.667
93154W        W58381  32.548   2.846   2.743
93155W        W58382  35.011   7.566  11.124
93156W        W58383   1.755  23.946   1.805
93157W        W58384  33.582  29.621   0.606
93158W        W58385  30.959  35.597   1.504
93159W        W58386   5.944  38.173   0.046
93160W        W58387   6.334  30.639   3.889
93161W        W58388  32.874   7.893  12.254
93162W        W58389  30.586  22.492  13.517
93163W        W58390  44.899  40.738   4.823
93164W        W58391   4.803  10.223   1.540
93165W        W58392  42.964   8.268   4.152
93166W        W58393  29.208  23.224   1.887
93167W        W58394  36.471  38.532  10.623
93168W        W58395  36.674  17.099  13.408
93169W        W58396   9.738   1.612  13.948
93170W        W58397   6.217  42.328   0.858
93171W        W58398  38.925  10.494   1.383
93172W        W58399  36.300  16.533   1.852
93173W        W58400   1.417  26.653   0.360
93174W        W58401  38.041   7.139  14.525
93175W        W58402  24.662   6.945  14.454
93176W        W58403   0.227  16.929  12.095
93177W        W58404  43.734  20.746  13.354
93178W        W58405  18.591  36.332  14.789
93179W        W58406  35.473  21.754  11.636
93180W        W58407  14.524  33.541   0.993
93181W        W58408  31.927  20.507  12.983
93182W        W58409   6.194  14.676  13.046
93183W        W58410   0.152  40.577  10.701
93184W        W58411  41.954  21.581   1.724
93185W        W58412  15.275  13.747  10.738
93186W        W58413   7.249  18.756   2.334
93187W        W58414  27.679  38.287  14.923
93188W        W58415  28.431   4.376   2.892
93189W        W58416  24.221   7.057  11.935
93190W        W58417  41.379  27.036   0.710
93191W        W58418  37.992   4.471  13.798
93192W        W58419  15.858  14.643   3.207
93193W        W58420  36.575  32.408   4.636
93194W        W58421  21.046  32.931   0.267
93195W        W58422  31.074  44.216   2.744
93196W        W58423  20.546  26.798  12.685
93197W        W58424   9.184   9.389   3.814
93198W        W58425  32.966  25.112  14.897
93199W        W58426  16.129  18.055  14.307
93200W        W58427  14.270  27.823  11.609
93201W        W58428  23.586   5.702  10.777
93202W        W58429   7.210   4.626   4.492
93203W        W58430   2.417  17.694  10.610
93204W        W58431  17.798  13.381  13.156
93205W        W58432  41.879  33.894  10.852
93206W        W58433  32.051   2.503   1.889
93207W        W58434  13.103   8.383  12.801
93208W        W58435  22.658  19.445  10.258
93209W        W58436  19.700  38.899  12.547
93210W        W58437  44.206  30.950  14.708
93211W        W58438  17.362  27.292  14.459
93212W        W58439  16.809  35.059  13.944
93213W        W58440  25.076  39.032  13.205
93214W        W58441  39.119  24.287   0.820
93215W        W58442  41.990  43.174   4.639
93216W        W58443   2.974  21.475   0.771
93217W        W58444   2.827  23.297   0.356
93218W        W58445  37.964  16.835   0.780
93219W        W58446  19.717   0.087  13.911
93220W        W58447   3.414  41.983   1.235
93221W        W58448  23.979  30.091   3.639
93222W        W58449  31.572   3.421  13.093
93223W        W58450   8.884  31.060  12.989
93224W        W58451  13.076  25.837  14.046
93225W        W58452  41.737  29.985  12.102
93226W        W58453  25.632   5.539  12.878
93227W        W58454  15.159   5.643   0.706
93228W        W58455  20.590  32.365   2.677
93229W        W58456   7.829  33.526  11.253
93230W        W58457  44.441  31.876  14.230
93231W        W58458  29.188   8.695  10.822
93232W        W58459  16.143  25.239   1.247
93233W        W58460  43.409  22.360   5.747
93234W        W58461  20.183  40.074  14.830
93235W        W58462  20.752  15.318  10.662
93236W        W58463   7.357  37.433   4.058
93237W        W58464  22.483  34.466   2.316
93238W        W58465  12.798  37.026   0.753
93239W        W58466  17.791  22.341  13.045
93240W        W58467  25.056  42.663  12.457
93241W        W58468  26.277   3.893  12.314
93242W        W58469  38.807  10.862   0.997
93243W        W58470  15.340  19.774  14.913
93244W        W58471   4.357   7.516  14.372
93245W        W58472  36.686  29.029  13.835
93246W        W58473  10.369  20.556   0.724
93247W        W58474  12.673  17.310  10.435
93248W        W58475   0.327  10.494   0.934
93249W        W58476  30.546  15.567  14.992
93250W        W58477  20.220  11.433   4.566
93251W        W58478  22.725  12.211  13.601
93252W        W58479  32.645   5.549   2.347
93253W        W58480  14.597  41.923   2.397
93254W        W58481   4.617  11.956   2.810
93255W        W58482   6.695  23.705   2.242
93256W        W58483   2.072  18.063  11.184
93257W        W58484   3.855  37.541  13.061
93258W        W58485  11.863  14.814   4.970
93259W        W58486  18.843  39.773  10.588
93260W        W58487  40.111  40.742   4.085
93261W        W58488   2.348  24.701  13.545
93262W        W58489  33.134   5.383   2.276
93263W        W58490  28.669  40.330   0.955
93264W        W58491   3.938  43.357  11.901
93265W        W58492  31.373  17.577  14.780
93266W        W58493  17.484   8.680   1.251
93267W        W58494  21.047   1.589  14.124
93268W        W58495  43.725  23.437  14.936
93269W        W58496  32.594  11.389   1.378
93270W        W58497  14.063  21.017   4.998
93271W        W58498  23.613  25.502   2.707
93272W        W58499  10.846  27.221   4.351
93273W        W58500  31.138  32.448   1.186
93274W        W58501  23.947  16.212   1.378
93275W        W58502  19.980   9.806  10.871
93276W        W58503  31.857  11.149   0.890
93277W        W58504   6.208   0.524   0.938
93278W        W58505   3.774   2.208   3.080
93279W        W58506   5.089  42.715   3.184
93280W        W58507  18.993  44.617  13.762
93281W        W58508  27.945  31.898  10.289
93282W        W58509  14.688   0.791   0.424
93283W        W58510   4.444  29.930  10.908
93284W        W58511  38.082  17.267   4.054
93285W        W58512  15.566  44.478  14.302
93286W        W58513  20.015  11.281   0.345
93287W        W58514  13.670   0.946   0.279
93288W        W58515   6.243   9.361  13.342
93289W        W58516  41.406  31.859  13.597
93290W        W58517  21.145  20.455  14.861
93291W        W58518  22.326  31.905   4.550
93292W        W58519  33.825   9.374   3.191
93293W        W58520  33.050   4.371  12.667
93294W        W58521  16.006  42.909  13.594
93295W        W58522  16.540  23.186   1.290
93296W        W58523  31.915  12.641   2.805
93297W        W58524  41.832  24.664   2.375
93298W        W58525  24.283  19.808  10.616
93299W        W58526   0.644   7.934   2.217
93300W        W58527  23.659  15.364  13.242
93301W        W58528  20.050  39.811  13.885
93302W        W58529  15.813  29.757   4.176
93303W        W58530  16.301  43.876  11.314
93304W        W58531  43.412  39.460   2.402
93305W        W58532   9.643  36.655   1.878
93306W        W58533  40.716  31.474   3.219
93307W        W58534  22.081  29.360  11.226
93308W        W58535  23.616  31.137   1.208
93309W        W58536  44.290   0.314  13.556
93310W        W58537  39.227  22.239   2.283
93311W        W58538  31.314  20.054   4.654
93312W        W58539  28.107  25.484  14.211
93313W        W58540   3.311  27.570  14.862
93314W        W58541   3.661  32.065  14.652
93315W        W58542   0.285  37.205  12.132
93316W        W58543  20.402  27.718   1.173
93317W        W58544  42.665  44.549  13.605
93318W        W58545  38.721  19.766   2.786
93319W        W58546  24.639  22.939  14.444
93320W        W58547   2.078  37.450  11.983
93321W        W58548   2.264  18.192  10.538
93322W        W58549   2.148  33.280  13.043
93323W        W58550  42.256  13.611   4.266
93324W        W58551  23.453  42.254   2.332
93325W        W58552  22.082  31.032   0.913
93326W        W58553  33.414  24.272   5.027
93327W        W58554   5.760  18.445   3.006
93328W        W58555  39.395  35.588  14.180
93329W        W58556  21.657  35.820  12.693
93330W        W58557   6.237  31.977   0.441
93331W        W58558  26.889  20.881  12.387
93332W        W58559  15.682  37.850   0.059
93333W        W58560   7.289  13.460  14.906
93334W        W58561  17.079  27.211   4.337
93335W        W58562  17.723  42.527  12.805
93336W        W58563  39.874  36.176   0.933
93337W        W58564   0.650   8.960  14.964
93338W        W58565  38.268  27.089   1.800
93339W        W58566  16.137  15.504  11.155
93340W        W58567   6.690  29.730  11.673
93341W        W58568  41.376  22.655  13.910
93342W        W58569  13.185  37.670   0.452
93343W        W58570  17.266  25.783  12.037
93344W        W58571  44.393  44.758   4.442
93345W        W58572  38.796  25.547  12.590
93346W        W58573  15.204   4.849   0.138
93347W        W58574   3.319  24.202   2.028
93348W        W58575   8.218  12.636  12.826
93349W        W58576  32.703  34.558   0.763
93350W        W58577  25.984  44.793   4.476
93351W        W58578  38.978  20.754   4.593
93352W        W58579  23.526   9.394  13.788
93353W        W58580   6.841  24.129   0.483
93354W        W58581   2.991  19.058   4.661
93355W        W58582  41.849  18.060  13.979
93356W        W58583  15.732  24.459   2.763
93357W        W58584  15.066  33.524   0.914
93358W        W58585   1.949  18.713   1.480
93359W        W58586   1.426   5.903   0.290
93360W        W58587   4.422  27.218  12.495
93361W        W58588  25.164  39.376  13.598
93362W        W58589  41.496   8.285   3.443
93363W        W58590   3.599  29.078  10.577
93364W        W58591  13.991  35.659   3.696
93365W        W58592  28.786  27.218   9.471
93366W        W58593  28.159   8.448  11.796
93367W        W58594   4.205  28.573   2.378
93368W        W58595  34.244  34.743  12.484
93369W        W58596   7.451  13.825   1.753
93370W        W58597  35.072  36.027  14.721
93371W        W58598   5.937  36.265   0.340
93372W        W58599  17.656   5.083   3.692
93373W        W58600  44.892  29.537  11.194
93374W        W58601  31.133  17.224  11.598
93375W        W58602  31.096  36.850   0.312
93376W        W58603   7.700   8.603  11.240
93377W        W58604  14.477   3.081   4.723
93378W        W58605  22.252  11.575   1.228
93379W        W58606  12.364  33.362   3.117
93380W        W58607  32.662  32.313   1.433
93381W        W58608   6.057  11.847  11.475
93382W        W58609  23.705  41.709   0.438
93383W        W58610  42.576  16.012   3.817
93384W        W58611  33.807  35.960   1.165
93385W        W58612  31.372   6.407   1.832
93386W        W58613  39.876   6.677   3.284
93387W        W58614  13.683   4.739   4.531
93388W        W58615  30.204  19.431  14.596
93389W        W58616   7.826  41.415  12.451
93390W        W58617  26.995  23.593  12.040
93391W        W58618  24.250  13.541  14.636
93392W        W58619   4.285   8.882   2.326
93393W        W58620  26.771  13.279   4.188
93394W        W58621  17.300  27.744  14.203
93395W        W58622   0.685  38.508  13.042
93396W        W58623  20.595   3.853   0.797
93397W        W58624  34.891  37.048   1.711
93398W        W58625  24.731  30.478  12.834
93399W        W58626  24.597   2.254   2.689
93400W        W58627  23.405  40.906  14.823
93401W        W58628  23.414  31.230   2.450
93402W        W58629  37.007  29.011   4.297
93403W        W58630  18.119  17.157  14.107
93404W        W58631   4.870  37.139   2.944
93405W        W58632  23.940  17.237   0.781
93406W        W58633   4.376  31.731  14.248
93407W        W58634  37.478   3.770   2.378
93408W        W58635  15.261  10.424  12.983
93409W        W58636  19.134   6.461  13.871
93410W        W58637   4.991  33.686  13.982
93411W        W58638  35.429   8.214  14.945
93412W        W58639  22.445  40.428  12.095
93413W        W58640   6.676  42.005  13.951
93414W        W58641  14.749  38.861  13.697
93415W        W58642  10.546  27.742  10.490
93416W        W58643  14.560  28.806  13.614
93417W        W58644  32.348  38.012  14.939
93418W        W58645  32.115   3.642   4.665
93419W        W58646  23.327  38.576  12.443
93420W        W58647  11.858  38.997   0.357
93421W        W58648   5.849  42.435  13.268
93422W        W58649  23.910  40.855  14.694
93423W        W58650  27.006  22.684   2.875
93424W        W58651  25.568  31.629   0.755
93425W        W58652   6.318  27.979  10.037
93426W        W58653  33.677   7.695   3.296
93427W        W58654  33.476  17.794  10.684
93428W        W58655  11.589  36.962   4.085
93429W        W58656  41.855  19.179   3.455
93430W        W58657  34.806  35.078   1.482
93431W        W58658  39.818   4.838  12.573
93432W        W58659  43.741  32.645   0.400
93433W        W58660  28.146  21.197  14.815
93434W        W58661  36.313  19.058   4.205
93435W        W58662   3.744  13.865  13.967
93436W        W58663   7.894   7.441   2.838
93437W        W58664  28.195   1.292  10.688
93438W        W58665  30.977  25.154   3.161
93439W        W58666  27.867  21.196  12.555
93440W        W58667  13.888   1.592  13.196
93441W        W58668  43.395  11.818  13.070
93442W        W58669   4.967  10.270   0.075
93443W        W58670   8.099  17.454   1.297
93444W        W58671  43.935  27.234   1.400
93445W        W58672  22.543  42.860   2.234
93446W        W58673   7.248  17.549   0.346
93447W        W58674  32.557   6.044   2.440
93448W        W58675   7.318  28.732  12.886
93449W        W58676  11.185  13.080   0.833
93450W        W58677  36.052  13.789  13.457
93451W        W58678  35.570  33.933  13.456
93452W        W58679  34.855  29.650   2.703
93453W        W58680  15.306  32.492   3.652
93454W        W58681  36.579   4.708   0.352
93455W        W58682  40.910  32.896  11.018
93456W        W58683  13.096  14.398   1.089
93457W        W58684  25.106  44.435   3.232
93458W        W58685  34.356  24.582   3.111
93459W        W58686  35.934  40.769  10.703
93460W        W58687  38.856  23.507   0.908
93461W        W58688  15.617  20.354  14.454
93462W        W58689   9.233  38.124  11.590
93463W        W58690   8.169  42.902  10.606
93464W        W58691  28.525   5.107  13.911
93465W        W58692  11.699  40.887  11.924
93466W        W58693  26.031  21.526   2.149
93467W        W58694   4.466  11.405  12.939
93468W        W58695   4.728   7.896   2.675
93469W        W58696  40.569  10.043   4.552
93470W        W58697  19.851  23.976  11.933
93471W        W58698  40.847  41.769  12.356
93472W        W58699   1.284   9.276   4.382
93473W        W58700  42.125  22.418   0.501
93474W        W58701  19.472  33.084  13.335
93475W        W58702  14.523   2.845   3.658
93476W        W58703  24.893   2.424  12.400
93477W        W58704  18.849  17.840   1.278
93478W        W58705  15.424   4.751  10.357
93479W        W58706  41.018  44.296   2.644
93480W        W58707  30.993  27.944  13.026
93481W        W58708  17.239  28.941  11.660
93482W        W58709  36.852  21.215  10.426
93483W        W58710  27.424   3.889   4.656
93484W        W58711   4.306  36.119  12.871
93485W        W58712  16.155  25.294  14.848
93486W        W58713   7.172  12.766  13.002
93487W        W58714  11.805   5.927   1.384
93488W        W58715  19.668   6.143   0.424
93489W        W58716  31.828  38.095  14.896
93490W        W58717  25.064  31.245  12.230
93491W        W58718  39.019  10.195  11.269
93492W        W58719  19.301  13.671  10.765
93493W        W58720  17.202  31.703   0.024
93494W        W58721  26.151  44.459  13.852
93495W        W58722  44.531  31.102  13.754
93496W        W58723  29.343  17.826   2.452
93497W        W58724  39.378   5.558   2.586
93498W        W58725  19.893  27.908   1.313
93499W        W58726  21.273  10.670   1.794
93500W        W58727  16.079   1.689  13.115
93501W        W58728   4.790  19.217   4.683
93502W        W58729  30.578  21.959  13.479
93503W        W58730  17.637  16.495   0.766
93504W        W58731   4.326  14.455   0.095
93505W        W58732  18.070  43.899  14.747
93506W        W58733  40.400   6.461   2.261
93507W        W58734  34.618  27.391   1.348
93508W        W58735  28.165  26.326  13.897
93509W        W58736   2.758  34.361  13.924
93510W        W58737  33.643  39.978  10.970
93511W        W58738  10.344  25.619  11.178
93512W        W58739  25.929   3.601   4.396
93513W        W58740  42.872  32.563   4.038
93514W        W58741  20.075   6.970   0.246
93515W        W58742  36.795   5.345  10.267
93516W        W58743  28.219  28.175  12.594
93517W        W58744  29.413  34.110  10.350
93518W        W58745  37.079   2.527  12.126
93519W        W58746  10.351  28.837  11.164
93520W        W58747  24.272  18.943  11.539
93521W        W58748  40.327   4.355  13.990
93522W        W58749  41.707  23.455  13.463
93523W        W58750  33.536   3.598  11.210
93524W        W58751  16.665  36.831   4.640
93525W        W58752  39.496  38.501  13.082
93526W        W58753  12.106  11.209  11.664
93527W        W58754  12.810  27.722  12.951
93528W        W58755  33.413  37.092  14.962
93529W        W58756  38.746  42.637  14.866
93530W        W58757   1.318  36.251  11.226
93531W        W58758  12.147  40.347  13.497
93532W        W58759  19.876  40.109  13.495
93533W        W58760  38.621  38.985  12.037
93534W        W58761  23.014  28.060   3.338
93535W        W58762   0.259  12.275   1.805
93536W        W58763  37.707  25.569   4.484
93537W        W58764  14.178  22.025   0.226
93538W        W58765  13.259  36.055  11.262
93539W        W58766  42.911   8.792  11.171
93540W        W58767  11.645  33.053  12.648
93541W        W58768  16.545   0.032   4.038
93542W        W58769  15.504  11.846  14.218
93543W        W58770  18.169  14.030  14.875
93544W        W58771   3.756  13.708  13.446
93545W        W58772  39.922  28.754  10.854
93546W        W58773  29.425  37.639   2.645
93547W        W58774  21.298  30.602   4.951
93548W        W58775  14.752  18.029  13.705
93549W        W58776  29.045   2.450   4.531
93550W        W58777  21.619  16.432   0.438
93551W        W58778  41.575  13.743  12.036
93552W        W58779  43.783  26.162   2.359
93553W        W58780  41.497  13.074   0.352
93554W        W58781   2.573  12.620  13.928
93555W        W58782  17.143  37.325  14.952
93556W        W58783   0.626   7.165  10.138
93557W        W58784  28.654  33.155   1.291
93558W        W58785  30.533  38.524   3.960
93559W        W58786   0.783  42.838  13.505
93560W        W58787   6.671  35.608  11.967
93561W        W58788  41.411  21.785   3.199
93562W        W58789  24.039  36.847   0.510
93563W        W58790  28.424  39.098   3.166
93564W        W58791  35.193  29.930  12.119
93565W        W58792  29.159   3.916  11.522
93566W        W58793  30.532   0.724   3.122
93567W        W58794  35.597  43.603  11.939
93568W        W58795  22.473   4.681   1.974
93569W        W58796  42.471   1.915  10.741
93570W        W58797  21.463  42.368  13.465
93571W        W58798  40.146  32.145  12.045
93572W        W58799  43.651  36.849   2.000
93573W        W58800  17.565  33.532   4.472
93574W        W58801   1.915  25.212  12.321
93575W        W58802  26.501  32.086  12.912
93576W        W58803  14.341  16.172  13.575
93577W        W58804  34.194  15.468   1.285
93578W        W58805  16.330   4.456  13.407
93579W        W58806  18.057  12.296  11.530
93580W        W58807  12.861  21.863   4.238
93581W        W58808  38.211   1.499  11.194
93582W        W58809  43.298   6.188   1.935
93583W        W58810  39.795  39.735   3.108
93584W        W58811  32.745  15.219   2.614
93585W        W58812   9.374  20.721  14.666
93586W        W58813  10.357  13.262  11.036
93587W        W58814  14.985   4.235   3.348
93588W        W58815   7.173  12.510  11.230
93589W        W58816  20.008  36.885  13.824
93590W        W58817  31.386   7.116  12.948
93591W        W58818   4.969  27.331  11.100
93592W        W58819  30.892   1.005  11.593
93593W        W58820  31.547  33.468  10.760
93594W        W58821  42.393  30.290   4.216
93595W        W58822  31.942  13.621  14.734
93596W        W58823  43.023  17.245  14.411
93597W        W58824  35.168  38.516   3.411
93598W        W58825  38.089  21.470   2.741
93599W        W58826  37.066  22.745  11.604
93600W        W58827  29.166   0.639   2.735
93601W        W58828  42.128   9.600  11.546
93602W        W58829  32.480  27.576  12.056
93603W        W58830   9.351  24.940   2.910
93604W        W58831  15.136  44.447   0.942
93605W        W58832  35.527  23.068  12.915
93606W        W58833   4.862  40.975   1.675
93607W        W58834  26.688  24.935  10.831
93608W        W58835   6.441  41.476  14.796
93609W        W58836  15.635  19.523  12.498
93610W        W58837  28.722  34.495  11.966
93611W        W58838   9.446   3.501  13.406
93612W        W58839   3.742  31.728  13.517
93613W        W58840  41.449  18.160   3.292
93614W        W58841  41.946   1.472  14.427
93615W        W58842  23.058  24.487  12.968
93616W        W58843  21.732  14.348  12.225
93617W        W58844  44.680   7.520   4.310
93618W        W58845  21.035  23.541  12.107
93619W        W58846  44.513  27.894   2.411
93620W        W58847  26.428  15.640   1.843
93621W        W58848  43.444   6.235   1.412
93622W        W58849  35.004   5.605   4.209
93623W        W58850  16.418  36.819   3.411
93624W        W58851  16.779  30.587   1.244
93625W        W58852  24.246   0.439   3.940
93626W        W58853   3.100  24.740   2.252
93627W        W58854  37.413  13.277  12.378
93628W        W58855  36.236  42.961   2.408
93629W        W58856   9.343  36.042  11.561
93630W        W58857   2.005  17.010   3.701
93631W        W58858   2.793  35.505  12.499
93632W        W58859  41.523  11.237   4.370
93633W        W58860  14.072  27.182  14.574
93634W        W58861   9.845  14.616   1.692
93635W        W58862  10.976  40.366  12.641
93636W        W58863  42.016  41.801   2.270
93637W        W58864  25.123   9.192  10.617
93638W        W58865  30.510   1.918  14.198
93639W        W58866  31.689  17.779   1.873
93640W        W58867   5.188  24.347   3.520
93641W        W58868  29.469  33.567  11.569
93642W        W58869  24.778   5.406  12.870
93643W        W58870  10.931  18.644  13.613
93644W        W58871  32.647  10.365  11.506
93645W        W58872  17.190  23.498  14.642
93646W        W58873  13.146   5.215   3.331
93647W        W58874  34.812   7.391   1.634
93648W        W58875  23.226  27.679   4.108
93649W        W58876  27.223  10.719   0.979
93650W        W58877   5.054  38.283   3.581
93651W        W58878  29.505  16.548  10.751
93652W        W58879  44.866   6.746  13.306
93653W        W58880   4.242  37.692   0.732
93654W        W58881  16.544  28.103   0.958
93655W        W58882  33.628  25.436   4.241
93656W        W58883  17.846  12.124  13.885
93657W        W58884   9.026  17.737  11.989
93658W        W58885   4.383  36.841   3.642
93659W        W58886   7.695  42.861   1.353
93660W        W58887  43.410  40.820   1.716
93661W        W58888  17.822   4.366  14.784
93662W        W58889  35.889  25.888   2.412
93663W        W58890  34.979  12.321   3.849
93664W        W58891  16.075  19.545   4.179
93665W        W58892  33.925   7.530  10.721
93666W        W58893   5.347  40.961  12.041
93667W        W58894  37.114  19.743  11.033
93668W        W58895   2.794   5.374   4.861
93669W        W58896   0.454  13.658   4.790
93670W        W58897  23.415  34.704   3.738
93671W        W58898   8.503  44.496  12.703
93672W        W58899  13.258  12.251   0.639
93673W        W58900  44.337  29.302  12.015
93674W        W58901   8.112  27.095  14.939
93675W        W58902   8.822  26.246   1.469
93676W        W58903   3.341  44.218   3.211
93677W        W58904  42.541  39.448   4.450
93678W        W58905  16.135   9.814  12.085
93679W        W58906   5.026  33.444   9.946
93680W        W58907  41.619  22.172  13.568
93681W        W58908  37.946  41.738   2.404
93682W        W58909   9.929  21.341  10.209
93683W        W58910  17.719  20.487  12.883
93684W        W58911  22.360  11.477   0.742
93685W        W58912  43.563   5.757   1.959
93686W        W58913  34.468  15.292  13.149
93687W        W58914   8.112  32.624   4.060
93688W        W58915  28.159  33.500   0.500
93689W        W58916  24.453  33.957  13.089
93690W        W58917  31.272  14.599   0.625
93691W        W58918  38.564  35.118  13.001
93692W        W58919   1.048  44.741   4.166
93693W        W58920  30.698  30.482  11.962
93694W        W58921  40.528  17.989  14.780
93695W        W58922  20.171  21.792  14.006
93696W        W58923  10.431  41.713   2.701
93697W        W58924  20.236  39.397   1.849
93698W        W58925  31.231  43.879   2.350
93699W        W58926  39.850  37.012  13.363
93700W        W58927   4.892  22.506  13.479
93701W        W58928  44.047  19.793   3.190
93702W        W58929  16.897   9.706   2.502
93703W        W58930  33.677  32.334  12.488
93704W        W58931   0.203  18.538  10.728
93705W        W58932   3.878   9.519   0.595
93706W        W58933  11.250  30.490  14.055
93707W        W58934  27.885  11.268  14.021
93708W        W58935  34.874  11.044   0.035
93709W        W58936  28.202   2.236  13.958
93710W        W58937  31.546   8.315   4.718
93711W        W58938  29.076  39.386  10.462
93712W        W58939  36.414  39.529   4.460
93713W        W58940  23.621  16.919  14.649
93714W        W58941  21.566  11.413  12.160
93715W        W58942  15.225   1.622   4.880
93716W        W58943  32.630   8.770   0.868
93717W        W58944   3.776  44.425  10.514
93718W        W58945  28.349  16.165  14.830
93719W        W58946  31.111  31.152  12.377
93720W        W58947  41.008  25.778   2.811
93721W        W58948  16.536  18.258  14.047
93722W        W58949  29.467  36.301   9.897
93723W        W58950  32.304  16.273  11.333
93724W        W58951  41.540   3.179   5.171
93725W        W58952  17.875  34.319  13.800
93726W        W58953  33.633  20.040  11.743
93727W        W58954  42.340  32.942  13.892
93728W        W58955  14.502   0.313  14.542
93729W        W58956  33.048   4.998  14.347
93730W        W58957  24.724   5.264  14.807
93731W        W58958   3.198  24.177   3.663
93732W        W58959  20.557  42.068   4.507
93733W        W58960  12.939  41.822   0.470
93734W        W58961  35.625  39.784  14.840
93735W        W58962  31.638  38.931   0.267
93736W        W58963   0.685  24.636   3.712
93737W        W58964  16.602  25.018  14.882
93738W        W58965   8.764  40.911   2.423
93739W        W58966  34.819   7.675  13.999
93740W        W58967   7.925  29.031   0.548
93741W        W58968  21.844  15.165   0.016
93742W        W58969  22.998  44.478  14.949
93743W        W58970  31.136   2.485  12.954
93744W        W58971  38.074   1.240   0.837
93745W        W58972  16.591  23.531  10.807
93746W        W58973   2.257  32.636  11.365
93747W        W58974  27.698  11.651  12.767
93748W        W58975   3.412  17.227   5.098
93749W        W58976   1.215  17.333   2.349
93750W        W58977  28.124  36.511  13.003
93751W        W58978  32.160   3.398  10.811
93752W        W58979  14.773  38.399   1.906
93753W        W58980   3.243  15.121   3.136
93754W        W58981  26.544   1.469   2.728
93755W        W58982  27.782  28.907   1.799
93756W        W58983  19.277  29.448  13.972
93757W        W58984  32.639   7.371  14.741
93758W        W58985  33.506  34.029   4.024
93759W        W58986  38.811  23.050   2.433
93760W        W58987  44.348   4.592   0.372
93761W        W58988  40.171  21.164  11.644
93762W        W58989  30.616  41.747   3.735
93763W        W58990  16.993  16.537   4.626
93764W        W58991   8.873  15.834  13.093
93765W        W58992  14.172   5.496   4.537
93766W        W58993  17.594  24.111   0.904
93767W        W58994  28.963  34.760   2.654
93768W        W58995  38.028  35.338   0.802
93769W        W58996  37.355  11.775   4.993
93770W        W58997   8.644  33.897  13.492
93771W        W58998  36.557   0.908  11.024
93772W        W58999  42.907  42.559   1.888
93773W        W59000  37.591   1.151  12.034
93774W        W59001  36.118  38.315  11.472
93775W        W59002  39.390  41.371   4.260
93776W        W59003  14.588  22.976  13.200
93777W        W59004  40.818  36.532  12.572
93778W        W59005  27.311  40.563  13.378
93779W        W59006  31.747  38.272   4.506
93780W        W59007   8.118  31.023   4.638
93781W        W59008  10.411  26.885   4.484
93782W        W59009  17.078  25.240  14.855
93783W        W59010  35.841  24.003   2.424
93784W        W59011  39.873   6.896  10.732
93785W        W59012  15.686  14.555   4.495
93786W        W59013  28.626  24.118  11.429
93787W        W59014  20.443  38.085  14.397
93788W        W59015  21.642  28.182  12.445
93789W        W59016  43.913  19.082   3.301
93790W        W59017  36.230   8.821   3.537
93791W        W59018  17.774  16.689   2.309
93792W        W59019  32.160  21.161   0.910
93793W        W59020  29.107  14.283  14.953
93794W        W59021  10.838  33.577  14.416
93795W        W59022  23.445  27.618  13.445
93796W        W59023  17.641  22.335   1.275
93797W        W59024  40.302  10.462   4.713
93798W        W59025   1.804  18.872   4.853
93799W        W59026  11.754  17.139   0.381
93800W        W59027   1.998  44.051   2.615
93801W        W59028  36.800  20.120  13.835
93802W        W59029  23.959  22.185  12.955
93803W        W59030  36.432   5.919   1.762
93804W        W59031  41.570  28.179   1.679
93805W        W59032  36.988  22.510  14.055
93806W        W59033  33.907  38.915   3.318
93807W        W59034   8.388   1.899  10.880
93808W        W59035  28.648  42.255  12.914
93809W        W59036  33.008  15.343  12.707
93810W        W59037  39.116  34.617   2.905
93811W        W59038  26.967  22.570   2.380
93812W        W59039   5.162  19.701   1.692
93813W        W59040   5.785  41.448  11.113
93814W        W59041   7.598   8.994   3.513
93815W        W59042  37.726  18.350   1.707
93816W        W59043  14.604  27.193   0.388
93817W        W59044  12.477   5.729  13.784
93818W        W59045  21.706  10.125   2.903
93819W        W59046  25.919  35.398   3.224
93820W        W59047  31.574  42.743  14.281
93821W        W59048  18.145  21.241  13.210
93822W        W59049  20.107  22.000  13.491
93823W        W59050  12.827   4.331   1.394
93824W        W59051   4.988  26.644   9.912
93825W        W59052  36.950  15.754  12.937
93826W        W59053   7.377  30.146   2.696
93827W        W59054  13.371  13.300  11.094
93828W        W59055   0.565  18.522   3.739
93829W        W59056  20.176   6.486   1.137
93830W        W59057  13.648  33.404  13.011
93831W        W59058  15.043  17.469   2.785
93832W        W59059   8.669  32.716  10.775
93833W        W59060  19.142  42.039  13.406
93834W        W59061  25.705  43.971  14.108
93835W        W59062   2.572   0.303   2.651
93836W        W59063  23.116  41.613  13.756
93837W        W59064  38.806  22.304  14.495
93838W        W59065   8.913  28.048  12.511
93839W        W59066  39.391  32.117  10.965
93840W        W59067  29.497  40.767   1.442
93841W        W59068  31.506   5.013   2.693
93842W        W59069  21.081  43.045   3.301
93843W        W59070  43.730  26.735  14.460
93844W        W59071  12.354  36.027  10.901
93845W        W59072   0.999  38.877   4.604
93846W        W59073  34.717  16.181   2.799
93847W        W59074   8.382  26.115  12.015
93848W        W59075  14.531   5.809   3.250
93849W        W59076  22.022  30.667  12.344
93850W        W59077   2.851  21.955   0.966
93851W        W59078  39.246  41.364   1.671
93852W        W59079  17.955  27.041   3.251
93853W        W59080   2.361  28.569  14.318
93854W        W59081   9.261  18.028  11.634
93855W        W59082  19.049  10.271  14.361
93856W        W59083   8.717  17.940  11.001
93857W        W59084  37.525  37.796   1.634
93858W        W59085   4.595  44.584   2.996
93859W        W59086   2.070  44.368   3.024
93860W        W59087  36.557  41.454  12.625
93861W        W59088  22.998  44.933   2.800
93862W        W59089  13.079  15.099   2.120
93863W        W59090  10.351  10.003   4.995
93864W        W59091  24.050  42.498  13.437
93865W        W59092  26.384   0.552   2.762
93866W        W59093  36.618  32.401  12.110
93867W        W59094  35.003  15.847   3.954
93868W        W59095  44.363  18.877   3.148
93869W        W59096  36.967   6.254   1.920
93870W        W59097   3.101  44.047  12.538
93871W        W59098  27.098   1.501  13.489
93872W        W59099  15.108  29.187   1.274
93873W        W59100   0.498  25.564  10.483
93874W        W59101  20.830  19.152  12.521
93875W        W59102  10.922  15.436   4.045
93876W        W59103  11.778  18.726  10.384
93877W        W59104  16.347   8.308  13.374
93878W        W59105  43.717  10.302   1.822
93879W        W59106  19.309   1.354   1.405
93880W        W59107  14.821  16.304   1.727
93881W        W59108  28.355  13.472   4.526
93882W        W59109  43.301  27.228  10.065
93883W        W59110  43.215  12.769  12.730
93884W        W59111   2.793  41.524   3.638
93885W        W59112  13.692  38.706   1.166
93886W        W59113   4.125  40.923  12.111
93887W        W59114  11.078  20.275   3.599
93888W        W59115   3.240  37.910  12.100
93889W        W59116  33.096   5.837  11.451
93890W        W59117   0.237  30.983  14.531
93891W        W59118  36.107  22.949   0.775
93892W        W59119   5.987  27.437  12.902
93893W        W59120   7.339  34.714  14.507
93894W        W59121  13.800  11.911   3.157
93895W        W59122  34.665  20.124  11.728
93896W        W59123  29.883  21.368   4.191
93897W        W59124  42.659   6.740  10.092
93898W        W59125  22.744  38.810   2.457
93899W        W59126  16.163  42.533   4.472
93900W        W59127  34.278  41.926  13.854
93901W        W59128  29.072  37.274  14.440
93902W        W59129   8.085  30.636  12.643
93903W        W59130  40.540  23.458   2.717
93904W        W59131   1.109   9.753   3.472
93905W        W59132  13.203  18.088   4.540
93906W        W59133  38.409  16.348   1.230
93907W        W59134   5.678  19.738   1.711
93908W        W59135  27.484  37.103   2.592
93909W        W59136  31.957  14.453   0.745
93910W        W59137  13.866   3.726   1.855
93911W        W59138  23.824  21.617  14.724
93912W        W59139  36.035   8.555   0.707
93913W        W59140  36.185  28.251  13.474
93914W        W59141  35.092  37.332  14.413
93915W        W59142   8.430  43.076  13.101
93916W        W59143  25.191  34.939   3.349
93917W        W59144  30.531  14.563   2.805
93918W        W59145   1.379  24.605  13.286
93919W        W59146   4.414   3.267  14.829
93920W        W59147  18.357  29.493  11.354
93921W        W59148  42.388   0.958   2.691
93922W        W59149  24.491  42.143   3.980
93923W        W59150  12.013   0.273  13.475
93924W        W59151  34.485   6.217   4.036
93925W        W59152   5.455   4.394  12.864
93926W        W59153  19.562  41.320   0.915
93927W        W59154  32.023  31.816  11.609
93928W        W59155   9.432  25.051  12.980
93929W        W59156  21.764  22.254   4.200
93930W        W59157   2.739  44.833   3.545
93931W        W59158   2.933  26.077   2.783
93932W        W59159  13.643  27.109   3.420
93933W        W59160  33.070  35.134  13.826
93934W        W59161  13.622   0.971  14.769
93935W        W59162   3.467  15.245  14.100
93936W        W59163  31.767  35.347  14.848
93937W        W59164  19.479  33.443  12.930
93938W        W59165   1.865  33.111   0.815
93939W        W59166  44.108  30.986  13.063
93940W        W59167  22.239   4.704   4.903
93941W        W59168  25.636  35.353  13.987
93942W        W59169  27.627  31.073  11.410
93943W        W59170  18.701  24.217   0.410
93944W        W59171  20.524  26.295  12.712
93945W        W59172   5.114  41.372   1.998
93946W        W59173  11.818   8.732   1.589
93947W        W59174  28.006   8.742  14.717
93948W        W59175   7.986  28.964  14.956
93949W        W59176  28.787  44.438  12.123
93950W        W59177  41.542  23.060   0.341
93951W        W59178   4.828  42.499   4.495
93952W        W59179   3.748  41.709  10.758
93953W        W59180   2.594  13.167  13.842
93954W        W59181  21.378  19.253   0.684
93955W        W59182  21.703  40.584  13.827
93956W        W59183  10.424   7.812   3.714
93957W        W59184  29.422   0.985  12.960
93958W        W59185  39.007  13.629  12.524
93959W        W59186   6.048  19.118  11.941
93960W        W59187  16.805  28.875  12.442
93961W        W59188  17.198   8.701   2.273
93962W        W59189  10.678  43.062   4.440
93963W        W59190  10.199  26.927   2.960
93964W        W59191  25.311   1.775  10.299
93965W        W59192  30.056  28.885   2.626
93966W        W59193  20.105  26.443   9.987
93967W        W59194  26.510  37.187   4.840
93968W        W59195   0.744  22.337  14.509
93969W        W59196  19.552   0.730   3.102
93970W        W59197  19.707   5.098  14.378
93971W        W59198   6.781  30.103  13.996
93972W        W59199  14.529  39.141   3.716
93973W        W59200   5.408  25.052   0.236
93974W        W59201   2.018  13.095  11.119
93975W        W59202  25.700  37.422   2.342
93976W        W59203  25.680   0.213  14.436
93977W        W59204  27.471  31.657  12.105
93978W        W59205  44.935  29.414  14.976
93979W        W59206  32.336   7.379  13.083
93980W        W59207  21.797  21.829  12.968
93981W        W59208   1.620  29.309  10.598
93982W        W59209  25.850  18.678   0.894
93983W        W59210  44.249  13.242   1.834
93984W        W59211  44.515  28.954   1.200
93985W        W59212   0.985  12.548  11.539
93986W        W59213  13.089  15.089  10.796
93987W        W59214  20.547  40.607   2.830
93988W        W59215  34.318  43.381  12.275
93989W        W59216   8.433  12.488   3.975
93990W        W59217  15.824  13.774   1.922
93991W        W59218  24.124  36.331   3.391
93992W        W59219  30.102  17.025   3.368
93993W        W59220  26.948   7.706   4.877
93994W        W59221  13.089   6.213  11.301
93995W        W59222  20.870  14.351   1.214
93996W        W59223   8.702  33.509   1.733
93997W        W59224  41.885  22.741   1.281
93998W        W59225   1.233  17.556   4.546
93999W        W59226  18.799  44.096   1.490
94000W        W59227  34.679  12.926   4.312
94001W        W59228  31.984   5.922  14.882
94002W        W59229  17.199  35.796  10.242
94003W        W59230  21.437  17.249   4.560
94004W        W59231  17.084  44.973  10.542
94005W        W59232   5.444  41.359   0.214
94006W        W59233   4.087   6.342  12.754
94007W        W59234   0.027  41.879   1.111
94008W        W59235  42.805  31.939  11.616
94009W        W59236  22.999   9.376   0.879
94010W        W59237  13.407  41.336   9.883
94011W        W59238  41.818  18.636  10.699
94012W        W59239  30.952  28.514   5.400
94013W        W59240  42.854  37.545   2.094
94014W        W59241  12.284  38.176   4.413
94015W        W59242   7.714  35.330   3.787
94016W        W59243   3.263  13.798  14.171
94017W        W59244  37.022  11.290   1.789
94018W        W59245  22.649  37.057   1.630
94019W        W59246  21.711  23.956  13.878
94020W        W59247  41.183  24.766   1.809
94021W        W59248  33.929  27.417  13.916
94022W        W59249   6.972  31.040  12.968
94023W        W59250  42.998  35.998   4.568
94024W        W59251  36.997  17.026  12.439
94025W        W59252  10.379   0.951  13.013
94026W        W59253   4.687   2.207   4.645
94027W        W59254  15.535  40.710  12.448
94028W        W59255  43.856  33.163  14.245
94029W        W59256  10.251  13.674   0.830
94030W        W59257  19.561  37.469   3.217
94031W        W59258  40.417  44.777  11.134
94032W        W59259  41.932   0.356   3.852
94033W        W59260  20.054  34.024  12.480
94034W        W59261  22.119   1.774   4.989
94035W        W59262  19.619  17.790   2.310
94036W        W59263  13.347   2.644   4.267
94037W        W59264   1.211   6.107   3.652
94038W        W59265  39.028  21.098  10.084
94039W        W59266  31.516   9.350   0.878
94040W        W59267  27.665  36.828   2.168
94041W        W59268  14.621  17.677  13.357
94042W        W59269  43.392  27.861  10.414
94043W        W59270  15.366  44.687   1.369
94044W        W59271  44.524  28.765  14.392
94045W        W59272  29.009  17.299  13.831
94046W        W59273   3.657   1.382  11.656
94047W        W59274  14.264  15.653   4.500
94048W        W59275   1.844  16.908   3.225
94049W        W59276  25.122  18.453   9.967
94050W        W59277  11.572  33.947  14.089
94051W        W59278  24.793   9.577  13.881
94052W        W59279  13.247   7.617  11.374
94053W        W59280  38.304  37.622   0.642
94054W        W59281   5.245   8.822  10.911
94055W        W59282   3.427  11.199  12.077
94056W        W59283  44.795  10.182  13.043
94057W        W59284   3.560  16.105   0.815
94058W        W59285   0.227  10.872   4.523
94059W        W59286  21.777  30.454  11.931
94060W        W59287  37.441  31.366   0.666
94061W        W59288  43.240  43.192   0.190
94062W        W59289  38.873  12.347   1.973
94063W        W59290  16.891  26.621   1.270
94064W        W59291  30.997  17.400  13.393
94065W        W59292  16.546   2.053  12.345
94066W        W59293  44.360  29.006  11.586
94067W        W59294  24.919   5.740   1.880
94068W        W59295  27.433  20.066  14.472
94069W        W59296   8.359   8.854  13.443
94070W        W59297  30.449  43.993  13.595
94071W        W59298   8.370  22.707   1.810
94072W        W59299  41.306  35.633   2.225
94073W        W59300   6.680   5.883  14.364
94074W        W59301  28.587  40.363  13.176
94075W        W59302  12.603   4.906  13.406
94076W        W59303   2.288  14.053   1.147
94077W        W59304  37.382   0.931  14.049
94078W        W59305  35.701  10.814  14.991
94079W        W59306   6.297  26.182  11.027
94080W        W59307  17.178   4.920  13.650
94081W        W59308  31.695   3.663   1.359
94082W        W59309  26.669  42.487  11.600
94083W        W59310   7.861   9.339   4.474
94084W        W59311  19.617  25.937  14.185
94085W        W59312  35.415   2.271   4.426
94086W        W59313  41.418  14.082  10.690
94087W        W59314  15.201   2.275  14.054
94088W        W59315  20.546  14.139   4.583
94089W        W59316  31.565  24.225   3.467
94090W        W59317  29.460  11.879  10.802
94091W        W59318   4.322  35.082  14.912
94092W        W59319  17.281  15.492  13.455
94093W        W59320  16.783  14.350  14.464
94094W        W59321  10.839  28.626   2.050
94095W        W59322  33.636  38.809   3.723
94096W        W59323  37.590  29.187  10.177
94097W        W59324   5.076  43.634   5.408
94098W        W59325  35.056  42.332  12.017
94099W        W59326   2.279  20.249  13.445
94100W        W59327   6.107  30.362   0.252
94101W        W59328  27.724  10.729  14.334
94102W        W59329  14.171  34.353  12.598
94103W        W59330  11.674  20.681  10.804
94104W        W59331  19.085   9.413   2.310
94105W        W59332  38.824  22.630  12.094
94106W        W59333  41.947  23.863   2.794
94107W        W59334  19.960  29.165   0.936
94108W        W59335  35.989  10.283  11.514
94109W        W59336  20.113  42.845   1.489
94110W        W59337   1.708  29.775  10.358
94111W        W59338   5.753  27.568   1.038
94112W        W59339   5.898  12.900  13.484
94113W        W59340   4.185  26.997  12.059
94114W        W59341  13.201   9.444   0.747
94115W        W59342  10.434  27.871  12.399
94116W        W59343   8.065  31.929  14.247
94117W        W59344  33.294  26.636  10.038
94118W        W59345  12.820  34.655   4.660
94119W        W59346  11.103  10.919  14.927
94120W        W59347   3.763  14.869   3.608
94121W        W59348  13.189  36.648   3.076
94122W        W59349  25.662   6.830   2.319
94123W        W59350  25.603  31.767  10.676
94124W        W59351  11.201  32.690   2.669
94125W        W59352   2.661  12.885   1.598
94126W        W59353  15.744  13.651   4.645
94127W        W59354  17.745  38.397  11.138
94128W        W59355  26.205  27.193   1.242
94129W        W59356   8.147  23.712   1.988
94130W        W59357  26.945  32.894   2.667
94131W        W59358  29.642  19.055   2.413
94132W        W59359   9.212  42.152  13.850
94133W        W59360   0.196   7.420   4.283
94134W        W59361   2.924  11.178  11.357
94135W        W59362  36.813   1.910  10.628
94136W        W59363  34.158  34.367   2.796
94137W        W59364   7.835   6.901   2.869
94138W        W59365  18.220  15.235  14.080
94139W        W59366   0.951  11.002   2.718
94140W        W59367   2.173   6.304  12.889
94141W        W59368  10.912  41.351   4.767
94142W        W59369  22.509   1.148   3.186
94143W        W59370   1.063  23.071  13.969
94144W        W59371  15.646  17.766   0.421
94145W        W59372  41.324  25.840   4.604
94146W        W59373  41.494  11.404   4.851
94147W        W59374  39.860   5.283  12.283
94148W        W59375  44.748   7.971   0.823
94149W        W59376  39.349   7.771   5.133
94150W        W59377  36.753  30.994  14.794
94151W        W59378  25.060  21.097  14.594
94152W        W59379  43.375  37.085   0.057
94153W        W59380  31.476  35.356   3.664
94154W        W59381  40.447  43.808   3.686
94155W        W59382  44.936   3.143  10.481
94156W        W59383  10.635  25.683   2.441
94157W        W59384  39.351  41.982  13.403
94158W        W59385  40.859  22.835  14.454
94159W        W59386  42.952  18.449  11.444
94160W        W59387  33.331  31.478   2.927
94161W        W59388   3.802  26.605  12.201
94162W        W59389   1.825  22.005   4.199
94163W        W59390  37.901  27.947  12.083
94164W        W59391   5.226  37.053   3.286
94165W        W59392  16.290  20.780  10.923
94166W        W59393  25.789  21.376   0.260
94167W        W59394  19.326  37.793   1.642
94168W        W59395  16.171  24.545   3.599
94169W        W59396  24.818   5.902   0.921
94170W        W59397  17.800  11.546   4.487
94171W        W59398  17.806  41.273   2.223
94172W        W59399  18.784  36.693  13.890
94173W        W59400  25.348  24.690   0.795
94174W        W59401  38.746  31.462  11.212
94175W        W59402  14.639  33.766   2.824
94176W        W59403  41.245  35.784  13.998
94177W        W59404  19.167  28.380   1.571
94178W        W59405   3.323  30.626  10.329
94179W        W59406   2.845  19.566   2.150
94180W        W59407   1.250   2.782  14.978
94181W        W59408   6.954  29.123  12.944
94182W        W59409  21.206   6.379  11.564
94183W        W59410   5.925   3.816  11.837
94184W        W59411  31.382   2.890   2.772
94185W        W59412  21.258  15.179   2.837
94186W        W59413  22.725  14.454  10.139
94187W        W59414  13.753  29.065   0.228
94188W        W59415  15.255  28.115  12.545
94189W        W59416  29.860   6.179   2.945
94190W        W59417  40.562  12.551  13.281
94191W        W59418  15.069  32.690  12.434
94192W        W59419  29.489   3.192  12.652
94193W        W59420  20.467  44.641   2.219
94194W        W59421  37.198  11.832  11.599
94195W        W59422  21.137  23.908  11.092
94196W        W59423   1.984  18.622   3.873
94197W        W59424   4.514  41.606   2.419
94198W        W59425  32.984  29.048   1.023
94199W        W59426  38.742  22.822  14.321
94200W        W59427  24.581  27.542   3.374
94201W        W59428  35.964  22.705  14.000
94202W        W59429  10.250  29.395  12.954
94203W        W59430  28.058  37.623  12.930
94204W        W59431   7.142  23.025   1.381
94205W        W59432  32.845  22.314  10.685
94206W        W59433  34.096   4.129  11.024
94207W        W59434   4.462  16.366  13.684
94208W        W59435  19.551  37.350  14.827
94209W        W59436  17.615   1.289  13.897
94210W        W59437  34.170   0.935   1.534
94211W        W59438  10.753  13.928   0.852
94212W        W59439   5.651  37.509   0.526
94213W        W59440  35.906  43.568   1.282
94214W        W59441  16.125  36.553  13.127
94215W        W59442  10.338   5.935   0.537
94216W        W59443  40.722  28.476   0.432
94217W        W59444   4.344  37.526  14.890
94218W        W59445  14.613  36.996  12.902
94219W        W59446  18.839  38.371   3.671
94220W        W59447  16.951   0.340  14.360
94221W        W59448  24.234  44.967  12.530
94222W        W59449  25.446  43.814   0.325
94223W        W59450   5.432  14.562  11.113
94224W        W59451   9.898   6.357   3.380
94225W        W59452  41.631  39.413   3.196
94226W        W59453  37.965  31.374   0.699
94227W        W59454   2.818   7.098   3.938
94228W        W59455  15.763  42.480  12.431
94229W        W59456  23.955  31.646  11.936
94230W        W59457   1.490  36.005  12.898
94231W        W59458  30.706  24.552  11.598
94232W        W59459  32.931  10.360   4.067
94233W        W59460  32.396  21.083  11.613
94234W        W59461  42.647  16.202  12.530
94235W        W59462  31.767  42.102  13.062
94236W        W59463  29.703  14.882   3.544
94237W        W59464  32.973  28.668  14.713
94238W        W59465  33.846  27.456  12.032
94239W        W59466  30.211  42.844  10.400
94240W        W59467  33.991  26.510  14.926
94241W        W59468  22.905  14.558   3.664
94242W        W59469  28.961  39.998   4.192
94243W        W59470   0.338  15.930   3.590
94244W        W59471  24.332   1.618   4.867
94245W        W59472  43.922  44.449  10.662
94246W        W59473  17.020  11.694  11.969
94247W        W59474   9.983  39.962   3.258
94248W        W59475   7.237  31.470   4.189
94249W        W59476  32.988   3.199   2.743
94250W        W59477   3.415   2.276  12.369
94251W        W59478  26.125   1.756  10.896
94252W        W59479   9.605  44.394  14.875
94253W        W59480  40.811  10.263   3.381
94254W        W59481  21.894   6.066   2.724
94255W        W59482   5.954  25.551   0.035
94256W        W59483   6.895  36.643   0.248
94257W        W59484  35.568  42.041   3.402
94258W        W59485  44.584  38.504   1.807
94259W        W59486  34.415  41.437   0.571
94260W        W59487   6.936   5.638  13.976
94261W        W59488  29.635   1.728  14.318
94262W        W59489  37.067   5.939   2.921
94263W        W59490   5.527  41.982   3.277
94264W        W59491  18.489  40.256  13.370
94265W        W59492  22.451  36.362  11.574
94266W        W59493  39.651   7.698   5.546
94267W        W59494   3.666   8.732  12.503
94268W        W59495   1.246  24.142  10.774
94269W        W59496  12.792  35.585  12.027
94270W        W59497  43.008   4.150   0.507
94271W        W59498  32.292  34.479   2.141
94272W        W59499  38.039  44.459  14.224
94273W        W59500  18.746  24.173  12.511
94274W        W59501  34.075  33.787  13.177
94275W        W59502  38.179  40.160   3.011
94276W        W59503  22.023  20.381   0.098
94277W        W59504  10.524  30.244  12.879
94278W        W59505  14.497  22.453  12.496
94279W        W59506  15.968  23.459   0.884
94280W        W59507   2.515   2.844   2.213
94281W        W59508  43.935  22.588   2.375
94282W        W59509  40.547  43.330   1.300
94283W        W59510   4.021  30.217  12.141
94284W        W59511  17.361   5.894   1.172
94285W        W59512  12.874  29.621   2.370
94286W        W59513   6.856  39.623   2.878
94287W        W59514  40.492   8.097   3.685
94288W        W59515   7.394  10.344  10.948
94289W        W59516   7.300   3.156   1.964
94290W        W59517   2.758   4.739  10.574
94291W        W59518  11.830  26.651  14.412
94292W        W59519  32.834  14.419   5.321
94293W        W59520  43.315  11.910  10.665
94294W        W59521  39.383   6.408   3.995
94295W        W59522  17.114  44.350   2.822
94296W        W59523   4.342  32.368  10.768
94297W        W59524  27.486   4.304   0.483
94298W        W59525  24.104  34.646  14.056
94299W        W59526  36.948  36.858  14.873
94300W        W59527  20.216   2.304   0.729
94301W        W59528  23.242  25.197  12.071
94302W        W59529  11.846  24.559  11.507
94303W        W59530   8.838  27.547   0.801
94304W        W59531  38.098  31.347  13.910
94305W        W59532  35.537  44.335  11.607
94306W        W59533  26.913  23.511  10.735
94307W        W59534  43.886   9.411   0.144
94308W        W59535  32.010   7.891  13.880
94309W        W59536   0.535   4.410  14.802
94310W        W59537  10.205  37.319   3.666
94311W        W59538   9.347  44.237  14.016
94312W        W59539  31.007  34.824  14.301
94313W        W59540  19.700  32.013  14.862
94314W        W59541   3.275   5.776   2.673
94315W        W59542   7.072   3.763  11.119
94316W        W59543  34.459   0.361  11.094
94317W        W59544  24.247   3.778  14.854
94318W        W59545  11.168  32.870   1.634
94319W        W59546   1.367  33.701   0.033
94320W        W59547   1.822  34.702  13.394
94321W        W59548   7.819   7.377  12.841
94322W        W59549  35.816   8.530  11.295
94323W        W59550  15.334   6.186  13.746
94324W        W59551  14.040  18.332   3.343
94325W        W59552  18.450  22.177  11.195
94326W        W59553  40.202  13.209   4.166
94327W        W59554   2.349  21.554   0.036
94328W        W59555  38.467  10.035   3.687
94329W        W59556  29.264  43.094  12.481
94330W        W59557  18.208  17.583  14.877
94331W        W59558  36.048  13.083  11.315
94332W        W59559  10.235   0.001  14.122
94333W        W59560  17.788   7.393  12.434
94334W        W59561  29.323  13.079   1.681
94335W        W59562  28.193  17.227  11.610
94336W        W59563  21.697  32.624   3.673
94337W        W59564  26.089  41.929  12.559
94338W        W59565  43.771  38.008   0.042
94339W        W59566   3.768   1.171   3.575
94340W        W59567  38.548  14.575  13.061
94341W        W59568  38.968  32.216  11.725
94342W        W59569  23.464  29.002   4.079
94343W        W59570   0.780  44.611  12.955
94344W        W59571  42.373  33.441   2.121
94345W        W59572  36.969  20.249   0.787
94346W        W59573  35.943  13.038  10.364
94347W        W59574  10.201  29.557   4.471
94348W        W59575  12.538  34.006  12.069
94349W        W59576  42.949  32.821   4.484
94350W        W59577  15.173  22.008  11.659
94351W        W59578  35.290  13.526  12.975
94352W        W59579  10.418  44.610   0.045
94353W        W59580   6.389  32.382   5.175
94354W        W59581   2.409  20.754   9.833
94355W        W59582  18.576   2.729  11.145
94356W        W59583  25.632  13.180  11.496
94357W        W59584  35.569  34.163   1.885
94358W        W59585  20.752  31.728   2.851
94359W        W59586   5.814   7.623  11.082
94360W        W59587  16.087  30.617  14.423
94361W        W59588  10.274  38.897   0.947
94362W        W59589  39.110  27.653  12.546
94363W        W59590  41.927  34.666   3.091
94364W        W59591  31.190  16.834   4.486
94365W        W59592  25.110  12.785   2.757
94366W        W59593  35.817  10.286   4.600
94367W        W59594   7.929  35.482   3.321
94368W        W59595  30.373  28.469   1.888
94369W        W59596  34.753  44.510   1.625
94370W        W59597  26.454  10.720   1.449
94371W        W59598  31.736  31.694   5.798
94372W        W59599   0.657   3.890  12.785
94373W        W59600   7.441  32.660  11.414
94374W        W59601  20.191  17.846   2.806
94375W        W59602  37.407  35.963   0.915
94376W        W59603  26.631  30.821  14.021
94377W        W59604   1.507   2.964  12.981
94378W        W59605  43.545  13.367   4.041
94379W        W59606  26.581  15.297  13.376
94380W        W59607  17.796  16.102  13.361
94381W        W59608  38.519   0.613  12.950
94382W        W59609  27.884  13.862   4.211
94383W        W59610  25.428  43.882  14.611
94384W        W59611  44.732  40.269  10.665
94385W        W59612  20.152  11.080  11.170
94386W        W59613  42.500  15.795   2.369
94387W        W59614   5.204  38.827   3.095
94388W        W59615  43.358  43.837   1.500
94389W        W59616  31.031  24.777  13.085
94390W        W59617  13.242  13.768  13.415
94391W        W59618  40.256   0.911  11.608
94392W        W59619  14.681  19.139   0.741
94393W        W59620  17.469  18.501  10.687
94394W        W59621   0.960  25.653   1.194
94395W        W59622  43.405  32.400   4.120
94396W        W59623  44.216  40.308   4.875
94397W        W59624   7.020  21.184   1.721
94398W        W59625   7.210   5.033   4.848
94399W        W59626  42.705  14.362  11.147
94400W        W59627  39.115   9.178   4.143
94401W        W59628   2.065  19.786   0.427
94402W        W59629  38.390  11.330   1.547
94403W        W59630  27.541   7.279  14.544
94404W        W59631  35.411  23.994  10.916
94405W        W59632  40.646  13.746   0.983
94406W        W59633  18.679  44.713   3.290
94407W        W59634  18.548   0.548   2.406
94408W        W59635  44.968  28.486  13.514
94409W        W59636  36.993  22.111  10.838
94410W        W59637  10.440  31.183  12.766
94411W        W59638  31.918  39.885  10.373
94412W        W59639  34.930   4.789   1.694
94413W        W59640  18.271  40.460  11.998
94414W        W59641  44.724  41.865   4.370
94415W        W59642  44.666  36.622   4.597
94416W        W59643  17.186  41.676   2.142
94417W        W59644  32.451  16.632  13.348
94418W        W59645  10.936  38.005  14.708
94419W        W59646  33.518  14.568  12.328
94420W        W59647  44.458  34.335   5.096
94421W        W59648   3.727  27.710   1.651
94422W        W59649  10.336   1.664   2.715
94423W        W59650  25.210  14.778  12.639
94424W        W59651   1.389  21.126   0.406
94425W        W59652  44.781   7.282  10.798
94426W        W59653  24.356  21.613  12.321
94427W        W59654  16.243   1.953   1.426
94428W        W59655  20.995  10.178   0.444
94429W        W59656  44.114  33.211  13.784
94430W        W59657  18.726  44.322  12.981
94431W        W59658  22.721  10.132   4.192
94432W        W59659  32.327  15.288  12.972
94433W        W59660  36.074  14.192   3.444
94434W        W59661  33.109   5.044  10.977
94435W        W59662  21.543  36.538  11.829
94436W        W59663  33.394  44.411  11.114
94437W        W59664  44.921  22.109  14.061
94438W        W59665   8.349   5.774  13.696
94439W        W59666  32.551  19.714  11.145
94440W        W59667  16.743   1.455  14.259
94441W        W59668  14.433  31.640   4.633
94442W        W59669  23.286  23.190  12.890
94443W        W59670  29.575  21.999  12.969
94444W        W59671  40.427  11.474  12.889
94445W        W59672  43.705  30.480   0.687
94446W        W59673  32.537  30.910  14.888
94447W        W59674  19.509  13.642  12.502
94448W        W59675  15.631  18.777  13.237
94449W        W59676  43.532  20.641   2.346
94450W        W59677   9.346  39.997  13.462
94451W        W59678   3.242  41.739   4.400
94452W        W59679  35.214  26.469  10.548
94453W        W59680  25.727  17.786  11.216
94454W        W59681   4.713  16.668   4.623
94455W        W59682  11.492  16.855  11.182
94456W        W59683   3.295  23.608   4.026
94457W        W59684  29.214  19.244  13.044
94458W        W59685  11.310  13.309   1.292
94459W        W59686  19.629  13.211   4.818
94460W        W59687  12.400  39.508   0.664
94461W        W59688  13.630  26.571  14.073
94462W        W59689  19.405  27.357  14.980
94463W        W59690  14.986   3.380  12.898
94464W        W59691   4.935  17.334   1.765
94465W        W59692   3.371  37.117  14.824
94466W        W59693  41.784  34.178  12.050
94467W        W59694  27.566  43.780   4.460
94468W        W59695  12.566  38.902  14.016
94469W        W59696   7.575  39.071   4.051
94470W        W59697  19.211  11.186  12.699
94471W        W59698   9.603  11.865   3.667
94472W        W59699   0.324   2.371  13.881
94473W        W59700  21.021   1.934   0.799
94474W        W59701  30.479   2.090  14.679
94475W        W59702  18.133  28.970   4.650
94476W        W59703   8.898  28.061  14.494
94477W        W59704  13.175  35.462   2.355
94478W        W59705  20.087  37.503  13.133
94479W        W59706  22.671  24.687   0.925
94480W        W59707  39.317  37.081  11.401
94481W        W59708   1.635  17.733   1.129
94482W        W59709  12.895  22.931  12.044
94483W        W59710  32.763   6.189   0.796
94484W        W59711  35.317  12.556   4.792
94485W        W59712  36.768  16.679   2.560
94486W        W59713  29.619  31.254  14.800
94487W        W59714  18.197   3.752   1.323
94488W        W59715  22.610   6.679   4.834
94489W        W59716   9.855  42.833   4.444
94490W        W59717  24.787  26.141   1.190
94491W        W59718   7.194  28.012   3.887
94492W        W59719  12.134  31.959   3.501
94493W        W59720  34.310  43.879  11.442
94494W        W59721  42.824   5.741   4.776
94495W        W59722  28.105  25.632   1.142
94496W        W59723  40.104  16.088   4.995
94497W        W59724  26.069  24.884  11.966
94498W        W59725  39.804  17.740   4.397
94499W        W59726   0.973  36.005  12.990
94500W        W59727  31.579  28.049  12.299
94501W        W59728   3.140  23.091  11.070
94502W        W59729   4.459  39.368  11.528
94503W        W59730  15.896   1.061  11.641
94504W        W59731  21.774  10.152  11.597
94505W        W59732  43.212  15.769   4.817
94506W        W59733  30.412  32.420   4.154
94507W        W59734  36.006  20.151  10.687
94508W        W59735  18.294  11.223  11.187
94509W        W59736  28.199  15.057   2.447
94510W        W59737  28.949  17.576  11.676
94511W        W59738  15.183  31.499   0.361
94512W        W59739   1.160   7.349   3.183
94513W        W59740   2.020   7.615   4.677
94514W        W59741  30.018  29.434   3.127
94515W        W59742  18.908   0.980  14.767
94516W        W59743  18.515   9.427   0.812
94517W        W59744  21.992  27.380  13.289
94518W        W59745   2.633  41.225   4.998
94519W        W59746  22.458  31.424   0.777
94520W        W59747  22.448  43.492   1.927
94521W        W59748  32.946   2.468   0.139
94522W        W59749  24.253  12.833  13.081
94523W        W59750  36.346  13.798   0.918
94524W        W59751  35.575  28.446  14.327
94525W        W59752  34.345  10.246  14.846
94526W        W59753  16.548  23.021  10.846
94527W        W59754  27.222  16.176  11.282
94528W        W59755  30.093  16.073   2.387
94529W        W59756  24.543  28.936  14.114
94530W        W59757  28.444  23.780  14.296
94531W        W59758  26.857  22.762  13.990
94532W        W59759  26.987  11.751  11.177
94533W        W59760  15.228  35.489  11.138
94534W        W59761   0.212  10.385   1.906
94535W        W59762  44.964   2.967   1.265
94536W        W59763  21.279   9.411   1.193
94537W        W59764  31.597   1.219   1.822
94538W        W59765  12.408  12.902  13.001
94539W        W59766  41.631  33.812  11.435
94540W        W59767  22.902  32.353   2.372
94541W        W59768  22.699  25.915  12.525
94542W        W59769   2.889  29.992   1.078
94543W        W59770  31.869  31.914  13.416
94544W        W59771  38.619  22.986   3.703
94545W        W59772  32.419  20.290  11.240
94546W        W59773   9.334  27.585  14.968
94547W        W59774  16.597   2.509  13.336
94548W        W59775   2.650  10.778  14.885
94549W        W59776   1.388  11.145  13.987
94550W        W59777  20.446   0.449   4.972
94551W        W59778  17.773  12.256  12.934
94552W        W59779  30.486  25.902   5.467
94553W        W59780  20.256  22.512  13.589
94554W        W59781  11.127  29.853   0.294
94555W        W59782  21.325  39.948   2.097
94556W        W59783  14.167  20.538  14.263
94557W        W59784  36.425  35.444   1.356
94558W        W59785  39.290  28.460   0.055
94559W        W59786  24.574  30.858   0.379
94560W        W59787  33.329  30.165  14.552
94561W        W59788  40.958  25.774   0.620
94562W        W59789  29.479  34.111   4.542
94563W        W59790  27.534   8.124  11.941
94564W        W59791  39.998   3.327  13.570
94565W        W59792  31.650  11.067  10.991
94566W        W59793  33.058  15.286  14.229
94567W        W59794  33.599  15.584  13.198
94568W        W59795  14.817  39.872  12.022
94569W        W59796  12.849   7.156   1.349
94570W        W59797  31.529   4.762   2.230
94571W        W59798  17.694  31.449   4.124
94572W        W59799  24.085   3.481   5.124
94573W        W59800   8.220  20.634   1.776
94574W        W59801  31.069  28.258  10.639
94575W        W59802  42.912  21.141  14.798
94576W        W59803  41.175  36.462  10.631
94577W        W59804   3.942  14.617   4.526
94578W        W59805  13.530  27.908  11.250
94579W        W59806   2.051  43.430   0.165
94580W        W59807   0.249  22.648   0.816
94581W        W59808  23.168   9.710   3.395
94582W        W59809   5.820  27.197  11.621
94583W        W59810  20.463  24.882   3.056
94584W        W59811  19.072  16.354  13.070
94585W        W59812   3.851  11.574  10.366
94586W        W59813  14.471  21.091  13.416
94587W        W59814  25.626  37.490   1.264
94588W        W59815   8.223  32.037  12.317
94589W        W59816   8.697  15.270  11.494
94590W        W59817  33.534  38.662  14.784
94591W        W59818  16.417  24.836  11.992
94592W        W59819  21.563  39.393   2.098
94593W        W59820   7.347  34.148   1.068
94594W        W59821  24.238  30.728   2.773
94595W        W59822  22.634  43.872  11.207
94596W        W59823   8.367  18.517  13.265
94597W        W59824   6.979  29.023   2.214
94598W        W59825  28.902  33.704  13.967
94599W        W59826  12.378  32.910   3.557
94600W        W59827  21.066  41.373   4.095
94601W        W59828  24.643  21.968  12.975
94602W        W59829  27.235   4.405   0.905
94603W        W59830  29.858  25.975  14.375
94604W        W59831  23.576   6.528  13.193
94605W        W59832  12.308   6.476  10.755
94606W        W59833  16.295  37.285   4.534
94607W        W59834   0.193  40.304  13.509
94608W        W59835  34.539  14.200   3.777
94609W        W59836   7.276  13.618   0.853
94610W        W59837  13.596  40.468   4.114
94611W        W59838  38.743  36.017   1.815
94612W        W59839   9.382  37.778  13.171
94613W        W59840   4.991  28.044   2.612
94614W        W59841  13.249   1.807   0.443
94615W        W59842   9.528  39.750   3.250
94616W        W59843  22.141  30.712  12.846
94617W        W59844  39.385  38.998  11.513
94618W        W59845   3.257  28.722   4.012
94619W        W59846  18.829   3.112  10.882
94620W        W59847  18.866  33.024   4.387
94621W        W59848  26.506  44.765  14.563
94622W        W59849  33.624  20.536   3.707
94623W        W59850  14.352  26.000  11.984
94624W        W59851   8.657  36.936  11.908
94625W        W59852  43.092   5.962  14.861
94626W        W59853   3.228  31.650   0.381
94627W        W59854  42.977  11.117   2.822
94628W        W59855  38.322  31.716   1.516
94629W        W59856  20.051  43.914   0.633
94630W        W59857  11.963  30.438   4.058
94631W        W59858   9.277  20.081   4.137
94632W        W59859  12.192   0.900   3.618
94633W        W59860  25.163  44.008   3.713
94634W        W59861  30.468  36.776  14.413
94635W        W59862  40.504  38.869   0.390
94636W        W59863  30.285  33.789  12.870
94637W        W59864   2.067  36.702   2.879
94638W        W59865  31.516  13.059  12.037
94639W        W59866   1.714  26.955  11.815
94640W        W59867  23.298  22.305   2.269
94641W        W59868   2.694  29.708  13.392
94642W        W59869   6.954  28.665  11.648
94643W        W59870  16.350  21.730   0.288
94644W        W59871   1.204   2.858   4.638
94645W        W59872  16.622  18.252   4.646
94646W        W59873  14.486  32.856   3.575
94647W        W59874  33.440  43.268   0.761
94648W        W59875   4.803  13.782  14.062
94649W        W59876  36.591  29.833  12.201
94650W        W59877  15.365  31.137   2.211
94651W        W59878  29.659  44.178   0.181
94652W        W59879  43.236  17.157  14.884
94653W        W59880   7.680  41.814  11.551
94654W        W59881  20.137  44.416   0.714
94655W        W59882  16.271  38.682   0.901
94656W        W59883   3.677   3.925  14.607
94657W        W59884   1.151  42.294   4.093
94658W        W59885  27.591  23.994   0.970
94659W        W59886  36.647  18.858   2.687
94660W        W59887  16.733  29.143  10.731
94661W        W59888   7.777  28.630   0.263
94662W        W59889   2.547  32.822   2.062
94663W        W59890  30.354  11.798  13.342
94664W        W59891   8.490  26.250  12.621
94665W        W59892   9.821  21.049  11.957
94666W        W59893   2.225  19.720   1.334
94667W        W59894  40.358  44.790   1.181
94668W        W59895  28.496  25.903  13.250
94669W        W59896  34.767   2.180   2.495
94670W        W59897   9.145  44.364  11.084
94671W        W59898  34.785  31.102  11.858
94672W        W59899  29.991  18.212   1.902
94673W        W59900  12.788  43.568  11.711
94674W        W59901  28.614   4.457   1.825
94675W        W59902   4.276  41.421   3.386
94676W        W59903   6.157   7.653  10.275
94677W        W59904  31.601  25.548   0.286
94678W        W59905  16.093  43.042   1.877
94679W        W59906   1.351  12.650  12.408
94680W        W59907  29.022  40.980  13.053
94681W        W59908  37.038  41.246   1.423
94682W        W59909  22.823  32.314   1.786
94683W        W59910  12.866  41.545  12.115
94684W        W59911  44.013   4.143  13.093
94685W        W59912  41.804   2.948  11.206
94686W        W59913   3.918  19.792   0.526
94687W        W59914  19.028  34.292   1.316
94688W        W59915   8.296  44.238  13.101
94689W        W59916  28.960  25.041   3.148
94690W        W59917  38.647   4.292  10.562
94691W        W59918  22.193  31.865   0.919
94692W        W59919   0.897   9.061  10.697
94693W        W59920  12.339  42.814   0.937
94694W        W59921  33.396  33.860   0.877
94695W        W59922  20.689   5.152  10.635
94696W        W59923  11.122  42.067   3.744
94697W        W59924  13.630  43.943   3.728
94698W        W59925  37.521  38.814  14.513
94699W        W59926  31.478  44.001  12.088
94700W        W59927  20.664   8.319   4.542
94701W        W59928  29.980   0.736   1.270
94702W        W59929  44.878  17.761  11.961
94703W        W59930   6.639  18.777   1.954
94704W        W59931  15.359  17.831  12.033
94705W        W59932  39.551  26.574   2.408
94706W        W59933  12.792  39.109   5.028
94707W        W59934  41.445  16.650   2.449
94708W        W59935  24.139   3.880  13.561
94709W        W59936  21.720  10.417   0.298
94710W        W59937   0.368  37.970  10.706
94711W        W59938  42.215  31.992  14.228
94712W        W59939   2.011  25.929   4.438
94713W        W59940  16.731  30.589   0.707
94714W        W59941  20.069  21.144  14.243
94715W        W59942  27.467  25.662   0.452
94716W        W59943  12.843  32.457  12.810
94717W        W59944  17.565  37.883  12.675
94718W        W59945  43.010   2.234   0.272
94719W        W59946   8.255  36.434   4.083
94720W        W59947  34.448  43.674   1.454
94721W        W59948  16.285  20.968   1.151
94722W        W59949  22.533  23.934   1.043
94723W        W59950  16.603  29.128   0.333
94724W        W59951  35.858  40.308  10.936
94725W        W59952   0.755  37.503   1.269
94726W        W59953   5.426  23.659   0.442
94727W        W59954   0.774  19.000  11.247
94728W        W59955  44.425  44.256   4.678
94729W        W59956   6.717  11.650  13.433
94730W        W59957  23.575  30.250   2.221
94731W        W59958  27.568  38.358  13.765
94732W        W59959  20.033  39.070   0.925
94733W        W59960  18.597  35.238   3.933
94734W        W59961  26.680  36.486  11.115
94735W        W59962   1.338  13.132  12.591
94736W        W59963  42.484   8.549  11.059
94737W        W59964  11.874  14.633  11.616
94738W        W59965  24.676   6.703   3.212
94739W        W59966  35.952  29.759  11.567
94740W        W59967  29.678  44.317  13.947
94741W        W59968  44.238   4.349   3.993
94742W        W59969  16.736   1.462  12.925
94743W        W59970  14.207  29.911  11.560
94744W        W59971  36.993  44.712   0.362
94745W        W59972  28.996  26.135  14.537
94746W        W59973  28.810  38.469  13.907
94747W        W59974  12.797  38.919   0.312
94748W        W59975  29.749   5.832  12.853
94749W        W59976  39.900  34.033   1.865
94750W        W59977   8.106  34.536   4.363
94751W        W59978  20.703   3.679   0.320
94752W        W59979  20.045  41.404  14.698
94753W        W59980  31.185   7.024   2.741
94754W        W59981  29.511   5.241   3.904
94755W        W59982  13.562  27.172  10.490
94756W        W59983  35.409  11.339   1.774
94757W        W59984  32.151  29.093  11.059
94758W        W59985  11.592  12.338  10.575
94759W        W59986  15.834  41.630   2.765
94760W        W59987  16.368   0.717  14.034
94761W        W59988  25.486  38.767   0.708
94762W        W59989  44.694  28.125   1.673
94763W        W59990  12.289   0.376   4.369
94764W        W59991  22.651  44.824  10.607
94765W        W59992  43.389  36.374  13.440
94766W        W59993   9.956   6.160   0.931
94767W        W59994  30.574  31.580   2.678
94768W        W59995  20.506   9.700   3.236
94769W        W59996  10.205   3.250   1.302
94770W        W59997  15.587   6.451  12.852
94771W        W59998   9.168  35.566   3.861
94772W        W59999   5.434  37.027  13.745
94773W        W60000  29.909  44.926  11.182
94774W        W60001   0.453  32.886   0.650
94775W        W60002  28.250  21.497   9.915
94776W        W60003  27.064  29.759   0.879
94777W        W60004  31.572  13.932   0.869
94778W        W60005  28.859  25.547   3.282
94779W        W60006  17.315  12.198   4.212
94780W        W60007  26.612  20.015   3.219
94781W        W60008  16.551  38.505  12.951
94782W        W60009  44.248   2.454   1.227
94783W        W60010  23.691   2.855   4.663
94784W        W60011  28.924  15.348   4.509
94785W        W60012  39.790  15.797  13.425
94786W        W60013  36.984  37.363  12.421
94787W        W60014  43.893  15.090  11.064
94788W        W60015   0.880  41.183   0.695
94789W        W60016   5.251  38.008  14.017
94790W        W60017  26.961  33.412  13.011
94791W        W60018  38.483  33.052  11.109
94792W        W60019  40.264  36.295   2.740
94793W        W60020   7.689  37.277  13.517
94794W        W60021  33.301  24.059   3.235
94795W        W60022   6.368  36.360   4.576
94796W        W60023  36.772  41.377  11.856
94797W        W60024  37.879  32.194   4.514
94798W        W60025  38.164  32.834  12.104
94799W        W60026  24.533  34.899   3.697
94800W        W60027   8.305  10.655  13.058
94801W        W60028  38.488  14.250  14.698
94802W        W60029  39.325  44.504  13.848
94803W        W60030  16.163  15.946   0.419
94804W        W60031  34.577  36.594  11.336
94805W        W60032  27.777  34.825   0.291
94806W        W60033  33.546  17.739  13.880
94807W        W60034   8.182   5.449   3.696
94808W        W60035  37.827  36.491  14.541
94809W        W60036  19.730  41.961   2.750
94810W        W60037   5.324  39.112   2.119
94811W        W60038   7.740  41.811  13.838
94812W        W60039  25.768  14.191  10.515
94813W        W60040  37.023  10.852  12.933
94814W        W60041  44.889   8.169  10.638
94815W        W60042  14.237  41.471   4.179
94816W        W60043  35.576   9.324  14.490
94817W        W60044  10.167  30.691  11.609
94818W        W60045  32.534  35.932   2.328
94819W        W60046  11.017  10.161   0.278
94820W        W60047  39.005  27.881   4.240
94821W        W60048  13.404  18.978  11.691
94822W        W60049  44.685  31.902  12.907
94823W        W60050   4.743  41.159   0.263
94824W        W60051  23.687  20.051   1.901
94825W        W60052  23.156  29.494   3.754
94826W        W60053  44.159  29.081   3.219
94827W        W60054   6.735  32.608  11.918
94828W        W60055   3.184  12.402  14.956
94829W        W60056  39.895  13.275  13.115
94830W        W60057   6.353  35.879  13.783
94831W        W60058  14.647  21.352  12.913
94832W        W60059  31.531  43.131   4.027
94833W        W60060  17.635  11.499   2.773
94834W        W60061  24.996  31.389  10.403
94835W        W60062  40.283  36.914   2.165
94836W        W60063  22.013  42.485  11.488
94837W        W60064  37.569  13.753  12.468
94838W        W60065  28.417  26.738   1.173
94839W        W60066  21.921  41.508   0.851
94840W        W60067  29.322   8.575   4.551
94841W        W60068  43.691   5.878  13.768
94842W        W60069  11.825  28.922   4.096
94843W        W60070  21.892   2.940   4.054
94844W        W60071   5.372   6.223  12.952
94845W        W60072   8.773  43.675   1.546
94846W        W60073   8.642  26.452   1.011
94847W        W60074   5.699  26.385   4.674
94848W        W60075  43.705  27.563   5.085
94849W        W60076  25.095  36.269  12.219
94850W        W60077  29.542  36.307   3.186
94851W        W60078   5.939  31.499  11.381
94852W        W60079  22.031  16.135   2.467
94853W        W60080  26.135  37.423  13.498
94854W        W60081  17.544  15.604   2.892
94855W        W60082  26.875  23.604   1.913
94856W        W60083  20.629   9.191  12.314
94857W        W60084  16.079  12.245  14.783
94858W        W60085  25.093  44.792  11.530
94859W        W60086  34.828  21.452  11.922
94860W        W60087  11.254   8.265  10.694
94861W        W60088  23.249  39.085  11.898
94862W        W60089  39.392  21.110   1.935
94863W        W60090   8.943  14.100   4.472
94864W        W60091  21.017  35.091   0.835
94865W        W60092  40.712  10.186   2.882
94866W        W60093  15.831  10.688   1.814
94867W        W60094   6.754   9.605   0.372
94868W        W60095  13.953  41.049  11.083
94869W        W60096  32.356  20.571  10.810
94870W        W60097  37.567  34.377   3.840
94871W        W60098   2.881  29.290  14.694
94872W        W60099  41.628  25.403   4.452
94873W        W60100  40.506  11.861  10.018
94874W        W60101   2.852  38.635   1.817
94875W        W60102  27.746  35.353  11.868
94876W        W60103  29.469  19.987  11.189
94877W        W60104  40.609   1.247  12.169
94878W        W60105  43.346  36.420   4.599
94879W        W60106  27.529  29.671  14.014
94880W        W60107  29.237   5.952   0.837
94881W        W60108  19.509  40.872  14.951
94882W        W60109  11.698  26.380  11.620
94883W        W60110  40.899  13.550   4.587
94884W        W60111  21.706   3.418  14.838
94885W        W60112  10.367   4.860   2.360
94886W        W60113  15.655   2.325  14.301
94887W        W60114  14.350  24.688  14.377
94888W        W60115  15.243  36.979   2.720
94889W        W60116  17.302   0.614  11.717
94890W        W60117  28.007  40.172   4.658
94891W        W60118  22.591  42.712  13.432
94892W        W60119  30.054   9.386   4.857
94893W        W60120  16.827  20.096   3.161
94894W        W60121  39.437  44.415   0.833
94895W        W60122  23.506  11.374   3.714
94896W        W60123  24.792  11.408   1.883
94897W        W60124   4.700  41.796  10.767
94898W        W60125  15.324  10.560  10.809
94899W        W60126  33.126  12.369   4.111
94900W        W60127   7.895  40.005   2.411
94901W        W60128   4.912  32.389  11.971
94902W        W60129   6.022  41.412   2.663
94903W        W60130  14.987   9.299   1.692
94904W        W60131  33.941  30.194  12.330
94905W        W60132  30.422   5.416  13.484
94906W        W60133  25.000  17.285   1.733
94907W        W60134  10.647  22.136   0.829
94908W        W60135  19.906  10.485  11.582
94909W        W60136   2.858  25.458  12.713
94910W        W60137  20.479  34.823   0.025
94911W        W60138   5.970  14.348  11.195
94912W        W60139  33.110  42.354  11.307
94913W        W60140  10.328   3.363   2.856
94914W        W60141  19.643  16.676   4.717
94915W        W60142  24.691  14.386  13.435
94916W        W60143  28.125  43.798   1.162
94917W        W60144  43.576  27.153  14.206
94918W        W60145  33.738   4.108   0.346
94919W        W60146  14.024   4.790   2.346
94920W        W60147  24.682   5.140   1.402
94921W        W60148  39.225  14.820  14.829
94922W        W60149   9.660  31.432  10.543
94923W        W60150   5.683  18.065  10.256
94924W        W60151  19.703  11.138  12.400
94925W        W60152  19.307  11.088  11.385
94926W        W60153   7.774  33.352  13.398
94927W        W60154   1.659  40.459  10.867
94928W        W60155  33.698  40.790  13.380
94929W        W60156  44.324  31.562  12.452
94930W        W60157  44.557   6.820  11.919
94931W        W60158  34.561  14.063   1.846
94932W        W60159  20.092  12.266  10.432
94933W        W60160  20.731   8.356  14.309
94934W        W60161   3.886   6.885  13.400
94935W        W60162  13.674  37.203   5.019
94936W        W60163  43.124  44.438   3.662
94937W        W60164  36.113   6.591   1.393
94938W        W60165  34.998  44.908   4.289
94939W        W60166   5.678  24.665   0.504
94940W        W60167  25.111   7.429   4.397
94941W        W60168  18.411   1.454   2.205
94942W        W60169   3.716  38.835   4.617
94943W        W60170   9.865  32.363  13.925
94944W        W60171  33.277  44.812   0.005
94945W        W60172  15.599   8.832  14.402
94946W        W60173  29.945   4.325  14.822
94947W        W60174  12.441  30.957  13.737
94948W        W60175  25.096  23.665   0.698
94949W        W60176   4.858  24.528   0.511
94950W        W60177  37.727  29.136   5.101
94951W        W60178   0.759  25.841   3.312
94952W        W60179   7.762  34.028   2.581
94953W        W60180  32.201   9.713  13.268
94954W        W60181  40.049   3.313   4.961
94955W        W60182  13.337   7.352  13.793
94956W        W60183  20.685  20.824   2.746
94957W        W60184  43.882  23.105   2.205
94958W        W60185  23.505  26.947  11.415
94959W        W60186  16.523  31.051   2.152
94960W        W60187  31.849  43.056   1.726
94961W        W60188  43.302  17.478   3.279
94962W        W60189   4.449  39.157   2.214
94963W        W60190  15.286  38.295   3.342
94964W        W60191  36.637  43.938   1.005
94965W        W60192  28.903  10.263   3.005
94966W        W60193  41.207   1.542  12.587
94967W        W60194  25.745  12.948   1.406
94968W        W60195   5.711  15.211   4.900
94969W        W60196  28.096   1.103  11.161
94970W        W60197  28.077   8.050   2.148
94971W        W60198   1.821  17.611   3.712
94972W        W60199  41.564  10.030   2.776
94973W        W60200  14.562   4.915  10.695
94974W        W60201  20.195  12.222   1.797
94975W        W60202   7.161  44.884   1.280
94976W        W60203   0.668  15.576   2.753
94977W        W60204  43.814  22.166  14.821
94978W        W60205  40.746  36.578  11.549
94979W        W60206  13.049  44.440   1.802
94980W        W60207   2.504  22.207   3.749
94981W        W60208  13.860  40.522   2.386
94982W        W60209  11.570  25.567  10.577
94983W        W60210  31.516  14.024  13.100
94984W        W60211  35.709  38.572  14.456
94985W        W60212   9.846  35.468  14.098
94986W        W60213  21.038  11.794  10.634
94987W        W60214  11.739  44.691  11.170
94988W        W60215   4.952  18.370   3.385
94989W        W60216  15.877  22.916  12.980
94990W        W60217  14.623  34.628  12.049
94991W        W60218   5.500   6.662   4.982
94992W        W60219  35.372  36.974   2.771
94993W        W60220  34.936   3.351   3.809
94994W        W60221  42.552  21.496   9.501
94995W        W60222  22.515  40.834  13.997
94996W        W60223  29.253  28.251   5.035
94997W        W60224  36.784   7.691   1.675
94998W        W60225  34.664   1.880  12.475
94999W        W60226   5.737  19.730  12.654
95000W        W60227  21.095  22.929   4.122
95001W        W60228  11.893  20.497   3.931
95002W        W60229   1.983  24.513   3.265
95003W        W60230   3.005  14.090   0.329
95004W        W60231  12.346   0.390  14.105
95005W        W60232  26.466   9.927   1.857
95006W        W60233   3.644   1.605  13.812
95007W        W60234  42.686  19.801   0.006
95008W        W60235  17.298  13.733  14.497
95009W        W60236  16.313   5.280   2.323
95010W        W60237  15.261  25.397   1.241
95011W        W60238   7.627   0.296   1.776
95012W        W60239  30.327  19.057  12.138
95013W        W60240  18.315  39.594   3.279
95014W        W60241   8.302  44.321   1.245
95015W        W60242   9.258  30.920  13.560
95016W        W60243  40.367  18.381  11.376
95017W        W60244   5.897   6.294   0.968
95018W        W60245  37.656  16.114  14.916
95019W        W60246  32.340  34.436  12.193
95020W        W60247  26.462  29.041   1.334
95021W        W60248  21.538  39.255  14.747
95022W        W60249  28.891  27.645   2.946
95023W        W60250  31.805  39.771  11.389
95024W        W60251  34.698  12.375  13.879
95025W        W60252  38.873  17.184  10.826
95026W        W60253  20.078  27.007  10.425
95027W        W60254  27.234  28.351  13.950
95028W        W60255   3.165   1.533   4.338
95029W        W60256  37.795  19.663  12.373
95030W        W60257  27.184  36.074   2.228
95031W        W60258  14.839  35.807  10.236
95032W        W60259  26.455  28.089  13.820
95033W        W60260  20.167  30.726   4.094
95034W        W60261  38.414  23.589  12.130
95035W        W60262  31.162  32.447  11.026
95036W        W60263  28.105  10.686  12.540
95037W        W60264  34.903   3.820  13.511
95038W        W60265  23.695  39.713   0.423
95039W        W60266  20.905  41.030   3.645
95040W        W60267  24.669  25.593  13.474
95041W        W60268  25.185  21.750  11.993
95042W        W60269  33.103  17.049  10.383
95043W        W60270   4.350  41.333  13.442
95044W        W60271  29.539  32.782   1.971
95045W        W60272  19.740   6.610  10.697
95046W        W60273  27.167  42.727  10.768
95047W        W60274   6.460  16.351  14.591
95048W        W60275  25.527   9.200  12.630
95049W        W60276   3.206   0.672  10.084
95050W        W60277  16.116   5.270  12.132
95051W        W60278  25.040  16.124   4.080
95052W        W60279  36.815  22.065  13.087
95053W        W60280   6.149  15.218   3.037
95054W        W60281   3.439  32.196   2.064
95055W        W60282  40.393  23.597   4.402
95056W        W60283  44.846   1.885  12.493
95057W        W60284   4.484  33.523  14.738
95058W        W60285  15.416  30.850  12.553
95059W        W60286  20.979  13.008   3.231
95060W        W60287   0.768  11.982   0.501
95061W        W60288  28.099  36.469   0.880
95062W        W60289  27.423  39.200  12.905
95063W        W60290  36.930  34.080   1.287
95064W        W60291  19.353  28.978   2.165
95065W        W60292  21.304  26.414   4.135
95066W        W60293  37.018  36.215  13.413
95067W        W60294  24.974   8.718   3.057
95068W        W60295  39.289  18.021  12.080
95069W        W60296  40.863  21.354  11.176
95070W        W60297  28.287  20.961   1.229
95071W        W60298  37.794  28.515   0.312
95072W        W60299  13.656  25.323  12.721
95073W        W60300  43.428   9.060  12.456
95074W        W60301  36.977  17.312  14.889
95075W        W60302  19.831   8.843  12.820
95076W        W60303  37.842  26.167  13.350
95077W        W60304  19.120  29.060   0.522
95078W        W60305  15.763   7.824  10.807
95079W        W60306  40.961  25.735  13.651
95080W        W60307  26.669   3.245  13.362
95081W        W60308  12.731  22.298  13.057
95082W        W60309  27.593  32.880  13.021
95083W        W60310   9.975  33.054   9.821
95084W        W60311  38.438  15.705  10.348
95085W        W60312   1.430  35.400   1.886
95086W        W60313  36.427  15.815   2.359
95087W        W60314   0.251  31.503  13.296
95088W        W60315  31.956  38.427   2.215
95089W        W60316  41.013   6.983  12.656
95090W        W60317   5.164  39.629   1.348
95091W        W60318  30.516  17.592   4.952
95092W        W60319  11.929  11.564  12.352
95093W        W60320   8.235  33.120  13.515
95094W        W60321  31.823   9.348   4.379
95095W        W60322  35.904  36.437   3.226
95096W        W60323  32.316  37.424   1.127
95097W        W60324   7.789  16.051   1.686
95098W        W60325  13.529   5.258  14.253
95099W        W60326  41.494   3.229  10.278
95100W        W60327  21.364  36.790  11.065
95101W        W60328  39.045  29.332  10.995
95102W        W60329   3.349   7.914  11.935
95103W        W60330  26.818  34.951   3.198
95104W        W60331  39.470  19.412  10.709
95105W        W60332  11.720  42.042  12.145
95106W        W60333   6.679  15.714   1.055
95107W        W60334   0.375  16.695  13.633
95108W        W60335  38.861  29.973   0.996
95109W        W60336   3.756  28.149  11.993
95110W        W60337   7.089   8.968   3.390
95111W        W60338   0.751  24.578  12.037
95112W        W60339   0.514   6.743  14.104
95113W        W60340   1.243  21.328  12.530
95114W        W60341  26.996  10.288  14.313
95115W        W60342  18.739  40.775  11.552
95116W        W60343  20.231  21.804   4.233
95117W        W60344  33.471   2.124   2.194
95118W        W60345  37.392   1.879   1.512
95119W        W60346  35.809  23.896   3.656
95120W        W60347   8.265   3.665  11.532
95121W        W60348  15.391  19.531  12.962
95122W        W60349  40.932  35.639   4.945
95123W        W60350  43.639  20.569  14.332
95124W        W60351  20.912  42.363   4.273
95125W        W60352   1.145  38.380   3.341
95126W        W60353  15.032   5.371   3.370
95127W        W60354   9.938  39.377  11.380
95128W        W60355  15.966  44.236  11.075
95129W        W60356  31.864  11.789  10.788
95130W        W60357  40.132  19.530  11.254
95131W        W60358   0.553  15.519  12.333
95132W        W60359  35.137   5.271   2.729
95133W        W60360   0.964   5.840  14.971
95134W        W60361  32.603  41.444   2.576
95135W        W60362  21.092  40.619   1.863
95136W        W60363  18.709  43.284   1.853
95137W        W60364  19.819  42.938   5.001
95138W        W60365  42.751  33.964  14.855
95139W        W60366  32.655  25.610   2.719
95140W        W60367  27.491   4.925   3.174
95141W        W60368  23.452  15.200   2.141
95142W        W60369  33.481  26.641   5.270
95143W        W60370  23.875  18.566  11.093
95144W        W60371  35.243  44.686   1.739
95145W        W60372   1.802   2.469   0.313
95146W        W60373  36.546  35.028  14.963
95147W        W60374  41.357  25.805  12.428
95148W        W60375  40.894  26.104   3.780
95149W        W60376  17.894  41.797  13.956
95150W        W60377  13.844   3.654   2.760
95151W        W60378   5.492  21.603  11.345
95152W        W60379   6.666   4.855   1.841
95153W        W60380  17.180  26.429  14.721
95154W        W60381   3.557  17.602   3.266
95155W        W60382  33.795  30.493  14.562
95156W        W60383  36.933  24.839   2.407
95157W        W60384  24.652   3.728  13.590
95158W        W60385   3.081  35.021   2.375
95159W        W60386   3.383   4.212   1.673
95160W        W60387  23.991  38.965  14.031
95161W        W60388  25.355  28.964   1.514
95162W        W60389  17.882  38.304  14.944
95163W        W60390  34.189  23.042  11.626
95164W        W60391   1.363  14.826   4.779
95165W        W60392  17.365  42.544  13.507
95166W        W60393  24.636   9.399  12.448
95167W        W60394  16.298  35.558  10.747
95168W        W60395  15.472  28.688   3.604
95169W        W60396  28.479   3.514  10.602
95170W        W60397  44.403  39.414  10.353
95171W        W60398  25.321  41.112   0.761
95172W        W60399  29.750  10.097  10.836
95173W        W60400   6.440   0.047  10.661
95174W        W60401   6.191  25.946   2.848
95175W        W60402  42.498   7.427  13.467
95176W        W60403   0.578  36.379   2.832
95177W        W60404   9.082  36.965  14.896
95178W        W60405  25.994  29.236   0.583
95179W        W60406   4.324  35.841   2.372
95180W        W60407  26.029   2.699   0.491
95181W        W60408  32.774  20.522   2.947
95182W        W60409  17.693  40.756  10.749
95183W        W60410  18.146  10.073   0.017
95184W        W60411   1.207  35.906   1.125
95185W        W60412   1.360  35.342  12.426
95186W        W60413  20.483   8.117   0.757
95187W        W60414  15.723  10.909  12.437
95188W        W60415  19.215  44.513   0.255
95189W        W60416  21.268  32.591   4.268
95190W        W60417   3.467  16.635  14.803
95191W        W60418   7.833   2.489   3.622
95192W        W60419  17.419  12.908  10.258
95193W        W60420  43.986   0.235  10.293
95194W        W60421   1.767  33.578  14.148
95195W        W60422   2.298  32.106  11.470
95196W        W60423   9.330  26.523   2.759
95197W        W60424  33.337   1.960   1.727
95198W        W60425   9.124  22.577   3.034
95199W        W60426  40.821  29.644  13.380
95200W        W60427  39.402   3.744   4.157
95201W        W60428  15.011  22.090   4.384
95202W        W60429   1.949  42.811   1.457
95203W        W60430  42.667  40.022   3.317
95204W        W60431  26.205  37.923  14.751
95205W        W60432  29.289   6.716   5.058
95206W        W60433  12.453  30.558   2.245
95207W        W60434   9.547  26.618   3.254
95208W        W60435   6.736  31.530   2.817
95209W        W60436  44.052  17.798  14.023
95210W        W60437  34.642  38.506   3.450
95211W        W60438   3.420  18.386   2.030
95212W        W60439  21.581  21.668  12.066
95213W        W60440  13.766  30.475  12.526
95214W        W60441   7.005  36.757   1.380
95215W        W60442  14.587  22.710   1.873
95216W        W60443  40.051  30.803   1.687
95217W        W60444   7.442  40.083   4.044
95218W        W60445  34.558  33.644   1.389
95219W        W60446  21.447  27.951   4.075
95220W        W60447  44.814  26.036   3.643
95221W        W60448  28.596  28.062  13.069
95222W        W60449  15.670   1.304   1.184
95223W        W60450  16.541  32.461  11.141
95224W        W60451  36.771  10.405   4.049
95225W        W60452  29.131  26.105   2.569
95226W        W60453   0.004  34.523  11.609
95227W        W60454  10.781   3.350   2.301
95228W        W60455  30.138  29.895   2.933
95229W        W60456  21.753  44.650   1.581
95230W        W60457  23.991   7.139   3.690
95231W        W60458  11.863   6.762  13.807
95232W        W60459  23.206   4.017  10.656
95233W        W60460   0.757  15.062   4.045
95234W        W60461  28.592   6.208   3.313
95235W        W60462  18.255   9.437  12.634
95236W        W60463   6.604  10.125   2.145
95237W        W60464  17.130  18.072   1.394
95238W        W60465  12.984   8.380  11.090
95239W        W60466  28.555  40.357   2.016
95240W        W60467  21.601  38.454   4.712
95241W        W60468  17.891  30.191  12.573
95242W        W60469  32.564  14.764  12.112
95243W        W60470   3.055   1.974   2.019
95244W        W60471  24.330   1.468  12.443
95245W        W60472  32.008  43.980  11.006
95246W        W60473  32.514  11.267  12.830
95247W        W60474  34.006   6.093   1.503
95248W        W60475  10.446  11.917   2.082
95249W        W60476  20.043   7.457   0.412
95250W        W60477  40.866  38.361  13.098
95251W        W60478  43.781  19.957  12.606
95252W        W60479   4.934  43.694  13.526
95253W        W60480  37.980  13.636   1.188
95254W        W60481   7.739  38.001  14.474
95255W        W60482  32.117   3.661   0.271
95256W        W60483  32.078  21.657  13.790
95257W        W60484  37.965  19.714  13.407
95258W        W60485   6.858  20.630   2.434
95259W        W60486  11.444   4.023   3.316
95260W        W60487  17.220  24.605   0.450
95261W        W60488   6.367   3.330  12.933
95262W        W60489  22.229  29.685   1.507
95263W        W60490   7.607   6.930  12.904
95264W        W60491  16.658   4.843  14.904
95265W        W60492  14.592  20.073   1.913
95266W        W60493  15.191  41.083   4.307
95267W        W60494   6.372   5.856   5.048
95268W        W60495   4.675  40.520   3.240
95269W        W60496   6.791  25.547  12.532
95270W        W60497  28.320  11.015   3.774
95271W        W60498  28.076  15.233   4.421
95272W        W60499  26.133   6.015  13.951
95273W        W60500  29.504  43.784   0.470
95274W        W60501  17.295   0.880  13.855
95275W        W60502  17.267   9.443   3.636
95276W        W60503  44.514  39.887  14.185
95277W        W60504  12.574   7.269   4.667
95278W        W60505   6.925  30.349   1.316
95279W        W60506  35.609  25.157   4.116
95280W        W60507  31.848  33.483   2.593
95281W        W60508  34.982  37.581   1.203
95282W        W60509  12.389  27.080   0.906
95283W        W60510  27.018  15.926  12.973
95284W        W60511   1.008   4.896  13.031
95285W        W60512  40.769  36.132  10.736
95286W        W60513   4.988  22.100   4.013
95287W        W60514  17.528  21.977   0.426
95288W        W60515  15.122  44.109   2.204
95289W        W60516  23.955  37.903  11.533
95290W        W60517  18.201  29.064  11.076
95291W        W60518  13.801  44.409  13.682
95292W        W60519  27.589  27.994  13.895
95293W        W60520  32.378  33.648  11.060
95294W        W60521  10.351  20.083  10.729
95295W        W60522  18.103  38.041  13.323
95296W        W60523   8.163  19.529  13.770
95297W        W60524   0.026  22.917  11.882
95298W        W60525  41.546  22.248   2.686
95299W        W60526   5.936  21.235  12.555
95300W        W60527  39.223  42.578   2.890
95301W        W60528  43.436  28.646  11.971
95302W        W60529  21.739   7.243   2.109
95303W        W60530   7.408  24.217   2.217
95304W        W60531  14.236   2.917   2.733
95305W        W60532  43.369  18.113  13.537
95306W        W60533  25.203  18.496  11.456
95307W        W60534  19.009  40.892   0.064
95308W        W60535  44.741  15.199  13.409
95309W        W60536  36.100   4.284   3.776
95310W        W60537  42.137  14.643   4.086
95311W        W60538  38.370  30.999   2.205
95312W        W60539  39.354   7.618  13.976
95313W        W60540  25.009  36.499   2.755
95314W        W60541   2.784   5.082  12.000
95315W        W60542  13.616  28.342   4.301
95316W        W60543   8.940  37.500   3.276
95317W        W60544  35.075  18.356  12.492
95318W        W60545  44.943  30.963  12.480
95319W        W60546  42.650  17.398  12.988
95320W        W60547   2.241  15.562   3.298
95321W        W60548   7.516  32.175  12.914
95322W        W60549   5.910   6.026  12.097
95323W        W60550  11.530  21.828   1.804
95324W        W60551  39.676  22.751  14.539
95325W        W60552   1.694  16.376  13.037
95326W        W60553   4.242  31.366  10.767
95327W        W60554  16.196  23.609   1.328
95328W        W60555  35.395  15.967  14.801
95329W        W60556  19.770  32.753   4.125
95330W        W60557  11.928  39.622   0.869
95331W        W60558   5.355   2.394  10.613
95332W        W60559  28.993  39.238   3.183
95333W        W60560  11.709  38.908  13.506
95334W        W60561   8.725  19.275  12.454
95335W        W60562  15.636  21.265  14.985
95336W        W60563  12.792   7.638  14.852
95337W        W60564   2.116  40.124   0.155
95338W        W60565  33.962  26.906   2.180
95339W        W60566   8.316   5.360  14.585
95340W        W60567  40.579  15.054  14.455
95341W        W60568   6.897  15.604   3.132
95342W        W60569   1.558  14.686   1.811
95343W        W60570   4.904  37.130  12.632
95344W        W60571  27.391  23.141  14.737
95345W        W60572   0.323  14.575  14.567
95346W        W60573  42.039  32.397   3.596
95347W        W60574   2.965  44.772  14.856
95348W        W60575  41.472  36.935  14.911
95349W        W60576  37.192  44.640  12.601
95350W        W60577   3.167  15.030  12.462
95351W        W60578  30.365  10.082  13.601
95352W        W60579  19.064   8.296  14.302
95353W        W60580   4.216  17.092   2.310
95354W        W60581  14.897  20.984  11.116
95355W        W60582   2.953  35.255   0.016
95356W        W60583  14.821  23.855  11.645
95357W        W60584  33.582  42.896   3.490
95358W        W60585  16.288  10.312   4.257
95359W        W60586  30.908  25.870   1.905
95360W        W60587  13.397  39.281  12.519
95361W        W60588  30.645  28.007  12.169
95362W        W60589  33.521  43.838   4.477
95363W        W60590  27.143  42.216  10.790
95364W        W60591  19.212   2.673  13.985
95365W        W60592  42.966  21.500  12.394
95366W        W60593  13.398  35.186  10.741
95367W        W60594  28.941  26.958  12.477
95368W        W60595  30.609  40.107  14.193
95369W        W60596   5.769  13.774   2.990
95370W        W60597  32.869  38.981  12.586
95371W        W60598   0.332  44.295  14.307
95372W        W60599  44.874  35.223  11.238
95373W        W60600  30.027  31.093  11.543
95374W        W60601   4.523  34.584   3.776
95375W        W60602  16.387  33.217   3.473
95376W        W60603  40.251  11.706  10.551
95377W        W60604  41.869   0.181  12.767
95378W        W60605  26.432  13.448   1.841
95379W        W60606   4.920  31.533  14.876
95380W        W60607  13.848  41.533   0.429
95381W        W60608   5.872  35.039  13.405
95382W        W60609  32.482  33.374   3.636
95383W        W60610  41.415  29.566  12.034
95384W        W60611  34.957  31.878  14.350
95385W        W60612  25.046   7.698  10.816
95386W        W60613  42.959  17.230  12.395
95387W        W60614  25.991  38.002  14.247
95388W        W60615   7.401  37.138  11.057
95389W        W60616  26.088  24.529   4.087
95390W        W60617  44.109  43.524  13.451
95391W        W60618  12.898   3.076  12.322
95392W        W60619  33.138   8.902   4.366
95393W        W60620  36.556  19.632   2.269
95394W        W60621  37.504  38.165  11.171
95395W        W60622  29.483  10.125  13.453
95396W        W60623  16.319  30.302  13.838
95397W        W60624   3.752  25.439   0.287
95398W        W60625  37.237  30.505  11.587
95399W        W60626  42.376   2.184  14.304
95400W        W60627  32.523  39.907   3.576
95401W        W60628  23.427  38.956   0.783
95402W        W60629  14.897  17.225  13.461
95403W        W60630  10.233  27.459  10.778
95404W        W60631  42.923  27.645   4.591
95405W        W60632  21.590  33.292  13.003
95406W        W60633  21.005  37.727   2.659
95407W        W60634  10.219  22.088  10.593
95408W        W60635  17.572  41.482   2.702
95409W        W60636   5.552  20.526   3.858
95410W        W60637  35.469   9.484  12.936
95411W        W60638  20.093   6.653  12.967
95412W        W60639  44.772  11.189  14.420
95413W        W60640  43.039  22.000  14.359
95414W        W60641  41.987  31.613   2.227
95415W        W60642   9.724  31.126   2.247
95416W        W60643   8.446  21.162   3.301
95417W        W60644   3.343  12.938  12.437
95418W        W60645  39.489  27.426  13.457
95419W        W60646  42.865  39.795  11.731
95420W        W60647  26.158  37.477   2.647
95421W        W60648  38.450  24.247   2.604
95422W        W60649  18.793  23.841  14.336
95423W        W60650   7.145  27.649   0.803
95424W        W60651  42.405  31.187   3.162
95425W        W60652  15.184   6.026   4.689
95426W        W60653  29.241  40.555  13.819
95427W        W60654  29.804  12.281  10.705
95428W        W60655  40.999   1.587  12.130
95429W        W60656  13.023  13.708   3.189
95430W        W60657  36.332  36.893   1.322
95431W        W60658  33.162  32.073  13.731
95432W        W60659  35.945  34.993  11.987
95433W        W60660   5.243  33.068   4.809
95434W        W60661   7.873  17.539  14.187
95435W        W60662  25.993  27.924   2.812
95436W        W60663  38.556  31.392  12.061
95437W        W60664   8.715  10.462  11.636
95438W        W60665  10.595  19.420  12.602
95439W        W60666  13.970  17.809   3.267
95440W        W60667  38.397   7.162  13.767
95441W        W60668  28.220  27.022  11.254
95442W        W60669  24.987  35.703   0.853
95443W        W60670  25.063  18.038   0.719
95444W        W60671  20.098  12.717  12.979
95445W        W60672  24.085  37.607  14.490
95446W        W60673   6.040   1.834  14.368
95447W        W60674   4.743  42.651   1.048
95448W        W60675   5.503  17.716  11.503
95449W        W60676  30.985  44.742   2.654
95450W        W60677  18.303  43.968  14.250
95451W        W60678  26.662  37.571   1.894
95452W        W60679  19.237  37.849  10.812
95453W        W60680   7.759  18.138   0.928
95454W        W60681  34.851  18.120   4.016
95455W        W60682  40.020  25.404  12.444
95456W        W60683  18.817  21.424  10.336
95457W        W60684   4.709  33.586   2.595
95458W        W60685  19.806  13.671   4.610
95459W        W60686  36.367  34.350   2.363
95460W        W60687   5.897  44.184  11.130
95461W        W60688   0.022   7.524   3.349
95462W        W60689  22.125  40.255  11.622
95463W        W60690  33.088  42.532  14.477
95464W        W60691  10.097   5.825   2.250
95465W        W60692   0.042   8.652  12.995
95466W        W60693  36.466   6.266   4.517
95467W        W60694  37.467   8.090   3.230
95468W        W60695   8.802   5.739   2.754
95469W        W60696  39.541  41.171  14.632
95470W        W60697  33.846  33.754  14.111
95471W        W60698  36.894  40.901   4.545
95472W        W60699   7.277  40.999   1.043
95473W        W60700  26.686  42.277   3.887
95474W        W60701   9.155  44.912   4.607
95475W        W60702  17.779  18.938   0.005
95476W        W60703  21.600  15.888   0.370
95477W        W60704  24.109   1.310  10.337
95478W        W60705  40.864   6.333   1.617
95479W        W60706  42.310  18.099   3.867
95480W        W60707  25.566  13.673  14.071
95481W        W60708  11.409   8.103  14.046
95482W        W60709  26.492  39.249   2.324
95483W        W60710  34.354   8.761   3.676
95484W        W60711  34.082  42.906   3.281
95485W        W60712  41.770  35.400   4.397
95486W        W60713   9.161  17.361  12.499
95487W        W60714   6.238  29.234   3.301
95488W        W60715  35.154  33.054  10.831
95489W        W60716  44.782  15.525  13.855
95490W        W60717  10.567  20.055  13.873
95491W        W60718   4.968  22.207  11.486
95492W        W60719  27.529  35.058   0.694
95493W        W60720   2.961  38.792  14.487
95494W        W60721  26.395   1.925  13.025
95495W        W60722  38.055  39.385   0.441
95496W        W60723   6.639  25.917  11.722
95497W        W60724   6.946  43.488   0.950
95498W        W60725   4.841  44.172   2.786
95499W        W60726  40.501  16.831  13.572
95500W        W60727  18.977  18.179   2.656
95501W        W60728  37.619  29.622  11.526
95502W        W60729  18.288  12.057   1.163
95503W        W60730  18.499  27.163  11.740
95504W        W60731  28.435  40.067  13.995
95505W        W60732   2.981  43.800  10.812
95506W        W60733  11.149   4.677   0.404
95507W        W60734  28.174  19.360   3.685
95508W        W60735   6.862  25.901   0.735
95509W        W60736  17.876   7.654  13.980
95510W        W60737  32.402  29.835   3.811
95511W        W60738  15.453  23.409   3.638
95512W        W60739  24.627  33.019  13.484
95513W        W60740  22.678  34.623   2.801
95514W        W60741   4.356   5.489  10.429
95515W        W60742   9.714  17.778   0.002
95516W        W60743   7.696  37.485  13.040
95517W        W60744  44.054  24.948  14.725
95518W        W60745  13.812  40.814  10.641
95519W        W60746  40.087  44.416   1.419
95520W        W60747  28.059  37.406  11.920
95521W        W60748  13.138   1.456   3.107
95522W        W60749  26.037  40.565   2.172
95523W        W60750  10.273   5.724  13.077
95524W        W60751   6.691  39.993   0.844
95525W        W60752  18.703  43.413   4.324
95526W        W60753   7.248   5.238  12.792
95527W        W60754  24.153  25.823   1.909
95528W        W60755  10.779  27.430  14.907
95529W        W60756  35.620  11.287   4.479
95530W        W60757   1.930   5.321  10.707
95531W        W60758  43.941  32.538   4.078
95532W        W60759  30.549  38.632  13.817
95533W        W60760  19.152   5.164  14.590
95534W        W60761  25.288  20.620  14.570
95535W        W60762  35.255  26.462  11.395
95536W        W60763   7.752  11.879  13.387
95537W        W60764  11.431   4.786  14.468
95538W        W60765  15.362   8.609   2.810
95539W        W60766  23.748  21.260   2.807
95540W        W60767  43.510  10.679   0.481
95541W        W60768  42.953  14.268  10.720
95542W        W60769  27.068  16.231  10.793
95543W        W60770  30.897   5.940  11.550
95544W        W60771  18.066  16.493   3.687
95545W        W60772  42.471  12.481   0.956
95546W        W60773  35.074  12.317  11.622
95547W        W60774  40.950  24.036  14.667
95548W        W60775  41.928  32.414   1.222
95549W        W60776  44.678  26.996  12.178
95550W        W60777   1.882   8.859   3.367
95551W        W60778   4.156  13.272   1.235
95552W        W60779  29.503  17.671   0.999
95553W        W60780  25.069  14.217   0.313
95554W        W60781  32.491  12.753   0.909
95555W        W60782  37.390  44.723  10.604
95556W        W60783   5.619   3.871  12.890
95557W        W60784  11.847   9.267  12.590
95558W        W60785   8.184  16.312  12.689
95559W        W60786  28.231  15.618   2.283
95560W        W60787  15.203  41.342  12.929
95561W        W60788  34.859   4.908  10.712
95562W        W60789   2.415  14.810   3.366
95563W        W60790   9.148  12.444   2.757
95564W        W60791  23.401  12.066  12.571
95565W        W60792  38.025  16.072  11.104
95566W        W60793  41.228  26.467  13.008
95567W        W60794  30.442   0.630  13.016
95568W        W60795  35.794   1.622   0.757
95569W        W60796  16.777  14.177  12.072
95570W        W60797   2.730  37.023   3.499
95571W        W60798  41.840  17.044  14.942
95572W        W60799  15.682  42.796   4.496
95573W        W60800  22.040  24.426  14.833
95574W        W60801  44.179  27.963  10.766
95575W        W60802  11.727   8.445  10.735
95576W        W60803  39.422   8.654   1.314
95577W        W60804  13.041  32.105   3.296
95578W        W60805  32.440   6.472   0.478
95579W        W60806  18.154   1.677   3.162
95580W        W60807  43.257  24.057  11.891
95581W        W60808  25.611  32.801   4.523
95582W        W60809  17.485  42.829   4.545
95583W        W60810   4.254  15.033   3.742
95584W        W60811  24.718  27.509  12.031
95585W        W60812  15.806  14.558   5.016
95586W        W60813  26.069  21.973   1.817
95587W        W60814  38.880  37.011  14.530
95588W        W60815  27.997  30.620   2.423
95589W        W60816   6.393  36.100   0.827
95590W        W60817  28.034  19.085   1.764
95591W        W60818  43.071  24.795  13.989
95592W        W60819   5.902  23.004   0.870
95593W        W60820   3.765   3.040  13.734
95594W        W60821   6.821   5.388  14.501
95595W        W60822  14.696   0.788   1.305
95596W        W60823  25.071  22.029  10.660
95597W        W60824  43.825   2.666   0.289
95598W        W60825  23.459   6.452  12.704
95599W        W60826   3.519   2.795   2.200
95600W        W60827   4.767  26.223  14.886
95601W        W60828  29.772   9.249  11.716
95602W        W60829   0.763  16.493   3.733
95603W        W60830  20.103  13.387   4.053
95604W        W60831  11.074  38.750  10.421
95605W        W60832  38.084  20.729  11.143
95606W        W60833  22.234  32.233  12.376
95607W        W60834  11.666  33.056  13.575
95608W        W60835   1.031  43.658   0.171
95609W        W60836  19.018  31.061   3.867
95610W        W60837  17.114   4.269   3.277
95611W        W60838  44.253  28.089  13.059
95612W        W60839  15.345  11.696   1.775
95613W        W60840  14.051   1.772  14.909
95614W        W60841  39.497  21.671  11.677
95615W        W60842  43.846  32.354   0.834
95616W        W60843  20.671  18.721  14.947
95617W        W60844  11.255  31.914   3.248
95618W        W60845  26.382  26.011  14.006
95619W        W60846  23.139  27.724   0.718
95620W        W60847  18.574  12.842   0.739
95621W        W60848   6.140  14.070   0.730
95622W        W60849  27.311   0.132   9.666
95623W        W60850  24.084  23.366  13.680
95624W        W60851   3.567  44.442   1.922
95625W        W60852  34.613  14.055  11.742
95626W        W60853  15.894  14.018  13.310
95627W        W60854  39.401   9.427   1.841
95628W        W60855  21.019  33.278  10.088
95629W        W60856   6.829  41.840   2.544
95630W        W60857  20.557   9.861   4.840
95631W        W60858   2.319  22.560   1.312
95632W        W60859  29.983  28.595   2.200
95633W        W60860   5.740  14.597   4.077
95634W        W60861   4.207  36.216  10.690
95635W        W60862  26.021   9.933   0.820
95636W        W60863  34.273  34.368  10.431
95637W        W60864  23.811  42.884  13.171
95638W        W60865  19.915  44.605  13.925
95639W        W60866   1.320  38.476   2.406
95640W        W60867  11.387  43.879  10.935
95641W        W60868  11.367  42.332  14.330
95642W        W60869   5.710  35.884   4.173
95643W        W60870  12.373  28.882  12.145
95644W        W60871   3.020  41.892   2.331
95645W        W60872  35.051  34.438  11.968
95646W        W60873  30.967   6.782  13.685
95647W        W60874  20.597  37.538   2.910
95648W        W60875  35.577  28.069  12.677
95649W        W60876  16.190   5.741  12.937
95650W        W60877  24.305  43.012   3.037
95651W        W60878  10.254  39.968   0.796
95652W        W60879  24.374  14.708  11.535
95653W        W60880  24.443  42.983  10.691
95654W        W60881  15.966  20.824  10.471
95655W        W60882  40.580  36.714  13.819
95656W        W60883  37.908  22.972  14.959
95657W        W60884  10.565   6.287  12.937
95658W        W60885  31.994  13.928   2.097
95659W        W60886  21.774  25.098   0.488
95660W        W60887  17.692  38.357   1.505
95661W        W60888   2.461  16.836   4.606
95662W        W60889  35.419  36.462   5.609
95663W        W60890  31.990   0.542  11.996
95664W        W60891  25.938  22.200  13.318
95665W        W60892   4.660  25.984   1.273
95666W        W60893  28.445  25.187   1.626
95667W        W60894  21.286  41.795   3.941
95668W        W60895  17.326  35.332  14.347
95669W        W60896  41.598   9.490  10.270
95670W        W60897  20.503  24.408   3.271
95671W        W60898  40.824  27.972  10.702
95672W        W60899   2.215  13.607   1.932
95673W        W60900  28.991  32.517   4.562
95674W        W60901  13.325  39.949  13.744
95675W        W60902  39.117  32.507   2.831
95676W        W60903  40.874   5.439   2.828
95677W        W60904  42.931  30.712   2.655
95678W        W60905  36.462  17.274  10.488
95679W        W60906   8.244  20.765   2.357
95680W        W60907  14.335  37.511  13.843
95681W        W60908  38.303  18.575   0.473
95682W        W60909  16.593  22.184  11.752
95683W        W60910  31.010  13.752   0.064
95684W        W60911   0.287  19.967  14.294
95685W        W60912  36.278  44.428  12.507
95686W        W60913   0.605  16.086   2.807
95687W        W60914  11.690  30.182   3.720
95688W        W60915  24.259  28.523  13.820
95689W        W60916  12.360   6.298   4.231
95690W        W60917  19.220  30.614   1.226
95691W        W60918  29.084   8.167  10.768
95692W        W60919  11.710  42.973   3.304
95693W        W60920  17.777  30.434   2.651
95694W        W60921   0.845  30.425  14.745
95695W        W60922  22.117  23.171  11.939
95696W        W60923  43.090   7.845   2.305
95697W        W60924  36.439  37.078   1.807
95698W        W60925  34.936   8.638   2.193
95699W        W60926  29.349  12.857  10.557
95700W        W60927  39.814   7.320  14.922
95701W        W60928  17.672  20.494   4.605
95702W        W60929  29.801  16.075  13.138
95703W        W60930  35.377   4.476   4.543
95704W        W60931  23.694  39.916  11.519
95705W        W60932  32.112  11.374  13.383
95706W        W60933  15.195  39.994  14.306
95707W        W60934  32.894   7.627   1.724
95708W        W60935  20.219  44.137  12.453
95709W        W60936  25.138  40.779  11.392
95710W        W60937  32.550   2.976   3.670
95711W        W60938  19.189  31.416   4.629
95712W        W60939  34.371   8.589  11.266
95713W        W60940  31.054   6.446  14.077
95714W        W60941  33.934   1.410  13.752
95715W        W60942  35.400  41.360   0.803
95716W        W60943  32.462  29.933   0.438
95717W        W60944  11.887  18.530  13.419
95718W        W60945  25.343  20.365   4.522
95719W        W60946  28.482  37.525  12.201
95720W        W60947  33.197   6.394   1.364
95721W        W60948   7.635  33.837  11.604
95722W        W60949  19.623  41.366   0.021
95723W        W60950  38.098  27.102   0.257
95724W        W60951  21.518  12.789   2.203
95725W        W60952  39.429  11.015   2.926
95726W        W60953  37.655  15.979  10.750
95727W        W60954  38.869  41.901   1.211
95728W        W60955  11.364   9.422   2.235
95729W        W60956   5.324   2.322  13.968
95730W        W60957  25.966  32.414  13.272
95731W        W60958  21.467   4.464   4.988
95732W        W60959  24.444  41.952   4.481
95733W        W60960   9.180  43.378   2.772
95734W        W60961  21.268  35.621  12.416
95735W        W60962  33.098  41.307   3.705
95736W        W60963  35.608  11.462   1.309
95737W        W60964  21.471  33.113  10.472
95738W        W60965  26.960  14.630  12.469
95739W        W60966  41.579  12.110   4.603
95740W        W60967  33.975  13.130  14.864
95741W        W60968   4.458   7.856   1.433
95742W        W60969  34.877  35.226  11.569
95743W        W60970  15.716  35.949   0.248
95744W        W60971   0.655  44.817   2.004
95745W        W60972  23.870  22.965  11.955
95746W        W60973   0.205  18.052  12.932
95747W        W60974  37.514  43.641  14.070
95748W        W60975  19.994  43.330  11.629
95749W        W60976  37.835  32.440   2.252
95750W        W60977   3.730   6.743  10.994
95751W        W60978  27.246  29.262   0.945
95752W        W60979  18.512  26.888   0.333
95753W        W60980  42.953  11.840   5.040
95754W        W60981  36.401  32.515   3.611
95755W        W60982  34.324  32.768  13.978
95756W        W60983  24.733  20.057   1.731
95757W        W60984   6.969  42.208  14.347
95758W        W60985  35.606   6.824   4.130
95759W        W60986  30.953  10.481   4.255
95760W        W60987   5.591  12.884   0.334
95761W        W60988  36.734   0.042   3.621
95762W        W60989  38.959  35.608   4.452
95763W        W60990  10.830  39.436   3.513
95764W        W60991  22.273  26.013   2.680
95765W        W60992  31.433  33.276   2.317
95766W        W60993  40.870  11.584   2.055
95767W        W60994  26.593  25.902  13.279
95768W        W60995  15.234  32.386  13.842
95769W        W60996  14.507  44.338  10.894
95770W        W60997  21.967  35.464   2.787
95771W        W60998  10.463   9.652   0.754
95772W        W60999  14.811   4.997   2.949
95773W        W61000  20.179  44.132  10.266
95774W        W61001  35.384  41.322   1.649
95775W        W61002  17.734  28.945   2.216
95776W        W61003   9.368  13.116  11.078
95777W        W61004  28.117   4.802  12.913
95778W        W61005  33.820  17.377   4.061
95779W        W61006  39.920  16.444  12.813
95780W        W61007   2.155   1.358  13.042
95781W        W61008  17.297  15.066   0.349
95782W        W61009  40.462  29.169  10.690
95783W        W61010   3.249  40.642   3.743
95784W        W61011  26.198  36.087   3.637
95785W        W61012   3.748  28.584   4.267
95786W        W61013  29.846   2.552  13.111
95787W        W61014  28.595  29.703   3.168
95788W        W61015   0.543   4.932   4.809
95789W        W61016   1.295  16.205   4.467
95790W        W61017   8.604  16.235   3.766
95791W        W61018  36.993  38.390  14.734
95792W        W61019  43.545  22.440   2.062
95793W        W61020   4.366  24.867   0.838
95794W        W61021  32.938  43.929   2.792
95795W        W61022  29.963   4.248  11.063
95796W        W61023  37.119  39.327   0.733
95797W        W61024  11.267   2.591   3.085
95798W        W61025  39.502  19.184  12.745
95799W        W61026  31.125  26.665   1.686
95800W        W61027   6.771  11.870   0.964
95801W        W61028   4.392  17.256  10.989
95802W        W61029  44.213  28.187   9.852
95803W        W61030  10.713  30.170   2.941
95804W        W61031   5.234  17.710   1.416
95805W        W61032  43.618  18.694  13.291
95806W        W61033  34.256  13.790  12.904
95807W        W61034  34.946  25.951   4.472
95808W        W61035  15.808   2.098  10.926
95809W        W61036   4.829  16.328   0.723
95810W        W61037  34.118  39.884  14.962
95811W        W61038  43.874   6.676  13.344
95812W        W61039  15.098   7.161   3.198
95813W        W61040  44.692  24.349   3.982
95814W        W61041  27.692  22.892   1.715
95815W        W61042  37.094   9.803   1.751
95816W        W61043  31.902   6.788   2.319
95817W        W61044  16.758  38.524  14.330
95818W        W61045   8.456  34.975   2.917
95819W        W61046   5.353  44.509   2.157
95820W        W61047  11.205   2.240   1.321
95821W        W61048  44.860  43.436  11.745
95822W        W61049   9.700  11.166   3.322
95823W        W61050  20.855  20.857  11.258
95824W        W61051  27.523  25.053   5.070
95825W        W61052  16.195  43.975   0.271
95826W        W61053   4.771  20.112  14.315
95827W        W61054  28.527   2.729   5.007
95828W        W61055   1.319  11.387  14.431
95829W        W61056  35.294  28.335   3.949
95830W        W61057  25.526  23.483  14.463
95831W        W61058  17.009  26.909  11.551
95832W        W61059  30.774  11.889   4.103
95833W        W61060   0.576   4.119  13.266
95834W        W61061  35.543  18.694  12.320
95835W        W61062   2.250  20.649   1.348
95836W        W61063  42.255  35.333   3.630
95837W        W61064  15.799  42.389   4.767
95838W        W61065  26.041  35.165   3.727
95839W        W61066   9.156  19.444   4.030
95840W        W61067  15.236  28.562  10.879
95841W        W61068  34.174  24.867   4.962
95842W        W61069  22.984  39.217   4.030
95843W        W61070  20.685  38.957   1.361
95844W        W61071  21.583  24.597   2.244
95845W        W61072  26.474  38.960   2.782
95846W        W61073   8.202  34.682  14.388
95847W        W61074  32.385  40.448   3.165
95848W        W61075  11.333  28.863   4.153
95849W        W61076  42.413  34.755   4.348
95850W        W61077  30.918  11.182   3.759
95851W        W61078   6.502  40.489   2.491
95852W        W61079  35.745  21.316   5.039
95853W        W61080   8.752   1.530   2.420
95854W        W61081   2.869  20.696   3.649
95855W        W61082  38.886  31.483   0.743
95856W        W61083  42.638  30.089   1.473
95857W        W61084  18.282  25.841   0.761
95858W        W61085  12.023  14.551  13.615
95859W        W61086  30.657  44.790   0.779
95860W        W61087  34.478   5.058   3.201
95861W        W61088  13.582   5.109  12.026
95862W        W61089  35.874  41.391  12.207
95863W        W61090  32.905  25.369   4.735
95864W        W61091  28.510  37.827   4.921
95865W        W61092   0.455  13.244  12.503
95866W        W61093   1.737  15.171   1.719
95867W        W61094  34.799  39.176  11.611
95868W        W61095  11.589  23.530   1.519
95869W        W61096   1.347  24.685  14.709
95870W        W61097   1.448  38.984  12.644
95871W        W61098  36.337  18.707  12.598
95872W        W61099  21.515  30.211   0.098
95873W        W61100  41.396  39.417  14.488
95874W        W61101  20.164  15.453  13.573
95875W        W61102  38.421  19.574  12.099
95876W        W61103  23.766  32.354  13.918
95877W        W61104  33.527  15.397  11.715
95878W        W61105  43.888   7.731   4.750
95879W        W61106  40.821   3.384  12.907
95880W        W61107   3.308  43.193  12.219
95881W        W61108  12.095  30.232   1.353
95882W        W61109  31.490  34.215  12.499
95883W        W61110   3.479   3.269   1.512
95884W        W61111  27.860  12.281   0.455
95885W        W61112  17.251  16.220   3.291
95886W        W61113  28.091  30.897   4.166
95887W        W61114  12.976  30.471   3.147
95888W        W61115  40.504  13.167  13.919
95889W        W61116   7.019  20.704  12.998
95890W        W61117  25.532   9.090   0.796
95891W        W61118   3.774  19.654   3.759
95892W        W61119  27.605  13.195  14.778
95893W        W61120  27.209  38.022  13.009
95894W        W61121  27.338  30.427   0.038
95895W        W61122  27.407  12.299   1.034
95896W        W61123   6.444  16.122   0.881
95897W        W61124  23.908  16.114  12.746
95898W        W61125   0.289   1.348   2.256
95899W        W61126  20.200  37.828   2.746
95900W        W61127   1.277  16.538   0.013
95901W        W61128  40.933  26.947  10.669
95902W        W61129  31.448  24.532   0.233
95903W        W61130  21.272   4.474  11.281
95904W        W61131  12.716  32.917  13.002
95905W        W61132  15.347   5.302  14.273
95906W        W61133  33.202  33.667  11.561
95907W        W61134   3.815   2.976   1.794
95908W        W61135  44.983   4.346  14.703
95909W        W61136  42.746  21.230   0.784
95910W        W61137  27.403  15.671   0.872
95911W        W61138   5.778   8.354  11.952
95912W        W61139   8.744   1.008   2.398
95913W        W61140  34.912  10.430   1.991
95914W        W61141   4.464  36.108  13.346
95915W        W61142  21.766  25.900  12.954
95916W        W61143  22.532  37.902   2.239
95917W        W61144  13.403  16.258  14.408
95918W        W61145  42.571  40.213   1.264
95919W        W61146  43.927  44.070   3.237
95920W        W61147   4.077  17.640   3.413
95921W        W61148  44.569  42.078  11.945
95922W        W61149   1.378  43.401   1.851
95923W        W61150  27.590   5.969   0.781
95924W        W61151  30.976   9.404   3.340
95925W        W61152  32.158   6.625   2.793
95926W        W61153  11.551  41.580  12.252
95927W        W61154  41.755  31.665   0.522
95928W        W61155  38.097  18.615   1.456
95929W        W61156  38.323   7.555   3.367
95930W        W61157  44.369  12.868   4.975
95931W        W61158   8.728   9.907   2.653
95932W        W61159  39.880  38.153  12.496
95933W        W61160   0.485  26.981  12.535
95934W        W61161  38.014   7.697   2.294
95935W        W61162  11.674  40.728   1.876
95936W        W61163  38.022  11.088  12.339
95937W        W61164  37.599  17.818   3.168
95938W        W61165  10.143  34.917   0.852
95939W        W61166  23.664  24.510   3.621
95940W        W61167  27.337  36.062  13.646
95941W        W61168  16.311  27.535   0.854
95942W        W61169  28.452  28.298  11.526
95943W        W61170  39.862  27.787   0.225
95944W        W61171   0.535   5.350  14.047
95945W        W61172   0.758  12.259  11.170
95946W        W61173   0.015  34.931  12.505
95947W        W61174  22.430   4.227  11.683
95948W        W61175  26.065  43.832   3.801
95949W        W61176  34.481  32.481   2.770
95950W        W61177  12.000   8.755   2.617
95951W        W61178   9.069   6.892  13.802
95952W        W61179  41.917  37.245  11.184
95953W        W61180   7.946  33.575   0.367
95954W        W61181  15.029   3.877   4.539
95955W        W61182  22.131  40.826  12.355
95956W        W61183  12.438  24.269   1.813
95957W        W61184  29.088  39.798   3.233
95958W        W61185  23.492  21.984   0.793
95959W        W61186  22.568  18.700   3.706
95960W        W61187  30.367  25.096   4.047
95961W        W61188  42.945  25.970   1.869
95962W        W61189  29.158  22.473   2.306
95963W        W61190  22.064  27.024  14.942
95964W        W61191  42.908  27.277   2.333
95965W        W61192  20.663  30.051   0.194
95966W        W61193  11.085  36.359  14.552
95967W        W61194  28.520  17.756   1.438
95968W        W61195  44.823  13.573   1.027
95969W        W61196  11.361  32.953   0.510
95970W        W61197  22.861  15.578  10.110
95971W        W61198   9.070  34.364  10.764
95972W        W61199  15.019  23.994  13.886
95973W        W61200   5.932   3.975  14.514
95974W        W61201  30.965  26.200   0.243
95975W        W61202  12.192  29.271   1.842
95976W        W61203  10.386   8.253  11.939
95977W        W61204  25.548  14.334   3.157
95978W        W61205  42.504  21.556  12.607
95979W        W61206  37.820  32.306   0.899
95980W        W61207  25.866   5.959  13.076
95981W        W61208  10.623  28.687  10.361
95982W        W61209  23.133  25.585  13.429
95983W        W61210  12.998   4.197   1.876
95984W        W61211   6.275  28.467   0.966
95985W        W61212  34.087  25.651  12.483
95986W        W61213   5.016  26.415   1.334
95987W        W61214  41.778  36.868   0.345
95988W        W61215  32.865  19.064   0.117
95989W        W61216  28.741  17.411  11.205
95990W        W61217  22.200  13.171   3.731
95991W        W61218  14.547   8.865  12.496
95992W        W61219   9.194  35.003  14.343
95993W        W61220  18.740  42.520  13.073
95994W        W61221  44.680  29.409  14.483
95995W        W61222  37.973  12.215   0.379
95996W        W61223  31.437  17.234   4.690
95997W        W61224  24.961  32.046  14.779
95998W        W61225  43.759   6.095  13.093
95999W        W61226  12.017  12.569   4.654
96000W        W61227  20.378   3.322   3.092
96001W        W61228  40.579  34.609  13.871
96002W        W61229   7.893  14.878   1.248
96003W        W61230  15.123   7.864  11.656
96004W        W61231  23.690  18.580  13.140
96005W        W61232  21.282   5.746  12.187
96006W        W61233  42.118  25.849  11.373
96007W        W61234  39.266  40.049  12.671
96008W        W61235   7.356   0.906  10.771
96009W        W61236  40.564  11.316   4.660
96010W        W61237  33.981   4.394   3.541
96011W        W61238  11.649   0.541   0.493
96012W        W61239  11.432  27.076  12.026
96013W        W61240  11.834  13.572   4.542
96014W        W61241  13.367   0.957  12.564
96015W        W61242  29.459  36.984  12.054
96016W        W61243  26.732  41.284   2.341
96017W        W61244  40.912  21.755   1.288
96018W        W61245   3.353  37.558  13.966
96019W        W61246  24.496  32.486  14.553
96020W        W61247  10.118  32.357  14.676
96021W        W61248  18.707  36.190  13.851
96022W        W61249  23.196  21.631   1.371
96023W        W61250  39.579  22.762   0.074
96024W        W61251  18.748  29.602  12.593
96025W        W61252  17.150  19.843  11.786
96026W        W61253  19.494  35.801   0.012
96027W        W61254  34.042  29.031   1.691
96028W        W61255  23.577  13.729  12.064
96029W        W61256  22.653  41.770   2.445
96030W        W61257  16.966  13.874   0.483
96031W        W61258  38.874  10.209   4.906
96032W        W61259  25.892  24.025  11.756
96033W        W61260  33.063  28.922   4.139
96034W        W61261   8.518  23.985   0.776
96035W        W61262  43.206  18.337   0.457
96036W        W61263  41.510  35.034   0.443
96037W        W61264  26.121   0.603  11.213
96038W        W61265   7.513  20.255  12.204
96039W        W61266  40.305  30.135   0.462
96040W        W61267   5.230   6.953   0.555
96041W        W61268  31.473  30.750   0.029
96042W        W61269   3.846   3.022  10.263
96043W        W61270   8.131  39.962  12.685
96044W        W61271  43.946  40.540   3.887
96045W        W61272   8.712   5.996  11.496
96046W        W61273  22.095  26.216   1.647
96047W        W61274  41.279  10.322  11.591
96048W        W61275  40.721  24.659   0.435
96049W        W61276  31.529  29.622  13.241
96050W        W61277  41.254  15.098   1.263
96051W        W61278  27.161   3.421  10.540
96052W        W61279  29.023  10.669  13.831
96053W        W61280  10.778  43.815   3.422
96054W        W61281  27.739  13.492  13.086
96055W        W61282   3.301   4.128   2.192
96056W        W61283  15.244  26.107  10.726
96057W        W61284  20.273  10.240  13.406
96058W        W61285  25.718  15.328   1.232
96059W        W61286  28.389   8.389  12.326
96060W        W61287   0.917  42.064   0.803
96061W        W61288  43.587  21.571   2.311
96062W        W61289  41.982  22.578   4.538
96063W        W61290   0.551  24.242  10.033
96064W        W61291   9.098  43.199  14.968
96065W        W61292  27.706  22.492  13.804
96066W        W61293   5.880  20.669  14.788
96067W        W61294  27.128  28.706  11.662
96068W        W61295  42.160  18.191  13.031
96069W        W61296  36.033  22.870   3.362
96070W        W61297  11.166  16.653  13.135
96071W        W61298  32.935   1.210  12.436
96072W        W61299  26.206  21.997   2.317
96073W        W61300  20.791   7.395   9.903
96074W        W61301   7.289  27.661  11.366
96075W        W61302   2.679   5.165  12.885
96076W        W61303   6.427  35.808  11.270
96077W        W61304  44.333  24.722  13.073
96078W        W61305  18.591  10.697  11.168
96079W        W61306  37.436   1.864  10.690
96080W        W61307  21.618  44.489   4.012
96081W        W61308  40.993  39.629   0.809
96082W        W61309   5.708  21.792  12.315
96083W        W61310  39.803  15.584   4.625
96084W        W61311  42.389   4.929   1.026
96085W        W61312  35.731  29.290  13.830
96086W        W61313   8.287  19.640  14.560
96087W        W61314  29.985   2.267   2.500
96088W        W61315  37.679   0.851  14.472
96089W        W61316  42.939  10.726  11.435
96090W        W61317  39.956  31.430   0.865
96091W        W61318  12.150  12.047   4.569
96092W        W61319   5.122  44.369  13.027
96093W        W61320   3.402  15.724   3.816
96094W        W61321  43.478  15.170   0.471
96095W        W61322   3.761  37.042   3.720
96096W        W61323  24.281  31.779  13.456
96097W        W61324  30.637  22.036  10.691
96098W        W61325  40.891  27.579   4.623
96099W        W61326  30.101  28.216  14.356
96100W        W61327  37.247   4.722   1.679
96101W        W61328   0.290  36.600  12.993
96102W        W61329  40.166   7.383   1.463
96103W        W61330  26.651  40.057   0.470
96104W        W61331  31.416   7.818   4.799
96105W        W61332  24.707  14.900   0.790
96106W        W61333  43.377  19.497  11.884
96107W        W61334  39.476  18.335  13.321
96108W        W61335  33.271  32.691   1.939
96109W        W61336   8.396  21.598  10.795
96110W        W61337  29.058   8.607  14.921
96111W        W61338   1.272  34.562  12.064
96112W        W61339  35.016   0.667  12.035
96113W        W61340  25.435  18.725  12.229
96114W        W61341  34.358  28.538  14.531
96115W        W61342  21.001  38.131  11.339
96116W        W61343   4.886  26.552  12.154
96117W        W61344  14.432   6.879  12.453
96118W        W61345   8.267  30.070   1.185
96119W        W61346  26.434  34.873  13.910
96120W        W61347  29.574   6.998   4.270
96121W        W61348  23.773  28.232  10.759
96122W        W61349   9.398  12.578  13.357
96123W        W61350  43.212  12.598   3.347
96124W        W61351  36.022  21.442  13.989
96125W        W61352  41.374  16.087  11.757
96126W        W61353  12.687  30.983   3.832
96127W        W61354   4.655  40.750   2.586
96128W        W61355  12.562  28.236  13.899
96129W        W61356  20.521   7.679   0.338
96130W        W61357  39.379  44.469  11.585
96131W        W61358  31.343  11.885  10.803
96132W        W61359  21.975  15.815  12.483
96133W        W61360   4.770  19.695   4.449
96134W        W61361   5.980  23.095  12.454
96135W        W61362  25.190  32.542   2.778
96136W        W61363  10.969  20.263   4.844
96137W        W61364   6.835  28.945  14.280
96138W        W61365   6.471  28.475   2.891
96139W        W61366  19.674  42.164  11.167
96140W        W61367   7.165   5.074   1.873
96141W        W61368  16.810   8.417  14.282
96142W        W61369  28.884  21.551   0.078
96143W        W61370  15.334  27.713   2.592
96144W        W61371  14.164   7.126  13.383
96145W        W61372   2.149   8.306  13.812
96146W        W61373  14.315   1.789   0.368
96147W        W61374  40.393   8.330  11.854
96148W        W61375  40.824  15.093   4.799
96149W        W61376  19.246  29.380   2.863
96150W        W61377  10.839  16.674   0.381
96151W        W61378  12.619  28.274   4.100
96152W        W61379  42.476  28.561   4.344
96153W        W61380   2.508   5.220   1.864
96154W        W61381  27.073   8.798  11.453
96155W        W61382  14.810  32.701  11.780
96156W        W61383  26.286  18.799   2.740
96157W        W61384  12.574  43.099  11.575
96158W        W61385  23.444  25.538  11.713
96159W        W61386  20.064  25.040  14.340
96160W        W61387   2.957  42.065  14.496
96161W        W61388   1.239  35.500  13.405
96162W        W61389  41.383   0.835   2.683
96163W        W61390  25.610   7.795   0.462
96164W        W61391  40.638   7.125   0.759
96165W        W61392  27.207  20.134   1.987
96166W        W61393  25.068   6.418  12.084
96167W        W61394   7.778  18.227   0.420
96168W        W61395  26.120  19.774  12.641
96169W        W61396  31.441  31.934  11.777
96170W        W61397  19.157  42.409   1.171
96171W        W61398  44.758  31.205  12.057
96172W        W61399  19.175  26.511  11.652
96173W        W61400  20.305  26.462  14.535
96174W        W61401  20.210  36.886   1.642
96175W        W61402   9.266  22.899  11.105
96176W        W61403  12.139  12.045   2.877
96177W        W61404  32.540  40.781   4.507
96178W        W61405  29.181  10.769   4.091
96179W        W61406  43.733   3.548  13.995
96180W        W61407   2.342  21.532  13.088
96181W        W61408  26.509  35.056  12.998
96182W        W61409   9.091  37.003   3.133
96183W        W61410  19.167  21.511   3.313
96184W        W61411   8.576  16.721   1.918
96185W        W61412  24.131   6.236   1.898
96186W        W61413  33.251   9.626  14.250
96187W        W61414  16.333   5.955   4.101
96188W        W61415   8.958   5.242  12.551
96189W        W61416   0.334  38.921   3.283
96190W        W61417   3.430  31.088  11.997
96191W        W61418  20.520  35.797  13.537
96192W        W61419  26.520  24.270   3.921
96193W        W61420   7.601  23.104  11.524
96194W        W61421  11.474  18.719   1.242
96195W        W61422  30.400  40.542  14.416
96196W        W61423  22.327   5.101   0.505
96197W        W61424   9.463  11.448  11.166
96198W        W61425  19.733  44.171   4.324
96199W        W61426  43.350  11.136  11.082
96200W        W61427   1.174  42.896  13.173
96201W        W61428  34.005  35.117  13.451
96202W        W61429  36.331   4.467   4.237
96203W        W61430  42.015  36.496   3.337
96204W        W61431  30.673  14.553   3.278
96205W        W61432  10.763  16.843  12.842
96206W        W61433  32.836  14.111   1.314
96207W        W61434  33.148  33.217   1.725
96208W        W61435   2.619  40.322  13.404
96209W        W61436  43.525  22.500  10.217
96210W        W61437  44.984  24.683   4.243
96211W        W61438  20.648  32.179   3.163
96212W        W61439  26.705  11.298  10.055
96213W        W61440   0.038   3.363  12.961
96214W        W61441  38.891  31.627  14.711
96215W        W61442  39.812  43.728   1.295
96216W        W61443   1.457   7.230   4.682
96217W        W61444  14.952  24.910  12.665
96218W        W61445  34.231  43.891  13.124
96219W        W61446  33.496  35.495  10.857
96220W        W61447  12.201  44.186  14.481
96221W        W61448  29.367  14.710   4.384
96222W        W61449  21.209   6.333  13.526
96223W        W61450  21.918   9.665   4.809
96224W        W61451  35.129  12.684   2.976
96225W        W61452  24.216  12.012   4.457
96226W        W61453   6.307  13.339   4.410
96227W        W61454  23.331  38.194   2.216
96228W        W61455  30.954  12.322  13.890
96229W        W61456  12.087   7.752  10.362
96230W        W61457  18.515  29.874   4.494
96231W        W61458  42.563  19.295  12.072
96232W        W61459  19.779  42.846   3.694
96233W        W61460  36.312  39.431  12.940
96234W        W61461  26.475  18.009  11.602
96235W        W61462  36.010  42.376   3.252
96236W        W61463  29.617   1.831  12.400
96237W        W61464  28.960  33.655   0.889
96238W        W61465  23.344  44.692  14.535
96239W        W61466  32.945  28.102   2.727
96240W        W61467   6.182  16.986   0.049
96241W        W61468   7.712  42.824   3.774
96242W        W61469   3.659  33.471   2.828
96243W        W61470  13.671  44.574   0.001
96244W        W61471  42.991   5.967  11.054
96245W        W61472   0.468  11.788   0.890
96246W        W61473   9.896  28.112  13.247
96247W        W61474  40.942  17.626  11.893
96248W        W61475  11.547  26.955   3.279
96249W        W61476  27.682  32.387  14.608
96250W        W61477  17.201  28.450   2.276
96251W        W61478  29.906  22.135  11.775
96252W        W61479  27.638   3.293   3.617
96253W        W61480  10.838  19.166  13.383
96254W        W61481  22.039  43.560   3.344
96255W        W61482  10.615  31.146   2.316
96256W        W61483  42.684  39.958   4.338
96257W        W61484  25.777  18.318  11.200
96258W        W61485  20.054  17.086   3.201
96259W        W61486   9.903   7.387  11.086
96260W        W61487  22.503  23.583  12.860
96261W        W61488  13.877  39.392  14.092
96262W        W61489  10.573  28.492   3.933
96263W        W61490  37.549  44.552   3.643
96264W        W61491  28.531  11.431  12.555
96265W        W61492   4.463  32.988  11.603
96266W        W61493  21.610  44.900  12.061
96267W        W61494  20.860  14.768  11.501
96268W        W61495   7.626  44.577  14.343
96269W        W61496  13.151  32.024  12.152
96270W        W61497  42.204  23.654   0.875
96271W        W61498  10.345  26.730   1.767
96272W        W61499  31.353  16.603   1.300
96273W        W61500  26.027  24.282  12.407
96274W        W61501  20.947  33.927  14.451
96275W        W61502  20.067  17.561   2.396
96276W        W61503  44.941  15.348   1.216
96277W        W61504   5.732   1.099   1.439
96278W        W61505  30.945  29.889   2.900
96279W        W61506  17.747  31.476   1.776
96280W        W61507  39.747  23.100  10.605
96281W        W61508  17.733  34.606   4.474
96282W        W61509  42.911  16.505  11.960
96283W        W61510  35.404  14.857  10.412
96284W        W61511  42.959   4.493  11.716
96285W        W61512  19.432   0.934  14.733
96286W        W61513  25.244  23.729   4.580
96287W        W61514  35.942   5.183   3.885
96288W        W61515  44.726   4.132  12.324
96289W        W61516  27.281  27.307   1.813
96290W        W61517  37.732  16.085   4.675
96291W        W61518  24.852  25.916   2.150
96292W        W61519  18.126  25.031   4.754
96293W        W61520  15.243  15.122   2.663
96294W        W61521  27.737  24.017   4.177
96295W        W61522   7.593  24.104  13.069
96296W        W61523  27.721  12.867  11.039
96297W        W61524  36.494  14.021   1.797
96298W        W61525   9.792  24.769   0.404
96299W        W61526   8.472  24.667   2.762
96300W        W61527  43.560  40.249   4.099
96301W        W61528  13.058  44.924  13.910
96302W        W61529   5.855  15.406   1.011
96303W        W61530  25.719  17.284   4.630
96304W        W61531  38.983   2.517  13.785
96305W        W61532  15.197  30.791   1.853
96306W        W61533  22.937  18.982  14.984
96307W        W61534  10.669  27.644  10.983
96308W        W61535   3.470  32.291   2.605
96309W        W61536  21.310   0.028  10.634
96310W        W61537  16.127  41.468   3.796
96311W        W61538   5.287  38.578   4.404
96312W        W61539  26.089   6.300  11.868
96313W        W61540  12.111  33.705  11.676
96314W        W61541  39.793  39.298   0.546
96315W        W61542  14.235  44.571   1.806
96316W        W61543  21.563  14.645   3.147
96317W        W61544  25.557  42.275   4.653
96318W        W61545  43.721  39.546  13.450
96319W        W61546  36.592  10.613   0.193
96320W        W61547  31.026  17.357  12.094
96321W        W61548  27.176   2.799   4.201
96322W        W61549  20.188  12.583  11.192
96323W        W61550  43.973   7.900   2.491
96324W        W61551  39.977  16.186   2.767
96325W        W61552  27.056   1.262  13.976
96326W        W61553  13.254  35.516  10.032
96327W        W61554  34.000  42.786  13.941
96328W        W61555  44.334  10.473   5.081
96329W        W61556  35.987   1.932   1.765
96330W        W61557  15.303  42.046   0.356
96331W        W61558  23.047  10.218  10.212
96332W        W61559  31.853  33.456  13.237
96333W        W61560   9.700  35.187   0.845
96334W        W61561  21.668   3.818  14.313
96335W        W61562  39.942  42.540   2.412
96336W        W61563  28.908  33.023   4.629
96337W        W61564  26.486   3.403  11.174
96338W        W61565  10.848  23.774   0.047
96339W        W61566   8.889  12.502   5.522
96340W        W61567   2.730  34.959   0.943
96341W        W61568  12.608  34.088  14.461
96342W        W61569  36.352  15.750  14.333
96343W        W61570   6.717  33.930  12.431
96344W        W61571  42.683  16.774   3.181
96345W        W61572  13.348  21.478  11.976
96346W        W61573  32.089  35.315   2.803
96347W        W61574  38.100  23.006   3.666
96348W        W61575  15.848  17.072  13.426
96349W        W61576  34.921   3.452   5.252
96350W        W61577  11.713  15.824  12.062
96351W        W61578   1.740   2.362  11.431
96352W        W61579  27.414  12.152   4.578
96353W        W61580  29.844  33.187  12.829
96354W        W61581  41.701  34.386  12.897
96355W        W61582  21.162  22.037   2.976
96356W        W61583  35.992   2.747   2.412
96357W        W61584   4.235  39.247  10.650
96358W        W61585  40.929  20.194  14.692
96359W        W61586   6.531  38.628   2.877
96360W        W61587  43.847   8.853   0.226
96361W        W61588  39.551   5.550  10.199
96362W        W61589   6.144   1.882   4.480
96363W        W61590  16.017  37.048   1.180
96364W        W61591   0.735   0.068  12.686
96365W        W61592  12.728  20.784  13.792
96366W        W61593  43.340  36.575  10.727
96367W        W61594  20.181   4.036   1.085
96368W        W61595  14.586   7.828  10.749
96369W        W61596  36.116  39.079   4.625
96370W        W61597   2.351  15.174   2.530
96371W        W61598  24.327  11.728  14.089
96372W        W61599  26.918  20.162  14.410
96373W        W61600  42.484   9.595   3.361
96374W        W61601  43.546  31.188   0.286
96375W        W61602  19.063  23.021  13.610
96376W        W61603   6.691  31.722  11.849
96377W        W61604  17.098  24.499  10.757
96378W        W61605  25.646  42.513  11.423
96379W        W61606  24.707  10.692  14.917
96380W        W61607   8.042  43.563   0.879
96381W        W61608  44.470   1.287   3.619
96382W        W61609  44.379   2.186  11.959
96383W        W61610  24.678  24.746   2.264
96384W        W61611  15.555  19.745  13.425
96385W        W61612  20.581   9.834  12.943
96386W        W61613  30.694  34.103   1.038
96387W        W61614  43.278   3.187  14.031
96388W        W61615  22.195  34.334  13.859
96389W        W61616   1.524  29.737   4.140
96390W        W61617  12.663  37.577  12.100
96391W        W61618  41.439  37.335  12.435
96392W        W61619  29.265  10.677   1.378
96393W        W61620   9.741  38.429  11.487
96394W        W61621  16.513  38.797  11.597
96395W        W61622  12.323  32.282   4.237
96396W        W61623  10.853  40.903   2.900
96397W        W61624  41.758   0.687  12.643
96398W        W61625  16.484   7.121   2.206
96399W        W61626   1.233  11.859   3.526
96400W        W61627  42.702  31.101  13.882
96401W        W61628  15.275   8.995   0.380
96402W        W61629  22.945  20.677   3.678
96403W        W61630  37.797  32.525  12.359
96404W        W61631  13.753  41.416  14.930
96405W        W61632  34.850   6.148  11.161
96406W        W61633  17.646  39.699   0.302
96407W        W61634  10.340  28.631  11.640
96408W        W61635  11.819  12.490  11.445
96409W        W61636  32.358  13.407  14.450
96410W        W61637  31.742   4.711  11.219
96411W        W61638  20.730   1.461   3.546
96412W        W61639  20.591  40.308  14.616
96413W        W61640  11.092  25.131   4.800
96414W        W61641  19.741  38.360  14.692
96415W        W61642  37.805   9.837  11.973
96416W        W61643   5.850   9.865   2.314
96417W        W61644   6.669  11.508   3.149
96418W        W61645  17.371  19.008   4.869
96419W        W61646  31.601  16.966  12.964
96420W        W61647  16.152  37.389  12.584
96421W        W61648  30.510  42.758   1.415
96422W        W61649   3.727  42.378  14.488
96423W        W61650  19.865  36.690   0.797
96424W        W61651   2.731   0.741   9.872
96425W        W61652  44.186   2.342  11.516
96426W        W61653  44.066   2.336   2.659
96427W        W61654  42.472  10.589   4.409
96428W        W61655   8.406  20.671   4.984
96429W        W61656  16.312  11.632  12.424
96430W        W61657  31.039  21.714  10.529
96431W        W61658  43.670  34.907  11.698
96432W        W61659  22.361  37.378  12.414
96433W        W61660   6.973  38.477  12.441
96434W        W61661  22.690  40.490   3.660
96435W        W61662  10.822  35.330  12.494
96436W        W61663  27.139  27.641  10.456
96437W        W61664  44.248  25.229   1.708
96438W        W61665  11.153  37.912  11.033
96439W        W61666  34.310  37.789   2.216
96440W        W61667  11.644  28.185   0.710
96441W        W61668  36.846  29.651   1.827
96442W        W61669   9.624  16.422   5.116
96443W        W61670  26.943  16.287   4.540
96444W        W61671  16.240  18.163   3.319
96445W        W61672  23.857  39.220   3.668
96446W        W61673  32.563  43.567   0.263
96447W        W61674  42.317   7.727  11.654
96448W        W61675  12.771   4.646   2.942
96449W        W61676   5.930  11.036  11.717
96450W        W61677  39.477  12.587  11.101
96451W        W61678  42.810   7.349   4.061
96452W        W61679  24.503  29.491  12.926
96453W        W61680  40.458   4.529  12.421
96454W        W61681  16.614  44.327   2.633
96455W        W61682  21.352   5.512  10.507
96456W        W61683   0.849  42.940   9.894
96457W        W61684  13.910   6.374  13.866
96458W        W61685   5.643  39.017   2.890
96459W        W61686  29.961  37.096  12.056
96460W        W61687  44.501   9.130   1.428
96461W        W61688   2.188  38.072   0.902
96462W        W61689  13.375  42.907  11.211
96463W        W61690  39.995  41.065  11.714
96464W        W61691  11.474  13.729  11.667
96465W        W61692  13.136  24.859  12.175
96466W        W61693  29.530   9.626  11.488
96467W        W61694  26.436  22.718  10.682
96468W        W61695  32.637  31.672   2.129
96469W        W61696  32.679  29.454   2.329
96470W        W61697   8.383  25.266  10.729
96471W        W61698  38.243  38.777  10.203
96472W        W61699  22.795  31.467  12.566
96473W        W61700   4.386  36.806   4.534
96474W        W61701  40.970  39.316  11.956
96475W        W61702   7.687  37.863   2.805
96476W        W61703  37.664  20.240  12.642
96477W        W61704  44.478  34.772   3.688
96478W        W61705  30.484  31.875  11.497
96479W        W61706  44.358  31.352   3.834
96480W        W61707  39.150   6.144  11.732
96481W        W61708  20.955  32.416   1.064
96482W        W61709  14.682   9.975  14.867
96483W        W61710   9.950   2.749   2.611
96484W        W61711  27.465  33.633  11.998
96485W        W61712   9.166  36.316  11.170
96486W        W61713  19.548  35.506  12.817
96487W        W61714  27.517  14.801   3.653
96488W        W61715  12.396   4.878   2.148
96489W        W61716  25.661  12.904   2.230
96490W        W61717  14.124   4.146  14.004
96491W        W61718  14.303   6.422  14.951
96492W        W61719  30.689  13.984  14.693
96493W        W61720   5.288   3.635  12.508
96494W        W61721  35.293  12.751   0.807
96495W        W61722  23.063  20.684  14.452
96496W        W61723  25.961  28.133  13.964
96497W        W61724  13.713  16.682  14.322
96498W        W61725  13.689  26.595   3.593
96499W        W61726  20.364  33.927  12.081
96500W        W61727  26.503  26.939   3.575
96501W        W61728   2.026   6.461  12.040
96502W        W61729  19.288  39.946  10.769
96503W        W61730  39.868   9.940  10.815
96504W        W61731  17.080  38.216  11.861
96505W        W61732   3.485  16.112  13.524
96506W        W61733   2.471  43.058   3.193
96507W        W61734  12.069  15.604  11.512
96508W        W61735  14.743  30.281   0.839
96509W        W61736  39.834  28.921  14.516
96510W        W61737  12.389  29.692   3.233
96511W        W61738  21.681  26.136   1.344
96512W        W61739  17.404  26.537   1.198
96513W        W61740   3.768  23.024   2.373
96514W        W61741   3.894  40.532  13.346
96515W        W61742  39.697  42.525  10.862
96516W        W61743  30.024  34.707   3.512
96517W        W61744  44.408  29.905  12.822
96518W        W61745   3.892  14.702  12.501
96519W        W61746  15.311  29.691   2.165
96520W        W61747  15.379   9.485   1.352
96521W        W61748  44.961  40.614  13.873
96522W        W61749  21.828  22.476  11.526
96523W        W61750   1.425  31.315   2.107
96524W        W61751  33.090  43.037   4.211
96525W        W61752  33.427   1.528   1.102
96526W        W61753  20.965  11.018  14.018
96527W        W61754  38.876  33.936  12.443
96528W        W61755  10.485  15.368   0.093
96529W        W61756  18.518  10.591  14.250
96530W        W61757  24.045  27.381   4.137
96531W        W61758  14.845  26.942   4.832
96532W        W61759   6.962  27.354   1.249
96533W        W61760  18.266   0.855   0.878
96534W        W61761  22.081  10.078   0.385
96535W        W61762  20.993   8.798   2.678
96536W        W61763   5.423  41.441   3.269
96537W        W61764  29.011  38.326  13.059
96538W        W61765  30.060  25.697  10.261
96539W        W61766  23.010  20.677   1.636
96540W        W61767  12.950  39.795   4.421
96541W        W61768  44.476   8.703  13.899
96542W        W61769  38.359  37.111  11.996
96543W        W61770  32.554  41.107  12.061
96544W        W61771  44.936  31.883   0.399
96545W        W61772  17.935   3.986  12.037
96546W        W61773  31.540  13.928  10.799
96547W        W61774  34.540  40.425   3.107
96548W        W61775   3.546   9.354  14.301
96549W        W61776  35.369  23.500   1.904
96550W        W61777   1.410  22.580  14.696
96551W        W61778  20.120  44.771  12.971
96552W        W61779  27.629  18.600  11.598
96553W        W61780  29.679  44.694  12.153
96554W        W61781  37.962   3.009   3.262
96555W        W61782  44.880  39.352  12.221
96556W        W61783  34.024  32.133   2.707
96557W        W61784   1.893   4.376   4.583
96558W        W61785   2.768  24.632   2.640
96559W        W61786  43.293  26.826  10.843
96560W        W61787   1.976  17.345   1.149
96561W        W61788  23.094  14.548   2.537
96562W        W61789  15.534  44.910   1.817
96563W        W61790  10.096  20.870   9.911
96564W        W61791  10.800  42.846  13.865
96565W        W61792   5.867  15.654   3.183
96566W        W61793  21.633  40.432  12.796
96567W        W61794   2.986  25.582   3.619
96568W        W61795  28.870  43.358   2.360
96569W        W61796  15.568  25.165   4.058
96570W        W61797  38.718  41.957   2.800
96571W        W61798   3.289   1.815   3.895
96572W        W61799   9.759  13.161   0.838
96573W        W61800   7.435  14.361   1.805
96574W        W61801  17.772  37.846   2.853
96575W        W61802  33.512  34.722   0.485
96576W        W61803  37.725  23.301  11.070
96577W        W61804  29.549  16.399   2.318
96578W        W61805  18.235   0.285  14.757
96579W        W61806  17.925  24.156   2.425
96580W        W61807  36.011  25.880  13.926
96581W        W61808   7.548  26.135  11.378
96582W        W61809  15.369   6.141   0.766
96583W        W61810   5.150  20.755   3.603
96584W        W61811   5.510  33.663   2.246
96585W        W61812  12.632  27.533   0.883
96586W        W61813  18.572   4.705   4.612
96587W        W61814   4.020  42.784  12.421
96588W        W61815  21.798   3.412   0.722
96589W        W61816  34.047  24.608   0.340
96590W        W61817  37.968  35.575  13.961
96591W        W61818   9.858  34.931   2.772
96592W        W61819   7.309  44.997   2.380
96593W        W61820  32.482   0.834   0.464
96594W        W61821  26.716  24.958   2.724
96595W        W61822  35.064   1.940   1.234
96596W        W61823  24.151  26.674  12.107
96597W        W61824  34.396  28.018  13.290
96598W        W61825  20.511  32.265   1.292
96599W        W61826  36.375  41.189  10.454
96600W        W61827  22.114  25.685  11.660
96601W        W61828  44.615   0.397   2.503
96602W        W61829   6.099   9.112  13.907
96603W        W61830   1.310  43.878   0.929
96604W        W61831  42.126  28.166   2.589
96605W        W61832  37.498  20.444  14.873
96606W        W61833  30.631   0.799  14.504
96607W        W61834   8.422  40.833  11.177
96608W        W61835  29.953  24.452  12.062
96609W        W61836   9.161   6.129   2.815
96610W        W61837  17.129   9.866   3.373
96611W        W61838  27.084  19.710  14.206
96612W        W61839   0.560   4.433   0.837
96613W        W61840  11.829  22.106   2.157
96614W        W61841  10.837   0.989   1.598
96615W        W61842   1.220   2.116  12.060
96616W        W61843   5.245  18.230   2.845
96617W        W61844  44.854  14.605  14.801
96618W        W61845  11.752  36.509   1.230
96619W        W61846  26.644  26.449  14.105
96620W        W61847  31.479  22.076  11.218
96621W        W61848  23.160  21.363  13.466
96622W        W61849  17.223   1.724  14.341
96623W        W61850  30.084  28.310  13.023
96624W        W61851  35.617  44.899  12.443
96625W        W61852   6.136  19.572  12.961
96626W        W61853   4.613  14.888  10.777
96627W        W61854   3.779  27.537   2.638
96628W        W61855  43.883  39.633  11.643
96629W        W61856  35.494   4.298   1.354
96630W        W61857  42.990  36.439   2.725
96631W        W61858  44.836  15.590  14.897
96632W        W61859  42.329  16.201   1.492
96633W        W61860   9.856   6.942  14.339
96634W        W61861  28.609  18.316   2.166
96635W        W61862  38.977  21.540  13.931
96636W        W61863  37.954  34.658  14.002
96637W        W61864  12.608  41.787  11.205
96638W        W61865   4.936  28.524   3.157
96639W        W61866  16.217   1.373   0.323
96640W        W61867   9.948   7.473  12.994
96641W        W61868  18.322  21.438   3.642
96642W        W61869  14.580  28.941  14.951
96643W        W61870  31.963  34.862   1.619
96644W        W61871  20.655   0.490  12.794
96645W        W61872  30.841  22.121  11.258
96646W        W61873  29.326  39.122  14.303
96647W        W61874  10.250  22.918   2.590
96648W        W61875  15.295   3.756  12.157
96649W        W61876  25.717  23.109  11.613
96650W        W61877  31.556   7.640  13.858
96651W        W61878  31.147  24.804  11.713
96652W        W61879  12.446  42.289  14.215
96653W        W61880  26.584   3.839   2.600
96654W        W61881   4.909  44.951  13.401
96655W        W61882  41.019  24.462  12.479
96656W        W61883  39.591  14.957  13.472
96657W        W61884   7.266  44.485   2.387
96658W        W61885   8.797  13.863   2.118
96659W        W61886  30.499  23.248  11.634
96660W        W61887  16.409   2.875   1.749
96661W        W61888  34.035   4.158   3.090
96662W        W61889  35.939   9.150  11.165
96663W        W61890  14.030  10.767  10.742
96664W        W61891  13.229  29.632  12.346
96665W        W61892  35.529  35.505   4.216
96666W        W61893  15.509   6.393   1.788
96667W        W61894  27.052   7.776   4.371
96668W        W61895  24.756  24.151   4.041
96669W        W61896  40.408  35.603   3.067
96670W        W61897  17.227  33.897   4.351
96671W        W61898   9.146  32.439   4.212
96672W        W61899  12.078  10.592   0.715
96673W        W61900   5.352  41.882   0.310
96674W        W61901  41.911  15.844   1.902
96675W        W61902  32.813  29.610  13.894
96676W        W61903  16.706  37.361  11.388
96677W        W61904  34.018  37.592   2.629
96678W        W61905  42.509   5.331  14.259
96679W        W61906  12.621  14.869  11.976
96680W        W61907   4.288  42.499   2.336
96681W        W61908   8.349  33.993   1.315
96682W        W61909  29.237  35.267  13.142
96683W        W61910  31.672  41.394   1.198
96684W        W61911  37.651  22.072   2.226
96685W        W61912  14.278  22.736  12.854
96686W        W61913  41.531  37.336   4.305
96687W        W61914  16.638  34.417  12.348
96688W        W61915  34.297  26.850  12.848
96689W        W61916  43.528  15.759  13.042
96690W        W61917  41.060  37.904   2.728
96691W        W61918  27.638  34.580  14.324
96692W        W61919  37.094  42.996   3.164
96693W        W61920  30.926   9.665  12.591
96694W        W61921   4.290   2.168   0.805
96695W        W61922   6.344  35.468   1.474
96696W        W61923  36.343  33.951  11.041
96697W        W61924  10.767   1.228   4.367
96698W        W61925  30.993  40.523  13.074
96699W        W61926  16.232  13.003   1.409
96700W        W61927   2.802   2.987  10.263
96701W        W61928   5.462   3.823  14.314
96702W        W61929  32.065  31.319  11.582
96703W        W61930  21.456  30.198  12.232
96704W        W61931   0.978  36.142   4.522
96705W        W61932   5.250  40.996   4.187
96706W        W61933  44.466   6.764   3.094
96707W        W61934  23.853  13.057   3.265
96708W        W61935  38.573  18.709   4.127
96709W        W61936   6.115  36.024   5.338
96710W        W61937  37.536  15.633   1.161
96711W        W61938   9.116  18.185   0.924
96712W        W61939  39.949  35.638  12.911
96713W        W61940  23.726  30.104  14.507
96714W        W61941  15.129  20.050  10.691
96715W        W61942  39.566   6.312   1.793
96716W        W61943  34.549   7.933   4.477
96717W        W61944  12.692  36.520  13.902
96718W        W61945  32.071  22.305  11.076
96719W        W61946  10.895  22.738  10.650
96720W        W61947  42.683  37.243  11.142
96721W        W61948  21.101  19.558  12.356
96722W        W61949  15.697  11.593  12.918
96723W        W61950   1.363   1.495   3.945
96724W        W61951  34.888  36.440   5.639
96725W        W61952  43.061   9.336  11.330
96726W        W61953  31.959  20.248  11.492
96727W        W61954   2.956  21.091   5.017
96728W        W61955   9.307  35.545  11.627
96729W        W61956  34.041   7.506  14.394
96730W        W61957  39.851  29.204   1.012
96731W        W61958  10.250   7.961   1.761
96732W        W61959  31.681  33.014  14.001
96733W        W61960   2.085  16.131   1.301
96734W        W61961  10.237  35.954   0.447
96735W        W61962  20.900  30.760  13.521
96736W        W61963  36.894  33.073   0.453
96737W        W61964  44.576   3.446  10.722
96738W        W61965  43.856  32.309   2.622
96739W        W61966  43.452  38.592  10.648
96740W        W61967   9.462   2.748   2.446
96741W        W61968  11.287  25.634   3.250
96742W        W61969  39.427   3.170  14.821
96743W        W61970  15.513  20.290   4.129
96744W        W61971  37.341  10.628  14.485
96745W        W61972  11.167   9.718  13.764
96746W        W61973  14.319  14.110   0.780
96747W        W61974  31.390   9.593   4.616
96748W        W61975   4.187  32.732  12.040
96749W        W61976  43.370  29.513  14.084
96750W        W61977  20.049  16.471  11.414
96751W        W61978  33.270  28.766   1.909
96752W        W61979  22.997  10.532  11.464
96753W        W61980  17.596   4.254   2.616
96754W        W61981  32.339  32.991   4.821
96755W        W61982  29.910  41.467  10.442
96756W        W61983  41.781  11.820   0.213
96757W        W61984  11.513   3.288  12.843
96758W        W61985  29.218   0.414  14.011
96759W        W61986  38.898   9.176   1.951
96760W        W61987   1.969  12.548  12.813
96761W        W61988  21.688   4.372   4.051
96762W        W61989  17.330  32.894   3.367
96763W        W61990   8.175  33.456   2.409
96764W        W61991   3.019  40.634  13.453
96765W        W61992  35.028  36.824  11.436
96766W        W61993  22.043   7.688   0.392
96767W        W61994  36.564  11.357  14.479
96768W        W61995  21.772  10.618   2.689
96769W        W61996  18.626  21.091   3.941
96770W        W61997  12.876  14.717  11.562
96771W        W61998  18.805  42.230  11.679
96772W        W61999  30.873   7.379  11.751
96773W        W62000   8.763  28.853   0.364
96774W        W62001  44.386   9.857  12.943
96775W        W62002  21.682  15.365   3.735
96776W        W62003  14.675  36.415   4.613
96777W        W62004   2.199   8.194  14.770
96778W        W62005  44.434  42.017  12.463
96779W        W62006  23.872   2.920   1.806
96780W        W62007  37.012  44.742  13.639
96781W        W62008  11.101  41.877  14.412
96782W        W62009  19.359  11.589   4.080
96783W        W62010  33.003  43.822  12.505
96784W        W62011  29.474  18.552  12.055
96785W        W62012  21.179  30.721   4.306
96786W        W62013   6.858   6.360   1.664
96787W        W62014  39.291  31.183   5.028
96788W        W62015  25.439  29.047  13.857
96789W        W62016  17.082   8.638  14.769
96790W        W62017  27.526  15.681   4.998
96791W        W62018   2.355  43.208  13.820
96792W        W62019   6.331  18.885  14.755
96793W        W62020  27.517  23.919  12.576
96794W        W62021  44.385  43.734  13.923
96795W        W62022   6.876  31.058  14.287
96796W        W62023  23.395  44.259   4.149
96797W        W62024  15.671   4.112   0.953
96798W        W62025  25.235   9.626   3.580
96799W        W62026  37.893  40.924  14.970
96800W        W62027  43.662   5.415  13.498
96801W        W62028  38.108  25.065  10.957
96802W        W62029  11.618  38.444  12.565
96803W        W62030  24.612  41.950   3.515
96804W        W62031  23.089  13.680  10.759
96805W        W62032  33.548   6.998  13.942
96806W        W62033  19.629  35.368  12.324
96807W        W62034  40.582  41.777   3.262
96808W        W62035  24.136  21.222  14.999
96809W        W62036  35.834  41.556   3.673
96810W        W62037  35.078  10.085  13.202
96811W        W62038  42.404   5.005  10.698
96812W        W62039  43.415  36.307   0.621
96813W        W62040  27.509  26.138  11.169
96814W        W62041  24.128   1.292   4.361
96815W        W62042   3.331  33.984   2.750
96816W        W62043  12.330  11.866  12.390
96817W        W62044  10.820  35.618  12.924
96818W        W62045  43.287  11.723   2.760
96819W        W62046  13.603  39.543  12.091
96820W        W62047  21.557  24.767  10.844
96821W        W62048   5.816  34.065   0.943
96822W        W62049  33.858  33.920  12.088
96823W        W62050  17.808  29.631   3.279
96824W        W62051  40.033  21.990  13.955
96825W        W62052  41.199  21.842  13.568
96826W        W62053  37.618   3.413  14.928
96827W        W62054   4.941  23.844   0.019
96828W        W62055  15.377  25.605  10.464
96829W        W62056  30.752  16.587  12.343
96830W        W62057  14.582  22.798   3.379
96831W        W62058  42.880  20.232   0.272
96832W        W62059  20.996   2.266  14.167
96833W        W62060  14.155  32.928  12.682
96834W        W62061  43.767  41.881   0.323
96835W        W62062  25.079  11.980  11.685
96836W        W62063   0.967  38.824   2.592
96837W        W62064  34.857  25.298  11.256
96838W        W62065  23.893   7.915   3.177
96839W        W62066  44.677  18.754   0.305
96840W        W62067  19.629  18.810  12.036
96841W        W62068  44.368  39.974  13.647
96842W        W62069   3.733  30.862   4.147
96843W        W62070  24.543  13.290  12.617
96844W        W62071  31.708   8.860  13.871
96845W        W62072  31.509  26.042   2.564
96846W        W62073  27.542  41.931  11.714
96847W        W62074  44.727  15.267  12.465
96848W        W62075  19.243   1.918   4.532
96849W        W62076  25.971  14.704  11.088
96850W        W62077  40.798  22.245  12.560
96851W        W62078  25.190  33.617   1.653
96852W        W62079  30.827   5.836   2.783
96853W        W62080  16.723  33.083  14.006
96854W        W62081  31.488   9.478   1.759
96855W        W62082  31.283  44.921  10.789
96856W        W62083  36.077   0.445  13.972
96857W        W62084  20.542  39.801   3.322
96858W        W62085  17.648  32.604   3.927
96859W        W62086  20.613  43.740  11.132
96860W        W62087   8.901  22.828  12.566
96861W        W62088  40.436   8.095  14.866
96862W        W62089  35.868  39.302  14.765
96863W        W62090   1.155   8.539   1.691
96864W        W62091  34.981  43.358   1.309
96865W        W62092  21.624  38.404   3.779
96866W        W62093   2.966   4.094  12.047
96867W        W62094  40.378  11.862  12.520
96868W        W62095  25.514   9.567   2.969
96869W        W62096  25.156  12.226  13.500
96870W        W62097  29.893   8.718   1.332
96871W        W62098  25.141  32.319  14.343
96872W        W62099  28.288  38.321  11.177
96873W        W62100  28.585  11.919  12.329
96874W        W62101  25.533   4.864  11.538
96875W        W62102  29.227  30.153  11.106
96876W        W62103   9.117  34.839  10.976
96877W        W62104   0.944   6.838   3.194
96878W        W62105  33.128   9.732  11.026
96879W        W62106  30.691  33.737  10.579
96880W        W62107  34.964  35.853  14.240
96881W        W62108   6.500   0.940  12.702
96882W        W62109  29.218   6.566   2.424
96883W        W62110  39.480  17.514  11.580
96884W        W62111  24.939  28.079  13.756
96885W        W62112  14.984  37.360   0.036
96886W        W62113  13.512  40.069  10.978
96887W        W62114  43.446  14.695   3.089
96888W        W62115  14.249  12.277  14.414
96889W        W62116   3.355   5.243   0.830
96890W        W62117  22.908  41.475  10.327
96891W        W62118   8.609  25.570   4.362
96892W        W62119  28.929  12.196  11.019
96893W        W62120  34.505  44.954   2.989
96894W        W62121   6.662  14.469  10.806
96895W        W62122  10.235  19.653  10.446
96896W        W62123  43.633  10.956   0.975
96897W        W62124  16.545  34.947   0.812
96898W        W62125  23.157  37.321  14.857
96899W        W62126  14.770  43.329  13.947
96900W        W62127  19.696   6.944   4.824
96901W        W62128   9.330  21.019   4.533
96902W        W62129  44.336  39.888   2.174
96903W        W62130  42.763  10.153  13.927
96904W        W62131   1.525   2.310  12.427
96905W        W62132  12.912  12.805   0.796
96906W        W62133  24.102  42.522   3.202
96907W        W62134   1.910  19.489  12.661
96908W        W62135  37.402  22.346   3.459
96909W        W62136  20.541  34.937  13.289
96910W        W62137   1.177   5.334  11.209
96911W        W62138  14.005  14.231  12.989
96912W        W62139  42.015  31.445   3.561
96913W        W62140  24.927  19.263  14.937
96914W        W62141  36.117  13.637   4.704
96915W        W62142  21.758  41.574  14.097
96916W        W62143  40.110   7.486   5.481
96917W        W62144   4.082  40.875  12.611
96918W        W62145  23.294  37.601  13.849
96919W        W62146   1.572  34.154  10.847
96920W        W62147  23.305  14.691   2.103
96921W        W62148  15.207   2.895   0.325
96922W        W62149  24.121  26.218  11.788
96923W        W62150  42.619  27.432  13.008
96924W        W62151  14.240  19.170   0.329
96925W        W62152  32.438  20.364  12.141
96926W        W62153  11.367  27.021   2.770
96927W        W62154  41.942   4.909   2.407
96928W        W62155  15.255  39.971  12.942
96929W        W62156  27.215  17.223  11.566
96930W        W62157  34.376   4.408   2.364
96931W        W62158  21.790  13.433  11.668
96932W        W62159  18.140  11.900   4.712
96933W        W62160  21.268  33.914   3.210
96934W        W62161   6.674  39.839  13.568
96935W        W62162  15.638  30.248   4.142
96936W        W62163   7.425  10.362   2.322
96937W        W62164  30.740  18.788  13.575
96938W        W62165  34.100  15.655  14.382
96939W        W62166  41.783  43.371  14.851
96940W        W62167   0.169  20.097   0.271
96941W        W62168  12.136  29.480   3.616
96942W        W62169  25.158   1.499  13.511
96943W        W62170  22.951   5.402   4.354
96944W        W62171  35.081  22.271  13.024
96945W        W62172   8.325  36.659  12.426
96946W        W62173  15.356  32.013  12.364
96947W        W62174   8.233  16.505   3.540
96948W        W62175   8.703   9.954  11.616
96949W        W62176  33.468  32.178  12.938
96950W        W62177  35.298  30.822  12.010
96951W        W62178  19.716  40.009   3.607
96952W        W62179  36.270  34.951  12.966
96953W        W62180  22.706  31.446   2.459
96954W        W62181  36.639  25.622   4.625
96955W        W62182  34.449  38.504  11.499
96956W        W62183  36.522  17.235   4.049
96957W        W62184  40.575  20.100   1.887
96958W        W62185   5.974  31.093   2.296
96959W        W62186  31.049  26.721  11.607
96960W        W62187  38.280   4.848   5.083
96961W        W62188  13.171  37.033   2.277
96962W        W62189  28.901  10.195  13.981
96963W        W62190  28.988  43.052  11.086
96964W        W62191   5.221  28.419  12.918
96965W        W62192   1.925  34.882  14.312
96966W        W62193  36.738  18.783  14.599
96967W        W62194  12.550  12.709   2.173
96968W        W62195  15.831  19.111  13.945
96969W        W62196  34.496   9.317   1.243
96970W        W62197  12.463  33.181  11.551
96971W        W62198  31.921  14.183   1.242
96972W        W62199  37.075   4.683   4.989
96973W        W62200  36.449  34.094   1.094
96974W        W62201  34.770  26.447  14.449
96975W        W62202   1.068  37.147   2.881
96976W        W62203  19.406  20.425  14.827
96977W        W62204   8.346  22.729  13.323
96978W        W62205   8.116  35.358   0.481
96979W        W62206   6.197  16.737   2.769
96980W        W62207   8.724  37.172  10.756
96981W        W62208  32.692  16.541   3.653
96982W        W62209  36.432  29.045  14.316
96983W        W62210  39.735  31.623  13.561
96984W        W62211  39.758  41.138   1.815
96985W        W62212   3.149  19.548  10.348
96986W        W62213   5.681  18.578  10.240
96987W        W62214   4.309  43.597   3.065
96988W        W62215  32.875  34.349  12.855
96989W        W62216   9.832  10.693   2.251
96990W        W62217  14.198  33.466   1.400
96991W        W62218   9.395  44.388  11.546
96992W        W62219  20.094  26.896   1.291
96993W        W62220  39.521   8.630   9.845
96994W        W62221  38.454   5.370  12.300
96995W        W62222  26.471  24.092   0.182
96996W        W62223   5.768  25.504  12.866
96997W        W62224   2.615  27.711  14.354
96998W        W62225   8.470  39.626  12.496
96999W        W62226  23.971  12.212   0.796
97000W        W62227  11.279   5.751   1.507
97001W        W62228  14.500  22.546  12.000
97002W        W62229   5.956  24.077  14.457
97003W        W62230  32.405  12.715   1.933
97004W        W62231  21.308  28.934  11.061
97005W        W62232  34.155  21.581  11.441
97006W        W62233  27.089  18.637   4.702
97007W        W62234   7.625  41.217  11.143
97008W        W62235   3.941  27.017  12.499
97009W        W62236  44.396  26.110  12.488
97010W        W62237   0.327  10.941  13.560
97011W        W62238  16.268  25.051  11.556
97012W        W62239   3.762  13.857   2.334
97013W        W62240  11.341  36.920  12.717
97014W        W62241  33.694  36.574  11.677
97015W        W62242  10.623  20.660  12.132
97016W        W62243  16.288   6.524   2.778
97017W        W62244   0.263  26.611  11.723
97018W        W62245  44.382  44.188   5.180
97019W        W62246  16.146  16.041  11.040
97020W        W62247  10.732  43.222   1.577
97021W        W62248  39.624  22.687  11.265
97022W        W62249  25.007  36.402   1.457
97023W        W62250  21.078  31.663   0.209
97024W        W62251  33.083  39.465  12.424
97025W        W62252   1.952  38.857  12.827
97026W        W62253  25.663  43.379  13.317
97027W        W62254  44.401  27.649   1.694
97028W        W62255   2.740   8.836   3.763
97029W        W62256  17.949   5.719  11.418
97030W        W62257  20.466  41.370   0.483
97031W        W62258  33.568  16.947  10.172
97032W        W62259  12.426  23.270  11.141
97033W        W62260  12.637  43.444  13.552
97034W        W62261  10.350   3.035   2.366
97035W        W62262  27.980  33.619  12.220
97036W        W62263   9.923  30.973  10.454
97037W        W62264   4.941  21.027   0.399
97038W        W62265   6.444  42.550   3.199
97039W        W62266  36.341  17.679  14.513
97040W        W62267  42.021  44.330  13.064
97041W        W62268   3.556  29.798  13.393
97042W        W62269   1.597  25.145  14.464
97043W        W62270  10.395  10.909  11.181
97044W        W62271   5.296  13.072   3.937
97045W        W62272  19.129  41.505   0.701
97046W        W62273  15.666  37.188  10.075
97047W        W62274  21.537  25.601   1.732
97048W        W62275  29.030  19.727   0.514
97049W        W62276  33.772  32.116   0.443
97050W        W62277  19.133   2.070   2.189
97051W        W62278   6.818  16.630  10.300
97052W        W62279  37.468  37.642  11.047
97053W        W62280  28.436  38.882   1.481
97054W        W62281  44.773   5.486   2.845
97055W        W62282  40.869  17.586  14.688
97056W        W62283   6.230   6.073  11.689
97057W        W62284  40.321   0.530  12.417
97058W        W62285  39.231   5.154   4.786
97059W        W62286  19.154  31.248   0.804
97060W        W62287  30.107   4.862  12.098
97061W        W62288  31.678  31.955   3.358
97062W        W62289  18.198   6.361  13.875
97063W        W62290  23.200  10.893   4.049
97064W        W62291  40.957  35.124   4.785
97065W        W62292   8.595  30.480   1.878
97066W        W62293  40.315  13.034   1.880
97067W        W62294  18.625  30.555  13.759
97068W        W62295   5.174  23.737  12.573
97069W        W62296   9.451  11.963  10.039
97070W        W62297  17.098  21.089  12.417
97071W        W62298  16.660  33.822  14.960
97072W        W62299  27.079  17.597   3.651
97073W        W62300   8.930  17.522   0.780
97074W        W62301  22.165  35.910  12.882
97075W        W62302  14.046  16.791  11.617
97076W        W62303  27.080  40.370   2.794
97077W        W62304  38.629  23.702  10.542
97078W        W62305  11.339  10.048  14.431
97079W        W62306  42.030  33.479   0.725
97080W        W62307  34.013  40.868   1.901
97081W        W62308  13.180   8.223   0.505
97082W        W62309  42.615  12.133   4.171
97083W        W62310   7.795  26.118  14.823
97084W        W62311  22.616   9.731  11.245
97085W        W62312  34.725   8.039   0.498
97086W        W62313  29.952  18.704   3.154
97087W        W62314  15.848  32.556   2.340
97088W        W62315   4.264  28.893  11.909
97089W        W62316  25.743  40.937   1.285
97090W        W62317  42.559   4.214  11.127
97091W        W62318  12.634  33.710   4.437
97092W        W62319  22.961  20.547   2.808
97093W        W62320   3.478  22.519  10.038
97094W        W62321  32.835  33.793  14.988
97095W        W62322  35.641  26.681  14.115
97096W        W62323  21.772  24.215   1.876
97097W        W62324  42.871  22.202  13.054
97098W        W62325   5.862  43.573   0.941
97099W        W62326  18.570  43.249   2.361
97100W        W62327   0.918   1.727  11.979
97101W        W62328  15.819  35.510   1.216
97102W        W62329  11.730  16.981  10.716
97103W        W62330  10.936   0.317  13.867
97104W        W62331   0.175  18.528   4.102
97105W        W62332  35.098  41.198   2.403
97106W        W62333  27.644  31.101   4.366
97107W        W62334  13.263  44.209  14.995
97108W        W62335  21.126  27.300  10.422
97109W        W62336  14.108   2.738   2.250
97110W        W62337  30.705  33.041  12.671
97111W        W62338  21.650  34.820   4.851
97112W        W62339   7.340  29.565  12.426
97113W        W62340  31.828  44.739  12.508
97114W        W62341  18.567  26.985  10.827
97115W        W62342  15.689   1.060  11.156
97116W        W62343  43.178  30.446  12.446
97117W        W62344  26.442  21.162  13.135
97118W        W62345  41.128  31.644  14.921
97119W        W62346  17.842  31.087  14.509
97120W        W62347  39.766   6.278   3.631
97121W        W62348   0.237  34.989   3.322
97122W        W62349  42.661  43.508  12.616
97123W        W62350  43.596  26.524  11.589
97124W        W62351  44.096  40.568  12.694
97125W        W62352  19.628   7.556  13.860
97126W        W62353   7.862   7.321  10.892
97127W        W62354  21.295  31.020  11.399
97128W        W62355  23.685  36.841   1.027
97129W        W62356  25.714  35.586   1.390
97130W        W62357  33.919   4.225  14.858
97131W        W62358   6.926  37.752   4.132
97132W        W62359  44.011   7.636  14.327
97133W        W62360   0.564  33.782   3.968
97134W        W62361   9.783  25.265   0.307
97135W        W62362  41.226  36.507   3.754
97136W        W62363  38.757  14.619   9.706
97137W        W62364  17.096  35.003   2.920
97138W        W62365  38.000  38.869   0.216
97139W        W62366  44.768  38.537  10.415
97140W        W62367  44.845   3.129  11.010
97141W        W62368  14.595  32.081  12.893
97142W        W62369  40.326  38.405   0.519
97143W        W62370  17.116  43.407  13.807
97144W        W62371  25.219   4.901   1.372
97145W        W62372   6.448  12.326   2.244
97146W        W62373  29.078  29.336  13.822
97147W        W62374  26.377  12.392   4.533
97148W        W62375   2.701  29.919   3.673
97149W        W62376  38.865  30.921  10.361
97150W        W62377  30.131  34.637   1.253
97151W        W62378  23.433   3.965   0.894
97152W        W62379  42.524   2.890   4.183
97153W        W62380  39.990  32.164  11.116
97154W        W62381  19.293   7.943  13.999
97155W        W62382  11.191   6.785   3.659
97156W        W62383   9.615   1.505   3.103
97157W        W62384  44.840   7.897  14.176
97158W        W62385  25.180  23.497  13.864
97159W        W62386  32.926   3.652   3.664
97160W        W62387  40.320  20.630  12.121
97161W        W62388   8.427   1.669   3.682
97162W        W62389  42.283  41.643   4.052
97163W        W62390  35.749  23.688  14.088
97164W        W62391   8.357  33.141   1.609
97165W        W62392  29.583  30.677   2.194
97166W        W62393  34.146  28.430  13.919
97167W        W62394  18.756  14.180  11.247
97168W        W62395  34.946  28.779  13.336
97169W        W62396  36.061  44.256   0.306
97170W        W62397   2.181  41.553   2.738
97171W        W62398  32.739  12.707   1.529
97172W        W62399  44.308   4.548  14.449
97173W        W62400  22.834  26.145  11.231
97174W        W62401  13.416  43.822  13.025
97175W        W62402  42.971  20.718   0.103
97176W        W62403  44.081  15.854  14.323
97177W        W62404  23.330  29.663  11.932
97178W        W62405  37.660  36.043  13.800
97179W        W62406  17.095  38.170  11.199
97180W        W62407   7.856  27.704   0.354
97181W        W62408  37.405   6.782  11.545
97182W        W62409   8.600  39.909  13.536
97183W        W62410   9.671  14.563  14.871
97184W        W62411  28.527  11.863  12.832
97185W        W62412  32.733  11.556  14.566
97186W        W62413   8.793  31.566  13.069
97187W        W62414  41.871  17.146  13.643
97188W        W62415  27.405  19.128  12.514
97189W        W62416  10.665   0.344   2.863
97190W        W62417  34.025  31.451   1.776
97191W        W62418   6.600  37.485  11.499
97192W        W62419  36.117  43.008   1.914
97193W        W62420  18.834  30.083   3.660
97194W        W62421   7.170  11.763   0.307
97195W        W62422  40.596  19.123   3.749
97196W        W62423  27.038  36.305   2.695
97197W        W62424  16.333  27.528  11.967
97198W        W62425   8.151  12.169  14.043
97199W        W62426  34.811   2.692  11.089
97200W        W62427  25.692   1.252   1.636
97201W        W62428   9.215  18.724   1.707
97202W        W62429  27.461  44.468   0.088
97203W        W62430  31.143   5.288   1.408
97204W        W62431  35.550  44.045   0.347
97205W        W62432  41.249  21.275  13.771
97206W        W62433   5.745  16.878  11.625
97207W        W62434  26.599  33.105  12.218
97208W        W62435  21.477   9.984  14.412
97209W        W62436  23.211  23.169  13.915
97210W        W62437  19.334  24.916  10.949
97211W        W62438  17.049  42.503   3.592
97212W        W62439  34.764  39.425   0.609
97213W        W62440  27.267  11.462  13.995
97214W        W62441  21.499  38.970  11.545
97215W        W62442  39.055  37.275   3.673
97216W        W62443  28.628   7.662   4.601
97217W        W62444  10.132   4.295   3.817
97218W        W62445  11.740  25.919   3.294
97219W        W62446  22.094   1.041  13.419
97220W        W62447  31.827  22.707   3.305
97221W        W62448   2.014  24.762  12.046
97222W        W62449  10.137  18.547   1.816
97223W        W62450  39.940   6.674  12.127
97224W        W62451  29.959   2.918   4.599
97225W        W62452  41.824  26.993   2.711
97226W        W62453  18.151  27.567   1.990
97227W        W62454  10.411  42.931   0.015
97228W        W62455   1.436  27.914  12.507
97229W        W62456  44.285  41.726   4.576
97230W        W62457   8.659  24.196   2.788
97231W        W62458  37.670  20.695  12.315
97232W        W62459  26.052   8.762   5.342
97233W        W62460   5.705   8.787   3.329
97234W        W62461  36.512  11.066  12.042
97235W        W62462   5.374  39.504   4.028
97236W        W62463  44.727   4.531  11.404
97237W        W62464   1.107  28.671   4.027
97238W        W62465  32.686  20.108   0.150
97239W        W62466  10.240  25.564   3.340
97240W        W62467   8.450  33.424  12.078
97241W        W62468  44.415  38.701  13.483
97242W        W62469  24.147  28.554   3.691
97243W        W62470  12.777  21.995  14.780
97244W        W62471  10.948  22.230  11.314
97245W        W62472  11.072  10.731  12.946
97246W        W62473  24.049  22.452   1.396
97247W        W62474  35.475  22.135  13.384
97248W        W62475   7.417  38.393   4.398
97249W        W62476  31.384  41.298  14.791
97250W        W62477  37.779  27.487  14.037
97251W        W62478   9.620  14.775  14.037
97252W        W62479   5.960  18.563  12.021
97253W        W62480  16.825  33.151  12.926
97254W        W62481   2.976  22.172   2.369
97255W        W62482  36.563  10.579  12.946
97256W        W62483  14.670  30.224  11.588
97257W        W62484   5.132  15.576   4.641
97258W        W62485   7.308  13.071  11.865
97259W        W62486  21.580  10.471  11.215
97260W        W62487  13.576  42.327  11.919
97261W        W62488  32.676  32.219  11.153
97262W        W62489  27.620   2.247  11.473
97263W        W62490  15.963  39.553  13.052
97264W        W62491  19.014   9.397   3.392
97265W        W62492  24.550  22.291  10.673
97266W        W62493  32.080   1.664   1.345
97267W        W62494  34.999  10.789   4.683
97268W        W62495  29.807  13.885   2.706
97269W        W62496  27.467   3.914   0.934
97270W        W62497  32.298   2.488   3.129
97271W        W62498  32.061  18.622  14.348
97272W        W62499  13.358   5.580  11.183
97273W        W62500  34.934  22.174   2.742
97274W        W62501   9.204  24.278   3.789
97275W        W62502  25.484  21.928  14.582
97276W        W62503  40.423  22.625   3.337
97277W        W62504   0.645  17.838  14.977
97278W        W62505  31.549  37.634   0.725
97279W        W62506  26.476  19.840  10.952
97280W        W62507  29.829   4.964  12.525
97281W        W62508   2.924   2.747   3.819
97282W        W62509   1.958  13.647   0.934
97283W        W62510  28.453  41.981   1.748
97284W        W62511  16.340  23.724  11.209
97285W        W62512  28.133  14.708  11.408
97286W        W62513  29.045  40.239   1.941
97287W        W62514  33.125  16.677  13.761
97288W        W62515   9.205  41.729   2.294
97289W        W62516  10.935  38.923   1.928
97290W        W62517  44.037  13.126   3.583
97291W        W62518   4.419  41.115  14.864
97292W        W62519   0.774  44.878  14.627
97293W        W62520  22.936   3.052   0.812
97294W        W62521  41.786  32.557   4.242
97295W        W62522  16.066  35.520   4.316
97296W        W62523   6.963  31.021   1.247
97297W        W62524   7.888  40.144  12.049
97298W        W62525  38.981  25.610  11.646
97299W        W62526   6.674  30.469   3.282
97300W        W62527   9.253  14.311   4.837
97301W        W62528   8.805  24.021   3.264
97302W        W62529  42.010  36.637   4.148
97303W        W62530  20.569  12.743  13.967
97304W        W62531  38.486  19.317   2.928
97305W        W62532  30.000  39.222  13.001
97306W        W62533  23.894  36.730   2.140
97307W        W62534  34.022   5.501  10.673
97308W        W62535  16.677   6.850  12.040
97309W        W62536  40.143   2.371   1.691
97310W        W62537  42.138  18.513   4.109
97311W        W62538  13.649  34.834  12.889
97312W        W62539   9.738  23.824  10.767
97313W        W62540   0.276  40.990  11.547
97314W        W62541  26.453  24.063   1.259
97315W        W62542  34.530  10.857   1.187
97316W        W62543  18.107  36.319   2.182
97317W        W62544  42.260  35.390  11.604
97318W        W62545  42.725   5.369   2.285
97319W        W62546   1.748   5.066   3.165
97320W        W62547  28.930  38.042  11.641
97321W        W62548  22.964  14.660  14.462
97322W        W62549  33.598  33.893  13.280
97323W        W62550  40.569  37.445   4.584
97324W        W62551   8.310  10.337  12.493
97325W        W62552  38.768  22.589   4.957
97326W        W62553  28.832  14.836   4.540
97327W        W62554   5.404  33.295   1.867
97328W        W62555   2.878  23.566   1.673
97329W        W62556  44.352  42.529  12.642
97330W        W62557  38.753  24.491  12.547
97331W        W62558  14.328   2.113  11.615
97332W        W62559  44.093  19.003  10.490
97333W        W62560  43.684  30.011  10.453
97334W        W62561  43.224   9.379   0.202
97335W        W62562  15.838  43.748  11.104
97336W        W62563   3.998  20.971   1.916
97337W        W62564   4.205  31.097   3.297
97338W        W62565  17.118  31.433   0.453
97339W        W62566  23.200  18.009  14.877
97340W        W62567  17.217  37.591   2.788
97341W        W62568  15.371   3.397   0.446
97342W        W62569  30.915  31.939   2.149
97343W        W62570  42.037  12.651   0.728
97344W        W62571  14.823  11.413  12.557
97345W        W62572  41.130   3.149   1.148
97346W        W62573  41.046  13.180  13.845
97347W        W62574  22.454  14.469  13.429
97348W        W62575  12.239  19.292   3.594
97349W        W62576  36.882  43.393  14.334
97350W        W62577  21.644  13.517   0.499
97351W        W62578   1.962  32.371  11.737
97352W        W62579   8.879  25.021  13.171
97353W        W62580   7.704  42.303   3.821
97354W        W62581  25.903   9.473  12.401
97355W        W62582  28.468  22.352  14.133
97356W        W62583  14.613  29.516  13.602
97357W        W62584  43.913   3.268   1.269
97358W        W62585  26.659  15.153   4.858
97359W        W62586  26.077  38.365  10.972
97360W        W62587  35.637  15.157  13.029
97361W        W62588  19.409  35.125   4.308
97362W        W62589  24.173  24.046  14.223
97363W        W62590  26.460  11.894   4.364
97364W        W62591   8.158  20.239   2.380
97365W        W62592  31.032  29.669   2.113
97366W        W62593  12.393  19.166   3.073
97367W        W62594  39.934  22.362   4.985
97368W        W62595  20.676   5.336   3.745
97369W        W62596  19.721  29.619   2.751
97370W        W62597  40.948   6.526   0.231
97371W        W62598  19.827  14.245   0.249
97372W        W62599  38.487   0.704  13.916
97373W        W62600  15.658  33.014  10.253
97374W        W62601   9.423  31.128  14.849
97375W        W62602  38.759   7.782  11.646
97376W        W62603  24.010  21.169  13.825
97377W        W62604   1.825  36.942  12.804
97378W        W62605  25.003  25.703  10.959
97379W        W62606  38.979  39.354  10.665
97380W        W62607  32.672  26.595  13.479
97381W        W62608  31.835  21.470   1.210
97382W        W62609  22.235  28.663  12.985
97383W        W62610  29.044  33.272  11.471
97384W        W62611  19.902  43.304  12.417
97385W        W62612   6.266   3.249   2.401
97386W        W62613  11.454   7.439   2.246
97387W        W62614  26.660  25.996  14.448
97388W        W62615  31.380  37.984  13.882
97389W        W62616  15.089  32.792   0.334
97390W        W62617  42.684  18.581   1.708
97391W        W62618  36.524  39.920   3.691
97392W        W62619  34.179  27.384   5.159
97393W        W62620  22.944  10.205   4.644
97394W        W62621  20.091   3.472  10.108
97395W        W62622  31.838  29.602   2.573
97396W        W62623   1.369  26.604  11.994
97397W        W62624   0.299   2.254   1.326
97398W        W62625  40.432  43.233   2.143
97399W        W62626   9.628  25.507   0.758
97400W        W62627   4.156  13.685  13.049
97401W        W62628  12.657  24.628   2.804
97402W        W62629  39.424  29.863   0.324
97403W        W62630  24.288  44.148   0.826
97404W        W62631  33.135  14.297   3.965
97405W        W62632  39.500  12.814  10.610
97406W        W62633  26.756  17.493  11.021
97407W        W62634   5.048  44.198   4.751
97408W        W62635  44.025  19.895  11.376
97409W        W62636  22.166  14.106   0.504
97410W        W62637  37.830  36.165   1.868
97411W        W62638  32.919  43.290  12.450
97412W        W62639  35.916  33.873   2.291
97413W        W62640   6.399   8.226  14.258
97414W        W62641  44.026   9.851   3.596
97415W        W62642  15.117  29.475   2.625
97416W        W62643  41.693  34.670  13.365
97417W        W62644  22.261  32.000  14.160
97418W        W62645  11.317  32.415   1.195
97419W        W62646   0.774  39.903   4.657
97420W        W62647  37.714  11.201   0.239
97421W        W62648  44.924  23.989  10.518
97422W        W62649  28.470  25.212   3.294
97423W        W62650  19.700  10.060  14.884
97424W        W62651   9.877  44.242  11.649
97425W        W62652  38.798  40.462  14.775
97426W        W62653  12.879  18.751   2.734
97427W        W62654   7.235  20.879   0.755
97428W        W62655  20.231  21.854   0.392
97429W        W62656  31.073  33.624   4.747
97430W        W62657  23.346   6.561  11.726
97431W        W62658  20.065  25.472   0.311
97432W        W62659  38.605   9.237   3.994
97433W        W62660   4.865  43.160  12.511
97434W        W62661  36.055  23.428   3.618
97435W        W62662  13.158   9.245  13.009
97436W        W62663  39.705  10.216  13.512
97437W        W62664  18.014  21.874   3.423
97438W        W62665  28.932  34.959  12.143
97439W        W62666  26.048   1.994  14.985
97440W        W62667  41.027  14.313  14.420
97441W        W62668  20.886   4.710  10.829
97442W        W62669  14.272  12.876  12.570
97443W        W62670  26.512   1.292   3.246
97444W        W62671  27.046  13.864  11.456
97445W        W62672  22.597  13.550   3.719
97446W        W62673  42.371  15.861  12.166
97447W        W62674  29.375  14.640  12.362
97448W        W62675  44.126   9.944  12.504
97449W        W62676  17.809  42.281  13.767
97450W        W62677  30.182  14.095  14.845
97451W        W62678   9.244  10.929   3.387
97452W        W62679   3.261   6.756   0.771
97453W        W62680   6.222   4.887  13.616
97454W        W62681  33.063   2.983   1.377
97455W        W62682  33.881  40.314  13.461
97456W        W62683  36.437  39.052  13.616
97457W        W62684   6.985  36.519  14.301
97458W        W62685  19.896   8.167   3.503
97459W        W62686   9.041   0.640   5.134
97460W        W62687  34.774  42.402  11.572
97461W        W62688  36.114  23.696   0.391
97462W        W62689   2.657  22.708  10.601
97463W        W62690  15.291  30.912  13.078
97464W        W62691   9.443  24.942   5.169
97465W        W62692  13.280  29.571  11.849
97466W        W62693  12.382  27.932  14.284
97467W        W62694  39.909  32.400   4.693
97468W        W62695  34.407  12.677  12.146
97469W        W62696  39.218  31.798  14.214
97470W        W62697  26.617  26.410   1.099
97471W        W62698   8.378  43.799   3.923
97472W        W62699  22.756  36.055   1.952
97473W        W62700  17.529  10.430  12.937
97474W        W62701   2.020  21.628  13.490
97475W        W62702  17.204   9.120  11.226
97476W        W62703  39.365   4.872  14.789
97477W        W62704   4.167  38.774  10.413
97478W        W62705  11.119  18.550  12.410
97479W        W62706  16.514  27.496  13.841
97480W        W62707  16.208  33.380   1.136
97481W        W62708   1.782  22.492  11.841
97482W        W62709  13.790  10.911  11.172
97483W        W62710  25.747  16.686  12.645
97484W        W62711  42.414  25.018   1.197
97485W        W62712  10.643  23.609  10.468
97486W        W62713  37.359  24.308  12.539
97487W        W62714  12.753   5.383  11.967
97488W        W62715  37.072  23.507  10.767
97489W        W62716  22.230  43.973  12.944
97490W        W62717  10.871  26.806  12.890
97491W        W62718   7.642  30.127   1.911
97492W        W62719  11.548  25.586   3.689
97493W        W62720  26.483  44.139   3.807
97494W        W62721  17.638  11.104  14.404
97495W        W62722  18.288   9.748   0.412
97496W        W62723  33.633  30.018   1.806
97497W        W62724  42.234  30.630   3.876
97498W        W62725  12.782  26.485   2.276
97499W        W62726  33.869  20.704  12.957
97500W        W62727  27.518  28.983   1.323
97501W        W62728   5.323   5.000   0.976
97502W        W62729  28.530  35.558  14.299
97503W        W62730  25.222  11.641  12.496
97504W        W62731   5.273  10.089   2.686
97505W        W62732  26.231  19.755  12.053
97506W        W62733  14.307  25.811  10.777
97507W        W62734  38.592  26.924  12.544
97508W        W62735   4.708  30.125  13.546
97509W        W62736  29.756   4.414   2.786
97510W        W62737   4.580  36.622   4.073
97511W        W62738  26.880   5.214  11.946
97512W        W62739  13.029  40.841   1.942
97513W        W62740   3.947   5.229  13.452
97514W        W62741   6.819  35.531  14.084
97515W        W62742  22.552  20.539   4.697
97516W        W62743   9.792  33.552  11.601
97517W        W62744   4.202  27.560  10.679
97518W        W62745  35.805   2.421  14.561
97519W        W62746  33.012   6.386   3.345
97520W        W62747   1.701   2.956   0.197
97521W        W62748  14.906   0.021   0.922
97522W        W62749  32.879   3.356  13.077
97523W        W62750  31.228  42.731   4.137
97524W        W62751  20.021   2.174  11.048
97525W        W62752  37.119   8.328   2.296
97526W        W62753  32.989  24.440   0.434
97527W        W62754   3.015   6.056  14.473
97528W        W62755  15.358   7.648  13.811
97529W        W62756  21.660   6.215  13.291
97530W        W62757  27.461  21.909   0.672
97531W        W62758  23.049  14.226  10.949
97532W        W62759  31.886   9.253   2.667
97533W        W62760  17.235  24.935   4.606
97534W        W62761  15.409  18.728  14.931
97535W        W62762  22.229  10.667  12.696
97536W        W62763  19.356  44.106  11.524
97537W        W62764  40.519  32.645   3.817
97538W        W62765  28.869  20.235  11.816
97539W        W62766   8.320  13.734   2.277
97540W        W62767  11.167  24.514   0.633
97541W        W62768  28.032  10.145  13.950
97542W        W62769  16.071  28.595  11.254
97543W        W62770  21.546   9.860  13.028
97544W        W62771  27.898  17.714  14.636
97545W        W62772  23.635   3.715  13.585
97546W        W62773  19.620   5.397  11.406
97547W        W62774  17.102  21.244  13.378
97548W        W62775  24.309   0.317  13.334
97549W        W62776  29.154  43.503   3.208
97550W        W62777  32.375   7.757   1.704
97551W        W62778  39.037   1.035   2.398
97552W        W62779  16.551  12.254  13.540
97553W        W62780  15.568  32.515  14.554
97554W        W62781  20.501   0.928  14.821
97555W        W62782  19.340   4.121   4.340
97556W        W62783  32.189  17.234   4.150
97557W        W62784  21.482  13.035   4.196
97558W        W62785  30.700  19.599  14.323
97559W        W62786  29.106  23.054  11.115
97560W        W62787  25.121  32.638   4.528
97561W        W62788  28.069   5.037   1.390
97562W        W62789  18.545  44.453  10.530
97563W        W62790  25.812  28.422  11.122
97564W        W62791  13.652   6.177   1.698
97565W        W62792  11.314  24.503  14.800
97566W        W62793   3.861  14.753  13.364
97567W        W62794  37.077  20.545  13.976
97568W        W62795  23.787  37.108   3.723
97569W        W62796   8.295  14.190   3.125
97570W        W62797  24.519  17.502   1.264
97571W        W62798  17.367  26.601  12.257
97572W        W62799   5.814  44.245   4.665
97573W        W62800  17.594  33.707  12.940
97574W        W62801   3.168   7.936  12.427
97575W        W62802   9.807  37.293   0.076
97576W        W62803  12.625   4.075  12.247
97577W        W62804  43.721  35.999  13.501
97578W        W62805  33.643  32.491   2.881
97579W        W62806  15.515  33.293  14.457
97580W        W62807  13.172  36.514   2.232
97581W        W62808   8.356  21.228  12.032
97582W        W62809  40.277  26.472  13.058
97583W        W62810  32.682  20.600  12.527
97584W        W62811  14.166  16.664  13.502
97585W        W62812  39.980  11.890   2.960
97586W        W62813  30.327  21.479  11.106
97587W        W62814  38.431  22.134  14.829
97588W        W62815  29.417  16.646   1.869
97589W        W62816  17.998   4.391   1.640
97590W        W62817  25.520   1.982  13.052
97591W        W62818  35.516  15.111  14.462
97592W        W62819  23.637   2.294  13.929
97593W        W62820  34.763  43.051   5.056
97594W        W62821  30.605  28.992  14.879
97595W        W62822  29.174   6.641   3.324
97596W        W62823  20.239  40.058  14.301
97597W        W62824   9.420  11.303   0.338
97598W        W62825   9.305   6.491   3.770
97599W        W62826  42.521  11.257   4.551
97600W        W62827  34.991  21.862  14.359
97601W        W62828  36.506  29.087  12.300
97602W        W62829  25.099  29.872  10.967
97603W        W62830   6.087   7.217  11.162
97604W        W62831  15.717  41.878  10.550
97605W        W62832  23.508  37.636   1.717
97606W        W62833   6.235  44.905   3.678
97607W        W62834   2.524  43.237  12.574
97608W        W62835  12.311   9.880  11.265
97609W        W62836  28.725  19.435   4.733
97610W        W62837  33.551   6.102   4.456
97611W        W62838  42.099  27.471  12.364
97612W        W62839  37.908  32.993  14.447
97613W        W62840   2.161  15.946  10.233
97614W        W62841  10.692  34.876  13.440
97615W        W62842  35.866  42.314   4.164
97616W        W62843   1.048  35.826   0.194
97617W        W62844  11.404  14.841   4.120
97618W        W62845  18.299  15.380  14.546
97619W        W62846   9.200  15.006  12.147
97620W        W62847  43.869  36.232   4.752
97621W        W62848   5.029  14.045  11.141
97622W        W62849  25.972  23.530   0.843
97623W        W62850  30.001  17.824  13.476
97624W        W62851  24.461   9.089   4.320
97625W        W62852  22.172  22.575   4.188
97626W        W62853  24.107   2.830  12.161
97627W        W62854  21.122  14.216   3.842
97628W        W62855  30.798  34.161  11.485
97629W        W62856   2.303   1.344  10.430
97630W        W62857  13.520  20.502   0.619
97631W        W62858  31.988  38.513  12.773
97632W        W62859  14.616   7.874   2.708
97633W        W62860  21.100  21.090   4.544
97634W        W62861  42.076  30.394  12.055
97635W        W62862  42.067  22.541  11.110
97636W        W62863  22.890   8.547  10.398
97637W        W62864   8.193   4.478   0.755
97638W        W62865  25.397  28.099   1.197
97639W        W62866  21.155  13.662  12.132
97640W        W62867  20.649  19.605   4.221
97641W        W62868   3.864  40.821  13.920
97642W        W62869  44.322   0.693   2.809
97643W        W62870   0.398  22.891  14.462
97644W        W62871  39.970  13.110   1.200
97645W        W62872  14.058   0.397   3.816
97646W        W62873  14.718   8.556  12.922
97647W        W62874  21.551  18.326  14.190
97648W        W62875  27.102  10.629  13.911
97649W        W62876  23.796  25.275   3.151
97650W        W62877  26.394  38.313   3.630
97651W        W62878  37.597  23.725   2.209
97652W        W62879   1.520  40.895  11.619
97653W        W62880   2.598   6.381   3.719
97654W        W62881  28.903  44.154  14.530
97655W        W62882  25.413  27.224  12.912
97656W        W62883  29.068  38.412   2.412
97657W        W62884  32.378  19.800   1.262
97658W        W62885  34.075  17.561   4.872
97659W        W62886  43.467  12.839  11.736
97660W        W62887  29.115  35.596  14.005
97661W        W62888  41.813   9.438  10.737
97662W        W62889  33.044  13.804   0.932
97663W        W62890  20.987  12.915  10.252
97664W        W62891  35.593  42.976   3.242
97665W        W62892  21.195  39.459  14.383
97666W        W62893  19.211  44.996  14.584
97667W        W62894  39.190  27.918  12.064
97668W        W62895  17.531  41.856  13.554
97669W        W62896  25.070   9.368  12.833
97670W        W62897  29.763   0.920  14.986
97671W        W62898  30.634  11.383   1.255
97672W        W62899  35.555  30.243  13.950
97673W        W62900  34.134  12.695   2.683
97674W        W62901  44.733  21.135  13.013
97675W        W62902  10.731  39.472  10.291
97676W        W62903  21.721  13.511   3.803
97677W        W62904  39.376  28.235   4.179
97678W        W62905   0.319  43.840  14.787
97679W        W62906  41.298  24.846   3.198
97680W        W62907  21.526  42.941   2.379
97681W        W62908   7.884  30.464  11.578
97682W        W62909  21.588  18.334  13.675
97683W        W62910  34.733  31.155  11.344
97684W        W62911  41.757   6.449  12.139
97685W        W62912  39.493  36.602   3.270
97686W        W62913  20.982  15.611  13.330
97687W        W62914  21.238  10.023   5.308
97688W        W62915  18.752  24.039  11.665
97689W        W62916  40.892  36.517   1.514
97690W        W62917  32.158  31.083  14.032
97691W        W62918  44.226   4.435  11.439
97692W        W62919  10.193  15.631  13.960
97693W        W62920  23.847  10.517   4.574
97694W        W62921  28.453  37.135  14.753
97695W        W62922  14.911  34.014   0.847
97696W        W62923  10.956  27.268  11.960
97697W        W62924  28.482  11.627  13.291
97698W        W62925  12.192   1.628  13.397
97699W        W62926   9.623  22.745   1.375
97700W        W62927   8.505  21.908   1.314
97701W        W62928  21.569  40.289  11.819
97702W        W62929   6.203  39.101  12.889
97703W        W62930  28.763   7.180  13.100
97704W        W62931  31.048  26.664  11.034
97705W        W62932  18.307  29.449   2.383
97706W        W62933  39.561  22.205  11.551
97707W        W62934  14.812  17.044  13.941
97708W        W62935  27.050   2.009   0.558
97709W        W62936  11.125  29.497  14.034
97710W        W62937   0.905  39.305   3.350
97711W        W62938  31.403  21.215   3.647
97712W        W62939  29.627  10.620  11.719
97713W        W62940  35.735  15.813  13.462
97714W        W62941  31.384  40.987   0.422
97715W        W62942  25.658   6.871  12.650
97716W        W62943  44.771  17.263   5.406
97717W        W62944  24.024  35.953  14.948
97718W        W62945  36.597  20.629   0.766
97719W        W62946  30.154   1.606  14.437
97720W        W62947  16.325  34.110   3.911
97721W        W62948  19.643  35.054   0.120
97722W        W62949  34.151  43.763  11.924
97723W        W62950  31.048  14.118   0.417
97724W        W62951  40.503   6.359  12.348
97725W        W62952  25.057  30.517  13.231
97726W        W62953  36.574  39.587   0.010
97727W        W62954  29.529   1.573  11.062
97728W        W62955  32.472   0.115  11.648
97729W        W62956  22.262  33.588  13.430
97730W        W62957  36.049   5.765  14.246
97731W        W62958  18.236  28.914   1.465
97732W        W62959  19.346  31.179  14.561
97733W        W62960  34.846  14.896  11.529
97734W        W62961  30.568   6.826  13.312
97735W        W62962  12.538  42.296  11.163
97736W        W62963  18.584  30.045   1.359
97737W        W62964  24.077  10.853   3.204
97738W        W62965  37.216  14.331   0.137
97739W        W62966  26.600  27.037   5.042
97740W        W62967  34.015  13.030   5.029
97741W        W62968  34.507  28.486   4.543
97742W        W62969  20.629  14.786   3.382
97743W        W62970  43.969  18.381  11.555
97744W        W62971  23.089  10.574   3.651
97745W        W62972  39.621  40.567  13.827
97746W        W62973   9.209  14.115  13.483
97747W        W62974  10.868   6.000  14.295
97748W        W62975  25.804  12.297  11.204
97749W        W62976  44.523  41.406  11.298
97750W        W62977   5.853  35.997   0.837
97751W        W62978  42.875   0.508   2.863
97752W        W62979  22.821   8.646   0.976
97753W        W62980  27.570   3.205  14.393
97754W        W62981  37.454   5.132   3.620
97755W        W62982   2.860  11.187  11.845
97756W        W62983  42.425   9.697   3.873
97757W        W62984  32.067  15.240  12.526
97758W        W62985  30.702  44.945  12.070
97759W        W62986  14.876  27.812  11.072
97760W        W62987  31.781  18.148  13.292
97761W        W62988  34.841  14.772   4.487
97762W        W62989  35.063  12.546  14.547
97763W        W62990  44.786   0.507   2.014
97764W        W62991  10.234  36.974   0.359
97765W        W62992  12.841  28.134   0.255
97766W        W62993   7.424   8.169   3.706
97767W        W62994  29.505   1.196   0.461
97768W        W62995  23.032  44.629  13.208
97769W        W62996  24.147  15.679  12.847
97770W        W62997  16.139  35.751  12.358
97771W        W62998   1.799   8.222   1.470
97772W        W62999  44.180   7.632  13.000
97773W        W63000  30.782  24.071  11.400
97774W        W63001  19.860  35.073   1.374
97775W        W63002  37.365  41.245   2.679
97776W        W63003   8.167  17.194   4.416
97777W        W63004  15.721  15.543   1.271
97778W        W63005  12.194  43.595  10.638
97779W        W63006  38.085  12.677   2.145
97780W        W63007  28.629   4.073   0.799
97781W        W63008  35.401  43.322  11.058
97782W        W63009  22.610   3.992   0.561
97783W        W63010  39.361  15.334  12.561
97784W        W63011  39.454  40.055  11.737
97785W        W63012  21.794  15.641   1.328
97786W        W63013   3.961  23.953  13.029
97787W        W63014  25.904  36.986   0.001
97788W        W63015  19.267   5.925  11.064
97789W        W63016  37.982  15.064  13.442
97790W        W63017  21.473  30.127  12.748
97791W        W63018  15.192  42.949  10.537
97792W        W63019  40.628  22.645   4.920
97793W        W63020  15.663   9.384   0.477
97794W        W63021  31.540  30.907   3.591
97795W        W63022  19.568   2.050  14.794
97796W        W63023  25.968  44.854   2.224
97797W        W63024  26.038  18.310   3.200
97798W        W63025  35.405  15.990   4.688
97799W        W63026  31.037   8.114  14.364
97800W        W63027  44.547  32.027  12.414
97801W        W63028   6.797  33.974   0.909
97802W        W63029  15.285  15.612   1.961
97803W        W63030  17.644  33.966   3.152
97804W        W63031  41.795   1.732  14.872
97805W        W63032  29.426  22.725  14.846
97806W        W63033  26.967  24.094   0.105
97807W        W63034  38.151   2.449  13.506
97808W        W63035  29.134  22.724  14.415
97809W        W63036   8.416  34.655   0.619
97810W        W63037  34.007  20.278  13.639
97811W        W63038  23.892  42.515   2.311
97812W        W63039  14.115  37.019  13.135
97813W        W63040  42.386   8.267   3.459
97814W        W63041  36.956   7.435   2.785
97815W        W63042  14.694  26.555  14.039
97816W        W63043  23.782  19.044  12.116
97817W        W63044  44.402  12.188  11.475
97818W        W63045  31.322   6.754   2.277
97819W        W63046  43.883  42.506   1.281
97820W        W63047  28.458   5.388  11.181
97821W        W63048   0.947  17.236   1.381
97822W        W63049  13.248  33.371  12.427
97823W        W63050  32.110  41.724   1.261
97824W        W63051   9.135  42.718   3.698
97825W        W63052   8.256  17.269   9.954
97826W        W63053   6.675  43.274   4.548
97827W        W63054   5.793  13.717   1.963
97828W        W63055   2.626  16.757  10.653
97829W        W63056  18.304  27.446  10.760
97830W        W63057  29.307  23.535   2.309
97831W        W63058  33.075  31.473  10.533
97832W        W63059  37.490  21.969  14.238
97833W        W63060  42.247  17.003  12.953
97834W        W63061  32.137   4.835  11.555
97835W        W63062   5.402  39.415   0.342
97836W        W63063  27.393  16.123   0.144
97837W        W63064  32.062  27.609  11.709
97838W        W63065  40.538  38.031   3.351
97839W        W63066  22.429   1.289  13.095
97840W        W63067  26.212  35.410   2.782
97841W        W63068  17.783  41.394  14.336
97842W        W63069  16.054   6.161  12.054
97843W        W63070  23.174  20.172   3.735
97844W        W63071  36.963  42.797  14.702
97845W        W63072  26.995   8.074  13.005
97846W        W63073  27.716   8.315  14.849
97847W        W63074  11.646  34.851  11.794
97848W        W63075  23.900  28.219   4.584
97849W        W63076  32.715  36.323   1.214
97850W        W63077   8.775  11.788   2.203
97851W        W63078  27.394   7.011   2.718
97852W        W63079  26.439   7.453   4.155
97853W        W63080   6.372   2.230   3.356
97854W        W63081  24.675  41.389   0.120
97855W        W63082  10.346   0.022   1.697
97856W        W63083  36.426  19.143  12.107
97857W        W63084  37.919  38.911  11.419
97858W        W63085  28.620  40.463  10.681
97859W        W63086  18.462  37.980  12.581
97860W        W63087  31.910  10.146  13.378
97861W        W63088   6.675  23.131  13.025
97862W        W63089  23.202  26.504  11.172
97863W        W63090  21.557  19.703   0.007
97864W        W63091  36.782   0.712  11.705
97865W        W63092  23.018   7.958  14.661
97866W        W63093  26.761   7.188  13.413
97867W        W63094  31.115  34.376   4.219
97868W        W63095  18.266  34.908   1.344
97869W        W63096  24.049   6.297   0.791
97870W        W63097  21.173  12.874   3.768
97871W        W63098  24.080   9.253  10.785
97872W        W63099  34.605   0.354  12.006
97873W        W63100  10.074  37.067   0.865
97874W        W63101  17.019   9.001   4.204
97875W        W63102  12.901  20.721   1.832
97876W        W63103  43.260  12.534   2.388
97877W        W63104  10.791  18.475   2.558
97878W        W63105  18.039  39.946   0.528
97879W        W63106  35.022  11.055   2.916
97880W        W63107  20.809  25.538  14.479
97881W        W63108   3.762  24.565  13.952
97882W        W63109  21.073  38.230   1.783
97883W        W63110  29.949  19.860   0.499
97884W        W63111  39.962  18.665   2.161
97885W        W63112  30.016  14.279   1.763
97886W        W63113  30.437  43.509   2.287
97887W        W63114  38.873  16.969   0.014
97888W        W63115  26.518  13.947   3.678
97889W        W63116  40.274  15.214  12.608
97890W        W63117  29.558  40.249  11.523
97891W        W63118   0.976  30.187  10.540
97892W        W63119   8.968  14.324   2.275
97893W        W63120  17.130  27.109   0.405
97894W        W63121  40.248  17.152   3.742
97895W        W63122  44.159   8.371   2.270
97896W        W63123  11.908   9.356   3.847
97897W        W63124  17.336  13.807  13.907
97898W        W63125   3.259  40.468   1.480
97899W        W63126  14.431  20.485  12.065
97900W        W63127   1.446  42.839   1.661
97901W        W63128   2.321  37.199   1.008
97902W        W63129  17.804  42.743   2.451
97903W        W63130  42.749  23.529   0.876
97904W        W63131  13.209  39.759  12.378
97905W        W63132   3.010   9.691   4.092
97906W        W63133  31.621  43.101  12.835
97907W        W63134  38.406  31.618   0.020
97908W        W63135   1.470   0.607  10.873
97909W        W63136  30.430  23.545   0.355
97910W        W63137   6.763  36.362   3.346
97911W        W63138  30.686  24.591   2.394
97912W        W63139  22.764  21.874   1.528
97913W        W63140  20.486   4.698   1.851
97914W        W63141  44.828  21.792  11.656
97915W        W63142  38.831   4.370  13.335
97916W        W63143  37.352  12.278   2.940
97917W        W63144   6.739  28.426  14.142
97918W        W63145  30.012   2.103  14.369
97919W        W63146  29.712  22.623   1.780
97920W        W63147  29.306  13.851   0.147
97921W        W63148  27.658   3.335   1.168
97922W        W63149   2.423  29.882   0.832
97923W        W63150  16.113  38.887  11.927
97924W        W63151  37.851  36.734   1.179
97925W        W63152   8.107  18.269   4.970
97926W        W63153  43.490  11.302  13.167
97927W        W63154   1.885  28.513   4.382
97928W        W63155  40.852  30.556   0.510
97929W        W63156   2.227  25.523   4.197
97930W        W63157  42.695  11.167   1.388
97931W        W63158  12.780   3.688  11.530
97932W        W63159  23.876  11.621  13.355
97933W        W63160  28.127  40.305  10.633
97934W        W63161  25.099   2.124   5.096
97935W        W63162  41.126  15.201  11.569
97936W        W63163   1.490  39.875  10.983
97937W        W63164   7.042  12.878   3.435
97938W        W63165  38.744  44.953  14.593
97939W        W63166   6.977   6.219  12.119
97940W        W63167  27.489  12.865   2.878
97941W        W63168  11.467  14.873  14.344
97942W        W63169  31.217  39.898   4.101
97943W        W63170  43.015  45.000   2.693
97944W        W63171  15.002   3.514  14.967
97945W        W63172  34.971  37.974   1.550
97946W        W63173  43.060   1.458   1.613
97947W        W63174  41.426  29.154  13.904
97948W        W63175  14.630   1.096  10.770
97949W        W63176  42.596  21.033  11.644
97950W        W63177  33.104  38.056   1.316
97951W        W63178  44.750  32.081  13.412
97952W        W63179  38.115   5.539  13.904
97953W        W63180  28.369   8.795   4.440
97954W        W63181  14.779  27.703   0.355
97955W        W63182   4.768  11.587   4.651
97956W        W63183  42.992  33.466   3.679
97957W        W63184  12.659  11.669   3.392
97958W        W63185  44.556  23.740   2.613
97959W        W63186  31.332  38.801  12.521
97960W        W63187  24.438  21.426   4.526
97961W        W63188   9.148  31.588  14.882
97962W        W63189  11.856   0.587   4.160
97963W        W63190  40.542  44.217   1.540
97964W        W63191  15.212   5.360   2.282
97965W        W63192  19.556  15.381  12.466
97966W        W63193  38.406  11.548  11.923
97967W        W63194  17.040  10.293  14.894
97968W        W63195  16.047  24.160  11.202
97969W        W63196  25.993  31.064  11.260
97970W        W63197  33.655  24.711   2.927
97971W        W63198   3.821  33.468   0.904
97972W        W63199  34.070  12.784   0.265
97973W        W63200   1.735  17.096  11.097
97974W        W63201  40.812  22.255   4.074
97975W        W63202   5.653  40.585   2.303
97976W        W63203   5.440  20.877   0.408
97977W        W63204  36.219  29.940  12.794
97978W        W63205  20.290  38.688  11.402
97979W        W63206  25.470   1.476  13.053
97980W        W63207   4.941  32.452   0.860
97981W        W63208  40.341  34.577   2.379
97982W        W63209  16.825  20.310   3.697
97983W        W63210   3.184  33.401   2.089
97984W        W63211  11.641  34.217   1.819
97985W        W63212  16.137  24.440   4.150
97986W        W63213  20.368  30.460   4.517
97987W        W63214  24.006  40.262   3.376
97988W        W63215  19.784  15.468   0.219
97989W        W63216  13.786  38.888   4.646
97990W        W63217  42.025   7.885   2.801
97991W        W63218  40.842  20.996   3.521
97992W        W63219  40.634  20.341  12.394
97993W        W63220   5.695  11.390   3.235
97994W        W63221  27.230  29.587  11.106
97995W        W63222  28.205  41.174   0.824
97996W        W63223  10.170  18.903  12.521
97997W        W63224  36.402  44.239  12.981
97998W        W63225  39.917  23.225   3.838
97999W        W63226  42.909  20.062   0.759
98000W        W63227  44.265  34.244   4.616
98001W        W63228  24.361  31.534  14.951
98002W        W63229  14.112   5.305   0.062
98003W        W63230  23.393  14.051  13.782
98004W        W63231  13.583  29.398  12.619
98005W        W63232   0.418  40.567  14.937
98006W        W63233  42.238   6.871   4.986
98007W        W63234   0.692  20.771  13.953
98008W        W63235  32.182  25.529  12.858
98009W        W63236  38.463  24.888  12.185
98010W        W63237  11.725  30.881  10.194
98011W        W63238  37.876  12.266  13.896
98012W        W63239  41.395   7.287   2.378
98013W        W63240  15.286  15.297  13.881
98014W        W63241   4.856  25.874   9.766
98015W        W63242  43.753  11.116  14.652
98016W        W63243  15.812  33.861   1.955
98017W        W63244  21.968  41.996   3.229
98018W        W63245   5.858  11.347   3.989
98019W        W63246   4.883  11.329   9.778
98020W        W63247   1.710  35.954   4.938
98021W        W63248  36.889  43.982  12.990
98022W        W63249   4.440  40.071   3.265
98023W        W63250  27.491  30.081   4.580
98024W        W63251  34.475  16.385  13.849
98025W        W63252  28.875  42.801   2.750
98026W        W63253   8.820   5.612  11.824
98027W        W63254  44.371   7.408  12.386
98028W        W63255  44.892  32.535   2.726
98029W        W63256  40.033  33.979  10.913
98030W        W63257  38.338  36.066  13.166
98031W        W63258  38.528  17.910   2.781
98032W        W63259  38.370  32.741  10.706
98033W        W63260  18.039  43.830   3.045
98034W        W63261   2.323  12.034   4.168
98035W        W63262   6.575  30.904   0.815
98036W        W63263  20.738   4.760   3.874
98037W        W63264  34.022  13.961   9.920
98038W        W63265  12.855  31.961  12.602
98039W        W63266  35.905   1.714   2.594
98040W        W63267  39.878  16.711   0.585
98041W        W63268   8.926  24.113   1.707
98042W        W63269  11.378   7.131   2.722
98043W        W63270   7.907  20.232   1.660
98044W        W63271  31.419   9.906  12.608
98045W        W63272  36.402  16.917   3.271
98046W        W63273  13.562  16.692   0.440
98047W        W63274  30.885   4.264  11.459
98048W        W63275  14.614  16.296  14.227
98049W        W63276  13.018  14.515  12.952
98050W        W63277  25.267  11.091  11.208
98051W        W63278  27.886  15.326  12.958
98052W        W63279  20.599  27.980   0.774
98053W        W63280  38.132  19.565  10.666
98054W        W63281  40.941   5.953   2.755
98055W        W63282  28.295  11.337   0.311
98056W        W63283  39.394  29.282   3.195
98057W        W63284  18.937   8.827  12.042
98058W        W63285  39.078  27.735  14.201
98059W        W63286  43.466  38.092  10.767
98060W        W63287  44.442   4.394  13.262
98061W        W63288  41.645  18.307  12.911
98062W        W63289  36.085  31.489  11.880
98063W        W63290  24.470  36.621   4.135
98064W        W63291  28.922  30.499   4.361
98065W        W63292   0.805  39.569  14.831
98066W        W63293  16.190  38.801  10.555
98067W        W63294  38.628  34.760   4.221
98068W        W63295  24.194  10.639   1.134
98069W        W63296  43.179  34.866   3.824
98070W        W63297  27.824  26.741   4.561
98071W        W63298  44.264  22.175   0.108
98072W        W63299  21.991  30.644  14.438
98073W        W63300  10.363  26.577   1.242
98074W        W63301  29.130   3.331  14.035
98075W        W63302   8.838   3.476   1.269
98076W        W63303  24.549  23.069   4.538
98077W        W63304  30.283  25.549  10.716
98078W        W63305  32.155  23.678  14.935
98079W        W63306   4.428   4.360   1.542
98080W        W63307  30.816  39.009  12.466
98081W        W63308   8.196  12.747   1.629
98082W        W63309  32.097  26.276   1.848
98083W        W63310  33.845  33.011   0.357
98084W        W63311  41.077  25.862   0.104
98085W        W63312  42.585  43.209  12.071
98086W        W63313  44.693  44.719  14.888
98087W        W63314  32.083  21.587  14.353
98088W        W63315  39.094  42.091   1.714
98089W        W63316  42.243   8.782   4.215
98090W        W63317  33.270  14.499  14.283
98091W        W63318  24.684  17.955   4.521
98092W        W63319   4.281  20.093  14.875
98093W        W63320  20.002  34.690  10.827
98094W        W63321  22.249   9.354  10.742
98095W        W63322  18.607  41.988  13.154
98096W        W63323  15.666  27.456  13.591
98097W        W63324  30.631  14.146   2.506
98098W        W63325   9.223  26.127   1.161
98099W        W63326  26.175  22.088  14.034
98100W        W63327  14.694   0.801  12.088
98101W        W63328   1.867  28.167  12.140
98102W        W63329  35.665   6.407   3.307
98103W        W63330   4.880  40.364   4.226
98104W        W63331  37.307  31.006  12.161
98105W        W63332  36.162   2.414  10.819
98106W        W63333   4.859  20.656  14.044
98107W        W63334  20.734  12.127   1.750
98108W        W63335  18.215  23.468  10.690
98109W        W63336  32.437  40.773   1.826
98110W        W63337  17.753  26.065  14.918
98111W        W63338   2.939  41.782   1.319
98112W        W63339   1.854  25.636  12.627
98113W        W63340  18.814  39.246   4.081
98114W        W63341  38.973  43.972  11.222
98115W        W63342   5.655  22.678  14.484
98116W        W63343  20.478   3.231  10.309
98117W        W63344  37.764  30.471  11.586
98118W        W63345   2.515  19.540   0.349
98119W        W63346  10.732  26.657  13.368
98120W        W63347   3.540  12.340  11.221
98121W        W63348  33.336   1.113   1.385
98122W        W63349  20.528  20.130  12.637
98123W        W63350  40.892  26.990   1.966
98124W        W63351   4.918  24.943   4.004
98125W        W63352  20.141  29.696   2.363
98126W        W63353   1.204   3.856   2.690
98127W        W63354  13.829  36.379  13.302
98128W        W63355   2.826   6.326  12.253
98129W        W63356   0.057  24.432   0.368
98130W        W63357  19.230  43.367   1.218
98131W        W63358  34.117  33.411   2.912
98132W        W63359  24.204  27.972  14.431
98133W        W63360   0.843   3.622   2.377
98134W        W63361  10.906  15.859  10.190
98135W        W63362   6.297  36.364   3.542
98136W        W63363  13.762  12.913   4.492
98137W        W63364  12.327   4.185   3.024
98138W        W63365  31.079  40.323  11.210
98139W        W63366   7.771  14.579  12.905
98140W        W63367  10.529  41.988   1.410
98141W        W63368  36.682  35.451   4.950
98142W        W63369  41.348   4.627   4.640
98143W        W63370  18.582  30.786   4.544
98144W        W63371   2.274  35.588  11.115
98145W        W63372  31.346  34.919   0.821
98146W        W63373  28.930   3.399  13.554
98147W        W63374  27.671   6.904  12.546
98148W        W63375  27.238  41.085  11.296
98149W        W63376  26.548  13.328   5.061
98150W        W63377   7.419  43.482   0.722
98151W        W63378  38.463  35.359   0.531
98152W        W63379  37.531  31.372   3.666
98153W        W63380  20.554  22.694   3.177
98154W        W63381   3.917  30.910   3.661
98155W        W63382  24.461  34.985   1.329
98156W        W63383  30.003  37.124   2.241
98157W        W63384  14.807  43.573  12.628
98158W        W63385   0.221   7.870   3.696
98159W        W63386  13.024   4.726   5.105
98160W        W63387  10.221  36.799  14.268
98161W        W63388  20.444   4.570  14.573
98162W        W63389  26.886  14.298   4.971
98163W        W63390  15.827  44.694  13.362
98164W        W63391   7.510  18.738  12.168
98165W        W63392  27.645  26.271  13.666
98166W        W63393  11.943  37.016  13.839
98167W        W63394  10.565  40.385  13.621
98168W        W63395   0.651  14.091   4.963
98169W        W63396   8.872  19.756  12.454
98170W        W63397  43.606  30.694  10.434
98171W        W63398  33.938  31.774   3.714
98172W        W63399  10.333  34.965  13.091
98173W        W63400  37.518  12.839   4.550
98174W        W63401  43.559  10.084   3.656
98175W        W63402  43.344  29.515  14.606
98176W        W63403  16.340   3.124   4.710
98177W        W63404  15.815  18.472   4.918
98178W        W63405  30.975  41.009   4.614
98179W        W63406  18.182  27.510  12.100
98180W        W63407  23.609  24.480  11.508
98181W        W63408   0.866  17.968  12.442
98182W        W63409  21.615  37.669  11.131
98183W        W63410   2.751  43.970  12.168
98184W        W63411  44.322   9.384   1.014
98185W        W63412  28.045  21.792  13.430
98186W        W63413  20.632  39.864  12.083
98187W        W63414  15.766  12.838   1.221
98188W        W63415  20.522  23.153   2.448
98189W        W63416   0.834  16.749   1.552
98190W        W63417  40.110   1.408  12.153
98191W        W63418  38.519  12.725  13.091
98192W        W63419   1.040   7.091   4.980
98193W        W63420   3.772  12.933   2.395
98194W        W63421  35.219  11.028   4.246
98195W        W63422  28.040  18.311   4.123
98196W        W63423  35.418  25.751   3.635
98197W        W63424   1.755  26.281  12.146
98198W        W63425   0.701  30.655   4.082
98199W        W63426  30.068  40.734   2.753
98200W        W63427  28.964   6.818  12.799
98201W        W63428  44.830  36.506   5.073
98202W        W63429   4.220  36.016   0.926
98203W        W63430  18.461  41.239   4.914
98204W        W63431  10.734  11.960  10.751
98205W        W63432  10.550  25.980  14.491
98206W        W63433  23.827  11.571   0.265
98207W        W63434   1.527   3.209  14.777
98208W        W63435  16.075  37.870   2.492
98209W        W63436  14.307  43.058   4.667
98210W        W63437  20.000  18.420   1.731
98211W        W63438  43.576  31.924  13.981
98212W        W63439  32.404   1.931  13.017
98213W        W63440  29.562  31.558   2.175
98214W        W63441  43.037   7.827   5.078
98215W        W63442  29.215   4.796   3.865
98216W        W63443  31.364  29.360  11.563
98217W        W63444  14.577   6.873   4.003
98218W        W63445   4.297  22.565  10.986
98219W        W63446  14.638  19.924  14.746
98220W        W63447  33.908  25.840   0.459
98221W        W63448   1.279  20.069   2.689
98222W        W63449   4.251  33.031   0.400
98223W        W63450  36.294   5.022   1.796
98224W        W63451  13.311  16.577   4.344
98225W        W63452   2.246  14.073   2.217
98226W        W63453   4.693   4.836  10.842
98227W        W63454  31.532   9.395  13.024
98228W        W63455  37.638  32.006  10.051
98229W        W63456  28.251  32.170   3.535
98230W        W63457  20.500  32.472  11.994
98231W        W63458  10.968  15.109  13.793
98232W        W63459  39.102  41.387  12.122
98233W        W63460  12.272   7.485   3.698
98234W        W63461  21.613  37.895   3.778
98235W        W63462   1.174   9.559   1.774
98236W        W63463  36.107   8.371  11.748
98237W        W63464  14.784  13.482   0.408
98238W        W63465  14.259  19.826   0.585
98239W        W63466  21.790  29.394  13.403
98240W        W63467  22.164   7.189  12.444
98241W        W63468  38.978  24.739   1.026
98242W        W63469  38.958  12.349   4.599
98243W        W63470  12.077  28.323   0.976
98244W        W63471  21.501   5.673   0.992
98245W        W63472  22.153  26.942   0.935
98246W        W63473  29.463  36.150   4.582
98247W        W63474  43.878   0.938  10.878
98248W        W63475   1.748   2.930  11.111
98249W        W63476  24.696   7.066  11.195
98250W        W63477  34.396  17.801  14.489
98251W        W63478   9.523  13.940   5.132
98252W        W63479  18.266   8.791  13.403
98253W        W63480  37.975  43.082  11.849
98254W        W63481  14.117  28.783   3.092
98255W        W63482  31.876  12.735   0.518
98256W        W63483   3.205  44.399   0.128
98257W        W63484  11.261  35.160  12.288
98258W        W63485  32.915  17.517  14.849
98259W        W63486   2.491  44.583  10.554
98260W        W63487  27.408   6.785  12.984
98261W        W63488  27.768  39.593   2.793
98262W        W63489  21.543   0.478   0.438
98263W        W63490  41.459  29.544   3.798
98264W        W63491  37.458  35.120   0.524
98265W        W63492  34.827  36.574   0.890
98266W        W63493  41.837  37.579  10.225
98267W        W63494  15.587   6.906   1.777
98268W        W63495  18.260  42.761  11.266
98269W        W63496   1.264  16.305   3.840
98270W        W63497   1.269  16.162  12.840
98271W        W63498  44.433  18.194   5.362
98272W        W63499  25.386  40.982  14.854
98273W        W63500  18.305  14.290   4.017
98274W        W63501  19.621  39.560   1.313
98275W        W63502   4.864   3.084  10.824
98276W        W63503  40.234  37.593   0.998
98277W        W63504  14.781  25.868  12.628
98278W        W63505  10.449   5.793  14.082
98279W        W63506  22.867  10.588  14.299
98280W        W63507  15.760  22.655   4.629
98281W        W63508  40.389  39.821  10.680
98282W        W63509  13.223  28.719   4.644
98283W        W63510  27.994   0.321   3.305
98284W        W63511  44.944  30.936   0.506
98285W        W63512  28.929  23.723   2.661
98286W        W63513   6.356  15.117  13.795
98287W        W63514  13.539  38.327   3.574
98288W        W63515  33.515  36.349  13.531
98289W        W63516  11.096  31.389  13.594
98290W        W63517  14.789  21.510  13.427
98291W        W63518  30.062  22.996   2.395
98292W        W63519  18.119  14.722  11.813
98293W        W63520   8.489  13.135   0.343
98294W        W63521  29.321  30.648   5.089
98295W        W63522   5.737   5.804   1.042
98296W        W63523  19.118  30.539  11.389
98297W        W63524   0.349  12.657   0.090
98298W        W63525   0.472   3.903   0.906
98299W        W63526  39.923   1.867   2.155
98300W        W63527  28.418  16.552  12.807
98301W        W63528  32.349  42.468  10.618
98302W        W63529  10.726   4.833  12.849
98303W        W63530  16.072   0.441   4.121
98304W        W63531  25.019  13.755  11.859
98305W        W63532  17.073   1.804   1.793
98306W        W63533  29.148  38.866  13.037
98307W        W63534   2.492  17.478   1.172
98308W        W63535  38.116  34.681   4.149
98309W        W63536  40.724  26.233  13.734
98310W        W63537  26.369   8.954   1.694
98311W        W63538  23.509  16.357   3.281
98312W        W63539  38.494  35.933  14.167
98313W        W63540   6.686  38.867   2.380
98314W        W63541   4.724  38.354   2.196
98315W        W63542  32.080  16.051  11.748
98316W        W63543  20.172  14.886   1.698
98317W        W63544   4.991  25.596   3.393
98318W        W63545  13.150  30.941  14.186
98319W        W63546  18.312  42.811   1.231
98320W        W63547   4.344  14.552   2.442
98321W        W63548  32.586  35.266  12.165
98322W        W63549   0.887  34.962  14.325
98323W        W63550  26.232   2.692   1.382
98324W        W63551  38.454  39.033   0.440
98325W        W63552  17.390  27.657   3.748
98326W        W63553   0.668  33.968  12.493
98327W        W63554  38.470  20.573  14.438
98328W        W63555   5.630   8.819   2.408
98329W        W63556  29.674   7.706   1.297
98330W        W63557   1.375  35.415   2.708
98331W        W63558  30.360  32.062  11.968
98332W        W63559  19.092  18.469  13.672
98333W        W63560  36.848  19.109   4.122
98334W        W63561  40.555  44.870  14.005
98335W        W63562  11.783  43.046  13.564
98336W        W63563   9.089  26.696   0.886
98337W        W63564  10.821  32.555   1.427
98338W        W63565  41.358  18.749  12.847
98339W        W63566  28.565  26.073   1.822
98340W        W63567  13.833  39.385   1.789
98341W        W63568  14.584   4.551  14.982
98342W        W63569  28.088   2.457   3.311
98343W        W63570  36.485   6.432  14.673
98344W        W63571  18.325  26.614  13.041
98345W        W63572  17.559  33.111  10.686
98346W        W63573  15.188  26.016  13.490
98347W        W63574  37.351  43.435  10.704
98348W        W63575  33.114   1.986   0.040
98349W        W63576  16.359  32.468   1.221
98350W        W63577  26.536  40.629  14.031
98351W        W63578  17.079  20.081  14.717
98352W        W63579  27.168   5.828   1.892
98353W        W63580  16.523  22.227   0.356
98354W        W63581  36.227   9.823  12.645
98355W        W63582  14.199  21.772  14.761
98356W        W63583  13.528   4.107  14.087
98357W        W63584  12.112   1.928   1.490
98358W        W63585  40.702  44.481   0.261
98359W        W63586  21.100  31.891   1.203
98360W        W63587  27.883  15.098  12.057
98361W        W63588  22.579  12.338  13.092
98362W        W63589  14.173  26.212   3.791
98363W        W63590  22.583  44.905   3.230
98364W        W63591  43.349  33.683  11.290
98365W        W63592   5.467   4.024   2.225
98366W        W63593  14.464  19.286  13.124
98367W        W63594  19.050   2.559   2.013
98368W        W63595   6.394  26.135   0.702
98369W        W63596  23.441  19.435  10.839
98370W        W63597   0.441  14.356   2.767
98371W        W63598   0.361  29.129   2.668
98372W        W63599   1.544  11.412  13.085
98373W        W63600   5.915  35.181  11.557
98374W        W63601   5.212  21.781  12.214
98375W        W63602  14.473   0.821  14.432
98376W        W63603  44.209  37.572  11.152
98377W        W63604  43.662   5.434   4.992
98378W        W63605  43.850  17.598   3.175
98379W        W63606  18.756  35.651  12.163
98380W        W63607  33.596  16.098   1.317
98381W        W63608   1.775   1.475  11.410
98382W        W63609   5.703  23.153  12.874
98383W        W63610   8.867  19.529  10.690
98384W        W63611  31.157  25.137   1.386
98385W        W63612  41.927  30.646  13.369
98386W        W63613  32.441  19.214   4.580
98387W        W63614  39.878   1.023  14.366
98388W        W63615  29.116   7.274  14.730
98389W        W63616  36.578  23.325   2.310
98390W        W63617   2.047  38.195   4.928
98391W        W63618  22.415  40.325   4.529
98392W        W63619  31.562  39.343  11.585
98393W        W63620  24.626  20.968  13.400
98394W        W63621   0.264  14.303  10.650
98395W        W63622  37.303   5.836  14.090
98396W        W63623   6.721  29.605   1.592
98397W        W63624  39.658  17.254   4.145
98398W        W63625   0.602  18.993  14.482
98399W        W63626   9.668  13.679   3.258
98400W        W63627  18.718  25.795   4.956
98401W        W63628  18.130  36.378  11.937
98402W        W63629  33.808  23.044  13.615
98403W        W63630  28.673  37.076  12.348
98404W        W63631  11.182   3.141   1.965
98405W        W63632  14.128  17.378  14.024
98406W        W63633  38.878  43.816   2.298
98407W        W63634  39.611  42.054  14.695
98408W        W63635  32.944   9.108  13.007
98409W        W63636  28.443   5.299   3.531
98410W        W63637  38.338   7.914   3.007
98411W        W63638  43.614  19.332   1.423
98412W        W63639  20.079  27.421   3.693
98413W        W63640   4.699  35.911   0.769
98414W        W63641  31.601   5.090   1.198
98415W        W63642  16.821  44.806  13.510
98416W        W63643  25.012  41.266   1.866
98417W        W63644  38.874  22.550   1.176
98418W        W63645  37.659   3.430  11.551
98419W        W63646   1.928  16.420   1.751
98420W        W63647  39.470   5.554   0.313
98421W        W63648   8.026  30.454   0.446
98422W        W63649  26.308   6.693   1.297
98423W        W63650  44.686  20.963  14.949
98424W        W63651  36.438  18.085  13.503
98425W        W63652   9.425  19.092  13.115
98426W        W63653  37.957  23.005   2.865
98427W        W63654  44.662   1.988  13.429
98428W        W63655  18.834  29.587  11.129
98429W        W63656  22.091  22.079  12.117
98430W        W63657  44.017  39.386  14.722
98431W        W63658   3.601  30.217  10.919
98432W        W63659   6.769  13.911  13.870
98433W        W63660   8.920   7.611   1.343
98434W        W63661   3.133   3.253  11.491
98435W        W63662   1.873  39.565   3.171
98436W        W63663  23.589  32.871   1.734
98437W        W63664  28.017  14.548   3.730
98438W        W63665  11.116  27.586  10.734
98439W        W63666   2.095  38.500   1.238
98440W        W63667   2.652  34.453   3.366
98441W        W63668   1.882  32.928   4.675
98442W        W63669  33.850  12.272   3.384
98443W        W63670  16.911  35.011  14.939
98444W        W63671  19.574   8.769   1.343
98445W        W63672   7.829   9.479  12.612
98446W        W63673   0.591  29.031   1.391
98447W        W63674  32.997  14.397  14.766
98448W        W63675   4.482  16.201  13.201
98449W        W63676  22.542  39.497  12.048
98450W        W63677  23.973  38.812  13.540
98451W        W63678  30.027  38.191   4.591
98452W        W63679  27.420   0.278   1.727
98453W        W63680  17.220  34.723   2.125
98454W        W63681  28.271  17.561  13.805
98455W        W63682  32.655  28.881  11.859
98456W        W63683  23.418  43.412  11.990
98457W        W63684  15.644  40.763  14.260
98458W        W63685   4.676  13.660  11.945
98459W        W63686  32.326  28.939  13.192
98460W        W63687   4.550  13.341  14.359
98461W        W63688  32.504  33.647  10.560
98462W        W63689  27.872   8.929   4.522
98463W        W63690  19.085  15.089  14.841
98464W        W63691  25.103  13.052  11.324
98465W        W63692  31.102  34.559  11.487
98466W        W63693   0.416  26.624   0.416
98467W        W63694  27.128   3.471  13.473
98468W        W63695  18.096   2.612   1.644
98469W        W63696  17.453  22.636   0.100
98470W        W63697  35.024  39.470   4.041
98471W        W63698  10.129   6.663   4.379
98472W        W63699   0.260  32.997  11.576
98473W        W63700  20.155  20.663  13.373
98474W        W63701   7.356   6.128   3.742
98475W        W63702  34.497  26.675   0.668
98476W        W63703  34.392  14.818  10.247
98477W        W63704  32.759  21.991   1.989
98478W        W63705  19.662  17.778  14.390
98479W        W63706   4.984  30.958   3.802
98480W        W63707  25.899   2.425   2.282
98481W        W63708  37.403  19.088  11.212
98482W        W63709  42.709  13.113   1.772
98483W        W63710  30.312  43.531  13.401
98484W        W63711  36.112   6.378  12.352
98485W        W63712  17.225  13.670   0.908
98486W        W63713   6.854  21.654  14.793
98487W        W63714   6.223  21.991   0.777
98488W        W63715  10.782   9.665   1.208
98489W        W63716  21.976  30.684  10.730
98490W        W63717   3.837  35.165  11.910
98491W        W63718   3.988   9.792  11.158
98492W        W63719  40.874   7.240  13.072
98493W        W63720  10.831  31.240  11.850
98494W        W63721  29.029   9.786  14.288
98495W        W63722  40.372  12.804   4.684
98496W        W63723  18.174   9.088  12.995
98497W        W63724  19.442   8.106   2.114
98498W        W63725  26.416  10.752   2.333
98499W        W63726   8.898  23.920  13.639
98500W        W63727  12.356  13.581  14.816
98501W        W63728  21.544  23.991  12.608
98502W        W63729  31.565  16.905  13.876
98503W        W63730  44.285  26.154   0.972
98504W        W63731  18.384  23.119   3.613
98505W        W63732   5.432  41.093  14.738
98506W        W63733  29.937  43.940  11.530
98507W        W63734  37.056  36.830  12.994
98508W        W63735  38.481  14.158  11.371
98509W        W63736  20.425  20.818   5.276
98510W        W63737   4.445  40.966   3.224
98511W        W63738  17.768  22.754   0.964
98512W        W63739  42.854  18.060   0.833
98513W        W63740  34.462  41.311   3.590
98514W        W63741  30.462  32.147   3.256
98515W        W63742  44.143   7.586   4.329
98516W        W63743  23.507  13.326   0.770
98517W        W63744  19.958   6.290  14.209
98518W        W63745  18.215  36.638   4.528
98519W        W63746   2.950  14.185   4.549
98520W        W63747  32.930  24.754  14.526
98521W        W63748  19.551  12.973  10.478
98522W        W63749  30.632   9.200  14.781
98523W        W63750  34.010   4.295  11.540
98524W        W63751  12.100   9.476  13.036
98525W        W63752  21.584  43.379  12.498
98526W        W63753  13.676  38.300  14.383
98527W        W63754  15.483   3.888   1.366
98528W        W63755  17.360  18.509  13.902
98529W        W63756  18.782  30.246  11.052
98530W        W63757  25.636   0.814  12.511
98531W        W63758  33.885  19.086  14.413
98532W        W63759  11.913  41.361   3.825
98533W        W63760  18.830  40.306  14.770
98534W        W63761   1.101  40.344   2.461
98535W        W63762  32.196  36.377   1.219
98536W        W63763  41.189  19.180  11.033
98537W        W63764  35.152  43.823   0.584
98538W        W63765   3.624  12.830  12.011
98539W        W63766  27.370  43.271  13.249
98540W        W63767   1.490  33.021   1.319
98541W        W63768  15.382  22.993   0.382
98542W        W63769  11.705  44.814  12.008
98543W        W63770   1.280   9.809   2.213
98544W        W63771  14.251  28.138   3.670
98545W        W63772  10.746   7.451  10.968
98546W        W63773  19.642  43.542  12.799
98547W        W63774  18.464  22.190   3.379
98548W        W63775  29.463   1.667   4.463
98549W        W63776  15.448  11.646  13.392
98550W        W63777   7.444  30.006   3.333
98551W        W63778   4.796  41.903   2.779
98552W        W63779  41.374   6.412   0.765
98553W        W63780   1.191   9.364   3.119
98554W        W63781  25.491  29.210   0.575
98555W        W63782   2.406  35.369   3.726
98556W        W63783  10.582  43.088   0.480
98557W        W63784   3.394  14.140   1.888
98558W        W63785  13.367  36.438  13.033
98559W        W63786  41.283  33.368  13.467
98560W        W63787  11.735  32.395   2.583
98561W        W63788  37.178   6.235  12.397
98562W        W63789  44.339   8.913   4.087
98563W        W63790  12.419  34.712   4.981
98564W        W63791  29.222  37.422   1.324
98565W        W63792  30.391  40.124   4.403
98566W        W63793  25.622  11.618   1.951
98567W        W63794   4.297  19.506   3.749
98568W        W63795  36.193  41.294  13.487
98569W        W63796   6.800  26.218   2.080
98570W        W63797  21.336  24.111   1.401
98571W        W63798  12.823  34.922  13.088
98572W        W63799  34.861   4.226  12.782
98573W        W63800  20.303  34.172   4.657
98574W        W63801  23.790  25.918  10.500
98575W        W63802  23.035   4.802  12.983
98576W        W63803  40.889  34.129  10.735
98577W        W63804  14.296  29.154  14.392
98578W        W63805   1.698  16.531  14.095
98579W        W63806  32.166  44.318  13.380
98580W        W63807   2.269  14.674   4.378
98581W        W63808  38.800  44.467  14.793
98582W        W63809  36.859  38.098   4.933
98583W        W63810  38.996  20.622  13.454
98584W        W63811   1.278  43.659   1.394
98585W        W63812   8.309  37.395   4.089
98586W        W63813   5.697  11.599  14.845
98587W        W63814  34.514  31.110  14.232
98588W        W63815  31.515  25.231  12.453
98589W        W63816  24.501  12.699  14.369
98590W        W63817  23.075  19.499  13.831
98591W        W63818   9.860  35.973   2.716
98592W        W63819  21.098  29.813  11.900
98593W        W63820  13.805  41.198   1.979
98594W        W63821  41.280  32.185  10.663
98595W        W63822  10.722   4.852  10.410
98596W        W63823   3.975  33.074   2.690
98597W        W63824  38.851  19.814  11.862
98598W        W63825  31.413  24.188   4.304
98599W        W63826  34.454  13.989  11.257
98600W        W63827  41.859  33.813  12.402
98601W        W63828   2.207  32.881  13.918
98602W        W63829  25.042  27.434   2.580
98603W        W63830  18.122  10.221   3.289
98604W        W63831  43.728  41.892  11.651
98605W        W63832  31.000  39.443  12.277
98606W        W63833   1.639  21.699   0.475
98607W        W63834  40.048  18.353   1.086
98608W        W63835  15.307  29.555   4.588
98609W        W63836  39.968   4.467   1.585
98610W        W63837  40.883  27.714   2.765
98611W        W63838   6.230   3.961  12.254
98612W        W63839  32.085   3.965   1.156
98613W        W63840  38.944  30.016  14.603
98614W        W63841   2.390  34.880  14.034
98615W        W63842  33.960  23.997  10.683
98616W        W63843  16.308  11.365  13.214
98617W        W63844  10.686  14.810   9.686
98618W        W63845   4.729  20.991   1.378
98619W        W63846   5.552   5.740   4.895
98620W        W63847  42.759  34.452  11.598
98621W        W63848   8.432  22.310   0.955
98622W        W63849   4.814  40.822   4.489
98623W        W63850  40.937   3.475  11.051
98624W        W63851  35.857  36.384  10.527
98625W        W63852  36.889   0.037  10.788
98626W        W63853   1.271  26.919   1.391
98627W        W63854  34.463  44.084  10.839
98628W        W63855  10.145   9.134   0.017
98629W        W63856   0.142  41.122  10.134
98630W        W63857   5.402  25.305  13.490
98631W        W63858   4.233   7.844   0.329
98632W        W63859  43.500  11.868   4.970
98633W        W63860   6.319  31.452   4.232
98634W        W63861  11.747  15.505  13.764
98635W        W63862  30.499  23.963   1.352
98636W        W63863  27.999   1.194  14.663
98637W        W63864  19.113  35.934  14.021
98638W        W63865  27.541  38.056   0.376
98639W        W63866  26.706   1.485  12.119
98640W        W63867  42.444  29.880  12.907
98641W        W63868   2.712   4.788  13.754
98642W        W63869  24.764  41.962   2.256
98643W        W63870  41.281  39.467   0.398
98644W        W63871  20.317  13.399  11.542
98645W        W63872  37.825  19.143   0.258
98646W        W63873  27.200  23.625  12.924
98647W        W63874  25.489  17.291  11.242
98648W        W63875  12.916  22.636  10.663
98649W        W63876  30.358  11.815   1.632
98650W        W63877  11.303  29.109   2.806
98651W        W63878  24.270  22.604  13.694
98652W        W63879  28.460  22.411   3.306
98653W        W63880  23.930   1.653   2.278
98654W        W63881   2.852   7.826  12.047
98655W        W63882   1.862  18.796  12.937
98656W        W63883   0.764   5.652  13.387
98657W        W63884  33.964  27.941   2.095
98658W        W63885  13.714   8.758  10.933
98659W        W63886  10.935   2.723   1.754
98660W        W63887  19.210  18.827  14.035
98661W        W63888  38.420  11.268  11.468
98662W        W63889  44.749  11.730  12.594
98663W        W63890  26.845  38.505   0.660
98664W        W63891  11.718  34.881  12.320
98665W        W63892  16.300   4.942  12.470
98666W        W63893  39.789   8.287   2.857
98667W        W63894  32.833  31.184  12.608
98668W        W63895  19.640  30.575  11.263
98669W        W63896  17.831  34.730  12.575
98670W        W63897  26.193  31.775   4.900
98671W        W63898  35.305  32.229  14.466
98672W        W63899  33.109  44.388  11.537
98673W        W63900  14.780  44.663   4.209
98674W        W63901  25.225  13.298  11.940
98675W        W63902  44.311  16.555   1.856
98676W        W63903  20.563  29.655   1.155
98677W        W63904   0.061   8.661   4.806
98678W        W63905  30.998  33.564  13.454
98679W        W63906  29.666   6.327   1.457
98680W        W63907  16.426   7.082  13.859
98681W        W63908  10.638  15.105   3.762
98682W        W63909  43.981  43.339  14.778
98683W        W63910   9.350  11.315   4.650
98684W        W63911  44.440  24.570   4.374
98685W        W63912  34.397  18.741   1.020
98686W        W63913  36.335  14.215  12.096
98687W        W63914  44.701  26.006   1.361
98688W        W63915  29.097   3.204   3.632
98689W        W63916  20.351  13.181  13.808
98690W        W63917  40.770  33.679   0.326
98691W        W63918  43.172  34.191   4.603
98692W        W63919  40.962  28.484  14.599
98693W        W63920  23.480  19.276   2.778
98694W        W63921   2.289  37.019   1.511
98695W        W63922   5.074  29.103  10.678
98696W        W63923   6.914  28.537   0.098
98697W        W63924  17.654  37.039   1.772
98698W        W63925  16.300  18.007   0.024
98699W        W63926  30.399   2.471  12.290
98700W        W63927  23.031   3.634   2.668
98701W        W63928  26.623  15.612  10.098
98702W        W63929  43.300  22.119  14.770
98703W        W63930  24.661  31.362   1.185
98704W        W63931  13.597  30.506   3.999
98705W        W63932   0.426   3.369  10.377
98706W        W63933  32.288  37.588   0.642
98707W        W63934  32.086  11.106  10.726
98708W        W63935   7.786  31.894  13.282
98709W        W63936  32.520  18.826  14.472
98710W        W63937  26.997  32.136  10.314
98711W        W63938  19.985  33.910  14.329
98712W        W63939  31.605  23.191   4.560
98713W        W63940   3.675   4.316   3.632
98714W        W63941  13.753  14.628  11.637
98715W        W63942  20.660   3.782  12.320
98716W        W63943  10.894  15.125   1.324
98717W        W63944  27.988  38.776  11.805
98718W        W63945  17.664  30.538  10.475
98719W        W63946   8.182   6.069  14.084
98720W        W63947  29.479  41.603   4.143
98721W        W63948   7.413  24.405  13.892
98722W        W63949  28.569  40.679   3.285
98723W        W63950   5.315  20.114   3.994
98724W        W63951  34.821   0.977  11.681
98725W        W63952   5.363  43.055  13.757
98726W        W63953  38.433  15.089  13.135
98727W        W63954  12.320   5.901   1.100
98728W        W63955  21.238   3.646   1.892
98729W        W63956  28.708   9.033  13.760
98730W        W63957  42.429  13.990  13.588
98731W        W63958   3.454   6.496   4.157
98732W        W63959  23.497  43.945  14.203
98733W        W63960  24.963  41.495  14.091
98734W        W63961  13.645  40.066   3.256
98735W        W63962  12.984  27.145  14.582
98736W        W63963  41.813  36.319   0.291
98737W        W63964  20.179  19.391   4.335
98738W        W63965  31.416   2.057  13.016
98739W        W63966  40.949  40.949   4.334
98740W        W63967  19.379  38.400  11.968
98741W        W63968  22.584  26.197   0.710
98742W        W63969  11.393  15.009   4.856
98743W        W63970  30.720  22.254  13.075
98744W        W63971  44.833   6.831   3.771
98745W        W63972   1.122  23.387  10.252
98746W        W63973  15.261  43.393  14.701
98747W        W63974   1.804  19.231   3.665
98748W        W63975  41.996  35.246  12.018
98749W        W63976  21.651  10.158   5.013
98750W        W63977   8.526  42.392  13.887
98751W        W63978  24.820   9.316   3.793
98752W        W63979  26.714  38.100   0.982
98753W        W63980  32.617  35.749   4.200
98754W        W63981  24.931  18.467   0.956
98755W        W63982  34.660  11.781  10.760
98756W        W63983  19.634  30.719   2.848
98757W        W63984   7.732   3.339  11.220
98758W        W63985  27.237  34.899   0.267
98759W        W63986  44.534  26.387   0.414
98760W        W63987   7.888  38.425  10.288
98761W        W63988  30.225  34.496   0.263
98762W        W63989  18.294   7.885  12.490
98763W        W63990  19.792   3.394  11.915
98764W        W63991  38.997  19.101   1.233
98765W        W63992  23.218  16.763   4.706
98766W        W63993  26.077   6.207  14.442
98767W        W63994  34.510   9.549  12.155
98768W        W63995  18.764  44.249   3.133
98769W        W63996  29.314  31.246   0.664
98770W        W63997  38.513  43.750   4.048
98771W        W63998  10.291  40.889   4.296
98772W        W63999  10.266  10.251  12.510
98773W        W64000  38.556  20.473  13.197
98774W        W64001  15.390  11.876   1.271
98775W        W64002  14.135  34.082  11.519
98776W        W64003  34.534  29.681   4.351
98777W        W64004   5.331  17.967   2.384
98778W        W64005  10.240  41.878  11.592
98779W        W64006  18.658  28.180   2.847
98780W        W64007  20.990   1.812   3.225
98781W        W64008  37.953   7.917  14.046
98782W        W64009   4.922  21.525   1.326
98783W        W64010  11.103   9.663   2.808
98784W        W64011  18.867  37.338  12.674
98785W        W64012  22.212  20.989   4.821
98786W        W64013  38.763  38.930  10.445
98787W        W64014  12.326  37.490   2.083
98788W        W64015  42.219  10.953   1.289
98789W        W64016   4.202  17.679  13.297
98790W        W64017  40.543  20.604   1.815
98791W        W64018  32.552  14.615   3.182
98792W        W64019  24.167  19.923   3.118
98793W        W64020   8.464  25.267   3.878
98794W        W64021  26.494  11.874   3.312
98795W        W64022  44.040  28.177   0.424
98796W        W64023  21.735  37.306   2.367
98797W        W64024   6.137  24.788  11.846
98798W        W64025  40.510  18.282  13.529
98799W        W64026  33.958  28.814   0.459
98800W        W64027   1.672  20.085   1.766
98801W        W64028  14.064  26.646   0.863
98802W        W64029   0.157  41.713   4.637
98803W        W64030  12.876  29.567   3.257
98804W        W64031  11.391  30.142   5.451
98805W        W64032  39.038  12.846   4.572
98806W        W64033  27.484  22.567  11.487
98807W        W64034  29.408   1.284   1.343
98808W        W64035  33.437  28.890   2.868
98809W        W64036  32.399  32.078   1.846
98810W        W64037  36.010  33.515   2.677
98811W        W64038  38.012  12.890  13.766
98812W        W64039   6.431  22.903  10.821
98813W        W64040   8.113  22.562   3.961
98814W        W64041  31.172  14.087  11.154
98815W        W64042  24.237  29.367  14.294
98816W        W64043  21.170  34.345   2.465
98817W        W64044  25.043  42.762  14.749
98818W        W64045   8.112  26.063   0.221
98819W        W64046  11.347  41.533  12.966
98820W        W64047  35.515  10.616   4.364
98821W        W64048   3.388  19.253  14.314
98822W        W64049   3.818  15.817   1.201
98823W        W64050  42.067  36.040  12.480
98824W        W64051  19.464  44.743  13.620
98825W        W64052  21.448  38.619   1.818
98826W        W64053   1.879   8.289   2.237
98827W        W64054  30.723  26.135   5.049
98828W        W64055  27.497  19.614  11.625
98829W        W64056  39.421  39.388  12.118
98830W        W64057  11.179  33.546  13.803
98831W        W64058  31.866  11.721   4.789
98832W        W64059  13.192  43.363  11.387
98833W        W64060  29.148   5.676  12.859
98834W        W64061   5.639  26.849  14.957
98835W        W64062  29.803  44.290   3.700
98836W        W64063  27.490  33.993   1.831
98837W        W64064  33.633  13.531  13.983
98838W        W64065  44.005  33.409   2.835
98839W        W64066   0.687  35.730   3.086
98840W        W64067   7.151  13.305  12.262
98841W        W64068  30.203  21.071   0.848
98842W        W64069  37.404  15.495   2.272
98843W        W64070  40.228  24.540   1.806
98844W        W64071  18.696  23.313  10.195
98845W        W64072  26.718  37.888   3.700
98846W        W64073  11.699  37.461  13.971
98847W        W64074  34.065   6.990  14.350
98848W        W64075  29.806  15.398   1.433
98849W        W64076  32.335  28.270  13.003
98850W        W64077   0.365  15.917   0.901
98851W        W64078  19.997  11.269  14.419
98852W        W64079  38.533  33.398  14.896
98853W        W64080  39.723  18.706   0.736
98854W        W64081  24.980  10.710   2.275
98855W        W64082  19.327  33.048   4.604
98856W        W64083  22.050   9.803  12.135
98857W        W64084  37.999   1.515  12.111
98858W        W64085  33.581  18.991   2.281
98859W        W64086  27.104   0.712   0.783
98860W        W64087   6.666  42.267  12.608
98861W        W64088  30.902   7.862  14.785
98862W        W64089  19.193  39.971   2.221
98863W        W64090   1.584   6.346  11.108
98864W        W64091  14.752  22.868  11.688
98865W        W64092  29.995  15.632  11.906
98866W        W64093  36.192  42.882  11.105
98867W        W64094  33.803  28.066   5.058
98868W        W64095  39.015  17.212   4.646
98869W        W64096   4.823  44.694  13.837
98870W        W64097  23.644  32.886   3.592
98871W        W64098  31.468  26.738   0.740
98872W        W64099  33.657  43.054   2.997
98873W        W64100  18.626  36.016   0.708
98874W        W64101  34.613  16.799   2.157
98875W        W64102  29.938  39.721  13.089
98876W        W64103  15.715  11.322   0.393
98877W        W64104  26.260  28.173  11.596
98878W        W64105  44.996  15.274   4.507
98879W        W64106  28.625   3.562   0.825
98880W        W64107  42.000   3.650   1.350
98881W        W64108   2.763  39.111  11.750
98882W        W64109  29.999  33.903  12.089
98883W        W64110  16.536  38.932  13.516
98884W        W64111   7.051   2.203   0.362
98885W        W64112  33.141  39.907  13.526
98886W        W64113  37.982  27.451   2.767
98887W        W64114  21.645  25.123   1.012
98888W        W64115  30.580  15.101   0.938
98889W        W64116  16.316  20.310  11.215
98890W        W64117  26.378  19.589   3.392
98891W        W64118   1.964  39.012  13.336
98892W        W64119  18.367  15.373   0.349
98893W        W64120  11.100  34.277   1.176
98894W        W64121  31.595  31.572   0.275
98895W        W64122  26.193  36.622  13.926
98896W        W64123  40.868  25.185   4.063
98897W        W64124   0.797  28.252  14.929
98898W        W64125  34.918  25.152  13.037
98899W        W64126  24.319  42.426  12.074
98900W        W64127  23.466   8.754   0.114
98901W        W64128  11.885  40.791  13.399
98902W        W64129   7.817  34.307   4.817
98903W        W64130   6.370  37.355   1.480
98904W        W64131  25.990  13.244  11.146
98905W        W64132  19.656  21.736   3.479
98906W        W64133  12.163   6.981  13.443
98907W        W64134  24.206   2.866  13.553
98908W        W64135  11.625  21.323  13.051
98909W        W64136  39.079  24.382   2.283
98910W        W64137  40.981  27.243   0.972
98911W        W64138  28.924   8.890   4.685
98912W        W64139  12.209   9.233  13.922
98913W        W64140  40.801  35.163  13.570
98914W        W64141   0.177  30.877   5.067
98915W        W64142  18.707  13.679  13.846
98916W        W64143  38.121   2.406   0.099
98917W        W64144  21.640  21.975   0.498
98918W        W64145   3.439  17.706  12.880
98919W        W64146  19.596  41.440   2.374
98920W        W64147   8.268  21.296   0.689
98921W        W64148  26.222   7.374   0.071
98922W        W64149  29.474  38.804  12.626
98923W        W64150   4.232  17.365   1.348
98924W        W64151   9.147   9.700   2.894
98925W        W64152   6.661  40.547   0.781
98926W        W64153  36.006  41.490  11.225
98927W        W64154   3.229  20.263  14.472
98928W        W64155   1.089  19.854   3.141
98929W        W64156   8.155  11.494   4.085
98930W        W64157  42.225  11.081  13.847
98931W        W64158  22.765  20.763   0.727
98932W        W64159   6.391  23.595   0.271
98933W        W64160  41.310  23.988   0.478
98934W        W64161  39.034  33.852  13.872
98935W        W64162  20.567  13.730   0.433
98936W        W64163   9.707  31.661   1.321
98937W        W64164  15.321  17.256  10.578
98938W        W64165  15.274  40.828  10.705
98939W        W64166  35.145  28.887   0.697
98940W        W64167  14.670  28.920   3.659
98941W        W64168  18.061  36.018  10.692
98942W        W64169  41.820  28.195  10.374
98943W        W64170   5.955  34.458   2.134
98944W        W64171  35.998  39.391  11.913
98945W        W64172  10.280  20.271  10.245
98946W        W64173  16.366  39.879   4.217
98947W        W64174  17.526  21.627   0.805
98948W        W64175  16.040  16.809   3.319
98949W        W64176  22.974  10.181   2.107
98950W        W64177  15.231  15.139   2.150
98951W        W64178  14.103  12.014  13.401
98952W        W64179   4.247  18.793  11.480
98953W        W64180  19.913  38.239  11.351
98954W        W64181  43.073  43.931  13.971
98955W        W64182  20.509   2.809   1.795
98956W        W64183   6.247   6.968   2.211
98957W        W64184  15.636  44.543   4.190
98958W        W64185  35.046  20.403   3.246
98959W        W64186  44.196   6.791   1.178
98960W        W64187   8.452  18.087   0.329
98961W        W64188   9.188  18.392   3.432
98962W        W64189  34.028  43.462  11.464
98963W        W64190  15.188  24.041  13.073
98964W        W64191  38.608  26.135   3.119
98965W        W64192  27.033  39.541   4.506
98966W        W64193  16.598  30.346   3.494
98967W        W64194  38.437  36.426   3.568
98968W        W64195  32.908  24.409   3.217
98969W        W64196  14.616  41.948   4.089
98970W        W64197  25.106  17.114   2.206
98971W        W64198  44.924  11.549  13.588
98972W        W64199  19.921  26.689   4.172
98973W        W64200  20.254  17.312   2.795
98974W        W64201  43.333  39.238  11.565
98975W        W64202  31.696  15.933   3.721
98976W        W64203   0.940  23.276   2.588
98977W        W64204   1.698  15.258   0.851
98978W        W64205  10.020  31.186   3.573
98979W        W64206  37.383  44.323  11.894
98980W        W64207  29.019  27.410   1.968
98981W        W64208  44.107   4.182   1.277
98982W        W64209  40.613  26.226   2.252
98983W        W64210  41.718  33.686  13.651
98984W        W64211  13.047  27.394   1.930
98985W        W64212   9.841   2.422  12.069
98986W        W64213  40.023   6.529  13.548
98987W        W64214  33.904   7.803  14.823
98988W        W64215  33.218  39.968  12.450
98989W        W64216   4.498  36.595   1.819
98990W        W64217   8.166  30.887  10.817
98991W        W64218  20.566  21.102   1.288
98992W        W64219   7.321  36.569   1.748
98993W        W64220  34.989  15.591   2.096
98994W        W64221   8.319  25.718   0.771
98995W        W64222  42.735  27.484   4.154
98996W        W64223  20.057  39.906   3.190
98997W        W64224  27.041   0.472  12.382
98998W        W64225  16.507  10.908  13.415
98999W        W64226   2.448   9.669  12.548
99000W        W64227   5.225  36.514  13.680
99001W        W64228  35.978  17.884  12.465
99002W        W64229  40.610  18.822   2.133
99003W        W64230  34.986  23.522  12.044
99004W        W64231  36.412  38.369  13.829
99005W        W64232  40.358   4.361   3.631
99006W        W64233  13.952   9.359   1.488
99007W        W64234  17.069  15.440   3.725
99008W        W64235  20.697  39.379  14.288
99009W        W64236  38.554  34.578   1.748
99010W        W64237  23.699   9.455  12.519
99011W        W64238   5.928  40.787  10.677
99012W        W64239  12.022  36.561  10.793
99013W        W64240  40.854  37.356  14.740
99014W        W64241  11.515  34.640   2.766
99015W        W64242  42.531   6.424  13.631
99016W        W64243  28.932  33.359  12.979
99017W        W64244  31.437  34.182   2.279
99018W        W64245  15.601  34.147   2.891
99019W        W64246  18.653  25.701  13.611
99020W        W64247   9.586   1.890   2.299
99021W        W64248   1.239  39.613   0.332
99022W        W64249  25.439  22.655  10.426
99023W        W64250  21.977  44.906   5.499
99024W        W64251  43.951  27.648  13.147
99025W        W64252  33.491  39.992   0.713
99026W        W64253   3.309  17.950  13.768
99027W        W64254  38.392   5.430   2.604
99028W        W64255  38.065  17.085  11.253
99029W        W64256   8.284  32.389   4.476
99030W        W64257   7.333  41.488   3.044
99031W        W64258  31.656   4.500   2.679
99032W        W64259  22.529  12.677   1.501
99033W        W64260   6.872   0.950  10.556
99034W        W64261  43.065  39.471   3.256
99035W        W64262  40.955   7.039   5.274
99036W        W64263  19.190  22.294  11.739
99037W        W64264  44.914  42.332   4.476
99038W        W64265  12.734  10.448   4.554
99039W        W64266  44.495   2.928  10.655
99040W        W64267  17.748  16.765   0.296
99041W        W64268  12.657  14.887   1.885
99042W        W64269  41.590  43.233  12.007
99043W        W64270  39.086  17.697  14.442
99044W        W64271   1.920   3.794   2.971
99045W        W64272  38.097   3.858  11.045
99046W        W64273  12.726   2.963   3.213
99047W        W64274   3.866  28.104  13.934
99048W        W64275  26.957  19.586  12.381
99049W        W64276  25.784  30.993   2.512
99050W        W64277  12.950  31.577  12.288
99051W        W64278   7.107  37.599  11.564
99052W        W64279  24.365  39.434   3.520
99053W        W64280   2.666  38.783   4.632
99054W        W64281  20.868  27.923   0.336
99055W        W64282  30.940   9.636   3.832
99056W        W64283  11.512   7.165  11.882
99057W        W64284  37.855  32.079  11.903
99058W        W64285  31.644  28.622   1.199
99059W        W64286  35.066  25.029  11.653
99060W        W64287  18.758  16.460  13.878
99061W        W64288  32.614  19.565   2.857
99062W        W64289  21.035  13.623  13.590
99063W        W64290  16.080  29.021   0.991
99064W        W64291   9.713   2.781  14.124
99065W        W64292   7.359  39.042  10.133
99066W        W64293  13.282   1.311   3.575
99067W        W64294  11.756  28.451  12.591
99068W        W64295  13.919   5.957   4.096
99069W        W64296  39.023   2.110   1.209
99070W        W64297  13.173  21.237  13.645
99071W        W64298   5.531  35.525   0.967
99072W        W64299   3.935  21.363  12.101
99073W        W64300   7.983  25.785  12.066
99074W        W64301  17.896   1.312   2.225
99075W        W64302  14.707  23.277  12.208
99076W        W64303   2.548  24.662   3.852
99077W        W64304  20.252  27.343  14.933
99078W        W64305  29.812  32.337  12.875
99079W        W64306  16.027  34.896   0.725
99080W        W64307   7.354  42.452   3.124
99081W        W64308   8.206  19.020   1.197
99082W        W64309  10.911  19.119  12.867
99083W        W64310  42.514  11.602  13.154
99084W        W64311  28.764   8.885   3.536
99085W        W64312   1.233  44.380   2.215
99086W        W64313  29.978  15.333  13.758
99087W        W64314  23.101  31.501   2.118
99088W        W64315  10.092  12.268  14.752
99089W        W64316   1.427  36.922  13.766
99090W        W64317  16.792  44.027   0.759
99091W        W64318  23.184  19.243   2.185
99092W        W64319  28.370  36.629  11.322
99093W        W64320  30.884   8.715   0.791
99094W        W64321  30.219   7.245  11.844
99095W        W64322  26.719  38.362  13.680
99096W        W64323  14.638  26.435   3.550
99097W        W64324  15.905  17.612   0.846
99098W        W64325  16.905   6.859   2.016
99099W        W64326  16.040  41.054   0.550
99100W        W64327  13.139  22.788   0.341
99101W        W64328   3.975   7.401  10.628
99102W        W64329  35.168   2.265  12.022
99103W        W64330   8.556  31.074   3.582
99104W        W64331   5.196  31.383  14.293
99105W        W64332  27.930  32.470   3.272
99106W        W64333  18.514  40.307  11.573
99107W        W64334  34.476   5.847  10.925
99108W        W64335  10.335  12.286   4.185
99109W        W64336  34.547   4.930  11.447
99110W        W64337   5.280  14.068   4.094
99111W        W64338   9.310  38.796  14.751
99112W        W64339   8.902  23.059   4.105
99113W        W64340  21.425  15.055   1.368
99114W        W64341  15.966  37.870   2.009
99115W        W64342  32.638  15.598   3.254
99116W        W64343  32.200  15.703  12.115
99117W        W64344  18.004  17.225  10.685
99118W        W64345  28.494  44.928   3.941
99119W        W64346  12.087  31.384   2.207
99120W        W64347  11.617  19.542   4.659
99121W        W64348  28.589   6.299  12.181
99122W        W64349   5.402  36.992  12.760
99123W        W64350   1.537   9.498  11.125
99124W        W64351  43.854  36.924   3.401
99125W        W64352  31.526  20.808  13.097
99126W        W64353   9.469   1.603  11.766
99127W        W64354  13.048   7.495   4.618
99128W        W64355  40.283  15.171   1.806
99129W        W64356  30.232  13.810   0.470
99130W        W64357  42.682   3.996   2.413
99131W        W64358  18.158   7.668  13.327
99132W        W64359  44.000   7.686   1.446
99133W        W64360   7.872   7.156   3.668
99134W        W64361  40.470  37.965   3.858
99135W        W64362  20.550  15.756  11.493
99136W        W64363  21.078  44.005  12.695
99137W        W64364   2.420   7.390   3.758
99138W        W64365  25.354   1.253  12.543
99139W        W64366   2.404  11.500  11.667
99140W        W64367   7.686  18.385  13.602
99141W        W64368  43.381  23.631  13.945
99142W        W64369  29.648  37.515  13.517
99143W        W64370  24.528   1.832  14.075
99144W        W64371  18.240   6.158  11.605
99145W        W64372  26.642  37.500   0.507
99146W        W64373  44.284   0.353   2.108
99147W        W64374  41.322   3.853   2.443
99148W        W64375   1.045  21.076  13.228
99149W        W64376  38.890   5.412   1.313
99150W        W64377  40.930  22.640   3.171
99151W        W64378  15.147  17.743   4.476
99152W        W64379  42.433  35.321   0.866
99153W        W64380  18.637  12.221  12.503
99154W        W64381  40.034  15.345   4.189
99155W        W64382  11.670  12.471   1.346
99156W        W64383   3.988  19.596  12.493
99157W        W64384  11.698  16.613   0.509
99158W        W64385  13.105  18.476  12.545
99159W        W64386   0.776  18.199   0.334
99160W        W64387  16.419   7.381  12.809
99161W        W64388  34.311  36.458   0.840
99162W        W64389  22.610  42.259   2.400
99163W        W64390  22.032  31.793  13.670
99164W        W64391  39.825  35.100  11.002
99165W        W64392  12.073   8.880   0.239
99166W        W64393   9.292  31.430  12.954
99167W        W64394  21.292  17.114  13.383
99168W        W64395  23.791  44.502   2.675
99169W        W64396  34.755  20.613   1.249
99170W        W64397  22.514  27.364  13.359
99171W        W64398   4.847  25.453   3.871
99172W        W64399   3.041  16.854   0.710
99173W        W64400  39.742  19.659   1.886
99174W        W64401  39.225  43.954   2.692
99175W        W64402  26.513   3.348  14.838
99176W        W64403   9.720   5.411   2.391
99177W        W64404  24.014  19.946  12.862
99178W        W64405  37.687   5.840   0.992
99179W        W64406   1.383  35.469  12.918
99180W        W64407  37.910  41.548   0.974
99181W        W64408  26.120  41.729  12.070
99182W        W64409  21.405  42.946   1.357
99183W        W64410   1.465  26.759   0.887
99184W        W64411  38.889  15.057   2.695
99185W        W64412  40.687  21.658   0.839
99186W        W64413  38.259   5.460  12.786
99187W        W64414  22.685   2.561   2.119
99188W        W64415  16.733  27.058   3.637
99189W        W64416  13.475  35.405  11.497
99190W        W64417  44.789   2.848   2.685
99191W        W64418  20.119   1.272  10.376
99192W        W64419  39.296  18.791  13.045
99193W        W64420  41.013  10.578   2.694
99194W        W64421  39.342  38.065  13.983
99195W        W64422  15.870  33.516  11.553
99196W        W64423  32.193  15.811   3.689
99197W        W64424  12.277  35.989   2.364
99198W        W64425  36.112  17.142  13.476
99199W        W64426  28.990   9.251  12.499
99200W        W64427   8.355  41.834   0.886
99201W        W64428  37.319  26.242  11.503
99202W        W64429  10.181  25.069   2.729
99203W        W64430  10.520  38.901  13.018
99204W        W64431  20.718  13.470  11.916
99205W        W64432  33.583   1.095   2.406
99206W        W64433  41.895   5.950  13.937
99207W        W64434  41.744  39.144  12.148
99208W        W64435  39.481  31.619   3.709
99209W        W64436   4.086   4.763   1.512
99210W        W64437   5.411   8.672   1.963
99211W        W64438  12.002  33.388  12.439
99212W        W64439   7.377  10.663  11.605
99213W        W64440   2.281  40.672  13.540
99214W        W64441  39.764  43.702   0.412
99215W        W64442  13.126  32.837  14.932
99216W        W64443  22.680   6.131  10.721
99217W        W64444  14.793   2.687   1.734
99218W        W64445   1.890  23.284   2.681
99219W        W64446  17.860  10.990   3.317
99220W        W64447  11.179  40.833  12.164
99221W        W64448  26.159   5.909   0.945
99222W        W64449  32.539  34.906   2.366
99223W        W64450  11.053  38.406   4.692
99224W        W64451  28.794  30.666   4.904
99225W        W64452  32.054  27.410   0.880
99226W        W64453  41.715  38.169   4.281
99227W        W64454  15.303  40.784  12.005
99228W        W64455   2.528  19.408  11.450
99229W        W64456   6.401  37.926  11.619
99230W        W64457  34.182  38.808   2.023
99231W        W64458  12.581  16.079  14.185
99232W        W64459   0.512  20.386   2.271
99233W        W64460   8.247  16.389   5.198
99234W        W64461  10.968  38.997  12.788
99235W        W64462  10.640  17.161   2.193
99236W        W64463  37.400  44.268   2.737
99237W        W64464  14.775  12.738  14.885
99238W        W64465  23.777  40.809   0.841
99239W        W64466  37.547  37.370   4.772
99240W        W64467   4.128  22.197   3.654
99241W        W64468  26.713  19.198   4.528
99242W        W64469  20.224  35.567   2.195
99243W        W64470  12.914  38.373  14.838
99244W        W64471  38.653  12.748  11.575
99245W        W64472  19.535   9.511   3.228
99246W        W64473  24.432   5.270   4.921
99247W        W64474  41.868  38.513  12.776
99248W        W64475   4.945  39.431   2.781
99249W        W64476  31.581  43.782   0.935
99250W        W64477  16.183   3.795   3.002
99251W        W64478  30.695  28.908   2.080
99252W        W64479  27.395  38.500   3.860
99253W        W64480  40.446  20.817   2.279
99254W        W64481  25.774  27.496  11.174
99255W        W64482  44.439  23.832  12.549
99256W        W64483  34.929  26.493  12.141
99257W        W64484  34.449   9.133   4.231
99258W        W64485  33.547  30.243  10.127
99259W        W64486  23.788  43.333  13.858
99260W        W64487  11.076   3.197  11.564
99261W        W64488  33.021  17.918   1.303
99262W        W64489  43.338  23.056   1.418
99263W        W64490  12.394  36.390  14.420
99264W        W64491  34.694  26.529  10.496
99265W        W64492  17.874  27.167  14.426
99266W        W64493  31.160  19.531  11.139
99267W        W64494   2.097  13.707   3.268
99268W        W64495  36.269  38.952  13.134
99269W        W64496  44.450  22.775  13.965
99270W        W64497  35.717  16.774  10.906
99271W        W64498  37.467   0.686   1.236
99272W        W64499  12.941  35.142   9.814
99273W        W64500   5.661  37.701  11.630
99274W        W64501  35.131  25.501  13.446
99275W        W64502  10.187  27.607   1.644
99276W        W64503   3.501  38.956   1.361
99277W        W64504  22.745  14.614   2.169
99278W        W64505  15.961  44.387  14.606
99279W        W64506  22.014  10.225   4.662
99280W        W64507  18.388  42.105  11.967
99281W        W64508  32.539  10.636  11.093
99282W        W64509  38.410   7.974  14.916
99283W        W64510  17.568  24.380  14.276
99284W        W64511  37.038   4.426   3.895
99285W        W64512   3.982   8.346  12.370
99286W        W64513  21.417  27.374  11.496
99287W        W64514   5.338   5.292   0.548
99288W        W64515  35.876   0.799   1.927
99289W        W64516  34.473  36.201  10.500
99290W        W64517   5.212  15.830   3.771
99291W        W64518  14.249  13.657   4.654
99292W        W64519  44.312  23.092  13.573
99293W        W64520  17.803   7.378   2.866
99294W        W64521  35.883   9.650   2.255
99295W        W64522  11.510   3.030   2.872
99296W        W64523  39.137   1.480  11.973
99297W        W64524  42.547  32.176   3.189
99298W        W64525  10.933  35.335  13.329
99299W        W64526   2.204  25.992   3.965
99300W        W64527  18.581  43.877  14.689
99301W        W64528  28.397   6.336  10.241
99302W        W64529  15.728  41.147   2.229
99303W        W64530  28.065  23.822  13.849
99304W        W64531  42.788   5.329   3.189
99305W        W64532  28.643  42.940  13.486
99306W        W64533  27.502  21.327  12.992
99307W        W64534  10.225  24.999   9.928
99308W        W64535   4.421  33.378   4.830
99309W        W64536  26.634  13.573   1.360
99310W        W64537  36.374  39.507  13.892
99311W        W64538  13.567  38.881  11.416
99312W        W64539   6.644   6.066   4.213
99313W        W64540  37.964  14.082  11.123
99314W        W64541  35.363  24.654   2.716
99315W        W64542  30.858  38.016  13.875
99316W        W64543  11.460   2.637   1.597
99317W        W64544  18.822  36.513   0.990
99318W        W64545  38.447  22.748   4.118
99319W        W64546  38.971  39.883   0.285
99320W        W64547  30.169  43.971  13.110
99321W        W64548  40.566  42.306  14.949
99322W        W64549  14.266  18.711  12.523
99323W        W64550  40.967  26.599  14.048
99324W        W64551   6.307  18.209   3.587
99325W        W64552  34.509   9.873  10.770
99326W        W64553  24.229  44.417   1.256
99327W        W64554  15.243  13.827   3.711
99328W        W64555  11.781   9.839   4.151
99329W        W64556  18.977   0.030  12.076
99330W        W64557  26.032  23.019   0.864
99331W        W64558  31.040  20.681  12.922
99332W        W64559   1.170  12.882   2.831
99333W        W64560   0.900  11.104   4.633
99334W        W64561  32.793   6.998  11.238
99335W        W64562  18.049  28.512   2.353
99336W        W64563  33.060  15.371  13.246
99337W        W64564  18.037   2.247   4.564
99338W        W64565  36.576   6.086   3.077
99339W        W64566  30.486   9.710   4.108
99340W        W64567  17.678  38.705   2.359
99341W        W64568  36.060  18.726   3.274
99342W        W64569  42.318  38.115   2.334
99343W        W64570   5.417  18.860   0.402
99344W        W64571  17.831   5.263  10.570
99345W        W64572  17.716  19.501  10.677
99346W        W64573  25.209  13.582   3.367
99347W        W64574  32.055   1.381   0.082
99348W        W64575  31.693  12.556  14.388
99349W        W64576   9.266  12.863   4.798
99350W        W64577   0.192   3.386  13.950
99351W        W64578  16.451   9.773   2.122
99352W        W64579  23.704   0.432   1.816
99353W        W64580  16.106  28.055   3.426
99354W        W64581  13.185  27.929   1.900
99355W        W64582  22.914  42.831  14.120
99356W        W64583   2.697  12.409   2.124
99357W        W64584  20.104  41.989   0.491
99358W        W64585  29.019  16.325  10.731
99359W        W64586  25.020  18.297   3.874
99360W        W64587  20.811  38.544   3.659
99361W        W64588   9.111  23.532   4.095
99362W        W64589   5.117  35.762  10.751
99363W        W64590  29.971  21.296   1.245
99364W        W64591  43.620   9.430   3.495
99365W        W64592   8.372  36.685  14.276
99366W        W64593  43.768  26.611   4.221
99367W        W64594  10.025  32.312   1.860
99368W        W64595  23.955  35.095   1.294
99369W        W64596  14.585  21.475  12.223
99370W        W64597  24.346   9.712   4.719
99371W        W64598  16.368  25.674  12.643
99372W        W64599  18.058  29.008   2.637
99373W        W64600  33.190  13.166   1.219
99374W        W64601  15.735  24.161  14.475
99375W        W64602  10.653  41.511   3.159
99376W        W64603  29.578  30.645  12.017
99377W        W64604   8.761   2.749  14.110
99378W        W64605   2.933  43.622   4.033
99379W        W64606   5.529  31.694  11.129
99380W        W64607   6.723   0.279  13.722
99381W        W64608  41.496  39.098  10.592
99382W        W64609  23.357  43.413  10.172
99383W        W64610  15.352  15.614  14.980
99384W        W64611  35.414  21.811   0.409
99385W        W64612  18.644  31.042   2.632
99386W        W64613   7.044  14.664  13.476
99387W        W64614   6.859   0.890   4.443
99388W        W64615   4.370  40.353   5.025
99389W        W64616  13.893  24.016   4.141
99390W        W64617  14.598  28.534   1.827
99391W        W64618  27.681   5.043   0.435
99392W        W64619  11.638  42.748  11.416
99393W        W64620  38.029  44.403  12.079
99394W        W64621  14.286  27.483  13.128
99395W        W64622  10.405   0.269   2.386
99396W        W64623  20.361  12.844   4.818
99397W        W64624  20.076  18.066   2.133
99398W        W64625  19.563  18.462  13.941
99399W        W64626   7.720   2.969   4.539
99400W        W64627  25.294   9.225  13.270
99401W        W64628  39.377  22.501   1.039
99402W        W64629  31.559  21.797  10.477
99403W        W64630  40.284  10.243  10.802
99404W        W64631  14.042  42.977  14.615
99405W        W64632  23.267   2.421   3.740
99406W        W64633  16.074  39.890   3.231
99407W        W64634  28.637   9.327   2.359
99408W        W64635  38.247  21.299   0.474
99409W        W64636   6.339   7.684   0.170
99410W        W64637  28.574  31.386  12.453
99411W        W64638  34.490  22.736  12.161
99412W        W64639   1.413  27.669  11.086
99413W        W64640  13.761   3.136   2.674
99414W        W64641   5.765  11.210   1.925
99415W        W64642  18.875  18.008  12.627
99416W        W64643  16.003   3.610  14.754
99417W        W64644  31.760  17.141   3.176
99418W        W64645  15.116   6.758  12.938
99419W        W64646  17.206  17.859  12.375
99420W        W64647  36.026   9.855   4.356
99421W        W64648  39.373  37.793   0.879
99422W        W64649   9.434   7.600   1.261
99423W        W64650  14.826   2.210   2.686
99424W        W64651  39.452  40.344  10.408
99425W        W64652   7.842  42.740  13.740
99426W        W64653  15.832  34.547  11.649
99427W        W64654   3.758  22.776  14.932
99428W        W64655  16.879  25.984   1.918
99429W        W64656  19.504  35.148   0.633
99430W        W64657  15.669   6.664   2.233
99431W        W64658   1.824  21.291  11.634
99432W        W64659  39.638  32.890   4.651
99433W        W64660  43.847  14.261   1.407
99434W        W64661   8.671  41.817  13.499
99435W        W64662   2.006  31.868  11.901
99436W        W64663  44.368  34.135   0.864
99437W        W64664  39.850   2.941   3.703
99438W        W64665  35.019  20.528  12.442
99439W        W64666  37.280  23.118   3.900
99440W        W64667   5.891  36.543   1.849
99441W        W64668  25.706  35.821   3.398
99442W        W64669  38.254  43.947  11.989
99443W        W64670  26.146  14.144  14.262
99444W        W64671  16.621  32.148   3.306
99445W        W64672  31.611  17.974  12.096
99446W        W64673  25.043  10.218  14.449
99447W        W64674   4.502  29.475  13.547
99448W        W64675  38.787  32.582  12.565
99449W        W64676   5.801  12.329   3.674
99450W        W64677   0.047  21.800   4.236
99451W        W64678  19.102  34.462  14.539
99452W        W64679  33.660  44.205   4.142
99453W        W64680  27.011   7.263  11.914
99454W        W64681  42.570  31.047  11.091
99455W        W64682  39.624  34.440   4.262
99456W        W64683  22.072  38.368   3.122
99457W        W64684  14.868  25.492   4.767
99458W        W64685   4.362   6.651  14.732
99459W        W64686  36.301  13.159   1.917
99460W        W64687  13.953  10.972   3.183
99461W        W64688   6.639   9.898  13.522
99462W        W64689   7.521   5.414   0.412
99463W        W64690  38.059  21.094  13.605
99464W        W64691  29.384  21.924  14.335
99465W        W64692  25.234   5.076  12.103
99466W        W64693  17.730  20.421   2.177
99467W        W64694  44.808  27.589  14.071
99468W        W64695  41.448  11.310   0.888
99469W        W64696  27.284  12.004   2.128
99470W        W64697  39.485  16.636   4.253
99471W        W64698  13.265   3.885  12.870
99472W        W64699  22.357   5.098  14.079
99473W        W64700  33.068  35.481  14.523
99474W        W64701  28.724  30.273   1.206
99475W        W64702  19.727  21.280   3.198
99476W        W64703  31.896   4.122   0.503
99477W        W64704  18.368  42.388   1.587
99478W        W64705  18.448  32.035   2.831
99479W        W64706  13.647  40.609  11.097
99480W        W64707  40.144  30.327  12.843
99481W        W64708  24.206  24.591  14.332
99482W        W64709   2.602   9.616  11.177
99483W        W64710  34.445  15.126  12.209
99484W        W64711  39.484  33.984  13.634
99485W        W64712  24.676  11.651   2.345
99486W        W64713  37.038  37.946   2.981
99487W        W64714  11.650  36.522  13.818
99488W        W64715  20.471  33.052   2.739
99489W        W64716  39.031  39.776   3.615
99490W        W64717  44.310   2.432   2.186
99491W        W64718  43.905  32.054   3.324
99492W        W64719  22.806  25.525  10.921
99493W        W64720   7.364  44.577  13.834
99494W        W64721  44.125   5.859   4.267
99495W        W64722   0.495  15.271   0.310
99496W        W64723  22.270  41.790   3.613
99497W        W64724  27.217   9.151  14.001
99498W        W64725  32.023   6.174   2.369
99499W        W64726  10.441   5.438   3.604
99500W        W64727  40.257  27.529   0.484
99501W        W64728  39.040   1.525   1.721
99502W        W64729  26.553  30.527  13.280
99503W        W64730  29.650  40.054  10.569
99504W        W64731  37.042  37.635   4.025
99505W        W64732  29.125  29.704  12.565
99506W        W64733  12.622  41.970  11.997
99507W        W64734   1.994  24.174   1.391
99508W        W64735  38.093  16.599  11.089
99509W        W64736  26.408   7.192  14.578
99510W        W64737  12.695  11.070  12.304
99511W        W64738  21.066   1.228   3.834
99512W        W64739  16.802   7.602   3.744
99513W        W64740  30.560  42.152  14.317
99514W        W64741  36.304  10.400   3.211
99515W        W64742  10.813  36.320  13.710
99516W        W64743  16.248  41.759  11.170
99517W        W64744   9.718  26.470  12.513
99518W        W64745  43.195   2.478   1.187
99519W        W64746  32.107   0.012   0.800
99520W        W64747  25.776  25.654  14.317
99521W        W64748  23.968  37.796   0.436
99522W        W64749  40.077  44.315   4.146
99523W        W64750  36.439  43.584  13.406
99524W        W64751  14.208   4.771   0.278
99525W        W64752  23.574  33.036  10.946
99526W        W64753  42.068  11.196   2.787
99527W        W64754   5.116  29.257  12.394
99528W        W64755  29.723  10.283  12.999
99529W        W64756  12.155  19.335  14.050
99530W        W64757   0.309  26.796  13.084
99531W        W64758  44.003  10.766  14.221
99532W        W64759  12.997  33.102   3.152
99533W        W64760  34.918  31.083  12.350
99534W        W64761   8.249  18.674  10.428
99535W        W64762  14.607  33.998  14.882
99536W        W64763  19.199  36.520   1.366
99537W        W64764  22.237  36.099   3.713
99538W        W64765  22.695  17.254  12.781
99539W        W64766   5.901   1.227  10.380
99540W        W64767   6.748  13.082  11.844
99541W        W64768  13.602  15.705   0.991
99542W        W64769  14.546  24.564  13.301
99543W        W64770  36.001  13.825   0.296
99544W        W64771  31.532  31.237  14.882
99545W        W64772  29.645  12.689  10.993
99546W        W64773  39.033   4.494  10.304
99547W        W64774  35.862  19.159  13.922
99548W        W64775  40.402   0.023  12.414
99549W        W64776  14.128  16.664   0.423
99550W        W64777  14.820  28.132   3.063
99551W        W64778  29.930  30.353  13.861
99552W        W64779   7.117  40.575   3.359
99553W        W64780   1.218  35.623  10.636
99554W        W64781  12.818  38.873  12.582
99555W        W64782  28.901  10.414   4.394
99556W        W64783  28.818  29.715   0.247
99557W        W64784  18.459   6.264   3.283
99558W        W64785   0.340  14.742   0.844
99559W        W64786  37.577  36.787  11.406
99560W        W64787   4.406  28.323  13.564
99561W        W64788   5.918  36.040  11.187
99562W        W64789  16.624  11.848   0.433
99563W        W64790  31.163  12.743  13.612
99564W        W64791  29.512  18.227   4.472
99565W        W64792  13.048   4.526  14.918
99566W        W64793  18.100   6.798   3.623
99567W        W64794  28.404  40.002  13.489
99568W        W64795  35.074   7.891   4.558
99569W        W64796  18.291  22.947   1.914
99570W        W64797  17.783  15.612  13.515
99571W        W64798  13.995   4.304   0.755
99572W        W64799  21.821  18.267   4.080
99573W        W64800  31.554   1.766  13.991
99574W        W64801  37.898  33.451  13.538
99575W        W64802  28.485  42.904   4.988
99576W        W64803  21.495  12.593   3.470
99577W        W64804   2.014  36.537  10.635
99578W        W64805  17.338  28.366   4.770
99579W        W64806  22.891  27.228  14.333
99580W        W64807  29.983   4.337  11.565
99581W        W64808  30.584   1.352  14.229
99582W        W64809  30.751  36.414  12.549
99583W        W64810  15.373  38.449   0.490
99584W        W64811  33.218  35.867   2.414
99585W        W64812  34.031  42.762   2.764
99586W        W64813  15.035  16.605  14.074
99587W        W64814   1.480  36.590  10.766
99588W        W64815  41.445  36.347  13.370
99589W        W64816  34.101   5.610  13.105
99590W        W64817  36.206  21.535   4.510
99591W        W64818  25.245  20.517   0.473
99592W        W64819  17.880  23.226  13.417
99593W        W64820  10.225  27.004  12.464
99594W        W64821   0.840  37.647   2.814
99595W        W64822   1.208   9.910   0.883
99596W        W64823  36.454  11.363   3.270
99597W        W64824   1.009  26.882   0.590
99598W        W64825  17.351  35.314   4.153
99599W        W64826  32.674  44.443   2.264
99600W        W64827  31.367   0.558  12.966
99601W        W64828   0.522  13.354  10.735
99602W        W64829  27.656  26.201  14.586
99603W        W64830  27.282  43.372   4.627
99604W        W64831  27.139  44.133   2.232
99605W        W64832  12.720  43.596   2.657
99606W        W64833  40.914  29.479  12.053
99607W        W64834   8.427  35.473  11.218
99608W        W64835  16.123  38.433  11.673
99609W        W64836   4.292  34.471  14.756
99610W        W64837  34.910   4.361  14.633
99611W        W64838   0.099  36.367   0.897
99612W        W64839   0.474   5.984   0.128
99613W        W64840  22.747   9.714   2.451
99614W        W64841  17.692  24.657   4.684
99615W        W64842  34.875  24.226   2.234
99616W        W64843  19.180  22.991   0.808
99617W        W64844  10.459   0.474  14.017
99618W        W64845  15.144  39.755   3.613
99619W        W64846  17.027  34.078   0.224
99620W        W64847  19.032  36.629  11.499
99621W        W64848  20.754  17.943  12.918
99622W        W64849   0.906  29.660   1.788
99623W        W64850   6.585  17.509   2.299
99624W        W64851  18.714  24.135   2.846
99625W        W64852   9.053   6.747   4.158
99626W        W64853   7.988   4.833   1.602
99627W        W64854  41.663  16.832   3.283
99628W        W64855  42.960  32.176   1.788
99629W        W64856  26.489  41.895  13.418
99630W        W64857  32.628  32.627   2.203
99631W        W64858  36.539  41.602   2.180
99632W        W64859  38.804   4.324  11.050
99633W        W64860  25.420   3.255  13.088
99634W        W64861  42.924  20.733  11.918
99635W        W64862  43.760  41.369  11.682
99636W        W64863  43.843  35.054   3.089
99637W        W64864  30.016  18.646  12.882
99638W        W64865  13.933   5.416   4.076
99639W        W64866  24.230  24.603  12.205
99640W        W64867  20.732  10.520  13.471
99641W        W64868  42.330  11.487   1.153
99642W        W64869  24.971  27.980  12.003
99643W        W64870  22.061  26.155  10.763
99644W        W64871   7.937   4.556   4.395
99645W        W64872  42.469  30.448  10.234
99646W        W64873  21.077  39.430  12.706
99647W        W64874  26.474  41.009  10.734
99648W        W64875  17.451  37.521  14.585
99649W        W64876  40.818  39.169  11.085
99650W        W64877  33.056  15.611  11.844
99651W        W64878  34.478  33.930   0.701
99652W        W64879  20.469  44.168   4.513
99653W        W64880   9.935  36.910  12.929
99654W        W64881  40.896  10.593   2.172
99655W        W64882  20.220  17.918  12.838
99656W        W64883   8.946  33.551  12.225
99657W        W64884  20.994  37.287   1.696
99658W        W64885   8.928   9.744  12.039
99659W        W64886  29.432  34.102  11.329
99660W        W64887  40.521  17.578   2.832
99661W        W64888  32.116  34.514  11.217
99662W        W64889  38.623  17.637  13.577
99663W        W64890  21.705  32.509  12.991
99664W        W64891  10.742  30.299   1.164
99665W        W64892  20.161   3.502   3.544
99666W        W64893  29.563  25.104   0.707
99667W        W64894  11.157   1.682   1.192
99668W        W64895  27.718  18.792   2.647
99669W        W64896  39.008  25.102  10.938
99670W        W64897   3.705  41.166  11.943
99671W        W64898   9.824   8.974   0.387
99672W        W64899   1.546  10.673  11.868
99673W        W64900  34.236  31.627  12.097
99674W        W64901  28.088  14.068  13.989
99675W        W64902  17.700  24.176   2.914
99676W        W64903  18.091  11.346   1.405
99677W        W64904  19.649  25.272  10.774
99678W        W64905  17.780  36.865   4.829
99679W        W64906   0.437   0.772  14.885
99680W        W64907   9.868   8.138  11.997
99681W        W64908  17.012  35.282  13.378
99682W        W64909  14.582  28.114   2.179
99683W        W64910  11.752  20.050   2.745
99684W        W64911  40.983  34.943  12.946
99685W        W64912  22.980  18.300   0.777
99686W        W64913   6.961  43.989   4.114
99687W        W64914  11.104  26.998  14.800
99688W        W64915  23.452  20.267   4.180
99689W        W64916  10.417   5.259  10.627
99690W        W64917  34.159  14.238   5.348
99691W        W64918  21.589  38.552   0.466
99692W        W64919  25.932  14.673   1.929
99693W        W64920  22.984  42.783   1.440
99694W        W64921  21.113  33.626  12.423
99695W        W64922  43.317  33.152   3.430
99696W        W64923   4.735  28.045   3.074
99697W        W64924  44.710  22.420  14.997
99698W        W64925  42.013   3.645   4.509
99699W        W64926   1.910  40.407  12.842
99700W        W64927  27.878  41.958   4.081
99701W        W64928  17.036  41.368   2.767
99702W        W64929  18.148   4.933   0.336
99703W        W64930  43.375   7.650  10.324
99704W        W64931  21.639  21.609  14.485
99705W        W64932  30.661  30.453   3.707
99706W        W64933  36.361  21.851  14.405
99707W        W64934  30.006   9.263   2.950
99708W        W64935   8.684   5.284   3.653
99709W        W64936  20.322  26.150   3.337
99710W        W64937  18.079   5.248  11.629
99711W        W64938  39.944   3.503   4.503
99712W        W64939  25.506  38.298   2.424
99713W        W64940  13.613   3.505  14.835
99714W        W64941  17.115  27.010   4.820
99715W        W64942  42.795  29.231   2.400
99716W        W64943  43.798  24.251  14.500
99717W        W64944  39.508  43.535  13.452
99718W        W64945  34.562   6.555   3.165
99719W        W64946  21.711  31.006  13.105
99720W        W64947  16.944  32.111  14.507
99721W        W64948  29.894   8.244   4.827
99722W        W64949  30.589  37.358   2.332
99723W        W64950   2.949  13.222   4.731
99724W        W64951   5.258  29.537  10.911
99725W        W64952  27.130  23.058   2.470
99726W        W64953  22.706  40.844  11.585
99727W        W64954  18.568   6.138  12.027
99728W        W64955  15.772  26.451   2.500
99729W        W64956  41.346  18.010   2.338
99730W        W64957  16.342  21.648  12.871
99731W        W64958   4.228   6.861  10.686
99732W        W64959  32.749  13.887   2.735
99733W        W64960  36.428  34.541   1.852
99734W        W64961  14.384  30.018   3.866
99735W        W64962  27.559  31.904   0.306
99736W        W64963  30.065   1.436   3.307
99737W        W64964  27.109  39.916   0.987
99738W        W64965  26.798  43.935  10.235
99739W        W64966  33.484  37.971   0.932
99740W        W64967  13.707  14.249  11.963
99741W        W64968  16.402  42.898   1.477
99742W        W64969  42.830  24.710  12.956
99743W        W64970   1.794  20.797  11.668
99744W        W64971  40.066   6.439  12.576
99745W        W64972  12.693   7.139  14.998
99746W        W64973   9.224  37.067  13.446
99747W        W64974  29.728  21.637  14.062
99748W        W64975  29.548  32.054  14.260
99749W        W64976   6.363  22.097  14.755
99750W        W64977  32.729  17.250   4.127
99751W        W64978  12.406  32.876   1.857
99752W        W64979  27.524  44.780   1.816
99753W        W64980  38.251  26.485   2.493
99754W        W64981  28.699  20.333   2.816
99755W        W64982   7.735   6.288  13.938
99756W        W64983  13.123  31.989  13.018
99757W        W64984  24.909  16.702   1.917
99758W        W64985  22.673  11.275  12.814
99759W        W64986  28.868  19.062   3.639
99760W        W64987  35.031  28.461   3.359
99761W        W64988  29.475  25.215  11.990
99762W        W64989  44.433   7.222   0.898
99763W        W64990  10.742  27.010  11.566
99764W        W64991  37.568  22.613  11.549
99765W        W64992  24.434  40.852  12.032
99766W        W64993  44.072   0.097   0.545
99767W        W64994  12.352  41.024   0.149
99768W        W64995  17.299  11.735   2.198
99769W        W64996  17.999   9.377   2.354
99770W        W64997  34.787   0.214   0.207
99771W        W64998  29.558   8.595   1.954
99772W        W64999  39.954  18.512   3.249
99773W        W65000  34.039  28.493   2.338
99774W        W65001  10.493  32.508   3.550
99775W        W65002  16.885  36.621   3.226
99776W        W65003   7.426  32.403  12.361
99777W        W65004  42.700  25.660  13.416
99778W        W65005  44.394  15.182  13.807
99779W        W65006  17.834  19.467  12.856
99780W        W65007  23.273  42.538  12.069
99781W        W65008  11.053   1.775  12.875
99782W        W65009  28.200   9.590  14.864
99783W        W65010  34.437   8.128   0.096
99784W        W65011  42.493  38.944   3.301
99785W        W65012   0.181  26.173   1.207
99786W        W65013  10.444  29.894   3.337
99787W        W65014  33.036  14.770   3.264
99788W        W65015  14.836  26.055  11.722
99789W        W65016  44.479  30.382  12.993
99790W        W65017  35.817  11.815  13.569
99791W        W65018  11.034   1.359  13.571
99792W        W65019  44.973  32.555   3.245
99793W        W65020  17.007  32.205  13.049
99794W        W65021   4.307  35.675  13.546
99795W        W65022  35.168  12.203  12.545
99796W        W65023  15.581  26.094  12.909
99797W        W65024  38.614  20.920   0.390
99798W        W65025  20.247   2.629   3.546
99799W        W65026  11.985  27.674   1.407
99800W        W65027  11.718  26.479  13.382
99801W        W65028  14.160   1.688  14.015
99802W        W65029  12.995  21.156   0.335
99803W        W65030  40.465  27.889   1.417
99804W        W65031  29.104  42.060   3.305
99805W        W65032  40.651  44.655  10.687
99806W        W65033  39.419  19.707  13.573
99807W        W65034  36.114   7.263   3.108
99808W        W65035  36.572  42.117   2.186
99809W        W65036  19.293  19.179  12.341
99810W        W65037   8.943  13.506  14.281
99811W        W65038  39.022  14.190   1.638
99812W        W65039  39.233  26.360  13.536
99813W        W65040  35.008  11.940  13.980
99814W        W65041  44.759  19.040   3.438
99815W        W65042  36.478   4.171   3.439
99816W        W65043   4.216  21.082   1.463
99817W        W65044  37.876  12.358  10.806
99818W        W65045   6.922  13.531  11.693
99819W        W65046  30.406  42.938  14.766
99820W        W65047  26.559  44.363  12.868
99821W        W65048  14.036   8.702  13.202
99822W        W65049  43.825  31.887  10.718
99823W        W65050  16.226   4.595  14.687
99824W        W65051   4.909  27.646   4.236
99825W        W65052   2.267  42.543   1.895
99826W        W65053  26.825  29.698  13.236
99827W        W65054   7.217  36.279   1.338
99828W        W65055  35.280   3.204   3.470
99829W        W65056  42.989  38.050  14.388
99830W        W65057  16.487  25.933   3.609
99831W        W65058  10.165  43.026  14.552
99832W        W65059  20.853   0.728   5.143
99833W        W65060   4.690  20.212   0.763
99834W        W65061   1.320  37.562  10.992
99835W        W65062   3.765   2.264   0.724
99836W        W65063   8.398  42.121  10.521
99837W        W65064   5.047  38.308  14.915
99838W        W65065  32.853  44.322  10.258
99839W        W65066   6.322   9.462   3.736
99840W        W65067  28.038  22.290   3.602
99841W        W65068   2.730  30.898   0.797
99842W        W65069  33.655   3.074   0.302
99843W        W65070  27.434   1.019   4.124
99844W        W65071  34.146  44.284  14.014
99845W        W65072  22.240  41.518  13.868
99846W        W65073  25.982   4.788  11.821
99847W        W65074  28.484   3.019   1.825
99848W        W65075  26.371  29.834  11.288
99849W        W65076  19.824   1.469  13.974
99850W        W65077  40.707  25.506  11.680
99851W        W65078  24.773  12.755  13.901
99852W        W65079   2.512  32.284  11.043
99853W        W65080  23.695  37.899  14.069
99854W        W65081  20.170  24.583   4.905
99855W        W65082  28.949  28.327   1.531
99856W        W65083  33.696  15.181   4.459
99857W        W65084  11.157  10.155  11.599
99858W        W65085  23.823   8.398  12.101
99859W        W65086  26.029  36.643  13.423
99860W        W65087  18.525   7.766  12.047
99861W        W65088  12.669   7.158   3.742
99862W        W65089  38.514  35.929   3.641
99863W        W65090  28.625  43.916   1.976
99864W        W65091  11.734  25.189  10.899
99865W        W65092  30.816   2.724   0.366
99866W        W65093   3.717  17.709   3.756
99867W        W65094  13.827  40.776  13.910
99868W        W65095  23.663  27.088   2.741
99869W        W65096  34.888  23.721  14.406
99870W        W65097  31.506  29.699  13.739
99871W        W65098  28.926  10.362   1.653
99872W        W65099  21.787  27.278   0.755
99873W        W65100  26.823  44.795  14.956
99874W        W65101  17.756  13.170  11.238
99875W        W65102  28.886  43.951   3.143
99876W        W65103  28.362  14.184  10.706
99877W        W65104  24.710  23.712   2.365
99878W        W65105  35.106   8.134   4.110
99879W        W65106  15.645  39.854   3.551
99880W        W65107   8.486  41.445  13.152
99881W        W65108  17.502  37.851   4.429
99882W        W65109   4.951   8.678  14.869
99883W        W65110   2.364   4.451   0.330
99884W        W65111  42.472  37.496   4.661
99885W        W65112  44.381   6.355  12.469
99886W        W65113  42.800  35.175   3.635
99887W        W65114  23.203  12.419  11.378
99888W        W65115  35.780  29.920   3.884
99889W        W65116  42.670  42.845   3.055
99890W        W65117  10.671  33.921   3.120
99891W        W65118   7.442  25.248  12.437
99892W        W65119  42.040  23.249  13.822
99893W        W65120  42.239  36.866   3.716
99894W        W65121  20.512  36.316  13.426
99895W        W65122  11.082  17.627  11.575
99896W        W65123  30.891   9.180  13.903
99897W        W65124  41.294  24.572  12.980
99898W        W65125  32.814  28.867   3.224
99899W        W65126  20.289  37.446  11.863
99900W        W65127  21.458  30.658   3.356
99901W        W65128  35.848  13.746   1.223
99902W        W65129  28.247  39.825  10.671
99903W        W65130  11.479  15.054  13.855
99904W        W65131  21.973  36.803  11.666
99905W        W65132  10.749  24.133   0.602
99906W        W65133  26.075  39.440  14.824
99907W        W65134  33.238  43.301  11.085
99908W        W65135  30.394  29.846   9.535
99909W        W65136  21.684  34.880   3.848
99910W        W65137  39.243  19.001  11.611
99911W        W65138  14.888  36.909   2.299
99912W        W65139  44.210  37.112  11.936
99913W        W65140  40.362  36.317   0.847
99914W        W65141  28.620  41.073   3.619
99915W        W65142  38.514  27.376   3.549
99916W        W65143   3.863  28.924   2.213
99917W        W65144  25.272  25.191  14.906
99918W        W65145  14.312  39.051   4.220
99919W        W65146   1.580  23.745   1.356
99920W        W65147  27.758   0.497  12.294
99921W        W65148  30.150  42.854   4.517
99922W        W65149  38.676  25.112   0.894
99923W        W65150  24.267  25.287   2.933
99924W        W65151  26.539   7.164  11.157
99925W        W65152  31.092   9.648  14.007
99926W        W65153   2.473   2.212  12.641
99927W        W65154  38.313  23.256  12.526
99928W        W65155  27.620  30.896   2.822
99929W        W65156  30.757  35.495  14.307
99930W        W65157   0.528  38.131  11.177
99931W        W65158  43.741  10.762   0.020
99932W        W65159  37.469   1.391   3.947
99933W        W65160  29.677  36.604  14.555
99934W        W65161   8.352  30.105   3.063
99935W        W65162  11.872  40.645   4.436
99936W        W65163  12.538  17.619   0.970
99937W        W65164  19.028  35.540   0.753
99938W        W65165  21.947  13.774   0.844
99939W        W65166   1.868  32.654   1.530
99940W        W65167  42.777  13.723  13.892
99941W        W65168  17.207  43.447   0.705
99942W        W65169   2.477  32.160   3.717
99943W        W65170  28.967  39.356  13.038
99944W        W65171  33.638  37.964   1.423
99945W        W65172   3.803  35.288  12.402
99946W        W65173  10.196  44.668  13.668
99947W        W65174  19.803   8.398   2.608
99948W        W65175  43.998  30.586  11.231
99949W        W65176  33.964  32.653  11.442
99950W        W65177  31.798  40.276   0.343
99951W        W65178  28.396   8.620  13.841
99952W        W65179  34.743   0.431  13.456
99953W        W65180   6.415   4.562   0.644
99954W        W65181  40.269  25.027   4.497
99955W        W65182   8.018  42.337  14.025
99956W        W65183   9.688  13.995  13.407
99957W        W65184  20.417  24.785  10.228
99958W        W65185  44.260   6.356  11.954
99959W        W65186   0.717   8.387   3.017
99960W        W65187   8.787  39.187   3.244
99961W        W65188  15.573   0.842   0.927
99962W        W65189  18.618   2.255  10.978
99963W        W65190  17.489   1.402   0.899
99964W        W65191  24.029   3.140  13.965
99965W        W65192  23.572   0.005  14.994
99966W        W65193  24.797  43.991   3.234
99967W        W65194   3.255  34.929   0.999
99968W        W65195  25.962  18.118   4.378
99969W        W65196  44.378  15.548  11.887
99970W        W65197  31.021  21.081   2.551
99971W        W65198   0.306  15.728   3.108
99972W        W65199  28.489  10.256   2.579
99973W        W65200  37.863  37.712   1.256
99974W        W65201  29.456  29.527  12.894
99975W        W65202  43.407  13.798  14.248
99976W        W65203  43.966  15.723   2.825
99977W        W65204  15.840  27.710   0.958
99978W        W65205   8.900   1.707  12.687
99979W        W65206   9.280  20.097   3.622
99980W        W65207   6.862  30.939  14.801
99981W        W65208  33.132  19.834  10.885
99982W        W65209  13.799  31.497  12.621
99983W        W65210  40.587  31.008  14.995
99984W        W65211  18.250   1.513  12.995
99985W        W65212   0.542  17.990   1.412
99986W        W65213  26.633   7.434  11.593
99987W        W65214  28.077  37.096   3.310
99988W        W65215  35.782  27.633  12.376
99989W        W65216  23.920   3.926   0.741
99990W        W65217  30.236  17.765   1.843
99991W        W65218  22.496  23.218   1.479
99992W        W65219  25.514  41.747   0.252
99993W        W65220  31.043  29.534   4.633
99994W        W65221  18.936   2.253  12.154
99995W        W65222  18.553  18.836   3.879
99996W        W65223  38.989   9.585   0.513
99997W        W65224  34.396  31.858  11.655
99998W        W65225   5.815  12.644   4.698
99999W        W65226   1.218  18.227   2.388
    0W        W65227  15.438   7.324   2.766
    1W        W65228  28.222  20.663   4.474
    2W        W65229  28.202  23.531   1.226
    3W        W65230  20.036  30.628  11.637
    4W        W65231  33.847  12.588  10.244
    5W        W65232  41.097  14.501   3.595
    6W        W65233  41.109   9.314  14.957
    7W        W65234  28.601   4.013   2.100
    8W        W65235   1.983   3.829   2.424
    9W        W65236  34.048  23.621   2.141
   10W        W65237  41.784  22.241  14.828
   11W        W65238  43.861   4.731   0.443
   12W        W65239   1.997  28.996   3.889
   13W        W65240  15.793  23.672   4.556
   14W        W65241  13.333   2.488  14.079
   15W        W65242   7.094  15.005   3.409
   16W        W65243   1.007  32.240   1.256
   17W        W65244  20.722  16.593  14.295
   18W        W65245  44.919  37.285   0.968
   19W        W65246  17.000  27.741  12.953
   20W        W65247  10.284  21.506   4.558
   21W        W65248  26.205  18.437  12.791
   22W        W65249  39.210  10.148  13.584
   23W        W65250  31.809  16.283   1.831
   24W        W65251  16.445   6.669  11.170
   25W        W65252  12.852  21.205  12.480
   26W        W65253  24.446  40.441   3.638
   27W        W65254   7.886  39.980  11.164
   28W        W65255  31.217  38.742  10.784
   29W        W65256  21.499  23.386   0.858
   30W        W65257  28.997  24.222   1.720
   31W        W65258  32.007  22.097   0.403
   32W        W65259  32.572  21.325  11.197
   33W        W65260  19.716   1.921   1.287
   34W        W65261  12.667  37.066  12.952
   35W        W65262   1.263  23.652  13.435
   36W        W65263  12.743   4.978  10.996
   37W        W65264   9.609   9.418  13.974
   38W        W65265  42.114  34.336  14.270
   39W        W65266   3.400  20.080   1.331
   40W        W65267  10.620  25.323   4.940
   41W        W65268  32.007  13.250  12.012
   42W        W65269  17.129  19.532  14.531
   43W        W65270  37.095   9.228   3.687
   44W        W65271   6.402  12.809   2.091
   45W        W65272  24.593  22.732   3.132
   46W        W65273  15.804  12.112  12.983
   47W        W65274  38.030  43.960   0.795
   48W        W65275  37.070  19.594  13.860
   49W        W65276  41.880  20.969  12.786
   50W        W65277  24.059  18.651  14.257
   51W        W65278  28.406  33.542  12.919
   52W        W65279  10.586   3.847  14.974
   53W        W65280   0.517  39.447   3.044
   54W        W65281  14.220   3.160  13.436
   55W        W65282  25.906  21.841   2.705
   56W        W65283  35.889   2.032   3.014
   57W        W65284  15.810  23.723   2.277
   58W        W65285  33.961  39.802   0.560
   59W        W65286  39.844  23.341  13.497
   60W        W65287  40.861  14.228   3.189
   61W        W65288  11.653  17.486   0.753
   62W        W65289   6.178  10.802  13.431
   63W        W65290  30.424  15.435  14.444
   64W        W65291   5.198  25.518   1.938
   65W        W65292  26.660  38.663  10.169
   66W        W65293  39.860  21.510  13.828
   67W        W65294  42.417  21.042  12.652
   68W        W65295   5.760   3.183  12.471
   69W        W65296  10.975  24.030  11.124
   70W        W65297  21.712   2.544   3.124
   71W        W65298  38.963   2.653   1.283
   72W        W65299  11.296  42.038  13.028
   73W        W65300  20.014  28.858   3.337
   74W        W65301  11.705   1.536  13.675
   75W        W65302  33.978  36.114  11.570
   76W        W65303  38.219   8.049   3.502
   77W        W65304   5.428   8.675   2.873
   78W        W65305   0.540  18.365  10.357
   79W        W65306   5.180  40.040   4.555
   80W        W65307  11.236  30.883   0.416
   81W        W65308   0.999   7.662  14.418
   82W        W65309  23.527  11.294   0.963
   83W        W65310  28.173  13.318  10.632
   84W        W65311  21.763  26.425   0.437
   85W        W65312  36.302   9.150   1.755
   86W        W65313  30.550  35.418  11.886
   87W        W65314  14.170  39.797  14.370
   88W        W65315  14.256  18.592  13.537
   89W        W65316   3.434  12.963  11.551
   90W        W65317  23.328  18.013   4.052
   91W        W65318   2.661  30.867  14.451
   92W        W65319  20.062  43.110  10.719
   93W        W65320  21.413  24.465  12.451
   94W        W65321  14.070  38.379  13.551
   95W        W65322   9.093  28.686   2.204
   96W        W65323  20.520   4.186   1.841
   97W        W65324  11.012   4.020   3.672
   98W        W65325  33.446  12.009   3.120
   99W        W65326  27.230  24.077   2.563
  100W        W65327  43.809  42.320  11.894
  101W        W65328  26.642  10.719   4.138
  102W        W65329  38.832  41.504  12.544
  103W        W65330  12.128  13.788   4.929
  104W        W65331  32.537  38.978  14.961
  105W        W65332  28.877  42.404   3.629
  106W        W65333  32.032  44.727  13.721
  107W        W65334  21.518  19.742   1.835
  108W        W65335   8.156   9.800  10.839
  109W        W65336  42.743   1.046   4.173
  110W        W65337  21.901   2.705  11.138
  111W        W65338  20.492   4.647   4.321
  112W        W65339   6.595   4.381  14.362
  113W        W65340  10.614   4.666   0.936
  114W        W65341  36.847  21.001   4.243
  115W        W65342  19.759  17.939  13.075
  116W        W65343   0.826  26.114  12.832
  117W        W65344  43.532  24.193  13.360
  118W        W65345  13.531  31.793  13.850
  119W        W65346   5.250  44.646  11.830
  120W        W65347  25.595  30.591   5.096
  121W        W65348  36.070  37.018  12.189
  122W        W65349  15.806  32.510   3.682
  123W        W65350   7.787  42.970  10.255
  124W        W65351  42.798  32.046  10.724
  125W        W65352  27.654  42.112  10.755
  126W        W65353  16.713   5.777   1.756
  127W        W65354  38.549  27.144   1.355
  128W        W65355  17.277   4.641   4.619
  129W        W65356  21.539  36.976   2.815
  130W        W65357  43.931  16.878   4.559
  131W        W65358   8.766  28.238   2.143
  132W        W65359  34.126   1.340  12.847
  133W        W65360  35.623  26.620  13.602
  134W        W65361  13.569  42.105   4.123
  135W        W65362  42.807  26.147   3.935
  136W        W65363  33.753  41.871   0.736
  137W        W65364  39.892  12.935  13.993
  138W        W65365   2.801  33.474  14.001
  139W        W65366  22.159  44.468   1.889
  140W        W65367  29.226  34.616   0.908
  141W        W65368   1.786  29.610   1.457
  142W        W65369   1.474  31.045   1.243
  143W        W65370   7.017  44.257  12.627
  144W        W65371   4.385   9.698  10.373
  145W        W65372  38.084   5.613  14.428
  146W        W65373   2.819   3.952  14.016
  147W        W65374  32.099  33.545   3.040
  148W        W65375  12.252  36.536   3.254
  149W        W65376  38.596  31.103  12.471
  150W        W65377   8.178  12.949  13.714
  151W        W65378  16.214  12.654  10.499
  152W        W65379   5.727   2.673   1.859
  153W        W65380  12.918   9.728  13.554
  154W        W65381   0.944  25.612   3.732
  155W        W65382   0.670  40.184   3.757
  156W        W65383  23.168  28.162  14.376
  157W        W65384   5.496   8.601   1.457
  158W        W65385  12.549  28.828  13.896
  159W        W65386   0.257   1.981  12.147
  160W        W65387  39.304  38.978  10.478
  161W        W65388  15.167  19.274   0.897
  162W        W65389   9.653   1.327  10.437
  163W        W65390  36.358   0.476  10.806
  164W        W65391  30.558  25.349  11.101
  165W        W65392  28.818   8.076  12.780
  166W        W65393  16.191  21.302  12.543
  167W        W65394  39.998  44.687   0.447
  168W        W65395   2.283   0.147  12.399
  169W        W65396  31.147  38.099  13.414
  170W        W65397  43.022  18.433  10.299
  171W        W65398  33.385  14.121  12.108
  172W        W65399   4.720  19.326  14.801
  173W        W65400  42.322   9.295  10.635
  174W        W65401  43.516   3.274   4.967
  175W        W65402  19.537  43.068  11.562
  176W        W65403  21.161  26.239   1.741
  177W        W65404  44.172  21.563  13.389
  178W        W65405  19.235  33.375  10.818
  179W        W65406  11.590   6.748  14.282
  180W        W65407  28.209  41.241  12.533
  181W        W65408  10.748   6.177   3.226
  182W        W65409  13.840   4.359   0.266
  183W        W65410   6.249  25.723   3.696
  184W        W65411  26.248   0.282   2.339
  185W        W65412  18.671  25.705  11.561
  186W        W65413   4.889  42.482  13.000
  187W        W65414  21.183  38.492   0.802
  188W        W65415   1.923   7.097   2.551
  189W        W65416  25.795   6.061   2.794
  190W        W65417  24.525  25.533   1.643
  191W        W65418   6.787  33.154  12.420
  192W        W65419  10.186  12.278   2.347
  193W        W65420  13.190  26.886  13.082
  194W        W65421  11.150  32.011  12.449
  195W        W65422   3.246  30.425   1.260
  196W        W65423  18.639  38.961  12.266
  197W        W65424  10.103  35.070   3.219
  198W        W65425  29.650  25.570  14.856
  199W        W65426  18.069  10.827  14.342
  200W        W65427   1.771   5.478   3.516
  201W        W65428  17.796  19.264   3.594
  202W        W65429  22.349  28.901   4.881
  203W        W65430   4.641  34.494   2.903
  204W        W65431  27.406   6.342  12.479
  205W        W65432  28.939  14.342   4.612
  206W        W65433  26.154  15.300  14.816
  207W        W65434  23.597  36.798   4.105
  208W        W65435  39.894  25.079   2.265
  209W        W65436  18.377  35.040  11.077
  210W        W65437  20.606   0.432   3.878
  211W        W65438  13.146  24.200  11.114
  212W        W65439  12.302  12.810   0.257
  213W        W65440  30.875  40.993  13.992
  214W        W65441  24.576  23.524   3.376
  215W        W65442  16.499  32.626   4.734
  216W        W65443  44.517   9.723  10.207
  217W        W65444  24.719   2.195  14.402
  218W        W65445   2.779  22.625   0.433
  219W        W65446  21.630  29.783   2.771
  220W        W65447  41.537  14.112  13.050
  221W        W65448   6.254  27.515  13.331
  222W        W65449  13.859  11.581  12.537
  223W        W65450   0.360  16.287   2.278
  224W        W65451  42.217   1.485  13.421
  225W        W65452  22.840  35.874  11.133
  226W        W65453  20.183  10.155   1.195
  227W        W65454   7.626  29.591   1.156
  228W        W65455   4.387  18.122   0.044
  229W        W65456  34.398  10.184  12.454
  230W        W65457  35.530  35.122  11.092
  231W        W65458  35.848  14.835   3.599
  232W        W65459  31.314  27.374  13.425
  233W        W65460  26.709  24.726   1.959
  234W        W65461  16.004  22.177   0.491
  235W        W65462  33.116  41.536   2.634
  236W        W65463  30.500   9.448   3.652
  237W        W65464  21.047  16.236  12.317
  238W        W65465  18.421  37.879  10.832
  239W        W65466  21.716  41.458   4.269
  240W        W65467  11.220  40.143   3.150
  241W        W65468  13.256  31.290   0.037
  242W        W65469  42.409  38.967  10.728
  243W        W65470  21.087  30.196  14.381
  244W        W65471  13.494  30.423   3.145
  245W        W65472  21.979   2.006   3.145
  246W        W65473  11.154  18.010   1.374
  247W        W65474  44.024  24.664   0.494
  248W        W65475  18.671  41.629   0.376
  249W        W65476  20.779   0.402  14.777
  250W        W65477  44.312  13.569  11.252
  251W        W65478  25.938  36.571  11.678
  252W        W65479  27.809   9.407   4.272
  253W        W65480  16.059  10.201   1.867
  254W        W65481   4.670  17.705   4.622
  255W        W65482  17.140  41.402  12.137
  256W        W65483  39.121   4.692  11.240
  257W        W65484  38.387  44.643  13.864
  258W        W65485  30.050  32.054   4.309
  259W        W65486  19.866  35.150  11.076
  260W        W65487  38.520  29.397   4.177
  261W        W65488   1.954  29.985  12.486
  262W        W65489   9.464  21.026   2.377
  263W        W65490  27.823  11.206   2.077
  264W        W65491  40.573  12.432  12.774
  265W        W65492   5.638  28.914  14.882
  266W        W65493  29.550  14.364   4.038
  267W        W65494  38.418  43.362   1.192
  268W        W65495  42.229   3.983   2.682
  269W        W65496  17.266   1.221   0.433
  270W        W65497  38.333   8.217   2.589
  271W        W65498  40.086  27.093   3.148
  272W        W65499  14.839   6.776  13.969
  273W        W65500  29.011  16.987   1.847
  274W        W65501  39.211  32.318   1.236
  275W        W65502  14.619   6.957   2.781
  276W        W65503  18.807  19.003   0.912
  277W        W65504  19.967  15.845  12.132
  278W        W65505  10.205   7.001  12.600
  279W        W65506  18.817  35.798  11.671
  280W        W65507  25.705   6.112   0.776
  281W        W65508  44.385  32.591   1.833
  282W        W65509  32.428  20.273  13.006
  283W        W65510  22.188  42.052  11.309
  284W        W65511   1.113   6.899   4.447
  285W        W65512  18.307  23.894   3.143
  286W        W65513   1.996  14.604   3.643
  287W        W65514  43.013  38.480  12.081
  288W        W65515  39.298  15.718   4.530
  289W        W65516  24.001  29.059   4.791
  290W        W65517  35.475   2.319   1.843
  291W        W65518   5.213  18.432  11.077
  292W        W65519  43.351  26.068   1.172
  293W        W65520  31.563   5.271   4.155
  294W        W65521  37.960  39.356  11.660
  295W        W65522  21.796  30.957   3.633
  296W        W65523  10.227  23.788   5.441
  297W        W65524   4.709  25.215  10.433
  298W        W65525  15.364  40.096   1.813
  299W        W65526  21.318  35.195   4.052
  300W        W65527  27.804  39.954   3.225
  301W        W65528  28.056   8.450   4.686
  302W        W65529  33.301  28.964   3.361
  303W        W65530   6.104  11.833  14.623
  304W        W65531   1.696  39.868   0.412
  305W        W65532  40.753  34.910   1.237
  306W        W65533  29.058  35.753  12.971
  307W        W65534  20.681  24.454  12.175
  308W        W65535  14.726  25.861   0.787
  309W        W65536  31.445   5.909   1.924
  310W        W65537  28.920  30.984   3.511
  311W        W65538  40.760   3.161   4.238
  312W        W65539  30.861  33.874   0.387
  313W        W65540   2.226   7.535  12.537
  314W        W65541  32.627  32.998   4.344
  315W        W65542   9.843   4.926  13.895
  316W        W65543  33.302  34.317   2.392
  317W        W65544  39.435  32.022   2.458
  318W        W65545   0.690  40.147   2.773
  319W        W65546  22.987  40.434  13.059
  320W        W65547   2.797  24.097   1.792
  321W        W65548  43.024  39.000   1.644
  322W        W65549  38.901  33.132   0.816
  323W        W65550  19.555   8.299  14.487
  324W        W65551   4.203   6.670  11.163
  325W        W65552  17.719  29.558   0.223
  326W        W65553  17.758  33.244   4.082
  327W        W65554  34.514   1.139   0.341
  328W        W65555   1.458  16.171   3.018
  329W        W65556  14.075  14.620   0.876
  330W        W65557   2.468  18.396  11.334
  331W        W65558  36.878  28.731  11.102
  332W        W65559  18.089  25.557   1.733
  333W        W65560  40.071   4.478   2.093
  334W        W65561  22.259  11.888  14.354
  335W        W65562   3.104   0.834   4.766
  336W        W65563  11.082  15.540  11.564
  337W        W65564  33.592   4.349  12.590
  338W        W65565   3.266  39.043   2.653
  339W        W65566  13.287  31.991   2.418
  340W        W65567  24.706  31.078   4.405
  341W        W65568  39.775  21.557   0.439
  342W        W65569  44.941  23.238  12.293
  343W        W65570   6.032   8.882  13.438
  344W        W65571  24.892  13.343  13.448
  345W        W65572  37.569  11.140  14.446
  346W        W65573  43.356  26.915  11.348
  347W        W65574  31.531  44.804   2.672
  348W        W65575   5.944  30.927  13.199
  349W        W65576  43.871  26.675   5.109
  350W        W65577  25.100   9.887  12.806
  351W        W65578  44.207  12.872  13.876
  352W        W65579  13.265  20.613  11.683
  353W        W65580   4.896  18.773  13.459
  354W        W65581  28.101   1.206   0.805
  355W        W65582   0.020  22.969   1.237
  356W        W65583  44.486  19.633   0.249
  357W        W65584   2.707  11.834  13.444
  358W        W65585   1.840  10.578  14.331
  359W        W65586   0.266  23.632   1.970
  360W        W65587  12.320   0.183  12.618
  361W        W65588  25.992  13.824   1.054
  362W        W65589  27.367   8.576  14.044
  363W        W65590  39.837   3.887  12.738
  364W        W65591  44.083  39.728   0.531
  365W        W65592  32.634   6.395  10.071
  366W        W65593  17.322  31.176   1.849
  367W        W65594   8.234  33.298   3.456
  368W        W65595  16.404  16.221   2.224
  369W        W65596  41.326  26.607  10.750
  370W        W65597  36.023  30.180   2.797
  371W        W65598  26.063  32.512   4.506
  372W        W65599  10.710   9.184  13.244
  373W        W65600  12.629  42.761  12.556
  374W        W65601   9.439  26.633   4.166
  375W        W65602  31.437  34.420   0.985
  376W        W65603   6.450  44.892  14.871
  377W        W65604   6.457   2.304  12.485
  378W        W65605  10.205  27.561   1.144
  379W        W65606  40.435  19.867  12.508
  380W        W65607  42.122  18.970   1.133
  381W        W65608  19.286  25.127  11.723
  382W        W65609  30.507  29.975  10.291
  383W        W65610  19.582   3.583   1.418
  384W        W65611  18.447  40.267   0.593
  385W        W65612  35.119  22.650  13.409
  386W        W65613  44.573   0.097  11.622
  387W        W65614   7.942  34.480   0.439
  388W        W65615  17.365  11.751  14.964
  389W        W65616  18.839   3.892   0.918
  390W        W65617  42.803   2.370   0.822
  391W        W65618   4.194  22.142  12.898
  392W        W65619  39.077  33.694  14.356
  393W        W65620  14.292   2.677   5.012
  394W        W65621   7.174  37.410   2.598
  395W        W65622  21.122  40.762   4.639
  396W        W65623  17.297  23.439   3.921
  397W        W65624  33.516  31.335  12.584
  398W        W65625  26.536  33.091  11.719
  399W        W65626  23.014  12.757   2.720
  400W        W65627  19.532  40.070  13.106
  401W        W65628  21.455  20.190   0.843
  402W        W65629  12.787   2.891   2.177
  403W        W65630  27.191  27.615   2.245
  404W        W65631   7.709  37.344   3.692
  405W        W65632  20.527  19.784   1.650
  406W        W65633   1.900  36.638  11.477
  407W        W65634   7.777  19.017  12.535
  408W        W65635  35.967  34.952   4.928
  409W        W65636  36.404  20.565  14.835
  410W        W65637  19.685  11.928  12.801
  411W        W65638  33.745  13.380  11.270
  412W        W65639  44.318  11.174   1.496
  413W        W65640  14.113   5.193  12.044
  414W        W65641  17.710  34.043   4.583
  415W        W65642  42.870  31.587   1.919
  416W        W65643  18.872  31.005   1.194
  417W        W65644   4.066  13.217   0.230
  418W        W65645   1.425  23.026   2.581
  419W        W65646   3.710  23.254   3.072
  420W        W65647  37.460  28.003  12.430
  421W        W65648  40.966  23.170   3.274
  422W        W65649   4.519   8.007  14.395
  423W        W65650  23.328   5.787  11.239
  424W        W65651  14.257  41.298  13.038
  425W        W65652   0.755   6.380   2.289
  426W        W65653  13.373  14.726   4.376
  427W        W65654  41.646  41.768   1.377
  428W        W65655  18.217  14.308  12.116
  429W        W65656  29.601  28.078   2.452
  430W        W65657  29.748  14.297  13.543
  431W        W65658  16.822  35.845   4.547
  432W        W65659   0.363   6.297  13.811
  433W        W65660  42.140  16.843  14.406
  434W        W65661  10.676  43.065  14.345
  435W        W65662  23.591  20.420   1.143
  436W        W65663  40.859  19.034  11.584
  437W        W65664   0.447  10.468  12.467
  438W        W65665   5.833  32.983  13.150
  439W        W65666  22.674  17.533  11.439
  440W        W65667  23.682  24.921   0.508
  441W        W65668  28.486  17.200   1.756
  442W        W65669  41.078  25.650  14.132
  443W        W65670  38.825  19.610  14.474
  444W        W65671  41.989  42.023  13.780
  445W        W65672   4.273   5.161   1.188
  446W        W65673  28.231  41.995   2.230
  447W        W65674  16.308  17.271   0.887
  448W        W65675  30.065  24.521   5.015
  449W        W65676  13.647  32.587  12.351
  450W        W65677  24.041   4.524  10.428
  451W        W65678  44.487  18.262  11.473
  452W        W65679  36.165  44.968  12.498
  453W        W65680  11.929  29.016  10.841
  454W        W65681  14.047  25.043   4.144
  455W        W65682  30.262  17.198  12.676
  456W        W65683   1.778   8.652  10.878
  457W        W65684   4.745  32.602  14.261
  458W        W65685  38.668  35.894  13.504
  459W        W65686  42.030  42.443  14.913
  460W        W65687  25.700  35.464   2.740
  461W        W65688  29.864  37.909  14.478
  462W        W65689  11.787  35.892  14.855
  463W        W65690   6.121  16.100   3.133
  464W        W65691  15.865  36.953  13.330
  465W        W65692  31.401  29.846   2.416
  466W        W65693  13.564  35.117  13.749
  467W        W65694  24.496  35.460  14.336
  468W        W65695  33.989  38.529  14.991
  469W        W65696   4.053  36.970  11.387
  470W        W65697  22.715  39.567   3.137
  471W        W65698  37.058  39.923   1.243
  472W        W65699   2.771  26.067  10.492
  473W        W65700  40.329  36.965   0.255
  474W        W65701  39.326  42.771  12.253
  475W        W65702  39.290   4.589   4.044
  476W        W65703  27.347   2.877  14.050
  477W        W65704  21.607   5.217  14.305
  478W        W65705  25.485  34.593   1.262
  479W        W65706  17.347  32.489  11.526
  480W        W65707  17.428  44.701  11.271
  481W        W65708  32.919  33.953  10.679
  482W        W65709  22.748  22.742   4.482
  483W        W65710   5.436  30.169   1.275
  484W        W65711  38.575  32.049   0.751
  485W        W65712  15.221   2.032  12.633
  486W        W65713  34.473  11.498   3.512
  487W        W65714  19.982  29.111  13.167
  488W        W65715  13.698  22.458   1.777
  489W        W65716  25.024  32.114   4.509
  490W        W65717  34.153  38.843  10.503
  491W        W65718   2.466  27.652   1.252
  492W        W65719   3.922   9.305  13.430
  493W        W65720   5.389  13.076  14.870
  494W        W65721  15.820   0.941  12.826
  495W        W65722  29.185  17.683  12.115
  496W        W65723  12.108  14.294  10.245
  497W        W65724   6.866   4.853  14.356
  498W        W65725  19.007   6.205   2.396
  499W        W65726  27.004   4.180   4.574
  500W        W65727  15.858  37.454  13.950
  501W        W65728  10.228  29.778   4.938
  502W        W65729  29.380  13.788  12.906
  503W        W65730  32.696  15.488  12.172
  504W        W65731  34.792   8.324  12.432
  505W        W65732  22.588  36.907   0.303
  506W        W65733  23.806  23.829  12.228
  507W        W65734  22.179  27.709   3.607
  508W        W65735   8.220  33.385   2.944
  509W        W65736  30.572  38.795  13.311
  510W        W65737  25.131  41.780  12.666
  511W        W65738   6.732   7.755  10.896
  512W        W65739  20.359   4.214   3.600
  513W        W65740   4.680  37.083   1.772
  514W        W65741  18.149  21.171  12.709
  515W        W65742  22.404  42.518   3.869
  516W        W65743  12.410   1.999   3.691
  517W        W65744  27.918  33.474  12.691
  518W        W65745  33.110  14.873   2.772
  519W        W65746   8.219   2.130   3.659
  520W        W65747   9.216  21.084   0.481
  521W        W65748  30.133  10.266   3.722
  522W        W65749  36.033   9.834  12.142
  523W        W65750  36.570  11.616   3.711
  524W        W65751   9.108   9.930   3.895
  525W        W65752  38.085  26.647   2.014
  526W        W65753  21.671   8.100  10.702
  527W        W65754  38.465  20.201   3.385
  528W        W65755   0.552  13.166   2.155
  529W        W65756   8.472  11.594   4.471
  530W        W65757  39.131  17.066   2.620
  531W        W65758  36.017  37.419  12.569
  532W        W65759  10.855   9.569   2.359
  533W        W65760   0.706  21.245   4.387
  534W        W65761  40.815  35.422   0.822
  535W        W65762  44.233  21.284   3.252
  536W        W65763  30.905  39.873   0.871
  537W        W65764  19.036   0.798  12.955
  538W        W65765  43.875   9.928   2.151
  539W        W65766  44.675  16.259   2.865
  540W        W65767  33.675  40.515   2.300
  541W        W65768  26.257  44.379  10.820
  542W        W65769   6.238   2.681   1.654
  543W        W65770  40.265  38.087  13.927
  544W        W65771  16.157  12.330  10.918
  545W        W65772  23.642   3.153   1.202
  546W        W65773   2.146  29.809   2.760
  547W        W65774  10.244  17.481   2.133
  548W        W65775  11.575  38.835   4.158
  549W        W65776  40.324  22.399   4.617
  550W        W65777   5.237   6.611  13.253
  551W        W65778  28.414  24.474  10.462
  552W        W65779  24.214  23.245  11.635
  553W        W65780  16.825  28.554  13.608
  554W        W65781  22.556  10.780   1.494
  555W        W65782  27.075  28.191  11.214
  556W        W65783  43.807  33.964   3.625
  557W        W65784  27.020  41.990  13.447
  558W        W65785  17.771  29.493   2.235
  559W        W65786   7.625  16.070   0.479
  560W        W65787  20.550  44.908  10.987
  561W        W65788  10.279   7.424  11.727
  562W        W65789  24.196  10.336  11.622
  563W        W65790  35.894  40.356  11.944
  564W        W65791  21.587  36.994   1.494
  565W        W65792   7.803   9.361  13.837
  566W        W65793   5.123  19.762   0.755
  567W        W65794  14.210  26.425   2.739
  568W        W65795  13.458  26.918  14.593
  569W        W65796  24.115  36.965  11.625
  570W        W65797  32.140   7.879   2.212
  571W        W65798  40.497  15.046  13.592
  572W        W65799  27.438  12.552  11.549
  573W        W65800   7.922  19.365  10.514
  574W        W65801  37.113  33.658  12.878
  575W        W65802  34.331  39.052  11.775
  576W        W65803  34.919  32.607  14.485
  577W        W65804  29.014  34.656   2.124
  578W        W65805  22.200  12.936   1.091
  579W        W65806  25.721  12.632  13.986
  580W        W65807  37.598  21.196   3.994
  581W        W65808   6.903   6.766  12.511
  582W        W65809  38.508  40.779   4.168
  583W        W65810  21.339  14.863  11.743
  584W        W65811  36.784  19.595   1.825
  585W        W65812  25.257  40.563   4.587
  586W        W65813   8.274  13.650  11.198
  587W        W65814  35.477  13.343  11.666
  588W        W65815   5.693   6.920   0.311
  589W        W65816  20.971  36.061  13.497
  590W        W65817  16.789   3.775   4.132
  591W        W65818   3.814  19.297   5.058
  592W        W65819   7.207  41.627  12.889
  593W        W65820  42.773  44.305   2.299
  594W        W65821   5.364  28.352  13.872
  595W        W65822  10.636  26.032  11.423
  596W        W65823  43.930  29.689   1.754
  597W        W65824  40.432  33.356   0.832
  598W        W65825  33.796  14.783   3.673
  599W        W65826   2.820   4.025   1.975
  600W        W65827  40.590  42.178  12.536
  601W        W65828   3.456   6.308  10.779
  602W        W65829  40.297  39.976  11.264
  603W        W65830   9.668   2.307   2.631
  604W        W65831  44.892  36.267  13.032
  605W        W65832  20.216  23.340   1.255
  606W        W65833  44.572  19.809   3.135
  607W        W65834  19.836   1.443   1.440
  608W        W65835   9.320  43.003  13.642
  609W        W65836  30.302   3.345   4.497
  610W        W65837  40.926   7.546   0.246
  611W        W65838  14.725  37.536   1.328
  612W        W65839  11.018  37.011  13.109
  613W        W65840  33.926  37.430  12.848
  614W        W65841   1.174  38.857   5.083
  615W        W65842  19.113   0.794   2.646
  616W        W65843  10.637   4.818  11.837
  617W        W65844  24.584  40.110   1.370
  618W        W65845  43.310   6.405  10.438
  619W        W65846   4.677  17.401  10.597
  620W        W65847  14.136  25.133   0.466
  621W        W65848  43.299  41.823  13.463
  622W        W65849  16.981  35.950  10.689
  623W        W65850   0.774  15.878   4.377
  624W        W65851  41.646  39.774  12.187
  625W        W65852  24.042  39.332   2.222
  626W        W65853  13.437   0.211   1.432
  627W        W65854  13.316  40.401   4.545
  628W        W65855  25.095   4.921  14.975
  629W        W65856  22.168  12.614  14.837
  630W        W65857  31.619  31.053  10.737
  631W        W65858  39.764  28.566   0.265
  632W        W65859  24.978  16.602  11.603
  633W        W65860  19.941  28.126   3.219
  634W        W65861  10.343  38.427   2.330
  635W        W65862   3.427  10.786  10.800
  636W        W65863  39.127  44.442   3.930
  637W        W65864  21.143  28.044   3.657
  638W        W65865  18.993  13.597   0.568
  639W        W65866  23.082  37.347   1.682
  640W        W65867  40.734  18.907   1.640
  641W        W65868  42.289  28.418   0.395
  642W        W65869  17.954   6.316  13.292
  643W        W65870  21.931   0.029   0.669
  644W        W65871  12.294  20.805   3.699
  645W        W65872  41.827  33.676   2.771
  646W        W65873  30.064  13.896  13.593
  647W        W65874  25.216  38.033  12.085
  648W        W65875  33.230  15.380   2.690
  649W        W65876  23.577  12.370   2.445
  650W        W65877   9.649  42.569   1.409
  651W        W65878  41.930   2.416  12.868
  652W        W65879  10.824  43.083  12.182
  653W        W65880  31.176   2.924   1.348
  654W        W65881   0.382  21.963  14.577
  655W        W65882  26.509   9.914   0.017
  656W        W65883   4.665  20.555   2.915
  657W        W65884  38.581   9.546   3.578
  658W        W65885   8.335   8.672  12.941
  659W        W65886  15.122  44.366  13.616
  660W        W65887  16.678  11.144   0.005
  661W        W65888  33.062  42.755  11.627
  662W        W65889  39.135  23.843  13.800
  663W        W65890   3.907  32.100   1.245
  664W        W65891   5.743  28.654   0.893
  665W        W65892   9.792  22.840  11.103
  666W        W65893  28.741  14.049  14.360
  667W        W65894  16.225  14.081  12.870
  668W        W65895  19.844  28.254  11.998
  669W        W65896  40.261  27.583  11.972
  670W        W65897  31.410  27.124   1.591
  671W        W65898   8.854  31.954  14.671
  672W        W65899  18.605   1.671  14.472
  673W        W65900  14.532  14.861  14.153
  674W        W65901  32.438  38.292  13.507
  675W        W65902   8.684  13.387   1.952
  676W        W65903  34.544  31.116  12.946
  677W        W65904   8.333   3.267  14.994
  678W        W65905  13.391  16.763   4.851
  679W        W65906  19.646  17.271   2.291
  680W        W65907  31.485  13.911   1.940
  681W        W65908  40.788  38.921  14.962
  682W        W65909  21.610  44.828   3.273
  683W        W65910  30.898   6.704  12.433
  684W        W65911  30.215  41.984   1.330
  685W        W65912  42.451  42.581  13.924
  686W        W65913  43.773   9.801  13.480
  687W        W65914  24.395  26.015   0.244
  688W        W65915  37.183  11.131   0.338
  689W        W65916   7.469  10.355  12.400
  690W        W65917  14.137  14.321   4.205
  691W        W65918  13.766  23.056   1.280
  692W        W65919   8.452   8.145   0.847
  693W        W65920  41.818  42.991  13.332
  694W        W65921   9.129  39.800  14.845
  695W        W65922  43.474   9.926   0.917
  696W        W65923  27.841  32.129  11.570
  697W        W65924  38.337  17.120   2.306
  698W        W65925  21.788  27.626   4.398
  699W        W65926  10.433   3.462   0.858
  700W        W65927   8.803  17.824  11.488
  701W        W65928  13.610   9.683   3.785
  702W        W65929  29.452  33.587   2.280
  703W        W65930  24.131  33.144   1.509
  704W        W65931   0.860  13.130   1.139
  705W        W65932  24.941  18.072  11.587
  706W        W65933   5.543  18.204   4.156
  707W        W65934  34.521  44.694  11.621
  708W        W65935  31.320  41.964  11.948
  709W        W65936   6.858   9.673   2.179
  710W        W65937  32.455   5.086  13.994
  711W        W65938  39.048   5.384  14.861
  712W        W65939  24.076  20.566   1.065
  713W        W65940  25.757  30.605  11.274
  714W        W65941   3.301  21.883   2.083
  715W        W65942  27.936  20.589   1.217
  716W        W65943  10.170  42.001  13.124
  717W        W65944  27.469  38.871   2.279
  718W        W65945  15.953  11.612  11.134
  719W        W65946  10.730   1.471   1.387
  720W        W65947   5.404   8.329  12.352
  721W        W65948  39.144   7.712  12.605
  722W        W65949   6.392  44.001  10.064
  723W        W65950   9.825  26.563  14.032
  724W        W65951  31.877  32.710   4.484
  725W        W65952  23.252  23.218   3.824
  726W        W65953  41.862   0.766  14.801
  727W        W65954  25.027  24.773   1.860
  728W        W65955  37.599   2.508   0.928
  729W        W65956   6.629  25.248  11.074
  730W        W65957  44.424  41.834  10.972
  731W        W65958  42.479  41.602  12.882
  732W        W65959  18.823  29.677   3.148
  733W        W65960  19.248  18.192   0.388
  734W        W65961  12.223  36.101   0.306
  735W        W65962  23.763  28.608   4.271
  736W        W65963  35.336  11.332   3.242
  737W        W65964   8.714  11.807  11.476
  738W        W65965  28.608  26.588   4.971
  739W        W65966   2.014   0.464  12.727
  740W        W65967   2.431  31.029   4.799
  741W        W65968  36.585  37.094  10.675
  742W        W65969  43.874  30.920   1.312
  743W        W65970  19.459  29.088   0.899
  744W        W65971   4.854  29.228  11.123
  745W        W65972  34.542  34.704  13.983
  746W        W65973  32.499  22.573   1.002
  747W        W65974  22.508  10.449  13.521
  748W        W65975  34.418  27.462   4.713
  749W        W65976  44.252  33.859  14.388
  750W        W65977  33.542  22.653   0.848
  751W        W65978  38.743  11.185  12.023
  752W        W65979   6.910  39.909  12.085
  753W        W65980  28.357  38.901  10.559
  754W        W65981  14.691  20.931  12.110
  755W        W65982   0.475  19.558  12.234
  756W        W65983   5.168  41.365   1.489
  757W        W65984   7.725  23.278  15.000
  758W        W65985  14.292  15.193  12.930
  759W        W65986  10.443  23.995   4.090
  760W        W65987  28.715  33.203   2.157
  761W        W65988  19.552  39.156   3.458
  762W        W65989  18.795   3.660   0.411
  763W        W65990  22.703  35.082  10.755
  764W        W65991   5.768  29.438   3.592
  765W        W65992  43.468  19.048   0.051
  766W        W65993   7.860   6.269   0.678
  767W        W65994  31.020  42.467   1.913
  768W        W65995   6.118  30.551  14.726
  769W        W65996   1.297  20.865   0.864
  770W        W65997  39.418   2.402   4.054
  771W        W65998  10.300  15.235   2.649
  772W        W65999  27.517  12.786   1.065
  773W        W66000  23.283  17.669   4.494
  774W        W66001  28.604  14.256  14.822
  775W        W66002  41.478   2.309  14.424
  776W        W66003  35.455  36.652  11.670
  777W        W66004  15.165  26.966  13.085
  778W        W66005  28.151  21.427  14.367
  779W        W66006  40.009  16.956   2.452
  780W        W66007   4.386  20.154   1.308
  781W        W66008  25.871   9.208  11.094
  782W        W66009  32.880   4.898   1.260
  783W        W66010   2.492  28.885   3.021
  784W        W66011  35.754  28.518   4.126
  785W        W66012  25.609  24.656   4.255
  786W        W66013  32.164  20.073   4.282
  787W        W66014  17.684   7.764   2.119
  788W        W66015  26.500  42.439   3.209
  789W        W66016  23.647   5.712  12.118
  790W        W66017   2.380  14.759  13.422
  791W        W66018   1.221  28.650   2.681
  792W        W66019  17.930  29.116   0.874
  793W        W66020   9.409  16.868   1.220
  794W        W66021  14.893  38.433   0.934
  795W        W66022  22.662   5.111  10.828
  796W        W66023  17.877  40.384   0.768
  797W        W66024   1.719  12.665  11.125
  798W        W66025  20.568  36.536  14.285
  799W        W66026  28.520   7.329  10.666
  800W        W66027  22.165   5.961  10.802
  801W        W66028  10.329  16.269   1.459
  802W        W66029  32.909  25.522  10.949
  803W        W66030  28.082  11.474  14.475
  804W        W66031  21.504  31.940  10.547
  805W        W66032  38.005  19.834   4.479
  806W        W66033   9.123  21.092   1.051
  807W        W66034  29.436  20.176  12.993
  808W        W66035  24.829  11.930   1.823
  809W        W66036  31.480  32.546  10.618
  810W        W66037   5.203  16.701  13.186
  811W        W66038  24.197  27.529  12.063
  812W        W66039  39.381  30.674   3.861
  813W        W66040  24.745  39.125   3.724
  814W        W66041  22.789   6.265   4.552
  815W        W66042  12.615  10.250  12.426
  816W        W66043  23.954   3.654  13.999
  817W        W66044  25.600  16.847   1.246
  818W        W66045  37.806  37.347  10.082
  819W        W66046   5.143  38.041  12.866
  820W        W66047   1.768   0.335   3.257
  821W        W66048   2.932  40.896   1.509
  822W        W66049  15.145  21.465  13.000
  823W        W66050  10.510  14.286  12.076
  824W        W66051  32.129  17.962  14.255
  825W        W66052  31.047  21.385  14.419
  826W        W66053   2.752  12.966  12.011
  827W        W66054  13.473  25.223   2.783
  828W        W66055   8.203  23.477  14.914
  829W        W66056  29.852  12.266  14.083
  830W        W66057   5.494  38.487  13.982
  831W        W66058  37.253  26.767  14.394
  832W        W66059  33.996  17.731  13.571
  833W        W66060  44.373  38.085  14.163
  834W        W66061   3.806   1.878   9.702
  835W        W66062  37.251  36.413  11.568
  836W        W66063  25.848  40.366   3.291
  837W        W66064  31.901  38.654  12.260
  838W        W66065  32.115  18.269  10.848
  839W        W66066  43.012  25.455  14.655
  840W        W66067  15.135  17.688  13.429
  841W        W66068  44.231   1.190  12.155
  842W        W66069  25.542  17.730   2.745
  843W        W66070  20.389   9.310   4.972
  844W        W66071  20.093  20.878   4.304
  845W        W66072  20.172   1.810  11.619
  846W        W66073  26.634  37.515  13.576
  847W        W66074  14.092  27.529   1.029
  848W        W66075  15.760  23.454   4.077
  849W        W66076  30.893   4.933  12.356
  850W        W66077  16.850  44.628   4.116
  851W        W66078  39.607   6.808   2.031
  852W        W66079  28.983  19.912   3.024
  853W        W66080  38.754  36.054   3.187
  854W        W66081  11.405  34.382  14.926
  855W        W66082  12.817  16.507  11.933
  856W        W66083  17.830   3.956  13.937
  857W        W66084  44.892  18.582   2.228
  858W        W66085  35.812  40.061   4.552
  859W        W66086  35.063  31.583  12.439
  860W        W66087   4.838   2.069  13.002
  861W        W66088  13.689  30.166  10.707
  862W        W66089   7.579  16.196  14.646
  863W        W66090  12.844  26.741   3.582
  864W        W66091   1.458  37.937  13.828
  865W        W66092  16.819  39.402  14.500
  866W        W66093  38.892  30.345   4.062
  867W        W66094   1.327  32.349   2.267
  868W        W66095   8.751  10.136  13.764
  869W        W66096  33.124   2.857  12.400
  870W        W66097   4.868  19.232  12.588
  871W        W66098  17.658  38.029  14.321
  872W        W66099  23.530  14.866   3.591
  873W        W66100  11.586  13.212  12.866
  874W        W66101   1.462   2.856  11.648
  875W        W66102   0.407  26.601   2.425
  876W        W66103  14.352  27.206  12.445
  877W        W66104  37.309  38.600   3.222
  878W        W66105  22.636  14.393   3.234
  879W        W66106  33.364  38.306   0.551
  880W        W66107  22.434   7.428   2.662
  881W        W66108  32.160   6.932   3.206
  882W        W66109  18.761   7.671  11.553
  883W        W66110  40.737   2.420   0.627
  884W        W66111  28.820   0.843   3.600
  885W        W66112   7.145  25.876   0.287
  886W        W66113  17.713  31.887   4.442
  887W        W66114  18.187  23.560  14.350
  888W        W66115  15.989  25.642  13.866
  889W        W66116  13.318  13.273   3.243
  890W        W66117  12.805  35.504   4.122
  891W        W66118  41.562  17.099  12.888
  892W        W66119  28.926  17.555  14.782
  893W        W66120  43.545  40.824  13.950
  894W        W66121  17.351  11.623  12.497
  895W        W66122  24.513  27.121   2.064
  896W        W66123  20.206  15.433   1.049
  897W        W66124  35.806   8.497   4.532
  898W        W66125  10.664  41.248  12.631
  899W        W66126  25.179  36.115   0.614
  900W        W66127  39.067  10.805   0.460
  901W        W66128  16.298  36.935   4.146
  902W        W66129  34.063   5.689  11.179
  903W        W66130   4.680  34.627  12.297
  904W        W66131  42.625  14.567  14.939
  905W        W66132  20.487  33.002  14.727
  906W        W66133  22.462  28.678  13.454
  907W        W66134  42.111  32.990   0.581
  908W        W66135  42.723   8.956  12.074
  909W        W66136   1.310  44.864  13.419
  910W        W66137  31.810   6.740   3.879
  911W        W66138  14.128  36.983   3.890
  912W        W66139  14.616  19.613  13.496
  913W        W66140  40.243  43.492   1.687
  914W        W66141  27.506   9.307   3.285
  915W        W66142  40.571  12.232   2.891
  916W        W66143  14.319   2.051  10.686
  917W        W66144  37.399  28.112  11.417
  918W        W66145   6.279   4.349  14.769
  919W        W66146   0.866  29.111  14.353
  920W        W66147  23.752  28.547   3.174
  921W        W66148  35.287  31.289   0.757
  922W        W66149  34.483  38.533   1.694
  923W        W66150   0.707  14.374  13.764
  924W        W66151  30.130   9.146   1.493
  925W        W66152  10.101  11.432   2.795
  926W        W66153  21.154   9.002   2.204
  927W        W66154  34.564  21.735   3.643
  928W        W66155  20.236   9.540  12.151
  929W        W66156  36.924   8.685  11.907
  930W        W66157   5.854  25.690  12.001
  931W        W66158  40.407  36.369  14.790
  932W        W66159  32.534  43.091  12.735
  933W        W66160  17.494  26.230  11.905
  934W        W66161  15.133  13.272  11.604
  935W        W66162  19.958  36.986   4.795
  936W        W66163  41.864  41.311   3.129
  937W        W66164  14.223  31.340   4.271
  938W        W66165  23.517   5.683   2.050
  939W        W66166  12.888   7.416  11.968
  940W        W66167  34.583   1.207   1.702
  941W        W66168  39.618   4.199   4.111
  942W        W66169  19.642  40.185   3.129
  943W        W66170  23.082  34.663   4.653
  944W        W66171  14.713  30.147  14.517
  945W        W66172  13.405  18.821   2.826
  946W        W66173  38.051  23.161  12.987
  947W        W66174  10.130   0.353   3.740
  948W        W66175  18.101  12.135  14.755
  949W        W66176  15.685  44.795   3.728
  950W        W66177  42.960  43.542   0.458
  951W        W66178  28.343  15.101  11.751
  952W        W66179   1.718  40.775   3.190
  953W        W66180  17.032  24.821  13.489
  954W        W66181  40.312  14.094   1.911
  955W        W66182   6.292   4.994   0.899
  956W        W66183  38.052  29.977  13.127
  957W        W66184  11.314  15.539  10.190
  958W        W66185  35.362  23.315   1.414
  959W        W66186  38.374  22.244  11.223
  960W        W66187  41.059  32.031  13.243
  961W        W66188  26.736  21.211   0.084
  962W        W66189   5.755  42.259   0.317
  963W        W66190  42.824  44.208   4.537
  964W        W66191  37.213  16.911   5.100
  965W        W66192  13.729   7.233  10.809
  966W        W66193  15.801  13.126  13.524
  967W        W66194  44.177  44.634  14.963
  968W        W66195  15.612  37.421  12.472
  969W        W66196  27.714  25.701  14.461
  970W        W66197  43.738  35.895   2.830
  971W        W66198  10.174  21.045   4.248
  972W        W66199   1.427  10.374  13.495
  973W        W66200   9.600  33.014   4.854
  974W        W66201  20.278  10.236  10.780
  975W        W66202  43.760  15.318  10.483
  976W        W66203   6.321   2.476   1.182
  977W        W66204   7.478  22.555  13.036
  978W        W66205  12.986  22.030  14.314
  979W        W66206   9.849  30.469  10.309
  980W        W66207  10.384   6.130  14.477
  981W        W66208   0.284  43.108   1.222
  982W        W66209  41.760  22.653   2.425
  983W        W66210  38.076  21.582   3.731
  984W        W66211  21.523  22.177   2.318
  985W        W66212  16.244  30.931  12.940
  986W        W66213  25.326  12.848  11.740
  987W        W66214  25.921  29.863  11.036
  988W        W66215  19.154  15.793   4.687
  989W        W66216  16.028  44.023   3.405
  990W        W66217  15.694   2.991  13.968
  991W        W66218  15.650   8.709   3.873
  992W        W66219  39.024  29.573  13.802
  993W        W66220  29.167  44.847  10.762
  994W        W66221  13.166  35.983   2.217
  995W        W66222  12.405  18.605  13.102
  996W        W66223  42.491  37.130   2.186
  997W        W66224  25.627  10.748  14.985
  998W        W66225  12.392   9.283   0.263
  999W        W66226  23.096  21.293   2.317
 1000W        W66227  33.004  39.877  13.031
 1001W        W66228  35.270  27.889   5.179
 1002W        W66229  35.137  11.291   4.687
 1003W        W66230  17.438   1.787  11.432
 1004W        W66231  25.957   6.890  10.735
 1005W        W66232   1.834  17.098  14.716
 1006W        W66233   4.170  33.736   1.224
 1007W        W66234  43.047   4.961  11.495
 1008W        W66235  39.130  33.434   2.332
 1009W        W66236  42.605  16.231   4.846
 1010W        W66237   5.685   5.682  12.427
 1011W        W66238  24.457  17.188   0.845
 1012W        W66239  39.868  40.287  14.503
 1013W        W66240  31.122  19.176  12.351
 1014W        W66241   2.231  43.277   1.453
 1015W        W66242   3.246  32.018  12.395
 1016W        W66243  31.554  21.697   3.635
 1017W        W66244  18.538  20.646   2.789
 1018W        W66245  22.805   9.304   3.424
 1019W        W66246  20.658  11.101  10.610
 1020W        W66247  27.369  19.335  11.104
 1021W        W66248  25.649  25.000   9.794
 1022W        W66249   3.841  21.183   4.921
 1023W        W66250  12.337  32.650   1.266
 1024W        W66251  11.304  15.440   2.430
 1025W        W66252  17.102  10.324   1.874
 1026W        W66253   9.422  16.823   4.223
 1027W        W66254  44.926  25.145   1.038
 1028W        W66255   2.204  17.882   0.288
 1029W        W66256  28.728  10.153  11.950
 1030W        W66257  42.224  13.189   4.572
 1031W        W66258  15.097  41.006   1.455
 1032W        W66259  26.502   9.001  10.601
 1033W        W66260  11.234   0.001  11.946
 1034W        W66261   5.917  17.121  11.193
 1035W        W66262  29.635  33.293   1.908
 1036W        W66263  34.088   8.344   2.823
 1037W        W66264  13.634  44.017   2.227
 1038W        W66265  29.180   6.662  13.234
 1039W        W66266  30.234  42.496   4.187
 1040W        W66267   3.661  10.982   2.191
 1041W        W66268  42.280  33.753   2.518
 1042W        W66269   6.027   6.761   1.774
 1043W        W66270   5.669  15.100  12.457
 1044W        W66271  10.064   9.432   0.455
 1045W        W66272  23.616  22.298   2.679
 1046W        W66273  23.262  43.279   1.329
 1047W        W66274  22.338  25.695   3.385
 1048W        W66275   5.600  20.670   4.807
 1049W        W66276  22.769  15.170   1.274
 1050W        W66277  40.568   4.836   4.254
 1051W        W66278  35.306  26.161  10.973
 1052W        W66279  31.756  36.926  12.608
 1053W        W66280   8.074  20.617   1.264
 1054W        W66281  35.973  22.458   0.898
 1055W        W66282   5.255   8.565  13.352
 1056W        W66283  42.876  21.825  13.904
 1057W        W66284  23.486   0.353  12.859
 1058W        W66285  27.371  17.637  13.329
 1059W        W66286  26.032  10.303  11.723
 1060W        W66287  10.362  30.417  12.023
 1061W        W66288  13.737   3.923   4.161
 1062W        W66289  35.897  16.082  12.873
 1063W        W66290   1.046  25.340   9.829
 1064W        W66291  13.634  22.458  12.047
 1065W        W66292  28.178   4.327  14.963
 1066W        W66293  25.648  17.220  12.883
 1067W        W66294  13.288  17.086   4.132
 1068W        W66295  24.009   1.260   0.918
 1069W        W66296  19.862  21.266   5.139
 1070W        W66297   1.073   2.374  13.305
 1071W        W66298  19.084   4.659   0.326
 1072W        W66299  19.650   8.139   3.035
 1073W        W66300  20.237  10.606   3.393
 1074W        W66301  15.265   3.023  12.655
 1075W        W66302   8.124  14.316  11.487
 1076W        W66303  27.619   1.012   4.645
 1077W        W66304  27.995  43.416   0.351
 1078W        W66305  20.925  11.645   1.578
 1079W        W66306  30.531  34.255   0.582
 1080W        W66307  17.314  15.195  10.827
 1081W        W66308  16.546  26.724  12.467
 1082W        W66309  16.884   2.479  10.468
 1083W        W66310   2.335  25.575  14.836
 1084W        W66311   2.604   0.067   4.545
 1085W        W66312  25.656  10.541  13.909
 1086W        W66313  29.482  40.909  13.469
 1087W        W66314  21.831  24.267   0.444
 1088W        W66315   8.120   0.024  13.532
 1089W        W66316  21.772  17.580  14.868
 1090W        W66317  10.986  35.871   4.375
 1091W        W66318  30.359  16.160   1.730
 1092W        W66319  40.248  29.277   0.290
 1093W        W66320   3.715  30.634   5.047
 1094W        W66321   4.738  23.752  10.731
 1095W        W66322  37.866  39.081   1.684
 1096W        W66323   3.468  40.556  13.691
 1097W        W66324  28.616  33.002  11.717
 1098W        W66325   9.347   9.224  10.707
 1099W        W66326  22.863  10.161  12.902
 1100W        W66327  31.096  27.550   0.743
 1101W        W66328  27.929   0.603  11.429
 1102W        W66329  39.961  17.239   4.584
 1103W        W66330  34.023  30.919   0.508
 1104W        W66331   6.640  38.320   3.315
 1105W        W66332   1.881   8.421  14.336
 1106W        W66333  40.931  30.064  13.852
 1107W        W66334  28.341  42.907   2.708
 1108W        W66335  28.129  36.267   4.501
 1109W        W66336   8.396  19.222  14.873
 1110W        W66337  36.929  26.005  13.038
 1111W        W66338  15.552  23.666  13.404
 1112W        W66339  20.633   5.768   1.243
 1113W        W66340  12.781  14.353  11.921
 1114W        W66341  29.664  30.125  13.450
 1115W        W66342  33.240  18.628   4.558
 1116W        W66343   1.022  38.340  12.676
 1117W        W66344  20.732   7.236  11.372
 1118W        W66345  34.128  23.648  14.896
 1119W        W66346  19.526   1.214  11.119
 1120W        W66347  32.369  19.562  12.449
 1121W        W66348  28.989   3.993   4.456
 1122W        W66349  17.771  28.895   4.135
 1123W        W66350   6.828  39.779   0.390
 1124W        W66351  12.757  38.104   0.784
 1125W        W66352  34.338   2.209   0.477
 1126W        W66353  14.970  27.635  13.867
 1127W        W66354  23.102  32.811   4.281
 1128W        W66355  33.173  34.996   0.195
 1129W        W66356  21.810  23.240   1.248
 1130W        W66357  30.078   5.809  13.882
 1131W        W66358  32.534  10.377  14.344
 1132W        W66359  35.550  32.777  10.574
 1133W        W66360   6.930  17.003  12.410
 1134W        W66361  28.921   3.564   1.255
 1135W        W66362  25.115  28.888   0.725
 1136W        W66363  20.324   8.440   0.331
 1137W        W66364  12.232   2.876  12.379
 1138W        W66365  37.016  39.868  12.318
 1139W        W66366  18.159  41.748  14.450
 1140W        W66367  14.107  11.719  12.116
 1141W        W66368  15.841  21.507   1.817
 1142W        W66369   7.732  20.978   2.412
 1143W        W66370  35.995   7.358  12.047
 1144W        W66371  33.814  30.027   0.822
 1145W        W66372  17.864  39.457  10.572
 1146W        W66373  27.972   9.310  11.243
 1147W        W66374  40.391  11.853  14.529
 1148W        W66375  30.014  29.239  11.504
 1149W        W66376  26.986  10.690   0.504
 1150W        W66377  37.422  23.715  13.284
 1151W        W66378  12.900  44.456  14.140
 1152W        W66379  18.142  44.270  11.227
 1153W        W66380  44.455  42.107   0.455
 1154W        W66381  34.323   3.647   0.893
 1155W        W66382  42.540  21.071  14.437
 1156W        W66383  31.570  10.465   2.071
 1157W        W66384  28.881  21.531   3.249
 1158W        W66385  10.371  28.886   1.970
 1159W        W66386   8.609  22.699  12.182
 1160W        W66387  21.409  39.829   3.462
 1161W        W66388   5.198   7.355   2.309
 1162W        W66389  38.527  18.751   4.634
 1163W        W66390  43.233  17.741   4.086
 1164W        W66391  19.775  30.682  12.552
 1165W        W66392  25.026  34.013   0.733
 1166W        W66393  18.845  42.690   4.934
 1167W        W66394  41.530  27.084  14.213
 1168W        W66395  27.869  38.476   0.362
 1169W        W66396  21.492  17.008   9.999
 1170W        W66397  35.399  25.476  12.348
 1171W        W66398  27.001  21.433  12.456
 1172W        W66399  34.608  13.556  11.599
 1173W        W66400   3.355  15.863   4.322
 1174W        W66401  17.286  22.619   4.232
 1175W        W66402  31.790  17.645  12.513
 1176W        W66403  30.432  35.758  11.231
 1177W        W66404  38.493   4.010  11.308
 1178W        W66405  19.044  11.638   3.673
 1179W        W66406  32.127  33.042   1.854
 1180W        W66407  37.595   8.326   0.817
 1181W        W66408   7.368  25.168  13.520
 1182W        W66409  40.809  25.129   0.648
 1183W        W66410  16.030  28.207  14.481
 1184W        W66411  13.805  12.610  12.660
 1185W        W66412  18.956  12.022  11.113
 1186W        W66413  19.059   8.605   1.164
 1187W        W66414  24.194  15.620  10.154
 1188W        W66415  28.818   6.901  13.550
 1189W        W66416  38.008   1.739   4.653
 1190W        W66417  40.255  17.265   5.083
 1191W        W66418  31.138  10.703   2.839
 1192W        W66419  26.883  23.171  14.392
 1193W        W66420   7.367  44.744   4.558
 1194W        W66421  36.385  20.306  11.303
 1195W        W66422   6.226  15.681  13.437
 1196W        W66423   5.514  35.741   1.815
 1197W        W66424   1.251   2.204   2.137
 1198W        W66425  29.569   2.487  14.889
 1199W        W66426  17.678  30.785  11.802
 1200W        W66427   1.401  18.488   3.199
 1201W        W66428   0.836   9.340  13.200
 1202W        W66429  11.409  39.157   1.939
 1203W        W66430   9.855  16.814  12.839
 1204W        W66431  41.395  38.892   4.880
 1205W        W66432  33.475   3.134  14.394
 1206W        W66433  44.806  17.063   9.930
 1207W        W66434  36.308   3.287   3.636
 1208W        W66435  13.876  10.134  14.512
 1209W        W66436   5.054  27.561   0.363
 1210W        W66437  32.391  19.035   3.683
 1211W        W66438  33.268  29.212  13.342
 1212W        W66439  16.832  25.554   3.597
 1213W        W66440  35.032  40.773  10.467
 1214W        W66441   4.437  43.989  13.518
 1215W        W66442   9.756   3.996  13.123
 1216W        W66443  37.940  37.085  11.183
 1217W        W66444  21.340  15.643  13.691
 1218W        W66445  21.788  25.561   0.708
 1219W        W66446  10.448   4.471  13.373
 1220W        W66447  24.052  20.628  11.086
 1221W        W66448  28.125   9.557   2.256
 1222W        W66449  12.192   8.170  11.634
 1223W        W66450  17.543  17.179   2.350
 1224W        W66451   3.640  11.709  14.903
 1225W        W66452   0.449  38.450  12.552
 1226W        W66453   4.412   1.796  11.971
 1227W        W66454  41.499   5.902   2.995
 1228W        W66455  22.777  22.310  12.758
 1229W        W66456  31.459  11.524   4.529
 1230W        W66457   0.430  15.234  14.005
 1231W        W66458  14.887  44.963  12.403
 1232W        W66459  29.016  12.328   1.241
 1233W        W66460  39.846  19.782  11.593
 1234W        W66461  42.390  24.601  13.579
 1235W        W66462  19.724  34.951   3.254
 1236W        W66463  22.361  43.477  12.971
 1237W        W66464  25.608  38.977  11.526
 1238W        W66465  17.731   6.900  12.241
 1239W        W66466  27.511   1.300  13.737
 1240W        W66467  10.017   8.371   1.548
 1241W        W66468  36.941  31.426   0.887
 1242W        W66469  24.192  21.625  13.645
 1243W        W66470   5.493  24.059  12.330
 1244W        W66471  12.861   8.225  10.618
 1245W        W66472  42.184  38.829  13.032
 1246W        W66473  36.092  11.360  14.180
 1247W        W66474  32.173  17.449  14.325
 1248W        W66475  26.675  10.954   1.874
 1249W        W66476   4.973  30.087   2.240
 1250W        W66477  21.183   1.176   9.984
 1251W        W66478  44.917  43.408  12.232
 1252W        W66479  33.889  25.707   4.572
 1253W        W66480  25.260  10.147   0.395
 1254W        W66481  27.061   7.864  12.229
 1255W        W66482  22.455  44.880   1.951
 1256W        W66483  28.048  18.544  13.458
 1257W        W66484  26.830  19.967   2.284
 1258W        W66485   5.331  23.641  12.099
 1259W        W66486  37.501  21.741   1.272
 1260W        W66487   0.891  22.977   1.230
 1261W        W66488  15.773  41.938  11.068
 1262W        W66489  21.243  42.985  14.850
 1263W        W66490  34.525  19.043  12.436
 1264W        W66491  12.750   7.276   1.870
 1265W        W66492  16.238  33.270   4.013
 1266W        W66493  23.877  44.237   3.249
 1267W        W66494  11.207  43.829  13.863
 1268W        W66495  11.148  34.740  14.559
 1269W        W66496  44.367  41.142  10.437
 1270W        W66497  44.017  33.378  13.295
 1271W        W66498   3.410   4.298   4.561
 1272W        W66499  24.544  12.702   4.257
 1273W        W66500  25.616  21.602  13.261
 1274W        W66501  21.677  14.683  14.874
 1275W        W66502  27.518  33.183  13.462
 1276W        W66503  33.527  44.404  12.980
 1277W        W66504  41.597  43.422  12.565
 1278W        W66505  38.581  22.262   4.194
 1279W        W66506  21.551  14.740  12.841
 1280W        W66507  24.635   3.536   3.008
 1281W        W66508  15.818  33.920  14.316
 1282W        W66509  22.116  34.897   0.689
 1283W        W66510  10.058  16.026   2.330
 1284W        W66511  40.019  34.382  10.534
 1285W        W66512  20.313   6.190  12.843
 1286W        W66513  36.033  27.921  13.822
 1287W        W66514  32.626  27.775  12.513
 1288W        W66515   0.755  42.550  14.375
 1289W        W66516  23.851  36.949  13.878
 1290W        W66517   6.424  19.869   1.327
 1291W        W66518  41.315   7.181   4.922
 1292W        W66519  38.435  33.572  10.648
 1293W        W66520   7.120  32.390   4.265
 1294W        W66521   4.592  27.469  13.528
 1295W        W66522   5.784  37.395  11.009
 1296W        W66523  22.285  25.517  10.779
 1297W        W66524  25.208  31.041   2.700
 1298W        W66525  36.106  28.124   2.989
 1299W        W66526  25.373  16.335  12.869
 1300W        W66527   6.446  22.764   5.103
 1301W        W66528   3.638   5.837   0.037
 1302W        W66529  30.783  14.406  13.519
 1303W        W66530  44.538  33.044   3.896
 1304W        W66531  15.387  14.787  11.579
 1305W        W66532  37.880   2.196  11.612
 1306W        W66533  41.578   1.455   1.665
 1307W        W66534   0.396   7.509  12.350
 1308W        W66535  11.546  41.325   1.123
 1309W        W66536  26.434  10.646   0.565
 1310W        W66537  41.907  19.312   0.613
 1311W        W66538  16.634  27.293   0.522
 1312W        W66539  13.192  34.181   0.321
 1313W        W66540  32.093  37.069   1.940
 1314W        W66541  32.585  11.145  14.278
 1315W        W66542  20.951  27.804   4.090
 1316W        W66543  37.564  27.250   1.142
 1317W        W66544  35.056  33.432   3.830
 1318W        W66545  35.607  19.611  11.095
 1319W        W66546  19.318   9.859  13.382
 1320W        W66547  36.781  39.315   2.293
 1321W        W66548  24.045  30.332  13.379
 1322W        W66549  16.034  14.152  10.599
 1323W        W66550  29.619  21.484  13.178
 1324W        W66551  19.878  42.926  11.926
 1325W        W66552  16.339  40.188  14.833
 1326W        W66553  24.048   6.570   4.986
 1327W        W66554   2.355  38.349  10.675
 1328W        W66555  35.764  19.466  10.627
 1329W        W66556  15.013  15.355  10.807
 1330W        W66557  30.955  24.985   4.584
 1331W        W66558  25.949  22.755   2.887
 1332W        W66559   9.160   9.364   5.216
 1333W        W66560  32.565   1.286   0.177
 1334W        W66561  30.132   3.829  11.705
 1335W        W66562   2.688  32.513   0.332
 1336W        W66563  14.367  11.186  12.402
 1337W        W66564   7.319  11.712  11.972
 1338W        W66565  44.963  39.806  14.430
 1339W        W66566  39.458  44.149  11.968
 1340W        W66567   8.732  15.346  12.035
 1341W        W66568   1.710  19.154   1.783
 1342W        W66569   9.719  13.236  12.348
 1343W        W66570  29.672  20.116  12.036
 1344W        W66571  26.731  30.663  11.800
 1345W        W66572  28.951  23.053   0.065
 1346W        W66573  25.601  17.530   3.227
 1347W        W66574  33.583  39.329   1.341
 1348W        W66575   9.516  31.478  14.456
 1349W        W66576  31.917   6.839   1.382
 1350W        W66577  15.199  41.287   2.267
 1351W        W66578  18.313  33.530   0.661
 1352W        W66579  15.140  16.142   0.826
 1353W        W66580  28.962  43.781   4.149
 1354W        W66581   2.716   6.493  14.437
 1355W        W66582  22.858  10.263   3.313
 1356W        W66583  20.658  44.216   1.411
 1357W        W66584  28.953  21.748   3.694
 1358W        W66585  44.389  15.822  14.887
 1359W        W66586  29.241   7.175  13.315
 1360W        W66587  20.275   4.144  12.167
 1361W        W66588  39.162   5.608  11.721
 1362W        W66589  39.688  35.415  14.752
 1363W        W66590  21.258  30.937  13.879
 1364W        W66591  27.969   3.765  12.862
 1365W        W66592  18.195  14.606   3.598
 1366W        W66593   0.010  17.085  13.059
 1367W        W66594  28.280   7.379  14.994
 1368W        W66595   5.754  30.064  13.013
 1369W        W66596  25.023  11.230   2.375
 1370W        W66597  19.685  29.473   1.268
 1371W        W66598  22.148   3.543  11.015
 1372W        W66599   0.239  10.447  11.830
 1373W        W66600  39.734  33.925  10.493
 1374W        W66601  13.065  25.056  11.251
 1375W        W66602   3.816  18.526   3.666
 1376W        W66603  37.487  16.817   0.456
 1377W        W66604   1.091  44.480   0.936
 1378W        W66605  36.318  27.713   0.111
 1379W        W66606  33.249  22.259  13.905
 1380W        W66607  39.630   7.736  13.521
 1381W        W66608  44.594   5.673   4.174
 1382W        W66609   9.759  19.360   0.797
 1383W        W66610  18.591   9.925   4.628
 1384W        W66611   1.960   1.911   4.273
 1385W        W66612  10.265  25.139  10.990
 1386W        W66613  38.135  44.192  13.400
 1387W        W66614   1.081  20.700  11.205
 1388W        W66615  22.742  21.090  10.929
 1389W        W66616  40.722  21.279   1.942
 1390W        W66617  18.024  32.977  11.890
 1391W        W66618  11.015  33.057   3.085
 1392W        W66619  41.302  11.086  14.248
 1393W        W66620  15.927  12.184   2.636
 1394W        W66621   3.189  21.378   3.464
 1395W        W66622  35.842  36.792  10.863
 1396W        W66623  33.066  32.984  12.567
 1397W        W66624  40.874  15.177  13.046
 1398W        W66625  14.120  26.160  11.110
 1399W        W66626  34.087  33.442   3.448
 1400W        W66627   5.509   0.930  13.748
 1401W        W66628  35.086   7.346   4.536
 1402W        W66629  31.298  17.618   2.560
 1403W        W66630  12.568   3.958  11.019
 1404W        W66631   1.480  11.840   0.927
 1405W        W66632  21.452  35.628   3.339
 1406W        W66633  36.466   0.089  13.304
 1407W        W66634  13.973  28.499   3.975
 1408W        W66635  20.058  41.481   3.269
 1409W        W66636  34.987  16.109   1.204
 1410W        W66637  43.368  12.452  10.640
 1411W        W66638  21.551   7.518   0.334
 1412W        W66639  16.670   1.482   4.609
 1413W        W66640  42.260  15.276  13.485
 1414W        W66641  22.692  36.171  10.749
 1415W        W66642  23.079   9.342  14.062
 1416W        W66643  23.044  44.026   2.083
 1417W        W66644  12.067   6.373   1.810
 1418W        W66645  35.393  33.834  14.887
 1419W        W66646  30.164   3.747   4.196
 1420W        W66647  17.416  39.779  10.870
 1421W        W66648  37.830  39.922   1.841
 1422W        W66649  13.387  24.836  12.646
 1423W        W66650  32.401   8.169   1.311
 1424W        W66651  17.211  21.598   3.233
 1425W        W66652   2.264   2.116   2.664
 1426W        W66653  35.157  35.902  10.120
 1427W        W66654  29.909  21.804   1.263
 1428W        W66655  42.402  12.626  10.990
 1429W        W66656   4.266  12.218   3.673
 1430W        W66657  35.623  36.938  13.082
 1431W        W66658  32.392  44.959  12.439
 1432W        W66659  15.824  17.263  12.410
 1433W        W66660  20.724  30.288  13.372
 1434W        W66661  31.089  41.582   1.850
 1435W        W66662  33.802   2.950   3.091
 1436W        W66663  30.248  13.033  13.817
 1437W        W66664  20.823  15.736  13.809
 1438W        W66665  35.450  25.155  11.962
 1439W        W66666   6.357  11.609   2.747
 1440W        W66667  42.906  10.274  11.140
 1441W        W66668  44.513  13.872  12.562
 1442W        W66669  19.285  43.815  14.037
 1443W        W66670  12.338  24.244   3.984
 1444W        W66671  40.533  30.995   0.534
 1445W        W66672  22.153  25.751   1.432
 1446W        W66673  16.733  13.037  12.520
 1447W        W66674  34.606  44.625  10.869
 1448W        W66675   7.295  28.929   1.816
 1449W        W66676   7.936   7.855  12.577
 1450W        W66677  28.221  16.682  12.350
 1451W        W66678  35.327   8.861   3.872
 1452W        W66679  43.706  18.639   9.818
 1453W        W66680  36.673  28.215  13.291
 1454W        W66681  41.387   8.427  12.475
 1455W        W66682  27.862   6.461  13.589
 1456W        W66683   2.350  41.368  12.151
 1457W        W66684  35.159   8.675  12.542
 1458W        W66685   1.957  40.089  11.048
 1459W        W66686  19.194  17.502   4.711
 1460W        W66687  34.886  21.634   2.687
 1461W        W66688   3.782   1.114  13.040
 1462W        W66689   2.405  28.457   5.116
 1463W        W66690  22.115  15.641   2.615
 1464W        W66691  17.673   1.039   3.633
 1465W        W66692  33.237   9.904  12.031
 1466W        W66693   1.753   3.910   4.418
 1467W        W66694   9.148  30.003  11.235
 1468W        W66695  44.540  17.680  13.146
 1469W        W66696  33.414   5.451  13.879
 1470W        W66697  26.476  14.418   0.343
 1471W        W66698  33.545  33.334  13.813
 1472W        W66699  35.421   2.757  14.794
 1473W        W66700  14.411  34.006   0.744
 1474W        W66701  39.559  10.144  14.920
 1475W        W66702  18.614  41.486   4.044
 1476W        W66703  44.537  14.679   4.552
 1477W        W66704  18.210   6.392   2.801
 1478W        W66705   0.982   5.406  12.139
 1479W        W66706  27.927  14.390  10.633
 1480W        W66707  41.169  31.675   4.501
 1481W        W66708  16.564   9.775   1.623
 1482W        W66709  21.233   0.772  14.301
 1483W        W66710  19.401  36.389   2.650
 1484W        W66711   9.222  10.749  14.668
 1485W        W66712  35.414  12.622   3.891
 1486W        W66713  11.157  24.434  13.379
 1487W        W66714  21.498  32.513  12.019
 1488W        W66715  36.329   8.624   1.764
 1489W        W66716  22.500  25.556   2.753
 1490W        W66717  34.731  39.479   9.877
 1491W        W66718  27.081  31.741  14.449
 1492W        W66719  41.106   1.625   1.438
 1493W        W66720  28.778  21.252   2.809
 1494W        W66721  34.126   6.023   2.590
 1495W        W66722  25.779  21.867  13.679
 1496W        W66723  31.173  37.539  13.148
 1497W        W66724   7.415  34.407   2.438
 1498W        W66725  11.066  39.851  13.866
 1499W        W66726  28.011   6.273  12.140
 1500W        W66727  19.130  26.415   2.896
 1501W        W66728  27.116  29.582  12.777
 1502W        W66729   6.313  30.616  11.034
 1503W        W66730   3.531  20.316  13.023
 1504W        W66731   5.055  37.873   3.270
 1505W        W66732  12.402  39.872   3.700
 1506W        W66733  37.495  35.815   2.853
 1507W        W66734   7.244  20.526  12.579
 1508W        W66735  39.073  41.563   2.775
 1509W        W66736  21.460  44.962   4.182
 1510W        W66737  25.959  35.667   3.842
 1511W        W66738  12.097  28.573  10.601
 1512W        W66739  16.064  18.938  13.479
 1513W        W66740  44.425  24.950   1.298
 1514W        W66741   8.390  17.268   2.791
 1515W        W66742  36.363   6.159   5.007
 1516W        W66743  30.035  20.210  13.399
 1517W        W66744  12.341   4.459   0.790
 1518W        W66745  17.605  44.401  12.949
 1519W        W66746   0.968  34.846  12.808
 1520W        W66747  30.874  17.203  10.941
 1521W        W66748  30.013   4.239   0.966
 1522W        W66749  34.976  33.153  14.056
 1523W        W66750  35.897  28.920   3.350
 1524W        W66751  16.758  16.999  13.928
 1525W        W66752  17.715  27.960   4.049
 1526W        W66753  21.785  28.522   4.175
 1527W        W66754  29.961  37.827   1.826
 1528W        W66755  28.000  44.880   5.021
 1529W        W66756  18.413  24.767  11.143
 1530W        W66757   7.807  19.325  13.479
 1531W        W66758   2.029  10.675   3.155
 1532W        W66759  14.395  10.638  12.537
 1533W        W66760  40.586  27.041  11.035
 1534W        W66761  24.196   5.538  11.312
 1535W        W66762  13.099  39.065   3.147
 1536W        W66763   3.610  37.010   1.733
 1537W        W66764  11.372   7.799  13.411
 1538W        W66765  28.883  25.131   1.907
 1539W        W66766  24.550   1.247   1.262
 1540W        W66767   1.808  15.708   0.637
 1541W        W66768  40.004   7.306   2.315
 1542W        W66769   7.616  14.772   0.799
 1543W        W66770   2.972  43.860   5.080
 1544W        W66771  33.161   6.109   4.792
 1545W        W66772  15.636   7.274   0.023
 1546W        W66773  35.624  23.977  12.888
 1547W        W66774  26.590   6.038   0.300
 1548W        W66775  18.914  25.958   1.374
 1549W        W66776  27.034   4.444  10.770
 1550W        W66777  23.682  30.827  14.850
 1551W        W66778  26.095  29.116  10.617
 1552W        W66779  42.446   3.488   3.629
 1553W        W66780  20.801  44.780  11.855
 1554W        W66781  31.088  31.867  13.955
 1555W        W66782  23.616  12.046   0.299
 1556W        W66783  27.216  40.826  12.563
 1557W        W66784  37.607  27.642   3.839
 1558W        W66785   6.641  28.962   3.075
 1559W        W66786  10.069  14.999   3.570
 1560W        W66787  32.196  16.361   3.667
 1561W        W66788   3.397  18.999   1.191
 1562W        W66789  33.116  35.365   4.435
 1563W        W66790  22.703  22.724   2.735
 1564W        W66791  30.403   6.887  12.491
 1565W        W66792  30.799   0.742   4.007
 1566W        W66793   8.628  27.151  14.857
 1567W        W66794  24.715  23.705  14.920
 1568W        W66795   1.259  38.769  14.917
 1569W        W66796  41.298  16.806   2.939
 1570W        W66797  38.814   0.956   4.994
 1571W        W66798  34.360   7.596  14.936
 1572W        W66799   4.229  22.583  14.718
 1573W        W66800   4.508  12.088   1.164
 1574W        W66801  41.326  26.975   2.257
 1575W        W66802  36.868  14.209  12.542
 1576W        W66803   9.291  23.359  12.089
 1577W        W66804  22.413  18.364  14.251
 1578W        W66805  43.696  29.344  11.606
 1579W        W66806  21.781   6.956   1.221
 1580W        W66807  25.926  25.156  13.553
 1581W        W66808  32.053  22.749   3.993
 1582W        W66809  38.273   2.577   2.180
 1583W        W66810   5.433  30.437   4.498
 1584W        W66811   6.315   2.922  13.334
 1585W        W66812  30.598  30.537  13.475
 1586W        W66813  23.317  31.600  13.488
 1587W        W66814  24.771  40.601   2.279
 1588W        W66815  26.172  30.307  11.187
 1589W        W66816  40.833  20.851   4.722
 1590W        W66817  17.340  10.438   2.759
 1591W        W66818  37.323   4.514  13.197
 1592W        W66819  19.375   9.271   0.520
 1593W        W66820  11.131  12.891  14.437
 1594W        W66821  16.236  38.275   2.218
 1595W        W66822  14.924  16.332  10.787
 1596W        W66823  17.755  42.824  13.683
 1597W        W66824  11.305  25.640  14.075
 1598W        W66825  34.642  12.802   1.446
 1599W        W66826   0.659  42.159   4.077
 1600W        W66827  18.263  28.502  13.280
 1601W        W66828  28.892  19.423   3.199
 1602W        W66829  11.286  16.421  10.891
 1603W        W66830   2.778  36.945   4.694
 1604W        W66831  39.812  27.897  11.920
 1605W        W66832  29.489  39.129   4.399
 1606W        W66833  15.960  15.215  10.731
 1607W        W66834  43.556   6.535   3.201
 1608W        W66835  17.243  38.098   3.618
 1609W        W66836   7.829  44.703   4.814
 1610W        W66837  32.185  24.253  12.052
 1611W        W66838  19.362  18.324   3.983
 1612W        W66839  39.595  12.616   2.207
 1613W        W66840  37.863  30.917  13.013
 1614W        W66841  20.265   9.232   2.145
 1615W        W66842  43.565   4.282  13.334
 1616W        W66843  19.480   9.771  11.012
 1617W        W66844   3.946  40.177  11.886
 1618W        W66845  16.061   1.098  12.380
 1619W        W66846  28.084   1.359   2.190
 1620W        W66847   3.333   4.015   3.343
 1621W        W66848  25.315  18.684  12.738
 1622W        W66849  29.832   4.732  13.495
 1623W        W66850  22.571   2.883  14.839
 1624W        W66851  19.621   4.509  11.050
 1625W        W66852   3.919   0.508   2.779
 1626W        W66853  11.685   1.023  12.574
 1627W        W66854  13.380  27.034   1.086
 1628W        W66855  31.610  20.523   3.049
 1629W        W66856  38.119   3.219  11.621
 1630W        W66857  22.317  33.645  12.518
 1631W        W66858  19.549  43.577  11.529
 1632W        W66859  21.559  16.661  12.483
 1633W        W66860  39.907  13.274   0.207
 1634W        W66861   3.360  21.494  14.911
 1635W        W66862  35.146  28.453   0.285
 1636W        W66863  28.356  26.472   9.658
 1637W        W66864  42.842  34.501   2.120
 1638W        W66865  20.587  35.626  12.137
 1639W        W66866  10.393  17.143  11.964
 1640W        W66867   9.135   4.003   0.837
 1641W        W66868  37.919  19.811  12.868
 1642W        W66869  28.550   3.288   4.819
 1643W        W66870  13.118   6.294   1.877
 1644W        W66871  23.503  32.590  11.189
 1645W        W66872   9.382  22.768   0.907
 1646W        W66873  20.032  13.139   3.331
 1647W        W66874  31.967   4.420  10.667
 1648W        W66875  15.997  28.889   3.786
 1649W        W66876   1.881  29.062   5.267
 1650W        W66877  18.850  10.441   4.497
 1651W        W66878  27.937   2.550   0.424
 1652W        W66879  32.022  42.831   1.254
 1653W        W66880  21.067  21.735  11.981
 1654W        W66881   3.720  27.717   0.776
 1655W        W66882  11.110  16.939   2.259
 1656W        W66883  27.106   5.350  14.304
 1657W        W66884  38.029  21.452   0.011
 1658W        W66885  36.301   8.440   4.674
 1659W        W66886  35.223  42.918  13.490
 1660W        W66887  22.554  36.126   4.127
 1661W        W66888  14.104  20.055   3.753
 1662W        W66889  14.718  30.793   0.852
 1663W        W66890  20.634  35.331  11.720
 1664W        W66891  35.492  11.635   4.831
 1665W        W66892  19.507  36.437   1.798
 1666W        W66893  11.523  29.194   0.544
 1667W        W66894   4.761  28.794   4.020
 1668W        W66895  34.952   5.289   1.803
 1669W        W66896  24.569  30.300   2.684
 1670W        W66897  43.333  17.514   5.430
 1671W        W66898  27.103  35.801   2.752
 1672W        W66899   0.320  25.044   4.609
 1673W        W66900  25.081  23.685   3.192
 1674W        W66901  12.289   2.909   0.984
 1675W        W66902  39.544  16.460  13.460
 1676W        W66903  42.007  42.698   2.450
 1677W        W66904  33.073  40.193   1.332
 1678W        W66905  28.894  28.937  12.939
 1679W        W66906   7.476  40.346   2.458
 1680W        W66907  32.000  23.217  11.963
 1681W        W66908  10.126  31.640   4.424
 1682W        W66909  31.436  16.037   2.820
 1683W        W66910  15.559  41.324  13.322
 1684W        W66911   2.362  14.348  12.018
 1685W        W66912  30.645  42.572   3.296
 1686W        W66913   1.431  39.560   4.128
 1687W        W66914  20.103  20.220  14.290
 1688W        W66915  28.773  42.387   1.682
 1689W        W66916  17.487  40.311  12.130
 1690W        W66917  34.557   7.942  13.002
 1691W        W66918  23.502  42.821   1.409
 1692W        W66919  41.864  28.223   2.128
 1693W        W66920  38.622  11.649   1.904
 1694W        W66921  16.552  28.049   3.701
 1695W        W66922  11.933  33.013  13.126
 1696W        W66923   2.195  29.525  11.690
 1697W        W66924  18.856  12.071   0.495
 1698W        W66925  31.401  21.003  13.583
 1699W        W66926  32.182  42.429  13.062
 1700W        W66927  36.178  33.085  11.052
 1701W        W66928  34.374  38.933   4.207
 1702W        W66929  35.191  13.697  13.871
 1703W        W66930   7.789   8.576   3.756
 1704W        W66931   0.574  35.539   2.154
 1705W        W66932  38.315  42.931  14.759
 1706W        W66933  10.403   6.444  11.734
 1707W        W66934   9.629  21.555   3.644
 1708W        W66935  37.350  13.215   3.608
 1709W        W66936  22.093  21.347  14.409
 1710W        W66937  14.508  44.041  14.926
 1711W        W66938  35.963   2.092   0.724
 1712W        W66939   7.316  27.461   4.588
 1713W        W66940   7.787  33.122  13.874
 1714W        W66941  14.561   7.371  12.457
 1715W        W66942  20.306  12.978   3.743
 1716W        W66943  44.989  23.393  13.025
 1717W        W66944  10.315  17.113  12.981
 1718W        W66945  31.988  23.529   4.595
 1719W        W66946   1.705  19.716   1.310
 1720W        W66947  10.131   9.067   0.868
 1721W        W66948  35.177  41.217  11.271
 1722W        W66949  27.583  28.886  11.493
 1723W        W66950   7.408   6.125  14.813
 1724W        W66951  39.306  42.668   4.071
 1725W        W66952  39.321  27.116  11.242
 1726W        W66953  35.404  36.215  12.370
 1727W        W66954   4.459   5.359   2.772
 1728W        W66955   6.308   0.578  14.449
 1729W        W66956  34.565  43.857   3.293
 1730W        W66957   0.391  28.645   4.692
 1731W        W66958  44.279  10.334  14.009
 1732W        W66959   9.830  21.223  14.192
 1733W        W66960  22.527   5.231  14.551
 1734W        W66961  12.949  38.938  13.097
 1735W        W66962  12.314   5.951  10.728
 1736W        W66963  35.089  29.532   5.002
 1737W        W66964   3.348  10.437   4.533
 1738W        W66965  28.066  43.345   2.860
 1739W        W66966  42.272  33.175   1.312
 1740W        W66967  13.593  24.236   4.543
 1741W        W66968  25.088   4.393  12.015
 1742W        W66969  34.601  17.587  12.463
 1743W        W66970  25.984  32.045   2.269
 1744W        W66971  20.536  37.955   0.295
 1745W        W66972  23.363  12.288  10.909
 1746W        W66973  32.752  37.652   1.290
 1747W        W66974  30.356   4.638  14.869
 1748W        W66975  16.519   0.809   2.000
 1749W        W66976  40.850  27.594  11.990
 1750W        W66977   0.158  41.515  11.606
 1751W        W66978  30.102  44.432  12.353
 1752W        W66979  28.970   6.806   2.008
 1753W        W66980   6.972  41.227   2.218
 1754W        W66981  13.632   1.493  14.794
 1755W        W66982  19.290  32.838  13.933
 1756W        W66983   1.910  37.353  10.223
 1757W        W66984  36.055  36.615   0.945
 1758W        W66985  20.515  42.589   2.717
 1759W        W66986  11.595  20.301  13.006
 1760W        W66987  17.960   6.363   3.291
 1761W        W66988   7.598   3.817  11.124
 1762W        W66989  28.585  41.502   0.646
 1763W        W66990  20.407  42.438   4.164
 1764W        W66991  20.762  24.439   1.697
 1765W        W66992  19.068  36.591  14.757
 1766W        W66993   8.752  29.383   0.498
 1767W        W66994  22.232   2.065   3.597
 1768W        W66995  38.495  13.817  13.747
 1769W        W66996  28.169   8.684  10.821
 1770W        W66997  22.716   2.459  12.460
 1771W        W66998  34.355  43.950   0.904
 1772W        W66999  38.387   5.855  12.459
 1773W        W67000  14.393  32.009   9.861
 1774W        W67001  42.892   5.455   5.555
 1775W        W67002  22.000   7.967   4.483
 1776W        W67003  11.673   3.523   3.156
 1777W        W67004   0.734  16.336  13.445
 1778W        W67005   2.792  21.360  13.276
 1779W        W67006  40.346  42.227   2.419
 1780W        W67007  44.872  35.484  14.136
 1781W        W67008  39.495  31.520  12.281
 1782W        W67009   2.238   2.733  13.473
 1783W        W67010   3.759  44.366  14.513
 1784W        W67011  32.790  31.376  14.913
 1785W        W67012  18.252  22.496   1.698
 1786W        W67013  26.236  26.526   1.912
 1787W        W67014  28.554  44.777  13.112
 1788W        W67015   6.183  38.587  14.825
 1789W        W67016  16.709  23.271   0.369
 1790W        W67017  33.417  11.048   2.905
 1791W        W67018  14.304  32.120   3.163
 1792W        W67019  13.911   2.451   0.518
 1793W        W67020  13.693  40.322  14.988
 1794W        W67021  26.818   2.146  11.576
 1795W        W67022  31.114  40.346   1.060
 1796W        W67023  44.331  32.951  13.385
 1797W        W67024  12.278  16.033   3.099
 1798W        W67025  13.337  14.600   3.306
 1799W        W67026   6.205  40.615  11.091
 1800W        W67027  18.846  25.085   2.421
 1801W        W67028  12.723  12.559   0.376
 1802W        W67029  44.749  13.720   0.510
 1803W        W67030  22.743  15.580  14.065
 1804W        W67031  16.630  43.362  14.532
 1805W        W67032  10.922  27.638   3.123
 1806W        W67033  21.747  19.425  11.498
 1807W        W67034  10.331  18.429   4.679
 1808W        W67035   7.936  35.827   2.813
 1809W        W67036   8.426  42.926   2.083
 1810W        W67037  25.202  42.801   3.288
 1811W        W67038  17.288  37.373  12.641
 1812W        W67039   8.678   8.365  12.652
 1813W        W67040  32.612   3.310   1.421
 1814W        W67041  42.352  12.658  11.502
 1815W        W67042  37.370  38.054   3.994
 1816W        W67043  14.731  12.794   2.662
 1817W        W67044  42.433  36.097  10.535
 1818W        W67045  18.153  24.165  11.170
 1819W        W67046  39.762  11.116  14.611
 1820W        W67047  19.085  33.431  12.530
 1821W        W67048  22.753  28.511   0.855
 1822W        W67049  23.952  43.453   4.377
 1823W        W67050  35.260  22.176   0.795
 1824W        W67051  39.624  28.678  11.250
 1825W        W67052   5.139  12.373  12.175
 1826W        W67053  34.858  44.992   1.490
 1827W        W67054  12.353  22.574  12.375
 1828W        W67055  23.742  44.419  11.310
 1829W        W67056  39.404  22.705  10.770
 1830W        W67057   1.523   4.843  11.235
 1831W        W67058  16.329  35.541   1.325
 1832W        W67059  18.613  18.139  11.264
 1833W        W67060  10.069  20.042  13.970
 1834W        W67061  39.989   5.387   2.670
 1835W        W67062  10.784  42.768   1.832
 1836W        W67063  14.338   5.317  14.581
 1837W        W67064   2.289  12.693   1.907
 1838W        W67065   9.113  14.394  14.451
 1839W        W67066  21.093  32.599   3.792
 1840W        W67067  11.804  34.717   1.722
 1841W        W67068  37.286  39.547   4.951
 1842W        W67069   7.641  42.070   0.489
 1843W        W67070  27.975  35.992   1.271
 1844W        W67071  20.711  23.000  11.184
 1845W        W67072  22.776   1.987   2.764
 1846W        W67073  36.610  40.406   4.840
 1847W        W67074   9.478   3.947   4.523
 1848W        W67075  35.891  14.228  14.001
 1849W        W67076  10.308  43.593   1.749
 1850W        W67077  33.041  17.568  10.496
 1851W        W67078   7.003  40.121  14.412
 1852W        W67079  29.104  15.257  13.766
 1853W        W67080  32.394  42.857  13.830
 1854W        W67081  36.289   7.769  14.637
 1855W        W67082  35.407  22.748   1.304
 1856W        W67083  22.254   1.216   1.243
 1857W        W67084   5.247   5.654  13.396
 1858W        W67085  27.469  19.077  10.653
 1859W        W67086  16.212  12.168   4.188
 1860W        W67087   1.232  17.435  11.919
 1861W        W67088  44.636  17.435   4.941
 1862W        W67089  12.637  19.279  11.632
 1863W        W67090  35.897  29.379  14.800
 1864W        W67091  25.456  30.160  11.213
 1865W        W67092  14.322  13.652  11.593
 1866W        W67093  35.901  12.678   0.079
 1867W        W67094  38.413  19.984  12.846
 1868W        W67095  11.044  14.586   0.340
 1869W        W67096  22.140  31.129  11.491
 1870W        W67097   5.948   1.823  13.588
 1871W        W67098  21.486  22.386   2.838
 1872W        W67099  37.886  19.619   0.489
 1873W        W67100  43.209  22.988  11.809
 1874W        W67101  19.550  24.765  13.063
 1875W        W67102  38.034  38.403  12.504
 1876W        W67103  14.291  23.152   3.158
 1877W        W67104  36.650  30.053   3.279
 1878W        W67105  22.994  27.251  10.723
 1879W        W67106   0.275   8.377   4.217
 1880W        W67107  37.249  20.489   3.622
 1881W        W67108  18.593  38.115   3.279
 1882W        W67109  36.327  44.745  12.934
 1883W        W67110   9.103  15.315  14.858
 1884W        W67111  33.942  31.102  11.672
 1885W        W67112  22.283  40.160   3.645
 1886W        W67113  13.723  10.870  14.310
 1887W        W67114  17.289   3.182   0.301
 1888W        W67115   3.781  33.484  11.176
 1889W        W67116  34.466  44.235   3.666
 1890W        W67117  13.443  15.505   4.590
 1891W        W67118   9.662  35.870   4.427
 1892W        W67119  23.490  16.860  12.859
 1893W        W67120  13.118   3.817   2.735
 1894W        W67121  10.617   1.162   0.890
 1895W        W67122  31.645  26.619   1.703
 1896W        W67123  25.155  22.595  14.902
 1897W        W67124  20.580   7.189  14.540
 1898W        W67125  27.195  10.835   1.870
 1899W        W67126  33.022  29.969  11.040
 1900W        W67127  28.496  35.149   0.979
 1901W        W67128  24.357  42.096  12.495
 1902W        W67129  24.654  11.319  14.400
 1903W        W67130   0.390  20.337   0.693
 1904W        W67131  26.370  20.283  12.254
 1905W        W67132  18.701  13.166   1.643
 1906W        W67133  11.850   0.271   1.325
 1907W        W67134  13.123  10.219  13.354
 1908W        W67135  11.601  15.025  11.856
 1909W        W67136  31.209  21.572   2.283
 1910W        W67137  14.230  28.744  14.041
 1911W        W67138  16.760   3.162   2.806
 1912W        W67139  29.980  32.486  13.354
 1913W        W67140   4.430  35.298   2.362
 1914W        W67141  16.343   6.004  12.477
 1915W        W67142  11.948  24.698  10.988
 1916W        W67143  18.201  10.135  13.870
 1917W        W67144  44.484  13.784  13.475
 1918W        W67145   8.725  12.841  11.805
 1919W        W67146   2.726  27.183   1.319
 1920W        W67147  31.406  17.727  11.646
 1921W        W67148  39.322  28.233  11.151
 1922W        W67149  25.713  29.850  12.136
 1923W        W67150  44.722   1.314  11.044
 1924W        W67151   1.503  32.092   3.547
 1925W        W67152   8.271  10.206   1.062
 1926W        W67153  19.545  21.266  11.183
 1927W        W67154   1.947   7.620   1.835
 1928W        W67155  31.571  36.031   3.234
 1929W        W67156  42.352  18.234  14.045
 1930W        W67157  17.124  39.027   4.015
 1931W        W67158  23.047  39.008  12.371
 1932W        W67159  31.867  15.326   1.027
 1933W        W67160   4.419  18.116  13.599
 1934W        W67161  37.966   5.106   1.761
 1935W        W67162  28.595  18.287  11.926
 1936W        W67163   8.204  35.440   4.607
 1937W        W67164  18.575  18.353   3.662
 1938W        W67165  11.959   3.420  13.087
 1939W        W67166  10.936   5.644   1.920
 1940W        W67167  32.369  18.003  14.815
 1941W        W67168  19.548   8.866  11.085
 1942W        W67169   0.253  14.403   0.067
 1943W        W67170  24.030  41.054   0.400
 1944W        W67171   9.407  44.889  11.701
 1945W        W67172  22.246  13.132  14.814
 1946W        W67173  27.034  27.453   0.496
 1947W        W67174  32.590  18.009  13.977
 1948W        W67175  16.998  25.222  10.267
 1949W        W67176   2.643  24.165  10.600
 1950W        W67177   4.430  21.084  13.333
 1951W        W67178  35.816  14.744   2.266
 1952W        W67179  26.702  21.224   1.920
 1953W        W67180  30.821  41.959  12.096
 1954W        W67181   2.018  22.952   1.659
 1955W        W67182  23.185   3.206   4.096
 1956W        W67183  36.850  12.381  12.042
 1957W        W67184  20.254  36.464  10.802
 1958W        W67185   5.149  18.547  14.997
 1959W        W67186  40.420  10.968  13.009
 1960W        W67187  17.520  32.926  13.518
 1961W        W67188  24.903  10.021   3.634
 1962W        W67189  20.252  15.126  11.357
 1963W        W67190  35.444  39.849   3.331
 1964W        W67191  41.377  44.068   4.010
 1965W        W67192  25.925  33.983   1.916
 1966W        W67193  38.730   3.403  12.867
 1967W        W67194  20.859  37.318  14.953
 1968W        W67195  33.342  33.657  14.142
 1969W        W67196  22.984  10.681  10.983
 1970W        W67197  16.712  19.565  10.714
 1971W        W67198   0.726   8.789  12.419
 1972W        W67199  18.788  16.078   3.796
 1973W        W67200  10.689  38.303  13.893
 1974W        W67201  13.354  37.821   2.694
 1975W        W67202  32.000  17.065   1.531
 1976W        W67203  19.600  31.368  14.961
 1977W        W67204  41.857  15.094  12.266
 1978W        W67205  15.036  19.303  13.449
 1979W        W67206  40.952   6.294  12.143
 1980W        W67207  39.914  18.170  11.264
 1981W        W67208  40.460  14.690  14.063
 1982W        W67209  29.405  44.849  11.702
 1983W        W67210  39.231  42.066   2.757
 1984W        W67211  44.790  32.748  14.421
 1985W        W67212  35.824  12.687   4.823
 1986W        W67213   2.672  13.174   2.545
 1987W        W67214  37.113   3.414  14.906
 1988W        W67215  11.102   9.516  13.267
 1989W        W67216  15.821   5.479  12.545
 1990W        W67217   5.261  23.485  14.332
 1991W        W67218  23.071  26.004   4.022
 1992W        W67219   6.247   7.463   2.326
 1993W        W67220  31.956  19.731   3.290
 1994W        W67221  40.824  43.425  11.285
 1995W        W67222  42.368  39.934  10.838
 1996W        W67223  34.681   9.753  11.685
 1997W        W67224  36.808  26.903   0.452
 1998W        W67225  38.968  24.154  14.195
 1999W        W67226  20.224  18.859  14.017
 2000W        W67227  43.767   2.627  11.614
 2001W        W67228   3.850  29.184  12.045
 2002W        W67229  20.552  28.947   1.690
 2003W        W67230  15.303   2.378  11.514
 2004W        W67231  22.311  34.947   1.531
 2005W        W67232  43.408  39.480  13.017
 2006W        W67233  27.216  36.479  14.831
 2007W        W67234   7.905   2.567  12.712
 2008W        W67235  15.718  37.807   1.050
 2009W        W67236  38.075  37.360   2.654
 2010W        W67237  22.575  37.107  12.822
 2011W        W67238  21.635  19.890   3.993
 2012W        W67239   2.633  33.347  12.076
 2013W        W67240  15.650   3.726  11.226
 2014W        W67241  43.669  28.399  11.547
 2015W        W67242  13.186  11.721   0.252
 2016W        W67243   4.319  39.013   0.022
 2017W        W67244  11.945  42.139  14.119
 2018W        W67245   3.187  22.975  13.350
 2019W        W67246  16.844  35.383  14.569
 2020W        W67247  15.242  25.540   3.503
 2021W        W67248  29.674  41.869  14.741
 2022W        W67249   4.318  13.400   4.061
 2023W        W67250  17.792   3.456   1.425
 2024W        W67251  27.163  27.861   0.790
 2025W        W67252  42.564  39.330  11.067
 2026W        W67253  23.248  24.012  12.913
 2027W        W67254   4.708  14.411  10.633
 2028W        W67255   5.233  27.268   3.626
 2029W        W67256   9.641  21.725  11.108
 2030W        W67257  21.627   9.419  13.326
 2031W        W67258  11.459  33.141  11.727
 2032W        W67259  20.945   6.083   5.053
 2033W        W67260  21.269   5.897  11.284
 2034W        W67261  26.550  15.680   1.301
 2035W        W67262  21.148  14.143  10.587
 2036W        W67263   0.027  29.924  13.440
 2037W        W67264   9.166  20.579   4.303
 2038W        W67265  29.204  28.109  13.201
 2039W        W67266  16.313  35.789  11.210
 2040W        W67267  42.004   5.335   4.530
 2041W        W67268   4.872   6.337  12.998
 2042W        W67269  22.980  15.117   0.797
 2043W        W67270  18.147  42.965  13.365
 2044W        W67271  39.543  15.518  14.309
 2045W        W67272   2.048  15.449   3.950
 2046W        W67273  38.475  27.481  13.410
 2047W        W67274  34.744  13.607  10.662
 2048W        W67275  23.135  16.803   2.137
 2049W        W67276  38.900  13.807   3.554
 2050W        W67277  36.385   4.430  11.135
 2051W        W67278  39.829   2.840  11.556
 2052W        W67279  16.741  34.639   2.793
 2053W        W67280  32.456  23.748   3.008
 2054W        W67281  33.711   9.244  12.490
 2055W        W67282   3.787   6.291  11.972
 2056W        W67283  10.325  43.468  14.315
 2057W        W67284   0.668   9.388   3.198
 2058W        W67285  39.172   4.226  10.714
 2059W        W67286  16.290   0.325  13.401
 2060W        W67287  44.213   2.875  11.542
 2061W        W67288   5.157   4.792   1.416
 2062W        W67289  23.038  23.547  10.716
 2063W        W67290  25.877  29.075   1.393
 2064W        W67291   1.607   1.806   4.644
 2065W        W67292   5.940  16.396   4.036
 2066W        W67293  40.963  38.078   3.640
 2067W        W67294   4.997  30.324  14.356
 2068W        W67295  19.667  16.829  11.585
 2069W        W67296   3.777   7.335   1.342
 2070W        W67297   5.991  10.629   2.802
 2071W        W67298  15.645  12.377   2.214
 2072W        W67299  40.590   2.927  13.010
 2073W        W67300   2.720  20.529   0.821
 2074W        W67301  27.970  28.367  14.002
 2075W        W67302   7.816  10.572   4.067
 2076W        W67303  37.492  33.334   3.116
 2077W        W67304  21.579  20.612   1.697
 2078W        W67305   3.648   5.393   3.178
 2079W        W67306  24.441  25.264   4.265
 2080W        W67307  33.977  20.682  12.331
 2081W        W67308  19.146  11.699   0.200
 2082W        W67309  40.863  18.771  14.724
 2083W        W67310  21.208   1.359   0.004
 2084W        W67311  33.357  39.169  10.808
 2085W        W67312  31.719  42.615  12.960
 2086W        W67313  13.054  36.914  11.585
 2087W        W67314  24.503   8.726   3.362
 2088W        W67315  29.108  21.834  11.678
 2089W        W67316  36.820  22.066  14.860
 2090W        W67317  37.322  26.804   1.168
 2091W        W67318  28.054  33.594  11.229
 2092W        W67319   0.241  30.761   2.269
 2093W        W67320   1.475   5.811   2.182
 2094W        W67321  12.461   3.314  12.225
 2095W        W67322   3.419  38.524  10.540
 2096W        W67323  14.354   9.781   2.358
 2097W        W67324  32.587  16.695  11.479
 2098W        W67325  10.104  37.449   0.506
 2099W        W67326  30.427   1.925  10.534
 2100W        W67327   8.308   5.701  14.994
 2101W        W67328  44.866  28.966  14.729
 2102W        W67329  18.753  34.494   2.744
 2103W        W67330  35.715  30.022   2.327
 2104W        W67331   0.339   0.003  12.027
 2105W        W67332  16.134  41.226   2.888
 2106W        W67333  36.411  13.359  11.066
 2107W        W67334  34.579  10.615   1.658
 2108W        W67335  27.514  36.700   3.799
 2109W        W67336  34.860   2.126   0.105
 2110W        W67337   8.857   8.126  10.818
 2111W        W67338  18.704  19.374   3.265
 2112W        W67339  43.723  43.830  11.806
 2113W        W67340  34.422  25.859   0.646
 2114W        W67341  10.023   4.653  14.415
 2115W        W67342  19.484  23.033   4.617
 2116W        W67343   3.516  37.025  13.281
 2117W        W67344  39.039  44.737   2.023
 2118W        W67345   5.272  32.209   2.706
 2119W        W67346  37.899  24.127   4.630
 2120W        W67347  39.416   8.615  12.568
 2121W        W67348   5.026  33.448  13.520
 2122W        W67349  34.891   4.019   4.382
 2123W        W67350   0.237  37.906  11.586
 2124W        W67351  31.666   2.432  11.568
 2125W        W67352  11.106  30.722  12.483
 2126W        W67353  25.098  21.160  11.127
 2127W        W67354  43.564  38.367   2.682
 2128W        W67355   1.527  28.496  10.720
 2129W        W67356  37.642  44.015  11.250
 2130W        W67357  40.991  38.358  14.157
 2131W        W67358   4.804  34.843  11.857
 2132W        W67359  41.905  38.004   1.388
 2133W        W67360  20.958  27.532  11.274
 2134W        W67361  42.560   8.671  12.982
 2135W        W67362  31.874  43.074   2.695
 2136W        W67363  13.289  10.694  14.058
 2137W        W67364  11.309  42.510   0.808
 2138W        W67365  36.380  40.812  13.405
 2139W        W67366   4.334   4.082   2.453
 2140W        W67367   4.289   1.230   4.094
 2141W        W67368   2.917   3.296  14.980
 2142W        W67369  22.420  33.699  14.143
 2143W        W67370  32.716   8.626   1.760
 2144W        W67371   5.761  31.886   1.902
 2145W        W67372  12.630   4.213  14.934
 2146W        W67373  12.570  10.372  11.640
 2147W        W67374   3.473  23.857   2.373
 2148W        W67375  22.676  44.211  13.622
 2149W        W67376  18.104   3.817  12.529
 2150W        W67377   0.384  12.253  10.799
 2151W        W67378  38.586  44.834  12.497
 2152W        W67379  41.066  43.886  12.862
 2153W        W67380  23.579  16.925  12.195
 2154W        W67381  27.403  34.506  11.557
 2155W        W67382  11.051  41.700  12.064
 2156W        W67383  19.756  28.139   2.656
 2157W        W67384  34.240   4.622   3.157
 2158W        W67385  35.889  25.036   4.567
 2159W        W67386   9.359  34.850   2.419
 2160W        W67387  40.825  16.501  13.268
 2161W        W67388   5.657  37.485   2.009
 2162W        W67389  22.528  40.948   1.861
 2163W        W67390  28.651   4.419   0.388
 2164W        W67391  19.204   0.311  11.206
 2165W        W67392  34.680  37.353   4.170
 2166W        W67393  21.500   5.232   0.700
 2167W        W67394  19.566  16.711   0.001
 2168W        W67395  18.567  35.476   2.430
 2169W        W67396  22.228  32.275  13.697
 2170W        W67397   2.240  37.533  11.290
 2171W        W67398   8.840   4.008   1.289
 2172W        W67399  29.506   8.465   0.331
 2173W        W67400  31.163  14.161   2.421
 2174W        W67401  42.003  31.570  14.840
 2175W        W67402  25.549   6.573  13.815
 2176W        W67403  33.019   7.159   4.844
 2177W        W67404  18.054  35.909   1.347
 2178W        W67405  43.033  12.447   4.264
 2179W        W67406  31.651   4.419  14.742
 2180W        W67407   0.288  17.327   0.868
 2181W        W67408  28.206  32.175   2.211
 2182W        W67409  22.232  35.253  14.800
 2183W        W67410  12.279   2.918  12.974
 2184W        W67411  38.209  13.682   2.674
 2185W        W67412   4.593  31.350  12.543
 2186W        W67413   7.166  20.478  14.357
 2187W        W67414   7.574  10.426   1.314
 2188W        W67415  39.402  29.134  14.244
 2189W        W67416  14.637   9.141  14.315
 2190W        W67417  39.734  26.329   1.562
 2191W        W67418   5.465  25.092   1.749
 2192W        W67419  32.657  44.241   1.403
 2193W        W67420  31.880  19.055   3.709
 2194W        W67421   4.804  12.326   3.464
 2195W        W67422  22.138  14.645   0.524
 2196W        W67423   4.978  18.684   4.716
 2197W        W67424   2.226  39.261   3.374
 2198W        W67425  29.661  23.538   5.162
 2199W        W67426  43.262  11.115   0.077
 2200W        W67427  43.539   2.200   0.285
 2201W        W67428  39.278   7.248  12.079
 2202W        W67429  13.725  33.940  11.193
 2203W        W67430  40.466  34.439  11.360
 2204W        W67431  15.356  35.665  10.203
 2205W        W67432  43.991   8.457  13.974
 2206W        W67433  29.362  42.425  13.664
 2207W        W67434  31.833  16.556   3.238
 2208W        W67435  13.660  39.905  10.515
 2209W        W67436  14.656  24.499  13.833
 2210W        W67437  26.749  25.175  14.939
 2211W        W67438  14.624  13.850   2.382
 2212W        W67439  16.173   9.672   0.944
 2213W        W67440  36.789   0.090  13.940
 2214W        W67441  29.394   4.034   2.754
 2215W        W67442  32.945  38.175   0.257
 2216W        W67443  44.982  32.117  11.179
 2217W        W67444   6.807  37.024   0.578
 2218W        W67445  41.621  40.837   3.139
 2219W        W67446   0.729  26.606   1.551
 2220W        W67447  29.024  18.923   3.147
 2221W        W67448  40.629  29.685   4.733
 2222W        W67449  26.137  30.196  10.685
 2223W        W67450  28.438  41.463   1.630
 2224W        W67451   6.083  30.969   1.017
 2225W        W67452  18.940   2.155  13.296
 2226W        W67453  37.810  11.900   1.294
 2227W        W67454  33.685   4.136   4.362
 2228W        W67455   7.422  35.793  12.900
 2229W        W67456  18.257  30.379   4.496
 2230W        W67457  38.610  18.625  12.118
 2231W        W67458  28.495  38.870  14.946
 2232W        W67459  26.985   0.340  11.572
 2233W        W67460  20.816  23.975  11.971
 2234W        W67461  38.510   8.901   3.142
 2235W        W67462   5.991  42.293   3.268
 2236W        W67463  39.935  12.667  11.419
 2237W        W67464  20.254  28.522   3.055
 2238W        W67465  34.623  23.021   0.992
 2239W        W67466  10.101  43.574  12.140
 2240W        W67467  40.523  11.370   1.260
 2241W        W67468  39.838  34.821   1.193
 2242W        W67469   1.442  22.263  11.486
 2243W        W67470  22.571   4.389   3.631
 2244W        W67471  30.595  20.361  12.237
 2245W        W67472  12.177  36.544  13.846
 2246W        W67473  16.785  32.641  10.713
 2247W        W67474  32.885  34.498  10.626
 2248W        W67475  26.498  19.665  11.449
 2249W        W67476  35.118  35.561  14.964
 2250W        W67477  18.105   9.409  11.654
 2251W        W67478  16.282   3.167   3.575
 2252W        W67479  29.343  20.725  12.516
 2253W        W67480  15.737   9.844  12.516
 2254W        W67481  37.213  27.708  11.677
 2255W        W67482   8.229   9.859   0.398
 2256W        W67483   9.586   6.816  13.874
 2257W        W67484  26.290   7.681   2.187
 2258W        W67485  18.569  36.221  10.808
 2259W        W67486  19.540  13.380   0.778
 2260W        W67487  25.215  13.072  13.928
 2261W        W67488  22.174  34.188  10.777
 2262W        W67489  28.143  25.121  12.872
 2263W        W67490  30.441  21.474  13.527
 2264W        W67491   8.794   1.794  13.201
 2265W        W67492  22.974  26.712  10.766
 2266W        W67493  12.347   7.178  14.278
 2267W        W67494  33.826  13.674   2.208
 2268W        W67495  23.812  42.523  12.088
 2269W        W67496   7.675  14.555  11.427
 2270W        W67497   0.204  15.410  13.578
 2271W        W67498   8.731   3.278  14.029
 2272W        W67499  40.074   7.484  13.491
 2273W        W67500  21.809  28.701   0.908
 2274W        W67501  43.736  44.928  12.865
 2275W        W67502  23.194   8.414   1.914
 2276W        W67503  33.679  17.560   4.514
 2277W        W67504  35.299  20.911  10.725
 2278W        W67505  14.060  36.597   3.067
 2279W        W67506  34.959   6.198   4.806
 2280W        W67507  40.631   8.899  14.325
 2281W        W67508  25.229  24.402   0.381
 2282W        W67509  24.204  11.826   0.543
 2283W        W67510   4.885  24.651   1.499
 2284W        W67511  26.345  28.320   2.694
 2285W        W67512  42.994  36.342   4.150
 2286W        W67513  27.258   1.280  11.102
 2287W        W67514  38.966  22.185  13.544
 2288W        W67515   9.866  37.678  11.100
 2289W        W67516  10.709   1.408  14.889
 2290W        W67517  33.041  25.607  13.376
 2291W        W67518  44.093  14.225  13.858
 2292W        W67519  15.592  30.186  14.264
 2293W        W67520  29.927  36.301  14.911
 2294W        W67521  38.429  39.957  10.986
 2295W        W67522  37.957  30.353  14.866
 2296W        W67523  36.646  23.180   1.805
 2297W        W67524  10.302  21.266  13.876
 2298W        W67525  40.744  22.692   2.681
 2299W        W67526  10.385  44.503   0.642
 2300W        W67527  11.935  42.253   3.618
 2301W        W67528  44.317   1.920  14.267
 2302W        W67529   9.838  13.386  14.319
 2303W        W67530  18.046   0.697   0.020
 2304W        W67531   4.752   0.363  14.875
 2305W        W67532  21.560  12.477  11.114
 2306W        W67533  21.948  32.044  10.812
 2307W        W67534  21.087  37.767   9.944
 2308W        W67535  22.530  38.134   3.226
 2309W        W67536  37.171  38.587  14.226
 2310W        W67537  38.465  43.156  14.322
 2311W        W67538   0.926  15.371   4.466
 2312W        W67539  30.169  11.130   1.260
 2313W        W67540  18.250  32.964   4.730
 2314W        W67541  24.939  14.247  11.969
 2315W        W67542   0.419  13.169   0.089
 2316W        W67543   2.626  34.818   2.503
 2317W        W67544  23.100  41.586   2.865
 2318W        W67545  35.696  27.420  11.284
 2319W        W67546   5.960  31.420  13.412
 2320W        W67547  30.145   7.330  11.006
 2321W        W67548  28.840   6.210  14.779
 2322W        W67549  40.172  16.448   2.337
 2323W        W67550  31.045  10.399   3.379
 2324W        W67551  18.822  13.032   0.340
 2325W        W67552  36.594  33.523   0.484
 2326W        W67553  17.811  42.408   1.480
 2327W        W67554  33.487  18.022   2.414
 2328W        W67555  44.353   8.626   2.766
 2329W        W67556  27.647   5.535  12.892
 2330W        W67557  22.197  10.942  11.672
 2331W        W67558  39.375  24.601  14.850
 2332W        W67559  27.109  31.101   4.445
 2333W        W67560  44.974  14.734  11.552
 2334W        W67561  26.207  40.043   0.753
 2335W        W67562  32.488   2.568   4.167
 2336W        W67563  43.902  28.981  11.303
 2337W        W67564  18.353  14.320   0.360
 2338W        W67565  11.404   9.849   1.890
 2339W        W67566  33.986  27.436  14.432
 2340W        W67567  33.927  38.609  12.586
 2341W        W67568   0.593  16.905   1.087
 2342W        W67569  36.911  41.569   3.932
 2343W        W67570   6.777  33.203   2.164
 2344W        W67571  22.958  20.796   2.357
 2345W        W67572  33.042   1.743  14.573
 2346W        W67573   9.314   6.519  12.517
 2347W        W67574  44.719  33.437  12.981
 2348W        W67575   4.171  31.236  14.329
 2349W        W67576   4.446   8.304  10.741
 2350W        W67577  10.367  34.613   0.434
 2351W        W67578  23.025   6.656  12.524
 2352W        W67579  25.223  22.261   5.156
 2353W        W67580   0.029  14.497  13.903
 2354W        W67581  29.509  39.421  13.007
 2355W        W67582   9.145  29.516  10.969
 2356W        W67583  32.958  28.709  12.475
 2357W        W67584   9.682   2.161  10.961
 2358W        W67585  43.072  18.590   3.502
 2359W        W67586  43.713  13.278   1.901
 2360W        W67587  33.473  25.307  13.335
 2361W        W67588  18.128  24.842  11.608
 2362W        W67589   7.845  10.654   2.340
 2363W        W67590  37.132  24.787   0.737
 2364W        W67591  30.491  40.015  13.188
 2365W        W67592  11.499   1.744   4.594
 2366W        W67593  19.178  29.510   4.690
 2367W        W67594  18.684  32.043  14.527
 2368W        W67595  27.450  37.514  11.142
 2369W        W67596  16.740  10.660  13.815
 2370W        W67597  38.281  17.908   3.589
 2371W        W67598   3.749  40.199  11.404
 2372W        W67599  39.095   6.874  13.095
 2373W        W67600  43.500  17.603   0.256
 2374W        W67601  18.517   1.874  11.348
 2375W        W67602  21.345   3.219  13.297
 2376W        W67603  18.371  17.590   4.534
 2377W        W67604  14.497  18.071  11.220
 2378W        W67605   8.040  15.062   2.733
 2379W        W67606  31.542  41.327   1.703
 2380W        W67607  40.338  13.177  12.192
 2381W        W67608  21.550  43.825  12.735
 2382W        W67609  20.079  40.356  13.911
 2383W        W67610  14.110   0.968  13.374
 2384W        W67611  20.954   6.278  12.138
 2385W        W67612   4.942  34.897  10.531
 2386W        W67613  27.200  16.251   4.059
 2387W        W67614  19.517  24.230   4.468
 2388W        W67615  16.814  28.644  14.466
 2389W        W67616  29.378  42.392   3.730
 2390W        W67617  38.550   3.255  14.665
 2391W        W67618  18.521   7.991  11.085
 2392W        W67619   1.888   0.200   4.405
 2393W        W67620  23.522  23.358   2.907
 2394W        W67621  30.625  41.130   0.986
 2395W        W67622  22.203  40.470   3.235
 2396W        W67623  11.432  42.299  12.618
 2397W        W67624  24.671   7.320  10.754
 2398W        W67625  24.180  19.038   0.405
 2399W        W67626  34.044   9.693  10.927
 2400W        W67627   3.633  35.176  12.993
 2401W        W67628   0.494  29.248   4.116
 2402W        W67629   2.987  27.948  14.623
 2403W        W67630   6.206   8.594  13.841
 2404W        W67631  29.231  42.922  10.662
 2405W        W67632  22.115   6.117   1.286
 2406W        W67633  33.173  34.489   1.911
 2407W        W67634  20.319  28.462   0.834
 2408W        W67635  14.900  22.134   2.366
 2409W        W67636   4.470  15.301  11.010
 2410W        W67637  35.866  20.638   1.351
 2411W        W67638  10.905   1.338  12.569
 2412W        W67639  21.751  10.411   4.171
 2413W        W67640  40.413  28.648   3.511
 2414W        W67641   6.092  26.252   1.134
 2415W        W67642  34.112  35.482   0.685
 2416W        W67643  19.284  18.809   1.069
 2417W        W67644  37.249   8.522  10.272
 2418W        W67645  36.014  36.878   0.392
 2419W        W67646   3.100   2.473  11.046
 2420W        W67647   7.577  11.263  11.898
 2421W        W67648  39.930   5.651   0.092
 2422W        W67649  15.486   9.631  11.238
 2423W        W67650  23.229  43.074   1.796
 2424W        W67651   8.343  24.524   1.937
 2425W        W67652  21.528  35.906  14.858
 2426W        W67653   3.584  31.588  12.528
 2427W        W67654  31.566  16.892   3.567
 2428W        W67655   6.539  41.319   1.938
 2429W        W67656  16.656  30.360  12.163
 2430W        W67657  38.321   1.001  14.895
 2431W        W67658  44.359  24.114   4.603
 2432W        W67659  23.647  12.977  10.802
 2433W        W67660  24.074   0.205   0.049
 2434W        W67661  35.613   3.638   1.672
 2435W        W67662  19.216  33.712  12.121
 2436W        W67663  29.868  33.772   1.831
 2437W        W67664  23.648  31.522  12.933
 2438W        W67665  18.065  25.005   0.538
 2439W        W67666  30.569  22.844  11.941
 2440W        W67667  33.923  21.402   1.238
 2441W        W67668  37.073  34.286   4.033
 2442W        W67669  14.815   8.940   0.745
 2443W        W67670  24.833  36.040   2.885
 2444W        W67671   2.540   5.684   2.158
 2445W        W67672  25.066  24.776  11.146
 2446W        W67673  41.234   8.386   4.308
 2447W        W67674  41.876  32.675   0.253
 2448W        W67675  14.136  36.769   1.418
 2449W        W67676  21.096  36.718   2.727
 2450W        W67677   2.875  35.089   4.357
 2451W        W67678  29.665  16.547   5.160
 2452W        W67679  20.703  13.560  14.814
 2453W        W67680  21.125  12.662  13.355
 2454W        W67681  21.573  16.383   2.293
 2455W        W67682  16.669  18.212  13.060
 2456W        W67683  42.775  29.495  12.798
 2457W        W67684   2.531   7.782  11.663
 2458W        W67685  23.155  32.090  12.586
 2459W        W67686  11.307  28.227   3.609
 2460W        W67687  13.808  17.857  14.727
 2461W        W67688  44.953  23.890   3.029
 2462W        W67689  22.551  23.155   4.231
 2463W        W67690  22.690  43.780  12.032
 2464W        W67691  28.895   4.914  14.251
 2465W        W67692   6.929  19.444  12.128
 2466W        W67693  43.613  16.017   1.907
 2467W        W67694  17.810  37.461  10.786
 2468W        W67695  31.192  20.726  12.440
 2469W        W67696  17.618  23.641  13.561
 2470W        W67697  18.680  12.526  12.087
 2471W        W67698  36.609  42.598   2.413
 2472W        W67699  10.778  19.094   1.696
 2473W        W67700  32.231  17.662   3.663
 2474W        W67701  21.720   1.850  10.239
 2475W        W67702  41.550  11.861   0.834
 2476W        W67703  10.414  27.049   2.488
 2477W        W67704  42.673  38.288  11.058
 2478W        W67705  14.855   2.327  13.670
 2479W        W67706  21.095  10.979   4.991
 2480W        W67707  35.177  10.608   2.719
 2481W        W67708  32.454   4.677   2.686
 2482W        W67709   6.157  44.724  10.376
 2483W        W67710  22.310  17.727   1.837
 2484W        W67711  13.903  26.415  11.496
 2485W        W67712  40.059  18.679  10.540
 2486W        W67713  27.851  18.226  13.110
 2487W        W67714  32.305  16.497  11.883
 2488W        W67715  41.575  10.280  13.136
 2489W        W67716  33.033  24.995  11.518
 2490W        W67717   4.348  24.628   1.312
 2491W        W67718  28.638  44.265   2.808
 2492W        W67719  26.453  20.080  14.160
 2493W        W67720  22.624  36.484   2.747
 2494W        W67721  35.488  38.587   3.834
 2495W        W67722   0.868  24.676   1.907
 2496W        W67723   4.161  13.173   2.642
 2497W        W67724  13.288  21.634   4.121
 2498W        W67725  23.782  29.143  14.498
 2499W        W67726  33.520  22.712  12.827
 2500W        W67727  34.913  22.587  12.491
 2501W        W67728  11.570  13.825  10.810
 2502W        W67729  40.500  19.703  10.947
 2503W        W67730  20.984  24.331   3.669
 2504W        W67731   3.570   8.392  13.575
 2505W        W67732  32.597  39.361   3.613
 2506W        W67733  30.786  20.462   1.905
 2507W        W67734  13.407   9.726   0.341
 2508W        W67735  38.396   2.305  11.135
 2509W        W67736   2.718  25.203   4.484
 2510W        W67737  27.771   4.425  14.637
 2511W        W67738  41.785  44.928   0.204
 2512W        W67739  20.804   4.691  13.305
 2513W        W67740  32.664  17.029  14.902
 2514W        W67741   7.468  18.147  12.316
 2515W        W67742   7.218   0.978  11.264
 2516W        W67743   3.729  19.504  11.163
 2517W        W67744  24.698  35.537   2.769
 2518W        W67745  28.725  21.032   1.490
 2519W        W67746  37.905  33.848  12.188
 2520W        W67747  24.952  43.102  10.709
 2521W        W67748   3.308   5.192  11.646
 2522W        W67749  37.144  29.449  11.664
 2523W        W67750  34.815  44.196   0.816
 2524W        W67751  41.900   8.298  14.288
 2525W        W67752  12.674  30.910  14.403
 2526W        W67753  19.587  31.640  13.054
 2527W        W67754  43.720  25.123   2.772
 2528W        W67755  25.440  12.637   1.808
 2529W        W67756  30.470  29.186   1.232
 2530W        W67757  18.228  38.409   1.228
 2531W        W67758  18.754  15.793   3.332
 2532W        W67759  20.326  14.880  14.097
 2533W        W67760   9.633   4.423   2.826
 2534W        W67761   2.982   7.540   4.668
 2535W        W67762  15.670  37.559   2.333
 2536W        W67763   2.370  41.344  11.625
 2537W        W67764  14.253  35.403   4.078
 2538W        W67765  25.403  31.114  13.504
 2539W        W67766  30.067  43.872   1.581
 2540W        W67767  38.528  28.644  14.035
 2541W        W67768   9.180  12.582  10.164
 2542W        W67769  11.386  27.029  13.754
 2543W        W67770  31.132  15.720   3.200
 2544W        W67771  32.288  37.427   3.584
 2545W        W67772  12.576  17.731  10.773
 2546W        W67773  18.986  12.181   2.823
 2547W        W67774  33.934  42.611   1.310
 2548W        W67775  21.731  18.992   1.263
 2549W        W67776  19.845  23.706  13.945
 2550W        W67777  42.798  37.043  12.999
 2551W        W67778   3.726  10.874  13.053
 2552W        W67779  42.368  18.152   3.360
 2553W        W67780   5.957  26.023   1.598
 2554W        W67781  23.187   6.712   3.138
 2555W        W67782  35.993  19.259   3.302
 2556W        W67783  26.750  39.569  14.026
 2557W        W67784   8.392  42.094  14.320
 2558W        W67785  25.318  39.815   0.417
 2559W        W67786  35.714  25.446  14.782
 2560W        W67787  40.003  14.045   4.712
 2561W        W67788  24.357   7.919   2.947
 2562W        W67789  31.140  43.739  11.176
 2563W        W67790  13.102  20.512  13.391
 2564W        W67791  44.806  43.417  14.421
 2565W        W67792  33.343   0.985  11.196
 2566W        W67793  40.892  30.609   3.668
 2567W        W67794  21.608  24.330   4.878
 2568W        W67795   7.419   7.627   2.905
 2569W        W67796  44.243   0.433  11.156
 2570W        W67797  42.647   8.290  13.833
 2571W        W67798   9.114  22.851  12.078
 2572W        W67799   0.262  44.326  13.007
 2573W        W67800  23.547  23.262  13.499
 2574W        W67801  19.725   3.044  10.852
 2575W        W67802  22.162  16.258  13.584
 2576W        W67803   3.717  35.368   0.411
 2577W        W67804  11.731   9.181   1.324
 2578W        W67805  38.134  21.498   1.885
 2579W        W67806   8.765  30.733  13.400
 2580W        W67807   5.114  32.582   3.069
 2581W        W67808  27.617  43.539   1.168
 2582W        W67809  44.507  15.102  14.319
 2583W        W67810   4.752  42.477   1.550
 2584W        W67811  29.090  18.306   2.412
 2585W        W67812  14.108  37.030   3.376
 2586W        W67813  41.048  17.295   5.026
 2587W        W67814  37.625  12.125  11.691
 2588W        W67815  34.114  28.219   4.690
 2589W        W67816  15.675  40.514   3.999
 2590W        W67817  35.045  40.742   3.669
 2591W        W67818  35.900  26.661  12.564
 2592W        W67819  17.345   6.445   0.537
 2593W        W67820  40.883   4.045   2.643
 2594W        W67821  43.651  30.578  13.498
 2595W        W67822  24.066  31.272  11.462
 2596W        W67823  40.644  17.056   2.823
 2597W        W67824   5.326   2.750  10.999
 2598W        W67825   4.499  33.332   4.105
 2599W        W67826  18.025  12.757   3.254
 2600W        W67827  26.123   7.855  14.289
 2601W        W67828   7.951  14.001  10.256
 2602W        W67829  28.151  25.431  14.746
 2603W        W67830  35.984  10.731  10.755
 2604W        W67831  42.763  22.136  11.589
 2605W        W67832  25.619  19.018  13.896
 2606W        W67833  36.174  14.875  11.281
 2607W        W67834   9.269   8.380  10.584
 2608W        W67835  19.346  28.483  13.376
 2609W        W67836   1.364  40.159   0.743
 2610W        W67837  10.461  11.485   4.534
 2611W        W67838  39.093  27.446  11.626
 2612W        W67839  14.868  31.638  14.817
 2613W        W67840  20.238  44.457  13.510
 2614W        W67841  10.416  32.063   2.623
 2615W        W67842  25.078   5.813  14.001
 2616W        W67843  41.225  22.189  10.623
 2617W        W67844  28.009  33.441  14.593
 2618W        W67845  43.303   1.948   1.482
 2619W        W67846   2.184  24.500  14.013
 2620W        W67847  26.608  26.704   3.092
 2621W        W67848   8.580  29.897  12.425
 2622W        W67849   6.742  22.257  13.105
 2623W        W67850  21.047  13.901  12.608
 2624W        W67851   4.191  33.503   1.854
 2625W        W67852  15.887   6.250   3.173
 2626W        W67853  16.617  14.854  12.054
 2627W        W67854  26.341  23.122  11.026
 2628W        W67855  21.278   8.900  14.049
 2629W        W67856  25.981   1.239   3.234
 2630W        W67857  20.739  35.560   2.181
 2631W        W67858  43.544  37.839   2.762
 2632W        W67859  16.695   5.392  13.977
 2633W        W67860  12.579  20.358  10.727
 2634W        W67861  17.800  10.731  12.583
 2635W        W67862  10.095  34.558   4.649
 2636W        W67863  36.076  24.616  13.295
 2637W        W67864  11.779  15.227   0.254
 2638W        W67865  24.170  22.099  11.642
 2639W        W67866  10.579  32.357  12.094
 2640W        W67867  10.142  14.794  13.991
 2641W        W67868   2.753  11.800   1.525
 2642W        W67869  25.425   8.062  12.514
 2643W        W67870  15.353  40.046  14.783
 2644W        W67871  44.064   4.792  10.043
 2645W        W67872  30.398  36.601   0.830
 2646W        W67873  33.615  22.976   2.816
 2647W        W67874  17.614   9.644   4.678
 2648W        W67875  40.081  34.125   1.006
 2649W        W67876  37.782  18.068   3.581
 2650W        W67877  25.419   0.216  11.725
 2651W        W67878  22.123  15.561  11.569
 2652W        W67879  28.131  22.991   1.299
 2653W        W67880  37.547  17.229   3.629
 2654W        W67881  25.161  44.567   0.729
 2655W        W67882  35.404  40.889   2.910
 2656W        W67883  22.509  35.981   3.289
 2657W        W67884  30.098  27.139   1.707
 2658W        W67885   0.291   2.980  14.300
 2659W        W67886  33.308   6.861   3.593
 2660W        W67887  24.544   0.493  14.924
 2661W        W67888  41.336  39.384  12.357
 2662W        W67889  32.535  10.722  12.145
 2663W        W67890  25.423   2.780   1.848
 2664W        W67891   1.868   6.875  10.424
 2665W        W67892  22.198  40.019   1.289
 2666W        W67893  11.431  25.934   0.027
 2667W        W67894  12.286   9.621  11.735
 2668W        W67895  38.877  12.744  14.505
 2669W        W67896  15.683  20.603   3.756
 2670W        W67897  26.635  25.164   3.581
 2671W        W67898   3.812   1.108  14.731
 2672W        W67899  34.391   0.753   3.419
 2673W        W67900  26.627  23.818  14.765
 2674W        W67901   8.762  28.621   3.999
 2675W        W67902  19.020   4.731  14.820
 2676W        W67903  14.266  20.420   2.196
 2677W        W67904  14.642  31.982   3.539
 2678W        W67905  16.684  44.671  10.681
 2679W        W67906  15.177  41.485   4.639
 2680W        W67907   5.889   1.255  11.805
 2681W        W67908  34.320   7.564   1.625
 2682W        W67909  34.130   9.489  14.451
 2683W        W67910  42.760   3.642  14.851
 2684W        W67911  33.597   1.047  12.514
 2685W        W67912  25.213  11.154  13.435
 2686W        W67913   6.400  22.467   1.631
 2687W        W67914   2.217  21.122  11.324
 2688W        W67915  32.185  28.031  14.861
 2689W        W67916  35.244   6.115   3.357
 2690W        W67917  31.633  23.499   4.143
 2691W        W67918  18.921  43.649   2.933
 2692W        W67919  30.796   3.223   4.479
 2693W        W67920  34.245  35.935  13.932
 2694W        W67921   4.002  14.531  11.303
 2695W        W67922   1.835  13.814  12.816
 2696W        W67923  16.284  33.468  10.348
 2697W        W67924  30.654  24.635   4.148
 2698W        W67925  20.704  11.412  11.949
 2699W        W67926  37.807  13.621   1.729
 2700W        W67927  10.340  41.210   2.858
 2701W        W67928   4.374  28.136   2.170
 2702W        W67929  20.058  18.024   4.897
 2703W        W67930   7.494  25.071   1.876
 2704W        W67931  33.201   4.072  10.957
 2705W        W67932   7.216  33.709   1.838
 2706W        W67933  37.155   9.935   4.129
 2707W        W67934  22.069  14.572   1.837
 2708W        W67935  16.532  25.076  11.128
 2709W        W67936  42.940   0.096  12.420
 2710W        W67937  22.637  18.651  10.727
 2711W        W67938  21.131  38.668   4.520
 2712W        W67939  41.518   4.044   3.800
 2713W        W67940  36.379  24.736  11.904
 2714W        W67941  19.742   7.304  11.944
 2715W        W67942  16.312   8.970  11.773
 2716W        W67943  40.990  21.821  11.780
 2717W        W67944  36.474  35.170   1.933
 2718W        W67945  20.098  18.350  14.334
 2719W        W67946  26.860  39.042  13.969
 2720W        W67947  26.398  21.541  10.426
 2721W        W67948  30.619   5.895  14.353
 2722W        W67949   8.829   2.809  12.158
 2723W        W67950   0.956  32.254   5.370
 2724W        W67951  28.675   3.758  11.457
 2725W        W67952  12.336  36.615   0.501
 2726W        W67953  27.085  38.273   0.216
 2727W        W67954  18.322  17.293  13.112
 2728W        W67955  24.087   0.159   0.758
 2729W        W67956   1.022  18.395  13.191
 2730W        W67957  27.973  21.798   0.601
 2731W        W67958  42.443  22.834  11.365
 2732W        W67959  44.311  30.080  11.499
 2733W        W67960  36.292   7.116   0.505
 2734W        W67961   7.875  15.253  12.094
 2735W        W67962  17.866  22.481  11.547
 2736W        W67963  24.237  13.371  11.589
 2737W        W67964  35.468  29.646   3.339
 2738W        W67965  15.154  39.776   0.802
 2739W        W67966   9.632  36.831  14.863
 2740W        W67967   9.747   9.889   1.309
 2741W        W67968  20.858   7.309  12.904
 2742W        W67969  18.984  38.396   3.095
 2743W        W67970   9.194  26.016   2.753
 2744W        W67971  33.676   5.393  13.404
 2745W        W67972  13.101  35.558  10.555
 2746W        W67973   6.538   1.863  12.001
 2747W        W67974  22.949  31.170  14.944
 2748W        W67975  40.319  43.151  13.362
 2749W        W67976  15.058  24.559  12.316
 2750W        W67977   1.392   0.743   1.439
 2751W        W67978  44.868  28.710   4.717
 2752W        W67979  25.393  33.665   2.339
 2753W        W67980  28.128  23.544  12.929
 2754W        W67981  28.190  19.857  12.076
 2755W        W67982  17.581  39.593   4.549
 2756W        W67983   9.404  14.458  12.184
 2757W        W67984   9.004  30.130   0.860
 2758W        W67985  17.513   2.293   0.770
 2759W        W67986   0.482  29.489   3.238
 2760W        W67987  23.536  41.017  13.331
 2761W        W67988   7.323  19.346  13.317
 2762W        W67989  38.935  33.072   4.815
 2763W        W67990   9.826  25.205  12.024
 2764W        W67991   8.737  10.785   1.363
 2765W        W67992  30.884  18.614   2.395
 2766W        W67993  20.921  18.664   5.033
 2767W        W67994   3.155  14.531  10.886
 2768W        W67995  10.426  13.410   1.270
 2769W        W67996  18.867  37.847   3.642
 2770W        W67997   3.447  38.052  10.725
 2771W        W67998  37.953  11.690  12.870
 2772W        W67999  13.991  10.579  13.506
 2773W        W68000  20.783   5.785  11.171
 2774W        W68001   2.328  25.511  13.932
 2775W        W68002  20.863  36.914  13.353
 2776W        W68003   3.933  25.283  12.812
 2777W        W68004  35.985  33.416  12.654
 2778W        W68005  24.861  41.691  14.736
 2779W        W68006  32.444   9.408  13.881
 2780W        W68007  26.228  13.318   2.430
 2781W        W68008  40.644  21.315   1.405
 2782W        W68009  13.885  31.074  13.897
 2783W        W68010  36.461  34.098   3.402
 2784W        W68011  10.539  34.155   0.241
 2785W        W68012  32.415  20.852   2.746
 2786W        W68013  23.604   7.272  12.583
 2787W        W68014   9.924  15.639  13.473
 2788W        W68015   5.701  25.331  11.060
 2789W        W68016  20.819   5.174   0.300
 2790W        W68017   7.893  43.122   3.295
 2791W        W68018  31.419  35.719  13.229
 2792W        W68019  42.306  13.590  14.050
 2793W        W68020   8.568  14.633  13.240
 2794W        W68021   1.453  16.159  13.809
 2795W        W68022  39.267  35.311   0.041
 2796W        W68023  33.491  12.824  12.613
 2797W        W68024  10.666  28.739   0.310
 2798W        W68025   4.946  33.134   2.666
 2799W        W68026   5.222   9.408  13.833
 2800W        W68027  20.131  16.612   0.922
 2801W        W68028   5.608  15.018   0.794
 2802W        W68029  18.387  32.551   4.358
 2803W        W68030  44.010  11.078  13.253
 2804W        W68031  33.492  36.216  12.608
 2805W        W68032  28.023   7.794  12.607
 2806W        W68033  30.768  33.547  12.986
 2807W        W68034  16.057  15.187   1.593
 2808W        W68035  15.702  18.110  13.058
 2809W        W68036  20.782  43.318   4.144
 2810W        W68037  14.673  30.048  14.019
 2811W        W68038  35.942  25.156   3.090
 2812W        W68039  15.360  42.590   2.375
 2813W        W68040  42.801  41.871   4.895
 2814W        W68041  13.862  23.549   1.423
 2815W        W68042  22.123  28.450   1.463
 2816W        W68043  18.341  42.625  14.432
 2817W        W68044  23.193  19.559   1.235
 2818W        W68045  27.343  19.848  11.136
 2819W        W68046  35.115   4.748  13.421
 2820W        W68047  41.170  44.812   1.495
 2821W        W68048  29.951  10.352  11.423
 2822W        W68049  23.449  24.975   3.435
 2823W        W68050  31.605  24.587  14.737
 2824W        W68051  44.209  38.875   3.072
 2825W        W68052  31.171  18.529  10.740
 2826W        W68053  33.867   1.490  12.437
 2827W        W68054  32.979  23.568   0.440
 2828W        W68055  36.103   3.333  14.769
 2829W        W68056  22.456  18.874   4.168
 2830W        W68057  41.929  39.467  14.490
 2831W        W68058  37.589  10.301  11.726
 2832W        W68059  26.679   3.797  13.440
 2833W        W68060  33.197  38.051  12.478
 2834W        W68061   0.102  14.186   1.794
 2835W        W68062  37.363  25.952  13.327
 2836W        W68063  43.939  30.009   3.882
 2837W        W68064  43.326  10.124  12.820
 2838W        W68065  36.803  41.108   3.716
 2839W        W68066   7.442   8.321   2.550
 2840W        W68067  26.604   1.926   5.035
 2841W        W68068   8.124  10.788  14.411
 2842W        W68069  21.158   3.044   2.583
 2843W        W68070  22.670  43.322   2.404
 2844W        W68071  30.884  10.135   0.739
 2845W        W68072  41.472  22.842   2.062
 2846W        W68073  30.164  17.091   1.055
 2847W        W68074   7.432  20.344   4.506
 2848W        W68075  40.103  11.410   0.931
 2849W        W68076  27.480  24.989   1.258
 2850W        W68077  24.921  16.511  12.093
 2851W        W68078  30.834   2.371   2.170
 2852W        W68079  43.513   4.802   2.810
 2853W        W68080  32.993  11.163   2.664
 2854W        W68081  24.041   8.234  11.669
 2855W        W68082  29.066  19.586   0.012
 2856W        W68083  38.485  14.032  14.243
 2857W        W68084  17.820  42.247   2.302
 2858W        W68085  31.451  17.548   3.076
 2859W        W68086  35.683  23.495  13.487
 2860W        W68087   0.850  25.012  12.978
 2861W        W68088  36.301   0.938   5.012
 2862W        W68089  34.859   6.187   2.181
 2863W        W68090  27.294   1.505  14.368
 2864W        W68091   2.176  25.659  12.162
 2865W        W68092  38.367  17.093   3.222
 2866W        W68093   7.794   0.407  13.195
 2867W        W68094  38.027   6.958   2.743
 2868W        W68095   8.405  14.568   5.115
 2869W        W68096  27.569  17.024   4.261
 2870W        W68097  26.562  42.084  12.453
 2871W        W68098  42.273  33.846   3.040
 2872W        W68099  43.012  25.970  14.577
 2873W        W68100   7.984  43.357  12.970
 2874W        W68101  23.596   8.441  10.819
 2875W        W68102  27.725  34.872   2.016
 2876W        W68103  22.197  27.482  13.769
 2877W        W68104  25.443  27.685   4.171
 2878W        W68105  43.748   0.295  11.636
 2879W        W68106   3.209   4.213  12.485
 2880W        W68107  24.720  11.989  13.390
 2881W        W68108  12.793   2.284  13.529
 2882W        W68109  12.485  30.309   0.831
 2883W        W68110  23.733  22.965   3.724
 2884W        W68111  24.112  38.738   3.160
 2885W        W68112  14.741  38.080  11.618
 2886W        W68113  11.020  39.877  14.680
 2887W        W68114  20.052  17.128  13.928
 2888W        W68115  25.634   8.624   4.956
 2889W        W68116  26.972  33.998   1.883
 2890W        W68117  15.603  19.800   2.419
 2891W        W68118  42.262  15.792   2.832
 2892W        W68119  31.957   2.659  13.326
 2893W        W68120   8.770   8.643   2.214
 2894W        W68121  15.044  42.890  12.521
 2895W        W68122   4.299  41.315  12.440
 2896W        W68123  31.654  12.777   2.389
 2897W        W68124  35.141  35.084   2.339
 2898W        W68125  13.804  17.574   2.799
 2899W        W68126  32.899  24.230   4.143
 2900W        W68127  32.813  13.841   1.793
 2901W        W68128  35.373   0.682  10.747
 2902W        W68129   3.952   7.295   4.939
 2903W        W68130   1.548  10.222   4.620
 2904W        W68131  44.886  25.856  10.842
 2905W        W68132  10.331   2.157   3.653
 2906W        W68133  31.617  29.163   2.819
 2907W        W68134  11.797  39.477   4.719
 2908W        W68135  19.264  20.692   0.319
 2909W        W68136   9.879   9.579  14.987
 2910W        W68137  10.325  30.048  12.451
 2911W        W68138  38.221   3.608  14.484
 2912W        W68139  34.291  42.515  11.467
 2913W        W68140  17.999  12.223   0.263
 2914W        W68141   6.386  33.142   3.965
 2915W        W68142  19.307   5.115   0.513
 2916W        W68143  36.963   6.742  12.617
 2917W        W68144  16.344  26.510   4.299
 2918W        W68145  15.543  27.575   1.339
 2919W        W68146  31.858  20.593   0.874
 2920W        W68147   8.683  29.289  14.499
 2921W        W68148  43.899  23.744  14.521
 2922W        W68149   6.209  34.941  14.366
 2923W        W68150  30.689  29.544   0.316
 2924W        W68151   7.339  35.063   1.480
 2925W        W68152  33.558  35.699  12.861
 2926W        W68153  23.539  34.535  12.018
 2927W        W68154  34.157  28.491   3.261
 2928W        W68155  28.535   8.411   0.158
 2929W        W68156   7.193  12.925   4.365
 2930W        W68157  38.402  43.271   1.739
 2931W        W68158  37.322  13.677   0.535
 2932W        W68159  27.289  23.112   2.958
 2933W        W68160  11.311  21.160   4.492
 2934W        W68161  21.028  11.540   0.293
 2935W        W68162  36.626  16.499  14.841
 2936W        W68163  33.829  32.056  13.811
 2937W        W68164  28.573  22.701   0.941
 2938W        W68165   2.832   8.441   0.358
 2939W        W68166  28.114  29.731  12.733
 2940W        W68167  13.324  40.825   2.814
 2941W        W68168  13.719  35.309  13.144
 2942W        W68169  33.817  35.908   0.632
 2943W        W68170  12.849  28.131  14.346
 2944W        W68171  30.131   2.986  13.119
 2945W        W68172  31.615  27.065   2.049
 2946W        W68173  29.406  23.205   4.197
 2947W        W68174  29.266   8.845   3.703
 2948W        W68175   0.875  33.859   1.275
 2949W        W68176  32.014  34.137   1.206
 2950W        W68177  17.972  18.964  11.177
 2951W        W68178  12.802  18.374   4.335
 2952W        W68179  34.809  37.359  12.049
 2953W        W68180  30.173  28.662   4.114
 2954W        W68181  23.760  30.349   0.015
 2955W        W68182  16.121  42.566  13.178
 2956W        W68183   0.356  38.928  12.250
 2957W        W68184  19.770  36.866   1.962
 2958W        W68185  29.405  12.256   2.603
 2959W        W68186   3.273  44.997  12.489
 2960W        W68187   0.731  36.611   0.086
 2961W        W68188  29.999  14.283  13.998
 2962W        W68189  32.117   0.425   3.112
 2963W        W68190  19.030  33.205   3.164
 2964W        W68191  33.343  34.238   0.264
 2965W        W68192  27.514  43.808   2.780
 2966W        W68193  22.812  21.200   2.761
 2967W        W68194  25.008  25.123   0.815
 2968W        W68195  11.813   5.199  14.971
 2969W        W68196   2.954  36.092   0.362
 2970W        W68197  41.952  18.348   0.869
 2971W        W68198  29.381  17.480  12.527
 2972W        W68199  29.030  38.124  14.524
 2973W        W68200  13.598  24.720  11.793
 2974W        W68201  35.820  43.236   2.296
 2975W        W68202  29.407  43.415   2.380
 2976W        W68203   6.405   4.844   1.386
 2977W        W68204   2.111  24.665   4.215
 2978W        W68205  22.889  29.990  14.904
 2979W        W68206   6.931   7.942   1.882
 2980W        W68207  35.571  11.095  11.893
 2981W        W68208  13.652   9.101   3.247
 2982W        W68209  36.406  35.424   3.702
 2983W        W68210  42.831   2.511  13.061
 2984W        W68211   0.213   4.226   2.737
 2985W        W68212  24.749  35.881   3.718
 2986W        W68213   6.345  36.849  13.833
 2987W        W68214  12.075  24.149   0.158
 2988W        W68215   1.144  26.207  12.332
 2989W        W68216  29.167  24.048  11.158
 2990W        W68217  36.315   2.311  13.692
 2991W        W68218  10.214  31.384   3.992
 2992W        W68219  39.774  23.250  12.567
 2993W        W68220  39.492   5.744  13.100
 2994W        W68221   4.236  32.332   4.201
 2995W        W68222  22.967   0.704   0.296
 2996W        W68223  38.324  29.104   1.257
 2997W        W68224  43.057  43.928   3.618
 2998W        W68225  28.774  40.199   3.249
 2999W        W68226   2.666  25.133   2.745
 3000W        W68227   0.292   1.692  12.651
 3001W        W68228   8.683  26.923   2.279
 3002W        W68229  33.402  22.610  14.308
 3003W        W68230  39.936  42.093   2.096
 3004W        W68231   9.220  38.904  12.051
 3005W        W68232   8.966  24.925   1.009
 3006W        W68233   0.272  29.680  12.171
 3007W        W68234  17.582  44.081   2.831
 3008W        W68235   9.375  38.473   4.632
 3009W        W68236   8.938  15.586   2.240
 3010W        W68237  35.433  26.936  14.824
 3011W        W68238  43.212  11.246  14.082
 3012W        W68239  19.415  12.012   3.047
 3013W        W68240  38.113  13.099  14.304
 3014W        W68241  39.951  41.058  14.924
 3015W        W68242  33.517  28.006  10.029
 3016W        W68243   9.299  29.075  10.649
 3017W        W68244   4.998  35.330  11.982
 3018W        W68245  35.418  19.257   4.693
 3019W        W68246  44.101  29.691   2.261
 3020W        W68247  28.731  37.039   5.373
 3021W        W68248   7.928  26.666  14.313
 3022W        W68249  29.411  34.579  14.940
 3023W        W68250   4.348  41.852   1.647
 3024W        W68251  28.589   9.652  13.074
 3025W        W68252  39.016   8.706  13.435
 3026W        W68253  17.054  19.047  11.196
 3027W        W68254  13.843  38.738   3.622
 3028W        W68255  17.709  22.631  14.055
 3029W        W68256  41.046  23.041   2.263
 3030W        W68257  24.116   2.758  14.889
 3031W        W68258  13.430  22.690  10.751
 3032W        W68259  14.839  10.345  12.529
 3033W        W68260   3.014  15.789  12.856
 3034W        W68261  14.755  39.372   1.773
 3035W        W68262  18.221  25.647  12.017
 3036W        W68263   2.031  26.018   0.415
 3037W        W68264  19.159  19.287  13.801
 3038W        W68265  15.830   9.628  13.771
 3039W        W68266  42.479  30.740   2.387
 3040W        W68267  22.170  21.115  13.931
 3041W        W68268  35.660  12.662  13.891
 3042W        W68269  15.496  37.121   3.633
 3043W        W68270  42.222   7.802   3.262
 3044W        W68271  30.209  19.149  11.263
 3045W        W68272  36.939   7.223  13.565
 3046W        W68273  26.952  10.192  14.837
 3047W        W68274  14.168  33.467   2.774
 3048W        W68275  36.365  29.797   2.911
 3049W        W68276   0.292  12.684  12.481
 3050W        W68277  34.753  30.128  11.924
 3051W        W68278  41.057  21.687   4.679
 3052W        W68279  44.643  26.959   3.735
 3053W        W68280  18.213  13.174  11.451
 3054W        W68281  27.474  44.875  11.108
 3055W        W68282   4.204   6.189  12.273
 3056W        W68283   5.687   1.650   4.557
 3057W        W68284  43.838  14.778  12.018
 3058W        W68285  19.799   0.780  10.980
 3059W        W68286  24.489  30.980  11.594
 3060W        W68287  12.960  11.824   0.717
 3061W        W68288  37.679   2.353  13.686
 3062W        W68289  30.993  19.353  10.533
 3063W        W68290   5.302  11.795   1.335
 3064W        W68291  15.005  43.480  13.484
 3065W        W68292   8.873  32.123   2.834
 3066W        W68293  26.961  26.933  14.007
 3067W        W68294   9.241  23.367   0.806
 3068W        W68295  33.977   1.897  14.005
 3069W        W68296  30.110  21.103   1.689
 3070W        W68297  13.897  37.864   1.394
 3071W        W68298  21.443   2.410  13.960
 3072W        W68299  20.707  39.421   4.676
 3073W        W68300  10.911  40.397  12.114
 3074W        W68301  24.644  25.472   3.230
 3075W        W68302  11.399  23.316   4.133
 3076W        W68303  28.008  33.744   4.577
 3077W        W68304  44.780  44.443  14.440
 3078W        W68305   3.821  19.687  13.660
 3079W        W68306   5.218   5.527   0.998
 3080W        W68307  34.001  11.070   3.701
 3081W        W68308   5.952  17.949  12.477
 3082W        W68309  38.092   3.738   1.148
 3083W        W68310  24.507  34.743  12.508
 3084W        W68311  19.927  19.089  13.365
 3085W        W68312  21.762  30.848  11.197
 3086W        W68313  37.822  44.331   0.164
 3087W        W68314  28.936  10.745   2.797
 3088W        W68315   6.394  14.359   2.314
 3089W        W68316  25.695  34.458   0.823
 3090W        W68317  39.573  37.485  10.556
 3091W        W68318  26.535  39.481  10.654
 3092W        W68319  42.001   0.719  12.167
 3093W        W68320  10.044  23.050  11.541
 3094W        W68321  34.919  23.908  13.393
 3095W        W68322  20.024   3.164  13.323
 3096W        W68323   8.952   8.292  11.285
 3097W        W68324   3.966  40.065   4.024
 3098W        W68325  30.179  33.429  11.207
 3099W        W68326  14.575  23.603  11.240
 3100W        W68327  24.725  15.152   3.934
 3101W        W68328   8.846  41.681   0.930
 3102W        W68329  25.056  28.901  14.235
 3103W        W68330  25.172  44.849  14.220
 3104W        W68331  36.563   3.085  12.422
 3105W        W68332  41.824   0.428  14.134
 3106W        W68333  37.586  39.904   3.643
 3107W        W68334  11.859  22.916   3.288
 3108W        W68335  41.273  36.336  12.394
 3109W        W68336  35.548  29.408  12.875
 3110W        W68337  32.552  13.756   0.773
 3111W        W68338  25.999  28.930  11.116
 3112W        W68339   4.672  20.831   3.889
 3113W        W68340  17.564  22.735   3.413
 3114W        W68341   5.153  19.573   4.752
 3115W        W68342  34.677  30.087   1.753
 3116W        W68343  15.645  19.033   1.027
 3117W        W68344  22.915  20.011  14.786
 3118W        W68345   7.837  36.842   3.751
 3119W        W68346  17.290  41.221   2.349
 3120W        W68347  30.129  16.833   2.881
 3121W        W68348   8.424   0.191  13.921
 3122W        W68349  28.600  17.866  10.999
 3123W        W68350  12.269  11.130   2.850
 3124W        W68351  28.505  34.929   4.121
 3125W        W68352  16.048   3.246   0.375
 3126W        W68353  30.988  37.065   2.163
 3127W        W68354  23.185  38.706   2.202
 3128W        W68355  12.175  35.405  14.537
 3129W        W68356   9.309   5.014   1.759
 3130W        W68357   9.936  39.328   4.804
 3131W        W68358  19.197   6.255   0.920
 3132W        W68359  34.827  39.316  13.947
 3133W        W68360  39.127  24.759   3.627
 3134W        W68361  20.277  25.569   0.789
 3135W        W68362   3.111   0.808   0.184
 3136W        W68363  26.019  25.368  11.152
 3137W        W68364   3.715  43.731   3.069
 3138W        W68365   1.242  35.908   3.726
 3139W        W68366  10.894  15.724   2.200
 3140W        W68367  38.852  24.671  11.203
 3141W        W68368  33.894  13.824  14.339
 3142W        W68369  19.663  27.757  11.978
 3143W        W68370  20.126  26.425   1.831
 3144W        W68371  17.886  42.021  11.952
 3145W        W68372  43.569  32.281   3.651
 3146W        W68373  12.179   3.799  10.744
 3147W        W68374  18.540  26.090  11.871
 3148W        W68375  15.226  28.215  11.636
 3149W        W68376  23.635  34.478   4.566
 3150W        W68377  15.147  21.301   1.859
 3151W        W68378   2.926  17.094   1.870
 3152W        W68379  11.271  14.602  10.433
 3153W        W68380  14.899  13.558  14.892
 3154W        W68381   3.356   9.187   5.151
 3155W        W68382  20.048  31.553  14.781
 3156W        W68383  26.414  38.599  12.697
 3157W        W68384  26.708  11.748   2.830
 3158W        W68385  38.925   4.254  11.537
 3159W        W68386  40.135  42.246   0.200
 3160W        W68387  43.367  28.487   3.448
 3161W        W68388  13.741   3.836   0.857
 3162W        W68389  34.300  20.499  11.571
 3163W        W68390  40.705  17.135   1.886
 3164W        W68391  38.410  18.829   2.790
 3165W        W68392  16.025   7.405  13.770
 3166W        W68393   8.161  42.552  12.309
 3167W        W68394   9.194  41.904  12.375
 3168W        W68395  19.031  38.119  11.222
 3169W        W68396  36.605  36.343   3.714
 3170W        W68397  22.529  27.306   0.926
 3171W        W68398  15.790  35.057   5.148
 3172W        W68399  14.170   9.727  13.139
 3173W        W68400  41.025  15.219   3.397
 3174W        W68401   2.522  35.407  13.938
 3175W        W68402  20.085  33.025   0.086
 3176W        W68403   7.915   8.126  12.092
 3177W        W68404  27.694  26.887   3.215
 3178W        W68405  12.389   6.791   1.947
 3179W        W68406   3.259   9.924  14.793
 3180W        W68407  27.460   5.940   4.110
 3181W        W68408  11.429  22.671   3.099
 3182W        W68409  31.410  24.809   0.737
 3183W        W68410  39.903  41.949   4.636
 3184W        W68411  17.374  30.945  12.468
 3185W        W68412  13.181  33.137  12.905
 3186W        W68413  36.913  18.054  10.945
 3187W        W68414  30.139  36.392  14.427
 3188W        W68415  19.772   1.211  12.148
 3189W        W68416  16.369  36.137  12.080
 3190W        W68417   4.751   9.580   5.108
 3191W        W68418  41.052   1.417  10.781
 3192W        W68419  21.999  38.087  11.211
 3193W        W68420   6.270  39.478  13.269
 3194W        W68421   4.260  37.807   4.621
 3195W        W68422  22.604   8.233  14.823
 3196W        W68423   2.176  18.592  12.563
 3197W        W68424  10.154   1.551   2.230
 3198W        W68425  34.869  26.687   2.296
 3199W        W68426  12.708   8.788  11.649
 3200W        W68427  25.130  17.878   2.477
 3201W        W68428  18.048  28.486  12.795
 3202W        W68429  44.854  37.502  11.218
 3203W        W68430  11.411  25.137   3.263
 3204W        W68431  37.822  31.374  11.178
 3205W        W68432   7.447  30.134  11.622
 3206W        W68433  39.372  44.020  13.601
 3207W        W68434  42.982   7.779  12.302
 3208W        W68435  35.672  40.285  13.007
 3209W        W68436  44.735  29.911   1.403
 3210W        W68437  21.166  38.151   4.518
 3211W        W68438  15.235  18.063  14.367
 3212W        W68439  12.914   4.661   3.790
 3213W        W68440   6.647  27.997   2.966
 3214W        W68441  32.828  39.429  12.869
 3215W        W68442  38.011  41.994   0.443
 3216W        W68443  31.699  34.724  12.327
 3217W        W68444  11.527  34.219   0.882
 3218W        W68445  13.460  35.720   1.835
 3219W        W68446   0.306  15.418   0.802
 3220W        W68447  34.885  22.301  10.556
 3221W        W68448  38.722  15.804  14.488
 3222W        W68449  11.824  18.060  14.832
 3223W        W68450  22.005  15.298  14.041
 3224W        W68451  18.021  27.670   0.364
 3225W        W68452  21.373   5.293   4.567
 3226W        W68453  27.189  16.623  12.438
 3227W        W68454  38.496  42.974   4.647
 3228W        W68455   4.308  32.871  10.740
 3229W        W68456   1.496  34.993  14.637
 3230W        W68457  13.687  10.106   1.201
 3231W        W68458  10.472   4.869  14.546
 3232W        W68459  38.066  24.554   3.355
 3233W        W68460   4.001  23.481   3.796
 3234W        W68461  40.002  10.999  12.399
 3235W        W68462  35.932  44.956   4.172
 3236W        W68463   2.801  13.236   3.063
 3237W        W68464  34.747  22.114   0.855
 3238W        W68465  23.073  16.681  13.397
 3239W        W68466  18.703  14.748  10.476
 3240W        W68467  40.266  40.567  12.050
 3241W        W68468  12.340  29.467  12.851
 3242W        W68469  36.467  15.172   0.006
 3243W        W68470  42.537  19.341   1.260
 3244W        W68471   8.956  39.802   4.074
 3245W        W68472   1.856   7.142   2.057
 3246W        W68473  26.146  40.349  14.757
 3247W        W68474  22.585  26.410  12.990
 3248W        W68475  34.581   5.849  11.931
 3249W        W68476   6.717   0.369   4.589
 3250W        W68477  19.115  17.354  11.072
 3251W        W68478  30.442  27.966   1.768
 3252W        W68479  24.424   9.448  14.278
 3253W        W68480  23.715   3.971   3.207
 3254W        W68481  44.803  16.665   1.600
 3255W        W68482   9.870  12.171   4.591
 3256W        W68483   5.465  43.505   5.096
 3257W        W68484  21.628  17.212   0.258
 3258W        W68485   3.287   3.807  12.791
 3259W        W68486  28.391  29.558  11.931
 3260W        W68487  13.880  44.750   4.225
 3261W        W68488  10.869   5.351  13.017
 3262W        W68489   3.413  11.765  14.419
 3263W        W68490   8.807  29.006   4.949
 3264W        W68491   8.915  36.063   1.810
 3265W        W68492  10.114   0.594  13.288
 3266W        W68493  30.691  36.161   0.656
 3267W        W68494   3.286   2.126   2.960
 3268W        W68495  35.365  38.607  12.691
 3269W        W68496   9.674  19.112   1.261
 3270W        W68497  15.953  14.396   3.658
 3271W        W68498  42.025   9.716   3.581
 3272W        W68499  12.358  38.425  13.894
 3273W        W68500  40.302  20.733  10.781
 3274W        W68501  17.673  10.753  13.997
 3275W        W68502  19.502  23.296  13.778
 3276W        W68503   7.359  32.464  10.445
 3277W        W68504   8.250   3.197   4.593
 3278W        W68505  18.249   1.427   4.122
 3279W        W68506  35.775  30.731  12.449
 3280W        W68507  42.347   3.986  14.096
 3281W        W68508  43.006  33.457   0.740
 3282W        W68509  32.066   8.664   0.040
 3283W        W68510  10.740  20.663  14.487
 3284W        W68511  15.775   3.658   1.715
 3285W        W68512  31.534  16.774  14.782
 3286W        W68513  10.980   8.331  14.227
 3287W        W68514  36.065  39.627   1.617
 3288W        W68515  14.269  42.521  14.813
 3289W        W68516  30.805  35.925   5.012
 3290W        W68517   2.040   9.783   3.374
 3291W        W68518   8.524   1.496  11.993
 3292W        W68519   7.361  31.570   4.677
 3293W        W68520  38.020  11.563   0.904
 3294W        W68521  11.438  35.775   5.425
 3295W        W68522   9.884  40.539  14.219
 3296W        W68523  14.634   5.310   0.013
 3297W        W68524   0.246  20.444   1.810
 3298W        W68525  42.342  10.083  12.844
 3299W        W68526  11.955  32.163  13.503
 3300W        W68527  37.787  24.099   0.270
 3301W        W68528  29.580  35.339   2.249
 3302W        W68529   2.541  21.682  13.573
 3303W        W68530   7.100  16.688  12.011
 3304W        W68531  40.409  23.984  13.062
 3305W        W68532  23.746  36.438   0.715
 3306W        W68533  15.773   1.661   0.468
 3307W        W68534   0.178  36.552   4.672
 3308W        W68535  40.405  19.706   9.993
 3309W        W68536   5.587  10.486  11.079
 3310W        W68537  16.752  16.300   3.532
 3311W        W68538  14.253  41.272   1.083
 3312W        W68539  18.365   7.834  13.829
 3313W        W68540  11.890   8.010   2.289
 3314W        W68541   2.022  15.474  12.997
 3315W        W68542   5.398  27.974   2.212
 3316W        W68543  22.307  34.147  12.343
 3317W        W68544  40.715  19.319  11.197
 3318W        W68545  25.609  34.036  12.612
 3319W        W68546  42.271  13.333   1.200
 3320W        W68547  10.696  42.979   2.305
 3321W        W68548   6.301  16.305  13.546
 3322W        W68549  24.621  23.217   4.043
 3323W        W68550  36.236  16.473   1.312
 3324W        W68551   4.921  10.714   1.357
 3325W        W68552  36.549  32.271  14.873
 3326W        W68553  13.203  17.337  13.870
 3327W        W68554  13.110  28.668  14.601
 3328W        W68555  25.931  31.792  14.949
 3329W        W68556  24.919  35.435   1.866
 3330W        W68557   9.898   1.350   1.133
 3331W        W68558  15.048  43.000   3.246
 3332W        W68559  40.428  19.512  14.850
 3333W        W68560  13.258  24.823   4.776
 3334W        W68561  44.961  43.040  14.056
 3335W        W68562  15.011  25.203  11.118
 3336W        W68563   9.360   8.399   4.666
 3337W        W68564   0.689   6.251   4.530
 3338W        W68565  34.593   5.388   1.452
 3339W        W68566  10.051  34.439   2.840
 3340W        W68567  32.117  21.943   1.305
 3341W        W68568  24.091  26.999   2.378
 3342W        W68569  17.581  30.083   4.493
 3343W        W68570  11.768   7.226  14.474
 3344W        W68571  40.870  35.073  11.591
 3345W        W68572  16.275  40.993   2.383
 3346W        W68573  31.359  10.424  12.535
 3347W        W68574  44.681  40.344  13.450
 3348W        W68575  32.411  10.747  14.013
 3349W        W68576  12.588   9.268   1.876
 3350W        W68577   8.137  38.380  14.805
 3351W        W68578   7.709  28.788  11.380
 3352W        W68579   2.007  35.492   1.075
 3353W        W68580  35.283  44.548  12.264
 3354W        W68581  31.649  25.606  13.423
 3355W        W68582  16.499   6.261  13.450
 3356W        W68583  40.025  43.989  10.397
 3357W        W68584  10.364  41.904  13.979
 3358W        W68585  12.773  43.489  12.223
 3359W        W68586   8.100  42.898   0.322
 3360W        W68587   2.149  34.402   2.928
 3361W        W68588  33.925  28.733  12.460
 3362W        W68589  42.801   9.933   3.112
 3363W        W68590  21.378   2.415  14.493
 3364W        W68591  30.575  15.777   4.474
 3365W        W68592  37.640  36.469   0.035
 3366W        W68593  42.065   0.960  13.425
 3367W        W68594  42.498   3.303  12.847
 3368W        W68595  35.911  17.803  11.157
 3369W        W68596  42.705  34.478   1.611
 3370W        W68597  29.665  38.652  13.585
 3371W        W68598  44.494  13.280  10.856
 3372W        W68599  18.100   2.644  14.852
 3373W        W68600  39.468  29.861  12.477
 3374W        W68601  19.071  28.412   3.112
 3375W        W68602  37.117  38.324  11.552
 3376W        W68603  28.971  35.440   4.597
 3377W        W68604  26.391   4.769   0.824
 3378W        W68605  21.676   0.476   9.976
 3379W        W68606  39.822  13.579   1.361
 3380W        W68607  10.698  35.358   2.780
 3381W        W68608  34.068  22.303   0.097
 3382W        W68609  38.835  25.550  11.146
 3383W        W68610  22.749  36.462   0.065
 3384W        W68611  12.373  25.556   4.071
 3385W        W68612  21.034  36.526  14.550
 3386W        W68613   5.650  10.506  12.293
 3387W        W68614  23.589  13.608  14.042
 3388W        W68615  18.208  23.701   4.219
 3389W        W68616  25.104  10.656  12.398
 3390W        W68617  22.915  27.702  13.394
 3391W        W68618  44.474  15.642  13.453
 3392W        W68619  26.380  11.451   0.825
 3393W        W68620  36.576  27.138  11.594
 3394W        W68621  14.625  21.943   0.464
 3395W        W68622  11.712  16.463  10.624
 3396W        W68623  13.367  38.146   0.605
 3397W        W68624  42.336   5.946  13.658
 3398W        W68625   5.216   8.324  11.102
 3399W        W68626  13.616   5.198  10.490
 3400W        W68627  28.387  34.138   4.379
 3401W        W68628  44.356   8.046  13.974
 3402W        W68629  11.310  32.357   2.294
 3403W        W68630   5.261   7.778   3.233
 3404W        W68631  15.050   8.450   4.491
 3405W        W68632  24.769  37.351   2.794
 3406W        W68633   1.743   2.964   2.588
 3407W        W68634   5.688  29.560   4.567
 3408W        W68635  35.953   0.569  12.066
 3409W        W68636  31.507  11.958  14.920
 3410W        W68637  11.297  18.305   0.959
 3411W        W68638  33.750   8.420  12.144
 3412W        W68639   4.877  20.602  12.157
 3413W        W68640  30.767  10.951   2.459
 3414W        W68641  27.893  17.543   0.666
 3415W        W68642   4.043  25.354   2.579
 3416W        W68643  32.092  21.384  10.998
 3417W        W68644  19.122  25.512   3.068
 3418W        W68645  30.074   6.605   1.633
 3419W        W68646  29.264  40.861   2.682
 3420W        W68647   1.277  32.623   1.802
 3421W        W68648  27.232  20.040   3.686
 3422W        W68649   2.728   4.858  12.462
 3423W        W68650  10.717  21.556  13.584
 3424W        W68651   1.796  15.603  12.062
 3425W        W68652  23.101  44.093  13.344
 3426W        W68653  15.091   2.445   3.092
 3427W        W68654   7.834  25.914   0.861
 3428W        W68655  22.417  30.083   2.713
 3429W        W68656  12.156  42.371   0.740
 3430W        W68657  31.215  15.184  11.697
 3431W        W68658  29.959  38.927  12.591
 3432W        W68659  40.820  41.909   0.222
 3433W        W68660  27.766  12.184  12.500
 3434W        W68661  30.569  17.562  14.358
 3435W        W68662  30.025  33.091  13.323
 3436W        W68663  29.990  31.414   4.350
 3437W        W68664  24.968  21.135   4.552
 3438W        W68665   3.523  28.946   3.484
 3439W        W68666  26.715  36.575  14.894
 3440W        W68667  37.364  40.750   2.732
 3441W        W68668   8.055   7.679  11.198
 3442W        W68669  13.370   1.835  12.390
 3443W        W68670  29.968  44.075  10.638
 3444W        W68671  27.008  44.319  12.562
 3445W        W68672  33.247  26.668  14.362
 3446W        W68673   5.212  18.104   3.768
 3447W        W68674  29.586  28.340  10.795
 3448W        W68675  17.104  29.943  10.819
 3449W        W68676  42.236  35.647   4.385
 3450W        W68677  30.145  39.664  14.795
 3451W        W68678  41.403  10.630  12.056
 3452W        W68679  13.176  23.768   1.912
 3453W        W68680  21.589   9.264   2.416
 3454W        W68681  13.386  16.074  12.586
 3455W        W68682  34.898  34.962  14.298
 3456W        W68683  12.086  33.721  10.804
 3457W        W68684  36.282  28.968  10.712
 3458W        W68685  23.997   8.178  12.590
 3459W        W68686  20.453  19.616  10.531
 3460W        W68687  13.915  42.380  12.295
 3461W        W68688   7.629  12.226  14.131
 3462W        W68689  12.033  39.787  14.900
 3463W        W68690  23.712  37.916   3.151
 3464W        W68691  32.679   0.778  12.532
 3465W        W68692  33.695   0.208   1.537
 3466W        W68693   7.036  11.144  11.014
 3467W        W68694  20.332  42.853  11.073
 3468W        W68695  37.492   3.781   1.837
 3469W        W68696  10.030  37.424   1.224
 3470W        W68697  26.279  36.047  12.431
 3471W        W68698  34.084  20.781   3.635
 3472W        W68699  40.429   9.572  14.937
 3473W        W68700  39.020  23.512  10.824
 3474W        W68701  15.787  37.521  11.520
 3475W        W68702  36.147  11.350  11.016
 3476W        W68703   9.854  28.647   1.827
 3477W        W68704  37.532  30.855   3.794
 3478W        W68705  37.324   3.442  11.137
 3479W        W68706   4.637  17.055   1.420
 3480W        W68707  38.967  22.681   2.041
 3481W        W68708  35.880   2.560   4.210
 3482W        W68709  24.145  12.631   3.382
 3483W        W68710  41.045   1.008   0.614
 3484W        W68711   7.782   8.884  13.629
 3485W        W68712   3.327  35.051  11.772
 3486W        W68713   9.800  24.507  12.616
 3487W        W68714  25.025  26.500   2.726
 3488W        W68715  41.296  44.288   0.881
 3489W        W68716  44.877  24.611  11.692
 3490W        W68717  39.498   2.480   1.626
 3491W        W68718  28.949  19.791   1.019
 3492W        W68719  42.042  31.809  10.296
 3493W        W68720  15.412  33.976  10.224
 3494W        W68721  29.261   5.001   1.942
 3495W        W68722  13.341  22.004  12.073
 3496W        W68723  23.905   6.800   0.100
 3497W        W68724   3.848   5.155  12.537
 3498W        W68725  23.893  24.752  14.802
 3499W        W68726  36.642  25.653   3.320
 3500W        W68727  26.192  27.414   0.280
 3501W        W68728  16.136  30.395  10.666
 3502W        W68729  18.875  25.514   2.147
 3503W        W68730  15.444  29.370   4.135
 3504W        W68731  16.162  35.680  13.544
 3505W        W68732  37.438  23.599  11.961
 3506W        W68733   3.318  36.096  14.823
 3507W        W68734  33.830   3.858   3.450
 3508W        W68735  33.481  28.992  12.391
 3509W        W68736  40.507  33.328  14.882
 3510W        W68737  26.691  11.686  13.406
 3511W        W68738  10.841  17.883  12.915
 3512W        W68739  30.475  34.241  13.662
 3513W        W68740  42.414  18.820  12.198
 3514W        W68741  44.476  42.205   4.698
 3515W        W68742  18.259   0.799  12.075
 3516W        W68743  25.652  20.548   3.918
 3517W        W68744  22.403  12.180   5.100
 3518W        W68745  22.566   2.820  13.895
 3519W        W68746  32.956  32.855  10.661
 3520W        W68747  39.456   8.894   0.852
 3521W        W68748  39.493  28.679  13.015
 3522W        W68749  40.029  16.303   0.280
 3523W        W68750   7.082  38.737  11.075
 3524W        W68751   8.776  42.826   4.593
 3525W        W68752  35.358  39.543  13.066
 3526W        W68753  10.060  27.971  10.472
 3527W        W68754  26.896   1.973  13.397
 3528W        W68755  37.775  40.348  13.502
 3529W        W68756  24.979  35.632   4.095
 3530W        W68757  11.686  15.279   4.076
 3531W        W68758  29.506  14.552   2.590
 3532W        W68759  23.713  30.543   0.490
 3533W        W68760  17.974  32.142  10.774
 3534W        W68761   1.439  37.383  12.758
 3535W        W68762  14.575  20.654   0.763
 3536W        W68763  30.059  23.597  12.184
 3537W        W68764  21.116  34.111  13.333
 3538W        W68765  31.194  28.951   4.116
 3539W        W68766  40.845  22.616   1.334
 3540W        W68767  36.843  43.285  11.397
 3541W        W68768  31.230  21.145  14.880
 3542W        W68769  41.339  42.223  12.022
 3543W        W68770   7.958  35.841  11.609
 3544W        W68771   6.414  34.942  10.349
 3545W        W68772  39.165  25.473   4.894
 3546W        W68773  13.581  20.226   3.795
 3547W        W68774   1.132  26.376   0.692
 3548W        W68775  29.454   9.560  13.431
 3549W        W68776  42.369  37.427   0.852
 3550W        W68777   9.300  18.750  11.188
 3551W        W68778   0.815   2.000   0.358
 3552W        W68779  12.233  23.757   1.899
 3553W        W68780  15.750   9.376   0.990
 3554W        W68781  18.335  27.174   2.897
 3555W        W68782  11.576   1.834   1.471
 3556W        W68783  36.987  13.929   1.642
 3557W        W68784  29.128  29.258  14.331
 3558W        W68785  43.599  44.785  11.523
 3559W        W68786   0.257  22.260   2.328
 3560W        W68787  25.694   5.197  11.928
 3561W        W68788  21.008  17.024  11.336
 3562W        W68789  30.152   2.530   1.650
 3563W        W68790   3.998   6.749  11.914
 3564W        W68791   7.130  32.869   1.369
 3565W        W68792  33.197   0.731  12.602
 3566W        W68793  29.979  19.057  14.880
 3567W        W68794  13.025  36.053   3.653
 3568W        W68795  36.916   0.181   4.087
 3569W        W68796   3.706   1.251  14.224
 3570W        W68797   3.270  15.768  11.945
 3571W        W68798  28.329  21.568   2.194
 3572W        W68799  35.532  35.469   3.110
 3573W        W68800  18.323  26.642   1.214
 3574W        W68801   6.118  18.108   1.385
 3575W        W68802  15.656  28.608  14.438
 3576W        W68803   6.394  23.909  12.773
 3577W        W68804  17.776  13.778   4.563
 3578W        W68805   5.196  40.583   3.860
 3579W        W68806  30.536  39.024   0.642
 3580W        W68807  26.901  40.955   0.671
 3581W        W68808  36.444  26.845  12.410
 3582W        W68809  31.613  16.725  12.389
 3583W        W68810   3.984  37.287  12.148
 3584W        W68811  33.192  14.523   0.387
 3585W        W68812  33.147  16.435  11.577
 3586W        W68813   0.382   7.682  14.486
 3587W        W68814  43.404   6.698   4.165
 3588W        W68815   9.035  36.349  14.011
 3589W        W68816  13.774  21.588   4.015
 3590W        W68817  17.019  39.474   3.569
 3591W        W68818  18.521  36.093  12.105
 3592W        W68819  17.036   0.480  11.234
 3593W        W68820  18.220   0.340  13.726
 3594W        W68821  17.133  33.037   1.139
 3595W        W68822   6.273  25.910   4.186
 3596W        W68823   5.362  35.874  14.007
 3597W        W68824   2.383  41.692   1.037
 3598W        W68825  36.945  28.319  14.193
 3599W        W68826  10.487  33.426   0.106
 3600W        W68827  33.089  34.913   1.643
 3601W        W68828   2.806  21.789  14.930
 3602W        W68829  19.120  34.782   4.553
 3603W        W68830   0.176  25.437  12.664
 3604W        W68831  35.961  10.780   1.341
 3605W        W68832  29.084  25.420  13.902
 3606W        W68833  24.428  23.564  11.243
 3607W        W68834  43.519  35.118   2.187
 3608W        W68835  30.411  23.562  13.531
 3609W        W68836  29.936  27.185  13.409
 3610W        W68837  34.530   5.736   0.252
 3611W        W68838  27.250   0.894   5.584
 3612W        W68839   4.521  17.527   2.412
 3613W        W68840  32.888  41.287  10.507
 3614W        W68841  37.941  11.245  13.872
 3615W        W68842  27.431  39.273   4.692
 3616W        W68843  20.117  44.328   2.844
 3617W        W68844   8.340   0.473  12.567
 3618W        W68845   9.621   9.847  14.596
 3619W        W68846  13.229  33.798  14.971
 3620W        W68847  21.570   1.598   0.779
 3621W        W68848  25.502  27.662  11.600
 3622W        W68849  34.523  39.526  11.925
 3623W        W68850  26.038  39.872   2.601
 3624W        W68851  25.238  21.625   4.568
 3625W        W68852  25.532  12.164   0.816
 3626W        W68853  14.035   3.979   1.285
 3627W        W68854   0.810   9.804   2.524
 3628W        W68855  37.817  42.843  14.785
 3629W        W68856  25.975  43.768   4.632
 3630W        W68857  33.060  10.244   3.243
 3631W        W68858  32.866   8.948   0.434
 3632W        W68859  24.876   9.277  14.468
 3633W        W68860   8.245   3.954  13.308
 3634W        W68861  13.027  12.029  11.034
 3635W        W68862   3.476  35.838  13.990
 3636W        W68863  36.547  40.825  10.778
 3637W        W68864  14.013  43.847  14.765
 3638W        W68865  22.491  23.664  14.025
 3639W        W68866   7.289  34.962  12.032
 3640W        W68867  26.477  28.543   0.717
 3641W        W68868  42.277  19.304   3.152
 3642W        W68869  32.698  26.241  13.896
 3643W        W68870  26.556  13.072   1.239
 3644W        W68871  30.028  34.415   3.080
 3645W        W68872  35.622  42.470   4.620
 3646W        W68873  10.758  43.831   2.899
 3647W        W68874  37.029  20.011   2.123
 3648W        W68875   6.097  21.847  11.980
 3649W        W68876  42.135  35.420  14.027
 3650W        W68877  36.011  36.927   3.583
 3651W        W68878  21.259  18.631   3.267
 3652W        W68879   0.104  24.519   2.354
 3653W        W68880   8.769  21.081  12.934
 3654W        W68881  34.979  12.383   0.552
 3655W        W68882  25.739  34.375  11.176
 3656W        W68883  12.869  21.115  14.207
 3657W        W68884  32.777  17.369   5.066
 3658W        W68885  38.446   0.489   4.640
 3659W        W68886  35.609   6.824   2.358
 3660W        W68887   6.732  35.483   3.573
 3661W        W68888  29.813  44.815   2.128
 3662W        W68889  42.957  42.127   1.440
 3663W        W68890  34.017  24.416   2.716
 3664W        W68891  35.077  40.471  11.680
 3665W        W68892   4.568  14.118   0.421
 3666W        W68893  44.869   7.205  13.065
 3667W        W68894   2.843  36.318  14.925
 3668W        W68895   6.760  10.416  11.628
 3669W        W68896  40.219  19.823   0.225
 3670W        W68897  37.953  36.238  12.119
 3671W        W68898  11.700   3.782  12.122
 3672W        W68899   0.448  42.950  11.199
 3673W        W68900  44.428  20.734  11.576
 3674W        W68901  13.140  40.449  11.095
 3675W        W68902  15.094  16.302   4.525
 3676W        W68903  26.786  24.668   0.092
 3677W        W68904  27.837  30.292  10.699
 3678W        W68905  41.550  12.118  10.554
 3679W        W68906  21.479  27.415  14.323
 3680W        W68907  28.221  31.329   1.397
 3681W        W68908  41.008  15.586  13.867
 3682W        W68909  41.746  43.097   5.102
 3683W        W68910  33.441  36.617   1.804
 3684W        W68911   2.933  13.776   3.102
 3685W        W68912  10.869  22.535   1.657
 3686W        W68913  35.019  11.699  10.415
 3687W        W68914  38.548  10.914  11.108
 3688W        W68915   5.195  30.121  13.862
 3689W        W68916  29.138  38.392   2.902
 3690W        W68917  41.993  37.412   4.486
 3691W        W68918  20.918  16.060   2.781
 3692W        W68919  28.029  10.420  12.970
 3693W        W68920  25.425  30.562   4.260
 3694W        W68921  32.114  30.015  11.313
 3695W        W68922  39.940  35.608  13.424
 3696W        W68923  28.539  24.689   0.358
 3697W        W68924  42.044  11.757   0.727
 3698W        W68925  13.615  31.836   3.575
 3699W        W68926   6.144  21.144  14.800
 3700W        W68927  20.004  15.337  12.236
 3701W        W68928  19.725   7.888  12.595
 3702W        W68929  21.522  10.578   3.185
 3703W        W68930  43.080  29.240   1.319
 3704W        W68931  12.542  28.979   2.174
 3705W        W68932  14.059   8.724   0.530
 3706W        W68933  11.270  33.274   1.314
 3707W        W68934  14.159  44.583  12.067
 3708W        W68935  28.569  13.570   1.025
 3709W        W68936  27.311  32.997  12.211
 3710W        W68937   6.699  42.458  10.427
 3711W        W68938  18.325  16.095   4.591
 3712W        W68939  13.691  30.533   2.691
 3713W        W68940  19.652  23.750   0.981
 3714W        W68941  34.472  17.275  14.562
 3715W        W68942  44.901  19.426   1.608
 3716W        W68943   3.356  15.188   3.641
 3717W        W68944  16.868  32.945   0.679
 3718W        W68945  35.010  31.541   4.292
 3719W        W68946  31.992  19.100  11.087
 3720W        W68947  19.613  16.615  11.137
 3721W        W68948  27.729  34.378  10.710
 3722W        W68949   8.725  14.387   4.102
 3723W        W68950  32.918  35.510  13.495
 3724W        W68951  14.601   5.909   1.775
 3725W        W68952  33.805  31.451  14.806
 3726W        W68953   1.738  42.251   0.168
 3727W        W68954  28.021  15.495   4.913
 3728W        W68955  35.793  33.713   1.815
 3729W        W68956   7.636  13.337   3.039
 3730W        W68957  26.097  13.356   0.836
 3731W        W68958  22.688  43.051   1.772
 3732W        W68959  31.279  15.536  12.095
 3733W        W68960  41.910   3.087   2.818
 3734W        W68961  19.706  18.576   0.880
 3735W        W68962  15.431  38.415  14.024
 3736W        W68963   2.001  40.009  11.543
 3737W        W68964   1.360  30.860  11.546
 3738W        W68965  43.776  33.088   3.176
 3739W        W68966  36.303  38.305   1.421
 3740W        W68967   7.010  22.191   3.839
 3741W        W68968   8.857   8.653   1.347
 3742W        W68969   3.292  32.978   4.071
 3743W        W68970  43.288  17.276  13.955
 3744W        W68971  26.958  44.311   3.863
 3745W        W68972  30.933  37.967   1.975
 3746W        W68973   4.832  23.525   4.805
 3747W        W68974  27.230  19.500   3.717
 3748W        W68975  23.161  21.778  11.510
 3749W        W68976  38.584  35.863  11.160
 3750W        W68977  21.805  31.629  12.420
 3751W        W68978  22.688   0.706   0.827
 3752W        W68979  41.009   8.864   0.320
 3753W        W68980   1.014  43.380   2.236
 3754W        W68981  29.073  28.521   2.992
 3755W        W68982  16.061  43.851   2.146
 3756W        W68983  10.783   9.697   0.306
 3757W        W68984  40.845  28.194   1.235
 3758W        W68985   4.186  12.904  11.041
 3759W        W68986  39.816  20.609  10.655
 3760W        W68987   3.263   7.153  12.991
 3761W        W68988   3.131   7.237  14.777
 3762W        W68989   5.684  27.482   2.297
 3763W        W68990  17.930  38.986  12.802
 3764W        W68991  31.754  21.645   0.346
 3765W        W68992  12.180  30.565   4.931
 3766W        W68993  31.874   8.127   1.845
 3767W        W68994  29.642   4.845  13.016
 3768W        W68995  18.555   2.230   0.752
 3769W        W68996  27.496  10.197   2.756
 3770W        W68997  13.724  40.910  14.811
 3771W        W68998   1.281   4.225   0.537
 3772W        W68999  23.929  17.906   5.086
 3773W        W69000  44.230  24.532   3.862
 3774W        W69001  32.966  18.146   3.661
 3775W        W69002   8.116   8.396  13.365
 3776W        W69003   8.386   8.350  12.041
 3777W        W69004  28.698  24.499  14.894
 3778W        W69005  28.837  36.592  12.521
 3779W        W69006  43.881   8.870   2.703
 3780W        W69007  23.698  16.048  14.440
 3781W        W69008  34.831  43.358  12.999
 3782W        W69009  28.326  41.132   0.316
 3783W        W69010  42.293  36.339   1.493
 3784W        W69011  26.017  39.985  11.089
 3785W        W69012  14.757  40.464   0.759
 3786W        W69013  12.304   4.301  12.608
 3787W        W69014  40.383   4.083   2.771
 3788W        W69015  37.525  29.175  13.405
 3789W        W69016  41.811  11.285   1.416
 3790W        W69017  36.252   8.185  14.298
 3791W        W69018  36.250  35.582  11.583
 3792W        W69019  14.342  18.262   0.174
 3793W        W69020  37.966   8.926   1.401
 3794W        W69021  20.667  33.395  11.470
 3795W        W69022   4.626  35.952  10.877
 3796W        W69023  27.466  16.043  14.590
 3797W        W69024   8.620  19.526  11.144
 3798W        W69025   2.114  24.980   0.319
 3799W        W69026  22.717   7.787   0.857
 3800W        W69027  22.622  32.431  14.861
 3801W        W69028   5.774   9.409   4.342
 3802W        W69029   7.061  11.541   1.377
 3803W        W69030   5.767  43.921  13.854
 3804W        W69031  36.857  34.020  13.108
 3805W        W69032   6.290   3.721   0.445
 3806W        W69033  11.792  38.807   1.825
 3807W        W69034  13.886   9.202   0.431
 3808W        W69035  27.192   0.311  13.971
 3809W        W69036  31.987   0.648   4.449
 3810W        W69037   0.318  34.222   3.821
 3811W        W69038  11.213  25.218  11.970
 3812W        W69039  15.649   5.399  13.850
 3813W        W69040   4.967  10.894   3.814
 3814W        W69041   9.417   4.185  12.011
 3815W        W69042  32.839  26.097  13.421
 3816W        W69043   3.248  14.998   4.952
 3817W        W69044  23.727  30.532   4.136
 3818W        W69045   5.593  10.633   3.646
 3819W        W69046   8.311  18.327   3.627
 3820W        W69047  41.808   4.867   4.709
 3821W        W69048   2.796  11.421   2.020
 3822W        W69049  31.708   4.492   4.477
 3823W        W69050  20.563   5.114   3.257
 3824W        W69051  26.756  25.446  13.387
 3825W        W69052   6.727  43.133  14.745
 3826W        W69053   3.830  31.702   0.028
 3827W        W69054  22.102  34.847   3.152
 3828W        W69055  37.270  36.420  10.690
 3829W        W69056  38.858  27.024   0.866
 3830W        W69057  33.975  36.877  13.867
 3831W        W69058   9.177  31.063  14.387
 3832W        W69059  43.767   9.721  10.872
 3833W        W69060  14.170   0.351   4.894
 3834W        W69061   1.475  25.574   1.218
 3835W        W69062  21.480  22.660  11.177
 3836W        W69063   9.755  10.196   2.898
 3837W        W69064   4.886  25.066   2.618
 3838W        W69065  43.916  40.485  11.553
 3839W        W69066  16.722  17.804   3.741
 3840W        W69067  33.827  24.599  12.520
 3841W        W69068  30.463  39.043  14.120
 3842W        W69069   9.049  32.824  12.801
 3843W        W69070  23.472  38.115   1.187
 3844W        W69071  30.610  41.832   1.937
 3845W        W69072   0.173  37.966  13.422
 3846W        W69073   4.022  13.652   2.801
 3847W        W69074  23.574  44.020  11.012
 3848W        W69075  21.053  28.166  11.586
 3849W        W69076  13.184  26.090   2.890
 3850W        W69077  41.813   8.979   0.650
 3851W        W69078  12.090   3.310  10.653
 3852W        W69079  40.345  16.846  11.494
 3853W        W69080  33.411  13.303  14.843
 3854W        W69081  33.652  34.905  12.081
 3855W        W69082  41.023  16.912   4.093
 3856W        W69083  13.547  22.001   2.748
 3857W        W69084  21.712  39.837  11.618
 3858W        W69085  26.936  44.737  12.967
 3859W        W69086   6.310  42.314   3.678
 3860W        W69087  18.007  37.721  11.168
 3861W        W69088  26.671   5.829   0.921
 3862W        W69089  13.240  13.783   2.692
 3863W        W69090   3.771  16.410  13.850
 3864W        W69091  43.922  37.300   0.889
 3865W        W69092  14.357  15.361  14.058
 3866W        W69093  18.266  18.740   1.109
 3867W        W69094   3.971  41.760  14.424
 3868W        W69095   1.953  34.878  14.845
 3869W        W69096   6.776   4.245  14.937
 3870W        W69097  25.160   7.831  12.895
 3871W        W69098  37.853  28.901  14.399
 3872W        W69099  20.585  24.216   2.787
 3873W        W69100   6.501  40.404  12.358
 3874W        W69101  30.214   8.104   2.550
 3875W        W69102  23.179  22.600  11.457
 3876W        W69103  36.956   6.417   4.419
 3877W        W69104  34.862  15.296  12.463
 3878W        W69105  41.768   1.602   1.198
 3879W        W69106  32.415  36.817  12.090
 3880W        W69107  13.535  11.924  11.088
 3881W        W69108  28.496  38.106   5.391
 3882W        W69109  37.054  38.475   0.286
 3883W        W69110  41.611  42.470   3.759
 3884W        W69111  25.656   4.890  13.761
 3885W        W69112  12.813  37.552   0.794
 3886W        W69113  38.407   1.900   4.911
 3887W        W69114   8.220  33.194   0.895
 3888W        W69115   2.379   1.396   1.994
 3889W        W69116   0.920  39.780   3.100
 3890W        W69117   4.869  17.234  11.925
 3891W        W69118  39.341  13.246   4.662
 3892W        W69119  16.375   6.175   0.010
 3893W        W69120  33.352  30.684  14.399
 3894W        W69121  29.320  33.799  14.278
 3895W        W69122  18.232  11.607  12.864
 3896W        W69123  44.232  10.767   2.382
 3897W        W69124  14.064  13.073  14.691
 3898W        W69125   1.002   4.249  14.509
 3899W        W69126  28.648  44.802  10.751
 3900W        W69127  25.006   1.446   1.127
 3901W        W69128  16.010  44.203   4.306
 3902W        W69129  14.639   0.822  11.202
 3903W        W69130  12.778  24.447   4.745
 3904W        W69131  27.577  11.895   3.273
 3905W        W69132  36.151  33.189  14.981
 3906W        W69133  25.815  42.373  11.903
 3907W        W69134  16.350  36.444   3.066
 3908W        W69135   6.445  31.538  11.455
 3909W        W69136  32.178  25.718  12.380
 3910W        W69137  21.069   5.413  14.773
 3911W        W69138   7.702   9.533  10.915
 3912W        W69139  37.180  22.858   5.146
 3913W        W69140  30.197  35.434   4.283
 3914W        W69141  22.710  11.281  13.837
 3915W        W69142  13.760  19.035   3.120
 3916W        W69143  17.116  39.683   2.267
 3917W        W69144  12.864  33.618   3.103
 3918W        W69145  30.376  30.627   1.214
 3919W        W69146  25.164   7.817  14.023
 3920W        W69147  44.763  28.566  10.988
 3921W        W69148  32.455   0.013  13.862
 3922W        W69149  25.757  21.752  14.177
 3923W        W69150  30.302  37.402   1.910
 3924W        W69151  36.328  22.065   0.749
 3925W        W69152  17.642  39.636   1.450
 3926W        W69153  24.251  30.036   1.799
 3927W        W69154  43.095  26.566   3.770
 3928W        W69155  25.402   7.530   0.895
 3929W        W69156  15.635  19.146   3.674
 3930W        W69157  26.061   4.646   4.521
 3931W        W69158  19.052  41.687  12.461
 3932W        W69159  24.236   8.354  11.224
 3933W        W69160  19.840  13.489  14.518
 3934W        W69161  39.727   6.784  13.938
 3935W        W69162   7.873  31.887  11.284
 3936W        W69163  17.137  18.287  11.730
 3937W        W69164  43.776  13.817  13.885
 3938W        W69165   1.999  22.527  13.614
 3939W        W69166  28.604  36.378   4.684
 3940W        W69167  26.431  29.536  14.882
 3941W        W69168  38.809  13.921  14.932
 3942W        W69169  38.243  36.698  10.825
 3943W        W69170  42.009  24.620  10.700
 3944W        W69171   2.048  40.420   3.377
 3945W        W69172   5.385  31.302  14.775
 3946W        W69173  40.234  40.512   4.699
 3947W        W69174   2.193  13.604   1.417
 3948W        W69175  28.905  24.988  14.643
 3949W        W69176  10.737  13.413   0.754
 3950W        W69177  38.122   0.400   3.735
 3951W        W69178  15.089  13.984  11.180
 3952W        W69179   9.362  15.210  13.882
 3953W        W69180  25.583  36.552  12.061
 3954W        W69181  18.427  29.476  10.825
 3955W        W69182  44.848  42.531  13.275
 3956W        W69183  12.816  29.352  12.124
 3957W        W69184  24.918  23.357  11.249
 3958W        W69185   0.095   4.084  10.873
 3959W        W69186   0.913   1.719  14.463
 3960W        W69187  15.748   6.466  12.352
 3961W        W69188  22.475  35.310  11.155
 3962W        W69189  31.716  24.266  11.105
 3963W        W69190   2.925  34.550   4.295
 3964W        W69191  38.827  14.174  10.949
 3965W        W69192  28.638  18.154   0.642
 3966W        W69193  18.212  16.542  12.146
 3967W        W69194  20.004  23.193  13.888
 3968W        W69195  13.528  23.526   3.931
 3969W        W69196  38.677   7.336  11.940
 3970W        W69197  12.628   6.968  13.184
 3971W        W69198   5.727  14.380  10.742
 3972W        W69199   4.514  13.202   3.611
 3973W        W69200   5.859  42.236   1.568
 3974W        W69201   4.403  38.532   1.303
 3975W        W69202  21.428  25.149   0.049
 3976W        W69203  15.813  26.021   2.210
 3977W        W69204   5.289  20.087   2.991
 3978W        W69205  32.599  25.552  12.138
 3979W        W69206  20.599  40.477   1.957
 3980W        W69207  39.930  25.591  10.917
 3981W        W69208   8.785   4.447   3.403
 3982W        W69209  16.495  14.085  14.801
 3983W        W69210  41.545  32.102  11.111
 3984W        W69211  31.733  18.089  11.187
 3985W        W69212  38.001  34.909   2.729
 3986W        W69213  39.303  25.490  10.285
 3987W        W69214   2.501   7.843   4.584
 3988W        W69215  13.439   9.873  13.603
 3989W        W69216  40.827   8.440   1.444
 3990W        W69217  18.951   1.773  13.645
 3991W        W69218  37.167  37.345  12.905
 3992W        W69219  36.348   7.663  12.330
 3993W        W69220   9.818  40.324   2.172
 3994W        W69221  38.340  27.074   0.845
 3995W        W69222   8.453  42.996  14.716
 3996W        W69223  17.222  18.110  10.909
 3997W        W69224  12.725   0.485   0.014
 3998W        W69225  41.949   7.182   1.631
 3999W        W69226  38.837  17.480   4.240
 4000W        W69227  32.016   1.671  11.328
 4001W        W69228  14.758   6.427  13.130
 4002W        W69229   3.889  24.163   2.283
 4003W        W69230  13.361  42.389   3.206
 4004W        W69231  37.880  28.451   0.853
 4005W        W69232  14.594   5.673   4.798
 4006W        W69233  17.229  29.019  10.822
 4007W        W69234  11.459   4.304  11.922
 4008W        W69235  17.184  18.120   1.885
 4009W        W69236  29.153  22.656  13.838
 4010W        W69237  40.005  27.193  14.551
 4011W        W69238   3.369  23.756   0.903
 4012W        W69239  39.465  22.525   3.829
 4013W        W69240  34.962  12.111   2.840
 4014W        W69241  11.277  11.799  11.427
 4015W        W69242  25.942  29.954  11.541
 4016W        W69243  37.521  23.960   4.999
 4017W        W69244  15.665   7.023   0.495
 4018W        W69245  16.617  44.208  11.861
 4019W        W69246  32.635  24.476   3.782
 4020W        W69247  28.860  20.511  14.987
 4021W        W69248  31.945  18.182   4.520
 4022W        W69249  13.472  22.813  11.712
 4023W        W69250  41.917  18.696  12.110
 4024W        W69251  10.259  14.586  13.037
 4025W        W69252  11.667  21.471  13.546
 4026W        W69253  10.212  22.248   0.318
 4027W        W69254  14.156  42.763  12.560
 4028W        W69255   5.970  29.063  12.939
 4029W        W69256  44.537   3.305  12.917
 4030W        W69257  14.315  28.478   0.035
 4031W        W69258  23.003   9.202  13.569
 4032W        W69259  31.498   7.736  12.996
 4033W        W69260   7.162   7.660  12.872
 4034W        W69261  10.931  14.151  11.225
 4035W        W69262  26.972  21.640  14.782
 4036W        W69263  42.358  28.127   1.267
 4037W        W69264  22.708  24.156  12.066
 4038W        W69265   8.646  15.526  14.850
 4039W        W69266   1.136  20.852  14.980
 4040W        W69267   9.854   0.806  11.655
 4041W        W69268  15.870  29.001   3.291
 4042W        W69269  42.984  33.092   1.663
 4043W        W69270  37.636  43.090  11.422
 4044W        W69271  23.565  35.043  10.699
 4045W        W69272  43.387  36.355  14.322
 4046W        W69273  36.452  25.348  13.616
 4047W        W69274   2.897  27.707   2.197
 4048W        W69275  33.904  24.455  13.328
 4049W        W69276  24.262  34.831  11.662
 4050W        W69277   1.424  30.560  13.560
 4051W        W69278  25.070  20.569  10.984
 4052W        W69279  32.475  42.202  14.452
 4053W        W69280  35.313  14.309  12.534
 4054W        W69281  39.629  34.893  12.945
 4055W        W69282  29.589  24.494  13.955
 4056W        W69283  42.905  43.302   3.177
 4057W        W69284   5.214  42.585  14.499
 4058W        W69285  36.622  19.792   3.591
 4059W        W69286  12.210  11.117   4.087
 4060W        W69287   1.902   5.526  13.920
 4061W        W69288  44.549   5.852  11.272
 4062W        W69289  35.542   9.335   3.862
 4063W        W69290  39.772   3.352  12.028
 4064W        W69291  40.520  15.410  12.176
 4065W        W69292  12.594  28.335  11.211
 4066W        W69293  41.823  37.702   4.099
 4067W        W69294  18.396  13.000   4.645
 4068W        W69295  25.386  35.704  10.787
 4069W        W69296  42.939  29.467   0.754
 4070W        W69297   9.353  19.740   0.721
 4071W        W69298  13.127  24.334   3.677
 4072W        W69299   9.710  21.708  13.395
 4073W        W69300  12.733  30.055   3.342
 4074W        W69301  24.388  26.116  11.290
 4075W        W69302  35.859  14.430  11.994
 4076W        W69303  43.846   1.331  13.117
 4077W        W69304  25.985  34.766   1.140
 4078W        W69305  18.666  12.534  13.444
 4079W        W69306  24.905  41.459   1.394
 4080W        W69307  36.576   4.712  14.430
 4081W        W69308  40.857  34.667  13.425
 4082W        W69309  13.425   2.267  12.129
 4083W        W69310  18.379  33.362  10.316
 4084W        W69311  19.121  18.789   1.677
 4085W        W69312   7.854  21.513   1.755
 4086W        W69313  27.021  20.935  11.161
 4087W        W69314  21.730   3.025  12.983
 4088W        W69315  11.747  43.946  14.334
 4089W        W69316   9.730  29.707  13.601
 4090W        W69317  41.572  10.894  12.460
 4091W        W69318  13.187  37.464   4.967
 4092W        W69319  21.660  27.388   3.375
 4093W        W69320  10.164   2.519  12.472
 4094W        W69321   1.435  43.968  13.356
 4095W        W69322   6.120  10.314  14.334
 4096W        W69323  13.102  41.173   4.226
 4097W        W69324  40.764  29.998   4.004
 4098W        W69325   6.847   6.274   3.699
 4099W        W69326  20.026  39.995  12.984
 4100W        W69327  32.101   2.162   2.716
 4101W        W69328  38.936   3.634   3.979
 4102W        W69329  40.939  43.545  14.260
 4103W        W69330  19.763  29.899  14.776
 4104W        W69331   8.245  24.959  11.122
 4105W        W69332  37.793  13.809   0.715
 4106W        W69333  31.054  21.218   4.574
 4107W        W69334   5.919  20.677   0.301
 4108W        W69335  42.018  42.381   4.317
 4109W        W69336  22.018   7.150  14.502
 4110W        W69337  21.488  14.680   1.752
 4111W        W69338  42.427  26.896  10.703
 4112W        W69339  18.626   9.484  11.627
 4113W        W69340  40.534  15.612   3.108
 4114W        W69341  32.025  28.559  13.786
 4115W        W69342   9.169   8.515   2.931
 4116W        W69343  33.841  24.876  14.232
 4117W        W69344  32.649  38.814   4.593
 4118W        W69345  23.299   5.298  12.080
 4119W        W69346  41.003  20.459  11.422
 4120W        W69347  44.858   5.724   4.599
 4121W        W69348  40.991   9.822  13.368
 4122W        W69349  10.650  10.040  14.914
 4123W        W69350  26.735   0.089  10.511
 4124W        W69351  23.458  33.523   0.411
 4125W        W69352  19.239  23.409  12.529
 4126W        W69353  10.290   7.499   4.117
 4127W        W69354   5.969  39.971   4.118
 4128W        W69355  29.058  40.233  14.653
 4129W        W69356  21.530   1.435  12.013
 4130W        W69357   5.201  42.495   2.129
 4131W        W69358   6.755  28.155  13.343
 4132W        W69359  24.620  30.691   4.012
 4133W        W69360  24.158   8.120  14.435
 4134W        W69361   3.273  12.283   0.765
 4135W        W69362  12.576   8.314   0.519
 4136W        W69363  21.870  39.448   3.847
 4137W        W69364  13.200  41.407  14.116
 4138W        W69365  27.724  14.365   1.704
 4139W        W69366  17.170  37.154  11.175
 4140W        W69367   4.339  35.271   4.615
 4141W        W69368  19.844  17.314   3.646
 4142W        W69369  18.785  39.792   0.454
 4143W        W69370   5.416  31.411  12.663
 4144W        W69371   6.926  28.229   4.663
 4145W        W69372  25.188  24.772  13.268
 4146W        W69373  42.329  26.744   0.907
 4147W        W69374  20.353  21.337  10.815
 4148W        W69375  26.065  40.314   1.707
 4149W        W69376  27.974  28.989   3.080
 4150W        W69377  18.732  19.342  12.126
 4151W        W69378  11.198  11.785  13.425
 4152W        W69379  17.662  31.484  12.973
 4153W        W69380  42.332  33.151  11.322
 4154W        W69381  18.257  19.160   4.802
 4155W        W69382  16.437  26.201   2.682
 4156W        W69383  10.475  44.497   2.776
 4157W        W69384  25.169  30.165   1.199
 4158W        W69385  25.972  10.772   3.775
 4159W        W69386   7.438  38.437   0.228
 4160W        W69387  22.524  14.825   1.670
 4161W        W69388  44.451   9.897   0.922
 4162W        W69389  14.596  43.942   2.659
 4163W        W69390  27.248   2.643   5.305
 4164W        W69391  38.800   9.926   2.413
 4165W        W69392   8.340   2.476  13.966
 4166W        W69393  38.519   2.853  10.367
 4167W        W69394  37.428  20.289   0.366
 4168W        W69395  23.426   8.727  12.093
 4169W        W69396   4.967  22.515   4.733
 4170W        W69397  44.234  42.903  14.899
 4171W        W69398  10.147   3.424   4.838
 4172W        W69399   7.161  29.409   1.897
 4173W        W69400  16.053  32.124  13.374
 4174W        W69401  17.836  33.531  10.568
 4175W        W69402  14.177  23.243  12.852
 4176W        W69403   9.043  43.636  12.856
 4177W        W69404   1.670  35.608  13.670
 4178W        W69405  28.458  40.715  11.108
 4179W        W69406  21.460  22.268   9.869
 4180W        W69407  14.386   6.684  11.962
 4181W        W69408  13.703  29.919   2.380
 4182W        W69409   0.487  34.118  13.840
 4183W        W69410  22.678   3.503   0.734
 4184W        W69411   9.712  10.984  12.928
 4185W        W69412   2.615  31.989  13.771
 4186W        W69413  28.948  43.942  12.120
 4187W        W69414  43.910   2.221  14.432
 4188W        W69415  18.189  22.066  14.468
 4189W        W69416   0.706   4.923   0.678
 4190W        W69417  23.314  20.580   0.723
 4191W        W69418   2.253  25.774  13.484
 4192W        W69419  35.597  31.629  11.728
 4193W        W69420  38.386  27.159   4.267
 4194W        W69421  16.165  11.595   0.483
 4195W        W69422   9.176   0.058   3.609
 4196W        W69423  23.526  40.571   2.172
 4197W        W69424  15.539  15.999   2.208
 4198W        W69425  15.650   7.436   1.820
 4199W        W69426   1.756  44.367  11.877
 4200W        W69427  34.867  25.270   4.550
 4201W        W69428   5.425  14.719  11.597
 4202W        W69429   0.478  11.797   1.835
 4203W        W69430  39.974  28.053  12.492
 4204W        W69431  38.940  27.500   3.253
 4205W        W69432  15.863  44.231   0.613
 4206W        W69433  18.585  23.492   3.942
 4207W        W69434   3.787   2.484  10.261
 4208W        W69435  18.623  16.422  12.855
 4209W        W69436  23.058  40.587   1.273
 4210W        W69437   4.506   0.829  14.877
 4211W        W69438  15.578  12.746   2.616
 4212W        W69439  25.673  19.543   4.216
 4213W        W69440  38.976  40.834  11.752
 4214W        W69441  44.920  14.684  10.697
 4215W        W69442  40.053   6.779   0.803
 4216W        W69443  41.778  42.961  12.433
 4217W        W69444  13.973  33.569   5.103
 4218W        W69445  42.763  32.935   1.208
 4219W        W69446  19.840  19.317   2.438
 4220W        W69447  28.788   7.258   0.903
 4221W        W69448  17.688  15.804  14.961
 4222W        W69449  34.102   3.963  13.374
 4223W        W69450  31.222  26.481  14.376
 4224W        W69451  19.688  43.584   1.145
 4225W        W69452  10.352   3.384   3.850
 4226W        W69453  20.323  28.743  13.348
 4227W        W69454  41.369   6.174  12.435
 4228W        W69455   5.836  26.884  10.692
 4229W        W69456  13.975  41.486  12.628
 4230W        W69457  24.238  21.231   1.791
 4231W        W69458   8.408  43.781   4.421
 4232W        W69459  32.436  18.175   4.284
 4233W        W69460  18.617  13.371  11.112
 4234W        W69461  26.533  34.996  11.501
 4235W        W69462  39.246  28.143   0.841
 4236W        W69463  35.567   0.727   4.114
 4237W        W69464  23.974   5.770  14.345
 4238W        W69465  21.329  37.398   1.304
 4239W        W69466  42.510   7.555  12.128
 4240W        W69467  10.427  25.210   0.869
 4241W        W69468  36.395  20.690   3.581
 4242W        W69469  29.579   4.742   0.253
 4243W        W69470  16.712  11.368  14.540
 4244W        W69471  36.241  15.717  13.407
 4245W        W69472  11.093   5.747   2.441
 4246W        W69473  17.624  27.500   2.008
 4247W        W69474   3.204  30.743   0.447
 4248W        W69475  38.729   4.267   9.964
 4249W        W69476  43.383  39.079  13.390
 4250W        W69477  25.082   3.162  14.931
 4251W        W69478  11.826   2.649   0.937
 4252W        W69479  24.891   9.093  11.090
 4253W        W69480   3.334  40.377  11.660
 4254W        W69481  24.168   0.936  11.776
 4255W        W69482  41.106  43.018  12.092
 4256W        W69483  35.118  27.271   1.640
 4257W        W69484  10.262   4.533   4.683
 4258W        W69485  24.965  35.515  13.482
 4259W        W69486  37.889  27.346  11.082
 4260W        W69487  41.979  42.387   2.917
 4261W        W69488  25.513  14.555  11.330
 4262W        W69489   9.466  15.008   1.736
 4263W        W69490  31.801  21.639  11.839
 4264W        W69491  18.129   4.772  14.832
 4265W        W69492  18.712  39.279  13.909
 4266W        W69493  25.743  15.579  12.425
 4267W        W69494  29.283  26.523   1.522
 4268W        W69495  24.449  27.640  11.599
 4269W        W69496  36.267   3.568  14.104
 4270W        W69497   6.392  38.888   0.941
 4271W        W69498  24.517  37.156   0.078
 4272W        W69499   1.680  22.003  11.109
 4273W        W69500   2.882  12.686  14.683
 4274W        W69501  29.151   9.429  11.176
 4275W        W69502  20.732  43.625  11.860
 4276W        W69503  30.120   9.429  12.072
 4277W        W69504   5.286  14.882   0.308
 4278W        W69505  44.752  18.621   1.159
 4279W        W69506   5.933  17.636  12.072
 4280W        W69507  13.287   2.776  12.529
 4281W        W69508  37.294   6.795   4.488
 4282W        W69509  42.811  26.711  11.079
 4283W        W69510   9.489  28.336  13.508
 4284W        W69511  43.245  33.406  10.422
 4285W        W69512  11.231   5.875   0.494
 4286W        W69513  42.813   9.961  13.071
 4287W        W69514  12.753  17.027  13.860
 4288W        W69515  18.784   9.067   2.595
 4289W        W69516  16.168  33.322   2.048
 4290W        W69517   3.831  28.495  12.922
 4291W        W69518  38.282  14.342  12.388
 4292W        W69519  40.788  30.441  11.080
 4293W        W69520   7.406  42.947   3.385
 4294W        W69521  32.129  20.044  12.676
 4295W        W69522  15.653  39.732  14.448
 4296W        W69523  43.260   1.164   0.979
 4297W        W69524   4.322  13.457  11.518
 4298W        W69525  15.392  24.208   3.072
 4299W        W69526  36.323  18.386  13.894
 4300W        W69527  22.260  27.078  12.957
 4301W        W69528  27.605  17.493  10.746
 4302W        W69529  15.148   5.315  14.886
 4303W        W69530  36.051  44.369  11.626
 4304W        W69531   4.688  12.469   2.659
 4305W        W69532   7.327  20.688   2.203
 4306W        W69533  21.708   6.649  14.922
 4307W        W69534  44.388  32.507  14.166
 4308W        W69535  26.451   3.556  13.006
 4309W        W69536  40.828  42.907  11.231
 4310W        W69537   8.853  38.846  14.545
 4311W        W69538  35.806  16.330  12.413
 4312W        W69539   5.672   6.426   2.397
 4313W        W69540  28.703   6.596   2.457
 4314W        W69541  37.574   0.038   2.411
 4315W        W69542  32.941   4.254   3.719
 4316W        W69543   6.664  40.256  11.384
 4317W        W69544   7.714  16.804  10.661
 4318W        W69545  17.594  41.343   1.280
 4319W        W69546  17.014  12.070   3.221
 4320W        W69547  39.871  10.922   0.908
 4321W        W69548  41.998  39.020   3.100
 4322W        W69549  17.821  33.118  12.677
 4323W        W69550   2.687  42.203   3.190
 4324W        W69551  30.213   2.355  10.797
 4325W        W69552  18.632  41.557  14.540
 4326W        W69553  34.283  19.083  14.771
 4327W        W69554   9.194   1.087  13.470
 4328W        W69555  14.687   5.582   3.676
 4329W        W69556  17.327  20.197  12.667
 4330W        W69557  15.183  43.697   1.229
 4331W        W69558  17.383   3.531   0.757
 4332W        W69559  31.945  34.788   4.986
 4333W        W69560  19.755  32.536  12.434
 4334W        W69561  41.412   9.440  11.588
 4335W        W69562  16.615  20.120  12.543
 4336W        W69563  42.438  41.772  14.379
 4337W        W69564  17.071  30.811  14.055
 4338W        W69565  32.962  31.015   4.678
 4339W        W69566  28.054  39.066  14.026
 4340W        W69567  29.476  36.804   2.339
 4341W        W69568   8.737  19.556   2.125
 4342W        W69569  43.785  36.401  13.946
 4343W        W69570  11.614  41.828  14.396
 4344W        W69571  31.133  25.992  12.824
 4345W        W69572   0.287  16.481   2.838
 4346W        W69573  40.306  14.904   4.052
 4347W        W69574  14.262  24.750  12.912
 4348W        W69575  27.171  21.211   2.095
 4349W        W69576  43.735   1.064   2.673
 4350W        W69577  38.864   7.163   3.931
 4351W        W69578   7.974  26.323   1.620
 4352W        W69579  35.568  39.686  10.138
 4353W        W69580  40.548  14.329  11.496
 4354W        W69581  24.941  12.467  12.525
 4355W        W69582  12.518  25.281  12.594
 4356W        W69583   2.891  42.612  10.695
 4357W        W69584   1.227  30.557  12.531
 4358W        W69585  34.812  31.526   2.655
 4359W        W69586  35.101  38.404   2.892
 4360W        W69587  22.813  31.519  13.469
 4361W        W69588  17.698  40.071   3.782
 4362W        W69589  12.781  24.959   2.312
 4363W        W69590  13.096  25.993   3.388
 4364W        W69591  42.877  15.642   4.002
 4365W        W69592   0.600   8.217   3.848
 4366W        W69593  12.657  24.036   2.616
 4367W        W69594  24.947  13.361   5.003
 4368W        W69595   8.971   0.531  11.112
 4369W        W69596   3.510  35.836   4.982
 4370W        W69597  34.133  33.499  14.535
 4371W        W69598  22.237  32.227   2.869
 4372W        W69599  22.270   5.261  12.880
 4373W        W69600  11.807  43.334   4.202
 4374W        W69601  29.684  22.513   2.836
 4375W        W69602   2.244  11.807   1.398
 4376W        W69603   6.716  35.004   3.841
 4377W        W69604  39.430  19.251   2.586
 4378W        W69605  41.898   6.176  12.567
 4379W        W69606  17.972  25.719  13.997
 4380W        W69607  39.646  20.699   4.056
 4381W        W69608   0.645  26.265  11.522
 4382W        W69609  40.527  17.574  12.197
 4383W        W69610  35.553  27.930  11.172
 4384W        W69611   4.708  22.205   0.768
 4385W        W69612  36.289  15.620  14.836
 4386W        W69613  42.328  33.932   1.998
 4387W        W69614   8.909  27.510  13.471
 4388W        W69615  29.507   2.748  14.470
 4389W        W69616  36.303  15.609  11.204
 4390W        W69617   9.737  12.558   1.934
 4391W        W69618  33.098  11.289   1.398
 4392W        W69619   0.541  32.032   1.180
 4393W        W69620  10.959  17.940   4.704
 4394W        W69621   6.806   2.201  10.527
 4395W        W69622  44.590   0.946   1.806
 4396W        W69623  16.816   5.090  14.425
 4397W        W69624   4.410  27.803  10.266
 4398W        W69625  22.753  37.639   0.480
 4399W        W69626  12.528  31.636   1.280
 4400W        W69627  10.414  32.491  12.579
 4401W        W69628  23.043  19.222  11.113
 4402W        W69629  10.484   4.185   0.757
 4403W        W69630  29.626   5.544  12.009
 4404W        W69631  29.733  35.984   1.757
 4405W        W69632  13.845   6.698   0.001
 4406W        W69633  20.220  17.268  11.665
 4407W        W69634  22.452  40.103  11.221
 4408W        W69635  14.680  34.372  12.495
 4409W        W69636  14.728   2.383   4.834
 4410W        W69637   9.386  22.542  13.364
 4411W        W69638  42.738  31.819  12.397
 4412W        W69639  31.489   4.482  10.843
 4413W        W69640  32.289  33.579  10.088
 4414W        W69641  14.571  42.975   2.962
 4415W        W69642   9.687  32.935  12.236
 4416W        W69643  27.438   0.857  14.060
 4417W        W69644  20.060  40.510  14.438
 4418W        W69645  20.940  21.889   0.914
 4419W        W69646  41.973  11.140   4.602
 4420W        W69647  19.772   9.246   1.399
 4421W        W69648  25.251  14.352   5.015
 4422W        W69649  31.036   5.283  14.985
 4423W        W69650  18.641  35.231  10.657
 4424W        W69651  22.606  27.178   0.137
 4425W        W69652   9.506  24.710  13.466
 4426W        W69653  36.475   1.356  14.188
 4427W        W69654  13.545  24.389   2.488
 4428W        W69655   4.701  22.839  14.912
 4429W        W69656   3.400   2.404   4.791
 4430W        W69657  30.531  17.965   2.208
 4431W        W69658  27.088  17.340   0.894
 4432W        W69659  39.306  38.857  13.397
 4433W        W69660  39.769  12.347   0.817
 4434W        W69661  19.500  36.882  11.592
 4435W        W69662  26.214  30.155   4.264
 4436W        W69663   5.735  25.546   1.844
 4437W        W69664  40.787  19.695  14.516
 4438W        W69665   9.134  23.550  13.973
 4439W        W69666   8.427  37.458   0.647
 4440W        W69667  34.443  25.712   5.304
 4441W        W69668  12.120  25.712   4.534
 4442W        W69669  33.353  44.859   2.450
 4443W        W69670   3.570  21.704  14.418
 4444W        W69671  35.523  21.005   1.136
 4445W        W69672  18.244  10.196   2.259
 4446W        W69673  35.945   5.555  10.047
 4447W        W69674  35.587  12.600   4.366
 4448W        W69675   1.504  17.253   1.917
 4449W        W69676  23.941  27.009  11.144
 4450W        W69677  32.860   8.027   3.089
 4451W        W69678  23.699  18.698  14.637
 4452W        W69679  32.123  10.273  11.595
 4453W        W69680   9.884  36.531   5.015
 4454W        W69681   7.625  22.353   5.177
 4455W        W69682   7.780  40.729   1.640
 4456W        W69683   2.429   7.054  12.555
 4457W        W69684  11.763  31.768   3.193
 4458W        W69685  19.990  22.062   1.804
 4459W        W69686  26.921  31.682  10.526
 4460W        W69687  18.514   2.985  13.014
 4461W        W69688  14.892  11.437   0.918
 4462W        W69689  29.146  39.961  12.426
 4463W        W69690  43.355   8.905   1.722
 4464W        W69691   8.654  35.648   2.230
 4465W        W69692   1.370  37.924  12.948
 4466W        W69693   8.311  20.954  14.037
 4467W        W69694  28.981  15.673  11.218
 4468W        W69695  36.357  28.673   3.316
 4469W        W69696   6.167  33.219   1.445
 4470W        W69697  40.338  31.881   1.988
 4471W        W69698  26.769   9.788  12.570
 4472W        W69699   9.612  43.278  13.326
 4473W        W69700  11.606  41.328   3.383
 4474W        W69701  11.297  26.737   0.611
 4475W        W69702  35.424  28.493  12.398
 4476W        W69703   8.093  13.710   9.836
 4477W        W69704   9.455  35.346  12.629
 4478W        W69705  25.007  26.617  12.376
 4479W        W69706  25.726  16.546  11.139
 4480W        W69707  34.506   1.379   3.645
 4481W        W69708  31.633  19.191   4.146
 4482W        W69709  38.403   7.126   1.156
 4483W        W69710  37.382  25.130  12.942
 4484W        W69711  34.514  25.531  10.740
 4485W        W69712  12.621  16.334   2.146
 4486W        W69713  31.894  41.336   3.069
 4487W        W69714  38.999  22.738   3.960
 4488W        W69715  33.716  12.066  13.938
 4489W        W69716  26.109   6.431   0.893
 4490W        W69717  44.797   8.952   2.831
 4491W        W69718  22.199  30.663   3.848
 4492W        W69719  22.932   4.886  12.073
 4493W        W69720  33.985   3.458  10.426
 4494W        W69721  26.710  16.193  11.292
 4495W        W69722   2.883  32.427   3.544
 4496W        W69723  40.125  21.196   0.288
 4497W        W69724  44.290  10.343  13.140
 4498W        W69725  34.332   2.676   2.258
 4499W        W69726  11.134  11.902  12.309
 4500W        W69727   1.459  29.329   3.215
 4501W        W69728   3.527   8.174   3.569
 4502W        W69729   2.792  20.309  12.550
 4503W        W69730   8.723  11.915   0.313
 4504W        W69731  40.577   7.379   5.316
 4505W        W69732  24.021  43.917  13.299
 4506W        W69733  37.439  36.183  12.017
 4507W        W69734  21.584  28.972  10.621
 4508W        W69735  39.870   7.673   3.115
 4509W        W69736  12.227  14.336  12.459
 4510W        W69737  13.307  22.640  13.692
 4511W        W69738  31.758  12.224   4.940
 4512W        W69739  34.893  31.077   2.423
 4513W        W69740  11.158  29.549   1.741
 4514W        W69741  29.069  21.179   0.640
 4515W        W69742  14.290  23.191  13.686
 4516W        W69743  18.257  12.802  13.545
 4517W        W69744   2.718  30.734   0.304
 4518W        W69745  18.184   8.765   0.282
 4519W        W69746   2.956  28.259  13.534
 4520W        W69747  33.864  42.262  12.666
 4521W        W69748  35.077   2.645   1.747
 4522W        W69749   0.422  13.086   3.178
 4523W        W69750  29.364  39.371  10.978
 4524W        W69751  29.056  41.522   0.328
 4525W        W69752  20.709  32.569  13.389
 4526W        W69753  34.351  25.572   4.369
 4527W        W69754  17.832  44.962  14.731
 4528W        W69755  40.579   5.967   2.280
 4529W        W69756  39.814  15.604   3.688
 4530W        W69757  43.063  12.081  14.872
 4531W        W69758  40.030  14.810  13.771
 4532W        W69759  16.817   0.244   2.981
 4533W        W69760  29.973  22.172   4.607
 4534W        W69761   4.659   3.745   4.714
 4535W        W69762  40.009  38.001   2.707
 4536W        W69763   3.906  15.105   0.492
 4537W        W69764  44.511  22.149  12.187
 4538W        W69765  27.724   9.220  13.969
 4539W        W69766   4.512  10.581   1.003
 4540W        W69767  40.920   6.097  11.654
 4541W        W69768  36.901  13.447   0.333
 4542W        W69769  22.506  23.167   2.917
 4543W        W69770   1.333  16.774   2.339
 4544W        W69771  15.567  16.407  14.473
 4545W        W69772  38.161  44.865   1.333
 4546W        W69773  39.266  40.913   3.670
 4547W        W69774   9.382  21.557   4.450
 4548W        W69775  34.572  27.237   0.406
 4549W        W69776  11.930  24.514   0.523
 4550W        W69777  19.206  13.397   2.417
 4551W        W69778  29.634  43.447  12.577
 4552W        W69779  44.492  21.569  12.926
 4553W        W69780  14.285  16.417   3.413
 4554W        W69781  16.271  42.423   1.344
 4555W        W69782  26.114  41.791  14.387
 4556W        W69783   3.466  37.562  10.892
 4557W        W69784  25.497  13.178   1.807
 4558W        W69785  21.044  32.490   2.448
 4559W        W69786  20.266   7.842   3.679
 4560W        W69787  42.939  42.405   3.240
 4561W        W69788   7.750   3.889  13.115
 4562W        W69789  43.323  32.432  11.206
 4563W        W69790  25.123  24.282  13.391
 4564W        W69791  29.694  11.349  12.999
 4565W        W69792  31.477  42.764   3.630
 4566W        W69793   4.212  22.091  11.132
 4567W        W69794  27.434   3.316   0.252
 4568W        W69795  16.551  42.857  14.517
 4569W        W69796  38.344  23.297   4.567
 4570W        W69797  25.788   2.437   1.742
 4571W        W69798   7.284  30.613   4.605
 4572W        W69799  17.539  11.283   1.703
 4573W        W69800  36.006  23.859  13.275
 4574W        W69801  11.767  40.422  11.094
 4575W        W69802   4.277  42.530  12.025
 4576W        W69803  20.268  13.867   3.961
 4577W        W69804  42.038   5.991  14.932
 4578W        W69805  29.784  11.743   4.351
 4579W        W69806   6.130  23.448  14.221
 4580W        W69807  21.294   0.813  12.489
 4581W        W69808   3.304  22.853   2.150
 4582W        W69809  42.277  43.895  10.812
 4583W        W69810   8.820  10.881  11.961
 4584W        W69811  21.030   5.789   2.979
 4585W        W69812  39.033  13.326  11.209
 4586W        W69813   4.405  18.306  14.547
 4587W        W69814  24.597  31.584   2.198
 4588W        W69815  19.011  18.713  10.651
 4589W        W69816  35.436   4.128   0.793
 4590W        W69817  17.278  11.822  11.559
 4591W        W69818  18.540  40.904   3.844
 4592W        W69819   1.653  29.992   2.816
 4593W        W69820  24.477  36.522   2.782
 4594W        W69821   7.484   5.930  10.869
 4595W        W69822  21.670  25.178   4.374
 4596W        W69823  30.563  37.567   0.489
 4597W        W69824  23.258  14.648   0.848
 4598W        W69825   3.342  32.543   3.741
 4599W        W69826  27.143   2.624   1.340
 4600W        W69827  31.335  18.256   0.395
 4601W        W69828  20.239  10.804  10.705
 4602W        W69829  27.594  25.176  10.266
 4603W        W69830  29.396   8.796  14.585
 4604W        W69831  23.672  44.872   0.898
 4605W        W69832  31.052  41.075  10.643
 4606W        W69833  18.405  36.073   2.938
 4607W        W69834  28.956  14.740  11.995
 4608W        W69835  34.358  42.381   0.819
 4609W        W69836  12.116  42.555  13.856
 4610W        W69837   1.273  34.154   2.908
 4611W        W69838  26.070  15.806   1.055
 4612W        W69839   1.991  32.177   2.269
 4613W        W69840  31.899   3.366  14.899
 4614W        W69841  13.338   0.391  13.799
 4615W        W69842   3.155  34.500  12.382
 4616W        W69843  24.229  17.683  14.793
 4617W        W69844  12.375  24.657   2.201
 4618W        W69845   4.422  11.752  14.233
 4619W        W69846  12.464  33.642   0.075
 4620W        W69847  10.826  22.812   4.712
 4621W        W69848   2.170  42.220   3.205
 4622W        W69849  26.260  14.822  13.769
 4623W        W69850  30.009  31.566   2.439
 4624W        W69851   1.221  28.054  14.703
 4625W        W69852  37.487   2.754  11.934
 4626W        W69853  31.490  18.987  13.051
 4627W        W69854  19.610  41.277   4.189
 4628W        W69855  41.741  17.046  14.134
 4629W        W69856  11.820  17.748  12.943
 4630W        W69857  20.363  27.677   2.413
 4631W        W69858  43.089  36.287  12.599
 4632W        W69859  18.211  22.663   4.093
 4633W        W69860  29.722  30.148  11.909
 4634W        W69861  25.508   8.660   3.664
 4635W        W69862  21.582   2.272   4.489
 4636W        W69863   6.535   3.495  13.846
 4637W        W69864   9.350  10.450   2.243
 4638W        W69865  21.997   2.377  12.173
 4639W        W69866  10.039   8.183  13.273
 4640W        W69867  11.720  34.620  13.915
 4641W        W69868   5.294   4.959  12.047
 4642W        W69869  21.467  43.223  10.973
 4643W        W69870  21.443  43.985  13.232
 4644W        W69871  40.295  37.528   4.146
 4645W        W69872  24.736  37.514  11.588
 4646W        W69873   1.903  11.797  10.793
 4647W        W69874  31.925   9.265   0.138
 4648W        W69875  42.102  30.959   1.231
 4649W        W69876  24.832  29.830   0.427
 4650W        W69877  14.834  40.972  12.916
 4651W        W69878  16.016  29.226  11.769
 4652W        W69879  41.353   8.880  14.907
 4653W        W69880  20.066  15.470  14.774
 4654W        W69881  41.856  12.469   3.300
 4655W        W69882  30.151   5.877  14.948
 4656W        W69883  19.247  43.999   0.303
 4657W        W69884  22.447  22.042   2.087
 4658W        W69885  32.486  17.782   3.231
 4659W        W69886   0.924  12.015  10.755
 4660W        W69887  30.941  19.728   2.254
 4661W        W69888  15.615  23.124  13.864
 4662W        W69889  40.039  16.917   4.162
 4663W        W69890   6.666   7.697   2.980
 4664W        W69891  24.660  43.648   5.035
 4665W        W69892   4.806   9.199   4.301
 4666W        W69893   1.388  35.791  11.512
 4667W        W69894  27.087  19.566   4.589
 4668W        W69895  42.675  28.558  11.563
 4669W        W69896  43.686  18.243  11.988
 4670W        W69897  35.456  36.660  12.659
 4671W        W69898  39.583  14.816   2.526
 4672W        W69899   7.881  42.280  11.622
 4673W        W69900   2.453  12.534  11.598
 4674W        W69901  24.713  42.406  14.162
 4675W        W69902   4.580  29.617   2.379
 4676W        W69903  37.548  26.813  14.820
 4677W        W69904  40.937   2.434  11.027
 4678W        W69905   2.392  23.166  10.569
 4679W        W69906   6.231  34.364   0.865
 4680W        W69907  25.742  20.225   0.950
 4681W        W69908   4.530  41.219   2.780
 4682W        W69909  20.016  32.364   0.855
 4683W        W69910   9.747  29.911  14.101
 4684W        W69911  16.807  26.774   4.098
 4685W        W69912  19.512  44.727   3.681
 4686W        W69913  42.054  28.104  14.452
 4687W        W69914  22.449  42.280   5.129
 4688W        W69915  22.077  36.396  12.986
 4689W        W69916  33.368  21.944   3.563
 4690W        W69917  22.535  44.450  14.047
 4691W        W69918   5.347  39.580   0.844
 4692W        W69919  10.675  43.963   4.370
 4693W        W69920   3.456  42.128   4.186
 4694W        W69921  13.886  44.378   1.423
 4695W        W69922  35.908  27.596  14.800
 4696W        W69923  17.977  22.580  12.031
 4697W        W69924   6.487   0.402   0.518
 4698W        W69925  26.985  20.707  14.792
 4699W        W69926  38.497  20.578   4.692
 4700W        W69927   0.926  14.162   2.717
 4701W        W69928   0.487  23.904   0.931
 4702W        W69929   6.409   9.183   0.323
 4703W        W69930   1.719  37.828   4.482
 4704W        W69931  34.916  28.247  13.436
 4705W        W69932   8.545  21.057  14.735
 4706W        W69933  20.051  16.790  13.531
 4707W        W69934  34.713  38.525  11.053
 4708W        W69935  11.245  23.014   0.862
 4709W        W69936  34.082  30.842  13.112
 4710W        W69937  23.455  43.711  11.548
 4711W        W69938   6.647  24.659  11.757
 4712W        W69939  35.990   4.785   4.550
 4713W        W69940  23.364  24.149   2.372
 4714W        W69941   0.707  25.952   4.974
 4715W        W69942   2.802  35.914   0.827
 4716W        W69943   4.972  44.367  12.507
 4717W        W69944  17.647   3.696   3.661
 4718W        W69945  24.241  38.294   1.227
 4719W        W69946  10.944  37.429  12.255
 4720W        W69947  18.108   7.934   3.756
 4721W        W69948  17.136  36.548   0.280
 4722W        W69949  23.030   8.831   5.203
 4723W        W69950  22.550  29.934  11.924
 4724W        W69951  39.776  17.098  12.153
 4725W        W69952  27.521  39.416  10.661
 4726W        W69953   3.946   4.512  14.105
 4727W        W69954  39.260  15.762   3.166
 4728W        W69955  25.751  14.150  11.544
 4729W        W69956  25.161   2.523  13.468
 4730W        W69957  26.994  39.291  13.205
 4731W        W69958  21.708  34.433   1.300
 4732W        W69959  32.481  24.049   1.017
 4733W        W69960   7.232  12.696   4.851
 4734W        W69961   3.188  17.723   4.622
 4735W        W69962  25.076  12.687   1.446
 4736W        W69963   7.474  29.022   2.334
 4737W        W69964  21.270  22.654   0.166
 4738W        W69965  13.185  43.871   3.967
 4739W        W69966  43.515  38.501  14.925
 4740W        W69967  21.652   6.842  12.809
 4741W        W69968  28.494  35.893   4.452
 4742W        W69969   4.128  38.928  12.668
 4743W        W69970  12.013   5.298   0.534
 4744W        W69971  30.027  19.991  11.256
 4745W        W69972  21.122  26.631  11.458
 4746W        W69973  38.602  26.978   3.846
 4747W        W69974   9.366   4.595  11.068
 4748W        W69975  24.279  31.513   2.647
 4749W        W69976   2.280   5.245   4.181
 4750W        W69977  13.524  29.244  13.968
 4751W        W69978   2.051  34.682   4.169
 4752W        W69979  25.417  33.434  11.909
 4753W        W69980  19.701  18.037   2.761
 4754W        W69981  12.747  13.846  13.200
 4755W        W69982  30.591  15.310  11.138
 4756W        W69983  37.537  38.380  12.406
 4757W        W69984   1.820   7.017   0.020
 4758W        W69985  14.391  10.130  14.468
 4759W        W69986  29.451  32.400   3.639
 4760W        W69987  36.270  10.187   1.829
 4761W        W69988  39.559  11.116  13.471
 4762W        W69989  30.893   9.947   2.256
 4763W        W69990  43.448  41.159  12.050
 4764W        W69991  31.886  27.460  14.036
 4765W        W69992  14.950  41.012   3.521
 4766W        W69993  23.036   6.727   0.794
 4767W        W69994  15.365  11.782   0.362
 4768W        W69995  38.275   9.200  11.822
 4769W        W69996   1.851   8.644   0.614
 4770W        W69997  42.632  17.140   2.642
 4771W        W69998  11.236  11.765   1.284
 4772W        W69999   7.155  44.367  14.323
 4773W        W70000   4.990  36.267  10.712
 4774W        W70001  17.162   9.917   4.914
 4775W        W70002  40.420  10.843   0.369
 4776W        W70003  41.363  17.323  13.874
 4777W        W70004  18.037  33.021  10.487
 4778W        W70005  13.495  25.735   2.690
 4779W        W70006  35.478  29.494   3.855
 4780W        W70007   2.220  32.194   3.280
 4781W        W70008   0.017  12.142   4.118
 4782W        W70009  10.707  37.797  13.889
 4783W        W70010  30.516  43.712  10.711
 4784W        W70011  21.168  10.464   4.475
 4785W        W70012  41.635  30.132  11.084
 4786W        W70013  43.666  12.376   3.196
 4787W        W70014  10.900  41.567   4.092
 4788W        W70015   1.459  19.322   1.006
 4789W        W70016  17.564  40.265  10.780
 4790W        W70017   2.171  29.403  14.222
 4791W        W70018  35.529  24.937  13.044
 4792W        W70019  13.924  14.763  12.593
 4793W        W70020  37.556  10.738   3.697
 4794W        W70021  23.278   1.031  13.954
 4795W        W70022  29.748  14.473   0.747
 4796W        W70023  17.985  32.691   0.249
 4797W        W70024  36.742   5.785   0.776
 4798W        W70025  20.092  28.479  13.793
 4799W        W70026  40.433  32.404   3.334
 4800W        W70027  39.056  34.415   1.766
 4801W        W70028  39.488  27.406  14.998
 4802W        W70029  11.282  26.141   4.680
 4803W        W70030  28.489  22.048  13.416
 4804W        W70031  37.672  36.460   4.575
 4805W        W70032   2.776   3.684   0.488
 4806W        W70033  18.549   1.511  12.549
 4807W        W70034  12.805  42.579   0.939
 4808W        W70035  17.258   2.690  10.784
 4809W        W70036  32.809  34.473   2.286
 4810W        W70037   0.997  34.929  13.810
 4811W        W70038  42.531  42.120  12.981
 4812W        W70039   8.383  38.799   0.723
 4813W        W70040  41.993  35.302   0.375
 4814W        W70041  42.397  20.431  14.414
 4815W        W70042  21.991  31.086   2.281
 4816W        W70043  44.902  25.090  14.242
 4817W        W70044  38.279  19.179   4.796
 4818W        W70045  44.286  29.805   2.749
 4819W        W70046  21.537  13.851  12.448
 4820W        W70047  17.678  33.237  12.159
 4821W        W70048  41.362   4.239  11.576
 4822W        W70049   8.389  44.835   3.140
 4823W        W70050  18.605   1.896   0.335
 4824W        W70051  35.130  32.071   3.894
 4825W        W70052  35.019  33.582  12.803
 4826W        W70053  43.912  27.678   0.448
 4827W        W70054  16.767  14.422   2.596
 4828W        W70055  25.652  42.529   2.854
 4829W        W70056  17.752  17.037   1.919
 4830W        W70057  13.826   4.876   0.879
 4831W        W70058  36.802  35.610  12.390
 4832W        W70059  35.763  26.061  10.755
 4833W        W70060  28.256  17.566  11.219
 4834W        W70061   0.387   5.006  12.515
 4835W        W70062  39.708   9.859   0.852
 4836W        W70063  30.378  15.824   3.876
 4837W        W70064  30.144  43.371  11.591
 4838W        W70065  32.016  27.714   1.332
 4839W        W70066  11.901  18.267  10.169
 4840W        W70067  10.303  18.862   3.292
 4841W        W70068  19.776  29.435  10.760
 4842W        W70069  11.389  39.641   3.180
 4843W        W70070  41.948  22.086   1.509
 4844W        W70071  40.418  14.477   0.543
 4845W        W70072  18.101  40.781  14.860
 4846W        W70073  29.121   8.246   0.883
 4847W        W70074   8.140  35.955  11.103
 4848W        W70075  37.545   6.587   4.048
 4849W        W70076  38.540  18.876   1.427
 4850W        W70077  28.973  22.593  13.321
 4851W        W70078  17.177  24.180  12.068
 4852W        W70079  10.417  16.355   0.312
 4853W        W70080  38.775  31.891   4.092
 4854W        W70081  31.492  18.999   1.280
 4855W        W70082  15.066  17.262   2.297
 4856W        W70083  28.678  19.981  12.528
 4857W        W70084  11.939   3.915   3.358
 4858W        W70085  27.092  19.766   0.742
 4859W        W70086  42.831  39.576   3.694
 4860W        W70087   2.428  15.089   0.368
 4861W        W70088  23.985  13.680   2.647
 4862W        W70089  29.186  39.096   2.679
 4863W        W70090  10.450   0.279   4.179
 4864W        W70091  17.986  14.707   4.068
 4865W        W70092   1.932  15.505   5.023
 4866W        W70093  10.128   4.255   3.031
 4867W        W70094  21.664  26.153  14.310
 4868W        W70095  13.069   7.306  11.027
 4869W        W70096  31.595  30.443   0.421
 4870W        W70097  38.980  33.443  13.095
 4871W        W70098  35.528   4.940  11.893
 4872W        W70099  13.067  15.608   1.832
 4873W        W70100  12.401  13.881  11.147
 4874W        W70101  41.471  42.379  14.024
 4875W        W70102  36.028  14.930  14.435
 4876W        W70103   8.190  38.936  12.996
 4877W        W70104   6.914  43.296  10.945
 4878W        W70105  30.328   2.404  11.305
 4879W        W70106  30.239   4.072  14.015
 4880W        W70107  31.066  38.436   4.584
 4881W        W70108  38.648  39.414  13.557
 4882W        W70109  36.617   3.366  11.969
 4883W        W70110  11.934   6.326   3.911
 4884W        W70111  13.557  20.281  12.605
 4885W        W70112  16.859  15.205  13.041
 4886W        W70113  39.380  16.313  10.819
 4887W        W70114  15.421  29.201  13.581
 4888W        W70115  29.080  39.419   9.944
 4889W        W70116  29.404  43.439  12.081
 4890W        W70117   5.968  42.513  11.162
 4891W        W70118  29.142   0.677  12.558
 4892W        W70119   1.860  12.171   3.866
 4893W        W70120  34.804  37.967   4.190
 4894W        W70121  29.746  43.005  11.596
 4895W        W70122  22.604  35.671  12.061
 4896W        W70123  15.846  22.296  10.172
 4897W        W70124  16.164   2.321  12.088
 4898W        W70125  22.609  44.544   2.858
 4899W        W70126   1.820  29.677   5.027
 4900W        W70127  23.852   8.463   4.159
 4901W        W70128  39.005  35.592  11.202
 4902W        W70129  35.643  35.625   1.781
 4903W        W70130  17.314  42.815  11.158
 4904W        W70131  17.680  36.004  12.448
 4905W        W70132  19.748  29.398   2.214
 4906W        W70133   6.415  26.028  13.173
 4907W        W70134  15.814  24.663   1.869
 4908W        W70135  32.510  25.323  14.646
 4909W        W70136   2.546  43.982   0.853
 4910W        W70137  36.413   5.409   2.346
 4911W        W70138  24.625  20.587  10.425
 4912W        W70139  35.467  10.847  10.771
 4913W        W70140  26.593  23.992   3.170
 4914W        W70141  37.053   1.503  13.030
 4915W        W70142   9.423  35.426   4.293
 4916W        W70143   1.303  23.300  13.042
 4917W        W70144  16.840  25.560   2.250
 4918W        W70145  36.646  31.592  13.551
 4919W        W70146  26.581  41.765   3.754
 4920W        W70147  14.189  19.259   4.901
 4921W        W70148  29.101   3.736  12.013
 4922W        W70149  27.018   1.404   2.496
 4923W        W70150   7.638  32.049   3.337
 4924W        W70151  33.634  13.556   3.965
 4925W        W70152  27.010   7.754  10.745
 4926W        W70153   4.235  20.247   3.264
 4927W        W70154  15.188  42.034   4.403
 4928W        W70155  10.370  30.955  11.988
 4929W        W70156  21.653  15.273  10.690
 4930W        W70157  26.877   8.813   1.231
 4931W        W70158  33.582  23.035  14.540
 4932W        W70159  13.024  44.533   2.941
 4933W        W70160  27.614   0.917  10.159
 4934W        W70161  19.141   1.616   3.501
 4935W        W70162  29.138  44.054   0.192
 4936W        W70163  13.133  28.928   4.075
 4937W        W70164   2.740   0.385   1.371
 4938W        W70165   3.383  39.799  12.000
 4939W        W70166   8.232   3.950  14.836
 4940W        W70167  35.109  41.110   3.308
 4941W        W70168  32.994  33.908  12.603
 4942W        W70169  12.233  11.087   0.608
 4943W        W70170  13.348  20.022  10.909
 4944W        W70171  43.233  23.350  12.620
 4945W        W70172  27.869  25.231   0.871
 4946W        W70173  41.229   1.168  13.436
 4947W        W70174  22.929   3.922   0.956
 4948W        W70175   9.140  13.745   4.148
 4949W        W70176  26.242   2.003   3.684
 4950W        W70177  43.531  18.768   2.076
 4951W        W70178  14.609   9.160  13.763
 4952W        W70179  39.060  17.617  11.846
 4953W        W70180  20.151  26.446   2.787
 4954W        W70181  32.049   7.962  11.741
 4955W        W70182  37.152  29.575   5.337
 4956W        W70183   3.077  16.713  14.471
 4957W        W70184  21.491  39.993   2.948
 4958W        W70185  42.642   6.071   3.139
 4959W        W70186  26.735  17.021   4.082
 4960W        W70187   8.990  24.565   2.877
 4961W        W70188   1.193   6.233   4.682
 4962W        W70189  20.725  27.636  14.005
 4963W        W70190  43.814  38.261  11.546
 4964W        W70191  26.369  11.395  12.000
 4965W        W70192  19.671   4.123   2.240
 4966W        W70193  27.519  16.037  11.684
 4967W        W70194  20.659  21.160   4.837
 4968W        W70195  23.917  18.800  13.786
 4969W        W70196   4.319  29.487  14.947
 4970W        W70197  13.192  10.633   2.780
 4971W        W70198   7.660  17.991   4.956
 4972W        W70199  10.666  16.577   3.593
 4973W        W70200  42.451  42.535   2.691
 4974W        W70201  44.259  32.090   2.956
 4975W        W70202   0.716   9.228  12.687
 4976W        W70203  27.458  18.007  14.174
 4977W        W70204   2.408  35.069   4.159
 4978W        W70205  36.468  18.080   3.941
 4979W        W70206  33.009  24.735  12.155
 4980W        W70207   1.491  42.983  12.782
 4981W        W70208  36.339  15.352   0.994
 4982W        W70209  35.800  21.794  12.162
 4983W        W70210  31.004  25.282   0.498
 4984W        W70211  12.786   4.144  12.742
 4985W        W70212  39.779  11.572  13.320
 4986W        W70213  42.789  38.927   2.591
 4987W        W70214  11.477  13.226   3.359
 4988W        W70215  24.555  17.177  14.954
 4989W        W70216   5.291  34.743  12.999
 4990W        W70217   1.245  28.868  12.184
 4991W        W70218  16.234  39.517   4.584
 4992W        W70219  15.689  21.749  13.493
 4993W        W70220  21.014  20.747  10.756
 4994W        W70221  35.984  10.645   2.901
 4995W        W70222  35.510  26.249  11.876
 4996W        W70223  22.181  42.841  12.139
 4997W        W70224  24.847  35.903  14.382
 4998W        W70225  31.421   0.072  13.154
 4999W        W70226  34.138  36.414  10.155
 5000W        W70227  24.726  27.490  11.161
 5001W        W70228  13.018   6.862  10.769
 5002W        W70229  30.476  27.929  13.094
 5003W        W70230  12.633  16.054  11.161
 5004W        W70231   8.200   2.403   0.015
 5005W        W70232  27.285  44.960  11.787
 5006W        W70233  41.408   7.269  14.434
 5007W        W70234  33.003  44.065   4.587
 5008W        W70235  22.623   8.152  11.733
 5009W        W70236  12.321  42.489   4.555
 5010W        W70237  21.027  35.919  12.081
 5011W        W70238  43.585  43.552  12.467
 5012W        W70239  23.839   3.774  12.611
 5013W        W70240  44.673  20.009  14.965
 5014W        W70241  38.793   1.668  11.561
 5015W        W70242  27.013   1.143   1.446
 5016W        W70243  25.535  14.280   1.861
 5017W        W70244  15.376  31.588  14.834
 5018W        W70245  33.027  40.806  10.692
 5019W        W70246  16.921  20.420   4.615
 5020W        W70247  41.318  25.519  11.039
 5021W        W70248  26.180  21.666   1.170
 5022W        W70249  13.188  30.393  10.716
 5023W        W70250  21.354  15.247  13.039
 5024W        W70251  35.027  10.817  12.284
 5025W        W70252  18.880  32.154   0.011
 5026W        W70253  36.902  37.473   4.509
 5027W        W70254  15.225  19.230   1.796
 5028W        W70255  11.234  10.655   4.564
 5029W        W70256   4.324  17.068  13.922
 5030W        W70257   6.906  32.136  12.150
 5031W        W70258  16.820   4.368  12.538
 5032W        W70259  12.102  14.031  14.812
 5033W        W70260  17.696  38.259   2.060
 5034W        W70261  10.231   5.981  10.819
 5035W        W70262  36.047  26.700   2.782
 5036W        W70263  18.708  27.710  12.587
 5037W        W70264  24.923  33.359  12.055
 5038W        W70265  36.563   1.990  12.448
 5039W        W70266  44.779  36.869   3.361
 5040W        W70267  12.265  34.625  13.832
 5041W        W70268  23.913  29.465   3.280
 5042W        W70269  41.338   0.188  12.667
 5043W        W70270  43.022   6.642   4.550
 5044W        W70271  34.550   6.341   2.658
 5045W        W70272  19.155  19.196  10.796
 5046W        W70273  21.307  20.332  10.287
 5047W        W70274  42.762   1.949   4.635
 5048W        W70275  41.883  37.893   0.416
 5049W        W70276  43.364  23.812   2.191
 5050W        W70277   5.340  15.506   0.937
 5051W        W70278   4.492  17.244  13.382
 5052W        W70279  43.203  18.113  12.908
 5053W        W70280  24.068  16.227  14.993
 5054W        W70281  43.024  17.678  13.741
 5055W        W70282  18.069  23.787  13.776
 5056W        W70283   8.776  32.489   1.380
 5057W        W70284  27.567  18.599   4.458
 5058W        W70285   0.985  44.876   3.196
 5059W        W70286  39.978   3.164   0.470
 5060W        W70287   0.783   6.530  13.096
 5061W        W70288  18.617   1.010  11.620
 5062W        W70289  41.682  21.931  12.130
 5063W        W70290  38.998   1.046  12.906
 5064W        W70291  23.701   6.664  14.270
 5065W        W70292  27.770   4.364   0.925
 5066W        W70293   9.181   6.844  11.570
 5067W        W70294  36.610   7.143  11.123
 5068W        W70295   1.922  39.483  13.141
 5069W        W70296  39.870  27.981  13.909
 5070W        W70297  17.657  20.309   3.211
 5071W        W70298  37.533   1.713  11.994
 5072W        W70299   0.714  10.114  11.625
 5073W        W70300  21.223  14.231  13.014
 5074W        W70301  36.881  34.391   3.222
 5075W        W70302  35.047  15.975  10.725
 5076W        W70303   0.761  38.453   3.864
 5077W        W70304  15.241   7.686  12.960
 5078W        W70305  42.386  38.237   1.281
 5079W        W70306  28.957  13.576   3.315
 5080W        W70307   5.505  16.055  14.295
 5081W        W70308   7.993  22.528  10.859
 5082W        W70309   7.382  27.665   1.269
 5083W        W70310  24.881  37.701  12.959
 5084W        W70311  18.446  29.137   0.751
 5085W        W70312   5.237  37.620   2.277
 5086W        W70313  18.194  15.864   0.384
 5087W        W70314  12.138  27.723   4.319
 5088W        W70315  37.342  28.613  14.496
 5089W        W70316   3.431  26.890  12.450
 5090W        W70317   4.618  15.239  14.979
 5091W        W70318  25.403  35.281  13.141
 5092W        W70319  26.133  15.158  14.280
 5093W        W70320  42.004  26.205   2.322
 5094W        W70321  30.548   9.289   1.221
 5095W        W70322  41.405   1.368   3.664
 5096W        W70323   4.282  22.723   0.253
 5097W        W70324   7.160  24.582   3.626
 5098W        W70325  41.529  44.473   0.010
 5099W        W70326  18.161  10.605   4.044
 5100W        W70327  17.329  31.615   0.897
 5101W        W70328  16.474  11.600   0.908
 5102W        W70329  16.551  34.941   3.164
 5103W        W70330  20.755  40.610  11.582
 5104W        W70331  19.055  44.712   0.989
 5105W        W70332  24.750  36.453   3.222
 5106W        W70333  31.596   0.719   1.974
 5107W        W70334   6.427  21.975  12.789
 5108W        W70335  39.882  35.844   1.349
 5109W        W70336  10.454  26.034  10.892
 5110W        W70337  41.956  30.057   4.225
 5111W        W70338  25.601  24.252   1.444
 5112W        W70339  32.631  35.585  11.770
 5113W        W70340  20.753  34.096   3.175
 5114W        W70341  28.014  29.819  10.665
 5115W        W70342  11.174   6.942   3.170
 5116W        W70343  24.993  32.828   1.958
 5117W        W70344  30.165  32.263  13.807
 5118W        W70345  14.864   3.303   0.410
 5119W        W70346   7.368  12.664  12.177
 5120W        W70347   3.973  15.509  12.958
 5121W        W70348  35.352  34.996  11.546
 5122W        W70349  41.232  29.688  10.653
 5123W        W70350  20.664   4.803  12.484
 5124W        W70351  22.824   0.792  13.895
 5125W        W70352   4.380  42.991  14.124
 5126W        W70353   9.710  34.155   3.118
 5127W        W70354  36.768  20.572  11.101
 5128W        W70355  38.789  18.490   2.889
 5129W        W70356  44.490   7.105  13.811
 5130W        W70357  11.339  23.519  14.373
 5131W        W70358   4.276  26.730   1.658
 5132W        W70359  34.621  10.604  14.018
 5133W        W70360   3.051  31.869   1.236
 5134W        W70361  24.816   3.543  11.932
 5135W        W70362  19.325  31.821   0.775
 5136W        W70363  27.032  22.285  11.540
 5137W        W70364  11.973  32.697   1.665
 5138W        W70365  26.024   8.965   4.853
 5139W        W70366  13.252  39.704   0.204
 5140W        W70367  15.830  22.492  11.204
 5141W        W70368  38.028  25.994   4.568
 5142W        W70369  26.277  43.538   1.759
 5143W        W70370  33.850  31.843  12.970
 5144W        W70371  27.610   1.469   0.932
 5145W        W70372  18.134  38.451   1.773
 5146W        W70373  26.495  42.523  14.682
 5147W        W70374  29.628  11.653   0.232
 5148W        W70375   5.036  41.398   0.987
 5149W        W70376   0.616  22.188  14.997
 5150W        W70377  35.420  43.495  12.434
 5151W        W70378  22.923  17.851   1.040
 5152W        W70379  41.092  11.307  11.655
 5153W        W70380  22.046  33.485   4.922
 5154W        W70381  40.758  36.463   2.913
 5155W        W70382   2.484  12.152  12.433
 5156W        W70383  16.968  25.676   9.975
 5157W        W70384  28.620  38.033   3.894
 5158W        W70385  38.004  43.934  10.907
 5159W        W70386  10.853   9.308   0.708
 5160W        W70387  32.063  37.769  11.267
 5161W        W70388  14.331  17.586  11.251
 5162W        W70389  43.149   5.746   4.277
 5163W        W70390  28.086  11.834  13.539
 5164W        W70391  26.210  22.665  13.303
 5165W        W70392  37.805  10.398  13.693
 5166W        W70393  23.629  11.591  12.045
 5167W        W70394  14.438   7.312   1.249
 5168W        W70395  31.833  44.745  13.247
 5169W        W70396  39.972  12.363  14.851
 5170W        W70397  17.578  11.843   3.154
 5171W        W70398  19.974  34.495  13.778
 5172W        W70399   8.101  19.730  12.872
 5173W        W70400  10.098   2.148   4.609
 5174W        W70401  17.678   7.072   3.663
 5175W        W70402  29.480  22.664  13.427
 5176W        W70403  24.420  44.761  13.495
 5177W        W70404   2.691  22.059  10.203
 5178W        W70405  35.281  23.033   3.695
 5179W        W70406  38.397  23.001   1.813
 5180W        W70407  23.553   2.479   0.817
 5181W        W70408   2.290  18.768   4.657
 5182W        W70409  22.192  30.994   4.262
 5183W        W70410   0.523  26.512  14.912
 5184W        W70411   3.921  20.024   4.672
 5185W        W70412  34.152  26.712  11.583
 5186W        W70413  33.645  27.537   9.843
 5187W        W70414  39.097  39.326  13.321
 5188W        W70415  10.746  23.479  11.773
 5189W        W70416  32.566   1.074  13.860
 5190W        W70417   3.222  38.235   4.103
 5191W        W70418  34.888  16.841  12.426
 5192W        W70419  26.695  19.347  12.000
 5193W        W70420  24.924  15.992  12.037
 5194W        W70421  27.530  20.792  11.081
 5195W        W70422  31.934   2.119   1.494
 5196W        W70423  34.448   8.349  13.551
 5197W        W70424   6.867  22.165  12.579
 5198W        W70425   9.167  41.324   0.398
 5199W        W70426  17.547  27.664   3.263
 5200W        W70427  41.045  38.984   1.271
 5201W        W70428  36.565  35.955  14.983
 5202W        W70429  15.261   5.362  12.472
 5203W        W70430  21.049  19.450  14.933
 5204W        W70431  23.158   8.714  11.618
 5205W        W70432  24.309  17.529   2.947
 5206W        W70433  28.178  35.193   0.479
 5207W        W70434  27.950  24.376   4.481
 5208W        W70435  21.699  16.325  13.312
 5209W        W70436  44.485  21.637  14.360
 5210W        W70437   5.775   3.263  10.532
 5211W        W70438  18.647   6.950   4.594
 5212W        W70439  28.056  19.932   2.653
 5213W        W70440  37.960  22.246   1.741
 5214W        W70441  15.281  16.409   3.608
 5215W        W70442  41.905  36.998   2.892
 5216W        W70443  21.204  21.791   3.434
 5217W        W70444   4.383   7.594  12.019
 5218W        W70445  37.092  38.727   2.748
 5219W        W70446  33.438  43.550  10.652
 5220W        W70447  34.042  14.044   1.318
 5221W        W70448  18.190   4.709  13.823
 5222W        W70449  11.288  15.197   1.656
 5223W        W70450  13.729  28.146  12.952
 5224W        W70451  11.395  44.414  10.833
 5225W        W70452  14.584   4.202   4.692
 5226W        W70453  44.673  27.633   2.804
 5227W        W70454   5.526  33.550   3.332
 5228W        W70455  35.769  43.859  12.396
 5229W        W70456   2.248  42.086   2.721
 5230W        W70457  41.121  35.295  13.985
 5231W        W70458  32.443  21.163  14.469
 5232W        W70459  31.218   7.843  12.574
 5233W        W70460  17.033  37.884   1.302
 5234W        W70461  38.452  37.380  13.378
 5235W        W70462  18.718   3.800  11.593
 5236W        W70463   8.041  26.138  11.639
 5237W        W70464   3.222  29.684  11.581
 5238W        W70465   6.219   8.745   3.349
 5239W        W70466  19.740   5.977  11.278
 5240W        W70467  38.971  37.876  11.669
 5241W        W70468  32.415  15.114   3.036
 5242W        W70469  44.170  41.993   0.003
 5243W        W70470  31.648  18.271   0.824
 5244W        W70471  29.971  39.084  14.325
 5245W        W70472   3.133  40.023   2.854
 5246W        W70473  28.642   0.652   4.671
 5247W        W70474   4.418  31.995   2.355
 5248W        W70475   4.004  28.957  14.292
 5249W        W70476  11.385  17.230   0.020
 5250W        W70477  39.557  24.624  13.710
 5251W        W70478  23.174  40.281  13.523
 5252W        W70479  26.758  27.174  12.340
 5253W        W70480  15.784   1.394  12.058
 5254W        W70481   3.536  26.481  11.760
 5255W        W70482  39.879   4.719   0.431
 5256W        W70483  40.779   4.759  12.941
 5257W        W70484  37.055  29.622  13.026
 5258W        W70485  32.929  43.266   3.513
 5259W        W70486  17.754  35.900   4.717
 5260W        W70487  18.260  24.266  13.889
 5261W        W70488  37.412  39.635  14.863
 5262W        W70489  25.455  33.889  13.075
 5263W        W70490   3.989  34.616   0.989
 5264W        W70491  12.179  33.397  10.406
 5265W        W70492  29.303  43.462  11.190
 5266W        W70493  16.760   9.791   3.754
 5267W        W70494   9.731  15.979  14.891
 5268W        W70495  23.152  17.468  10.854
 5269W        W70496  38.719   6.583  12.536
 5270W        W70497  40.152  25.630   1.804
 5271W        W70498   1.770   0.971  12.885
 5272W        W70499  37.075   7.743  13.517
 5273W        W70500   4.772  34.453  11.182
 5274W        W70501   8.647   2.626   4.765
 5275W        W70502   7.400  22.322   0.884
 5276W        W70503  26.907   4.414  13.420
 5277W        W70504  20.774  28.619   4.410
 5278W        W70505   5.836   6.511  10.649
 5279W        W70506  33.373  22.465   1.304
 5280W        W70507  10.356  14.337  13.888
 5281W        W70508  14.735  24.988  13.565
 5282W        W70509  40.523  17.217  14.381
 5283W        W70510  41.301  42.707  11.164
 5284W        W70511  26.708  21.638   1.151
 5285W        W70512   6.180  17.168  13.049
 5286W        W70513  36.006  11.774  12.001
 5287W        W70514  37.303  41.227  12.772
 5288W        W70515  23.671  23.750   3.205
 5289W        W70516  32.490  37.476  12.605
 5290W        W70517   9.824  44.751  11.428
 5291W        W70518  28.290  13.357   2.365
 5292W        W70519   3.548  27.402  12.450
 5293W        W70520  18.738  34.552  13.436
 5294W        W70521   0.650  40.570  13.494
 5295W        W70522   1.974  39.090   2.138
 5296W        W70523  44.860  42.557  14.287
 5297W        W70524  28.839  22.565  11.578
 5298W        W70525  41.300  33.445  11.111
 5299W        W70526  12.668  21.040   3.246
 5300W        W70527  33.628  31.816  11.253
 5301W        W70528  12.315   1.842   1.007
 5302W        W70529  35.775   3.296   3.561
 5303W        W70530  21.043  30.886   3.125
 5304W        W70531  12.000  25.759  12.071
 5305W        W70532   4.965  37.421   3.499
 5306W        W70533   0.355  38.114  12.976
 5307W        W70534  13.539   7.466  14.520
 5308W        W70535  31.989   4.877   2.481
 5309W        W70536  38.776  36.619   2.702
 5310W        W70537  24.591   5.428  13.386
 5311W        W70538   3.225   7.198   2.649
 5312W        W70539  15.177  26.202  12.589
 5313W        W70540  27.734   7.840   3.192
 5314W        W70541  19.570  37.256  14.286
 5315W        W70542  11.366   1.901   3.758
 5316W        W70543  32.491  41.927   4.794
 5317W        W70544   6.902   7.420   1.888
 5318W        W70545  21.039  12.882   0.527
 5319W        W70546  42.495   5.190  14.765
 5320W        W70547  44.158  22.150   2.813
 5321W        W70548   9.582  32.556   1.941
 5322W        W70549  36.657   9.844  11.447
 5323W        W70550  44.713  36.374   4.114
 5324W        W70551  11.112   0.467   1.933
 5325W        W70552  38.296  40.331  13.536
 5326W        W70553  41.075  32.964   4.425
 5327W        W70554   0.270  23.912  13.318
 5328W        W70555  25.449  27.553   3.333
 5329W        W70556  37.858  31.082  14.387
 5330W        W70557   5.923  20.169  14.590
 5331W        W70558  21.050   3.664   4.103
 5332W        W70559  27.647   2.314   3.112
 5333W        W70560  41.726  44.325   3.711
 5334W        W70561  25.740   0.711  14.359
 5335W        W70562  24.228  12.871   2.402
 5336W        W70563  10.669  11.434  11.623
 5337W        W70564   2.517  36.353   1.832
 5338W        W70565  26.432  17.547   2.270
 5339W        W70566  17.811  44.371   4.161
 5340W        W70567  30.959  34.554  12.007
 5341W        W70568  33.961  28.785   1.107
 5342W        W70569  20.192  39.853   9.975
 5343W        W70570   9.422   8.639  14.775
 5344W        W70571  32.855   4.380   0.444
 5345W        W70572   6.456  44.088  11.824
 5346W        W70573  19.510   1.743   3.171
 5347W        W70574  39.449   3.144  11.693
 5348W        W70575  43.288  27.879   3.598
 5349W        W70576  13.856  31.750   1.678
 5350W        W70577  44.424  31.058  12.422
 5351W        W70578  18.940  38.898  14.275
 5352W        W70579  29.122  22.207  14.676
 5353W        W70580  16.840  11.309  13.318
 5354W        W70581  18.588  14.073   1.601
 5355W        W70582  17.439  35.510  13.189
 5356W        W70583  17.685  11.329   3.714
 5357W        W70584  33.357  25.785   0.386
 5358W        W70585  24.933  35.781  11.171
 5359W        W70586  42.012   7.320   3.148
 5360W        W70587   9.749   5.968  12.011
 5361W        W70588  40.516  12.343   2.359
 5362W        W70589  16.062  10.697   0.473
 5363W        W70590  37.029  21.037  12.342
 5364W        W70591  20.495   6.069  11.935
 5365W        W70592  25.347  26.494   3.172
 5366W        W70593   3.216   0.813  12.287
 5367W        W70594  32.009   4.931   1.456
 5368W        W70595  13.378  38.884  14.457
 5369W        W70596  10.242  25.737   2.091
 5370W        W70597   0.825  22.802  13.505
 5371W        W70598  18.841  28.067  13.962
 5372W        W70599   7.097  22.599  14.962
 5373W        W70600  34.150  40.778  10.722
 5374W        W70601  30.688   3.406  14.256
 5375W        W70602  11.682  44.122   4.647
 5376W        W70603  30.450   7.618   5.092
 5377W        W70604  19.995  32.560  12.886
 5378W        W70605  11.174  19.987   3.158
 5379W        W70606  37.482  17.053   0.962
 5380W        W70607  40.617  26.704   0.409
 5381W        W70608  23.080  19.758  11.117
 5382W        W70609   9.837  36.531   2.792
 5383W        W70610  39.359  13.096   2.469
 5384W        W70611  21.801  41.534   3.723
 5385W        W70612   6.720  39.037   4.106
 5386W        W70613  18.250  33.351  10.823
 5387W        W70614  24.662   6.279   0.585
 5388W        W70615  39.338  42.708   4.567
 5389W        W70616  19.692  37.833  12.234
 5390W        W70617  23.648   8.413   4.637
 5391W        W70618  13.276  30.339   3.587
 5392W        W70619  10.350   6.222  11.269
 5393W        W70620  37.374  12.819  14.785
 5394W        W70621  34.541   8.160  14.603
 5395W        W70622  14.579  34.921   2.323
 5396W        W70623   4.916  32.132   1.840
 5397W        W70624   9.777  42.488   0.263
 5398W        W70625  26.460  24.423  14.774
 5399W        W70626  15.136  42.107  13.277
 5400W        W70627  26.489  44.615   0.519
 5401W        W70628   0.284   5.973  13.326
 5402W        W70629   5.657   3.058   1.264
 5403W        W70630  27.594  37.817   0.975
 5404W        W70631  11.981  35.859   4.572
 5405W        W70632  19.756  12.866   0.992
 5406W        W70633   0.702   7.199  14.680
 5407W        W70634  39.850  25.744  13.136
 5408W        W70635   7.441  22.574  11.587
 5409W        W70636  17.729  21.508   3.204
 5410W        W70637  28.199   2.892  12.418
 5411W        W70638  32.301  21.086   3.635
 5412W        W70639  13.506  39.044  10.931
 5413W        W70640  11.256   3.683   0.315
 5414W        W70641   0.551  26.520   1.017
 5415W        W70642  42.284  29.917   3.753
 5416W        W70643  15.314  30.637  13.913
 5417W        W70644  13.218  17.844   3.611
 5418W        W70645   1.822  33.437  13.632
 5419W        W70646   6.143  18.713  10.603
 5420W        W70647  11.177   9.188  10.677
 5421W        W70648  10.120   9.352  13.983
 5422W        W70649   1.202  29.923   2.232
 5423W        W70650  19.803  33.002   1.399
 5424W        W70651  40.869  37.332  14.228
 5425W        W70652   2.822  42.055  11.762
 5426W        W70653  32.851  44.192  11.136
 5427W        W70654  16.554  22.584   3.080
 5428W        W70655  34.527  44.032  13.521
 5429W        W70656   2.831  23.071   3.381
 5430W        W70657  29.171  29.993  11.930
 5431W        W70658  38.030  40.006   3.923
 5432W        W70659  34.666  24.995  12.635
 5433W        W70660  23.056  21.299  11.275
 5434W        W70661  34.441   6.729  11.563
 5435W        W70662  36.124  39.759  14.843
 5436W        W70663   8.870  30.333   4.521
 5437W        W70664  16.652  35.080   1.314
 5438W        W70665  35.553  25.528   1.666
 5439W        W70666  31.081  18.670  12.484
 5440W        W70667  27.915  31.349  12.126
 5441W        W70668   2.594  10.365   3.683
 5442W        W70669  14.689  22.844   1.395
 5443W        W70670  14.735  43.759   2.195
 5444W        W70671  23.182  40.457  12.571
 5445W        W70672  14.322  10.374   3.650
 5446W        W70673  42.952  41.044  12.144
 5447W        W70674  33.060  15.306   0.304
 5448W        W70675   8.101  22.139   0.371
 5449W        W70676  17.036  11.326  11.615
 5450W        W70677  38.843   9.072   2.804
 5451W        W70678  19.508   4.296   0.400
 5452W        W70679  34.983  34.165   4.265
 5453W        W70680  30.927  23.638   3.757
 5454W        W70681   1.280  18.316  11.625
 5455W        W70682  12.744  16.064   1.150
 5456W        W70683  20.198   2.728   1.377
 5457W        W70684  26.872  31.881  14.911
 5458W        W70685  33.850   3.820   0.795
 5459W        W70686  21.640  13.524   4.318
 5460W        W70687  17.284  29.107   1.457
 5461W        W70688  34.232   6.531  13.461
 5462W        W70689  36.791  22.581  10.789
 5463W        W70690  22.229  23.832   0.486
 5464W        W70691   0.422  14.728  12.427
 5465W        W70692  27.634  25.204  12.802
 5466W        W70693  40.902  30.025   0.546
 5467W        W70694  30.996   6.349   1.445
 5468W        W70695   7.202   1.366   4.252
 5469W        W70696  36.963  41.474   2.934
 5470W        W70697  22.653  16.650   2.420
 5471W        W70698  43.273  16.551   4.243
 5472W        W70699  36.422  20.155   4.346
 5473W        W70700  21.872  37.642   5.064
 5474W        W70701   1.476  38.994   2.415
 5475W        W70702  18.843  16.912  12.879
 5476W        W70703  17.488  42.880  14.450
 5477W        W70704   5.689  32.242  14.970
 5478W        W70705   4.901  12.847   3.648
 5479W        W70706  32.815  16.251   2.971
 5480W        W70707  35.606  14.231  12.984
 5481W        W70708  20.687  34.549   4.558
 5482W        W70709  44.956  22.515  13.281
 5483W        W70710  12.047  42.596   3.238
 5484W        W70711  30.910   3.016  11.151
 5485W        W70712  43.478  26.228  11.992
 5486W        W70713  29.008   0.562  14.969
 5487W        W70714  12.816  13.790  14.933
 5488W        W70715   9.799  12.746  13.092
 5489W        W70716   4.401  37.453  12.405
 5490W        W70717   5.052  41.813   3.230
 5491W        W70718  24.110  31.399   2.144
 5492W        W70719  23.055   4.489   3.288
 5493W        W70720   5.986  28.950   1.250
 5494W        W70721  27.228  44.703  13.397
 5495W        W70722  31.975  27.771  10.743
 5496W        W70723  44.470  36.402  13.332
 5497W        W70724  41.884  21.576   3.217
 5498W        W70725  17.706  18.467  12.928
 5499W        W70726  10.298   5.283  14.807
 5500W        W70727  41.540   3.224  13.384
 5501W        W70728  18.263  17.068   4.633
 5502W        W70729  33.562  40.912  12.024
 5503W        W70730  24.522  25.503   0.248
 5504W        W70731  26.465  14.458   3.689
 5505W        W70732   4.247  26.422  11.128
 5506W        W70733  34.330  32.479   0.936
 5507W        W70734  21.179  16.145   0.294
 5508W        W70735   7.381  10.590   4.577
 5509W        W70736  19.069  33.465   1.924
 5510W        W70737  35.856  25.216   0.221
 5511W        W70738  28.031  21.107  10.185
 5512W        W70739   0.358  20.202  12.572
 5513W        W70740  23.772  36.887  12.029
 5514W        W70741  32.748  37.386   0.819
 5515W        W70742  31.030  38.328   0.192
 5516W        W70743  11.613  29.265  11.167
 5517W        W70744   6.888  42.287   3.339
 5518W        W70745  28.720  11.572   1.211
 5519W        W70746   4.932  35.361   4.705
 5520W        W70747  31.363   8.541  11.549
 5521W        W70748  33.636   3.850   1.250
 5522W        W70749   4.307  23.896   2.408
 5523W        W70750  23.805  36.216  12.620
 5524W        W70751   8.624  32.441   9.635
 5525W        W70752  36.673   5.163  12.047
 5526W        W70753  15.709  38.918  10.425
 5527W        W70754  25.161  27.885  14.217
 5528W        W70755  14.372  35.534   3.350
 5529W        W70756  23.655  36.953  14.525
 5530W        W70757  35.037   8.175   3.229
 5531W        W70758  30.502  12.320   1.470
 5532W        W70759   6.496  22.169   3.847
 5533W        W70760  12.407  37.950  13.125
 5534W        W70761  42.814  26.938   0.968
 5535W        W70762  43.952  27.889  12.685
 5536W        W70763  28.236  44.343  11.183
 5537W        W70764  10.513  25.629   4.549
 5538W        W70765  24.251  37.338   3.706
 5539W        W70766  40.811  19.740  13.216
 5540W        W70767  40.311   9.922  12.043
 5541W        W70768   1.234  18.725   5.001
 5542W        W70769  23.249  22.729   4.617
 5543W        W70770  25.969  26.835   2.821
 5544W        W70771  41.076  12.200   2.811
 5545W        W70772   0.675  20.888  12.930
 5546W        W70773  32.416   4.202   1.461
 5547W        W70774  37.947   7.152   1.426
 5548W        W70775   1.737   1.181  13.366
 5549W        W70776   4.195  20.834   4.136
 5550W        W70777  39.155  44.368   1.252
 5551W        W70778  22.367  15.308  14.995
 5552W        W70779  30.841  24.085  14.858
 5553W        W70780  12.369   0.260   1.333
 5554W        W70781  14.077  15.139   1.162
 5555W        W70782  33.232  17.784  14.524
 5556W        W70783  16.679  12.916  10.571
 5557W        W70784  14.693  33.868  10.863
 5558W        W70785  24.863  37.182  12.963
 5559W        W70786  27.414  26.259   0.062
 5560W        W70787  11.122  39.746   0.170
 5561W        W70788   8.814  28.927   3.573
 5562W        W70789  31.913   4.673   3.812
 5563W        W70790   0.387  33.971   1.546
 5564W        W70791   3.896  16.523   0.946
 5565W        W70792   0.976  37.583  12.847
 5566W        W70793  35.478  22.156   2.791
 5567W        W70794  33.987   1.978  10.699
 5568W        W70795  38.292  38.190  14.038
 5569W        W70796  42.065  20.127   2.856
 5570W        W70797  37.113  43.310  13.887
 5571W        W70798  15.690  25.021  13.300
 5572W        W70799   5.226   9.418   0.194
 5573W        W70800  26.974  39.605  14.552
 5574W        W70801  38.046   9.842   0.904
 5575W        W70802  44.809   8.080  13.675
 5576W        W70803  27.435   8.326  13.013
 5577W        W70804  16.564   3.490   3.240
 5578W        W70805   7.395  40.810  10.910
 5579W        W70806  33.071  11.104  14.491
 5580W        W70807  38.555  38.348  13.598
 5581W        W70808  39.314  30.924  14.324
 5582W        W70809  40.582   9.290   2.922
 5583W        W70810  29.050  40.169  11.549
 5584W        W70811   3.838   0.000   4.131
 5585W        W70812  11.347  36.577  12.014
 5586W        W70813  20.333   3.725  14.959
 5587W        W70814  26.839   1.714  13.878
 5588W        W70815  11.146  22.669   1.242
 5589W        W70816   8.477  15.244   0.906
 5590W        W70817  34.670  29.492  11.234
 5591W        W70818  26.922  26.363   4.690
 5592W        W70819   2.478  38.498   0.858
 5593W        W70820  34.934  35.585   1.517
 5594W        W70821  18.097  15.610   4.603
 5595W        W70822   0.910  24.584  13.955
 5596W        W70823  16.031  22.159  13.467
 5597W        W70824  41.656   7.888   1.846
 5598W        W70825  12.851  36.129  14.284
 5599W        W70826  14.980  36.352  11.692
 5600W        W70827   1.027  18.658  14.399
 5601W        W70828   6.710   8.664   3.208
 5602W        W70829  12.876  44.075   2.780
 5603W        W70830  34.082  26.480  13.818
 5604W        W70831  16.776  21.135   2.803
 5605W        W70832  15.286  10.640  12.520
 5606W        W70833   5.712  16.586   1.145
 5607W        W70834  21.768   5.852  12.428
 5608W        W70835  13.529   7.166  11.290
 5609W        W70836  21.814   0.035  10.708
 5610W        W70837  35.718  41.675  13.909
 5611W        W70838   8.770  32.975   4.853
 5612W        W70839  15.806  17.853   1.737
 5613W        W70840  38.554  41.395   3.766
 5614W        W70841  25.579  19.747  11.374
 5615W        W70842   3.268  10.324  12.571
 5616W        W70843  42.109  17.112   0.398
 5617W        W70844  13.419   9.462  14.451
 5618W        W70845   7.486  25.509  10.676
 5619W        W70846  31.376  11.201  13.847
 5620W        W70847   8.326  20.299   4.608
 5621W        W70848  41.416   0.037   3.693
 5622W        W70849   8.437  37.430  14.789
 5623W        W70850  12.310  25.680  14.421
 5624W        W70851  22.275  36.642  14.949
 5625W        W70852  35.180  38.750   0.324
 5626W        W70853  17.867   5.854   4.314
 5627W        W70854  10.015  13.969  13.804
 5628W        W70855  34.929  37.033   3.091
 5629W        W70856  33.111  37.289   3.092
 5630W        W70857  11.579   6.591   4.196
 5631W        W70858  14.688   2.691   2.851
 5632W        W70859  10.390  29.945  10.698
 5633W        W70860  23.159   2.246   2.085
 5634W        W70861   3.187  39.556  11.115
 5635W        W70862  31.467  28.646  12.993
 5636W        W70863  20.936  28.538   3.711
 5637W        W70864  44.497  12.205   4.112
 5638W        W70865  41.125   0.225   0.779
 5639W        W70866  40.936  42.710  10.780
 5640W        W70867  36.562  11.682   2.855
 5641W        W70868  25.205  39.887  13.794
 5642W        W70869  40.315  21.615  12.327
 5643W        W70870  22.516   1.728   0.841
 5644W        W70871  29.523   8.159  13.569
 5645W        W70872  43.577  40.584  12.738
 5646W        W70873   4.878  34.635   4.178
 5647W        W70874  28.392  29.807   4.504
 5648W        W70875  37.449   5.704  11.600
 5649W        W70876  43.891  33.649   1.020
 5650W        W70877  34.512  11.646   4.789
 5651W        W70878   8.699   9.667   3.689
 5652W        W70879  15.593  22.800  13.414
 5653W        W70880  39.922  11.773  11.217
 5654W        W70881  28.690   4.208  14.905
 5655W        W70882  42.831  21.604   3.278
 5656W        W70883  22.193  32.766   0.499
 5657W        W70884  29.799  40.524  10.131
 5658W        W70885  27.135  17.237   4.460
 5659W        W70886  27.608  35.069  10.779
 5660W        W70887  21.061  44.932   4.605
 5661W        W70888  44.059  14.651   3.377
 5662W        W70889  18.635  29.006   4.863
 5663W        W70890  14.105  19.156  12.317
 5664W        W70891  27.963  30.206   0.049
 5665W        W70892  37.031  42.904  14.202
 5666W        W70893   0.630  14.292  12.284
 5667W        W70894   2.315  13.593   2.425
 5668W        W70895  36.130   6.725  12.893
 5669W        W70896  10.416  32.079   0.271
 5670W        W70897  32.698  25.892  11.607
 5671W        W70898  30.957  12.364   4.073
 5672W        W70899  12.167  33.936  13.455
 5673W        W70900   8.225  11.384   0.725
 5674W        W70901   2.762   6.330   2.360
 5675W        W70902  37.552  34.353  12.403
 5676W        W70903  34.201  32.979  11.907
 5677W        W70904  24.253  16.418  10.803
 5678W        W70905  21.513  35.226   0.883
 5679W        W70906  33.487  42.612  13.804
 5680W        W70907  15.610  41.745   4.453
 5681W        W70908   9.305  21.126   3.634
 5682W        W70909  19.003  27.106   0.345
 5683W        W70910   8.959  17.204  13.448
 5684W        W70911  20.011  44.826   3.845
 5685W        W70912  30.742  38.589  14.314
 5686W        W70913  30.611  40.757  11.600
 5687W        W70914  27.459  17.118  11.100
 5688W        W70915  30.795  27.597  13.413
 5689W        W70916  16.894  33.446  12.484
 5690W        W70917  21.135  36.437  12.156
 5691W        W70918  39.292  11.116  11.565
 5692W        W70919  32.942  28.367  14.259
 5693W        W70920  42.444  18.094  14.526
 5694W        W70921  17.628   9.726  14.514
 5695W        W70922  39.900  28.875  12.191
 5696W        W70923   1.311  35.700   4.722
 5697W        W70924  41.447  32.904   0.035
 5698W        W70925  27.113  15.767  10.537
 5699W        W70926  24.963  37.998   4.439
 5700W        W70927   2.746  44.907  12.483
 5701W        W70928   2.421   8.755  13.963
 5702W        W70929   5.239  20.412  12.930
 5703W        W70930  13.701  18.644   4.858
 5704W        W70931   1.817   9.508  10.663
 5705W        W70932  42.084  30.926   3.499
 5706W        W70933  41.375  29.699  11.165
 5707W        W70934  30.568   3.195   3.104
 5708W        W70935  17.573  15.146   1.901
 5709W        W70936  24.123  16.227  11.663
 5710W        W70937  19.738  18.830   3.739
 5711W        W70938  26.749  23.129   2.869
 5712W        W70939  38.813  40.424  13.497
 5713W        W70940  13.650   0.814  11.587
 5714W        W70941  41.355   9.713  13.790
 5715W        W70942  29.432  11.432  13.932
 5716W        W70943  41.903  23.256  11.777
 5717W        W70944  29.466  22.938  12.979
 5718W        W70945  27.603  11.623   1.291
 5719W        W70946  37.978  21.891  14.007
 5720W        W70947  20.310   3.643  11.974
 5721W        W70948  30.126  10.775   3.686
 5722W        W70949  10.626  35.046   0.248
 5723W        W70950   3.228  31.078   4.212
 5724W        W70951   7.531  39.381  10.704
 5725W        W70952  43.830  21.277  14.709
 5726W        W70953  40.142   2.671  12.043
 5727W        W70954  39.531  30.835   0.285
 5728W        W70955  42.931  28.044   3.249
 5729W        W70956  34.221  18.546  10.906
 5730W        W70957  18.714  15.777  11.475
 5731W        W70958  43.999  21.254  10.824
 5732W        W70959  21.198   4.827  12.524
 5733W        W70960  13.211  16.548   2.288
 5734W        W70961  34.668   2.187  12.063
 5735W        W70962  41.458  24.056  13.997
 5736W        W70963  35.008  39.474   4.550
 5737W        W70964  22.233   0.891   2.382
 5738W        W70965  17.155  14.113   5.123
 5739W        W70966  12.133  44.760   3.506
 5740W        W70967  36.726  23.818   3.421
 5741W        W70968   7.770  41.268   1.651
 5742W        W70969  19.179  19.857  11.519
 5743W        W70970   7.652  24.558   4.382
 5744W        W70971   6.907   7.346   3.758
 5745W        W70972  24.910  27.167   3.561
 5746W        W70973  33.309  34.664  12.955
 5747W        W70974   5.435  43.552  13.564
 5748W        W70975  33.564  40.348   5.167
 5749W        W70976  10.869  14.334  12.986
 5750W        W70977  12.194  43.044  10.620
 5751W        W70978   8.457  39.872   4.103
 5752W        W70979  29.105  37.078   3.218
 5753W        W70980  24.497  42.958  14.884
 5754W        W70981  36.365   5.665  10.321
 5755W        W70982   2.518  20.052   0.287
 5756W        W70983  26.591   1.825  10.148
 5757W        W70984  17.340  30.648   1.889
 5758W        W70985  35.736   6.275   0.450
 5759W        W70986   5.291  29.399  11.926
 5760W        W70987  11.201  17.444   0.474
 5761W        W70988   4.915  26.550  10.547
 5762W        W70989  19.193  33.370   3.807
 5763W        W70990  19.624  20.961   1.278
 5764W        W70991  43.431   9.094   1.237
 5765W        W70992   4.315  14.747   0.523
 5766W        W70993  41.424  18.228   0.835
 5767W        W70994  35.424  41.095   3.745
 5768W        W70995  41.324   6.674  12.348
 5769W        W70996  43.898  19.331   0.013
 5770W        W70997  42.972   4.198   2.768
 5771W        W70998   8.907  36.905  12.898
 5772W        W70999  29.531   9.951  14.349
 5773W        W71000   8.211   5.245   0.831
 5774W        W71001  38.975   9.889  11.686
 5775W        W71002  43.209  32.665   0.367
 5776W        W71003   7.837  18.440   2.815
 5777W        W71004  15.505  28.979  12.558
 5778W        W71005  16.098  26.483  11.922
 5779W        W71006   2.469  11.387   4.577
 5780W        W71007  25.678   3.874  11.061
 5781W        W71008   4.223  28.383  11.923
 5782W        W71009  38.899  13.387   3.877
 5783W        W71010  13.961  36.398  10.720
 5784W        W71011   0.798   4.935   2.346
 5785W        W71012   0.975  38.801  13.379
 5786W        W71013   7.344  18.030   4.491
 5787W        W71014  21.078   2.599  12.081
 5788W        W71015  34.395  25.063   4.491
 5789W        W71016  21.957  16.060  12.954
 5790W        W71017  34.446   3.318  10.754
 5791W        W71018   1.018  19.831   0.017
 5792W        W71019  38.975  32.483   1.679
 5793W        W71020  25.602  40.762  10.683
 5794W        W71021   5.433  40.186   4.118
 5795W        W71022  18.296  22.189  12.941
 5796W        W71023  24.521  28.899   1.314
 5797W        W71024  19.932   9.433   3.758
 5798W        W71025   0.032  13.199  13.602
 5799W        W71026  19.293  26.627   1.404
 5800W        W71027  27.392   3.720   3.764
 5801W        W71028  14.583  38.395   1.389
 5802W        W71029  27.763  22.604   1.283
 5803W        W71030   8.057  19.605   0.036
 5804W        W71031  13.690   6.897   0.929
 5805W        W71032  18.656  34.931  11.519
 5806W        W71033  16.219  36.103   2.259
 5807W        W71034  14.128  35.574   2.347
 5808W        W71035   4.543  15.173  10.133
 5809W        W71036  38.340   7.079   3.158
 5810W        W71037  25.655  29.525  10.341
 5811W        W71038  30.326   4.194   1.403
 5812W        W71039  10.138   9.177   1.711
 5813W        W71040   1.445  37.938   4.067
 5814W        W71041  35.416   2.744   4.234
 5815W        W71042  36.179   9.210  11.990
 5816W        W71043  42.622  28.514  12.879
 5817W        W71044   5.638  21.286   2.861
 5818W        W71045   3.119  19.649  11.354
 5819W        W71046   1.480   8.934   3.054
 5820W        W71047   8.180  21.074   1.494
 5821W        W71048  38.665  24.015   0.833
 5822W        W71049  13.128  21.842   1.260
 5823W        W71050   3.103  35.901   2.457
 5824W        W71051  21.135  16.088   3.779
 5825W        W71052  18.324  26.513  10.619
 5826W        W71053  30.376  36.097   3.629
 5827W        W71054  13.240  34.683   0.463
 5828W        W71055   5.320  37.329   0.894
 5829W        W71056  18.185  33.114  11.413
 5830W        W71057   6.403  12.505  10.768
 5831W        W71058  17.556  35.385  11.094
 5832W        W71059  16.052  20.130   1.337
 5833W        W71060  14.827  34.195  13.989
 5834W        W71061  15.116  34.816  13.394
 5835W        W71062  33.636  43.129  11.397
 5836W        W71063  12.781   1.814   0.724
 5837W        W71064  26.035   7.448   0.602
 5838W        W71065   7.253  33.157  11.214
 5839W        W71066   4.692  31.074   2.002
 5840W        W71067   6.153   9.663  12.352
 5841W        W71068   1.921  29.686   3.223
 5842W        W71069  26.379  26.212   2.364
 5843W        W71070  33.643  21.099   0.333
 5844W        W71071  30.629  17.362  13.021
 5845W        W71072  42.066   7.858   1.514
 5846W        W71073  36.795   3.532   1.174
 5847W        W71074  32.169  36.851   2.396
 5848W        W71075  32.421  33.075   2.300
 5849W        W71076  34.812  42.511  13.306
 5850W        W71077  39.328   2.866   2.652
 5851W        W71078   2.029  31.361   0.843
 5852W        W71079  25.998  29.749   4.482
 5853W        W71080  32.556  22.064  12.531
 5854W        W71081  41.849   0.316   2.044
 5855W        W71082  10.198  25.235  11.504
 5856W        W71083  12.728   1.804  10.775
 5857W        W71084  34.759   5.773   1.834
 5858W        W71085   7.834  20.200  11.235
 5859W        W71086  30.110  34.942   3.056
 5860W        W71087  33.644  25.541   1.770
 5861W        W71088  37.997   9.900  14.910
 5862W        W71089  24.544  16.829  13.435
 5863W        W71090  28.905  30.673  14.042
 5864W        W71091  28.198  33.148  14.115
 5865W        W71092  18.996  32.201   0.682
 5866W        W71093  10.716   9.597  14.013
 5867W        W71094  15.807  38.286   0.857
 5868W        W71095  14.655  35.044  14.209
 5869W        W71096  22.690  40.967   1.353
 5870W        W71097  25.610   8.371   4.136
 5871W        W71098  18.795  23.483   1.374
 5872W        W71099  25.117  10.413  11.934
 5873W        W71100  12.884   2.951   2.694
 5874W        W71101  13.194  14.321  12.494
 5875W        W71102   9.412   5.400   1.437
 5876W        W71103   0.435  29.383   1.723
 5877W        W71104  15.588  24.962   4.512
 5878W        W71105  27.420  40.373  11.976
 5879W        W71106   9.712  24.308   4.448
 5880W        W71107  23.972  29.846   4.139
 5881W        W71108  28.932  29.613   3.996
 5882W        W71109   3.995  39.882  14.477
 5883W        W71110  33.279  20.571   2.885
 5884W        W71111  42.710  21.210   4.615
 5885W        W71112   8.454  39.525   4.511
 5886W        W71113  34.944  31.138   0.397
 5887W        W71114  42.013  36.464  14.419
 5888W        W71115   4.060   9.869   4.135
 5889W        W71116  30.667  41.966  10.456
 5890W        W71117  27.490   7.867   4.098
 5891W        W71118  39.279   5.994  12.213
 5892W        W71119  15.057  34.938  13.899
 5893W        W71120  23.012  27.732   0.173
 5894W        W71121  43.339  29.903   3.622
 5895W        W71122  30.028  14.042   0.900
 5896W        W71123  42.585  29.534   2.034
 5897W        W71124  28.490   0.240   3.206
 5898W        W71125  30.499   0.604   1.419
 5899W        W71126   5.686  15.718  12.106
 5900W        W71127  19.515  34.756  14.676
 5901W        W71128  12.125  42.805  12.629
 5902W        W71129  32.041   2.669   0.648
 5903W        W71130  37.270  30.587  12.524
 5904W        W71131  14.145  26.412   1.333
 5905W        W71132  10.629  12.847  11.090
 5906W        W71133  15.209  33.891  10.704
 5907W        W71134  42.476  11.606  13.690
 5908W        W71135  38.650   7.075  12.911
 5909W        W71136  23.042  30.456   1.072
 5910W        W71137  13.216  29.981   2.587
 5911W        W71138   3.775  36.576  13.414
 5912W        W71139   3.500  14.419  10.526
 5913W        W71140  41.949   1.238   0.869
 5914W        W71141  28.184  17.838  13.049
 5915W        W71142  13.499  24.167  11.583
 5916W        W71143  24.003  12.513  14.380
 5917W        W71144  14.978  30.557  10.607
 5918W        W71145   0.689  11.663   1.365
 5919W        W71146  27.468  29.839   2.833
 5920W        W71147  20.800  19.931   3.113
 5921W        W71148  40.863  13.128   1.323
 5922W        W71149  23.084  13.247   0.396
 5923W        W71150  21.078  16.566   2.436
 5924W        W71151  25.934  34.008   0.776
 5925W        W71152  19.443  23.678  12.977
 5926W        W71153   3.845  35.147  13.468
 5927W        W71154  11.855  39.010   3.760
 5928W        W71155  29.659  24.195  13.451
 5929W        W71156   6.704  23.776   3.739
 5930W        W71157  21.603  22.205  11.952
 5931W        W71158  35.358   1.190   3.286
 5932W        W71159  13.828  31.717  10.704
 5933W        W71160  21.966  24.212  13.516
 5934W        W71161   8.778   1.276  12.384
 5935W        W71162   5.972  30.520  11.479
 5936W        W71163  37.628  40.986  13.105
 5937W        W71164   3.639  27.905  11.127
 5938W        W71165   0.295  16.543  10.330
 5939W        W71166  22.748  17.629   3.660
 5940W        W71167  25.551  35.106   1.270
 5941W        W71168  18.939  29.397  10.642
 5942W        W71169  32.664  12.783   2.483
 5943W        W71170  19.493  34.307  12.884
 5944W        W71171  34.488  27.487  12.573
 5945W        W71172   2.058  40.425   2.437
 5946W        W71173  44.769  21.284   5.546
 5947W        W71174  37.771  11.863   3.169
 5948W        W71175  34.819  15.421   0.204
 5949W        W71176  31.125  32.186   0.720
 5950W        W71177  31.488  26.680  13.945
 5951W        W71178   4.334  40.887  11.178
 5952W        W71179  20.355  44.409   3.710
 5953W        W71180  22.580  42.976   3.666
 5954W        W71181  36.397  44.983   2.352
 5955W        W71182  11.944  22.358   4.088
 5956W        W71183   8.228   8.740  11.111
 5957W        W71184   6.516   8.746   2.734
 5958W        W71185   7.449  37.977  10.537
 5959W        W71186  19.737  21.729   4.008
 5960W        W71187  31.701  20.805  12.567
 5961W        W71188   5.619  12.183  12.216
 5962W        W71189  31.165  22.102   0.982
 5963W        W71190  21.538  20.277  13.892
 5964W        W71191  21.017  35.089   2.178
 5965W        W71192  23.977  15.343   0.891
 5966W        W71193  17.090   5.814  13.445
 5967W        W71194  23.646  32.130   2.202
 5968W        W71195  40.823  16.722  11.749
 5969W        W71196  23.455  26.462  11.608
 5970W        W71197   9.926  30.306  13.815
 5971W        W71198  10.789  24.922   3.449
 5972W        W71199   3.823  40.381   2.124
 5973W        W71200  16.122  41.241   5.280
 5974W        W71201   1.404  26.705  14.369
 5975W        W71202  38.348  38.117  11.826
 5976W        W71203   4.301  16.929   5.486
 5977W        W71204  29.112  11.683   0.300
 5978W        W71205  11.751   9.886  12.994
 5979W        W71206  34.260  38.307   0.784
 5980W        W71207  33.174   9.833   1.331
 5981W        W71208  21.858  12.631   0.297
 5982W        W71209  41.829  31.877  11.535
 5983W        W71210  29.831  36.117  13.371
 5984W        W71211  36.603  41.975  11.281
 5985W        W71212  14.094  34.050  14.776
 5986W        W71213  17.075  43.915  12.398
 5987W        W71214  10.561   5.434  13.441
 5988W        W71215  40.328  44.566  11.602
 5989W        W71216  31.060   9.337  12.120
 5990W        W71217  39.005   6.685   2.680
 5991W        W71218  35.362  16.248  14.282
 5992W        W71219  11.894  32.150   1.731
 5993W        W71220  35.573  26.799   0.877
 5994W        W71221  39.785  26.347   4.733
 5995W        W71222  17.640   4.821  14.996
 5996W        W71223  40.334  24.695  14.649
 5997W        W71224  23.713  25.205  14.001
 5998W        W71225  26.564  32.601  11.570
 5999W        W71226  17.834  26.672  12.573
 6000W        W71227  37.067  16.237  13.584
 6001W        W71228  14.773  14.793   2.372
 6002W        W71229  41.832  25.890   4.424
 6003W        W71230  17.881  22.142  13.978
 6004W        W71231  12.138  32.168  14.000
 6005W        W71232  42.083  13.215   2.685
 6006W        W71233  21.906  20.281   4.166
 6007W        W71234  27.718  42.014   2.230
 6008W        W71235   2.674  29.458  14.234
 6009W        W71236  29.512  21.562   4.475
 6010W        W71237   8.712  13.733  10.956
 6011W        W71238  11.918   4.782   3.585
 6012W        W71239   7.160  30.412   1.780
 6013W        W71240  25.167   7.124  14.360
 6014W        W71241  21.432   8.638   1.606
 6015W        W71242  35.214  21.360   2.368
 6016W        W71243   9.748  12.885   3.897
 6017W        W71244  43.294  37.335   4.237
 6018W        W71245  43.092  28.636  14.933
 6019W        W71246  35.997   3.145   2.723
 6020W        W71247  28.611  24.629  13.856
 6021W        W71248  21.502   5.400  12.493
 6022W        W71249  36.888  12.124   0.261
 6023W        W71250   6.612  20.362   3.227
 6024W        W71251  16.851  34.571   4.654
 6025W        W71252  26.191  44.401  14.711
 6026W        W71253  22.407  37.746  14.133
 6027W        W71254  19.780  36.400  11.689
 6028W        W71255  30.482  44.568   3.122
 6029W        W71256  25.132   0.702  13.830
 6030W        W71257  26.689  20.588  10.965
 6031W        W71258  21.894  33.351  12.478
 6032W        W71259  28.016  28.071   4.695
 6033W        W71260  38.785  17.444  14.793
 6034W        W71261  27.272  33.568   0.304
 6035W        W71262   3.384  37.108   9.978
 6036W        W71263   9.231  17.837  11.160
 6037W        W71264  35.318   6.769   4.560
 6038W        W71265  41.911  29.509  12.015
 6039W        W71266  38.514  38.483   1.320
 6040W        W71267   9.937  39.442   3.291
 6041W        W71268  24.702  10.927  12.539
 6042W        W71269  21.398   8.135  11.136
 6043W        W71270  22.149  17.630  13.390
 6044W        W71271  39.005  38.357  14.310
 6045W        W71272  16.199  26.375   2.249
 6046W        W71273  34.424  37.992  14.372
 6047W        W71274  25.498  41.809   3.907
 6048W        W71275  38.346   0.348   1.223
 6049W        W71276  32.451   6.106  11.963
 6050W        W71277   7.659   6.023  14.373
 6051W        W71278   7.635   6.603  14.871
 6052W        W71279  27.521  26.238   3.720
 6053W        W71280  31.944  18.627   1.041
 6054W        W71281  33.174   7.780   0.345
 6055W        W71282  19.736  39.120  14.009
 6056W        W71283   7.871  14.325  10.698
 6057W        W71284  17.483  39.520  12.072
 6058W        W71285  43.514  33.526   3.730
 6059W        W71286  31.333  13.190   0.850
 6060W        W71287  33.649  12.721  14.908
 6061W        W71288   1.388  33.328   0.905
 6062W        W71289  33.381   5.083   4.575
 6063W        W71290   1.949  12.367  11.609
 6064W        W71291  19.153  33.565   0.556
 6065W        W71292  23.076  33.868   4.270
 6066W        W71293   4.163   9.457   3.167
 6067W        W71294  32.861  37.000  12.884
 6068W        W71295  24.131  14.073   0.746
 6069W        W71296  21.086  22.280  14.247
 6070W        W71297  41.676  41.555  12.650
 6071W        W71298   6.784  22.016   2.380
 6072W        W71299  28.137  10.422  14.406
 6073W        W71300   2.350   3.695   3.735
 6074W        W71301  21.526   2.232  11.038
 6075W        W71302  36.436  15.246  14.488
 6076W        W71303  19.373  11.239   3.667
 6077W        W71304  33.070  24.166  11.140
 6078W        W71305  17.142  44.863   3.175
 6079W        W71306  36.470  31.962   2.102
 6080W        W71307  14.664  34.816   2.835
 6081W        W71308   0.818  40.146  10.270
 6082W        W71309  11.730   7.360  10.564
 6083W        W71310  41.437  35.851  13.140
 6084W        W71311  42.055  42.337  13.334
 6085W        W71312  40.157  43.056   9.796
 6086W        W71313  22.066   0.962  12.898
 6087W        W71314  37.636  19.106   0.901
 6088W        W71315   3.219   4.720  12.521
 6089W        W71316  29.735   2.615   3.294
 6090W        W71317  21.592  25.381   3.301
 6091W        W71318  18.349  25.037  10.710
 6092W        W71319   6.949  14.348   0.351
 6093W        W71320  26.856  39.875   0.016
 6094W        W71321   1.003  27.181   2.635
 6095W        W71322  15.022  14.225  11.613
 6096W        W71323  15.776  10.274   0.920
 6097W        W71324  19.784  21.716  11.229
 6098W        W71325  29.726  31.949  13.760
 6099W        W71326  43.443   4.899   1.351
 6100W        W71327  19.126  33.141   0.249
 6101W        W71328   0.800   8.373   4.827
 6102W        W71329  14.734  31.188  10.743
 6103W        W71330  27.400  32.413   1.453
 6104W        W71331   0.874   1.339   4.061
 6105W        W71332  21.025  17.366  10.944
 6106W        W71333  18.569  15.281   1.551
 6107W        W71334  40.902  10.255   1.300
 6108W        W71335  27.311   6.906   1.219
 6109W        W71336   1.728  18.809   0.294
 6110W        W71337   3.676  17.675  13.490
 6111W        W71338  36.970  20.402  14.904
 6112W        W71339  24.037  15.772   1.627
 6113W        W71340  15.085   5.122  11.147
 6114W        W71341   1.051  32.453  13.441
 6115W        W71342  29.811  36.968   0.599
 6116W        W71343   1.435  35.366   3.684
 6117W        W71344  19.982  15.942  13.466
 6118W        W71345   6.517  24.176   0.921
 6119W        W71346  32.363  39.429   0.224
 6120W        W71347  10.799  41.201   0.828
 6121W        W71348  39.066   5.786  14.062
 6122W        W71349  37.255  41.118  13.510
 6123W        W71350  35.541   5.522   4.078
 6124W        W71351  15.580  28.119  14.730
 6125W        W71352   0.988   5.890   2.330
 6126W        W71353  21.696   3.243   1.769
 6127W        W71354  11.383   0.458  11.769
 6128W        W71355   1.310  28.127  13.375
 6129W        W71356   0.430  29.153   2.173
 6130W        W71357  36.581  43.568  13.919
 6131W        W71358  33.609  19.478  12.473
 6132W        W71359  21.294  29.661  11.438
 6133W        W71360   4.033  31.628   1.021
 6134W        W71361  30.091   5.385  14.790
 6135W        W71362  21.802  40.434  10.698
 6136W        W71363  37.134   2.288  10.792
 6137W        W71364  40.786   4.818  14.011
 6138W        W71365   1.336  27.449   1.414
 6139W        W71366  30.610  17.644  12.149
 6140W        W71367  16.622   9.302  14.392
 6141W        W71368  26.513  34.089  13.448
 6142W        W71369  36.393  29.023  12.794
 6143W        W71370  36.016  40.010   3.648
 6144W        W71371   6.393  38.013  14.820
 6145W        W71372  32.894  12.105  14.390
 6146W        W71373   0.815   8.829   1.395
 6147W        W71374  11.254  21.416   3.087
 6148W        W71375  13.868  18.039   0.212
 6149W        W71376  30.670   8.306  13.049
 6150W        W71377  15.171  18.003   0.371
 6151W        W71378  36.463  24.701   4.184
 6152W        W71379   4.814  40.233  11.948
 6153W        W71380  36.693  31.846  10.015
 6154W        W71381  17.486  35.055   4.577
 6155W        W71382   2.284  40.416   1.520
 6156W        W71383   3.328  35.380  12.587
 6157W        W71384   2.946  12.728  11.608
 6158W        W71385   1.651  37.863   2.729
 6159W        W71386   7.832  15.774  12.067
 6160W        W71387  13.117  14.618   1.918
 6161W        W71388  23.917   5.303   4.809
 6162W        W71389  11.170  15.085   2.791
 6163W        W71390  22.801  12.175  11.633
 6164W        W71391  24.617  44.575  11.610
 6165W        W71392  28.948   9.890   4.497
 6166W        W71393  27.250  13.090   0.748
 6167W        W71394   5.298  40.442  12.046
 6168W        W71395  38.528  33.521   0.958
 6169W        W71396  26.970  43.914   9.742
 6170W        W71397  20.427  24.258   0.765
 6171W        W71398  11.802  29.564  13.431
 6172W        W71399  16.281  44.469   1.793
 6173W        W71400  24.465  13.714   2.785
 6174W        W71401  39.734  25.944   1.142
 6175W        W71402  29.358  22.151   3.751
 6176W        W71403  16.361  23.211   3.689
 6177W        W71404  34.990  30.475  12.255
 6178W        W71405  18.535  17.505   0.916
 6179W        W71406   0.236  10.435  12.923
 6180W        W71407  11.851  28.096   3.562
 6181W        W71408   2.370  38.865  10.578
 6182W        W71409   1.556  37.490  14.397
 6183W        W71410  12.138  22.759   0.987
 6184W        W71411  39.893  37.810  12.964
 6185W        W71412   2.569  17.252  10.806
 6186W        W71413  28.566  36.495   0.679
 6187W        W71414  20.334  22.606  14.805
 6188W        W71415   7.931  39.824  13.141
 6189W        W71416  22.083  22.859  13.310
 6190W        W71417  17.377  39.937  14.941
 6191W        W71418  21.028  19.559   0.914
 6192W        W71419   5.293  12.153  11.736
 6193W        W71420  19.616  44.681   4.224
 6194W        W71421  43.478  23.786  13.046
 6195W        W71422  32.409  44.844   0.373
 6196W        W71423  22.585  34.099  14.468
 6197W        W71424  33.012   8.860  11.339
 6198W        W71425  34.039  22.471  12.380
 6199W        W71426  32.451  28.174   0.803
 6200W        W71427  25.138  24.205   3.211
 6201W        W71428   7.524  27.459   3.094
 6202W        W71429  22.790   5.256  12.926
 6203W        W71430  23.807  23.579   0.705
 6204W        W71431  32.215  10.113  12.940
 6205W        W71432  27.712  40.170  12.846
 6206W        W71433  30.081  33.850  13.797
 6207W        W71434  26.229   0.708  14.550
 6208W        W71435  31.456  43.360   2.564
 6209W        W71436  29.054  25.012  11.102
 6210W        W71437   3.317   7.121   2.120
 6211W        W71438  19.507  44.441   4.725
 6212W        W71439  20.158   5.234   3.888
 6213W        W71440   0.861   0.258   1.846
 6214W        W71441  28.945   1.496   1.376
 6215W        W71442   8.681   8.399   1.753
 6216W        W71443  20.040  37.575   1.043
 6217W        W71444  21.720   7.062   3.032
 6218W        W71445  43.291  21.106   2.213
 6219W        W71446  20.206   9.065  13.067
 6220W        W71447  42.418  34.425  13.861
 6221W        W71448  31.977  13.878  10.520
 6222W        W71449  29.010  25.918  14.047
 6223W        W71450  34.244  44.640  12.516
 6224W        W71451  29.942  39.029  10.609
 6225W        W71452  14.267   7.775   2.332
 6226W        W71453   1.942   6.364  10.711
 6227W        W71454   9.971  13.275   3.236
 6228W        W71455  21.568   9.246  13.799
 6229W        W71456  31.325  25.757   2.195
 6230W        W71457  29.450   6.501   0.473
 6231W        W71458  15.707   2.352  13.264
 6232W        W71459  27.671  42.397  14.906
 6233W        W71460  26.685  22.241   0.344
 6234W        W71461  42.713   1.808  12.405
 6235W        W71462  32.435  37.325   1.611
 6236W        W71463  32.264  37.337  13.915
 6237W        W71464  35.878  17.115  11.585
 6238W        W71465  11.649   0.049   2.737
 6239W        W71466   2.949  20.227   2.753
 6240W        W71467  40.125  23.064   0.323
 6241W        W71468  26.762  35.504   4.105
 6242W        W71469  44.854  34.512   2.642
 6243W        W71470  44.264   4.933   0.782
 6244W        W71471  10.204   7.316  14.392
 6245W        W71472   9.912  30.819  13.918
 6246W        W71473  37.449   6.340  12.823
 6247W        W71474  43.340  15.548   4.198
 6248W        W71475  25.675  28.550  14.975
 6249W        W71476  11.265  35.779  13.127
 6250W        W71477  24.219   1.372   1.934
 6251W        W71478   0.020   2.897  13.849
 6252W        W71479  36.273   9.160  14.893
 6253W        W71480  13.716  39.534  14.580
 6254W        W71481  40.624  39.063   9.784
 6255W        W71482  36.937  10.121  11.094
 6256W        W71483  13.557   2.036  13.196
 6257W        W71484  22.922  11.813  12.523
 6258W        W71485  43.802  33.602   0.477
 6259W        W71486  31.168  24.639   4.230
 6260W        W71487  26.753   5.029  11.467
 6261W        W71488  18.053  30.121   3.292
 6262W        W71489  34.232   5.352   0.433
 6263W        W71490  14.610  22.572   2.370
 6264W        W71491   9.689  36.077   3.178
 6265W        W71492  26.775  15.331   2.586
 6266W        W71493  20.486  15.230  14.473
 6267W        W71494  39.499  23.651   0.142
 6268W        W71495  20.401  10.310  11.679
 6269W        W71496  32.293   3.012   3.212
 6270W        W71497  15.235  10.425   4.661
 6271W        W71498   2.966  42.443   3.763
 6272W        W71499  22.109  19.987   2.684
 6273W        W71500   3.319   3.784  10.812
 6274W        W71501  27.765  33.188  12.040
 6275W        W71502  32.440  32.678   0.774
 6276W        W71503  24.481  32.096  10.404
 6277W        W71504   8.427  27.112   0.343
 6278W        W71505   0.181  43.383   3.068
 6279W        W71506  12.607  19.788  11.608
 6280W        W71507   4.384  26.992   3.708
 6281W        W71508  27.950  34.329   0.331
 6282W        W71509  40.485  10.828   3.732
 6283W        W71510   6.291  19.000   2.267
 6284W        W71511   9.933  37.129  11.196
 6285W        W71512  25.657  29.297  14.266
 6286W        W71513  31.931  30.047   1.796
 6287W        W71514  28.010  20.337   4.112
 6288W        W71515  21.075  33.413   2.114
 6289W        W71516   1.604  16.082   3.513
 6290W        W71517   5.669  26.962  12.050
 6291W        W71518  22.501  16.644  14.847
 6292W        W71519  43.587  10.818   1.774
 6293W        W71520  27.003  30.135   4.690
 6294W        W71521  39.771  26.990  11.567
 6295W        W71522  42.431  44.497  12.061
 6296W        W71523   3.729   4.610  13.291
 6297W        W71524   2.205  31.925  14.081
 6298W        W71525   3.078  34.417   0.445
 6299W        W71526   9.165  44.896  12.638
 6300W        W71527  18.804   5.092  11.140
 6301W        W71528   5.885  17.384  11.633
 6302W        W71529   6.461  43.073   3.287
 6303W        W71530  15.529  21.743  14.809
 6304W        W71531  42.476  30.463   4.703
 6305W        W71532  40.335  21.018  14.489
 6306W        W71533  18.330   5.230   2.089
 6307W        W71534  22.657   8.404   3.806
 6308W        W71535   8.561  13.671   0.249
 6309W        W71536  34.035  21.177  12.231
 6310W        W71537  18.545  43.142  11.575
 6311W        W71538  43.463  25.425   4.888
 6312W        W71539  22.961  40.145  11.167
 6313W        W71540  17.146   5.000   3.601
 6314W        W71541  26.085  29.557  13.931
 6315W        W71542  42.410  16.630   1.800
 6316W        W71543  34.109  26.513   3.678
 6317W        W71544  23.001   8.178   2.341
 6318W        W71545  30.951   7.838   3.226
 6319W        W71546  12.020   2.925   4.726
 6320W        W71547  39.365  25.088   3.042
 6321W        W71548   5.468  40.481   1.295
 6322W        W71549  43.942  10.824   1.386
 6323W        W71550  20.998   4.929   5.138
 6324W        W71551   9.619  13.710   1.723
 6325W        W71552  19.621  35.906  14.074
 6326W        W71553   6.664   2.839   0.398
 6327W        W71554   7.085  35.475   2.701
 6328W        W71555  37.562   9.141   0.431
 6329W        W71556  34.564  32.496   1.388
 6330W        W71557  14.588  38.036  10.657
 6331W        W71558  38.538   1.703  13.794
 6332W        W71559  34.159   1.974   3.911
 6333W        W71560  43.358  29.879   1.957
 6334W        W71561  30.048   5.591   1.777
 6335W        W71562  44.308  36.830   3.134
 6336W        W71563  28.456  10.533   3.592
 6337W        W71564  42.227  38.462  11.518
 6338W        W71565  12.891  15.241  11.664
 6339W        W71566  40.038  33.105  11.188
 6340W        W71567   8.415  12.264   1.230
 6341W        W71568  18.729  24.681   0.696
 6342W        W71569  32.582  26.537   1.779
 6343W        W71570  16.576   8.118  12.107
 6344W        W71571  36.476  37.262   3.670
 6345W        W71572  11.766  24.962  13.551
 6346W        W71573  17.940  31.037   3.169
 6347W        W71574  39.566   3.391  13.251
 6348W        W71575  35.587  32.213  14.026
 6349W        W71576   4.053   2.707  12.296
 6350W        W71577   6.111  28.444  12.846
 6351W        W71578  32.949  11.748  13.397
 6352W        W71579  39.238  37.639  10.951
 6353W        W71580  38.952  37.809   1.392
 6354W        W71581  28.730  19.943   4.785
 6355W        W71582  27.900  39.088   0.732
 6356W        W71583  42.684  24.248   0.388
 6357W        W71584  25.998   1.157   0.381
 6358W        W71585  27.146  31.708  13.557
 6359W        W71586  33.629  44.212  13.959
 6360W        W71587  12.160  40.200   4.487
 6361W        W71588   2.768   7.894   0.348
 6362W        W71589   5.068  12.466  13.486
 6363W        W71590  31.932  12.107  12.825
 6364W        W71591   2.342  25.166  12.010
 6365W        W71592  25.341   7.788   2.628
 6366W        W71593  21.636  23.189   1.734
 6367W        W71594  41.043   7.301   1.579
 6368W        W71595   2.329  20.941   4.605
 6369W        W71596  37.931  33.770   0.789
 6370W        W71597  32.316  28.709  12.658
 6371W        W71598   1.012  16.839  10.651
 6372W        W71599  12.791  19.113  13.974
 6373W        W71600  17.770   6.168   0.885
 6374W        W71601   2.538  15.772  10.717
 6375W        W71602  13.326  42.446  14.453
 6376W        W71603  40.703  18.715   0.874
 6377W        W71604  30.082   8.177  10.737
 6378W        W71605  29.663  44.420   4.225
 6379W        W71606  43.283  25.959  13.619
 6380W        W71607  35.601  32.734   3.072
 6381W        W71608  44.055  24.849   5.259
 6382W        W71609  23.267  33.999   1.087
 6383W        W71610  39.875   6.666   0.303
 6384W        W71611  19.595  14.159   1.905
 6385W        W71612  26.193  18.530   4.121
 6386W        W71613  12.172  36.204  10.454
 6387W        W71614   6.373  16.772  13.803
 6388W        W71615  27.731  12.517   1.450
 6389W        W71616  41.822  41.787  11.204
 6390W        W71617  16.357   8.334  12.532
 6391W        W71618  43.690  18.192  13.118
 6392W        W71619  21.132   9.318   2.620
 6393W        W71620   6.381   6.773  12.611
 6394W        W71621  44.484  18.912   2.225
 6395W        W71622  23.618  28.685   3.656
 6396W        W71623   3.841  39.805  12.228
 6397W        W71624   7.787   1.893  14.370
 6398W        W71625  12.625  41.379  14.383
 6399W        W71626  40.050   7.432  14.452
 6400W        W71627  21.679  24.571  12.880
 6401W        W71628  17.764   6.652  14.061
 6402W        W71629   3.437   3.661   4.183
 6403W        W71630  35.819  19.379  12.486
 6404W        W71631  34.066  10.936  13.426
 6405W        W71632  32.485  22.227  13.497
 6406W        W71633   2.073  32.228  13.666
 6407W        W71634  41.973  40.304  12.943
 6408W        W71635  33.983  13.112  13.847
 6409W        W71636  22.966  36.862  11.582
 6410W        W71637  11.394  42.248  13.480
 6411W        W71638   1.381   7.102  11.450
 6412W        W71639  41.898  36.067   2.592
 6413W        W71640  38.856  22.079   2.683
 6414W        W71641  15.510  41.429   4.075
 6415W        W71642  16.212   0.887   0.534
 6416W        W71643  27.884  31.965  14.872
 6417W        W71644  44.721  43.137   3.843
 6418W        W71645   4.263  17.973   2.541
 6419W        W71646   7.275  23.745   4.663
 6420W        W71647  24.066  43.551  14.230
 6421W        W71648  24.999  29.665   1.195
 6422W        W71649  31.740  39.979   4.040
 6423W        W71650  13.453   2.284  12.682
 6424W        W71651  17.167   7.921   2.833
 6425W        W71652  42.046  12.227  10.663
 6426W        W71653  34.015  25.502   0.841
 6427W        W71654  15.381  21.713   1.686
 6428W        W71655   0.847   5.211  12.598
 6429W        W71656  30.720  30.028  13.538
 6430W        W71657  29.883  26.833   2.600
 6431W        W71658   2.194  28.102   1.397
 6432W        W71659  36.615   8.955  12.337
 6433W        W71660  28.690  16.114  11.077
 6434W        W71661  17.984  27.582  13.023
 6435W        W71662  15.137  31.864  10.474
 6436W        W71663  37.321  36.964  12.573
 6437W        W71664  31.555   9.191  14.789
 6438W        W71665  26.893   8.652  14.890
 6439W        W71666  27.052  41.793   1.318
 6440W        W71667  36.968  40.898  13.133
 6441W        W71668  43.384  20.199  14.590
 6442W        W71669  41.097  25.078  14.829
 6443W        W71670  28.048  16.617   1.694
 6444W        W71671  20.158  36.276   2.650
 6445W        W71672  29.007  34.328   2.933
 6446W        W71673  24.498   5.288  10.978
 6447W        W71674  44.735  11.912   3.731
 6448W        W71675  34.153  15.020  13.480
 6449W        W71676  31.413   3.340   1.882
 6450W        W71677   3.865  16.026   4.359
 6451W        W71678  11.715  22.916   0.678
 6452W        W71679   8.152  22.624   3.095
 6453W        W71680  17.995  43.305  14.924
 6454W        W71681   8.640  12.814   4.302
 6455W        W71682  21.780  32.469  12.459
 6456W        W71683  29.165  40.492   3.415
 6457W        W71684  32.966  36.362  13.425
 6458W        W71685   0.726  19.736   1.344
 6459W        W71686  17.610  20.041  14.572
 6460W        W71687  18.114   0.839   2.962
 6461W        W71688  41.365  32.938  11.230
 6462W        W71689  38.719  41.453   0.953
 6463W        W71690  45.000  15.150   2.188
 6464W        W71691  40.943   2.747  10.587
 6465W        W71692  14.616  16.827  10.774
 6466W        W71693   3.482  35.381   0.909
 6467W        W71694  28.018   0.947  13.020
 6468W        W71695  15.250  44.819  10.730
 6469W        W71696  29.651   9.095   1.767
 6470W        W71697   3.954   7.848  14.354
 6471W        W71698  29.215   4.420  13.331
 6472W        W71699  41.951  34.186  11.259
 6473W        W71700  21.526  26.998  13.701
 6474W        W71701  28.573  44.312  11.560
 6475W        W71702  39.174   2.542  10.678
 6476W        W71703  29.132  15.472  12.678
 6477W        W71704  34.546  23.250   1.471
 6478W        W71705  15.710  18.201   4.131
 6479W        W71706  30.552   2.909  13.392
 6480W        W71707  37.837   8.976  14.958
 6481W        W71708  27.121  39.587   3.671
 6482W        W71709  21.669  32.868   0.204
 6483W        W71710  17.123  30.199   1.168
 6484W        W71711  36.808   8.380   2.786
 6485W        W71712   3.400  14.576  12.411
 6486W        W71713  27.460  27.645   2.706
 6487W        W71714  30.941   4.798   1.472
 6488W        W71715  26.328   5.242  13.500
 6489W        W71716   9.121  15.280  14.336
 6490W        W71717  13.545  18.785  10.686
 6491W        W71718  19.978   0.425  14.527
 6492W        W71719   0.745  10.154   4.215
 6493W        W71720  11.023  42.272   2.093
 6494W        W71721  32.350  22.075  10.693
 6495W        W71722  38.303   1.230   0.368
 6496W        W71723  11.558  35.126   0.809
 6497W        W71724  30.969  18.436   2.898
 6498W        W71725  37.143  36.014  12.470
 6499W        W71726  21.973  33.637  14.524
 6500W        W71727  44.326  28.178   2.799
 6501W        W71728   2.192  34.849  12.586
 6502W        W71729   0.818   1.224  11.914
 6503W        W71730   8.778  12.361  12.561
 6504W        W71731  19.528  36.341  14.331
 6505W        W71732   5.192  41.698  13.001
 6506W        W71733  24.919  14.063  14.834
 6507W        W71734  18.712  12.035  12.036
 6508W        W71735  33.114  31.550   0.344
 6509W        W71736  10.631  20.096   1.952
 6510W        W71737  20.559   4.601   3.306
 6511W        W71738   8.130   1.113  12.083
 6512W        W71739   3.545   0.450  12.509
 6513W        W71740  26.817  13.200   3.324
 6514W        W71741   6.930  12.510   4.172
 6515W        W71742  41.344  30.855   4.132
 6516W        W71743  33.625  13.674   1.214
 6517W        W71744   5.245  30.941   2.129
 6518W        W71745   2.600   9.941   1.993
 6519W        W71746  27.497  21.555  12.501
 6520W        W71747   9.873  37.604  14.669
 6521W        W71748  17.016  12.359   4.591
 6522W        W71749  12.331  18.858  14.073
 6523W        W71750  20.029  23.637   1.705
 6524W        W71751  21.345   2.719  13.103
 6525W        W71752  37.258  12.006   3.364
 6526W        W71753  30.158  38.476  13.480
 6527W        W71754  29.736   3.913  13.995
 6528W        W71755   0.787  22.981  11.121
 6529W        W71756  11.725  34.416  12.084
 6530W        W71757  12.079  20.249   1.098
 6531W        W71758  44.049  44.928  12.442
 6532W        W71759   1.331  39.031   0.933
 6533W        W71760  36.403  41.355   0.861
 6534W        W71761  31.642  32.061   0.524
 6535W        W71762  30.730  39.390   3.810
 6536W        W71763   0.973  11.105   2.216
 6537W        W71764  13.242  30.666  11.145
 6538W        W71765   9.911  21.732  12.513
 6539W        W71766   4.812  35.622   2.475
 6540W        W71767  17.738  14.814  10.662
 6541W        W71768  17.602  19.639  14.180
 6542W        W71769  37.446   0.611   4.524
 6543W        W71770  17.928  32.301   4.229
 6544W        W71771  39.980  15.315  14.496
 6545W        W71772   8.241  25.461   1.764
 6546W        W71773   1.523  43.514  12.574
 6547W        W71774   2.077  11.143  14.718
 6548W        W71775  14.223  12.682   4.361
 6549W        W71776   0.501  32.088  12.690
 6550W        W71777   5.194  17.656   4.547
 6551W        W71778  39.391  31.078  11.997
 6552W        W71779  24.953   8.583  12.468
 6553W        W71780   9.103   6.813  11.048
 6554W        W71781  37.962   0.322  12.546
 6555W        W71782  25.725  25.601  13.348
 6556W        W71783   3.486  34.568   3.592
 6557W        W71784  27.749  32.911   4.484
 6558W        W71785   0.969   0.547   2.708
 6559W        W71786  25.096   8.359   0.843
 6560W        W71787  24.572   7.138  13.086
 6561W        W71788   8.713   2.875  11.148
 6562W        W71789   4.907  18.948   4.264
 6563W        W71790   4.487  13.965   5.196
 6564W        W71791  42.233  24.498   0.263
 6565W        W71792  17.730  29.209  12.407
 6566W        W71793  40.994  35.942  14.837
 6567W        W71794  36.561  41.874   0.829
 6568W        W71795  31.990  30.360   3.413
 6569W        W71796   1.102   7.716  13.407
 6570W        W71797  28.608  35.488   0.288
 6571W        W71798  35.030  36.595   4.838
 6572W        W71799  34.479  42.204  10.494
 6573W        W71800  19.999   7.887   4.569
 6574W        W71801  20.111  29.421   4.662
 6575W        W71802  19.335  39.469  10.578
 6576W        W71803  18.171  27.170   1.211
 6577W        W71804   2.556   8.803   1.341
 6578W        W71805  35.973  43.059   1.407
 6579W        W71806  35.034  15.016   3.366
 6580W        W71807  16.712   2.898  14.896
 6581W        W71808  13.118  29.533   2.822
 6582W        W71809  26.565  14.634  14.871
 6583W        W71810   7.855   2.731   2.633
 6584W        W71811  27.342  23.988   3.835
 6585W        W71812  19.139  10.323   0.015
 6586W        W71813  27.598  26.072  13.199
 6587W        W71814  36.734  27.307  13.265
 6588W        W71815  18.256  31.163  13.390
 6589W        W71816  41.266  42.972  11.603
 6590W        W71817  38.055   9.475  14.065
 6591W        W71818  29.398  35.010  11.385
 6592W        W71819  26.704  25.090  14.020
 6593W        W71820  18.604  17.040   4.104
 6594W        W71821  11.617  31.736  11.862
 6595W        W71822  39.675  25.255   0.878
 6596W        W71823  26.216   2.674   4.634
 6597W        W71824  42.989  22.998   2.309
 6598W        W71825  28.867  34.922   3.155
 6599W        W71826   2.360  26.059   4.808
 6600W        W71827  19.293   5.862  12.171
 6601W        W71828  44.968  21.676  14.834
 6602W        W71829  36.797  28.448   0.448
 6603W        W71830   8.797  27.222  13.884
 6604W        W71831  44.377  42.483   4.291
 6605W        W71832   7.225  21.273  12.112
 6606W        W71833  23.472  22.058  12.780
 6607W        W71834  33.063  34.018   3.766
 6608W        W71835  37.999  36.754  12.143
 6609W        W71836   6.455  41.039  12.937
 6610W        W71837  11.692  13.870   1.696
 6611W        W71838  44.139  30.029   0.032
 6612W        W71839  27.139   9.881   4.324
 6613W        W71840  10.251  14.342   4.109
 6614W        W71841   5.795  27.394  10.700
 6615W        W71842  16.586  36.881   2.890
 6616W        W71843  25.803  30.962   0.968
 6617W        W71844  28.372  23.154   3.819
 6618W        W71845   9.749   6.211  12.465
 6619W        W71846   6.022  39.329  14.682
 6620W        W71847  20.224  13.860   4.883
 6621W        W71848  40.239  15.308   3.713
 6622W        W71849  22.384   5.921   2.763
 6623W        W71850  41.321  26.967   3.685
 6624W        W71851   2.156  39.568   3.772
 6625W        W71852  11.757  15.653   2.269
 6626W        W71853   3.859  16.077   1.746
 6627W        W71854  12.114  22.684   0.470
 6628W        W71855  36.711  38.691  11.658
 6629W        W71856  38.779  35.073  13.966
 6630W        W71857   0.251   8.835  10.794
 6631W        W71858  23.842  28.824  14.920
 6632W        W71859   3.741  12.235   2.588
 6633W        W71860  35.581  26.222  12.799
 6634W        W71861  44.518   7.610   0.553
 6635W        W71862  17.656  27.458   4.247
 6636W        W71863  30.444   6.728  13.831
 6637W        W71864  11.016   7.868  11.907
 6638W        W71865  43.330  27.859  12.839
 6639W        W71866  24.685  44.076  11.575
 6640W        W71867  24.632  11.670  13.006
 6641W        W71868  41.872  11.892  14.218
 6642W        W71869  18.771   7.965   4.166
 6643W        W71870  23.172   2.761  12.460
 6644W        W71871  25.166   6.335   0.811
 6645W        W71872  15.691  23.305   1.479
 6646W        W71873  10.794  12.024   1.380
 6647W        W71874  24.652  27.610  13.014
 6648W        W71875  13.791  23.032  10.984
 6649W        W71876  24.093  33.460  10.259
 6650W        W71877  25.192  17.750  11.263
 6651W        W71878  44.425  13.114  12.196
 6652W        W71879  39.912  26.144  13.966
 6653W        W71880  10.288  19.651   4.623
 6654W        W71881  17.853  19.599   1.817
 6655W        W71882  22.725  35.651   1.625
 6656W        W71883  40.455  18.098   2.797
 6657W        W71884  21.904  37.610   2.758
 6658W        W71885  27.600   3.611  12.537
 6659W        W71886  11.822  29.972   2.877
 6660W        W71887   1.919  30.127   1.429
 6661W        W71888   2.167  27.247   0.006
 6662W        W71889  15.603  26.090  10.344
 6663W        W71890  22.746  44.414  11.551
 6664W        W71891  15.767  20.071   3.722
 6665W        W71892  19.408  26.111   1.427
 6666W        W71893  28.876  23.995  14.571
 6667W        W71894  25.064  20.767   0.016
 6668W        W71895   4.071  41.252   0.235
 6669W        W71896   0.655   4.587  10.327
 6670W        W71897   1.603  19.917   3.068
 6671W        W71898   7.381  31.834   2.920
 6672W        W71899  13.252  44.795   2.580
 6673W        W71900  32.947  41.597   3.169
 6674W        W71901  16.247  39.142   2.013
 6675W        W71902  31.160  23.149   4.851
 6676W        W71903  19.390  15.825   4.174
 6677W        W71904  35.423  27.470   2.011
 6678W        W71905   3.226  37.647   2.793
 6679W        W71906  38.768  42.538  10.902
 6680W        W71907  41.250   1.063  13.973
 6681W        W71908  32.613  16.050   3.857
 6682W        W71909   5.952  16.226   2.679
 6683W        W71910  22.227  16.777   0.925
 6684W        W71911  14.153   4.004  11.571
 6685W        W71912   1.727  34.553  13.944
 6686W        W71913   1.478  13.152   4.613
 6687W        W71914  42.527  15.980  12.982
 6688W        W71915  43.380  42.566  13.128
 6689W        W71916  14.712   2.049  14.079
 6690W        W71917  37.774  29.248   4.589
 6691W        W71918  36.830  16.339  11.373
 6692W        W71919  14.140  31.920  12.021
 6693W        W71920  43.460  29.516  13.578
 6694W        W71921   4.825  14.160  11.608
 6695W        W71922  29.544  19.488  13.414
 6696W        W71923  39.287  27.405  12.105
 6697W        W71924  11.886  21.267   2.547
 6698W        W71925   3.706  38.622   0.515
 6699W        W71926  28.687  26.482  14.940
 6700W        W71927  10.217  38.245   3.776
 6701W        W71928   1.008  36.138  11.612
 6702W        W71929  42.018  28.971   3.657
 6703W        W71930  33.853  24.503  10.661
 6704W        W71931  19.649  10.845  11.996
 6705W        W71932  42.422  14.710  14.433
 6706W        W71933  24.399  18.704   4.632
 6707W        W71934  29.477  26.692  12.934
 6708W        W71935   5.901   2.945   3.908
 6709W        W71936   9.411  30.949  10.611
 6710W        W71937  40.890   5.220   4.970
 6711W        W71938  24.356  41.035   2.436
 6712W        W71939   7.152  19.746   2.409
 6713W        W71940  14.579   6.458   3.676
 6714W        W71941  35.476  19.174   0.242
 6715W        W71942  33.154  18.696  12.471
 6716W        W71943  20.266  36.330   0.728
 6717W        W71944   8.866  15.727  14.420
 6718W        W71945  40.980  21.506   3.347
 6719W        W71946   7.682  14.008   3.694
 6720W        W71947   5.362  36.774   3.702
 6721W        W71948  10.035  29.510  14.423
 6722W        W71949  44.464  31.360  11.107
 6723W        W71950  32.186  32.947  14.029
 6724W        W71951  26.726   1.470  14.337
 6725W        W71952  22.635  22.273   1.237
 6726W        W71953  26.519   6.989   2.887
 6727W        W71954   3.894  28.578   3.783
 6728W        W71955  18.684   3.718   3.694
 6729W        W71956  29.796  14.251   2.261
 6730W        W71957   2.386  11.381   2.800
 6731W        W71958  38.845  39.438   3.229
 6732W        W71959  42.930  42.444  12.896
 6733W        W71960  14.280  22.038   3.248
 6734W        W71961  34.934  10.283   1.487
 6735W        W71962  30.325  39.130  12.331
 6736W        W71963  23.271  39.383   1.734
 6737W        W71964   4.470  39.551   4.034
 6738W        W71965  34.998  37.940   2.563
 6739W        W71966  29.004  38.594  12.628
 6740W        W71967   0.333  31.374   3.490
 6741W        W71968  26.722  12.638   1.458
 6742W        W71969  17.075   6.154   1.512
 6743W        W71970  44.803   0.303  10.884
 6744W        W71971  18.187  39.602  14.861
 6745W        W71972  36.111   6.683   3.241
 6746W        W71973  23.022  14.130  10.452
 6747W        W71974  15.262  25.074   0.701
 6748W        W71975  21.549  13.563  13.410
 6749W        W71976  36.388  16.556  11.555
 6750W        W71977  34.099   4.701   2.014
 6751W        W71978   4.413  43.565  11.989
 6752W        W71979  23.984  17.930  11.592
 6753W        W71980  43.469   8.420   1.725
 6754W        W71981   2.172  13.528  13.120
 6755W        W71982  36.604   6.233  10.822
 6756W        W71983   1.485  17.691   4.122
 6757W        W71984  29.206  39.895   1.588
 6758W        W71985  22.484  12.882   2.322
 6759W        W71986   0.966  17.750   2.151
 6760W        W71987  32.525   7.261   4.662
 6761W        W71988  43.106  44.374  14.512
 6762W        W71989  33.900  22.238  14.567
 6763W        W71990  38.386  37.340  11.256
 6764W        W71991  12.393  37.614   3.106
 6765W        W71992  34.938  18.707   1.038
 6766W        W71993  42.374  22.149  10.887
 6767W        W71994  18.562  28.546  12.858
 6768W        W71995  42.707  32.246  12.009
 6769W        W71996  23.923  40.591  12.024
 6770W        W71997  20.648  16.513   0.713
 6771W        W71998  30.871  16.740   0.535
 6772W        W71999  41.800  36.937   4.478
 6773W        W72000  22.504  11.406   0.263
 6774W        W72001  17.324  18.543   1.582
 6775W        W72002  27.732  28.965   0.426
 6776W        W72003  41.965  12.910   2.277
 6777W        W72004  26.163   1.532  11.355
 6778W        W72005  37.516  28.286  12.862
 6779W        W72006  30.428  15.312  13.505
 6780W        W72007  11.402  24.669  13.797
 6781W        W72008  11.568  30.034  13.464
 6782W        W72009  23.581  13.496  10.743
 6783W        W72010  10.829  16.051  11.558
 6784W        W72011  38.610  31.396  12.896
 6785W        W72012  22.359  25.015   4.520
 6786W        W72013   0.938   8.918   3.153
 6787W        W72014  16.121  28.435  12.113
 6788W        W72015   5.296  13.551   3.190
 6789W        W72016  30.653  19.883   4.450
 6790W        W72017  33.872  28.423  14.371
 6791W        W72018  41.568   4.755   0.507
 6792W        W72019   2.377   3.913   0.250
 6793W        W72020  41.893   6.494   1.470
 6794W        W72021   2.722   7.894   1.165
 6795W        W72022  36.174  34.145   0.257
 6796W        W72023  31.447  21.994  11.748
 6797W        W72024  29.609   1.143   3.810
 6798W        W72025   7.231   3.145   4.534
 6799W        W72026  22.912  44.062   1.581
 6800W        W72027  40.388  29.858   0.908
 6801W        W72028  33.510   9.385  10.736
 6802W        W72029   1.248   3.346   2.094
 6803W        W72030  17.406  13.339  13.639
 6804W        W72031  19.245   6.349   2.839
 6805W        W72032  23.528  42.528  13.435
 6806W        W72033   0.572   9.424  14.074
 6807W        W72034  24.286  37.277   5.096
 6808W        W72035  19.183  10.196  11.059
 6809W        W72036   6.512  12.889   4.158
 6810W        W72037  18.414  23.149   4.889
 6811W        W72038  21.315   8.330   2.764
 6812W        W72039  31.673  33.919   3.689
 6813W        W72040  37.150  25.753  12.623
 6814W        W72041  37.595  28.093   0.581
 6815W        W72042  31.510  36.275  12.039
 6816W        W72043   7.443   8.726  10.671
 6817W        W72044  32.046  36.853   4.066
 6818W        W72045  16.119   6.508  12.713
 6819W        W72046   1.529  14.765  14.981
 6820W        W72047   8.719   0.736   2.831
 6821W        W72048  26.121  12.310  10.746
 6822W        W72049  11.626  42.685   3.723
 6823W        W72050  44.909   6.356   1.923
 6824W        W72051   3.963  31.184   1.296
 6825W        W72052  43.838  40.865  11.876
 6826W        W72053  37.498  22.009   1.717
 6827W        W72054  24.880  34.535   2.290
 6828W        W72055  36.052  10.644   4.311
 6829W        W72056  41.126  38.844  13.252
 6830W        W72057  13.871  38.780   4.147
 6831W        W72058  18.209   5.343   4.189
 6832W        W72059  34.397  43.287  14.902
 6833W        W72060  34.965   8.087  14.308
 6834W        W72061   3.203  31.322  11.487
 6835W        W72062  34.913   7.331  14.911
 6836W        W72063  38.044  28.804   4.623
 6837W        W72064  11.310  11.731   2.301
 6838W        W72065  38.999  32.189   2.110
 6839W        W72066  14.131  21.442   4.688
 6840W        W72067   0.424  10.851   0.573
 6841W        W72068  39.330  40.038  11.242
 6842W        W72069  37.094  15.933   2.726
 6843W        W72070   9.917  23.041   1.740
 6844W        W72071  34.871  11.294  10.762
 6845W        W72072  37.139   5.691  12.847
 6846W        W72073  22.461  16.126   0.768
 6847W        W72074  18.733  32.440  13.376
 6848W        W72075  10.297  39.915   2.331
 6849W        W72076   0.488  24.154   0.217
 6850W        W72077   9.203  20.539  11.132
 6851W        W72078   1.471   9.702   4.659
 6852W        W72079  32.015  31.669  12.395
 6853W        W72080  20.233  30.432  12.536
 6854W        W72081  33.278  17.711   2.815
 6855W        W72082  15.249   9.276   0.841
 6856W        W72083  36.008  19.001   1.102
 6857W        W72084  34.911  32.791  11.216
 6858W        W72085  16.025   5.879   0.800
 6859W        W72086  21.971   9.591   2.243
 6860W        W72087   6.942  12.811  13.467
 6861W        W72088  16.036  41.980  11.581
 6862W        W72089  38.150  26.635   0.639
 6863W        W72090   5.332  24.534   0.938
 6864W        W72091   0.423  13.173   4.074
 6865W        W72092  32.943  37.419   1.693
 6866W        W72093  31.654  21.758  14.075
 6867W        W72094  25.136  10.050  11.006
 6868W        W72095  13.667  10.669  12.873
 6869W        W72096  11.671  36.481   2.753
 6870W        W72097   2.267  25.239  13.488
 6871W        W72098  15.733  29.873   1.188
 6872W        W72099  19.597  33.494  12.407
 6873W        W72100  44.930   7.201  13.565
 6874W        W72101  24.143  35.988  11.780
 6875W        W72102  35.678   2.347  12.023
 6876W        W72103   4.969   6.716  10.567
 6877W        W72104   1.693  30.613   1.455
 6878W        W72105  31.636  18.700   1.766
 6879W        W72106  29.927  23.493   3.548
 6880W        W72107  26.670   4.447  11.175
 6881W        W72108  36.951  39.931   3.413
 6882W        W72109   5.490  22.151   4.074
 6883W        W72110  20.582  28.952  14.421
 6884W        W72111   2.252   5.321   3.678
 6885W        W72112  13.378  31.800  12.568
 6886W        W72113  35.975  40.766  13.759
 6887W        W72114  40.078  11.149   3.734
 6888W        W72115  38.951  19.864   2.313
 6889W        W72116   0.322  43.409  14.482
 6890W        W72117  29.702  28.145   0.817
 6891W        W72118  37.898  19.989   1.600
 6892W        W72119  40.407  24.049  10.664
 6893W        W72120   6.888  41.391   2.793
 6894W        W72121  24.715  31.879   0.219
 6895W        W72122  32.929  14.387   2.907
 6896W        W72123  18.104  19.193  14.682
 6897W        W72124   1.743  17.478   4.558
 6898W        W72125   4.241  20.746   3.205
 6899W        W72126  19.839  40.993   3.823
 6900W        W72127  28.173  38.667   4.347
 6901W        W72128   1.879  21.160   4.588
 6902W        W72129  37.938  11.130   4.245
 6903W        W72130  28.296  33.555  10.781
 6904W        W72131  11.103  25.730  12.113
 6905W        W72132  24.485  37.131  11.297
 6906W        W72133  39.213  26.631   0.870
 6907W        W72134  32.674  30.562   4.003
 6908W        W72135  36.763  35.613  11.643
 6909W        W72136  25.777  31.138  14.347
 6910W        W72137  17.973  33.576   1.041
 6911W        W72138  21.153  16.337  14.802
 6912W        W72139   7.632   4.988   4.550
 6913W        W72140  21.650  41.604  12.182
 6914W        W72141   0.292  31.603  11.485
 6915W        W72142   8.111   0.748  14.901
 6916W        W72143  18.198  26.649   2.949
 6917W        W72144   0.999  21.697   3.744
 6918W        W72145  40.075  33.011  14.119
 6919W        W72146   7.934  30.416  10.646
 6920W        W72147  29.889  25.978  12.108
 6921W        W72148  40.921  34.763   3.187
 6922W        W72149  38.540  28.016   0.436
 6923W        W72150  11.688  19.890  12.073
 6924W        W72151   2.201  11.093   0.453
 6925W        W72152  36.603  22.280   4.518
 6926W        W72153  28.768   3.899   1.621
 6927W        W72154  23.175  41.348   3.782
 6928W        W72155  16.285  24.986  14.444
 6929W        W72156  26.236  21.520   4.734
 6930W        W72157  32.092  22.581   4.963
 6931W        W72158  24.626  23.513   1.874
 6932W        W72159  26.933  32.583  13.480
 6933W        W72160  25.153  19.525  12.538
 6934W        W72161  10.312  35.567  13.860
 6935W        W72162  17.060  32.414  11.093
 6936W        W72163   8.367  20.662  10.778
 6937W        W72164  30.693  13.236  14.056
 6938W        W72165  40.342  14.750  11.720
 6939W        W72166  13.762   6.237  10.780
 6940W        W72167  11.702   0.478  14.989
 6941W        W72168  32.838  18.591  14.881
 6942W        W72169  21.240   6.375  14.727
 6943W        W72170  28.509   9.869  14.043
 6944W        W72171   5.230  18.647   1.785
 6945W        W72172  39.504  35.735  13.654
 6946W        W72173  23.399  18.296  14.479
 6947W        W72174  24.508  16.806   4.821
 6948W        W72175  29.887  20.306   4.966
 6949W        W72176  33.499  43.175  13.506
 6950W        W72177  21.735   6.464  12.339
 6951W        W72178  10.178  30.624  12.940
 6952W        W72179  22.051  31.967   1.414
 6953W        W72180  17.200  18.519   4.697
 6954W        W72181  42.534  23.226  13.808
 6955W        W72182  18.587  14.255   4.468
 6956W        W72183  36.303  16.838  10.696
 6957W        W72184  39.242  42.667  11.100
 6958W        W72185   1.869  13.711  14.348
 6959W        W72186  17.703   6.490  12.872
 6960W        W72187  22.863  31.970  13.000
 6961W        W72188  43.718  11.311   3.281
 6962W        W72189  42.730  42.378   5.004
 6963W        W72190  44.981  22.081  13.547
 6964W        W72191   3.156  31.572  10.991
 6965W        W72192  14.684  15.030  10.558
 6966W        W72193  27.972  31.508  11.134
 6967W        W72194  33.055  31.862   4.669
 6968W        W72195  32.972  13.323   1.848
 6969W        W72196  22.643   6.702  10.402
 6970W        W72197  43.344  36.584   2.367
 6971W        W72198  10.220  34.779   2.279
 6972W        W72199  21.836  14.306  12.726
 6973W        W72200   8.889  30.202  10.677
 6974W        W72201  27.644  41.874   4.532
 6975W        W72202   2.425  30.655  14.877
 6976W        W72203  14.125  11.259  10.486
 6977W        W72204   7.304  32.957  10.707
 6978W        W72205  25.140  31.494  10.874
 6979W        W72206  13.630   1.769   0.809
 6980W        W72207  14.422   7.747   3.162
 6981W        W72208  29.908  14.453  12.607
 6982W        W72209   9.939  13.334  11.385
 6983W        W72210  35.615   5.160  14.794
 6984W        W72211  19.692  21.009   2.762
 6985W        W72212  41.444  15.743  11.383
 6986W        W72213  24.534  43.979   0.378
 6987W        W72214  18.487  32.143   4.054
 6988W        W72215  12.633   2.165   2.836
 6989W        W72216  21.695  41.390   1.858
 6990W        W72217  22.489  38.063   1.240
 6991W        W72218   6.234  14.199   3.563
 6992W        W72219   4.110  23.069   2.792
 6993W        W72220  20.114  14.938   0.874
 6994W        W72221  14.575  11.935   4.279
 6995W        W72222  14.595   0.303  11.182
 6996W        W72223   8.377  12.656  12.324
 6997W        W72224  25.177  11.787   3.605
 6998W        W72225   0.441  44.107   1.937
 6999W        W72226  30.137  44.716   1.736
 7000W        W72227   9.016   3.915   3.595
 7001W        W72228  37.793  29.485   0.918
 7002W        W72229  24.247  42.427   2.716
 7003W        W72230  38.885   7.759  14.851
 7004W        W72231  16.739  20.812   9.982
 7005W        W72232  25.651   2.078   4.268
 7006W        W72233  32.149  25.458   2.692
 7007W        W72234  26.386  36.149  10.869
 7008W        W72235  17.836  24.125  13.452
 7009W        W72236  29.443  41.790  13.260
 7010W        W72237  15.736  28.457  10.746
 7011W        W72238  35.440  26.076   2.597
 7012W        W72239  40.012   1.902  11.975
 7013W        W72240  25.703  21.475   1.280
 7014W        W72241  20.622   1.532   2.210
 7015W        W72242  35.319  20.174  14.341
 7016W        W72243   6.275  41.597  10.932
 7017W        W72244  26.197  33.101   3.238
 7018W        W72245  25.401  36.069  11.147
 7019W        W72246  19.990  29.260  11.405
 7020W        W72247  44.595  25.873   0.363
 7021W        W72248  31.977  23.706   3.222
 7022W        W72249  33.515  23.748   4.803
 7023W        W72250   0.227  35.397  14.867
 7024W        W72251  40.168  19.552  13.885
 7025W        W72252  39.055  24.023  10.400
 7026W        W72253   9.434  39.286   4.523
 7027W        W72254  31.952  14.337  12.008
 7028W        W72255  28.094  22.046   2.061
 7029W        W72256  43.525  15.993  12.590
 7030W        W72257   8.851  23.936  14.177
 7031W        W72258   3.308   9.399  14.745
 7032W        W72259  16.791  29.079  11.968
 7033W        W72260  40.520  16.296   3.458
 7034W        W72261   4.887  15.642   1.250
 7035W        W72262  31.166  43.133  12.608
 7036W        W72263  10.548   3.729  14.246
 7037W        W72264  28.738  39.943  10.778
 7038W        W72265  40.230  31.207   2.413
 7039W        W72266   8.817  13.616   4.518
 7040W        W72267  31.052  30.930   3.035
 7041W        W72268   6.893  39.038   0.916
 7042W        W72269  25.986  19.256  12.544
 7043W        W72270  38.301  27.193   4.783
 7044W        W72271  15.040  24.834   2.441
 7045W        W72272  15.366   4.341   0.184
 7046W        W72273  23.251  36.071   3.614
 7047W        W72274  12.482  19.712  13.376
 7048W        W72275  10.453  31.872  10.588
 7049W        W72276  38.015  10.628  13.116
 7050W        W72277  20.325  28.214   1.289
 7051W        W72278  13.607   8.488  13.433
 7052W        W72279   5.232  32.284  11.291
 7053W        W72280  18.537  37.118   1.569
 7054W        W72281  16.772  38.624  13.842
 7055W        W72282  35.809   7.819   1.760
 7056W        W72283  30.140  10.614  14.483
 7057W        W72284  16.182  31.188   1.184
 7058W        W72285  38.511  13.733  11.671
 7059W        W72286  38.947  42.495  13.500
 7060W        W72287  24.863  27.223   4.498
 7061W        W72288  26.429  26.214  14.892
 7062W        W72289   0.239  15.169  11.575
 7063W        W72290   9.215  39.180  11.596
 7064W        W72291  32.103   7.356   3.995
 7065W        W72292  26.552  24.604  12.846
 7066W        W72293   0.305  40.464   0.993
 7067W        W72294  35.404   8.607   1.850
 7068W        W72295  29.996  15.082  13.306
 7069W        W72296   2.025  30.137  10.565
 7070W        W72297   4.174  41.950  12.996
 7071W        W72298  39.834  17.659   0.327
 7072W        W72299  17.194   5.708  12.559
 7073W        W72300  44.010  44.009  13.308
 7074W        W72301  30.435   2.617  14.744
 7075W        W72302  38.309  13.703  11.222
 7076W        W72303  31.149  35.057   2.249
 7077W        W72304  20.025   3.273   4.951
 7078W        W72305  38.453  32.176  11.176
 7079W        W72306  36.386  23.863   1.247
 7080W        W72307  17.582  25.025   0.718
 7081W        W72308  41.593  21.551   0.301
 7082W        W72309  30.941   7.174   3.194
 7083W        W72310  20.560  15.134   4.651
 7084W        W72311  42.461  43.197   4.197
 7085W        W72312  28.671  34.528  10.959
 7086W        W72313   1.332  12.626   1.648
 7087W        W72314  41.409   5.453   2.115
 7088W        W72315  36.527   8.932   1.331
 7089W        W72316  39.058  14.628   1.372
 7090W        W72317  37.864  14.081   1.453
 7091W        W72318   7.450   0.568  12.459
 7092W        W72319  12.177  34.408   5.327
 7093W        W72320  15.682   3.108   0.758
 7094W        W72321  19.750  20.507   2.746
 7095W        W72322  20.324   2.758  11.528
 7096W        W72323   0.817  25.445  11.236
 7097W        W72324  29.532  22.522  12.008
 7098W        W72325   3.332  23.613   2.829
 7099W        W72326  34.142  38.304   2.143
 7100W        W72327   7.207  42.904  14.928
 7101W        W72328  26.198  10.196   0.416
 7102W        W72329  43.383  23.655  12.181
 7103W        W72330  24.559  22.950   0.858
 7104W        W72331  27.531  10.331  11.546
 7105W        W72332  33.405  25.236   4.675
 7106W        W72333  24.147  40.361   4.926
 7107W        W72334  20.621   6.755   0.812
 7108W        W72335  33.131  37.653   2.706
 7109W        W72336   0.640  25.188  10.821
 7110W        W72337  28.810  35.164  13.476
 7111W        W72338  14.605  29.091   4.137
 7112W        W72339  16.274  30.482  14.886
 7113W        W72340  14.713  21.808  11.518
 7114W        W72341  29.582   7.642  10.340
 7115W        W72342  28.440  36.243  12.661
 7116W        W72343  31.476  20.795   2.617
 7117W        W72344   1.283  16.807   1.329
 7118W        W72345  23.679  24.059   0.470
 7119W        W72346  34.364  12.466  10.323
 7120W        W72347   9.414  20.091  11.931
 7121W        W72348  19.282  40.448  12.045
 7122W        W72349   9.656  20.512   3.437
 7123W        W72350  40.116  11.205   4.950
 7124W        W72351  29.170  35.172  12.588
 7125W        W72352   5.306  27.732  12.453
 7126W        W72353  38.116  29.127   3.595
 7127W        W72354  30.161   6.309  14.685
 7128W        W72355  29.424  21.250  13.871
 7129W        W72356  37.320   2.505   2.343
 7130W        W72357  35.973  43.764   0.452
 7131W        W72358  42.771  10.668  11.930
 7132W        W72359  10.788  33.442   3.378
 7133W        W72360  12.191  38.360  14.370
 7134W        W72361  17.331   8.700   0.538
 7135W        W72362  20.489   8.174  11.519
 7136W        W72363  17.717  37.325   4.104
 7137W        W72364  20.787  43.429  13.582
 7138W        W72365  36.379  32.129   0.337
 7139W        W72366  24.559   7.824   3.779
 7140W        W72367  32.031   1.658   3.586
 7141W        W72368  33.562  36.581  14.934
 7142W        W72369  15.531   1.761   1.947
 7143W        W72370  34.136  41.285  10.827
 7144W        W72371  15.659  26.107  12.402
 7145W        W72372   2.656  29.666   2.801
 7146W        W72373  30.979  19.743   3.192
 7147W        W72374  20.280  14.650  11.576
 7148W        W72375   8.174  33.856  12.012
 7149W        W72376  19.848  25.687  11.007
 7150W        W72377  28.992  25.452  11.956
 7151W        W72378  41.057  32.399  11.073
 7152W        W72379  24.006  37.228   2.296
 7153W        W72380  26.612   5.411   3.125
 7154W        W72381   7.174  32.440  14.253
 7155W        W72382  32.352  26.028   2.727
 7156W        W72383  32.680  44.330  13.398
 7157W        W72384  28.669  18.790  14.789
 7158W        W72385  33.865   0.802  12.916
 7159W        W72386  42.832  36.433  13.805
 7160W        W72387  44.084  38.043   0.477
 7161W        W72388  18.070  19.188   1.299
 7162W        W72389  12.421  34.412  14.839
 7163W        W72390  12.734  27.548  14.360
 7164W        W72391  14.969   8.249   2.738
 7165W        W72392  17.399  16.092  10.710
 7166W        W72393  18.182   2.009  10.981
 7167W        W72394  33.421  31.870   5.044
 7168W        W72395  19.754   0.751  13.495
 7169W        W72396  24.304  13.151  14.959
 7170W        W72397  37.571  28.154  10.447
 7171W        W72398  41.675  23.177  13.033
 7172W        W72399  14.323  21.658  11.191
 7173W        W72400  15.434  14.992  12.496
 7174W        W72401   1.447  33.914   4.395
 7175W        W72402  32.479   1.983   1.362
 7176W        W72403  44.519  43.352   2.350
 7177W        W72404  23.451   9.287  13.303
 7178W        W72405  36.593  17.221  14.555
 7179W        W72406  37.515  43.708   0.772
 7180W        W72407  37.780  24.761   3.729
 7181W        W72408  14.680  30.684  14.604
 7182W        W72409   3.474  21.971  12.482
 7183W        W72410   8.973  31.849  10.349
 7184W        W72411  13.815  18.004  13.826
 7185W        W72412   1.231  16.364  14.243
 7186W        W72413  38.387  16.884   1.252
 7187W        W72414  20.626   2.590  14.449
 7188W        W72415  15.859  37.074   2.289
 7189W        W72416  29.062   3.171   2.780
 7190W        W72417  18.144  34.148  14.262
 7191W        W72418   3.367  17.647  10.463
 7192W        W72419  43.473   0.259   1.452
 7193W        W72420   6.064   2.962  11.534
 7194W        W72421  32.163   8.716   1.817
 7195W        W72422  32.037  31.527   2.599
 7196W        W72423  13.585  29.614   3.763
 7197W        W72424  41.841   2.330  13.365
 7198W        W72425  29.663  31.548   0.380
 7199W        W72426  36.819  41.855   2.574
 7200W        W72427   5.771  12.277   3.160
 7201W        W72428  26.229  13.831   1.554
 7202W        W72429   2.669   7.348  14.570
 7203W        W72430   5.376  24.424  11.340
 7204W        W72431  42.024  41.462   0.509
 7205W        W72432  26.996   2.906  10.565
 7206W        W72433   4.383  12.253   0.700
 7207W        W72434  30.225  37.045  12.531
 7208W        W72435  18.145  23.191   4.052
 7209W        W72436  44.368  37.052   0.940
 7210W        W72437  44.002   3.977  11.163
 7211W        W72438   3.840  36.886  11.845
 7212W        W72439   3.699  16.168  14.853
 7213W        W72440  15.921  12.840   4.913
 7214W        W72441  13.371  25.792   1.701
 7215W        W72442  17.335  33.036   3.858
 7216W        W72443   3.019  42.961   1.752
 7217W        W72444  10.731   1.982   1.337
 7218W        W72445  42.045  28.682  11.191
 7219W        W72446  31.332   6.770   4.089
 7220W        W72447  22.620  39.137   3.385
 7221W        W72448  28.933   4.240   2.869
 7222W        W72449  38.234  34.499  14.908
 7223W        W72450  16.876  14.325  12.905
 7224W        W72451  30.672   9.972  11.249
 7225W        W72452   7.134  19.964  10.751
 7226W        W72453  43.535  20.632  13.819
 7227W        W72454  26.330  42.990   0.951
 7228W        W72455  19.614   3.167   4.079
 7229W        W72456   1.497   6.210   2.789
 7230W        W72457  20.282  37.391  11.367
 7231W        W72458  36.841  12.692  12.780
 7232W        W72459  32.150   4.889  12.976
 7233W        W72460  25.547   5.660  10.167
 7234W        W72461  37.949   3.919   2.148
 7235W        W72462  43.100  43.999  11.107
 7236W        W72463  43.943  23.531  12.188
 7237W        W72464   1.669  28.022  12.997
 7238W        W72465  12.595  32.815  12.509
 7239W        W72466  23.984  32.123   3.712
 7240W        W72467   8.113  42.335  13.521
 7241W        W72468  24.551  34.605   1.667
 7242W        W72469  37.016  19.096   3.628
 7243W        W72470  15.352  21.553   0.354
 7244W        W72471   7.512  11.125   3.163
 7245W        W72472  28.891  25.780   4.285
 7246W        W72473  39.888  14.076   1.342
 7247W        W72474  40.493  13.653  14.593
 7248W        W72475  22.313  15.623  12.834
 7249W        W72476  21.155   7.410  11.604
 7250W        W72477  11.373   1.195  13.927
 7251W        W72478  24.309   4.022  12.567
 7252W        W72479   1.877  20.759   2.692
 7253W        W72480  22.997   6.284  11.998
 7254W        W72481  18.097  10.361  12.435
 7255W        W72482  31.016  24.975  11.254
 7256W        W72483  24.554  39.813   0.461
 7257W        W72484  15.960   5.487   3.655
 7258W        W72485   5.605  27.188  14.543
 7259W        W72486  23.064  37.501  12.009
 7260W        W72487  32.068  35.775   2.545
 7261W        W72488  40.762  10.843  13.434
 7262W        W72489  20.020   0.981  13.887
 7263W        W72490  19.643  27.178   3.548
 7264W        W72491   7.710  19.947   4.188
 7265W        W72492   6.613  28.121  14.602
 7266W        W72493  32.385  22.430  12.185
 7267W        W72494  37.465  19.853   2.390
 7268W        W72495  30.737  16.928  13.272
 7269W        W72496  17.764   2.774   0.684
 7270W        W72497  24.543  32.176   3.264
 7271W        W72498  44.413  14.715   1.634
 7272W        W72499  43.711  32.855   1.616
 7273W        W72500   2.362  22.559  14.374
 7274W        W72501  23.713  16.321   3.751
 7275W        W72502  28.640  43.809   2.482
 7276W        W72503  32.688   1.833   0.921
 7277W        W72504  10.353  31.438  11.087
 7278W        W72505  35.432  31.103  12.431
 7279W        W72506  43.975  27.910  14.973
 7280W        W72507   4.728   5.758   4.984
 7281W        W72508  12.746  18.331  13.410
 7282W        W72509   0.695  27.049   2.247
 7283W        W72510  40.230  36.007   0.445
 7284W        W72511   0.065  12.203   2.326
 7285W        W72512  41.363  20.782   3.388
 7286W        W72513   0.455  36.394  10.776
 7287W        W72514  43.079  40.612  11.212
 7288W        W72515  16.773  20.963   4.531
 7289W        W72516  29.912  41.377   3.197
 7290W        W72517  37.902   8.424  12.202
 7291W        W72518  42.853   3.781  10.634
 7292W        W72519  31.906  38.139  12.195
 7293W        W72520  23.504   8.847   4.398
 7294W        W72521  19.501  15.143  13.741
 7295W        W72522  21.737  39.055   1.724
 7296W        W72523  32.948  33.308  14.676
 7297W        W72524  20.968  32.595  11.136
 7298W        W72525  17.159  39.969   3.769
 7299W        W72526  15.759  10.148   3.388
 7300W        W72527  37.194  20.374   1.275
 7301W        W72528  32.362  12.992  14.115
 7302W        W72529  12.655  38.868  11.124
 7303W        W72530   9.778  12.907  14.561
 7304W        W72531  23.672  44.271   3.725
 7305W        W72532  33.000  17.049   1.727
 7306W        W72533  23.240  20.003  11.536
 7307W        W72534   6.384  40.001   2.354
 7308W        W72535  12.858  19.559   3.993
 7309W        W72536  12.158  30.970  12.082
 7310W        W72537   4.902  13.941   0.067
 7311W        W72538  17.771   2.340   1.292
 7312W        W72539  33.378  39.018   0.924
 7313W        W72540   9.330  39.714  11.182
 7314W        W72541   3.205   3.729  11.316
 7315W        W72542  41.618   8.427  12.920
 7316W        W72543   6.539  22.721  13.299
 7317W        W72544  26.935  38.546  10.804
 7318W        W72545  23.223  38.267  14.525
 7319W        W72546  10.917  37.345  10.422
 7320W        W72547  43.786  11.391   0.717
 7321W        W72548  29.143  12.540  13.463
 7322W        W72549  35.767  19.774   1.676
 7323W        W72550  32.517  19.163  10.746
 7324W        W72551  42.871  25.913   2.805
 7325W        W72552   4.655   0.746   2.150
 7326W        W72553   2.618  10.897   4.586
 7327W        W72554  29.504  37.869   3.086
 7328W        W72555  39.334  17.848   0.962
 7329W        W72556  27.190  41.443   2.563
 7330W        W72557   5.365  17.564   0.920
 7331W        W72558  16.060  18.342  12.401
 7332W        W72559  29.669   9.692  12.024
 7333W        W72560   6.976  32.928  14.426
 7334W        W72561  28.068  12.098  11.200
 7335W        W72562  19.050  20.091  12.321
 7336W        W72563  44.759  12.248  10.513
 7337W        W72564   8.887   9.448   4.270
 7338W        W72565  25.129  19.669  13.428
 7339W        W72566  40.378  30.578   3.678
 7340W        W72567   5.205  38.319   4.880
 7341W        W72568  31.481  29.972  14.846
 7342W        W72569  40.943  13.631   3.207
 7343W        W72570  24.752  36.002  12.534
 7344W        W72571  42.486  42.754  14.397
 7345W        W72572  30.357   4.918   1.820
 7346W        W72573  32.654   1.041   3.403
 7347W        W72574  34.801  40.392   0.925
 7348W        W72575  17.208   8.943  12.936
 7349W        W72576   2.333  33.160   2.921
 7350W        W72577  26.133  21.971   3.154
 7351W        W72578  29.724  32.574   1.309
 7352W        W72579  19.782  23.323   4.948
 7353W        W72580   8.641  30.654   3.209
 7354W        W72581  15.403   3.289  11.975
 7355W        W72582  14.103  38.597   5.006
 7356W        W72583   0.947  10.543  12.530
 7357W        W72584   2.786  41.430   2.191
 7358W        W72585  28.118  37.562   4.667
 7359W        W72586  39.015  42.568  12.626
 7360W        W72587  11.604  44.260   3.328
 7361W        W72588  18.764  34.731   1.318
 7362W        W72589  25.744  18.039  12.831
 7363W        W72590  28.600  18.449   0.196
 7364W        W72591  37.457   2.481  11.497
 7365W        W72592  11.428  13.194  14.933
 7366W        W72593  38.976  19.479   4.120
 7367W        W72594  36.863  13.168   3.445
 7368W        W72595  29.022  40.294  12.855
 7369W        W72596  36.443  30.113   1.396
 7370W        W72597  18.556  25.074   0.358
 7371W        W72598  17.079  18.527  10.330
 7372W        W72599  43.303  38.986  14.905
 7373W        W72600  43.338  32.869  12.552
 7374W        W72601  39.272   1.841   4.336
 7375W        W72602  14.791  12.295   3.959
 7376W        W72603   5.374   3.043   1.713
 7377W        W72604  38.825  34.629   0.311
 7378W        W72605  36.308   1.795   4.489
 7379W        W72606  29.634  24.383  11.593
 7380W        W72607  27.718  34.547   0.766
 7381W        W72608   4.644  41.717   0.849
 7382W        W72609  34.045   8.341  13.941
 7383W        W72610  42.244  26.086  13.832
 7384W        W72611  15.416  41.581   3.130
 7385W        W72612  20.470  44.090  14.883
 7386W        W72613  13.811  34.200   2.450
 7387W        W72614  24.789   4.680  14.624
 7388W        W72615  25.217  20.138  14.882
 7389W        W72616  39.771   2.358  11.752
 7390W        W72617  20.035  16.433  10.889
 7391W        W72618   8.886  26.753   1.391
 7392W        W72619  28.602   5.643  13.904
 7393W        W72620   2.987  28.245  10.698
 7394W        W72621  14.284   6.341  10.766
 7395W        W72622  20.126  11.585  11.188
 7396W        W72623   5.376  18.092   0.945
 7397W        W72624  32.184  18.661   4.563
 7398W        W72625  25.711  14.437  14.848
 7399W        W72626  39.330   5.054  10.937
 7400W        W72627  37.089  31.325  13.591
 7401W        W72628  13.404  41.203   5.063
 7402W        W72629  30.370  16.237  14.343
 7403W        W72630  10.474  15.367   1.169
 7404W        W72631  17.542  32.603   4.523
 7405W        W72632   7.210  26.572  12.443
 7406W        W72633  24.968  31.127  11.216
 7407W        W72634  12.900  26.512   4.552
 7408W        W72635  41.335  35.373   1.275
 7409W        W72636   5.362  23.081  14.687
 7410W        W72637  44.219  24.481   1.370
 7411W        W72638  11.179  30.085  11.582
 7412W        W72639   6.838  28.088   3.434
 7413W        W72640  12.607  38.409   3.624
 7414W        W72641  22.754  31.937   2.687
 7415W        W72642  26.409  29.575   1.412
 7416W        W72643  38.948  16.731   3.874
 7417W        W72644  27.990  38.548   3.385
 7418W        W72645  32.593  37.231  11.380
 7419W        W72646   3.691   5.021   4.083
 7420W        W72647  29.519  34.833  12.366
 7421W        W72648  42.050   4.895   4.253
 7422W        W72649  38.400  21.773  11.034
 7423W        W72650  10.724  40.288   3.654
 7424W        W72651   8.718  40.328   0.689
 7425W        W72652  15.902   5.014  11.742
 7426W        W72653  44.055  36.461  12.451
 7427W        W72654  32.988  42.784  12.628
 7428W        W72655  24.171  39.501   0.296
 7429W        W72656  28.938  32.392  14.416
 7430W        W72657  14.808  41.974   0.531
 7431W        W72658  25.732  17.138  12.401
 7432W        W72659  21.086  34.864   3.710
 7433W        W72660  15.704  21.712   3.237
 7434W        W72661   3.231  38.068  14.012
 7435W        W72662  43.698  16.198  11.484
 7436W        W72663  34.335  39.334  14.878
 7437W        W72664  32.555  10.209   0.269
 7438W        W72665  21.530   7.715  11.830
 7439W        W72666  12.896  24.942  11.723
 7440W        W72667  32.073  14.386   3.232
 7441W        W72668  26.894   0.553  10.769
 7442W        W72669  25.680  40.946  12.564
 7443W        W72670  20.245  36.894   3.145
 7444W        W72671  24.412  21.657   0.981
 7445W        W72672  33.004  31.451   2.420
 7446W        W72673  15.254  24.380   1.263
 7447W        W72674   7.396  20.343   3.614
 7448W        W72675  39.764  21.082   1.563
 7449W        W72676  23.593   9.441  11.016
 7450W        W72677  42.971  12.290  12.713
 7451W        W72678   9.664  40.332  12.085
 7452W        W72679  38.797  31.716   2.156
 7453W        W72680  19.282   8.754  14.481
 7454W        W72681  42.527  14.995   4.128
 7455W        W72682  26.122  13.331   1.420
 7456W        W72683  30.031  17.589   0.994
 7457W        W72684  16.312  14.703  14.320
 7458W        W72685  27.573   3.126   1.656
 7459W        W72686   2.676   9.892  12.957
 7460W        W72687  19.128  19.722  10.684
 7461W        W72688  22.251  21.136   1.874
 7462W        W72689  31.685  39.942   1.860
 7463W        W72690  16.230  40.766  12.995
 7464W        W72691  25.964  42.970  10.766
 7465W        W72692  36.308  34.933   1.490
 7466W        W72693  33.210  38.498   1.022
 7467W        W72694  18.804  28.243  10.377
 7468W        W72695   9.375  15.164   2.209
 7469W        W72696  27.852  31.981   2.540
 7470W        W72697  25.042  18.667   0.497
 7471W        W72698  20.848  24.796   3.417
 7472W        W72699  12.880  36.893  12.495
 7473W        W72700   4.217  23.854   4.354
 7474W        W72701   9.829  18.634   4.166
 7475W        W72702  17.340  12.802  14.120
 7476W        W72703  23.037  34.983   2.868
 7477W        W72704  35.538  32.819  12.229
 7478W        W72705  24.305  23.376   0.476
 7479W        W72706   9.707  35.616   3.421
 7480W        W72707  19.091  25.864  12.413
 7481W        W72708  17.553  17.640   4.203
 7482W        W72709  33.615  20.231   4.126
 7483W        W72710  31.138  13.410   3.019
 7484W        W72711  37.139  16.096  11.067
 7485W        W72712  14.862  24.292  14.544
 7486W        W72713  40.338  43.166  14.922
 7487W        W72714  24.238   6.500   4.097
 7488W        W72715  36.801  38.916  12.824
 7489W        W72716   2.528  38.432  14.906
 7490W        W72717   5.865  21.484   2.418
 7491W        W72718   8.127  24.833  12.982
 7492W        W72719  34.094  18.153   2.647
 7493W        W72720  14.668  25.638  14.568
 7494W        W72721  18.194  34.092  13.269
 7495W        W72722   3.067  40.819  14.175
 7496W        W72723  22.217  19.311   3.364
 7497W        W72724  31.356  23.237  10.725
 7498W        W72725  23.962  25.639  14.457
 7499W        W72726  34.899  15.279  13.458
 7500W        W72727  37.599   4.653  14.421
 7501W        W72728  18.280  15.761  10.187
 7502W        W72729  18.919  29.071   0.988
 7503W        W72730  29.192  12.270   0.761
 7504W        W72731  34.775  19.224  14.722
 7505W        W72732  30.834  14.836  13.854
 7506W        W72733  41.414  26.122   4.174
 7507W        W72734  17.155  20.732   2.717
 7508W        W72735  40.881  31.821   2.850
 7509W        W72736   4.142  24.549   1.822
 7510W        W72737  36.108  42.962  14.040
 7511W        W72738   8.126  15.541   2.564
 7512W        W72739   7.368   2.497   1.298
 7513W        W72740  44.870  26.565   2.153
 7514W        W72741   7.330   8.710   1.301
 7515W        W72742   0.126  21.727   0.529
 7516W        W72743  34.936  24.922   1.724
 7517W        W72744  16.765   2.326  10.939
 7518W        W72745   3.416  13.239  11.134
 7519W        W72746   0.207  26.079   2.123
 7520W        W72747  28.062  35.126  14.970
 7521W        W72748  20.623  33.339   4.220
 7522W        W72749  38.323   0.308  11.615
 7523W        W72750  28.050  28.715   4.464
 7524W        W72751   7.764  36.813  14.834
 7525W        W72752  43.318  27.393   4.799
 7526W        W72753  44.662  23.774  14.820
 7527W        W72754   6.869  37.504   0.867
 7528W        W72755  27.380  15.330  12.198
 7529W        W72756  26.570  42.615   2.738
 7530W        W72757  19.331  10.739   0.326
 7531W        W72758  42.883  15.118  14.912
 7532W        W72759   9.854  17.407  11.191
 7533W        W72760  16.185  15.414   3.741
 7534W        W72761  38.911  37.131   2.786
 7535W        W72762   5.011   0.746  12.488
 7536W        W72763   4.305   9.325   4.177
 7537W        W72764  13.806  25.678  10.947
 7538W        W72765  37.886   6.348   0.470
 7539W        W72766  24.555  32.481  13.575
 7540W        W72767  12.350  30.884  11.311
 7541W        W72768  38.392  21.337  12.748
 7542W        W72769  33.496  12.365  11.275
 7543W        W72770   2.087  25.509   0.295
 7544W        W72771  26.162  27.933   0.253
 7545W        W72772  37.510  30.066  11.794
 7546W        W72773  34.950  33.493  11.824
 7547W        W72774  20.491  35.360   2.576
 7548W        W72775  33.590  13.526   3.078
 7549W        W72776   9.855  41.427   0.872
 7550W        W72777  21.303  13.107  10.653
 7551W        W72778  43.252  26.764   9.831
 7552W        W72779  27.977  38.180  10.785
 7553W        W72780  37.582  11.327  13.018
 7554W        W72781  41.735  31.150   2.186
 7555W        W72782  38.684   9.937   0.708
 7556W        W72783  28.685   9.691   4.084
 7557W        W72784  41.251  38.481  11.959
 7558W        W72785  32.334  24.276   5.033
 7559W        W72786  12.573  34.065   5.397
 7560W        W72787   0.431  19.102   2.644
 7561W        W72788  35.977  44.231   2.078
 7562W        W72789  40.950  26.689   0.003
 7563W        W72790  11.105  28.330   0.343
 7564W        W72791   6.461  11.963   1.883
 7565W        W72792  24.704  31.080   3.072
 7566W        W72793  21.094  33.674  11.675
 7567W        W72794  27.978  34.780   2.845
 7568W        W72795  16.767   5.796  12.287
 7569W        W72796   9.845  27.246  13.419
 7570W        W72797  41.801   7.665  11.679
 7571W        W72798   5.899   1.160  12.437
 7572W        W72799  24.489  12.131   2.146
 7573W        W72800   3.089  26.168   4.571
 7574W        W72801  43.546  37.589  13.897
 7575W        W72802  16.754  10.989  12.933
 7576W        W72803  12.811  40.814   2.875
 7577W        W72804  27.712  20.794   4.562
 7578W        W72805   2.528   5.216   2.811
 7579W        W72806  10.543   0.401  12.424
 7580W        W72807  27.599  13.856   2.411
 7581W        W72808  25.437  40.610   3.567
 7582W        W72809  22.544  40.934  12.087
 7583W        W72810  22.790  22.138   3.210
 7584W        W72811  13.430  21.537   3.617
 7585W        W72812  27.020  33.422  14.884
 7586W        W72813  19.167  28.905  11.517
 7587W        W72814  32.591  38.143   1.433
 7588W        W72815   0.371  42.482   0.016
 7589W        W72816  21.654  18.031   1.635
 7590W        W72817  23.075  29.825   2.296
 7591W        W72818   4.815  11.182  14.376
 7592W        W72819  25.969  37.436   3.496
 7593W        W72820  26.740  11.721  10.714
 7594W        W72821  30.395  15.659  13.945
 7595W        W72822  17.603  36.983  10.729
 7596W        W72823  27.021  44.848  11.371
 7597W        W72824  42.751  20.333   4.580
 7598W        W72825  11.626  42.836   5.055
 7599W        W72826  17.321  43.818  10.378
 7600W        W72827  24.146  11.193   1.203
 7601W        W72828  13.761   4.927   4.065
 7602W        W72829  10.661  22.663   2.105
 7603W        W72830  43.245   5.649  12.318
 7604W        W72831  19.336  36.039  11.076
 7605W        W72832  26.774   9.279   1.794
 7606W        W72833  11.933   1.189  10.998
 7607W        W72834  13.524  31.136  12.869
 7608W        W72835  38.407   2.767   3.136
 7609W        W72836  17.792  12.307   2.256
 7610W        W72837  25.980   2.428   3.636
 7611W        W72838  33.261  14.711   4.993
 7612W        W72839  41.613  14.127  12.510
 7613W        W72840   6.764  13.926   4.250
 7614W        W72841  13.261  35.155  12.900
 7615W        W72842  41.427  30.127   0.691
 7616W        W72843  27.992  12.847  10.004
 7617W        W72844   8.865  25.018   2.666
 7618W        W72845  20.759  21.221  14.786
 7619W        W72846   0.497  13.317  11.642
 7620W        W72847  17.567  11.470   0.344
 7621W        W72848  41.904  12.997   3.357
 7622W        W72849  23.742  41.311  11.440
 7623W        W72850  20.479  25.454   1.846
 7624W        W72851  41.496  17.662   3.881
 7625W        W72852  10.031   7.436   1.653
 7626W        W72853  22.893  39.505   3.618
 7627W        W72854   1.986  37.105  12.344
 7628W        W72855  23.257  11.897  14.850
 7629W        W72856  32.439   4.401   3.274
 7630W        W72857  21.303  26.965  12.455
 7631W        W72858  17.834  43.869   1.684
 7632W        W72859   7.292  32.045  13.387
 7633W        W72860  31.036  38.433   0.757
 7634W        W72861  35.639  43.600  13.005
 7635W        W72862  37.925  34.575   0.333
 7636W        W72863  27.033  27.079   3.595
 7637W        W72864  26.412  41.273  11.175
 7638W        W72865  18.270  44.906   0.584
 7639W        W72866   1.597  21.833   2.154
 7640W        W72867  23.548  23.138   4.607
 7641W        W72868  18.640  11.460   2.697
 7642W        W72869  18.171  33.611  13.121
 7643W        W72870  32.357  38.317   4.134
 7644W        W72871  37.514   9.757  12.462
 7645W        W72872  38.827  41.039  13.584
 7646W        W72873  13.120  37.526  13.372
 7647W        W72874  10.739   6.726   2.301
 7648W        W72875  25.178  24.326   3.730
 7649W        W72876  44.551   9.689   4.605
 7650W        W72877  15.291   4.392  13.411
 7651W        W72878  16.655  13.605   4.410
 7652W        W72879  17.993  33.250   2.759
 7653W        W72880  15.345  32.556   5.020
 7654W        W72881  18.383  41.342   3.602
 7655W        W72882  14.726   6.773  14.948
 7656W        W72883  39.561   0.954  13.486
 7657W        W72884  42.630  18.568  14.516
 7658W        W72885   9.405  32.110   2.903
 7659W        W72886  22.257  33.017   4.832
 7660W        W72887  32.953  18.865  12.953
 7661W        W72888  26.237  38.212  12.975
 7662W        W72889  16.255  39.675   2.804
 7663W        W72890  33.638  26.909  12.526
 7664W        W72891  27.417  27.087  14.914
 7665W        W72892  23.269  10.689   0.281
 7666W        W72893  23.273   0.936   2.924
 7667W        W72894  22.630  41.916  12.081
 7668W        W72895  16.843  40.006  14.925
 7669W        W72896  14.381   7.617  11.178
 7670W        W72897  33.143  22.288   1.769
 7671W        W72898  25.076   5.900   3.221
 7672W        W72899  20.148   7.327   2.252
 7673W        W72900  38.998   9.943  14.043
 7674W        W72901  35.644  22.621   3.078
 7675W        W72902  32.802   8.723   2.669
 7676W        W72903   4.846  39.110   3.334
 7677W        W72904  35.706  12.733  11.185
 7678W        W72905   3.378  19.799  13.925
 7679W        W72906  15.089  29.549  11.843
 7680W        W72907  32.671   7.719   1.270
 7681W        W72908  32.633  23.807   4.321
 7682W        W72909  29.739  30.171  11.193
 7683W        W72910  33.548  14.135   4.678
 7684W        W72911  42.945  41.016   4.535
 7685W        W72912  36.644  34.513   1.362
 7686W        W72913  22.515  41.159  12.584
 7687W        W72914  32.706  37.941  12.572
 7688W        W72915  27.809   5.599  11.969
 7689W        W72916  21.381   9.749   4.833
 7690W        W72917  26.587  29.866  13.821
 7691W        W72918  17.316  16.449  12.017
 7692W        W72919  22.734   7.687  13.927
 7693W        W72920   4.025  32.220  11.973
 7694W        W72921  11.306  40.533  13.972
 7695W        W72922   2.678  43.972   3.757
 7696W        W72923  24.759  28.482  14.048
 7697W        W72924  28.973  16.347   4.558
 7698W        W72925  29.199  39.883  14.278
 7699W        W72926  25.628   7.284  10.697
 7700W        W72927   7.622  33.148   1.321
 7701W        W72928  34.029  22.683   2.698
 7702W        W72929  44.028  36.043  13.020
 7703W        W72930  32.691  19.627  14.890
 7704W        W72931  35.811  43.111  12.174
 7705W        W72932  18.188  36.943   2.655
 7706W        W72933  15.016  11.962  14.990
 7707W        W72934   4.420   2.718  11.394
 7708W        W72935  43.987  41.392   4.318
 7709W        W72936  22.966  23.313   3.192
 7710W        W72937  31.681  35.123   1.158
 7711W        W72938  12.609   7.371  11.548
 7712W        W72939  44.545   1.906  11.523
 7713W        W72940  28.738  35.969   1.917
 7714W        W72941  29.444   1.233   4.834
 7715W        W72942  10.774   2.427   0.379
 7716W        W72943  36.098  38.574  13.441
 7717W        W72944  35.936   1.823  13.021
 7718W        W72945  43.896  20.006  13.895
 7719W        W72946   6.541  31.879  10.815
 7720W        W72947   0.046  20.082   1.003
 7721W        W72948  12.274  22.013  13.067
 7722W        W72949   1.518  43.782   2.731
 7723W        W72950  15.236   7.620   0.874
 7724W        W72951  41.058  24.750   2.742
 7725W        W72952  23.589  19.772  12.577
 7726W        W72953   4.403  25.092   4.651
 7727W        W72954  16.755   4.818  12.223
 7728W        W72955  26.968  31.636   0.878
 7729W        W72956  44.429  33.478   2.531
 7730W        W72957  27.000  18.751   3.206
 7731W        W72958  20.426  32.126   0.458
 7732W        W72959  41.256  23.557   1.263
 7733W        W72960   0.665  39.663   2.608
 7734W        W72961  21.631  28.744  14.927
 7735W        W72962  25.197  28.394  14.302
 7736W        W72963   4.766   1.699   4.669
 7737W        W72964  25.751  26.636   1.789
 7738W        W72965  11.891  33.996   4.067
 7739W        W72966  29.121  40.973   4.529
 7740W        W72967  29.989  34.235  14.896
 7741W        W72968   8.832  28.279   4.423
 7742W        W72969   5.232   9.600  11.953
 7743W        W72970  27.005  17.268  13.282
 7744W        W72971  42.672  36.527   0.698
 7745W        W72972  34.631  14.820  13.367
 7746W        W72973  43.397  21.508  13.016
 7747W        W72974  10.725   6.740  12.048
 7748W        W72975  11.414  35.012   1.365
 7749W        W72976  38.963  40.032   4.084
 7750W        W72977  31.422   6.871  13.412
 7751W        W72978  28.093  23.110   0.447
 7752W        W72979   2.825  11.930   2.030
 7753W        W72980   9.757   8.290  12.536
 7754W        W72981  28.641  43.326   2.835
 7755W        W72982   8.830   9.132  10.743
 7756W        W72983  10.997  33.679   2.290
 7757W        W72984  19.906   4.609  14.453
 7758W        W72985  10.273  15.354   1.680
 7759W        W72986  25.076  17.357  14.152
 7760W        W72987   9.448   4.685  13.635
 7761W        W72988  30.444  36.367  13.506
 7762W        W72989  10.115  28.617   3.743
 7763W        W72990   8.354  34.289  12.763
 7764W        W72991  25.708  13.583   3.655
 7765W        W72992  21.694  15.594  14.452
 7766W        W72993  36.498   7.693  10.443
 7767W        W72994  28.756   5.810   1.475
 7768W        W72995  11.791  21.477   4.693
 7769W        W72996  37.463   0.950   0.354
 7770W        W72997  31.707   7.059   0.712
 7771W        W72998   3.856  12.138   1.694
 7772W        W72999  20.241   4.401   1.460
 7773W        W73000  13.004   0.268  11.065
 7774W        W73001  44.633  16.129   1.805
 7775W        W73002  33.559   7.934  12.841
 7776W        W73003  38.165  11.835  14.966
 7777W        W73004   8.190   5.276   1.804
 7778W        W73005  36.819  29.908   4.344
 7779W        W73006  30.128  34.662   1.759
 7780W        W73007   8.152  30.523   3.314
 7781W        W73008  41.452  33.761  14.417
 7782W        W73009  15.207  12.083   2.233
 7783W        W73010  29.598  32.071   3.230
 7784W        W73011  11.146   8.797  14.388
 7785W        W73012   4.332  43.716   0.324
 7786W        W73013   7.452  14.162  11.204
 7787W        W73014   4.281  25.425   2.128
 7788W        W73015  13.074  29.085  11.777
 7789W        W73016   1.975   4.980   0.796
 7790W        W73017  37.111  27.325   3.823
 7791W        W73018  15.745   1.222   0.111
 7792W        W73019   3.360  17.747  11.003
 7793W        W73020  36.860  38.307  12.003
 7794W        W73021   0.551  22.378   3.839
 7795W        W73022  35.444  21.792   4.045
 7796W        W73023  38.340  11.814  13.200
 7797W        W73024   9.825  24.820   4.435
 7798W        W73025  11.466   4.795  11.644
 7799W        W73026   1.888  44.423   1.359
 7800W        W73027  38.491   2.128   0.430
 7801W        W73028  15.743  13.836   2.813
 7802W        W73029   3.217  42.260   0.288
 7803W        W73030  19.614   4.791   0.237
 7804W        W73031   3.328  32.949   1.366
 7805W        W73032   7.975  34.517   1.934
 7806W        W73033   1.867   6.877   3.541
 7807W        W73034   9.641   7.312  13.404
 7808W        W73035  40.782  38.795  12.822
 7809W        W73036  41.219  25.371   0.866
 7810W        W73037  35.505  21.003   1.658
 7811W        W73038  42.539   1.338   2.370
 7812W        W73039  25.508  33.352  14.078
 7813W        W73040  26.963  33.102  13.570
 7814W        W73041  41.284  31.561   1.418
 7815W        W73042  39.034  15.144   1.237
 7816W        W73043   3.544  27.481   1.234
 7817W        W73044  44.298  35.361   2.612
 7818W        W73045   4.782   3.138   3.704
 7819W        W73046   2.440  19.143  11.878
 7820W        W73047  32.118  44.966   1.713
 7821W        W73048  28.275  13.728   4.961
 7822W        W73049   0.858  38.285   0.307
 7823W        W73050  27.828  12.225  11.627
 7824W        W73051  19.171  14.378   2.812
 7825W        W73052  24.110  17.813  14.293
 7826W        W73053  38.744   3.861  14.129
 7827W        W73054  44.101  34.176   3.229
 7828W        W73055  35.341  21.048   4.817
 7829W        W73056  38.508  40.342   2.144
 7830W        W73057  13.793   4.226  10.154
 7831W        W73058  24.997  27.008  11.987
 7832W        W73059   7.814  11.101   4.095
 7833W        W73060   0.776  38.009   1.263
 7834W        W73061  21.007  20.185   4.404
 7835W        W73062  34.941   2.334  12.493
 7836W        W73063   3.513  29.986   1.299
 7837W        W73064   9.836  24.324  13.420
 7838W        W73065   1.498  23.588   0.845
 7839W        W73066  23.296  14.100   2.693
 7840W        W73067  32.161  23.506   2.194
 7841W        W73068  23.931   7.717  13.469
 7842W        W73069   4.340  36.481  11.625
 7843W        W73070  44.655  14.648  11.127
 7844W        W73071  33.129  26.384  12.115
 7845W        W73072  39.762  29.094  13.165
 7846W        W73073  25.714  14.746   2.398
 7847W        W73074  31.130   5.113  11.895
 7848W        W73075  42.295  24.657  12.589
 7849W        W73076  36.032  37.912   3.016
 7850W        W73077  28.664  19.501  11.645
 7851W        W73078  15.853  12.435   0.858
 7852W        W73079  38.923  28.254  13.334
 7853W        W73080  31.263   6.524   2.745
 7854W        W73081  30.248  39.848   1.764
 7855W        W73082  38.972  33.993  14.779
 7856W        W73083  20.603  36.316  14.813
 7857W        W73084  10.395   9.873  12.016
 7858W        W73085  30.248  21.098   3.896
 7859W        W73086  17.238  23.567  11.584
 7860W        W73087  14.352  28.582   2.276
 7861W        W73088  13.579  33.089  14.166
 7862W        W73089  29.387  43.026   3.223
 7863W        W73090  42.008  14.933  11.504
 7864W        W73091  19.516  32.283  11.192
 7865W        W73092  19.771  37.489   0.325
 7866W        W73093  43.843  17.190  11.191
 7867W        W73094  19.801   2.491   0.488
 7868W        W73095  15.834   6.022   1.965
 7869W        W73096  43.360  43.096  13.926
 7870W        W73097  35.047  16.319  14.704
 7871W        W73098  30.590  32.322   2.286
 7872W        W73099  29.024  24.239   2.643
 7873W        W73100   2.969  28.489  14.443
 7874W        W73101  19.861  19.776  12.160
 7875W        W73102  31.009  29.509   4.120
 7876W        W73103  39.423   4.720  10.111
 7877W        W73104   7.501  31.726  11.614
 7878W        W73105   8.246   3.755   2.238
 7879W        W73106  39.078  26.496  14.059
 7880W        W73107  24.825  31.155   5.016
 7881W        W73108   8.933  26.697  14.765
 7882W        W73109  21.333  18.663  11.903
 7883W        W73110   6.153  20.073  11.518
 7884W        W73111  42.800  30.105   3.971
 7885W        W73112  33.015  30.151   3.575
 7886W        W73113  12.116  28.438   0.477
 7887W        W73114  12.291  10.430  11.184
 7888W        W73115  27.003  28.438  13.101
 7889W        W73116  28.126  40.950   3.161
 7890W        W73117  26.500  26.047   4.796
 7891W        W73118  22.480  13.081  11.213
 7892W        W73119   4.594  31.986   4.386
 7893W        W73120  25.402  34.495   2.162
 7894W        W73121  16.580  34.957   3.676
 7895W        W73122   7.848  18.031  12.672
 7896W        W73123  35.584  44.293   1.726
 7897W        W73124  28.227  31.184  10.711
 7898W        W73125  10.831   6.357   1.299
 7899W        W73126   0.457  30.039   0.416
 7900W        W73127   5.337  32.652  11.636
 7901W        W73128  34.456  30.141   4.051
 7902W        W73129  16.764  41.412  11.726
 7903W        W73130  30.967  34.980  11.224
 7904W        W73131  37.534  44.895   1.913
 7905W        W73132   6.046  21.118   0.997
 7906W        W73133  35.229  40.023  12.865
 7907W        W73134  15.203  31.469  12.880
 7908W        W73135  22.938  14.128   2.288
 7909W        W73136  32.657  15.380  11.086
 7910W        W73137  18.170  14.954  12.320
 7911W        W73138  38.967  12.059  10.771
 7912W        W73139  23.726   6.269   3.101
 7913W        W73140  15.734   3.150   1.336
 7914W        W73141  34.915   7.347   2.891
 7915W        W73142  14.812  38.573  11.978
 7916W        W73143  27.022  15.792   4.836
 7917W        W73144  29.886  42.018  13.110
 7918W        W73145  32.683  11.054   3.838
 7919W        W73146  14.359  19.624   1.792
 7920W        W73147  44.782   6.438   0.652
 7921W        W73148  12.083  44.815   1.265
 7922W        W73149   0.410  16.760   3.272
 7923W        W73150  14.064   1.159  11.617
 7924W        W73151  10.080  40.737   2.435
 7925W        W73152  24.861  30.504   1.454
 7926W        W73153  27.595   9.609  12.210
 7927W        W73154  11.928   5.469  10.874
 7928W        W73155  29.680  25.280  11.140
 7929W        W73156   8.891  13.299   4.935
 7930W        W73157  39.041  31.089   4.564
 7931W        W73158  17.092  40.207   2.193
 7932W        W73159  29.956   1.637  11.629
 7933W        W73160  10.148  21.080  11.512
 7934W        W73161  37.049  37.351  14.715
 7935W        W73162  13.589  12.505  12.177
 7936W        W73163  14.960  12.987  11.193
 7937W        W73164  24.442   7.908   1.954
 7938W        W73165   1.909  26.461  13.779
 7939W        W73166  16.431  27.776  10.357
 7940W        W73167  19.121  24.561   4.478
 7941W        W73168  35.395  40.851  11.556
 7942W        W73169   1.337  42.397  10.410
 7943W        W73170  10.271  35.211  14.852
 7944W        W73171  30.403  39.851  11.631
 7945W        W73172  20.746  28.439   2.289
 7946W        W73173  38.978  20.189   1.843
 7947W        W73174  29.947  15.324  14.269
 7948W        W73175   4.991   7.402   0.415
 7949W        W73176  33.676  34.270   4.522
 7950W        W73177  39.974  15.827  14.452
 7951W        W73178  25.215  42.191   1.665
 7952W        W73179  22.166  23.610   1.293
 7953W        W73180  41.713  42.957   2.823
 7954W        W73181  18.585  18.550  13.462
 7955W        W73182  42.257  32.603   4.039
 7956W        W73183  31.935  17.374  11.833
 7957W        W73184  21.484  42.914  13.942
 7958W        W73185  40.194   4.846  11.158
 7959W        W73186   1.945   9.015  10.542
 7960W        W73187  40.467  31.269  14.012
 7961W        W73188  28.640   7.938  13.289
 7962W        W73189   5.029  37.968   0.366
 7963W        W73190   3.410  23.271   0.774
 7964W        W73191  18.248  10.183   4.331
 7965W        W73192  25.977   4.960   4.125
 7966W        W73193  42.387  10.122   4.634
 7967W        W73194  26.549  15.756  10.604
 7968W        W73195  27.188  14.186  12.348
 7969W        W73196  42.585  32.500   2.199
 7970W        W73197  18.280  40.320  14.746
 7971W        W73198  15.592  27.580  14.867
 7972W        W73199  12.846  35.799   3.167
 7973W        W73200  18.139   3.738  13.567
 7974W        W73201  43.041  22.505  14.980
 7975W        W73202  26.555  42.518  14.048
 7976W        W73203  13.908  21.170  13.461
 7977W        W73204   9.877   0.320   2.366
 7978W        W73205  11.864  18.676  13.905
 7979W        W73206   9.772   1.796   4.414
 7980W        W73207  17.037   4.582   1.710
 7981W        W73208  13.263  43.261  13.818
 7982W        W73209  30.116   7.721   0.320
 7983W        W73210  40.660  36.038  14.455
 7984W        W73211  40.859  35.936  11.971
 7985W        W73212   6.886  40.310   1.200
 7986W        W73213   1.545  12.527   4.076
 7987W        W73214  33.922  29.887   3.246
 7988W        W73215   5.647  19.294   1.399
 7989W        W73216   2.492  32.321   2.291
 7990W        W73217  13.903  24.917  14.185
 7991W        W73218  39.795   2.636   2.713
 7992W        W73219  21.688  22.644  10.190
 7993W        W73220  30.893  39.112  14.399
 7994W        W73221   4.881  12.021  11.433
 7995W        W73222  41.213  16.698   1.088
 7996W        W73223  16.657  23.474  14.884
 7997W        W73224  30.596  44.837   3.564
 7998W        W73225  44.570  22.725  11.523
 7999W        W73226  31.687  16.647   2.211
 8000W        W73227  25.142  29.446  13.397
 8001W        W73228  36.749  21.754   3.820
 8002W        W73229   6.012  33.339  13.643
 8003W        W73230  23.537  25.684  14.101
 8004W        W73231   0.942  18.472   0.753
 8005W        W73232  36.915  42.525  12.079
 8006W        W73233  19.129  39.537  14.861
 8007W        W73234  39.967  35.592   0.234
 8008W        W73235  33.593  38.178   1.901
 8009W        W73236  44.489  10.541   0.268
 8010W        W73237  39.471  25.110  11.600
 8011W        W73238  19.758  29.958   3.769
 8012W        W73239  12.125  44.684   0.510
 8013W        W73240  23.674  16.737  11.099
 8014W        W73241  33.321  11.712   0.348
 8015W        W73242  21.682  25.397  11.629
 8016W        W73243   1.082   3.143  13.860
 8017W        W73244  25.278  39.625  10.928
 8018W        W73245  34.661  24.479  11.138
 8019W        W73246  20.043  22.620  10.700
 8020W        W73247  25.731  29.621   0.821
 8021W        W73248  24.443  29.040   2.584
 8022W        W73249  17.710  39.209   1.711
 8023W        W73250  22.681   4.405  12.107
 8024W        W73251   2.519  16.852  14.471
 8025W        W73252  27.276   6.821  10.786
 8026W        W73253  24.516  22.502   0.596
 8027W        W73254  28.142   1.619   3.729
 8028W        W73255  44.349  31.134  10.653
 8029W        W73256  25.927  30.554   4.151
 8030W        W73257   0.467  10.114   2.267
 8031W        W73258  23.193  36.387  14.849
 8032W        W73259  39.156  30.257  12.463
 8033W        W73260  30.416   7.759   0.777
 8034W        W73261   5.242  37.617  11.939
 8035W        W73262  32.773  37.078  12.381
 8036W        W73263  10.739  21.459  12.600
 8037W        W73264   3.268  21.750   3.816
 8038W        W73265  18.279  37.962  14.828
 8039W        W73266  12.158  12.220   1.441
 8040W        W73267   1.261  23.964  13.845
 8041W        W73268  38.557  24.823  10.803
 8042W        W73269  38.468  20.951  11.395
 8043W        W73270  27.283  18.457  13.952
 8044W        W73271  27.413  44.330  11.707
 8045W        W73272  35.653   2.755   3.747
 8046W        W73273  29.400  30.117   2.703
 8047W        W73274  19.312   8.642   4.397
 8048W        W73275  19.504  24.256  13.248
 8049W        W73276   4.898  31.809   3.582
 8050W        W73277  19.817  22.037  14.316
 8051W        W73278  22.899   0.024   5.332
 8052W        W73279  25.636  39.642  13.558
 8053W        W73280  26.161   9.743   4.499
 8054W        W73281  11.706   2.888   0.428
 8055W        W73282  40.873  30.617   1.437
 8056W        W73283  18.475  43.963   2.822
 8057W        W73284  28.499  36.899  13.808
 8058W        W73285   7.709   0.928   0.996
 8059W        W73286  13.882  22.284  13.938
 8060W        W73287  25.808  16.058  12.943
 8061W        W73288  34.749  27.995  14.298
 8062W        W73289  28.131  24.934  12.058
 8063W        W73290  26.675  34.596  12.105
 8064W        W73291  12.832  30.964  11.175
 8065W        W73292  40.207  31.177  11.106
 8066W        W73293  27.242  22.229  11.993
 8067W        W73294   9.285  15.376   1.430
 8068W        W73295  27.533  40.252  11.049
 8069W        W73296   0.434  42.288   4.545
 8070W        W73297  13.615  34.945   0.226
 8071W        W73298  27.611  25.670  12.447
 8072W        W73299  17.282  39.397  14.259
 8073W        W73300  41.884  10.344  12.701
 8074W        W73301  42.418  27.722   2.566
 8075W        W73302  40.960   4.700   5.004
 8076W        W73303  37.196  24.970   2.836
 8077W        W73304  39.815  37.827  13.932
 8078W        W73305   2.137  12.969  13.090
 8079W        W73306  23.751   7.170   4.540
 8080W        W73307  38.289  43.323  10.829
 8081W        W73308  28.444  28.685  13.969
 8082W        W73309  31.541  43.237   3.482
 8083W        W73310  18.252  25.222  13.009
 8084W        W73311   7.653  42.751  10.716
 8085W        W73312   7.952  38.894  14.746
 8086W        W73313   9.348  17.854   1.663
 8087W        W73314   7.773   8.831   4.592
 8088W        W73315  14.331  41.092   1.979
 8089W        W73316  39.564  39.865  14.557
 8090W        W73317  10.265  39.174  10.201
 8091W        W73318   3.972  16.379  11.502
 8092W        W73319  35.121  42.315   4.660
 8093W        W73320   0.361  42.296  12.931
 8094W        W73321  31.140   3.630   3.618
 8095W        W73322  22.147  15.149   3.937
 8096W        W73323  20.014   1.859   0.884
 8097W        W73324  17.283  29.678  12.811
 8098W        W73325  41.431  37.919  14.625
 8099W        W73326   0.970  19.915  12.934
 8100W        W73327  33.208  32.054   3.708
 8101W        W73328  13.303  14.234   4.556
 8102W        W73329  30.965  18.194   1.503
 8103W        W73330  30.379  13.066   0.923
 8104W        W73331  11.242  16.034  12.304
 8105W        W73332  14.401  26.227  12.445
 8106W        W73333   1.482  17.730   2.163
 8107W        W73334  16.253  24.429  12.814
 8108W        W73335   5.374  29.630  13.441
 8109W        W73336  31.670   6.152  13.133
 8110W        W73337  43.822  36.343  11.620
 8111W        W73338  30.568  21.465  10.632
 8112W        W73339  10.693   4.719   4.269
 8113W        W73340  31.921  27.813  14.456
 8114W        W73341  26.045   7.020  11.222
 8115W        W73342  14.980  19.329   5.053
 8116W        W73343  30.086  23.516   0.733
 8117W        W73344  13.675   3.685   4.611
 8118W        W73345  15.066  35.212   2.654
 8119W        W73346  36.543   8.529  10.671
 8120W        W73347  20.006  22.493  14.423
 8121W        W73348   2.216  13.718  12.472
 8122W        W73349  27.026  14.235   0.277
 8123W        W73350  17.488  22.255  12.517
 8124W        W73351  23.169  34.368   1.945
 8125W        W73352   7.967  34.465   2.448
 8126W        W73353  12.780  11.070   1.984
 8127W        W73354  39.069   6.454  12.173
 8128W        W73355   0.520  25.048   2.180
 8129W        W73356  24.156  17.443  12.501
 8130W        W73357  33.973  16.418  13.630
 8131W        W73358  39.392  29.080   0.764
 8132W        W73359  19.457  16.562   4.254
 8133W        W73360   4.393  24.294   4.599
 8134W        W73361   8.655  15.064   0.080
 8135W        W73362  14.695  27.689  10.590
 8136W        W73363  11.190  32.079  11.896
 8137W        W73364  42.964  32.013  12.849
 8138W        W73365  31.576  19.262  12.581
 8139W        W73366  36.934  43.740   0.524
 8140W        W73367  22.336  36.545  13.405
 8141W        W73368  25.258   5.397   3.170
 8142W        W73369  24.491   6.660  14.054
 8143W        W73370   1.955   2.880  14.330
 8144W        W73371  18.588  12.306  14.785
 8145W        W73372  29.658  17.640   4.564
 8146W        W73373  14.627  14.290  12.001
 8147W        W73374  41.518  33.178   4.553
 8148W        W73375  13.334  23.712  11.781
 8149W        W73376   7.376   5.883  12.150
 8150W        W73377  23.524  33.068   4.305
 8151W        W73378  39.758   3.773  14.378
 8152W        W73379  17.133  41.690   0.226
 8153W        W73380  30.431   1.710   0.960
 8154W        W73381  35.242   8.757   0.844
 8155W        W73382  10.720  38.960  10.111
 8156W        W73383  26.943  30.156  10.673
 8157W        W73384   3.102  13.524   3.538
 8158W        W73385  36.350  12.144   0.617
 8159W        W73386   2.043  37.136  11.565
 8160W        W73387  13.210  14.846   0.583
 8161W        W73388  42.248  21.372   0.725
 8162W        W73389  13.303  11.513   1.471
 8163W        W73390  41.062  34.797  13.857
 8164W        W73391  14.292  20.823  13.829
 8165W        W73392  33.677  28.632   4.273
 8166W        W73393  12.704  14.349   2.897
 8167W        W73394  21.012  24.783  14.039
 8168W        W73395  25.871  42.023   4.232
 8169W        W73396  39.047  37.371  14.934
 8170W        W73397  17.730  23.551  14.084
 8171W        W73398  12.197  19.848  12.051
 8172W        W73399  21.431   9.224   4.832
 8173W        W73400  14.695  14.080  12.469
 8174W        W73401  27.159   9.614   1.914
 8175W        W73402  14.052   4.896  10.549
 8176W        W73403  23.542  12.556   0.300
 8177W        W73404  27.972  19.089   3.296
 8178W        W73405  35.591  16.857  14.905
 8179W        W73406  27.893  34.605   3.353
 8180W        W73407  22.808   5.317   0.434
 8181W        W73408  12.518  31.073   3.355
 8182W        W73409  14.436   3.409  12.040
 8183W        W73410  39.799  21.526  12.938
 8184W        W73411  26.377  32.752   2.570
 8185W        W73412  44.108  14.691   0.307
 8186W        W73413   8.622  39.095   2.687
 8187W        W73414  20.188   8.648  12.428
 8188W        W73415  13.264  26.350   3.779
 8189W        W73416  42.887  20.189  12.303
 8190W        W73417  15.155  31.991  12.873
 8191W        W73418  38.114  44.991   1.847
 8192W        W73419  44.257  20.115   0.303
 8193W        W73420   6.197  16.417   1.244
 8194W        W73421  39.963  37.954   4.055
 8195W        W73422  28.453  31.634  13.778
 8196W        W73423  15.976  19.481  13.590
 8197W        W73424  30.566  25.021   2.118
 8198W        W73425  17.658  31.504  13.483
 8199W        W73426  36.530   2.933   1.997
 8200W        W73427  19.053  43.190  11.518
 8201W        W73428  30.507  29.555   3.978
 8202W        W73429  40.297  12.649   3.774
 8203W        W73430   0.219  31.793   3.143
 8204W        W73431  36.268  34.338   2.908
 8205W        W73432  43.861   0.014  14.183
 8206W        W73433  37.923   1.615  10.771
 8207W        W73434  12.407  27.706   2.360
 8208W        W73435  34.944  22.163  13.522
 8209W        W73436  24.630  44.342  11.159
 8210W        W73437  13.882  15.553   4.870
 8211W        W73438  30.927   5.866   0.973
 8212W        W73439  18.325  10.596   0.102
 8213W        W73440  10.092  38.886   2.347
 8214W        W73441  13.210  29.117   0.515
 8215W        W73442  24.783  17.599  14.823
 8216W        W73443  29.471   9.990   2.379
 8217W        W73444  30.791  31.540   1.381
 8218W        W73445  43.914   8.699  11.366
 8219W        W73446  37.022  15.554   3.116
 8220W        W73447   0.698  28.227  12.906
 8221W        W73448  16.393   6.330   3.245
 8222W        W73449  35.171   7.145   1.362
 8223W        W73450  43.964  38.097  12.008
 8224W        W73451  17.547  11.920  11.139
 8225W        W73452  36.851  30.739  14.342
 8226W        W73453   1.862  21.122  13.358
 8227W        W73454  43.840  14.532  13.545
 8228W        W73455   4.658  12.059   4.390
 8229W        W73456  32.670  41.024  13.455
 8230W        W73457  20.608  38.562  13.976
 8231W        W73458   2.415  29.724  12.521
 8232W        W73459  26.389   5.112   0.400
 8233W        W73460  31.912  29.996   3.766
 8234W        W73461  23.385  30.100   0.935
 8235W        W73462  11.589   0.490  12.690
 8236W        W73463   9.751  10.159   2.382
 8237W        W73464  40.367  35.896  14.053
 8238W        W73465   7.933  29.998  11.779
 8239W        W73466   5.890  38.821   1.884
 8240W        W73467  39.775  16.128   4.596
 8241W        W73468  32.826   4.201  13.106
 8242W        W73469  40.337  39.022   2.314
 8243W        W73470  22.091   0.700   1.279
 8244W        W73471  24.454  29.939  13.836
 8245W        W73472  13.352   1.855   2.809
 8246W        W73473  20.343  20.776  11.267
 8247W        W73474  31.406   8.070   4.075
 8248W        W73475   4.747  37.757  12.131
 8249W        W73476  25.104  31.464  13.272
 8250W        W73477  42.628  26.044  12.806
 8251W        W73478  35.310  24.929  10.580
 8252W        W73479  33.920   9.476   3.971
 8253W        W73480  37.990   6.417  14.051
 8254W        W73481  42.057   7.041   3.578
 8255W        W73482  18.209  32.582  14.783
 8256W        W73483   6.238  34.453   4.971
 8257W        W73484  32.468  44.390   0.058
 8258W        W73485  36.877  36.875   4.539
 8259W        W73486   2.214  17.686  13.540
 8260W        W73487  33.882  19.866  13.336
 8261W        W73488  18.837   6.713   1.220
 8262W        W73489  12.415  44.764   4.973
 8263W        W73490  21.475   3.389   3.918
 8264W        W73491  16.707  15.824   2.096
 8265W        W73492  40.418  21.527  11.345
 8266W        W73493  19.214  17.434  11.944
 8267W        W73494  44.818  40.845   4.287
 8268W        W73495   3.209  29.220   3.776
 8269W        W73496  12.677  38.124  14.457
 8270W        W73497  31.493   7.636   3.292
 8271W        W73498  37.840  24.634  11.237
 8272W        W73499  25.485  34.113   0.470
 8273W        W73500  22.378  32.040  12.858
 8274W        W73501  36.172  28.543  12.894
 8275W        W73502  31.063  40.721   4.191
 8276W        W73503  44.911  37.058  12.549
 8277W        W73504  21.155   3.784  14.558
 8278W        W73505  26.592  44.667   3.694
 8279W        W73506  36.832  41.477   0.563
 8280W        W73507  27.900   6.162   2.320
 8281W        W73508   1.819  21.207  11.036
 8282W        W73509  17.262  17.177   2.772
 8283W        W73510  14.863   9.286  12.511
 8284W        W73511  37.907  37.054  11.721
 8285W        W73512  44.417   4.204  12.775
 8286W        W73513  14.337  41.025   4.603
 8287W        W73514  14.306  32.005  10.739
 8288W        W73515  12.214  16.546   0.698
 8289W        W73516  14.197  28.856  11.534
 8290W        W73517  33.967  35.044   2.210
 8291W        W73518  39.320  40.503  13.399
 8292W        W73519  42.824  27.044  12.712
 8293W        W73520  25.048  20.967  11.611
 8294W        W73521  22.663   4.662  11.641
 8295W        W73522  21.653  13.084   1.790
 8296W        W73523   6.250  26.413  14.323
 8297W        W73524  34.491  30.836  12.505
 8298W        W73525   4.876  30.607   2.298
 8299W        W73526  43.400  19.643  12.770
 8300W        W73527   6.003  44.309   1.685
 8301W        W73528  26.329   7.841   3.129
 8302W        W73529  32.816   5.780   4.546
 8303W        W73530  19.835  41.517   3.730
 8304W        W73531  38.092  29.558   1.339
 8305W        W73532   7.727  26.938   0.904
 8306W        W73533  30.093   6.421   1.147
 8307W        W73534  11.159  35.831  14.502
 8308W        W73535  42.007  29.906   2.632
 8309W        W73536  12.645   0.638   3.558
 8310W        W73537  34.904  39.467   1.106
 8311W        W73538   5.313   6.411   3.669
 8312W        W73539  23.421  29.975  14.946
 8313W        W73540  12.909  19.756   4.894
 8314W        W73541  17.925   9.660  11.255
 8315W        W73542  11.792  18.699   3.738
 8316W        W73543  12.788  10.958   2.884
 8317W        W73544  16.850  15.081   1.280
 8318W        W73545  28.955  39.453  14.439
 8319W        W73546  14.086  38.304   4.114
 8320W        W73547  12.340  17.676  13.007
 8321W        W73548  44.595  34.672  10.352
 8322W        W73549  41.252  34.146   3.620
 8323W        W73550  40.892  25.513   4.510
 8324W        W73551   8.669  22.868  10.477
 8325W        W73552  40.804  11.204   3.877
 8326W        W73553  16.723  17.747  11.015
 8327W        W73554   0.387  39.345   0.042
 8328W        W73555   6.863  20.197  12.924
 8329W        W73556  40.804  29.496   4.136
 8330W        W73557  20.806  11.503   2.947
 8331W        W73558  14.690  25.362  12.533
 8332W        W73559  27.685   2.743   3.451
 8333W        W73560  22.533  35.115  12.873
 8334W        W73561   9.824  27.543  14.385
 8335W        W73562  21.405  36.910   0.479
 8336W        W73563   2.377  20.482   3.823
 8337W        W73564  17.372  42.014  14.831
 8338W        W73565  34.637  24.159  14.308
 8339W        W73566  14.096   6.043   1.991
 8340W        W73567  36.778  26.912   3.734
 8341W        W73568  41.577  35.500  14.392
 8342W        W73569  15.008  39.413   4.559
 8343W        W73570  38.411  22.499   1.773
 8344W        W73571  23.285  12.935   3.197
 8345W        W73572   3.215  26.788  14.335
 8346W        W73573  29.922   4.313   4.817
 8347W        W73574  18.924   9.224   1.861
 8348W        W73575  23.679  43.816   5.329
 8349W        W73576  38.548   1.710   0.130
 8350W        W73577  24.458   0.242   2.891
 8351W        W73578  38.282  15.521  14.482
 8352W        W73579  34.585  23.779   4.377
 8353W        W73580  33.138  13.367   3.299
 8354W        W73581  31.308   9.695  14.868
 8355W        W73582   7.301  38.918  13.883
 8356W        W73583  31.637  43.368   0.618
 8357W        W73584   2.498   7.889   3.833
 8358W        W73585  15.778   1.083  14.566
 8359W        W73586  25.901   8.314   0.440
 8360W        W73587  39.079   7.865   3.646
 8361W        W73588  44.212  42.933   3.696
 8362W        W73589  16.746   9.206   3.819
 8363W        W73590  21.441   4.369  12.605
 8364W        W73591   3.388   8.474   1.509
 8365W        W73592  22.427  24.475   4.704
 8366W        W73593   4.941   1.733  11.969
 8367W        W73594  39.791  36.661  12.428
 8368W        W73595  38.867  23.033  10.871
 8369W        W73596  33.670  27.620  11.202
 8370W        W73597  39.384  18.061   2.351
 8371W        W73598  22.898  25.191   1.435
 8372W        W73599   7.677  43.385   4.653
 8373W        W73600   2.705  17.519   3.709
 8374W        W73601  32.857  23.590   1.326
 8375W        W73602   1.667  15.031  13.533
 8376W        W73603  10.882  17.216   1.723
 8377W        W73604   2.001  12.659   3.896
 8378W        W73605  18.674  42.278   2.004
 8379W        W73606  40.196  42.545   0.816
 8380W        W73607  40.701  19.512  12.754
 8381W        W73608  34.863  16.824   1.707
 8382W        W73609  17.851   6.828   4.093
 8383W        W73610  25.723  24.968   4.845
 8384W        W73611  38.547  31.041   1.683
 8385W        W73612   3.885  25.794  14.904
 8386W        W73613  19.639   3.247   1.802
 8387W        W73614  12.070  29.047   3.287
 8388W        W73615   6.344  35.311  11.292
 8389W        W73616  17.124  43.012   3.605
 8390W        W73617  39.642   2.817  12.033
 8391W        W73618  14.670   4.695   1.303
 8392W        W73619  35.401  17.003  11.253
 8393W        W73620   3.766   5.803  13.518
 8394W        W73621  44.531  44.016  13.470
 8395W        W73622  19.941  30.135   1.189
 8396W        W73623  21.907  25.018  13.066
 8397W        W73624  28.223  26.583  12.122
 8398W        W73625  10.864  36.136   4.850
 8399W        W73626  13.201  23.142  13.054
 8400W        W73627   8.626  35.364   2.653
 8401W        W73628  40.483  34.111  13.835
 8402W        W73629  24.053  41.040  11.121
 8403W        W73630  28.561  33.520  11.471
 8404W        W73631   2.618  36.839  11.592
 8405W        W73632  34.382   2.279  13.334
 8406W        W73633  35.592  31.343  10.846
 8407W        W73634  18.608   2.283   2.326
 8408W        W73635  43.342  30.487  13.946
 8409W        W73636   4.831  40.035   0.063
 8410W        W73637   5.723  31.945   4.698
 8411W        W73638   3.394  20.314  13.975
 8412W        W73639  10.022   9.337  12.529
 8413W        W73640  24.438  10.865   3.586
 8414W        W73641   1.668  29.219  12.232
 8415W        W73642  40.500  24.718  13.386
 8416W        W73643   3.161  26.176   2.321
 8417W        W73644   1.644  36.926  13.281
 8418W        W73645  22.009  36.995  12.491
 8419W        W73646  13.930  20.530  12.138
 8420W        W73647  28.686  28.637   4.699
 8421W        W73648  22.765  40.262  14.804
 8422W        W73649  17.928  27.898   2.330
 8423W        W73650  35.861  34.291  11.764
 8424W        W73651  19.113  13.509  11.660
 8425W        W73652   4.883   2.575  10.757
 8426W        W73653  30.448  20.646   3.690
 8427W        W73654  42.549  28.022  10.808
 8428W        W73655  38.109  43.054  11.247
 8429W        W73656  21.387  31.972   2.470
 8430W        W73657  29.013  40.972   3.267
 8431W        W73658  43.424  10.630   1.343
 8432W        W73659  35.178   7.158  13.030
 8433W        W73660  21.940  28.706   4.627
 8434W        W73661  31.152  14.262  14.941
 8435W        W73662   5.341   4.460  12.023
 8436W        W73663  23.684  13.507  11.598
 8437W        W73664  14.385   2.353   0.409
 8438W        W73665  31.742  43.740   2.346
 8439W        W73666  33.091  44.400  10.712
 8440W        W73667   7.328   4.972   0.578
 8441W        W73668   6.468  42.962  12.411
 8442W        W73669  30.466   4.198   4.058
 8443W        W73670  24.108  11.265  10.760
 8444W        W73671   8.409  20.617   0.023
 8445W        W73672  12.612  44.483  13.117
 8446W        W73673  43.032  24.185  11.466
 8447W        W73674   9.459  31.492   1.835
 8448W        W73675  15.135  25.273  13.788
 8449W        W73676  36.691  38.078  10.802
 8450W        W73677   2.657  17.839   0.018
 8451W        W73678  30.080  42.997   0.228
 8452W        W73679  14.356  26.956  14.968
 8453W        W73680  15.375   6.902   3.587
 8454W        W73681  32.974  39.731   1.509
 8455W        W73682  30.448  40.054  13.704
 8456W        W73683   2.366   2.130  12.031
 8457W        W73684  16.786  24.712   4.908
 8458W        W73685  29.478  24.666   4.357
 8459W        W73686   8.645   8.688   3.603
 8460W        W73687  35.408  35.862   3.855
 8461W        W73688  32.110  23.775   4.161
 8462W        W73689  13.699  43.378  12.037
 8463W        W73690  21.060   0.752   4.023
 8464W        W73691  43.427  23.684  10.690
 8465W        W73692  18.493  30.398  12.759
 8466W        W73693  28.162  41.218  11.672
 8467W        W73694   5.843  43.424   1.886
 8468W        W73695  11.775  23.238   0.177
 8469W        W73696  24.170  37.600  11.166
 8470W        W73697  11.196   2.286   3.485
 8471W        W73698  25.399   8.607   0.003
 8472W        W73699  20.328  38.826   3.081
 8473W        W73700  38.554  32.497  11.590
 8474W        W73701  30.976  17.383   2.891
 8475W        W73702  18.999  33.643  12.982
 8476W        W73703  12.615  22.486  11.934
 8477W        W73704  37.309  42.696  13.293
 8478W        W73705  42.859  18.100  13.463
 8479W        W73706   4.780  39.598   3.224
 8480W        W73707  33.956  24.275  11.126
 8481W        W73708  30.084  21.265  11.909
 8482W        W73709   9.106   5.405   0.523
 8483W        W73710  32.585  16.449   0.364
 8484W        W73711  26.002   8.399   4.484
 8485W        W73712  43.275   0.492   1.889
 8486W        W73713  29.246  25.899  10.764
 8487W        W73714  15.736  12.154  13.881
 8488W        W73715   5.800  38.986  11.222
 8489W        W73716  14.783  13.032   3.265
 8490W        W73717   9.341  18.265   4.770
 8491W        W73718  28.047   1.754   0.877
 8492W        W73719   5.777  29.262  11.180
 8493W        W73720  11.637  21.967  12.441
 8494W        W73721  40.391  44.813   3.648
 8495W        W73722  11.691   8.948   0.633
 8496W        W73723  23.634  38.129  12.052
 8497W        W73724  38.167  36.196   2.248
 8498W        W73725  32.475  32.043   0.464
 8499W        W73726  19.539   5.927   3.864
 8500W        W73727  32.072  25.555  13.888
 8501W        W73728   4.678  17.181   4.576
 8502W        W73729  19.531  24.603  14.012
 8503W        W73730  18.577  13.760  12.450
 8504W        W73731  18.750  29.628   1.625
 8505W        W73732   4.723  18.692   0.900
 8506W        W73733   2.118  42.392  13.699
 8507W        W73734  32.588  24.019   1.513
 8508W        W73735  28.630   3.907  12.146
 8509W        W73736  27.315   5.037   3.664
 8510W        W73737  23.762  10.144  12.859
 8511W        W73738  38.516  33.708   1.443
 8512W        W73739  12.048  36.816  14.724
 8513W        W73740   3.694  19.025   3.301
 8514W        W73741  26.488  32.190  14.723
 8515W        W73742  15.181  13.299   0.727
 8516W        W73743  33.171  20.027   1.462
 8517W        W73744  43.906   8.143  14.406
 8518W        W73745  32.293  24.669   0.849
 8519W        W73746   0.478  17.253  12.901
 8520W        W73747  43.796  13.331  13.016
 8521W        W73748  38.366   6.630  12.897
 8522W        W73749  27.846  18.165   3.654
 8523W        W73750   0.957  11.624   2.291
 8524W        W73751   5.175  32.600   0.433
 8525W        W73752  34.776  40.741   0.548
 8526W        W73753  26.626  10.751   0.072
 8527W        W73754  25.377  24.048  12.555
 8528W        W73755  12.301   3.425   0.872
 8529W        W73756  39.646  44.211   1.281
 8530W        W73757   5.958  21.105   5.131
 8531W        W73758  16.805  20.363   2.708
 8532W        W73759  23.678  37.017  13.377
 8533W        W73760   0.897  10.655   4.923
 8534W        W73761   0.222  31.578   0.007
 8535W        W73762  20.770  20.166  11.742
 8536W        W73763  37.258  43.831   1.365
 8537W        W73764   7.923   8.120   3.532
 8538W        W73765  32.901  19.699  13.478
 8539W        W73766  39.636  23.195   0.355
 8540W        W73767  31.801  23.099   2.208
 8541W        W73768  40.774  25.568   3.269
 8542W        W73769  12.335  42.141  11.609
 8543W        W73770  35.581  18.169   0.505
 8544W        W73771  40.550  34.221   4.383
 8545W        W73772  38.553   5.852   2.343
 8546W        W73773  11.300  44.904  10.992
 8547W        W73774  24.977   7.471   2.439
 8548W        W73775  24.059  12.349  11.538
 8549W        W73776  22.749  17.397  14.539
 8550W        W73777  25.742  23.715  14.886
 8551W        W73778   3.452  22.433   3.175
 8552W        W73779  29.365  36.199  14.544
 8553W        W73780  37.082  24.285   0.848
 8554W        W73781  42.500   4.719  11.128
 8555W        W73782   5.296   9.141   2.632
 8556W        W73783  38.368  30.590   1.891
 8557W        W73784   1.504  31.546  13.589
 8558W        W73785  39.452  11.731   2.469
 8559W        W73786  25.284  24.753   4.668
 8560W        W73787  16.674  11.912   4.450
 8561W        W73788   3.365  11.353   0.827
 8562W        W73789  42.658  38.901  12.815
 8563W        W73790   0.241  26.856   3.209
 8564W        W73791  22.938  40.586  12.011
 8565W        W73792  28.546  31.746  11.097
 8566W        W73793  30.567  13.449   1.925
 8567W        W73794  41.954  34.902   3.584
 8568W        W73795  37.684   0.782   2.366
 8569W        W73796  21.292  21.222  11.974
 8570W        W73797  31.468  13.587   1.252
 8571W        W73798  14.800  18.308  12.046
 8572W        W73799  11.785   1.945  13.391
 8573W        W73800  10.171  14.667  12.041
 8574W        W73801  34.430  23.598  12.677
 8575W        W73802  14.297  17.342   0.319
 8576W        W73803  25.582  37.787   1.703
 8577W        W73804  41.862  17.312   0.834
 8578W        W73805  39.224  20.439   4.217
 8579W        W73806   6.603   6.610  12.084
 8580W        W73807  43.543  37.079   2.438
 8581W        W73808   5.394  19.493   2.118
 8582W        W73809   3.194   6.941  13.899
 8583W        W73810  24.325  28.466  14.317
 8584W        W73811  34.777  37.002   2.585
 8585W        W73812  26.719  34.968   0.530
 8586W        W73813  23.251  29.525   1.208
 8587W        W73814  39.856  11.642   4.106
 8588W        W73815   1.269  30.991   1.722
 8589W        W73816   1.714  37.466  14.901
 8590W        W73817  38.763  23.572   4.748
 8591W        W73818  42.844  21.498  14.329
 8592W        W73819  26.781  18.127  11.998
 8593W        W73820  20.175   0.316   3.636
 8594W        W73821  44.294  29.322   1.925
 8595W        W73822   7.665  37.482  14.396
 8596W        W73823  36.413  31.036   3.140
 8597W        W73824  31.560  28.540  14.051
 8598W        W73825  26.300  25.700   1.712
 8599W        W73826  16.758  17.569  11.523
 8600W        W73827  21.732  44.003   3.844
 8601W        W73828  40.262  41.525   1.270
 8602W        W73829  17.067   5.457   3.355
 8603W        W73830  36.406  17.809   4.724
 8604W        W73831   1.776  35.644  12.597
 8605W        W73832   4.395  27.136   9.852
 8606W        W73833  14.641  22.623   4.382
 8607W        W73834  37.428  26.747  13.925
 8608W        W73835  41.628  13.101   2.927
 8609W        W73836  26.250  44.984   2.770
 8610W        W73837  31.408  44.431   4.696
 8611W        W73838   7.956  16.393   0.781
 8612W        W73839   6.754  21.036  12.098
 8613W        W73840   7.170  35.783   1.339
 8614W        W73841   1.517  17.206   3.695
 8615W        W73842  14.202  18.259   1.217
 8616W        W73843  27.158  36.310  11.101
 8617W        W73844  11.353  26.113  13.364
 8618W        W73845   0.490  32.538  11.511
 8619W        W73846  24.912  19.103   2.796
 8620W        W73847  21.255  42.433  13.949
 8621W        W73848  30.579  15.782  13.427
 8622W        W73849  37.406  19.361  10.786
 8623W        W73850   7.470  34.777  11.607
 8624W        W73851   3.548  43.783  12.490
 8625W        W73852   4.698  42.660  14.410
 8626W        W73853  31.701   3.928  12.963
 8627W        W73854  13.146  24.626  14.293
 8628W        W73855  32.138  21.699   4.670
 8629W        W73856  37.531  32.006  11.058
 8630W        W73857  25.037  34.889  11.047
 8631W        W73858   6.380   5.772   2.861
 8632W        W73859  23.777  22.034   2.247
 8633W        W73860  32.062  20.185   5.207
 8634W        W73861  40.304   3.354  12.826
 8635W        W73862   8.169  37.622  11.503
 8636W        W73863  15.177  42.051   3.287
 8637W        W73864  27.155   1.618   1.525
 8638W        W73865   8.879   1.239  11.670
 8639W        W73866  33.109   2.393   1.898
 8640W        W73867  37.471  41.759   1.793
 8641W        W73868   3.315  44.978   0.673
 8642W        W73869  37.068   4.414   0.735
 8643W        W73870  36.858  29.381   0.945
 8644W        W73871  29.295  21.388   3.567
 8645W        W73872   6.487  27.890   3.767
 8646W        W73873   0.013  19.267  12.193
 8647W        W73874  14.924  30.361   1.688
 8648W        W73875  33.336  22.863  13.854
 8649W        W73876  11.564  28.083   2.651
 8650W        W73877  24.275  41.435  11.406
 8651W        W73878  33.158  15.192   3.620
 8652W        W73879  30.166  37.961  12.538
 8653W        W73880  24.350  16.269   1.010
 8654W        W73881  38.780  26.610   0.032
 8655W        W73882   2.929  15.124  11.174
 8656W        W73883  14.123  12.520  13.407
 8657W        W73884  12.145  38.582   3.384
 8658W        W73885  22.946  11.554   0.065
 8659W        W73886  30.456   2.874  11.959
 8660W        W73887   4.336  27.427   2.753
 8661W        W73888   8.478  10.624  11.211
 8662W        W73889  37.906  34.923   3.726
 8663W        W73890  11.351   3.495  14.742
 8664W        W73891   1.695   6.831  11.920
 8665W        W73892  26.137  26.656   3.301
 8666W        W73893  24.023  41.100  10.602
 8667W        W73894  18.008  41.890   4.539
 8668W        W73895   4.900   9.737  14.924
 8669W        W73896  13.515  42.448  11.067
 8670W        W73897  39.262   7.958  10.366
 8671W        W73898  25.282   4.920  13.408
 8672W        W73899  40.005  23.194  11.571
 8673W        W73900  27.161  12.453   2.339
 8674W        W73901  26.010   6.961   0.356
 8675W        W73902  44.838   4.928  11.736
 8676W        W73903  33.855  28.582   2.812
 8677W        W73904   0.384  13.008  12.060
 8678W        W73905  32.653   4.908   3.126
 8679W        W73906   9.520   6.585  11.232
 8680W        W73907  43.049  43.888  12.974
 8681W        W73908   6.560   0.028  12.281
 8682W        W73909  40.055  40.445   3.670
 8683W        W73910  30.442  41.512   4.760
 8684W        W73911   6.623   1.751  12.498
 8685W        W73912  12.708  21.729  10.795
 8686W        W73913  13.640  10.344   1.667
 8687W        W73914  39.914  14.716   0.505
 8688W        W73915  26.911  15.430  14.732
 8689W        W73916  35.185   6.245  10.779
 8690W        W73917  39.125  29.412   3.631
 8691W        W73918  18.552  40.485   3.167
 8692W        W73919  30.556  20.704  11.354
 8693W        W73920  19.166  31.600   1.194
 8694W        W73921  21.042  15.228   3.310
 8695W        W73922  44.832  18.294   2.719
 8696W        W73923   5.685  30.316  14.898
 8697W        W73924  41.217  32.357   5.104
 8698W        W73925  11.684  16.222   0.087
 8699W        W73926  30.537  35.854  10.243
 8700W        W73927  21.234   5.369   2.225
 8701W        W73928  18.570  42.078  14.560
 8702W        W73929  16.864  23.927   3.255
 8703W        W73930  16.033  44.921   1.746
 8704W        W73931  41.531  44.238  11.150
 8705W        W73932   3.853   0.868  11.622
 8706W        W73933  43.715   8.419  10.501
 8707W        W73934  31.014  13.540   1.660
 8708W        W73935  14.679  20.717  14.548
 8709W        W73936  15.773  30.102   3.548
 8710W        W73937   3.230  20.679  11.724
 8711W        W73938  29.793  17.783   2.701
 8712W        W73939  16.142  40.501   0.501
 8713W        W73940  30.387  28.605   2.910
 8714W        W73941  34.589  40.410  11.874
 8715W        W73942  19.604  20.715   2.144
 8716W        W73943  28.488  38.595   3.247
 8717W        W73944  23.978  34.926   1.877
 8718W        W73945  39.409  26.382   3.829
 8719W        W73946  20.099  40.884   2.899
 8720W        W73947  33.870  26.197   1.397
 8721W        W73948   2.747   1.546   4.043
 8722W        W73949  27.337   6.437   4.174
 8723W        W73950  34.389  22.772  11.207
 8724W        W73951  25.325  13.438   2.709
 8725W        W73952  21.159  19.180  12.917
 8726W        W73953  19.237  24.034  14.536
 8727W        W73954  27.794  24.249  12.902
 8728W        W73955  25.082  26.611   4.206
 8729W        W73956  29.182  41.781   3.730
 8730W        W73957  40.456  24.835   2.157
 8731W        W73958  23.679   4.824  11.631
 8732W        W73959  30.449  32.632   1.876
 8733W        W73960  29.500  15.818  13.483
 8734W        W73961  43.354   2.411  11.833
 8735W        W73962  37.872  34.579   4.592
 8736W        W73963  29.439  43.905  11.865
 8737W        W73964  27.707   2.655  11.175
 8738W        W73965  44.425  16.056  11.213
 8739W        W73966  44.120  42.457   4.985
 8740W        W73967  20.323  30.143   0.855
 8741W        W73968   4.470   1.438   0.302
 8742W        W73969  12.713   4.963   3.350
 8743W        W73970  17.838  34.042   2.265
 8744W        W73971  14.990  12.819   0.762
 8745W        W73972   4.394  41.382  14.421
 8746W        W73973  41.689  40.001   2.458
 8747W        W73974   7.978   5.990   2.108
 8748W        W73975  36.668  33.636  11.652
 8749W        W73976  10.082  10.783   4.155
 8750W        W73977  23.028  21.986   1.033
 8751W        W73978  13.092  26.638  13.541
 8752W        W73979  10.765  13.827  13.046
 8753W        W73980  20.331  32.131   4.316
 8754W        W73981   0.769  26.052   0.835
 8755W        W73982  30.368  24.206   2.476
 8756W        W73983  39.361  11.354  13.876
 8757W        W73984  35.838  44.945  12.929
 8758W        W73985  10.669  39.341   3.996
 8759W        W73986  22.844  17.134   2.398
 8760W        W73987  12.230  40.218  14.008
 8761W        W73988  12.200  14.595   2.011
 8762W        W73989  27.537  11.935  14.692
 8763W        W73990  40.447  26.537  14.083
 8764W        W73991  22.433  26.640  14.005
 8765W        W73992  10.334  29.086  13.641
 8766W        W73993  37.946   8.175   1.237
 8767W        W73994  41.526  38.806   1.244
 8768W        W73995  28.601  16.409   4.213
 8769W        W73996  44.331  39.312   4.421
 8770W        W73997  21.252  31.561   2.800
 8771W        W73998  24.888  25.800  14.373
 8772W        W73999  17.716  44.180   0.398
 8773W        W74000   3.089  30.237  10.597
 8774W        W74001  35.861  41.991   4.583
 8775W        W74002  40.889  24.767  13.991
 8776W        W74003  23.336   9.262   3.633
 8777W        W74004  17.029  13.171   0.896
 8778W        W74005  37.821  33.025   1.341
 8779W        W74006   3.968   2.593  14.827
 8780W        W74007  20.221  17.067  12.680
 8781W        W74008  12.870   4.481  13.583
 8782W        W74009  15.333  43.600  11.101
 8783W        W74010  18.337  11.851  11.632
 8784W        W74011  40.164  27.129  14.056
 8785W        W74012   0.017   8.075   3.077
 8786W        W74013   1.853  35.094   3.441
 8787W        W74014  43.302  39.962  14.339
 8788W        W74015  17.137  23.355  12.477
 8789W        W74016  39.796  33.550  11.135
 8790W        W74017  38.845  30.656  12.450
 8791W        W74018   4.993   7.353  11.248
 8792W        W74019  37.499  37.387  14.986
 8793W        W74020  13.770  39.984  11.725
 8794W        W74021  11.413  20.658   3.699
 8795W        W74022   8.657  42.895   3.710
 8796W        W74023  12.072   5.007   1.261
 8797W        W74024   3.924   9.873  10.651
 8798W        W74025  18.065  20.112  14.259
 8799W        W74026  39.218  34.855  11.004
 8800W        W74027  16.686  13.788  11.734
 8801W        W74028   1.781  31.189  14.489
 8802W        W74029  35.055  29.309  13.128
 8803W        W74030  14.703  37.680  12.054
 8804W        W74031   2.812  39.024  10.375
 8805W        W74032  19.172  26.905   1.840
 8806W        W74033   3.321  23.826  14.244
 8807W        W74034   5.159   7.763  13.277
 8808W        W74035  26.050   3.334   3.968
 8809W        W74036  36.102  11.266  12.678
 8810W        W74037  44.697   7.649   2.978
 8811W        W74038   9.832  39.403  10.396
 8812W        W74039  33.565  40.281   1.194
 8813W        W74040  37.181  16.110  12.131
 8814W        W74041   7.103  43.231   1.379
 8815W        W74042  18.116   2.512  10.976
 8816W        W74043  39.062   7.221   4.408
 8817W        W74044   7.882  39.029  14.231
 8818W        W74045  38.582  32.052   1.807
 8819W        W74046  42.178  15.868  14.299
 8820W        W74047  20.006   8.241  11.668
 8821W        W74048  26.548  28.510  13.454
 8822W        W74049   9.184  35.919   4.228
 8823W        W74050  34.929  34.932   4.743
 8824W        W74051  25.153  33.149   3.347
 8825W        W74052  29.786  17.985  10.714
 8826W        W74053  39.247  31.582  11.226
 8827W        W74054   6.108   6.493  12.045
 8828W        W74055   6.204   8.392  11.025
 8829W        W74056  32.461  26.703  13.010
 8830W        W74057  10.275  42.386   0.278
 8831W        W74058   2.934  25.611   0.936
 8832W        W74059  37.710  41.865   5.036
 8833W        W74060  16.898   6.817  13.854
 8834W        W74061  20.527  12.785   0.475
 8835W        W74062   5.865  21.986   2.280
 8836W        W74063   9.052  17.359   3.242
 8837W        W74064  41.066  42.496   1.710
 8838W        W74065  13.079  19.010  10.729
 8839W        W74066  17.349  32.640   1.489
 8840W        W74067   5.631  16.968  10.746
 8841W        W74068   7.845   1.985   4.368
 8842W        W74069   2.243   3.249  13.500
 8843W        W74070  44.131  13.184   4.527
 8844W        W74071  40.799  15.128  14.006
 8845W        W74072  39.414  21.646   1.146
 8846W        W74073  23.866  24.957   3.771
 8847W        W74074   2.034   8.428   4.572
 8848W        W74075  13.712  31.301   4.438
 8849W        W74076   8.018  33.553   1.368
 8850W        W74077   0.802  34.073   0.759
 8851W        W74078  20.438   2.484  12.870
 8852W        W74079  30.884  44.939   0.318
 8853W        W74080  16.463  25.240   2.419
 8854W        W74081  41.936  22.727  13.098
 8855W        W74082  14.676   9.092  11.260
 8856W        W74083   9.944  16.116   0.367
 8857W        W74084  14.509  16.073   2.072
 8858W        W74085  36.250  43.053   5.133
 8859W        W74086   1.917   8.737   1.998
 8860W        W74087  32.675   8.745  12.713
 8861W        W74088  40.062   5.196  13.048
 8862W        W74089  26.588  29.315   1.814
 8863W        W74090  13.587  36.338  10.338
 8864W        W74091  15.811  10.324   2.411
 8865W        W74092  11.454  26.444   2.009
 8866W        W74093  10.221  37.322  12.210
 8867W        W74094  12.260  38.471   2.879
 8868W        W74095   3.439  20.311  11.398
 8869W        W74096  13.459  20.887  13.387
 8870W        W74097   1.800  25.130   1.673
 8871W        W74098   7.393  44.040  13.985
 8872W        W74099  25.333  33.324   1.249
 8873W        W74100  20.788   5.034  11.191
 8874W        W74101   1.974  17.390  12.957
 8875W        W74102  10.917  14.440   0.827
 8876W        W74103  24.090  13.078   4.862
 8877W        W74104  28.093  18.527   1.462
 8878W        W74105  21.508   4.782   3.408
 8879W        W74106  26.149   6.809   3.739
 8880W        W74107   5.745  28.755   1.893
 8881W        W74108  39.559  11.164  12.552
 8882W        W74109  37.299  29.702   0.981
 8883W        W74110  35.399  27.588  12.703
 8884W        W74111  43.245  12.025   2.327
 8885W        W74112  35.574  22.156   3.301
 8886W        W74113   1.133  16.643   4.693
 8887W        W74114  24.464   2.873   0.893
 8888W        W74115  20.810  19.646  13.563
 8889W        W74116  10.852  11.688  11.177
 8890W        W74117  14.146  12.144   5.065
 8891W        W74118  31.599  34.297   1.474
 8892W        W74119   8.329  44.312   3.168
 8893W        W74120  19.529  10.345   0.842
 8894W        W74121  23.130  40.470   3.943
 8895W        W74122  19.080   5.111   3.973
 8896W        W74123  15.228  17.365  12.299
 8897W        W74124   7.557  11.690  14.364
 8898W        W74125  26.416   5.244  10.711
 8899W        W74126  20.226  27.455  12.526
 8900W        W74127   8.460   5.339  12.520
 8901W        W74128  19.281  30.892  12.659
 8902W        W74129  40.144  31.391  13.379
 8903W        W74130  22.493  21.647   0.585
 8904W        W74131  41.863  22.009   0.281
 8905W        W74132  20.650   4.284  12.518
 8906W        W74133  42.505  18.730   2.204
 8907W        W74134  42.459  30.234  11.749
 8908W        W74135  20.522   6.686   0.284
 8909W        W74136  44.816  23.148  13.749
 8910W        W74137   1.752  11.672  12.538
 8911W        W74138  27.072  24.397   4.632
 8912W        W74139  34.371  43.249   3.683
 8913W        W74140  10.252   7.203   3.691
 8914W        W74141  31.481  26.619  14.830
 8915W        W74142   4.209   5.219   1.741
 8916W        W74143  21.075  41.795   1.523
 8917W        W74144  26.983  26.740  13.478
 8918W        W74145  32.928  10.068  14.307
 8919W        W74146  36.158  18.667   2.690
 8920W        W74147  13.250  43.817  11.635
 8921W        W74148  42.768  15.140   2.316
 8922W        W74149  11.630  31.089  11.079
 8923W        W74150  12.279   1.349  13.904
 8924W        W74151  30.824  19.216  14.015
 8925W        W74152  18.551   1.291   3.165
 8926W        W74153  25.505  27.140  12.026
 8927W        W74154   6.768  28.363   1.191
 8928W        W74155  42.346  32.210  11.618
 8929W        W74156  17.553  39.061   3.694
 8930W        W74157  15.577   1.952   4.679
 8931W        W74158  43.901  30.545   1.700
 8932W        W74159   5.894   3.064  14.012
 8933W        W74160  23.760   9.712   0.409
 8934W        W74161  34.169  41.006   3.250
 8935W        W74162   4.203  27.313  13.836
 8936W        W74163  33.935  41.758  12.549
 8937W        W74164  37.578  33.371   0.017
 8938W        W74165   5.393  31.605   3.984
 8939W        W74166  11.357  42.005   3.250
 8940W        W74167  32.422   5.631   1.816
 8941W        W74168  35.374   5.787   4.953
 8942W        W74169  11.278  26.950   1.892
 8943W        W74170  14.822  10.207  13.141
 8944W        W74171   2.164  23.273  14.950
 8945W        W74172  42.077  43.407   2.848
 8946W        W74173  35.549  40.289  14.838
 8947W        W74174   3.395  30.390  13.458
 8948W        W74175  12.106  21.140   1.777
 8949W        W74176  28.097  43.774  14.324
 8950W        W74177  38.335   8.774  12.134
 8951W        W74178  21.479   1.325  14.004
 8952W        W74179  37.382   4.684  11.734
 8953W        W74180   2.342  33.594  13.481
 8954W        W74181  39.242  16.700   2.262
 8955W        W74182  39.018  38.898  10.895
 8956W        W74183  11.636  17.014   2.239
 8957W        W74184  17.677  34.612   1.847
 8958W        W74185  39.293   9.290   2.884
 8959W        W74186   2.844  33.648  12.506
 8960W        W74187  43.821  27.891  13.584
 8961W        W74188  20.050   4.839   5.189
 8962W        W74189  11.210  42.400   2.915
 8963W        W74190  23.271   7.769   4.199
 8964W        W74191  21.469   5.424  11.236
 8965W        W74192  11.852   4.140  12.836
 8966W        W74193  39.722  17.201  14.828
 8967W        W74194  18.778   5.659  12.411
 8968W        W74195  35.402  35.363   1.385
 8969W        W74196  24.079  42.194   3.608
 8970W        W74197  16.048  19.144  11.734
 8971W        W74198  40.426  31.717  10.287
 8972W        W74199  20.781   1.032   1.709
 8973W        W74200  39.823   4.676   4.079
 8974W        W74201  39.243  37.097   4.544
 8975W        W74202  16.774  15.679   3.188
 8976W        W74203  26.374  39.898  14.846
 8977W        W74204   5.884   8.959  11.481
 8978W        W74205   0.455  24.738  13.779
 8979W        W74206  18.630  42.713  12.604
 8980W        W74207  36.552  11.190   4.714
 8981W        W74208  44.837   8.282   4.522
 8982W        W74209  28.088  16.172  12.945
 8983W        W74210  42.060   4.005   0.352
 8984W        W74211  25.137  12.019  13.987
 8985W        W74212  33.201  22.477   4.279
 8986W        W74213  24.682  11.796   3.778
 8987W        W74214   7.749  14.335   9.906
 8988W        W74215   5.353  44.864   0.973
 8989W        W74216  14.175  36.104   0.682
 8990W        W74217  41.949   2.197   3.176
 8991W        W74218  37.271  42.481  14.001
 8992W        W74219  18.851   8.100   3.351
 8993W        W74220  40.814   2.690   2.916
 8994W        W74221  38.662  20.609   1.865
 8995W        W74222  42.246  15.792   0.274
 8996W        W74223  16.366   5.751  11.972
 8997W        W74224  14.376   9.866   4.374
 8998W        W74225  18.293   3.587  12.063
 8999W        W74226   7.302  18.098   3.958
 9000W        W74227  29.016   3.759  14.857
 9001W        W74228   4.762   6.853  12.436
 9002W        W74229   3.587  29.424   0.336
 9003W        W74230  24.631  20.958  11.303
 9004W        W74231  28.151  44.541  13.924
 9005W        W74232  38.089  40.073  10.617
 9006W        W74233  42.370  13.634  12.651
 9007W        W74234  15.997  31.650   1.303
 9008W        W74235  15.991  18.829   1.745
 9009W        W74236   6.683   3.356  13.347
 9010W        W74237   0.412  14.561   1.393
 9011W        W74238   9.680  18.663  14.895
 9012W        W74239  24.275  14.594  12.461
 9013W        W74240  12.215   7.938  13.344
 9014W        W74241   5.353  16.574  14.670
 9015W        W74242  10.555  39.901  13.883
 9016W        W74243  43.860   6.726   3.826
 9017W        W74244   9.297  38.770   1.219
 9018W        W74245  20.277  39.614  14.527
 9019W        W74246  15.235  37.442  11.140
 9020W        W74247  36.051  42.791  11.623
 9021W        W74248  27.266  21.075  10.715
 9022W        W74249   2.790  10.152  12.430
 9023W        W74250  19.373  42.916  12.009
 9024W        W74251  17.572   2.444  14.879
 9025W        W74252  37.645  29.249   3.773
 9026W        W74253  39.901   2.636   0.418
 9027W        W74254   1.339  38.471  10.968
 9028W        W74255  10.301  39.350  14.837
 9029W        W74256  30.061   5.364  12.241
 9030W        W74257   4.945  12.764   2.246
 9031W        W74258  21.030  13.599   1.256
 9032W        W74259  10.482  21.618   4.093
 9033W        W74260  43.773  22.833  13.067
 9034W        W74261  30.633  10.886   1.361
 9035W        W74262  34.913  28.654   3.812
 9036W        W74263   0.399  12.472   1.337
 9037W        W74264  43.138  38.132   1.709
 9038W        W74265   7.925  21.332   3.829
 9039W        W74266  32.399  39.565  11.930
 9040W        W74267  14.919  10.620   0.618
 9041W        W74268  17.226  42.496  11.556
 9042W        W74269  22.988  37.035  10.671
 9043W        W74270  34.048  11.183  11.589
 9044W        W74271  25.012  40.783   1.640
 9045W        W74272   6.694  20.189  10.831
 9046W        W74273  32.482  19.207  11.262
 9047W        W74274  13.134  40.078   3.193
 9048W        W74275  16.920   2.409  12.480
 9049W        W74276  43.225   0.252   4.137
 9050W        W74277  25.032   0.235  14.857
 9051W        W74278  17.458  40.553  14.305
 9052W        W74279  28.616  40.758   4.537
 9053W        W74280   9.325  24.697  10.723
 9054W        W74281   3.968  30.342  14.464
 9055W        W74282  16.168   8.922   3.744
 9056W        W74283  16.601  18.105   0.502
 9057W        W74284  41.045  27.998  14.371
 9058W        W74285   2.881  30.506  12.632
 9059W        W74286   7.980  27.529  13.723
 9060W        W74287  28.782  40.581   3.760
 9061W        W74288  41.334  40.883  12.545
 9062W        W74289  39.952  28.088   4.564
 9063W        W74290  33.017   2.269   0.920
 9064W        W74291   9.209  10.893   3.900
 9065W        W74292  13.787  13.419   4.605
 9066W        W74293   9.239  18.681  10.688
 9067W        W74294  37.373  19.233   3.992
 9068W        W74295   0.991   4.144   2.294
 9069W        W74296  40.672  25.406  14.796
 9070W        W74297   5.505   4.028   0.804
 9071W        W74298   6.975  26.907   2.782
 9072W        W74299  44.479  23.507  12.935
 9073W        W74300  38.749  41.520  10.863
 9074W        W74301  10.708   2.428  14.020
 9075W        W74302  19.236  43.887   1.237
 9076W        W74303  29.973   7.679  10.673
 9077W        W74304  43.975  42.386  14.305
 9078W        W74305  38.394  29.380   3.194
 9079W        W74306   2.507  42.393   1.451
 9080W        W74307   1.316  42.740  13.647
 9081W        W74308  30.145  24.644   4.135
 9082W        W74309  44.893  41.749   3.889
 9083W        W74310  19.522  15.900  12.436
 9084W        W74311   0.926  43.688   1.790
 9085W        W74312   4.861  38.762   1.674
 9086W        W74313  29.057  42.642  11.915
 9087W        W74314  18.578   5.872   3.600
 9088W        W74315  10.113  18.459  13.465
 9089W        W74316  29.229  25.808   0.667
 9090W        W74317  43.984  32.693  13.870
 9091W        W74318  21.758  17.064  14.317
 9092W        W74319  23.140   4.226  14.962
 9093W        W74320   8.242  40.649   3.432
 9094W        W74321  23.468   5.438   4.520
 9095W        W74322  17.484  30.521   3.752
 9096W        W74323   0.513  21.616  14.163
 9097W        W74324  14.940   6.291  14.077
 9098W        W74325  12.364  33.514  12.074
 9099W        W74326   3.447  36.278  13.724
 9100W        W74327  28.707   0.143   2.212
 9101W        W74328  44.322  21.129  14.491
 9102W        W74329  36.678  19.766   4.585
 9103W        W74330  14.116   7.236   0.830
 9104W        W74331  24.157  20.816  13.055
 9105W        W74332   1.660  37.422   2.233
 9106W        W74333  14.331  33.431   4.761
 9107W        W74334  44.358  10.925   4.839
 9108W        W74335  33.413  23.874   3.907
 9109W        W74336  28.762  44.832  13.611
 9110W        W74337  20.286  27.650   3.247
 9111W        W74338   4.971   1.772  14.406
 9112W        W74339  34.380  30.845  11.661
 9113W        W74340  40.554  32.372   1.388
 9114W        W74341  40.334   3.953  12.585
 9115W        W74342   2.209  20.219   0.693
 9116W        W74343  20.218  32.467  13.370
 9117W        W74344  43.451  18.773  14.151
 9118W        W74345  35.139   1.298   2.804
 9119W        W74346  14.302   0.843   4.184
 9120W        W74347  39.829  25.975   0.305
 9121W        W74348  28.563  31.670   4.473
 9122W        W74349  40.093  23.859   0.693
 9123W        W74350   3.239  41.910  14.891
 9124W        W74351  15.861  11.642   1.742
 9125W        W74352  19.245   1.834   1.114
 9126W        W74353   0.926  35.784  14.497
 9127W        W74354  12.861  31.593  14.908
 9128W        W74355  21.522  25.899   3.225
 9129W        W74356  42.004  25.429   2.772
 9130W        W74357   4.692  22.319  14.877
 9131W        W74358   4.169  17.543   0.690
 9132W        W74359  44.398  11.891   4.652
 9133W        W74360   0.715  15.063   2.696
 9134W        W74361  13.063  15.584   4.266
 9135W        W74362   3.397   5.222  10.796
 9136W        W74363  18.508  35.837   1.569
 9137W        W74364  33.139  13.090  11.487
 9138W        W74365   1.845  25.091  13.812
 9139W        W74366   6.385  24.549   3.189
 9140W        W74367  15.577  11.235  11.931
 9141W        W74368  34.948  29.741  11.618
 9142W        W74369  30.369  29.610  11.524
 9143W        W74370  30.565  18.511   4.514
 9144W        W74371  12.893  31.492   2.613
 9145W        W74372   5.658  35.020   1.020
 9146W        W74373   6.128  26.997   4.047
 9147W        W74374   6.048  35.028   1.363
 9148W        W74375  22.125  15.353   3.467
 9149W        W74376  17.274   9.831  14.879
 9150W        W74377  18.559  44.775  12.827
 9151W        W74378  40.331  33.588   4.270
 9152W        W74379  34.607  34.607   1.625
 9153W        W74380   2.503  22.318  12.331
 9154W        W74381   0.851   9.041  11.627
 9155W        W74382  19.755   0.925   2.136
 9156W        W74383   1.098  40.109   3.463
 9157W        W74384  34.546  15.163   3.189
 9158W        W74385   1.727   9.040  12.920
 9159W        W74386  31.378  20.339  13.223
 9160W        W74387   0.899  30.921  12.803
 9161W        W74388  35.552  27.536  13.201
 9162W        W74389  31.664  17.551  14.325
 9163W        W74390  14.940  13.534   3.387
 9164W        W74391  14.102   4.305   2.123
 9165W        W74392  20.763  44.064   3.693
 9166W        W74393  29.842  13.620   3.155
 9167W        W74394  16.396  27.593  11.110
 9168W        W74395  18.490  44.908  12.041
 9169W        W74396  37.315  20.026  14.026
 9170W        W74397   3.099  20.763  14.583
 9171W        W74398  20.718  25.842   3.123
 9172W        W74399   4.958  22.643   3.299
 9173W        W74400  29.354   7.417  12.158
 9174W        W74401  26.554  20.249   1.336
 9175W        W74402  14.379  16.354  10.776
 9176W        W74403  26.521   8.832   0.845
 9177W        W74404  17.836  40.886  14.426
 9178W        W74405  39.889  24.199   4.347
 9179W        W74406  12.825   5.666   2.674
 9180W        W74407  34.196  25.924   4.922
 9181W        W74408  31.997  32.583   4.955
 9182W        W74409   3.989   4.728   3.671
 9183W        W74410   3.955  19.037   3.738
 9184W        W74411   1.382  36.533  11.654
 9185W        W74412  43.009   8.307  11.344
 9186W        W74413  37.142  29.074   2.051
 9187W        W74414   0.790  16.040  13.006
 9188W        W74415  10.383  36.283   3.644
 9189W        W74416  31.893  25.014   0.774
 9190W        W74417  25.282  25.722  11.392
 9191W        W74418  38.657   5.612  13.761
 9192W        W74419  44.298   8.638   0.425
 9193W        W74420  16.113  20.827   3.550
 9194W        W74421  44.408   7.931   2.184
 9195W        W74422   5.206  12.253  10.635
 9196W        W74423  36.617  16.749   0.520
 9197W        W74424  28.867  33.133   3.672
 9198W        W74425   8.970  12.116  10.167
 9199W        W74426  10.732  28.926  11.528
 9200W        W74427  38.265  32.535  12.574
 9201W        W74428   5.317  22.686   3.752
 9202W        W74429  33.851   5.179  13.900
 9203W        W74430  29.002  22.290  14.188
 9204W        W74431  27.021  29.170   1.427
 9205W        W74432  28.006  41.719   1.859
 9206W        W74433  38.259  36.181   4.018
 9207W        W74434   4.099  35.972  12.431
 9208W        W74435   3.831  25.597   1.317
 9209W        W74436   4.170  18.389  11.787
 9210W        W74437  14.389  36.667  12.472
 9211W        W74438  29.441  41.029  10.736
 9212W        W74439   2.487  32.081   5.018
 9213W        W74440   4.313   8.422   2.094
 9214W        W74441  18.364   5.865   1.428
 9215W        W74442  42.924  39.303  13.201
 9216W        W74443  34.486  24.689   4.131
 9217W        W74444   8.916  10.707   2.259
 9218W        W74445   9.943  41.451  11.402
 9219W        W74446  34.030   3.844   4.707
 9220W        W74447  26.147  31.123   3.360
 9221W        W74448  42.384  23.221   0.663
 9222W        W74449   0.310  43.786  13.003
 9223W        W74450  33.554  24.702   4.734
 9224W        W74451  31.107   8.240   1.495
 9225W        W74452  13.418  36.750   2.633
 9226W        W74453  41.037  43.431  11.769
 9227W        W74454  27.653  32.389  10.680
 9228W        W74455  42.009  32.614  10.639
 9229W        W74456  41.476  15.558   1.305
 9230W        W74457  24.633  33.800  12.065
 9231W        W74458  44.880  24.517   1.822
 9232W        W74459  38.370   1.751   1.959
 9233W        W74460  13.771   5.697   1.774
 9234W        W74461  16.729   1.741   0.520
 9235W        W74462  25.174   6.511   4.002
 9236W        W74463   9.790   4.719  11.585
 9237W        W74464   7.360   7.118   3.698
 9238W        W74465  14.157  30.040  13.897
 9239W        W74466  18.282   4.191  13.782
 9240W        W74467  21.158   1.829  12.929
 9241W        W74468  26.379  25.064  12.642
 9242W        W74469  24.241  13.901   4.693
 9243W        W74470  37.765  14.255   0.982
 9244W        W74471  13.146  38.989   1.183
 9245W        W74472  21.439  38.960   0.750
 9246W        W74473  11.665  43.104   4.633
 9247W        W74474  39.836   7.966   4.288
 9248W        W74475  30.839   4.789  10.346
 9249W        W74476   2.401  42.758  11.368
 9250W        W74477  30.263  41.077   0.061
 9251W        W74478  29.438   8.751  11.325
 9252W        W74479  14.115  14.707   5.115
 9253W        W74480  36.800  32.722  14.823
 9254W        W74481  33.293  14.692   3.688
 9255W        W74482  29.274  29.244   0.136
 9256W        W74483  42.277  19.631  11.779
 9257W        W74484  24.559  16.804   0.488
 9258W        W74485  29.137  10.102   0.292
 9259W        W74486  15.577   7.957  14.519
 9260W        W74487  43.554   8.784  13.965
 9261W        W74488   8.370   9.374   4.208
 9262W        W74489  32.659  19.155   0.581
 9263W        W74490  30.189  20.323   0.409
 9264W        W74491  23.510  30.202  11.621
 9265W        W74492  28.015  26.735  12.570
 9266W        W74493  32.127  16.119   4.118
 9267W        W74494   6.342  28.114  14.034
 9268W        W74495  18.370  27.723   2.879
 9269W        W74496  39.309  34.362  11.185
 9270W        W74497  22.141  42.312  12.288
 9271W        W74498  22.743  43.227   1.266
 9272W        W74499  26.207  17.492  11.074
 9273W        W74500  25.911  10.250   3.643
 9274W        W74501  37.566  25.624   4.961
 9275W        W74502   5.901  33.865  13.478
 9276W        W74503   1.285   2.965   1.005
 9277W        W74504  35.375  43.561   2.272
 9278W        W74505  26.654   4.254   2.258
 9279W        W74506  38.860   0.208   1.277
 9280W        W74507  39.037  33.781   4.640
 9281W        W74508  12.875  16.563   4.661
 9282W        W74509   4.843  15.258  14.517
 9283W        W74510  40.835  43.889  13.325
 9284W        W74511  24.972   1.250   3.114
 9285W        W74512  16.593  16.752  14.410
 9286W        W74513  14.454  43.874  14.439
 9287W        W74514  23.557   2.175  13.408
 9288W        W74515  23.728  34.468   4.053
 9289W        W74516   9.816  15.427   3.407
 9290W        W74517  44.816  13.210   0.284
 9291W        W74518   6.189  33.832   0.284
 9292W        W74519   2.746  37.375  14.965
 9293W        W74520   6.444  31.370   2.321
 9294W        W74521  37.853  29.983   1.480
 9295W        W74522  22.220  40.339   0.532
 9296W        W74523  38.564  18.725  14.531
 9297W        W74524  23.090  23.121   4.299
 9298W        W74525  21.222  23.161   3.678
 9299W        W74526  22.513  30.955   4.693
 9300W        W74527  15.894   4.932  14.467
 9301W        W74528  37.942  17.509  10.653
 9302W        W74529   3.917  23.674   2.120
 9303W        W74530   6.010  34.513   4.526
 9304W        W74531  39.423  38.319  14.970
 9305W        W74532   1.556  34.926   4.171
 9306W        W74533  16.209  40.943   1.477
 9307W        W74534  10.461  35.547   0.213
 9308W        W74535  34.376  31.363  11.646
 9309W        W74536  14.725  40.487  10.862
 9310W        W74537  10.131  31.377   3.097
 9311W        W74538   0.505  37.344  10.727
 9312W        W74539  23.363  28.644  14.369
 9313W        W74540  34.996   0.356   1.811
 9314W        W74541  40.712  17.641  13.015
 9315W        W74542  29.145  34.501   4.564
 9316W        W74543  23.923   6.431  12.488
 9317W        W74544  40.082  34.251  12.485
 9318W        W74545  20.487  29.251  11.379
 9319W        W74546   8.673  30.183  11.137
 9320W        W74547  26.711  38.098   1.897
 9321W        W74548   8.534  29.473  13.104
 9322W        W74549   8.356  43.939  14.743
 9323W        W74550  43.612  16.813  14.879
 9324W        W74551  17.277  23.330   0.482
 9325W        W74552  35.328  25.605   4.117
 9326W        W74553  17.371  17.055   5.135
 9327W        W74554   0.070  35.688  11.324
 9328W        W74555  30.982  34.515   0.729
 9329W        W74556   4.475  13.517   0.902
 9330W        W74557   6.386  19.172  10.731
 9331W        W74558  14.284  43.511  12.497
 9332W        W74559  35.898  28.563   4.614
 9333W        W74560  22.270  30.330   5.211
 9334W        W74561  36.431  20.117   2.408
 9335W        W74562  12.372   9.649   3.209
 9336W        W74563  40.485  17.294   3.294
 9337W        W74564  32.337  40.671  12.545
 9338W        W74565  27.991  33.356  13.676
 9339W        W74566  10.363  13.562   3.711
 9340W        W74567   2.196  40.444   1.002
 9341W        W74568  13.777  15.966  12.915
 9342W        W74569  19.990  32.065  12.570
 9343W        W74570  25.105  10.140  12.362
 9344W        W74571  11.642  37.543  11.529
 9345W        W74572   6.729  27.239   2.419
 9346W        W74573  27.011  27.611   3.321
 9347W        W74574  41.411  20.580  12.953
 9348W        W74575   9.168  16.216  13.502
 9349W        W74576   4.026  26.344   2.161
 9350W        W74577  25.548  19.023   3.225
 9351W        W74578  41.201  40.465  13.425
 9352W        W74579  22.685  35.143  12.098
 9353W        W74580  42.470   9.699  13.854
 9354W        W74581  42.217  24.294   3.306
 9355W        W74582  30.241   4.915  11.241
 9356W        W74583  34.119  20.650   2.296
 9357W        W74584  33.553   8.737  13.726
 9358W        W74585  37.283  18.749   0.504
 9359W        W74586  16.569   0.725   0.206
 9360W        W74587  39.443  40.593   2.603
 9361W        W74588  29.992  34.921   4.392
 9362W        W74589   3.307  37.957  14.518
 9363W        W74590  13.265   6.787   2.136
 9364W        W74591   0.116  27.833  10.812
 9365W        W74592  35.381  31.842  10.771
 9366W        W74593  29.636  16.778  11.630
 9367W        W74594  11.128  21.189   1.482
 9368W        W74595  40.999  42.391   0.300
 9369W        W74596   1.163  11.470   2.737
 9370W        W74597  27.573  32.621   0.566
 9371W        W74598  18.006  25.606   4.447
 9372W        W74599  21.053  26.758   2.309
 9373W        W74600   1.878  18.939   3.253
 9374W        W74601  42.036  31.443   1.410
 9375W        W74602  40.600  32.062  11.091
 9376W        W74603  13.145  37.546  11.223
 9377W        W74604  12.172  42.966   2.407
 9378W        W74605  24.449  33.885  11.111
 9379W        W74606  24.235  10.589  14.241
 9380W        W74607   1.443  41.089  12.409
 9381W        W74608  10.155  17.957  13.804
 9382W        W74609   6.822  39.256   0.447
 9383W        W74610  39.511  38.603   3.725
 9384W        W74611  33.685  40.826  14.825
 9385W        W74612  41.387   7.807  14.493
 9386W        W74613  42.084  16.092   1.052
 9387W        W74614   2.364   8.243   1.413
 9388W        W74615  23.517  40.795   2.763
 9389W        W74616  36.769  14.948   1.362
 9390W        W74617   3.574  44.503   2.818
 9391W        W74618   8.052  11.527  11.746
 9392W        W74619  31.697   8.210  13.220
 9393W        W74620   6.656   0.223   3.692
 9394W        W74621  33.669  39.970  12.713
 9395W        W74622  42.490  23.651  11.108
 9396W        W74623  39.557  32.582   0.313
 9397W        W74624   9.232  10.117   0.772
 9398W        W74625  34.833   8.438   0.824
 9399W        W74626  41.842   7.046   2.263
 9400W        W74627  29.509   4.005  14.826
 9401W        W74628  31.564  39.443   0.791
 9402W        W74629  41.422  16.769   0.085
 9403W        W74630  26.859  41.936  11.181
 9404W        W74631  19.300  34.515   2.715
 9405W        W74632  29.608  31.230   1.076
 9406W        W74633   4.759  37.423   2.179
 9407W        W74634  10.719  43.605   1.187
 9408W        W74635  16.014  33.565   0.701
 9409W        W74636   2.239  18.010   4.556
 9410W        W74637   7.736  40.867  12.523
 9411W        W74638  31.494  42.439   4.482
 9412W        W74639  22.481  24.165  13.547
 9413W        W74640  20.614   2.777  11.982
 9414W        W74641  14.258  26.287  14.349
 9415W        W74642   5.468  28.125  11.586
 9416W        W74643  21.563  30.058  13.264
 9417W        W74644  18.112   2.632   3.194
 9418W        W74645  24.283   3.722   4.698
 9419W        W74646   0.323  11.392  14.382
 9420W        W74647   5.785  34.407   2.611
 9421W        W74648  13.935  20.722   1.462
 9422W        W74649  13.291   7.300  10.558
 9423W        W74650  44.941  35.298   1.624
 9424W        W74651  42.207   9.059  11.094
 9425W        W74652   7.768  28.625  13.326
 9426W        W74653  20.228  35.587   3.761
 9427W        W74654   0.712  40.863   0.274
 9428W        W74655  10.557  23.147  14.438
 9429W        W74656  24.364  11.214  11.257
 9430W        W74657   8.137  29.425   2.209
 9431W        W74658  12.604  30.016   4.600
 9432W        W74659   6.038  39.507  11.086
 9433W        W74660  38.149  29.910  13.629
 9434W        W74661  12.223  37.422  14.140
 9435W        W74662   1.632  23.613   2.214
 9436W        W74663  18.234  37.420  13.960
 9437W        W74664   3.672  13.140   2.849
 9438W        W74665  22.167  11.379   4.233
 9439W        W74666  29.178   4.746   0.579
 9440W        W74667  14.328   1.337  13.020
 9441W        W74668  20.442  37.077   0.212
 9442W        W74669  22.793  12.473   2.355
 9443W        W74670   5.279  40.561   4.491
 9444W        W74671  40.995  28.020   0.310
 9445W        W74672  20.768  35.833  12.576
 9446W        W74673  40.316  31.903   0.087
 9447W        W74674  28.087  37.998  14.677
 9448W        W74675  23.321  28.500   4.046
 9449W        W74676   9.321   9.950   2.169
 9450W        W74677  24.897  35.651   3.246
 9451W        W74678  36.606   1.740  11.106
 9452W        W74679  22.566  39.680  14.075
 9453W        W74680  43.275  29.866  13.250
 9454W        W74681  25.029  16.219  12.487
 9455W        W74682  17.219  20.991  13.971
 9456W        W74683  29.519  39.687   4.596
 9457W        W74684  16.671   2.323  11.934
 9458W        W74685  11.327   1.879  12.429
 9459W        W74686   6.927  29.962   0.441
 9460W        W74687  27.241  18.604   2.757
 9461W        W74688  19.926  31.681   2.561
 9462W        W74689  22.271  38.367   2.187
 9463W        W74690  17.017  14.199   4.608
 9464W        W74691  23.194   9.952   0.829
 9465W        W74692   4.038  35.055   4.225
 9466W        W74693  40.766  33.957  12.977
 9467W        W74694  38.460  38.302   1.791
 9468W        W74695  11.913  11.620   2.165
 9469W        W74696  40.433  14.841   4.558
 9470W        W74697  20.460  41.242   2.265
 9471W        W74698  35.620  40.562   2.567
 9472W        W74699   8.371   8.877   1.318
 9473W        W74700  31.495  21.600   4.154
 9474W        W74701  36.857  11.687   3.274
 9475W        W74702  25.567  31.252  13.024
 9476W        W74703   9.863  34.439  11.183
 9477W        W74704  15.807  22.938   1.857
 9478W        W74705  28.669  17.139  10.759
 9479W        W74706  13.349  16.772  10.252
 9480W        W74707  23.203  23.700  13.514
 9481W        W74708  36.059  10.277   1.368
 9482W        W74709  27.677  14.653   3.111
 9483W        W74710   5.657  14.509   0.809
 9484W        W74711  26.187  19.847   0.017
 9485W        W74712   5.440  28.191   0.702
 9486W        W74713   1.056   8.821  12.808
 9487W        W74714  33.953  44.915  10.732
 9488W        W74715  24.024   3.872   3.909
 9489W        W74716  11.111  25.300   3.674
 9490W        W74717  27.748  12.387  14.420
 9491W        W74718   0.903  36.920  13.805
 9492W        W74719  15.506  32.305   0.953
 9493W        W74720  21.005  44.944  14.855
 9494W        W74721  38.951  34.793   1.298
 9495W        W74722  14.745   8.694   3.683
 9496W        W74723   7.830  33.622   4.216
 9497W        W74724  43.278   7.281   0.486
 9498W        W74725   6.354  43.850   5.467
 9499W        W74726  32.950  42.883  12.118
 9500W        W74727  23.455  37.568  12.795
 9501W        W74728  43.974  35.086  12.666
 9502W        W74729   1.960  28.218  11.458
 9503W        W74730  43.379  43.372   0.822
 9504W        W74731  28.473  14.483   5.459
 9505W        W74732   9.409  20.981  12.405
 9506W        W74733  15.424  21.252   2.341
 9507W        W74734  11.497  11.738  13.909
 9508W        W74735  17.529  42.778   0.825
 9509W        W74736  44.350   4.775   3.719
 9510W        W74737  38.890  20.749  10.442
 9511W        W74738  36.999  10.430  13.242
 9512W        W74739   0.004   3.634   3.318
 9513W        W74740  24.718  26.740   3.823
 9514W        W74741  21.907  16.837   3.202
 9515W        W74742  31.487  23.220  14.038
 9516W        W74743  11.116  38.067  13.720
 9517W        W74744  14.320  24.270  10.699
 9518W        W74745  21.571  39.843   0.978
 9519W        W74746  40.087  30.934   4.568
 9520W        W74747  37.082   2.448   3.100
 9521W        W74748  39.475  23.308   1.920
 9522W        W74749   1.256  22.717   0.676
 9523W        W74750   9.773   4.998   1.468
 9524W        W74751   2.293  37.403  13.666
 9525W        W74752  15.521  17.643   4.127
 9526W        W74753  37.129   4.485  10.721
 9527W        W74754  20.357  24.085  10.710
 9528W        W74755  31.896  17.555   1.418
 9529W        W74756  34.017   4.519   2.726
 9530W        W74757  30.516   6.274   4.965
 9531W        W74758  30.424  24.528   3.708
 9532W        W74759  39.471  24.720  11.970
 9533W        W74760  19.289   4.454   2.178
 9534W        W74761  36.063  30.546  10.353
 9535W        W74762   6.387   4.785  11.474
 9536W        W74763  35.292  30.234  11.682
 9537W        W74764  22.606  35.711   1.122
 9538W        W74765  41.024  23.744  11.939
 9539W        W74766  20.928   6.398   0.139
 9540W        W74767  28.960  43.373  13.311
 9541W        W74768  25.947   1.133  13.138
 9542W        W74769  15.152  21.172  13.964
 9543W        W74770   8.775   7.116   3.759
 9544W        W74771   0.661  20.721  12.146
 9545W        W74772  20.004  24.325   1.046
 9546W        W74773   4.343  17.810   1.094
 9547W        W74774   0.753  39.983   2.191
 9548W        W74775  19.764  15.293   2.730
 9549W        W74776  11.710  41.223   0.637
 9550W        W74777   2.908  26.105  13.513
 9551W        W74778  33.528   0.293  10.605
 9552W        W74779   8.480  29.249  13.580
 9553W        W74780   9.196  36.130   3.119
 9554W        W74781  19.330  43.251  12.476
 9555W        W74782  38.445   9.961  13.366
 9556W        W74783  41.521  28.532   0.822
 9557W        W74784  44.861  33.163   1.467
 9558W        W74785   9.727  25.825   4.786
 9559W        W74786  26.395  34.006   4.180
 9560W        W74787  35.377  17.634  14.979
 9561W        W74788  17.067  18.493  14.351
 9562W        W74789  13.098  28.139  14.798
 9563W        W74790  19.649  32.777   0.946
 9564W        W74791  34.470  41.290   4.094
 9565W        W74792  31.253  39.094  11.196
 9566W        W74793  27.808  35.201  13.379
 9567W        W74794   9.975  20.510   0.331
 9568W        W74795  33.650   6.878  12.111
 9569W        W74796  16.041  11.704   3.389
 9570W        W74797  41.263  41.335   2.191
 9571W        W74798  29.415  12.122   0.298
 9572W        W74799  18.088  24.121   1.062
 9573W        W74800  15.492   2.841  11.732
 9574W        W74801  20.064  21.914  12.999
 9575W        W74802   5.524  40.939   3.659
 9576W        W74803   1.397  17.035  14.988
 9577W        W74804  42.654  38.801  11.158
 9578W        W74805  31.640  13.473  13.918
 9579W        W74806  17.249   4.594   3.924
 9580W        W74807   6.287  36.562  12.124
 9581W        W74808  43.292   3.708  12.689
 9582W        W74809  27.632  11.651   2.275
 9583W        W74810   8.063   1.603  11.789
 9584W        W74811  14.344   1.806   1.192
 9585W        W74812  42.453  15.461  13.002
 9586W        W74813  15.166  24.172  10.892
 9587W        W74814  42.204  22.752   4.097
 9588W        W74815  10.204  43.758   4.220
 9589W        W74816  21.679  20.853   2.714
 9590W        W74817  40.019  12.218  11.655
 9591W        W74818  43.664  27.478   5.591
 9592W        W74819   7.595   5.970   3.317
 9593W        W74820  28.956  26.075   1.014
 9594W        W74821  13.679  28.928  13.327
 9595W        W74822   3.470  21.310   4.566
 9596W        W74823  26.936  34.750  11.681
 9597W        W74824  15.632  22.693  11.654
 9598W        W74825  16.913  20.002  13.854
 9599W        W74826  10.605  44.356  12.121
 9600W        W74827  31.136   5.837   1.465
 9601W        W74828   1.334   0.500   0.067
 9602W        W74829   4.459   4.306   0.183
 9603W        W74830  14.534   5.563  13.521
 9604W        W74831  40.526  40.409  12.555
 9605W        W74832  19.356  20.831   4.539
 9606W        W74833  22.023  29.114   2.778
 9607W        W74834  16.429  44.448  11.112
 9608W        W74835  30.716  14.848  10.908
 9609W        W74836  26.268  10.913   0.993
 9610W        W74837  15.140  14.508  14.913
 9611W        W74838  31.006  33.287  10.687
 9612W        W74839  10.140  39.586  13.972
 9613W        W74840   5.342  25.690   9.697
 9614W        W74841  22.604  14.102  14.788
 9615W        W74842   9.534  25.749   2.056
 9616W        W74843   0.357   0.105  11.005
 9617W        W74844   7.002   3.900   3.135
 9618W        W74845   2.863  33.435   4.958
 9619W        W74846  10.421  11.798   1.029
 9620W        W74847  20.911  39.473  11.740
 9621W        W74848  26.120  35.262  11.240
 9622W        W74849  38.382  23.907  11.504
 9623W        W74850  11.637   8.559  12.143
 9624W        W74851  43.016  35.070   4.667
 9625W        W74852   6.890  21.290  11.197
 9626W        W74853  31.546  38.390   3.738
 9627W        W74854  34.600  35.110   2.393
 9628W        W74855  42.218  33.566   0.246
 9629W        W74856  39.685   7.377  10.779
 9630W        W74857  29.703  40.956   2.389
 9631W        W74858  16.968  28.422   3.068
 9632W        W74859  19.126  36.601  13.345
 9633W        W74860  13.108   6.737  12.454
 9634W        W74861  37.347  29.525   1.854
 9635W        W74862   9.060   2.274   1.753
 9636W        W74863  43.525  35.916  12.108
 9637W        W74864   3.440  12.198  12.100
 9638W        W74865  21.453  43.889   2.397
 9639W        W74866   9.622  43.759  14.507
 9640W        W74867  12.086  11.164  10.544
 9641W        W74868  18.670  41.020   4.338
 9642W        W74869  31.326  41.236   4.025
 9643W        W74870  28.257   7.993  11.492
 9644W        W74871  19.835   2.243  14.378
 9645W        W74872  29.943  32.460   4.623
 9646W        W74873  17.359  29.473  13.827
 9647W        W74874  16.198  22.701  10.197
 9648W        W74875  10.701  14.034   3.212
 9649W        W74876  30.631  11.384  10.256
 9650W        W74877  42.478  15.196   0.695
 9651W        W74878  34.391  38.544   0.340
 9652W        W74879  29.173  16.400   2.739
 9653W        W74880   8.602  17.748   2.817
 9654W        W74881  25.208  12.388   4.732
 9655W        W74882  15.239   0.427   0.873
 9656W        W74883  29.770  15.036   4.551
 9657W        W74884  34.551  24.751   2.107
 9658W        W74885  16.232  39.772  10.694
 9659W        W74886  19.661  32.275  14.414
 9660W        W74887  39.779  10.217  14.451
 9661W        W74888  27.007  15.240   3.999
 9662W        W74889  17.126  16.583  11.569
 9663W        W74890  36.529   8.886  14.516
 9664W        W74891  38.595  26.230  10.942
 9665W        W74892  41.238  36.771  11.610
 9666W        W74893  39.566  41.869  13.904
 9667W        W74894  37.922  42.327   4.903
 9668W        W74895  23.958  40.357   2.320
 9669W        W74896  29.054  12.664  14.469
 9670W        W74897   6.209  20.393  10.794
 9671W        W74898  22.528  38.498   4.186
 9672W        W74899  12.988   4.051  11.877
 9673W        W74900   8.675  37.157   0.213
 9674W        W74901   4.047   5.760   3.192
 9675W        W74902  34.174  35.771   4.249
 9676W        W74903  41.690   5.261  11.643
 9677W        W74904  25.728  13.175  14.018
 9678W        W74905  41.568  12.881   4.168
 9679W        W74906   8.452  26.634  12.107
 9680W        W74907  33.949   9.304   4.455
 9681W        W74908  35.031  37.794   0.638
 9682W        W74909  41.288  22.708   2.781
 9683W        W74910   0.829  23.309   9.840
 9684W        W74911   6.555  29.126  10.842
 9685W        W74912  32.908  26.066  10.115
 9686W        W74913  32.470  23.461   3.973
 9687W        W74914   8.850  34.091   0.425
 9688W        W74915  40.425  28.962  14.930
 9689W        W74916  17.409  41.352  13.460
 9690W        W74917  20.318  31.934  13.554
 9691W        W74918  15.384  37.933  14.234
 9692W        W74919   9.847  27.224   1.692
 9693W        W74920  20.308  12.464   4.477
 9694W        W74921   9.591  42.029   0.439
 9695W        W74922  42.077  44.935  14.275
 9696W        W74923  35.433   4.009   4.279
 9697W        W74924  32.282  22.538   0.517
 9698W        W74925  18.168  22.082   1.388
 9699W        W74926  27.744  33.534   1.759
 9700W        W74927  10.133   2.504   4.202
 9701W        W74928  43.730  23.347  13.048
 9702W        W74929   7.642  44.624   1.448
 9703W        W74930  33.874  26.454   2.394
 9704W        W74931  15.331  32.617   2.339
 9705W        W74932   4.268  44.306  14.372
 9706W        W74933   5.746  31.621   2.771
 9707W        W74934   2.380  16.543   2.297
 9708W        W74935   4.857  17.498   4.180
 9709W        W74936  43.817  29.537   0.759
 9710W        W74937  33.547  30.404  12.619
 9711W        W74938  11.389  43.963  14.730
 9712W        W74939  41.809   5.129   1.951
 9713W        W74940  36.898   8.754  12.980
 9714W        W74941  18.614  36.542  11.202
 9715W        W74942  27.546  27.961  10.335
 9716W        W74943  18.324  44.406   4.108
 9717W        W74944  40.074  41.454   4.574
 9718W        W74945   4.764  33.460   0.921
 9719W        W74946  27.311  12.930   3.364
 9720W        W74947  41.864  13.795  10.698
 9721W        W74948  34.045  33.423  12.815
 9722W        W74949  34.538  29.850  13.517
 9723W        W74950  36.996  23.165   4.750
 9724W        W74951  12.583  34.972  10.334
 9725W        W74952  26.076   9.892   2.665
 9726W        W74953  37.476  17.220  12.477
 9727W        W74954  30.997   1.888   3.257
 9728W        W74955  31.419  32.969   0.388
 9729W        W74956  24.649   6.892  11.678
 9730W        W74957  27.186   4.039   1.761
 9731W        W74958   0.475  15.664  10.468
 9732W        W74959   9.975  42.275   0.699
 9733W        W74960   8.968  38.794   1.871
 9734W        W74961   7.546  31.498  12.365
 9735W        W74962  22.980  31.387  12.036
 9736W        W74963  18.300  29.955   3.718
 9737W        W74964  30.134  14.350   4.829
 9738W        W74965  16.324  43.783   4.226
 9739W        W74966  29.082  40.445   1.453
 9740W        W74967  15.610  42.056   0.768
 9741W        W74968  20.656   8.762  12.034
 9742W        W74969  35.073  10.868  12.806
 9743W        W74970  26.044   0.117  13.021
 9744W        W74971  31.461  21.186   0.341
 9745W        W74972   3.776  25.474  11.108
 9746W        W74973  35.111  27.982   3.111
 9747W        W74974  39.327   8.309   2.621
 9748W        W74975  10.310  21.446  12.304
 9749W        W74976  25.782  27.111   3.237
 9750W        W74977   0.376   8.243   0.400
 9751W        W74978  32.903  44.379  14.796
 9752W        W74979  20.001   7.920   2.665
 9753W        W74980  27.214  24.534   0.373
 9754W        W74981  29.059   7.702  12.493
 9755W        W74982  21.116  12.116   4.238
 9756W        W74983  34.105   6.458  14.322
 9757W        W74984  19.984  36.583   0.267
 9758W        W74985  25.839  23.798   3.723
 9759W        W74986  25.029  34.826   3.840
 9760W        W74987  10.585  37.989  11.657
 9761W        W74988   6.785  36.197   0.490
 9762W        W74989  41.967  25.433  14.351
 9763W        W74990  25.531  31.277  10.535
 9764W        W74991  12.303  31.437   9.799
 9765W        W74992  40.363  17.076   1.492
 9766W        W74993  42.539  40.409   4.112
 9767W        W74994  41.100   8.273   2.789
 9768W        W74995  12.235  27.019  12.497
 9769W        W74996  13.115   2.701   0.291
 9770W        W74997  32.433  31.554  14.031
 9771W        W74998  42.342   5.693   2.323
 9772W        W74999  15.870  31.497  14.761
 9773W        W75000  17.503  21.575  10.546
 9774W        W75001  32.130  21.257  12.010
 9775W        W75002  38.560  17.340   0.889
 9776W        W75003  44.051  14.242   1.884
 9777W        W75004   3.154   1.358   4.831
 9778W        W75005  24.282  39.920  13.874
 9779W        W75006  38.259  18.834  12.727
 9780W        W75007   2.582  16.225   4.206
 9781W        W75008  33.553  13.937  10.210
 9782W        W75009  26.051  44.608  11.218
 9783W        W75010  11.617   0.445   1.852
 9784W        W75011  43.280  16.358  11.163
 9785W        W75012  12.106  11.725  14.286
 9786W        W75013  33.706   0.285  13.402
 9787W        W75014   0.410  43.451  12.071
 9788W        W75015  28.400  29.977  11.597
 9789W        W75016   0.329  26.728  13.632
 9790W        W75017  29.129  19.522  10.610
 9791W        W75018   1.804  44.519   2.592
 9792W        W75019  11.181  27.942   4.032
 9793W        W75020   8.718   6.776   2.789
 9794W        W75021  22.977  29.132  11.410
 9795W        W75022  22.991   4.982  14.476
 9796W        W75023   9.778  11.591  14.810
 9797W        W75024   6.972  14.427  13.938
 9798W        W75025   9.536  27.943  13.863
 9799W        W75026   0.909  29.056  12.853
 9800W        W75027  10.770  41.250  13.137
 9801W        W75028   3.613   4.604   1.419
 9802W        W75029   0.824  15.969   3.772
 9803W        W75030  13.097  27.112  10.741
 9804W        W75031  37.786  35.399  13.462
 9805W        W75032   2.853  42.266  10.310
 9806W        W75033  26.996   1.800  14.676
 9807W        W75034  20.660   7.156  12.417
 9808W        W75035  43.057  31.547   1.421
 9809W        W75036   3.396  10.724   4.083
 9810W        W75037  18.732  29.128   1.458
 9811W        W75038  17.190  15.617  11.663
 9812W        W75039  16.293   0.327  14.960
 9813W        W75040  40.411  39.099   5.330
 9814W        W75041  27.118  15.443   1.311
 9815W        W75042  38.701   3.744   4.409
 9816W        W75043  22.847  36.618  13.436
 9817W        W75044  24.609  42.529   3.066
 9818W        W75045  35.963  42.466  14.287
 9819W        W75046  14.704  17.615  14.728
 9820W        W75047  37.631   0.373  11.142
 9821W        W75048  18.339  25.913   4.193
 9822W        W75049   7.127  21.979  13.925
 9823W        W75050  40.936  20.620   2.159
 9824W        W75051  43.710  16.661  11.269
 9825W        W75052  29.144  32.349   4.093
 9826W        W75053  44.157  16.409   4.544
 9827W        W75054  10.833  20.794   2.401
 9828W        W75055   5.199   7.373   0.904
 9829W        W75056  37.579   5.722  14.504
 9830W        W75057   0.814  30.705  13.769
 9831W        W75058  23.715  36.455   3.099
 9832W        W75059  19.338   8.897   1.816
 9833W        W75060  11.799  20.300   2.298
 9834W        W75061   9.149   9.630  11.569
 9835W        W75062   3.737  23.426   4.239
 9836W        W75063  17.296   7.274   0.929
 9837W        W75064  22.932  13.297  11.160
 9838W        W75065  13.322  20.679   3.579
 9839W        W75066   5.241  23.226   1.981
 9840W        W75067   9.149  20.209  12.920
 9841W        W75068  26.911   7.284   3.644
 9842W        W75069   4.288  29.583  10.545
 9843W        W75070  25.558   3.217   3.103
 9844W        W75071   2.495   1.623   2.779
 9845W        W75072  26.210  14.939   4.150
 9846W        W75073  26.683  33.296  14.501
 9847W        W75074  35.855  32.528   1.745
 9848W        W75075  43.550  23.244   3.181
 9849W        W75076  18.029  34.547  13.010
 9850W        W75077   7.252  37.423  12.023
 9851W        W75078  17.878   5.211  12.522
 9852W        W75079  17.241   2.915  13.927
 9853W        W75080  17.273  21.613  13.054
 9854W        W75081  16.771  14.939   2.519
 9855W        W75082  22.642  17.098   1.036
 9856W        W75083  25.918  35.124  12.176
 9857W        W75084  10.619  41.492   1.270
 9858W        W75085  40.599  30.257   2.224
 9859W        W75086   9.300  24.046  13.957
 9860W        W75087   9.217   7.841  10.552
 9861W        W75088  10.264  23.718  11.739
 9862W        W75089  38.334  18.654   0.983
 9863W        W75090  20.603  34.596   3.233
 9864W        W75091  21.253   7.997   1.270
 9865W        W75092   0.689  14.121   3.171
 9866W        W75093  15.454   0.426  14.400
 9867W        W75094   0.746  25.599  14.696
 9868W        W75095  22.066  36.607   4.583
 9869W        W75096   6.972   3.368   4.075
 9870W        W75097   9.314  30.095  14.345
 9871W        W75098  13.077  41.954   2.336
 9872W        W75099  35.463   7.875  11.890
 9873W        W75100  18.056  17.769   4.169
 9874W        W75101  15.020  22.291  13.149
 9875W        W75102   6.224  17.915   0.114
 9876W        W75103  24.321  18.665  12.879
 9877W        W75104  21.041  34.401   3.467
 9878W        W75105  26.550  18.996   0.779
 9879W        W75106  16.139  31.027   2.874
 9880W        W75107  14.837  32.631  14.029
 9881W        W75108   5.262  35.951  11.608
 9882W        W75109  30.596  27.171  14.348
 9883W        W75110  25.738   2.438  13.081
 9884W        W75111   3.285  11.252   4.068
 9885W        W75112  15.382   6.106  14.272
 9886W        W75113  29.665  44.968   0.737
 9887W        W75114   4.067  11.812   0.187
 9888W        W75115  27.467  16.779   2.791
 9889W        W75116  18.072  44.136   1.276
 9890W        W75117  39.090  44.749  12.507
 9891W        W75118  25.583  23.734   1.465
 9892W        W75119  40.341  40.908  14.274
 9893W        W75120  18.342  43.809   1.566
 9894W        W75121  41.375  26.936  13.284
 9895W        W75122  13.354  38.458   4.738
 9896W        W75123  22.555  33.665   1.057
 9897W        W75124   3.914  19.446  11.633
 9898W        W75125   2.060  12.044  12.742
 9899W        W75126  12.060  19.098   2.651
 9900W        W75127  35.058  23.267  14.575
 9901W        W75128   4.959  22.206  14.424
 9902W        W75129  28.419   3.796   1.241
 9903W        W75130  37.314  33.032  11.733
 9904W        W75131  19.700  10.340  12.027
 9905W        W75132  36.451   7.649  11.121
 9906W        W75133  14.202  37.454   3.128
 9907W        W75134   9.693  25.983   3.575
 9908W        W75135  42.318   1.321   4.146
 9909W        W75136  20.326   3.879   4.211
 9910W        W75137  44.301  41.044   1.327
 9911W        W75138  30.312  27.427   2.084
 9912W        W75139  29.658   3.023   2.906
 9913W        W75140   9.328  26.199   2.221
 9914W        W75141  41.592  36.316   4.090
 9915W        W75142   1.958  33.234   4.076
 9916W        W75143   4.857  23.309   3.255
 9917W        W75144  31.258  42.212  13.071
 9918W        W75145   5.164  13.860   3.619
 9919W        W75146  29.360   3.272  14.511
 9920W        W75147  14.820  43.184  14.858
 9921W        W75148  26.152  12.894  14.915
 9922W        W75149  19.628  23.608  14.966
 9923W        W75150  14.531  24.221   0.731
 9924W        W75151   8.150  27.583   2.539
 9925W        W75152  28.449  39.643   2.238
 9926W        W75153  17.208  32.791  14.004
 9927W        W75154   1.024  27.656  12.256
 9928W        W75155  33.421  32.672  11.615
 9929W        W75156   9.572  44.159  10.293
 9930W        W75157  26.483   0.976  10.526
 9931W        W75158   6.258  39.018  10.989
 9932W        W75159  26.172  24.206   0.742
 9933W        W75160  23.867  31.091  11.918
 9934W        W75161  31.667  12.296   0.714
 9935W        W75162  28.744  23.453   3.996
 9936W        W75163  40.668   0.224  13.552
 9937W        W75164   3.000  39.094  13.639
 9938W        W75165   3.772  38.066  14.263
 9939W        W75166  41.385   0.236   1.246
 9940W        W75167  42.491  28.231   3.010
 9941W        W75168   9.642  40.955   2.252
 9942W        W75169  43.476   2.693  10.797
 9943W        W75170   4.417   8.277   3.117
 9944W        W75171  41.527  10.893   4.785
 9945W        W75172   0.885  21.975   1.269
 9946W        W75173  34.933  25.232  10.750
 9947W        W75174  29.464  15.823   0.583
 9948W        W75175  36.368  25.432   3.726
 9949W        W75176   7.448  14.647  12.517
 9950W        W75177   7.161  18.218   2.682
 9951W        W75178  36.470  19.155   1.812
 9952W        W75179  25.587  19.081   2.217
 9953W        W75180  25.581   6.276   4.219
 9954W        W75181   2.955   0.232   0.213
 9955W        W75182   7.132  32.362   1.455
 9956W        W75183  22.242  18.206  11.953
 9957W        W75184  24.723  31.790   2.663
 9958W        W75185  33.436   9.658   3.859
 9959W        W75186  24.158  10.123   1.209
 9960W        W75187  10.655  27.690   4.526
 9961W        W75188  15.684  40.198   4.649
 9962W        W75189  28.715  41.521   3.848
 9963W        W75190  13.272  25.155  13.022
 9964W        W75191  44.187   0.077   4.084
 9965W        W75192  40.401  31.485  11.583
 9966W        W75193  32.168  23.769  13.918
 9967W        W75194  35.992  44.230   4.708
 9968W        W75195   6.850  17.851  11.572
 9969W        W75196   4.323  20.630  13.992
 9970W        W75197  17.168  38.001  13.308
 9971W        W75198  38.493  15.726  13.870
 9972W        W75199  43.428  15.267  13.141
 9973W        W75200  16.269  23.554  12.485
 9974W        W75201   9.603   3.215  11.570
 9975W        W75202  44.278  41.531   2.273
 9976W        W75203  10.527   4.354   2.354
 9977W        W75204  35.181  38.623  14.497
 9978W        W75205   7.986  23.789  12.918
 9979W        W75206  21.430  34.483  11.629
 9980W        W75207   7.786   2.055  12.593
 9981W        W75208  14.685  37.185  14.656
 9982W        W75209  19.740  30.621   1.260
 9983W        W75210  13.857  23.515  14.373
 9984W        W75211   0.071  23.676  12.590
 9985W        W75212  14.143  17.628   4.138
 9986W        W75213   7.948  42.912   2.826
 9987W        W75214  31.633  24.768   2.395
 9988W        W75215  20.130  16.794  11.819
 9989W        W75216  31.486  34.525  10.484
 9990W        W75217  29.055  10.789  14.337
 9991W        W75218  34.664  35.407   3.241
 9992W        W75219  10.468  15.979   3.647
 9993W        W75220  17.297  26.462  10.710
 9994W        W75221   9.702  36.448  13.099
 9995W        W75222  23.082   8.668   3.142
 9996W        W75223   9.559  23.264  10.866
 9997W        W75224  28.564  32.138   3.093
 9998W        W75225  31.668  21.653   2.058
 9999W        W75226  30.447  21.797  12.984
10000W        W75227  36.259  32.623  11.300
10001W        W75228   7.448  21.238   3.190
10002W        W75229  34.949  11.537  14.966
10003W        W75230  40.046  11.178   0.459
10004W        W75231  18.935  19.078   4.202
10005W        W75232   2.869  29.976  12.639
10006W        W75233   0.921   3.637  10.435
10007W        W75234  10.413  13.313   4.166
10008W        W75235  27.164  25.425   0.119
10009W        W75236  11.791  39.415   3.418
10010W        W75237  37.867  17.307  11.663
10011W        W75238  23.111  39.956   3.786
10012W        W75239  44.969  36.954  11.589
10013W        W75240  25.233  10.492   2.690
10014W        W75241   8.285  25.261  12.425
10015W        W75242  43.781  32.391  11.453
10016W        W75243  11.306  18.665   2.730
10017W        W75244   4.871  25.239  12.349
10018W        W75245   3.370   5.256   1.726
10019W        W75246  42.327  24.743  13.095
10020W        W75247  23.051  22.038  13.091
10021W        W75248  12.182  32.059   2.999
10022W        W75249  38.805  43.004  13.523
10023W        W75250   9.885  30.545   2.130
10024W        W75251  43.122  35.218  11.718
10025W        W75252  40.238  43.872   2.802
10026W        W75253  32.036  35.427  11.280
10027W        W75254  42.081  42.937  14.762
10028W        W75255  29.102  22.588   1.069
10029W        W75256  20.195  32.616  11.606
10030W        W75257   8.360   7.891  10.855
10031W        W75258  29.856  17.151   4.402
10032W        W75259  12.079  38.997   2.218
10033W        W75260  28.359  31.882   2.642
10034W        W75261  33.869   5.688  13.973
10035W        W75262  36.264  30.651  13.428
10036W        W75263  20.106  11.470   2.191
10037W        W75264   9.955  10.338  13.490
10038W        W75265  23.161  44.305   0.406
10039W        W75266  41.588  42.906   0.795
10040W        W75267   7.100  10.681  11.180
10041W        W75268  17.172   0.522  14.812
10042W        W75269   0.425  39.231   0.988
10043W        W75270  20.557  33.364  12.924
10044W        W75271  35.120   5.136   1.317
10045W        W75272   3.250  31.108   3.341
10046W        W75273   8.318  43.326  13.530
10047W        W75274  41.249   3.232   0.417
10048W        W75275   4.952  27.439  13.149
10049W        W75276  17.178  20.512   1.429
10050W        W75277  42.054   9.855  14.421
10051W        W75278  14.213  38.438  14.393
10052W        W75279  22.033  30.156  10.675
10053W        W75280   1.941  40.782   1.323
10054W        W75281  10.611   8.852  10.838
10055W        W75282  32.109  37.244  11.204
10056W        W75283  30.178  12.362  14.506
10057W        W75284   7.423  43.834   3.910
10058W        W75285  21.542  11.666  11.691
10059W        W75286   2.597   8.878   4.695
10060W        W75287  13.237   3.964   0.739
10061W        W75288  24.469  33.109   0.664
10062W        W75289  33.762  30.001   5.030
10063W        W75290  44.903   5.760  12.381
10064W        W75291   6.912  13.633   2.430
10065W        W75292  26.445  11.159  14.797
10066W        W75293   3.985  44.019   2.713
10067W        W75294  19.826  42.858   0.017
10068W        W75295  24.791  25.932   4.460
10069W        W75296  41.942  35.611   2.841
10070W        W75297   8.605  33.588   4.179
10071W        W75298  38.882  42.779   3.806
10072W        W75299  10.342  20.929  13.463
10073W        W75300  23.711   9.888   0.931
10074W        W75301  19.999  40.921   4.326
10075W        W75302   9.698   3.257   4.557
10076W        W75303  27.005  21.492   1.577
10077W        W75304  21.188  23.079  12.386
10078W        W75305   8.799  10.753  13.986
10079W        W75306  16.889   9.757  12.803
10080W        W75307  26.687  12.940  14.061
10081W        W75308  13.791  37.978   1.909
10082W        W75309  27.953  43.430  11.637
10083W        W75310  43.147   0.975  14.398
10084W        W75311  26.779  37.432   4.073
10085W        W75312  15.041  15.655   3.863
10086W        W75313  20.277  11.587   4.053
10087W        W75314   0.869  28.980   2.395
10088W        W75315   2.332   9.244  11.842
10089W        W75316  17.567  24.151   4.537
10090W        W75317   7.690  21.706   1.247
10091W        W75318   0.564  21.474  11.192
10092W        W75319   9.867  12.139   3.222
10093W        W75320  32.986   3.921  10.523
10094W        W75321   1.970  31.450   2.654
10095W        W75322  44.950  25.587  11.293
10096W        W75323  44.959  44.608  12.714
10097W        W75324  22.836  18.923  12.410
10098W        W75325  40.047  38.799  12.094
10099W        W75326   6.278   3.174  12.451
10100W        W75327  30.152  24.767  14.910
10101W        W75328  13.878  37.154  11.400
10102W        W75329   8.778  26.483  13.347
10103W        W75330  20.672   8.775   4.804
10104W        W75331  29.365  23.738  14.587
10105W        W75332  42.184   3.216  11.003
10106W        W75333  11.474  13.236  13.371
10107W        W75334   7.277  14.010  14.023
10108W        W75335  23.103  24.584   1.211
10109W        W75336  26.785  28.718  12.079
10110W        W75337   1.485  31.416   0.861
10111W        W75338  28.121  43.660  12.066
10112W        W75339  34.057   5.323  12.436
10113W        W75340   9.663  21.291  11.513
10114W        W75341   0.798  12.361   3.658
10115W        W75342  35.938  15.438  14.396
10116W        W75343   6.961   9.098   0.397
10117W        W75344  19.570  28.303  11.529
10118W        W75345  18.920  10.300   2.034
10119W        W75346  27.417  11.830  12.386
10120W        W75347  34.487   9.187  13.926
10121W        W75348   7.118  13.179   0.284
10122W        W75349  37.207  33.528   4.999
10123W        W75350  22.271  42.216   1.637
10124W        W75351  23.678  28.342  14.983
10125W        W75352  30.048  30.870  11.990
10126W        W75353   8.726   7.203  14.804
10127W        W75354  10.699   3.874   2.270
10128W        W75355  41.036  17.136  14.454
10129W        W75356  16.475  37.468   1.739
10130W        W75357  44.708  16.377  14.435
10131W        W75358  15.860  40.919  13.389
10132W        W75359  23.062  37.180   0.389
10133W        W75360  43.947  43.410  11.266
10134W        W75361  29.588   5.516  14.774
10135W        W75362  14.639  35.457   2.416
10136W        W75363  38.036  41.489   4.378
10137W        W75364  33.376  21.035   4.563
10138W        W75365   7.631  19.214   3.749
10139W        W75366  44.248   3.858   4.137
10140W        W75367  14.955  10.913   0.148
10141W        W75368  38.972  35.189   1.643
10142W        W75369  20.431  39.634  11.648
10143W        W75370  33.355   5.227   3.726
10144W        W75371  44.273  35.429   0.311
10145W        W75372  34.455  16.604   9.759
10146W        W75373  37.539   0.401  14.257
10147W        W75374   1.694   2.714  14.737
10148W        W75375  14.311  22.634   1.111
10149W        W75376  10.916   6.887  13.561
10150W        W75377   3.983  43.390  13.304
10151W        W75378  29.941  23.342   0.269
10152W        W75379  36.074  19.834   0.687
10153W        W75380   6.142  16.111  14.920
10154W        W75381  40.362  41.992  11.040
10155W        W75382  43.927  43.660   2.860
10156W        W75383  18.977  31.984  14.070
10157W        W75384  36.815   4.928  10.647
10158W        W75385  19.707  30.647   4.297
10159W        W75386  35.933  22.727  11.954
10160W        W75387   8.688  36.445  12.134
10161W        W75388  42.549  41.228   1.661
10162W        W75389  38.517  26.470   3.986
10163W        W75390  43.564  29.031   0.327
10164W        W75391   2.402   3.495   4.446
10165W        W75392  24.036  35.940   1.731
10166W        W75393  21.514   9.482  14.271
10167W        W75394  32.909  11.942  12.725
10168W        W75395  42.170  28.507  11.647
10169W        W75396  19.357  24.439  14.991
10170W        W75397  43.802  35.118   0.898
10171W        W75398  10.857  26.970   3.584
10172W        W75399   9.915  20.193   2.471
10173W        W75400  43.364  35.195   2.963
10174W        W75401  40.234  17.055  14.801
10175W        W75402  23.247  26.844   2.949
10176W        W75403  41.374  34.483  12.046
10177W        W75404  13.840   2.677  14.100
10178W        W75405  19.731  37.987   0.449
10179W        W75406  29.276   1.013  14.851
10180W        W75407  23.904  41.808   2.799
10181W        W75408  33.163  10.774  13.532
10182W        W75409  26.465  40.819  14.910
10183W        W75410  26.356  33.041   1.694
10184W        W75411   1.889  29.365  10.123
10185W        W75412   8.422  12.954   2.048
10186W        W75413   0.890  44.350  13.451
10187W        W75414  19.648  43.849  13.643
10188W        W75415  21.295  42.980  13.453
10189W        W75416  29.706  44.174  12.180
10190W        W75417  10.655  34.904   0.775
10191W        W75418  40.764  25.470  12.987
10192W        W75419  39.791   1.823   3.611
10193W        W75420  30.542   8.945   1.775
10194W        W75421  27.356   2.736   3.067
10195W        W75422  36.336  33.676   0.056
10196W        W75423  29.984   5.182  13.240
10197W        W75424   0.668  19.138  11.723
10198W        W75425  42.373  20.648  13.530
10199W        W75426  34.458  30.699  13.924
10200W        W75427  10.430  11.419  10.304
10201W        W75428  18.327  38.052   4.155
10202W        W75429  42.385  18.193  11.499
10203W        W75430  31.337  28.809  14.412
10204W        W75431  36.032  10.682   2.387
10205W        W75432  44.861  36.507  11.364
10206W        W75433  23.135  32.096   3.790
10207W        W75434  18.168  21.846  14.942
10208W        W75435  14.047  44.331  10.646
10209W        W75436  28.662  41.468  12.436
10210W        W75437  36.301  27.601   4.088
10211W        W75438  38.349   6.999  12.512
10212W        W75439  15.099  40.846  14.127
10213W        W75440  17.337  23.506   4.431
10214W        W75441  32.129  28.008  12.506
10215W        W75442  15.120  20.829   2.057
10216W        W75443  40.923   0.542  14.470
10217W        W75444  37.722  40.382  10.787
10218W        W75445  42.601   1.950  13.888
10219W        W75446   6.846  18.644   2.635
10220W        W75447  39.036   4.847  13.162
10221W        W75448  39.052  35.965   2.230
10222W        W75449  19.961   9.978  11.686
10223W        W75450   9.768  11.089   1.853
10224W        W75451  44.890  22.800  14.699
10225W        W75452   7.196  23.749   2.112
10226W        W75453   4.555  34.909   3.200
10227W        W75454  14.974  21.201   3.881
10228W        W75455  19.254  29.994  13.964
10229W        W75456   7.943  13.747   1.916
10230W        W75457  30.559  33.372  11.540
10231W        W75458   0.122  18.013   4.150
10232W        W75459  19.202  13.252   1.914
10233W        W75460   8.456  25.099   0.195
10234W        W75461  38.672  21.932  11.501
10235W        W75462  13.876  17.558  12.065
10236W        W75463  21.201  19.958   2.783
10237W        W75464  36.380  13.333  14.883
10238W        W75465   1.207  42.616  12.524
10239W        W75466  18.734   1.554  14.955
10240W        W75467   4.726   6.095   2.494
10241W        W75468  32.058  42.199  13.497
10242W        W75469   3.070  22.154   0.529
10243W        W75470  11.335  13.789   3.590
10244W        W75471   8.812  18.796   1.326
10245W        W75472  38.854   7.431  13.898
10246W        W75473  26.904  21.686  12.015
10247W        W75474  35.190   9.864   2.754
10248W        W75475  22.863  11.352  12.326
10249W        W75476   3.407  14.720  14.430
10250W        W75477   5.826  38.858  12.120
10251W        W75478   4.839  40.389  12.438
10252W        W75479  29.395  10.382   2.700
10253W        W75480  18.314   8.300   1.245
10254W        W75481  31.578   4.317  12.556
10255W        W75482  35.436  42.688  13.018
10256W        W75483   6.957  40.758  10.606
10257W        W75484  38.194   0.588   2.281
10258W        W75485   2.923  20.254   1.225
10259W        W75486  15.593   7.767  13.345
10260W        W75487  27.994   2.740   1.864
10261W        W75488  16.800  35.799  12.031
10262W        W75489  18.999  35.310   4.649
10263W        W75490  30.386   8.687   0.659
10264W        W75491   3.247  17.895   1.954
10265W        W75492  28.318   5.137  13.366
10266W        W75493  36.642  43.192  11.992
10267W        W75494  28.237  42.964  11.554
10268W        W75495  32.184  13.398  13.339
10269W        W75496   7.204  24.680  13.495
10270W        W75497  28.411  17.701  12.567
10271W        W75498  13.684  10.092   0.592
10272W        W75499  32.432  27.748  13.001
10273W        W75500   0.409  11.362   4.510
10274W        W75501   1.996  31.749  13.533
10275W        W75502   8.256  11.034   1.145
10276W        W75503  18.934  24.593  11.087
10277W        W75504  22.634  18.971   1.281
10278W        W75505  38.948  32.991   3.087
10279W        W75506  42.279  28.485  10.772
10280W        W75507   5.457  16.133  11.920
10281W        W75508  32.591  28.294  12.554
10282W        W75509  25.380  32.431  11.188
10283W        W75510  17.523  44.001  12.155
10284W        W75511  33.653  26.674   1.783
10285W        W75512  37.449   0.803   2.818
10286W        W75513  19.821  31.911   0.683
10287W        W75514   4.791  41.804   1.356
10288W        W75515  16.499  39.561  12.409
10289W        W75516  18.635  33.332  12.816
10290W        W75517  22.050  14.047  10.478
10291W        W75518  12.700  35.195   2.261
10292W        W75519  32.497  16.162  13.121
10293W        W75520  25.207   1.475   1.655
10294W        W75521  38.423   4.194   3.590
10295W        W75522  37.173   3.487  13.652
10296W        W75523  25.120  15.590  10.746
10297W        W75524  20.635  27.138  11.174
10298W        W75525  39.765  16.705  14.576
10299W        W75526  17.763  36.023   1.765
10300W        W75527  37.999  14.058  13.540
10301W        W75528  28.071  13.754   2.080
10302W        W75529  39.793  18.768  13.067
10303W        W75530   8.879  35.524  13.477
10304W        W75531   0.043  27.804   2.458
10305W        W75532  21.443  26.620   1.995
10306W        W75533  25.089  38.322   3.627
10307W        W75534  35.261  18.726   2.885
10308W        W75535  37.502   8.319  14.876
10309W        W75536  38.534   9.265   1.248
10310W        W75537  26.904  18.355   3.546
10311W        W75538   0.284   6.501  12.373
10312W        W75539  39.591  34.429  12.463
10313W        W75540  10.112  29.907  11.145
10314W        W75541  17.719  30.883  11.299
10315W        W75542   1.472   2.809  13.963
10316W        W75543  23.764   6.336   0.348
10317W        W75544  29.851  25.582   3.247
10318W        W75545  26.586   6.056   1.762
10319W        W75546  26.600  42.924  10.047
10320W        W75547   6.853   6.260   0.746
10321W        W75548  30.761  16.337  12.792
10322W        W75549  36.510  22.837  11.290
10323W        W75550   8.197  33.720   0.866
10324W        W75551   6.636  40.098   2.808
10325W        W75552  28.723  14.122   0.987
10326W        W75553  43.221  25.043   2.066
10327W        W75554  25.062  39.500   2.157
10328W        W75555  27.717   4.141  12.043
10329W        W75556   3.871   9.271  12.408
10330W        W75557  31.697  15.886  12.069
10331W        W75558  32.098  40.639  10.770
10332W        W75559   7.949  37.037  13.123
10333W        W75560  39.252   1.456  13.819
10334W        W75561  31.479   8.398  14.241
10335W        W75562  31.715  35.703  13.863
10336W        W75563  11.896  39.066  11.934
10337W        W75564  25.616  43.489   3.270
10338W        W75565  25.201  26.611   0.897
10339W        W75566  33.754  18.448   4.605
10340W        W75567  12.308  28.989  14.360
10341W        W75568  18.305  13.830   4.648
10342W        W75569  39.744  35.116   0.189
10343W        W75570  39.318  16.825   0.280
10344W        W75571  33.954   3.272   4.612
10345W        W75572   2.283   0.022   1.823
10346W        W75573  30.331   4.905  13.483
10347W        W75574  32.939   4.855   2.689
10348W        W75575  41.831  31.052  14.797
10349W        W75576  41.253  35.046  12.494
10350W        W75577   3.770  22.404  13.942
10351W        W75578  13.416  33.596   3.152
10352W        W75579   1.802   4.275  13.472
10353W        W75580  20.560  42.370  10.957
10354W        W75581   0.059  33.070  12.903
10355W        W75582  26.658  29.439   4.595
10356W        W75583  23.620  39.968  14.984
10357W        W75584   0.390  10.717   0.052
10358W        W75585  41.052  25.744  14.616
10359W        W75586  24.686  44.511   4.572
10360W        W75587   2.977  44.025  10.337
10361W        W75588   4.704  21.466  11.546
10362W        W75589  13.391  11.460   2.370
10363W        W75590  43.525  38.086  14.495
10364W        W75591  28.948   4.826  12.422
10365W        W75592   8.225  26.679  12.574
10366W        W75593  13.275  44.500  10.632
10367W        W75594  22.074   9.809   4.315
10368W        W75595  23.360   2.458   4.677
10369W        W75596  42.873  32.906  13.826
10370W        W75597  16.629   1.331  11.562
10371W        W75598  12.969  36.435   4.904
10372W        W75599  14.119   4.320  12.458
10373W        W75600   1.112  13.530   9.783
10374W        W75601   2.887  27.572  11.603
10375W        W75602  43.517  10.705   3.043
10376W        W75603   4.584  21.525  13.537
10377W        W75604  14.805  31.299   0.731
10378W        W75605  11.161  15.637   3.204
10379W        W75606  26.164  36.139  14.159
10380W        W75607  32.954  31.970   4.161
10381W        W75608  44.754  44.540  11.062
10382W        W75609   4.162  29.157  13.338
10383W        W75610   4.635  18.249   4.549
10384W        W75611  18.292  13.455   1.467
10385W        W75612  36.610   5.654   4.957
10386W        W75613  26.578  29.879   1.010
10387W        W75614   5.423  33.485  12.446
10388W        W75615  26.549  15.068  14.607
10389W        W75616   4.284  33.664   0.728
10390W        W75617   1.407  33.065   3.765
10391W        W75618  35.394  40.389  12.523
10392W        W75619  21.745  35.420  12.370
10393W        W75620  15.912  28.467  14.025
10394W        W75621  14.604  24.496  12.551
10395W        W75622   5.849  36.171  13.894
10396W        W75623  17.838   4.785   1.333
10397W        W75624  24.566  20.167   2.198
10398W        W75625   5.124  11.648  11.196
10399W        W75626   5.696  20.686  12.839
10400W        W75627  40.446  18.495   0.354
10401W        W75628  18.408   2.978   4.090
10402W        W75629  28.470  13.866   0.609
10403W        W75630   6.921   9.058   5.125
10404W        W75631  16.800  16.926   1.789
10405W        W75632  17.771  10.846   3.824
10406W        W75633  44.814   5.396  11.480
10407W        W75634  15.902  23.740   1.754
10408W        W75635   9.494  10.589   0.919
10409W        W75636  18.880  22.286   3.081
10410W        W75637  32.522   9.086   1.684
10411W        W75638  32.423   5.816  14.251
10412W        W75639  25.114  33.294   2.858
10413W        W75640  25.556  41.857   4.938
10414W        W75641  34.160  40.693  10.204
10415W        W75642  22.681  10.244  11.058
10416W        W75643  27.638  35.922  12.149
10417W        W75644   3.139  11.596   1.220
10418W        W75645  30.760  32.143  11.134
10419W        W75646  33.524  33.576   2.532
10420W        W75647  34.403  28.916   1.326
10421W        W75648  37.710  39.518  11.213
10422W        W75649  20.214   4.543   0.963
10423W        W75650  32.030  36.498  14.418
10424W        W75651  25.258  30.641  11.151
10425W        W75652  34.164  26.814   2.660
10426W        W75653  11.174   1.695  10.527
10427W        W75654  42.893  35.533   0.621
10428W        W75655  21.864   5.552   2.738
10429W        W75656  14.816  23.142  11.244
10430W        W75657  25.103   3.392   4.307
10431W        W75658   6.883  17.103   1.560
10432W        W75659  30.568  21.937   3.775
10433W        W75660  19.209  25.037   4.291
10434W        W75661  11.229   3.102   3.307
10435W        W75662  18.689  35.242  14.656
10436W        W75663  31.447  10.648   4.274
10437W        W75664  32.561  31.596  12.439
10438W        W75665   0.349   3.440   2.292
10439W        W75666  32.537   5.689   2.867
10440W        W75667  17.855  44.197  12.537
10441W        W75668  25.773  26.166  12.540
10442W        W75669  18.555  38.984  14.601
10443W        W75670  10.707  40.832  11.897
10444W        W75671  40.765  19.880   1.369
10445W        W75672  28.286  14.011   5.386
10446W        W75673  21.044  40.438   2.824
10447W        W75674   3.331  30.436  11.294
10448W        W75675  44.417  10.026   0.432
10449W        W75676  39.479   2.272   4.549
10450W        W75677  35.691  13.767  13.962
10451W        W75678  26.756  20.475   2.441
10452W        W75679  23.484  30.737   2.342
10453W        W75680  18.440  17.646   0.353
10454W        W75681   3.392  19.949   2.878
10455W        W75682  10.780  37.532   1.724
10456W        W75683  40.139  32.482  12.454
10457W        W75684  40.726  25.483   1.004
10458W        W75685  18.539   5.587  12.874
10459W        W75686  26.713  18.580  12.637
10460W        W75687  19.663  42.589   4.577
10461W        W75688  26.860  26.405  10.416
10462W        W75689   9.704  43.216   4.765
10463W        W75690   5.547  11.805  11.443
10464W        W75691  44.544  16.245   4.206
10465W        W75692  22.557  33.956  13.721
10466W        W75693   6.362  37.961   0.833
10467W        W75694   9.845  43.758  12.576
10468W        W75695   0.476   3.833   3.276
10469W        W75696  26.438  40.868   3.646
10470W        W75697  40.725  10.284  13.524
10471W        W75698  38.114  28.604   3.671
10472W        W75699  18.642  26.746   1.755
10473W        W75700  23.946   5.948   2.333
10474W        W75701  14.178  19.595  12.579
10475W        W75702   6.220  44.541   4.820
10476W        W75703  38.981  26.575  12.432
10477W        W75704   4.475  12.938   4.189
10478W        W75705  30.506  41.899   0.889
10479W        W75706  18.908  38.563  12.068
10480W        W75707  21.806  35.032   2.084
10481W        W75708  11.770  35.098  14.408
10482W        W75709  13.760  41.337  10.704
10483W        W75710   8.114  17.808   5.208
10484W        W75711   3.736  20.537   0.700
10485W        W75712  24.084   3.236   4.670
10486W        W75713  27.939  28.270   4.231
10487W        W75714   5.972  43.063  14.728
10488W        W75715  16.861  29.910   1.966
10489W        W75716  27.129   2.389  10.618
10490W        W75717  27.725  15.611   4.484
10491W        W75718   6.620  26.614  10.947
10492W        W75719  31.329   3.342  11.173
10493W        W75720   9.263  44.566  14.410
10494W        W75721  18.593  31.673   4.276
10495W        W75722  29.914   9.388  14.073
10496W        W75723  15.060  13.484  11.131
10497W        W75724  17.895  12.008   4.261
10498W        W75725  19.469  32.020  12.505
10499W        W75726  19.571  34.684   2.291
10500W        W75727  19.882  10.402  14.506
10501W        W75728   3.474  11.967   1.374
10502W        W75729  29.409  12.467  11.677
10503W        W75730  38.012  21.611   0.988
10504W        W75731  28.385  16.239   1.919
10505W        W75732   6.869  19.734  11.173
10506W        W75733  13.618  14.076   2.290
10507W        W75734  44.048  26.205  14.266
10508W        W75735  20.555  10.371  12.993
10509W        W75736  37.335  21.118   4.420
10510W        W75737  38.769  31.499   1.695
10511W        W75738  27.569   3.145  13.455
10512W        W75739  28.149  39.453   1.019
10513W        W75740  33.195   8.425   1.798
10514W        W75741  28.002  24.882   4.526
10515W        W75742  29.086   3.385  11.620
10516W        W75743  12.775  30.525  12.990
10517W        W75744  10.232   0.336   0.453
10518W        W75745  26.921  11.757  12.569
10519W        W75746  18.714   1.738   1.052
10520W        W75747  34.082  22.111  13.194
10521W        W75748  10.342  11.334   2.235
10522W        W75749  44.323  28.288  14.391
10523W        W75750  33.710  37.417   3.625
10524W        W75751  26.870  19.765   1.787
10525W        W75752  44.773  35.028   0.862
10526W        W75753  37.013  11.689   2.306
10527W        W75754  20.066  18.256  11.384
10528W        W75755  25.174   7.341  12.141
10529W        W75756  30.594  25.077  12.957
10530W        W75757  40.260   3.219  12.091
10531W        W75758  13.191   1.556  10.793
10532W        W75759  35.157  36.912   0.106
10533W        W75760  27.128  21.951  12.407
10534W        W75761  23.525   3.798  10.210
10535W        W75762  41.429  36.873   3.052
10536W        W75763   8.296   2.526   2.802
10537W        W75764  34.629  10.351   3.590
10538W        W75765  36.319  31.522   2.335
10539W        W75766  33.488  22.717   4.655
10540W        W75767  26.099   1.677   0.409
10541W        W75768  35.913  20.819   4.160
10542W        W75769   8.366  19.612   1.772
10543W        W75770  12.116  15.009  11.922
10544W        W75771  10.685  28.721  13.871
10545W        W75772  16.599   6.000   4.544
10546W        W75773  21.284  20.972   5.008
10547W        W75774  39.095   0.924  12.138
10548W        W75775  37.948  19.908  11.938
10549W        W75776   6.731  15.216   0.316
10550W        W75777   8.320   1.903   4.127
10551W        W75778   0.983  17.702   0.336
10552W        W75779   5.095  43.233   0.506
10553W        W75780  27.054  25.013   2.217
10554W        W75781  27.257  25.565  14.253
10555W        W75782  26.455  25.056  13.556
10556W        W75783   0.545  32.410  13.329
10557W        W75784  14.589  36.834   3.704
10558W        W75785  36.120  37.389  13.592
10559W        W75786  40.541  43.803  12.874
10560W        W75787  36.395  13.191  10.578
10561W        W75788  36.095  10.810  12.991
10562W        W75789  31.573  21.457  14.470
10563W        W75790  28.445  36.588   2.791
10564W        W75791  28.097  21.284   0.827
10565W        W75792  43.785   9.730   4.069
10566W        W75793  43.982  18.706  11.952
10567W        W75794  18.177   1.907   3.629
10568W        W75795  22.821  35.099   4.542
10569W        W75796   9.688  25.924  13.409
10570W        W75797  11.533  41.433  13.572
10571W        W75798  22.102  33.388  11.243
10572W        W75799  27.205  29.166  13.625
10573W        W75800  42.242  31.463  11.138
10574W        W75801  35.015  32.576   1.655
10575W        W75802   4.287   2.641   4.315
10576W        W75803  33.395  22.988   4.190
10577W        W75804  30.617  38.018  10.289
10578W        W75805   5.628  39.338  12.158
10579W        W75806   6.756  36.452   4.973
10580W        W75807  32.540  13.160  12.618
10581W        W75808  33.667  36.347  10.965
10582W        W75809   4.405  16.527   0.914
10583W        W75810  20.574  41.425  13.949
10584W        W75811  35.938   1.555   4.188
10585W        W75812   2.223  20.736  13.282
10586W        W75813  31.031  22.257  12.242
10587W        W75814  27.351  19.772   1.196
10588W        W75815   9.300  25.960  12.112
10589W        W75816  17.492  33.402   0.926
10590W        W75817   6.257  32.000  11.240
10591W        W75818   0.582   3.222   2.708
10592W        W75819  15.230  39.361  11.670
10593W        W75820   7.805  34.649  10.436
10594W        W75821  25.527   7.396  14.598
10595W        W75822  40.568  32.151  13.377
10596W        W75823  22.179  18.864  10.912
10597W        W75824   3.815   2.342  13.146
10598W        W75825   1.645  28.933   2.880
10599W        W75826  31.546  32.546   0.705
10600W        W75827  40.560  18.436   1.748
10601W        W75828  27.457   1.747   0.342
10602W        W75829  43.347  35.891   2.062
10603W        W75830   1.872  35.850  11.902
10604W        W75831  39.055   9.731   3.703
10605W        W75832  12.579  15.682   4.204
10606W        W75833  27.147   1.724   1.019
10607W        W75834   8.565   6.894   4.206
10608W        W75835  40.319  28.685  10.527
10609W        W75836  12.372  33.698   2.207
10610W        W75837   6.306  19.496  13.459
10611W        W75838   5.871  15.610   1.491
10612W        W75839  24.948  15.820   1.661
10613W        W75840  41.942  44.422   4.171
10614W        W75841  42.099  40.813  11.112
10615W        W75842   8.797  37.000   2.226
10616W        W75843  23.181  18.109  14.052
10617W        W75844  38.277  29.994   4.125
10618W        W75845  37.311  42.952   1.446
10619W        W75846   6.549   9.127   3.393
10620W        W75847  27.025  25.714   0.795
10621W        W75848   3.632  36.040   1.561
10622W        W75849   5.709  43.677   3.427
10623W        W75850  32.181  15.792  12.978
10624W        W75851  17.797   9.837  14.046
10625W        W75852  16.162  16.742  13.138
10626W        W75853  41.267  35.488  14.825
10627W        W75854  11.346  12.416   4.040
10628W        W75855  14.870  15.621   3.286
10629W        W75856  44.465  24.255  12.859
10630W        W75857  37.056   6.333   3.257
10631W        W75858  12.187   1.041   2.239
10632W        W75859  17.239  39.968  11.774
10633W        W75860  26.958   9.723   3.844
10634W        W75861  18.564   0.787   3.337
10635W        W75862  16.982   4.096   1.491
10636W        W75863   5.258  40.334  13.564
10637W        W75864   4.837  34.249  14.746
10638W        W75865  39.570  17.527  14.442
10639W        W75866   7.388  17.566  13.938
10640W        W75867  23.652  18.566  11.910
10641W        W75868   7.401  32.718  14.638
10642W        W75869  13.032  30.515  13.899
10643W        W75870  43.663  12.145   4.555
10644W        W75871  13.241  35.584  11.057
10645W        W75872  40.781  31.997   3.343
10646W        W75873  34.206  30.729   4.623
10647W        W75874  31.941  15.810  13.427
10648W        W75875  28.201  39.733   1.489
10649W        W75876  38.445   1.497  14.260
10650W        W75877   1.692  29.480   0.015
10651W        W75878   2.347   7.136   4.230
10652W        W75879  29.643  18.639  10.754
10653W        W75880  37.835  42.397  10.665
10654W        W75881   1.301  13.653   1.674
10655W        W75882  12.845  31.971  13.505
10656W        W75883  11.997  20.258  11.185
10657W        W75884   8.292  16.801  12.546
10658W        W75885  36.959  37.799  12.756
10659W        W75886  11.639  43.351  11.309
10660W        W75887  41.502  26.011  12.898
10661W        W75888   0.651  31.095   0.874
10662W        W75889  40.366  31.961   4.579
10663W        W75890   8.356  20.402  13.970
10664W        W75891   3.458  39.250   3.190
10665W        W75892  38.110   4.884  10.223
10666W        W75893  23.648   2.950  12.357
10667W        W75894  20.722   6.921  10.978
10668W        W75895  11.197  42.983   3.653
10669W        W75896   3.281  24.091   1.543
10670W        W75897  29.995  35.747  10.485
10671W        W75898   9.609  40.244  13.875
10672W        W75899  33.243  17.270   4.106
10673W        W75900  26.901   0.487   2.716
10674W        W75901  40.511  31.479  10.739
10675W        W75902  13.123  19.176   2.568
10676W        W75903  25.652  32.475   0.996
10677W        W75904  32.450  40.526   4.066
10678W        W75905  39.391  25.187   2.177
10679W        W75906  40.379  16.219  12.876
10680W        W75907  24.458  27.574   4.392
10681W        W75908  20.733  42.919  13.399
10682W        W75909   3.834  23.163  14.581
10683W        W75910  14.076  25.234   1.818
10684W        W75911   7.203  21.133   4.497
10685W        W75912  27.417  11.511  11.359
10686W        W75913   4.200   8.804   0.453
10687W        W75914  28.469  20.034  14.249
10688W        W75915  43.867  31.598   0.296
10689W        W75916  39.810  40.804  12.136
10690W        W75917  41.564  28.667   3.735
10691W        W75918  30.354   1.862   2.702
10692W        W75919  18.776  41.619   2.672
10693W        W75920  26.951   8.710  10.587
10694W        W75921  10.710  40.925  10.901
10695W        W75922   4.086  44.630  12.632
10696W        W75923  22.611  44.840   4.940
10697W        W75924  18.142  10.118  11.146
10698W        W75925  17.299  21.162   1.918
10699W        W75926  30.915  22.837  14.303
10700W        W75927   8.486  32.841   0.618
10701W        W75928  30.503  42.049  10.933
10702W        W75929  13.364   3.157  12.117
10703W        W75930   1.022  10.202   4.680
10704W        W75931  29.830  26.070  13.434
10705W        W75932  38.905   8.109   4.085
10706W        W75933   4.270  24.913  12.980
10707W        W75934  12.878  11.465  13.948
10708W        W75935  30.445  31.944   1.379
10709W        W75936  15.325  37.776   1.379
10710W        W75937  14.132  25.093   4.701
10711W        W75938  38.155  24.105   0.716
10712W        W75939   9.749   3.032  13.459
10713W        W75940   0.475  24.712   0.285
10714W        W75941  34.816  32.078   0.430
10715W        W75942   3.455  34.196   2.279
10716W        W75943  19.280  11.753  14.703
10717W        W75944  43.064  14.065   1.774
10718W        W75945  36.275  29.151   3.658
10719W        W75946  31.677   6.662  14.336
10720W        W75947  44.789  42.530  11.439
10721W        W75948  22.096   8.215   0.423
10722W        W75949  32.458  33.400  11.858
10723W        W75950  34.007  13.732   0.853
10724W        W75951  39.755   3.377  12.764
10725W        W75952   8.175  18.535   0.262
10726W        W75953   2.927  25.966   0.501
10727W        W75954  31.559  12.036  14.409
10728W        W75955  44.747  33.027   3.288
10729W        W75956   0.088  34.941   2.825
10730W        W75957  31.066  35.639   5.407
10731W        W75958   8.396  12.462   3.469
10732W        W75959  19.859   4.594  13.667
10733W        W75960   8.746  21.111  10.093
10734W        W75961  30.051   1.837   1.295
10735W        W75962   3.802  14.296  12.204
10736W        W75963  38.700  31.661   3.269
10737W        W75964  12.272  37.778   4.066
10738W        W75965   1.389  32.376  13.064
10739W        W75966   5.260  17.095  14.515
10740W        W75967  17.634   5.612  12.811
10741W        W75968  13.292  40.927  13.870
10742W        W75969  14.555  32.287   2.747
10743W        W75970   2.506  23.672  14.891
10744W        W75971  41.540  26.760   3.093
10745W        W75972  18.189  32.706  12.701
10746W        W75973  20.079  27.426  11.274
10747W        W75974  19.147   5.009   1.682
10748W        W75975   4.887  18.229   0.760
10749W        W75976   3.794  40.005   0.847
10750W        W75977  36.346  15.091   3.643
10751W        W75978  33.664  16.340   2.753
10752W        W75979  22.444   1.858   4.523
10753W        W75980  40.796   6.836   2.999
10754W        W75981  30.994  42.546   1.400
10755W        W75982   0.109  36.736  12.145
10756W        W75983  18.652  32.197  12.047
10757W        W75984  39.045  34.427  13.374
10758W        W75985  14.650   4.066   3.740
10759W        W75986  25.090  44.817   4.722
10760W        W75987  10.638  37.592   3.751
10761W        W75988  44.511  33.627   1.156
10762W        W75989   6.122   5.858   3.314
10763W        W75990  40.514  22.503  13.332
10764W        W75991  10.551  44.176   0.283
10765W        W75992  17.163  20.458   3.299
10766W        W75993   0.914  24.439  11.058
10767W        W75994  18.039  26.129  11.979
10768W        W75995  24.179  15.614  12.332
10769W        W75996  37.868  10.725  14.435
10770W        W75997  18.956  44.857  11.212
10771W        W75998  13.537  24.572   3.441
10772W        W75999   3.165  14.972   0.853
10773W        W76000  34.141  11.575   2.790
10774W        W76001   7.173  17.708   3.633
10775W        W76002  28.020  17.067   1.395
10776W        W76003  16.217  15.888  11.516
10777W        W76004   7.697  23.291  11.035
10778W        W76005  25.635   1.739  13.511
10779W        W76006   3.391  20.474   3.487
10780W        W76007   6.041  27.187  14.896
10781W        W76008   9.434  17.743   0.849
10782W        W76009  23.117   4.063   0.475
10783W        W76010  36.760  19.696  12.475
10784W        W76011  32.530  30.686   0.845
10785W        W76012  39.417  40.392  14.274
10786W        W76013  30.510  30.380   0.749
10787W        W76014  44.637  11.491  10.924
10788W        W76015  31.999  15.508  11.686
10789W        W76016  11.441  37.416  14.840
10790W        W76017   8.663   6.177  12.968
10791W        W76018   3.441  32.719   0.913
10792W        W76019  38.634   3.274  10.645
10793W        W76020   7.375  21.498  11.155
10794W        W76021  20.590   7.414   1.988
10795W        W76022  20.276  13.812   1.756
10796W        W76023   2.545  34.508   0.482
10797W        W76024  43.327  14.285  12.005
10798W        W76025  43.627   2.450   4.566
10799W        W76026  36.494  32.152  11.444
10800W        W76027  15.140  32.368  14.343
10801W        W76028  13.780  24.703   4.745
10802W        W76029  42.349  20.264   3.286
10803W        W76030   5.453  17.702   3.047
10804W        W76031   6.739   0.229   1.303
10805W        W76032   0.852  34.442   2.771
10806W        W76033   6.728  39.589   3.886
10807W        W76034  24.038  43.880  10.826
10808W        W76035  18.168  37.647   4.475
10809W        W76036  30.837  28.154   3.165
10810W        W76037  24.750  42.904  13.292
10811W        W76038  33.939  17.845   0.739
10812W        W76039   1.342   6.370  13.942
10813W        W76040  18.891  27.926  12.115
10814W        W76041  33.705  12.220  14.779
10815W        W76042  43.600  33.452  12.250
10816W        W76043  11.277  13.000   4.516
10817W        W76044   3.765   7.619  13.878
10818W        W76045  12.612  12.165  14.092
10819W        W76046  13.610  21.370  13.882
10820W        W76047  19.765  36.188   0.911
10821W        W76048  36.175  33.529  11.772
10822W        W76049  26.270   5.515  13.935
10823W        W76050  35.356  43.033   2.242
10824W        W76051  22.269  33.037   2.358
10825W        W76052  13.044  36.330   2.690
10826W        W76053  24.202  19.684  14.350
10827W        W76054  33.972   2.727   4.541
10828W        W76055  20.927  28.095  13.874
10829W        W76056  28.175   9.053   2.440
10830W        W76057   4.808  42.003   3.649
10831W        W76058  25.354  37.897  10.779
10832W        W76059  18.687  15.837   0.163
10833W        W76060   4.535  11.753   0.608
10834W        W76061  14.412  24.758   3.888
10835W        W76062  24.186  35.154  14.049
10836W        W76063  33.834  21.615   4.180
10837W        W76064  31.150  34.973  13.837
10838W        W76065  35.243  27.948  14.412
10839W        W76066   9.831  15.124   2.446
10840W        W76067   6.624  43.308   2.844
10841W        W76068   1.939  31.255  13.522
10842W        W76069  40.484   2.335   4.289
10843W        W76070  18.806  29.449  11.635
10844W        W76071  28.026  23.459  14.245
10845W        W76072   8.308  31.737  10.981
10846W        W76073  25.324  36.271  13.060
10847W        W76074  21.213   2.252  11.699
10848W        W76075  19.071  30.980   4.938
10849W        W76076   9.998  42.312  14.431
10850W        W76077  29.478  32.345   1.704
10851W        W76078  20.744  15.325   1.744
10852W        W76079  26.419  35.270   3.234
10853W        W76080  14.874   4.329   2.425
10854W        W76081  30.115  20.170   3.899
10855W        W76082   2.456   8.370  12.884
10856W        W76083  33.655  24.158  11.874
10857W        W76084  37.412  36.424   1.160
10858W        W76085   2.497   5.805   1.153
10859W        W76086  31.398  19.085   4.599
10860W        W76087  13.110  28.574   0.104
10861W        W76088  24.598  12.320   0.281
10862W        W76089  42.987  37.964   3.161
10863W        W76090  44.671  41.985  14.971
10864W        W76091  23.175  28.690  12.156
10865W        W76092  16.176  38.858  12.427
10866W        W76093   9.746   3.644  12.763
10867W        W76094  19.066  11.270   1.886
10868W        W76095  39.999  21.805  11.567
10869W        W76096   6.462  22.701   4.570
10870W        W76097  37.990   5.033  10.717
10871W        W76098  40.901  29.025   3.309
10872W        W76099  31.101   9.254  14.539
10873W        W76100  14.725  43.313   3.944
10874W        W76101  10.759  13.412  10.759
10875W        W76102  29.219  29.044   0.619
10876W        W76103  12.682  30.971  13.264
10877W        W76104  28.010  25.029   2.400
10878W        W76105  41.924  33.414  12.811
10879W        W76106  17.355  17.444  11.649
10880W        W76107   3.305  31.422  13.309
10881W        W76108  42.234  33.690  11.232
10882W        W76109   5.905   2.739   0.849
10883W        W76110   3.691  39.594  13.329
10884W        W76111  22.500  12.116  12.496
10885W        W76112   9.346  14.535   3.468
10886W        W76113  41.007  33.409   2.179
10887W        W76114  38.024  38.446   0.558
10888W        W76115  20.067  11.230   1.674
10889W        W76116  25.284  24.809   3.829
10890W        W76117   9.679  12.802   2.938
10891W        W76118  20.184  18.616   2.182
10892W        W76119  42.286   4.898   3.814
10893W        W76120  43.846  36.868   2.860
10894W        W76121   9.362  23.037   1.730
10895W        W76122  31.951  23.416  13.620
10896W        W76123  16.663  40.286   4.809
10897W        W76124  37.280  41.939  13.120
10898W        W76125   3.793   3.273   5.013
10899W        W76126  26.498  19.120   0.215
10900W        W76127  16.874   7.063   1.247
10901W        W76128  44.698   3.281  11.980
10902W        W76129  38.731  33.295  14.431
10903W        W76130  20.052  22.276   2.273
10904W        W76131  23.143  42.433   0.363
10905W        W76132  31.477  43.506  11.913
10906W        W76133   9.007   0.827  14.308
10907W        W76134  12.955  34.404  13.216
10908W        W76135  14.320   3.914  10.716
10909W        W76136   6.440  31.888   0.929
10910W        W76137  13.895   6.122  13.417
10911W        W76138  36.392  18.043   1.682
10912W        W76139  15.165  29.544  11.332
10913W        W76140   4.626  39.892   0.509
10914W        W76141  38.829  42.456   0.351
10915W        W76142   2.333  38.447   3.672
10916W        W76143  31.362  24.604  11.244
10917W        W76144  23.344   2.913  14.467
10918W        W76145   7.947  40.444  11.618
10919W        W76146  23.666  22.900   1.049
10920W        W76147  24.612  13.961   0.513
10921W        W76148  33.395  40.432  11.976
10922W        W76149  44.155  27.450   4.871
10923W        W76150  36.525  12.507   0.306
10924W        W76151  39.311  34.486  12.936
10925W        W76152  15.822  27.431  12.065
10926W        W76153  19.784   0.038   2.871
10927W        W76154  19.672   5.585  10.938
10928W        W76155  40.368  15.194  10.927
10929W        W76156  32.383  10.360   1.229
10930W        W76157  27.403  33.437   3.786
10931W        W76158  28.617  28.752  10.739
10932W        W76159  14.898  29.416  10.388
10933W        W76160   8.168  34.161  13.544
10934W        W76161  14.031  40.023  12.451
10935W        W76162  36.857  20.988  13.782
10936W        W76163   4.769  29.982   2.712
10937W        W76164  11.817  10.696  11.203
10938W        W76165  43.759  40.772   2.619
10939W        W76166  16.308  31.542   0.853
10940W        W76167  33.531  32.195  10.252
10941W        W76168  17.677  34.952   1.333
10942W        W76169  25.206  14.486  14.825
10943W        W76170  26.233  14.764   2.402
10944W        W76171  26.732   0.728  14.736
10945W        W76172  25.057   2.459   2.429
10946W        W76173   5.324  44.980   1.924
10947W        W76174  11.400  29.702  13.062
10948W        W76175  33.373  40.934   4.572
10949W        W76176  23.079  17.516  14.937
10950W        W76177  30.537  14.347   1.669
10951W        W76178  24.463  43.650   0.800
10952W        W76179  16.137   3.647   3.510
10953W        W76180  43.870  28.814  13.613
10954W        W76181  19.487   7.255   1.202
10955W        W76182  14.456  20.865   1.484
10956W        W76183  22.548  39.493  14.581
10957W        W76184  16.548  26.353  12.095
10958W        W76185  33.603  33.395   0.131
10959W        W76186  13.825  33.201   3.086
10960W        W76187  12.369  43.823  11.088
10961W        W76188  21.124  18.479   0.238
10962W        W76189  36.766   9.154   0.004
10963W        W76190  21.291  24.493   1.759
10964W        W76191   5.388  31.924   1.160
10965W        W76192  15.627   2.137  14.792
10966W        W76193  22.894   4.952   1.782
10967W        W76194  25.652  19.711   0.897
10968W        W76195  37.633  10.811  11.184
10969W        W76196  43.737  17.031  11.680
10970W        W76197  38.520  25.627  12.102
10971W        W76198  22.387  26.337  12.516
10972W        W76199   4.480  30.861  11.472
10973W        W76200  12.278  25.580   0.490
10974W        W76201  31.347  19.307  14.010
10975W        W76202  33.866  39.490  14.691
10976W        W76203   2.792  42.488   1.898
10977W        W76204  20.372  25.249   2.302
10978W        W76205  21.328  26.614  13.286
10979W        W76206  34.479  28.910  10.342
10980W        W76207  30.610  19.227  11.668
10981W        W76208  36.009  34.181   1.403
10982W        W76209  30.173  16.166   0.965
10983W        W76210  33.116  14.222   4.932
10984W        W76211  39.583   1.834  13.886
10985W        W76212  26.890  30.252   0.821
10986W        W76213  19.224  34.408  12.455
10987W        W76214   3.673  20.978  12.461
10988W        W76215  15.417   2.881  10.737
10989W        W76216  28.686  14.722  12.993
10990W        W76217  28.337  43.354   2.406
10991W        W76218   4.410  23.064   1.248
10992W        W76219   0.475  31.173   1.361
10993W        W76220  22.697  25.418  13.610
10994W        W76221  11.234  42.408   0.278
10995W        W76222  12.157  27.652   2.807
10996W        W76223  19.891  40.276   4.903
10997W        W76224  20.243  18.801  14.551
10998W        W76225  19.129   4.874   2.428
10999W        W76226  36.529  37.590   4.171
11000W        W76227  20.610  31.758   1.303
11001W        W76228   3.997  36.604   4.930
11002W        W76229  27.018  41.947   1.814
11003W        W76230  40.797   9.861  12.895
11004W        W76231  37.332  28.040   3.665
11005W        W76232  30.606  10.959  11.492
11006W        W76233  20.022  41.542   0.733
11007W        W76234  29.878   4.302   3.288
11008W        W76235  27.657   6.609   2.423
11009W        W76236  12.903  16.695   1.904
11010W        W76237  41.418   9.856   0.921
11011W        W76238  40.002  39.515  10.501
11012W        W76239  22.770  42.446   0.003
11013W        W76240  31.078   3.619   0.384
11014W        W76241  36.310   8.099  10.161
11015W        W76242  26.790  31.105   3.828
11016W        W76243  10.913   6.207   4.600
11017W        W76244  29.931  40.287   0.391
11018W        W76245  17.608  43.287   0.965
11019W        W76246  24.683  25.001  10.821
11020W        W76247  19.650  22.211   4.215
11021W        W76248   7.284  18.816  14.668
11022W        W76249   0.473  11.724  10.771
11023W        W76250  36.321  23.891  10.238
11024W        W76251  34.366  16.856   2.606
11025W        W76252  41.438   0.760   4.484
11026W        W76253  16.338  13.670  14.520
11027W        W76254  30.875  28.015   4.061
11028W        W76255  44.400  15.876  13.002
11029W        W76256  40.376  44.275  12.978
11030W        W76257  44.239  30.514  14.383
11031W        W76258  36.386  28.054  11.714
11032W        W76259  37.222  30.370  14.362
11033W        W76260  12.095   2.161   0.275
11034W        W76261  32.459  34.921  14.010
11035W        W76262  17.940  26.290   1.213
11036W        W76263  34.930  41.222   3.789
11037W        W76264  19.638  25.222   2.685
11038W        W76265   0.097  10.835  12.551
11039W        W76266  29.688  10.931   1.210
11040W        W76267   7.249  14.142   4.991
11041W        W76268   5.774  39.065  12.592
11042W        W76269  42.734  18.550   2.660
11043W        W76270  21.250  13.290   0.255
11044W        W76271  14.505   4.889  14.326
11045W        W76272  39.032   9.733   0.011
11046W        W76273   7.729  22.197   3.930
11047W        W76274  24.847   7.873   2.784
11048W        W76275  31.265  44.776  14.403
11049W        W76276  42.312  22.143  14.795
11050W        W76277  14.064  17.721  10.797
11051W        W76278  26.744  21.097  10.753
11052W        W76279   8.415   7.654  14.806
11053W        W76280  34.496  17.441  10.768
11054W        W76281   1.812   9.193  14.842
11055W        W76282  15.714  24.237   2.229
11056W        W76283   3.189  16.261  12.716
11057W        W76284   8.760   5.193  13.824
11058W        W76285  14.345  30.683   2.276
11059W        W76286  27.827  43.976   3.557
11060W        W76287  15.161  16.022  13.376
11061W        W76288  31.108   7.964  10.597
11062W        W76289  16.993  11.914  11.083
11063W        W76290  25.236  43.153  12.399
11064W        W76291  26.153  31.994  13.942
11065W        W76292   6.189  24.187   3.884
11066W        W76293  26.433  34.068   2.822
11067W        W76294  42.853   4.300   4.056
11068W        W76295  38.850  22.664   4.457
11069W        W76296  15.228  22.989  11.512
11070W        W76297  21.073   5.888  10.749
11071W        W76298  13.572  37.479   1.284
11072W        W76299   3.897   8.268   2.360
11073W        W76300  29.514  18.803  14.796
11074W        W76301  35.058  16.257  13.432
11075W        W76302  21.138  33.902   3.744
11076W        W76303  44.993  18.131  14.701
11077W        W76304  15.122  34.036  14.963
11078W        W76305  18.112  18.112   3.738
11079W        W76306  30.144  11.372  11.384
11080W        W76307  28.015  21.154   2.105
11081W        W76308  31.148  22.001  13.246
11082W        W76309  21.668  19.640  11.004
11083W        W76310  44.703  28.506  13.987
11084W        W76311  13.252   7.472  12.328
11085W        W76312  15.874  20.118  12.044
11086W        W76313  10.151  42.573  10.810
11087W        W76314  17.009  34.332   4.200
11088W        W76315  29.551  42.866  14.523
11089W        W76316  26.114  11.453   2.092
11090W        W76317  11.672  14.550  13.985
11091W        W76318  28.038   4.945  13.778
11092W        W76319  21.656  34.319  14.811
11093W        W76320  34.868  11.160   3.396
11094W        W76321  42.280  27.243   2.765
11095W        W76322   0.367   8.171   2.696
11096W        W76323   5.001  12.764  10.827
11097W        W76324  39.551  32.229  14.293
11098W        W76325  12.809  23.164   0.297
11099W        W76326   4.798  24.291  10.644
11100W        W76327  15.775  15.438  12.953
11101W        W76328  19.293  24.381   4.928
11102W        W76329  15.669   8.333  10.819
11103W        W76330  18.485  21.642   4.188
11104W        W76331  18.813  19.251  13.001
11105W        W76332  26.989  24.664   3.323
11106W        W76333  27.923  36.195   0.297
11107W        W76334   2.646  14.066  13.755
11108W        W76335  40.868  14.273  12.945
11109W        W76336  12.257  42.526  10.776
11110W        W76337  31.400  23.791  14.439
11111W        W76338  43.328   2.894  11.590
11112W        W76339  28.596  11.161  13.035
11113W        W76340  25.784  30.994  11.736
11114W        W76341  21.700  30.822   4.168
11115W        W76342   5.161  35.555  13.397
11116W        W76343  16.744   9.804   3.001
11117W        W76344   2.808   3.965   0.934
11118W        W76345   6.905  18.392   2.178
11119W        W76346   3.215  21.837  14.070
11120W        W76347  23.445  20.244   0.299
11121W        W76348   6.219  43.798  10.888
11122W        W76349  44.432  22.558   0.421
11123W        W76350  36.470  35.822   4.624
11124W        W76351  32.643  17.726  13.539
11125W        W76352  43.730  40.251  14.379
11126W        W76353  25.238   6.724  12.944
11127W        W76354   8.562  42.410   4.839
11128W        W76355   3.015  38.825   1.272
11129W        W76356  10.818  19.602   4.024
11130W        W76357  40.634  32.042  11.945
11131W        W76358   5.940   8.133   3.836
11132W        W76359  24.570  34.363  13.952
11133W        W76360  13.062  41.972  14.290
11134W        W76361  16.168  26.030   1.808
11135W        W76362  31.210  28.408   4.048
11136W        W76363  20.703  13.023   2.772
11137W        W76364  32.098  29.510  11.340
11138W        W76365  10.958  25.255   3.096
11139W        W76366  34.751  42.003   0.886
11140W        W76367   7.902   3.971  14.436
11141W        W76368  25.963   4.690   3.696
11142W        W76369   3.571  19.587  10.676
11143W        W76370  10.378  40.177   3.035
11144W        W76371   6.174  17.610  12.796
11145W        W76372  20.178  36.060  11.457
11146W        W76373  39.423  14.678   0.696
11147W        W76374  43.511  13.543   2.328
11148W        W76375   6.163  27.451   1.976
11149W        W76376  36.281  22.991   3.822
11150W        W76377  22.998   1.542   0.734
11151W        W76378   5.479  15.576  11.652
11152W        W76379  11.647   3.285  10.913
11153W        W76380   0.622  23.222  13.713
11154W        W76381  35.769  22.299  12.366
11155W        W76382   2.457  13.547  10.698
11156W        W76383  20.238  19.190  12.933
11157W        W76384  41.682   0.927   3.183
11158W        W76385  17.514  41.423  10.893
11159W        W76386  35.296  24.727  14.459
11160W        W76387  38.157  34.829  10.844
11161W        W76388  30.136  29.413   2.583
11162W        W76389  29.082  23.397  11.924
11163W        W76390  13.698  30.888   1.408
11164W        W76391  16.116  11.135   1.246
11165W        W76392  21.994   5.529  11.618
11166W        W76393  34.458  16.062  11.925
11167W        W76394  40.536  22.076  13.005
11168W        W76395  17.014   7.184  14.498
11169W        W76396  12.616  17.251   2.215
11170W        W76397  11.417  40.460  11.875
11171W        W76398  42.105  42.176   4.858
11172W        W76399  11.658  10.130  10.757
11173W        W76400   1.872  16.829  12.874
11174W        W76401   6.110  11.790   1.550
11175W        W76402  11.358  35.979  13.971
11176W        W76403  27.261  39.350  11.937
11177W        W76404   0.975  30.060   0.505
11178W        W76405   0.807   7.255   0.197
11179W        W76406  24.503  29.594   1.849
11180W        W76407   0.009  28.503  14.481
11181W        W76408  18.850   0.275  12.933
11182W        W76409  21.264  17.440   0.907
11183W        W76410   2.565  30.828  11.057
11184W        W76411  33.277  36.363   2.225
11185W        W76412  23.794  43.628   4.859
11186W        W76413  25.175  30.916   3.213
11187W        W76414  17.541   3.742   2.620
11188W        W76415   2.456  43.669  14.040
11189W        W76416  36.255  36.180  12.534
11190W        W76417  33.005  21.960  14.757
11191W        W76418  31.966  30.727  12.431
11192W        W76419  41.686  31.323   2.660
11193W        W76420   0.845  36.050  10.721
11194W        W76421  29.301  42.703  14.951
11195W        W76422  34.778  14.854   5.409
11196W        W76423   3.929  35.306   2.319
11197W        W76424  10.035   3.966   3.438
11198W        W76425  15.286  44.406   1.797
11199W        W76426  11.795  33.603  14.447
11200W        W76427   1.046  35.828  11.136
11201W        W76428  14.861  40.637   2.283
11202W        W76429  42.329   7.360   3.867
11203W        W76430  26.953   9.445   4.545
11204W        W76431  19.111  16.710   1.770
11205W        W76432   0.030  31.400   2.211
11206W        W76433  30.400  33.479   2.924
11207W        W76434  13.646  39.115   0.855
11208W        W76435  38.263   5.902  13.563
11209W        W76436  10.961  18.141  10.144
11210W        W76437  38.091  41.879   4.711
11211W        W76438  41.481  17.652   0.772
11212W        W76439   9.696  38.655   0.899
11213W        W76440   8.935  36.536   2.413
11214W        W76441   0.228  31.418   0.516
11215W        W76442  36.316  35.568  13.204
11216W        W76443   8.836  40.350  14.432
11217W        W76444  20.274  34.458  14.719
11218W        W76445  33.012   6.976   4.352
11219W        W76446   7.412  28.650   3.237
11220W        W76447  31.500  30.135   4.607
11221W        W76448  26.073  43.507   4.205
11222W        W76449  34.583  36.780   4.549
11223W        W76450  21.160  33.999   0.704
11224W        W76451  27.139  17.931   1.208
11225W        W76452  43.375  38.649   3.174
11226W        W76453   2.915  19.338  13.388
11227W        W76454  44.811  31.211   3.622
11228W        W76455  11.016  26.010  14.744
11229W        W76456  14.721  41.308   0.285
11230W        W76457  23.251   8.167   1.463
11231W        W76458  20.452   3.810  10.241
11232W        W76459  19.322  40.403   0.056
11233W        W76460   5.970  34.781  10.653
11234W        W76461  23.833  28.017   0.391
11235W        W76462  23.969  37.817  13.278
11236W        W76463   1.813  21.619  14.931
11237W        W76464  24.743  28.595   0.906
11238W        W76465   5.063  16.079  12.560
11239W        W76466  30.459   4.235  11.770
11240W        W76467   6.651   7.547  10.436
11241W        W76468  16.809   3.864  12.006
11242W        W76469  26.388  13.071  13.618
11243W        W76470  37.347  13.342  11.080
11244W        W76471  30.567  13.962   2.013
11245W        W76472  10.770   8.706  12.937
11246W        W76473  43.912  35.609   4.567
11247W        W76474  35.242  29.917   3.749
11248W        W76475   0.037  12.334  13.590
11249W        W76476  22.441  44.054  11.681
11250W        W76477  14.892  33.485   3.187
11251W        W76478   7.922  19.954   2.772
11252W        W76479  17.583  43.461  10.950
11253W        W76480  18.834  31.144  12.583
11254W        W76481   4.921  21.512  13.997
11255W        W76482  23.203  42.970   3.006
11256W        W76483  33.853  17.689  13.032
11257W        W76484  26.857  22.730   1.902
11258W        W76485  42.008  26.728   2.287
11259W        W76486  40.597  20.077   0.915
11260W        W76487  27.937  38.566  14.047
11261W        W76488  38.129  21.139   2.275
11262W        W76489  41.030   9.690   3.679
11263W        W76490  27.902  20.170  14.882
11264W        W76491  15.048  39.352   2.239
11265W        W76492  20.653  28.002  13.471
11266W        W76493   1.793   7.282  11.697
11267W        W76494  25.320  24.202   2.726
11268W        W76495  10.337  19.693   9.549
11269W        W76496  22.975  18.236  11.467
11270W        W76497  22.793   9.426  12.574
11271W        W76498  24.931   5.130   4.091
11272W        W76499  31.470  38.565  10.365
11273W        W76500  20.504   6.694  14.296
11274W        W76501   7.560  27.897  14.528
11275W        W76502  42.548  20.459   5.043
11276W        W76503  14.347  39.824   2.896
11277W        W76504   5.267  42.522  10.543
11278W        W76505  26.538  20.506   4.113
11279W        W76506  37.916  12.872  11.869
11280W        W76507  12.256  33.642   4.089
11281W        W76508  16.622  37.889   0.980
11282W        W76509   5.841  43.214  13.663
11283W        W76510  24.049  25.749   2.878
11284W        W76511  19.997  24.503  13.055
11285W        W76512  42.595  39.812  11.291
11286W        W76513   2.926  44.369  10.742
11287W        W76514   9.710  20.776   4.827
11288W        W76515  27.114  38.496   1.113
11289W        W76516   6.680  40.112   3.691
11290W        W76517  31.891   1.403   0.936
11291W        W76518   3.846  19.214   1.838
11292W        W76519  15.092  16.007   0.278
11293W        W76520  44.548  34.605  10.861
11294W        W76521  12.073  12.712   1.967
11295W        W76522  31.907  44.381  12.884
11296W        W76523   0.494  13.638  14.888
11297W        W76524  35.358   5.970  11.224
11298W        W76525  13.674  11.090   2.173
11299W        W76526   5.572  20.492  13.329
11300W        W76527  23.957  15.601  11.027
11301W        W76528  10.084  38.156  11.794
11302W        W76529  17.796  30.483   4.255
11303W        W76530  21.885  19.864   3.544
11304W        W76531  33.451  12.709   1.191
11305W        W76532   7.907  30.917   1.086
11306W        W76533  15.259   7.638  14.965
11307W        W76534  19.146  40.958   0.890
11308W        W76535  12.547  33.391   1.823
11309W        W76536   8.784  10.303  14.805
11310W        W76537   4.680  19.646   4.940
11311W        W76538  34.144  10.739  13.908
11312W        W76539  31.159  38.008  12.475
11313W        W76540  35.364   6.313  13.036
11314W        W76541  12.902  26.618   4.064
11315W        W76542  36.108  17.946  10.703
11316W        W76543   9.769  41.839  10.649
11317W        W76544   5.970  11.316  10.823
11318W        W76545  27.508  14.324   0.453
11319W        W76546  43.963  18.306  13.562
11320W        W76547   8.410  42.571  11.849
11321W        W76548  43.032  13.330   4.172
11322W        W76549  20.057   4.474  10.768
11323W        W76550  11.277  28.331   2.237
11324W        W76551  28.872   3.711   3.606
11325W        W76552  31.229  26.480   2.742
11326W        W76553  43.655  39.330  11.179
11327W        W76554  20.510   6.159   0.347
11328W        W76555  43.270  35.825   0.204
11329W        W76556  43.529   4.260   3.504
11330W        W76557  34.925  23.632  11.439
11331W        W76558   1.010  12.915   1.968
11332W        W76559  14.281  11.231   2.861
11333W        W76560   8.277  29.987  14.264
11334W        W76561  25.220  28.440  11.991
11335W        W76562   0.734  20.709  13.418
11336W        W76563   3.719  44.862  14.275
11337W        W76564   1.763   5.826  10.751
11338W        W76565  21.385  26.970   0.544
11339W        W76566  42.885   1.032  12.732
11340W        W76567  41.538  13.571  14.581
11341W        W76568  13.743   9.857   4.284
11342W        W76569  36.355  44.684   3.705
11343W        W76570  23.594   6.446  14.884
11344W        W76571  25.110  44.300  11.354
11345W        W76572  10.243   2.562   4.893
11346W        W76573   6.967  19.319   1.818
11347W        W76574  25.442  38.104   1.282
11348W        W76575  12.692  28.876  14.860
11349W        W76576  14.431   6.385  13.917
11350W        W76577   7.270  30.429  11.233
11351W        W76578   9.210  28.207   1.402
11352W        W76579  28.711  29.449   0.995
11353W        W76580   8.656  43.715  11.481
11354W        W76581  11.855  22.657  12.424
11355W        W76582  17.835   0.500  11.716
11356W        W76583  39.163  24.894   2.570
11357W        W76584  14.545  14.094  11.542
11358W        W76585   7.676  23.256   3.714
11359W        W76586   1.262  28.125   0.206
11360W        W76587  14.405   9.754  13.621
11361W        W76588  19.272   1.248   3.868
11362W        W76589   9.094   9.340  13.997
11363W        W76590  10.052  29.130   3.852
11364W        W76591   5.176   1.288  14.517
11365W        W76592  32.954  43.106   0.791
11366W        W76593  18.445  21.307  11.137
11367W        W76594  20.673  11.874   4.198
11368W        W76595  41.501  18.766   1.939
11369W        W76596  17.797  23.721   3.163
11370W        W76597   1.786  17.595  11.195
11371W        W76598  23.892  21.927  11.239
11372W        W76599  27.620  34.395   4.116
11373W        W76600  33.274  16.751   3.687
11374W        W76601  34.460  44.387   4.699
11375W        W76602   0.821  33.850  10.387
11376W        W76603  10.834  44.943  12.910
11377W        W76604  38.837  20.096  11.059
11378W        W76605  11.568  19.386  13.543
11379W        W76606  42.518  14.034   4.510
11380W        W76607   7.048  12.168  10.361
11381W        W76608  10.240   4.970   5.004
11382W        W76609  31.553   3.365   4.924
11383W        W76610  26.628  38.672  14.310
11384W        W76611  23.425  39.477   0.057
11385W        W76612   4.213  44.625   5.026
11386W        W76613  44.853  16.179   4.635
11387W        W76614  27.872   8.926   3.694
11388W        W76615  38.244  38.022  10.460
11389W        W76616  16.638  39.310   4.822
11390W        W76617  26.781  28.587   2.178
11391W        W76618  37.126  43.949  11.225
11392W        W76619  38.447   5.448   1.027
11393W        W76620  19.717   6.922   1.751
11394W        W76621  19.837  12.739   3.624
11395W        W76622  31.050  30.651   2.420
11396W        W76623  33.436  19.035   3.752
11397W        W76624   6.588  30.389  14.904
11398W        W76625  34.156   8.383   3.344
11399W        W76626  41.595  13.161   3.749
11400W        W76627  14.657  31.514   0.278
11401W        W76628  20.291  35.324  14.563
11402W        W76629  27.219   3.594  14.363
11403W        W76630  14.334  33.065   0.788
11404W        W76631  18.918  39.016  11.272
11405W        W76632  21.590  42.529   3.613
11406W        W76633  30.033  22.818   0.162
11407W        W76634  39.412  17.156   3.270
11408W        W76635  15.558  34.002   0.230
11409W        W76636   3.617  35.316  10.822
11410W        W76637  40.428  11.374   2.269
11411W        W76638  37.496  40.736   3.264
11412W        W76639  13.628  40.573  13.481
11413W        W76640  33.782  23.607  10.361
11414W        W76641   4.844   0.752  13.118
11415W        W76642  37.644  17.764  11.588
11416W        W76643  17.923   1.982   4.091
11417W        W76644   3.965  28.745  11.109
11418W        W76645  25.427  44.704   0.310
11419W        W76646  10.320   5.941   0.001
11420W        W76647  35.466  25.962   4.480
11421W        W76648  35.194   8.193   2.090
11422W        W76649  28.182   8.053  14.027
11423W        W76650  39.875   0.900   3.328
11424W        W76651  16.367  37.001   2.448
11425W        W76652  31.719   4.513  12.104
11426W        W76653  26.362  27.090  14.889
11427W        W76654   1.958  17.224   2.829
11428W        W76655   3.360  25.760  11.124
11429W        W76656  30.735  42.247  13.145
11430W        W76657   1.889  38.185  11.566
11431W        W76658  36.048   4.760   0.348
11432W        W76659  19.212  42.413   4.731
11433W        W76660   8.228   0.604  12.044
11434W        W76661  39.874  43.729  12.334
11435W        W76662   9.822  29.635  14.897
11436W        W76663  30.648   4.637  12.714
11437W        W76664  28.411  34.004  12.144
11438W        W76665  30.044  11.406  12.412
11439W        W76666   9.746  36.600  14.371
11440W        W76667   1.325   2.709   1.935
11441W        W76668   4.246  23.399   2.429
11442W        W76669   6.622  19.766  13.795
11443W        W76670  35.576  14.620   1.791
11444W        W76671  42.396  34.092   1.481
11445W        W76672  27.506  11.444  14.879
11446W        W76673  29.579  20.444   1.362
11447W        W76674   4.819  26.286   2.230
11448W        W76675  31.859  24.578   0.533
11449W        W76676  24.182   6.488   3.266
11450W        W76677  32.823  34.723  12.368
11451W        W76678  30.532  28.791   3.720
11452W        W76679  17.412   2.222  12.440
11453W        W76680  27.591  19.974   0.782
11454W        W76681  21.916   3.897   1.216
11455W        W76682  27.231  30.586   4.484
11456W        W76683  41.687  27.747   4.157
11457W        W76684  43.435  28.687   0.962
11458W        W76685  30.435   3.604  14.968
11459W        W76686  38.463  40.419  10.733
11460W        W76687   9.878  35.763  10.698
11461W        W76688   6.055  15.192   3.557
11462W        W76689  19.794  36.046   0.390
11463W        W76690  10.314  42.273   4.163
11464W        W76691  14.628   9.474   3.195
11465W        W76692  18.893  25.172   0.912
11466W        W76693  25.139  11.102  14.404
11467W        W76694  21.998  31.864   3.167
11468W        W76695  24.169  18.548   3.158
11469W        W76696  11.738  32.199  11.675
11470W        W76697  35.299  24.392   3.160
11471W        W76698  43.389  20.336   1.477
11472W        W76699  29.336  25.608   1.389
11473W        W76700  44.717  37.853  11.576
11474W        W76701  10.134  26.196  14.289
11475W        W76702  36.850   3.914   0.795
11476W        W76703  14.648  17.666   4.254
11477W        W76704  27.285   9.412   4.145
11478W        W76705   8.421  19.089  13.046
11479W        W76706  28.413  38.470  14.237
11480W        W76707  35.637  20.833  11.174
11481W        W76708  36.384  14.571   1.424
11482W        W76709   5.396  11.416  13.811
11483W        W76710   9.363  40.539  13.491
11484W        W76711   5.800  24.468  11.644
11485W        W76712   1.852  31.672   2.206
11486W        W76713  40.263  43.156   3.229
11487W        W76714   4.181  16.708   2.667
11488W        W76715   5.439  39.876  13.706
11489W        W76716  11.936  39.269   4.242
11490W        W76717  31.500  34.320  13.358
11491W        W76718  27.349  42.125  11.253
11492W        W76719  13.141  21.083  10.842
11493W        W76720   8.196  14.077  12.623
11494W        W76721  33.870  19.710  12.068
11495W        W76722  11.880   4.697  11.278
11496W        W76723  14.343  19.019  13.862
11497W        W76724  13.654  25.891  13.447
11498W        W76725  20.219  16.903   1.391
11499W        W76726  25.520  22.447   0.336
11500W        W76727  27.485  21.597  14.765
11501W        W76728  41.950  16.663   2.293
11502W        W76729  15.050  24.580  13.467
11503W        W76730  28.988  38.327  12.201
11504W        W76731  41.307   3.890  13.513
11505W        W76732  44.321  16.986  11.117
11506W        W76733  31.619  25.796   1.758
11507W        W76734  29.629   0.338  14.344
11508W        W76735   6.437  31.380  14.126
11509W        W76736  11.291  31.428  10.668
11510W        W76737  28.481  43.066  11.091
11511W        W76738   8.491   7.374  11.167
11512W        W76739  40.422  37.487   5.077
11513W        W76740  12.073  11.167   2.365
11514W        W76741  15.259   2.625  13.482
11515W        W76742  30.730   5.184  11.539
11516W        W76743   4.762  32.296   0.352
11517W        W76744   4.202  41.124   2.370
11518W        W76745  30.555  12.286  10.274
11519W        W76746  30.423  21.214  11.548
11520W        W76747   1.583  22.391   0.903
11521W        W76748  36.427   5.929  14.804
11522W        W76749  22.198  30.912  13.893
11523W        W76750   9.729  25.959  12.487
11524W        W76751  12.691  42.534  13.021
11525W        W76752  15.831  19.388   1.334
11526W        W76753  25.672  37.269   1.843
11527W        W76754  19.305  40.521  13.013
11528W        W76755  41.961   5.663   5.346
11529W        W76756   9.940  37.675  11.917
11530W        W76757  15.745  34.422  14.280
11531W        W76758  24.700  20.899  12.003
11532W        W76759  28.748  13.706   5.167
11533W        W76760  15.098  20.349   1.019
11534W        W76761  42.346  10.431  12.440
11535W        W76762  35.290   9.770   3.668
11536W        W76763   3.790  22.825  12.126
11537W        W76764  33.976  22.076   4.352
11538W        W76765   7.927  34.330  11.609
11539W        W76766  38.148  16.107  10.600
11540W        W76767   0.373  20.989  14.334
11541W        W76768   8.143  26.623   1.007
11542W        W76769  22.944  38.215  12.488
11543W        W76770  16.244  17.566   1.428
11544W        W76771  12.335  36.856   4.607
11545W        W76772  42.693  26.453   1.872
11546W        W76773  18.660  22.022  14.788
11547W        W76774   8.086   1.431   4.016
11548W        W76775  40.208  29.639  10.710
11549W        W76776   8.380  28.229   1.775
11550W        W76777  42.163   6.411   3.218
11551W        W76778   2.949  23.277   2.936
11552W        W76779  30.573  21.443   4.675
11553W        W76780   8.951   5.384   1.820
11554W        W76781   2.714   0.490  14.821
11555W        W76782   0.141  31.691  12.828
11556W        W76783  34.653  25.687  13.516
11557W        W76784  32.218  40.945   3.211
11558W        W76785  11.690   6.464   4.825
11559W        W76786   0.958   6.806  14.468
11560W        W76787  26.494  19.585  13.964
11561W        W76788  32.529  26.137   3.177
11562W        W76789   3.255   1.279  13.926
11563W        W76790   9.391  41.475   1.853
11564W        W76791  34.053   0.877   1.036
11565W        W76792  11.319  34.607  11.469
11566W        W76793  10.707  20.424   1.482
11567W        W76794   5.421  19.383   0.938
11568W        W76795  25.407  39.683  14.934
11569W        W76796  31.126  19.624  10.064
11570W        W76797   8.047  21.113  11.652
11571W        W76798  34.641  41.844   0.367
11572W        W76799  43.233  22.201  13.895
11573W        W76800   7.893  40.004   1.168
11574W        W76801   3.028  14.409  11.660
11575W        W76802  36.852  21.520  12.087
11576W        W76803  26.100  20.473  13.425
11577W        W76804  28.011  20.683  14.805
11578W        W76805  39.377   2.928   1.164
11579W        W76806  26.739  29.377   1.034
11580W        W76807  27.874  37.613  14.377
11581W        W76808  33.570  23.683  12.854
11582W        W76809  12.023   7.344   1.293
11583W        W76810   8.191  17.860  14.937
11584W        W76811  18.053  20.507   3.964
11585W        W76812  42.274   1.933  14.793
11586W        W76813  38.271  30.514  10.714
11587W        W76814  21.151   4.320  13.819
11588W        W76815  22.599  28.871  13.931
11589W        W76816  29.524  19.990  13.468
11590W        W76817  14.204   9.202  14.626
11591W        W76818  35.318  18.740   3.817
11592W        W76819  35.065  42.793  11.817
11593W        W76820  31.886  38.045  13.019
11594W        W76821  14.535  30.086   0.405
11595W        W76822  27.007  33.717  14.445
11596W        W76823  17.636  19.771  11.875
11597W        W76824  33.974  28.237  12.497
11598W        W76825  27.630  44.874   3.634
11599W        W76826  16.911  39.992   4.236
11600W        W76827  23.979  11.330  14.814
11601W        W76828  34.379  42.957   0.793
11602W        W76829  22.529  37.901  12.803
11603W        W76830  39.833  39.000  10.588
11604W        W76831  16.320  21.607   1.620
11605W        W76832  34.909  18.831  14.401
11606W        W76833  22.075  34.627  10.509
11607W        W76834  20.720  39.224   1.801
11608W        W76835  40.303   6.566   2.963
11609W        W76836  26.938  24.150   1.557
11610W        W76837  20.665  37.972   1.337
11611W        W76838   3.421  15.263   0.496
11612W        W76839  14.514  40.646   1.757
11613W        W76840  33.999   9.378  12.061
11614W        W76841  36.464  10.551  10.818
11615W        W76842   4.779  40.292  13.738
11616W        W76843   9.404  35.179  11.285
11617W        W76844  32.063   6.699  11.619
11618W        W76845  12.444  28.566   3.715
11619W        W76846  33.418  22.974   2.327
11620W        W76847   0.275   0.371   1.180
11621W        W76848  11.100  17.478   4.474
11622W        W76849  14.245  33.339  12.005
11623W        W76850   7.637  43.367   1.194
11624W        W76851  17.017  19.207   3.035
11625W        W76852  21.235  14.586   0.237
11626W        W76853  40.068  33.597  14.698
11627W        W76854   6.230  11.974   3.121
11628W        W76855  40.329  34.680  12.243
11629W        W76856   8.533  27.821  11.542
11630W        W76857  16.711  23.613  11.649
11631W        W76858  13.253  32.553   3.133
11632W        W76859  19.820  30.481   3.791
11633W        W76860  22.671   1.574   2.484
11634W        W76861  34.091  16.718   0.747
11635W        W76862  13.926  24.466   0.916
11636W        W76863  28.602  16.762   4.609
11637W        W76864  42.344   6.226   0.323
11638W        W76865  11.229   6.728  11.944
11639W        W76866  41.544  44.762  12.476
11640W        W76867  41.292   2.751  13.497
11641W        W76868  24.789  43.755   4.037
11642W        W76869   9.639  27.220   0.203
11643W        W76870   8.912  43.965  13.847
11644W        W76871  11.132  37.192   4.070
11645W        W76872  16.179  41.945   3.614
11646W        W76873   9.610  33.122  10.164
11647W        W76874   4.778   9.437  12.179
11648W        W76875  39.782   2.854  14.457
11649W        W76876  30.490   0.961   2.120
11650W        W76877  42.308   4.262  12.496
11651W        W76878  35.228  25.837  12.708
11652W        W76879  40.323  29.405   1.153
11653W        W76880  36.685  16.496  13.143
11654W        W76881  36.325  21.069   4.314
11655W        W76882  27.663   2.492  14.946
11656W        W76883  42.936  44.919  14.745
11657W        W76884  12.447  36.096  12.406
11658W        W76885   5.473  27.840  13.743
11659W        W76886   4.016  24.747  13.468
11660W        W76887   6.225  11.783   3.773
11661W        W76888  16.573  19.108  11.633
11662W        W76889  18.118  40.611  13.361
11663W        W76890  36.693  11.809  14.794
11664W        W76891  18.296  43.862   3.715
11665W        W76892   5.802   0.289  14.887
11666W        W76893  37.955  24.148   3.688
11667W        W76894  12.372  33.860  10.301
11668W        W76895  28.294  41.517   4.958
11669W        W76896  21.655   3.437   1.239
11670W        W76897  13.104  19.957  14.907
11671W        W76898  23.939  11.173  12.127
11672W        W76899  24.698  24.552   3.739
11673W        W76900   4.969   3.621  12.028
11674W        W76901   7.532   7.699  11.141
11675W        W76902  34.873  26.104  10.727
11676W        W76903  26.912  36.864   4.835
11677W        W76904  23.357  43.093  14.011
11678W        W76905  16.162  27.791  11.529
11679W        W76906  33.500   8.979   3.161
11680W        W76907  34.141  14.654  11.610
11681W        W76908  29.948  31.299  14.161
11682W        W76909  24.419   5.214   2.908
11683W        W76910  33.035  27.510   2.881
11684W        W76911  20.119   0.842   1.087
11685W        W76912  26.521  38.969  11.424
11686W        W76913  27.158  38.304   1.626
11687W        W76914  12.658  16.736  14.815
11688W        W76915  18.046  34.891   3.217
11689W        W76916  29.454  17.997  12.588
11690W        W76917  36.221  17.132   4.992
11691W        W76918  29.358  37.121   2.751
11692W        W76919  11.441  30.385   4.171
11693W        W76920  34.656  21.546   3.153
11694W        W76921  12.546  29.333  14.047
11695W        W76922  30.783   0.063  11.576
11696W        W76923   5.499   5.887   1.901
11697W        W76924  10.474  19.137  12.194
11698W        W76925  10.280  39.710  10.120
11699W        W76926  17.474  32.074   3.972
11700W        W76927  30.452  23.786  10.937
11701W        W76928  21.222   0.607  12.000
11702W        W76929  25.552   3.936   1.472
11703W        W76930   1.449  15.052  14.000
11704W        W76931  37.856   9.838  14.425
11705W        W76932  35.870  24.864  11.884
11706W        W76933   0.058   9.621   4.497
11707W        W76934  15.766  18.976   4.752
11708W        W76935  17.206  10.379   4.320
11709W        W76936  36.245  29.372  13.866
11710W        W76937  17.314   6.872  14.207
11711W        W76938  39.221  17.631  12.893
11712W        W76939  41.357  15.291  12.923
11713W        W76940   2.397  38.396  13.475
11714W        W76941  14.769  20.156   2.944
11715W        W76942   2.845  23.656   2.595
11716W        W76943  40.759   1.729   3.337
11717W        W76944  30.416  25.977  12.127
11718W        W76945  19.039  34.297   4.344
11719W        W76946  30.872   2.952  14.073
11720W        W76947  12.554  21.691  12.399
11721W        W76948  29.129  34.296  14.431
11722W        W76949  18.783  27.254   1.712
11723W        W76950  29.640   4.491   0.710
11724W        W76951  36.524  43.063  14.826
11725W        W76952  14.211  26.448  13.837
11726W        W76953  14.719   1.796   4.734
11727W        W76954  19.872  10.729   0.342
11728W        W76955  28.628  30.872  12.457
11729W        W76956  19.450  26.798   0.300
11730W        W76957  33.378  27.504   1.360
11731W        W76958  38.290  17.741  14.020
11732W        W76959  29.519  14.108  14.016
11733W        W76960  16.987  38.486   2.777
11734W        W76961  33.336  41.726   3.504
11735W        W76962  34.450  35.416  13.436
11736W        W76963  42.033  34.333  12.494
11737W        W76964  43.996  24.031  13.546
11738W        W76965  17.663  21.791  11.004
11739W        W76966   8.252  16.116  13.935
11740W        W76967  12.975  22.402   0.044
11741W        W76968  21.025   2.304  11.223
11742W        W76969  37.416  18.771  10.818
11743W        W76970  44.258  23.478  10.910
11744W        W76971   6.627  26.119   2.576
11745W        W76972  14.324  26.028  12.928
11746W        W76973  43.220  43.329  12.752
11747W        W76974  33.755  18.312  14.985
11748W        W76975  13.473  21.389  13.258
11749W        W76976  31.448   2.357  11.103
11750W        W76977  43.562   5.403  10.725
11751W        W76978  26.702  30.663  12.320
11752W        W76979  39.415  32.008  11.481
11753W        W76980   6.029  10.591  11.366
11754W        W76981  28.948  12.180   3.368
11755W        W76982  28.914  21.609   0.916
11756W        W76983  42.501   1.388  10.729
11757W        W76984  33.744   0.163   3.229
11758W        W76985  17.256  12.399   2.898
11759W        W76986  36.707  42.294   4.507
11760W        W76987  13.989   8.348   3.708
11761W        W76988  31.906  42.246   0.188
11762W        W76989   9.299  21.940  14.577
11763W        W76990   6.491  32.172   2.518
11764W        W76991  36.284   1.324  11.122
11765W        W76992  42.684  18.509   3.177
11766W        W76993  44.749   3.745   4.779
11767W        W76994  16.521  35.121  13.486
11768W        W76995  37.338  37.557   9.982
11769W        W76996  33.638  36.950  13.466
11770W        W76997  21.798   2.095  12.551
11771W        W76998  21.565   7.870   2.654
11772W        W76999   9.809  14.794  12.977
11773W        W77000   7.419  15.231   1.971
11774W        W77001   1.695  23.323  12.707
11775W        W77002  19.583  13.910   1.453
11776W        W77003  42.869  38.615   1.318
11777W        W77004  21.218   3.065  12.234
11778W        W77005  44.926  11.832   4.547
11779W        W77006  42.819  10.320   0.258
11780W        W77007   2.286  30.131  12.832
11781W        W77008  10.241  30.168   3.706
11782W        W77009  29.818  31.367   1.757
11783W        W77010   6.071   9.716  11.836
11784W        W77011  18.007  13.053  14.835
11785W        W77012   5.493  22.521   1.689
11786W        W77013  11.529   9.420  12.966
11787W        W77014   7.203  19.468   0.468
11788W        W77015  18.085  13.911   2.729
11789W        W77016  41.417  18.640   0.490
11790W        W77017   2.230  13.074  14.834
11791W        W77018   5.913  28.500   0.022
11792W        W77019  42.417  13.824  14.554
11793W        W77020  18.906   4.739  12.895
11794W        W77021  24.708   6.983  13.631
11795W        W77022  12.114  42.659  14.381
11796W        W77023  41.879  17.192   2.248
11797W        W77024  26.192  19.473  14.411
11798W        W77025  23.665   3.371   3.938
11799W        W77026  32.398   3.804  11.973
11800W        W77027   2.796  44.013  13.700
11801W        W77028  32.740  28.371  10.691
11802W        W77029   8.204  16.534   0.321
11803W        W77030  23.484  31.496  12.022
11804W        W77031  40.271  34.657  12.778
11805W        W77032  19.858  41.858  14.874
11806W        W77033   3.234   3.231   1.969
11807W        W77034  20.518  29.296   3.662
11808W        W77035  19.129  17.394  14.731
11809W        W77036  33.010  35.935  10.599
11810W        W77037  14.762  43.216   4.941
11811W        W77038  18.757   7.792  14.232
11812W        W77039  39.572  44.018   4.142
11813W        W77040  18.048  43.953  11.608
11814W        W77041  40.002  10.789  11.226
11815W        W77042  11.807  20.971   3.777
11816W        W77043  28.604   4.949  12.059
11817W        W77044  15.615  33.957   2.426
11818W        W77045   3.708  32.543   0.434
11819W        W77046  14.885   0.418   3.496
11820W        W77047   3.044   0.630   3.980
11821W        W77048   3.461   5.621   2.223
11822W        W77049  28.392  22.835   1.751
11823W        W77050  29.099  31.289  14.894
11824W        W77051  36.511  40.932   0.257
11825W        W77052   1.130  20.485  12.099
11826W        W77053   1.138  25.432   0.354
11827W        W77054  30.712  30.906   4.032
11828W        W77055  41.358  35.464   4.710
11829W        W77056  39.900  42.033  10.784
11830W        W77057  18.338  44.769   4.700
11831W        W77058  15.190  10.077   2.586
11832W        W77059  33.037  36.614  14.307
11833W        W77060  16.600  35.911   0.789
11834W        W77061   1.653  27.317  14.942
11835W        W77062  41.537  42.067  12.885
11836W        W77063   2.797  18.006   3.659
11837W        W77064   2.194  19.847  10.818
11838W        W77065  26.640  40.030  11.560
11839W        W77066  33.072   1.586  13.475
11840W        W77067  15.498  39.146   2.397
11841W        W77068  15.563  18.331   0.431
11842W        W77069  24.027  40.059  13.446
11843W        W77070  14.563  24.946  11.192
11844W        W77071  29.400   3.683   4.414
11845W        W77072  34.329  41.526  11.815
11846W        W77073  29.099  27.372  13.900
11847W        W77074  20.610  38.123  10.841
11848W        W77075  33.966  22.784  11.999
11849W        W77076  16.788  26.657   3.269
11850W        W77077  17.215   3.442  11.211
11851W        W77078  19.720  18.559   2.862
11852W        W77079  16.069  42.456   1.830
11853W        W77080  14.621   1.361   3.714
11854W        W77081  43.582  41.076  14.417
11855W        W77082  36.361  21.485  13.521
11856W        W77083  44.638   4.037   3.812
11857W        W77084   1.236   9.801   0.030
11858W        W77085  43.551  41.590  11.274
11859W        W77086  29.157  22.618   3.617
11860W        W77087   9.893  24.542   3.157
11861W        W77088  33.687  18.564  13.351
11862W        W77089  41.596  41.472   0.817
11863W        W77090   8.660  29.642  14.124
11864W        W77091  40.925  41.809   4.361
11865W        W77092  15.683  37.413   3.240
11866W        W77093   6.268   0.493   4.838
11867W        W77094   0.848  37.300   2.432
11868W        W77095   2.222   8.857  12.195
11869W        W77096  38.653   7.909  12.636
11870W        W77097   4.871   1.719   2.073
11871W        W77098  20.239  39.050   2.223
11872W        W77099  11.630  27.799   1.745
11873W        W77100  15.531  44.000   3.314
11874W        W77101  10.641  30.512  13.318
11875W        W77102  26.138  12.841  12.783
11876W        W77103   2.246  31.130  14.766
11877W        W77104  22.265  30.347  12.031
11878W        W77105   9.597  41.650  12.119
11879W        W77106  38.476  18.145  11.583
11880W        W77107  30.684   7.741  11.407
11881W        W77108  10.703  44.273   3.193
11882W        W77109  35.302  19.671   1.445
11883W        W77110   8.151  32.518  13.520
11884W        W77111  32.323  35.508  10.857
11885W        W77112   3.541  44.324  12.584
11886W        W77113   8.307   8.929   0.325
11887W        W77114   3.193   7.140  11.734
11888W        W77115  21.151  41.114   1.907
11889W        W77116  22.592  28.214   1.271
11890W        W77117  30.477  27.953   0.407
11891W        W77118  28.595  26.118   2.357
11892W        W77119  23.281   9.664   1.261
11893W        W77120  39.534  35.405  13.131
11894W        W77121  29.405  15.680  10.920
11895W        W77122  16.076  21.044  14.783
11896W        W77123  23.107   4.683   2.775
11897W        W77124  23.467   3.941   2.666
11898W        W77125  41.605  31.136   1.361
11899W        W77126  21.056   7.886   2.816
11900W        W77127  27.696   1.480   4.854
11901W        W77128  27.209  10.319  10.627
11902W        W77129   6.359  13.645  14.768
11903W        W77130  29.909  41.498  13.119
11904W        W77131  31.425   4.974   3.619
11905W        W77132  13.076  22.618  14.147
11906W        W77133  20.615  22.940   3.918
11907W        W77134  32.142  22.090  12.923
11908W        W77135  33.124  26.914   0.542
11909W        W77136  31.181  13.468   2.516
11910W        W77137  22.904  10.696  10.479
11911W        W77138  38.530  32.411  14.409
11912W        W77139  13.436  31.712   4.591
11913W        W77140  15.122  21.616   4.185
11914W        W77141  23.207  36.958   0.888
11915W        W77142  36.539  27.985  14.267
11916W        W77143  43.708  44.459   4.064
11917W        W77144  31.960   5.939  12.083
11918W        W77145   4.168  23.955   3.664
11919W        W77146   0.925  10.086  14.450
11920W        W77147   0.248  37.751  14.958
11921W        W77148  15.639  30.665  10.595
11922W        W77149  29.788  28.128  12.367
11923W        W77150  42.449  17.219   3.126
11924W        W77151  24.631  38.119  12.129
11925W        W77152  25.124   9.616  12.366
11926W        W77153  43.415  23.952  14.362
11927W        W77154  24.145  24.320  10.856
11928W        W77155  18.983  28.120   4.577
11929W        W77156  29.362  41.452   2.103
11930W        W77157  36.832  33.173   1.441
11931W        W77158   0.018  15.000  11.113
11932W        W77159   3.893  34.120  12.273
11933W        W77160  38.503  31.179  14.811
11934W        W77161   3.759  36.840   2.420
11935W        W77162  25.400  42.917  11.618
11936W        W77163  39.585  20.554  13.105
11937W        W77164  43.016  39.063   4.562
11938W        W77165  28.830  37.723   1.164
11939W        W77166  15.010  43.662  11.998
11940W        W77167  14.063  13.329  12.492
11941W        W77168  40.408  24.194   1.468
11942W        W77169   2.948  33.018   1.752
11943W        W77170  33.504  18.515  11.449
11944W        W77171   1.610  31.672  14.595
11945W        W77172  19.152  26.297   0.983
11946W        W77173  40.522  25.967   2.693
11947W        W77174  38.563  38.445  10.448
11948W        W77175  27.817   3.829  11.561
11949W        W77176  34.441  15.135   4.214
11950W        W77177   7.224  21.499   1.327
11951W        W77178  44.522  17.173   2.046
11952W        W77179  20.555   9.368   3.943
11953W        W77180  33.868   9.950   3.762
11954W        W77181  22.753   7.213   4.634
11955W        W77182  13.124  28.237   2.561
11956W        W77183  18.325  43.848   4.641
11957W        W77184   3.129  39.111  12.641
11958W        W77185  21.759  42.776  14.373
11959W        W77186  42.524  13.220   0.292
11960W        W77187  39.543  13.355   1.006
11961W        W77188  11.236  36.152  13.484
11962W        W77189   2.414  15.359  12.043
11963W        W77190  19.138  13.967   3.101
11964W        W77191   8.478  27.105   1.835
11965W        W77192  21.365  23.281   0.383
11966W        W77193   6.879  33.249   4.142
11967W        W77194  14.145  34.860  11.150
11968W        W77195   4.932  14.326  12.929
11969W        W77196   0.549   4.470   2.372
11970W        W77197  25.001  16.683  13.001
11971W        W77198  28.194  25.435  11.997
11972W        W77199  25.362  16.067   0.422
11973W        W77200  31.848  31.649  14.812
11974W        W77201   7.230  10.120   4.718
11975W        W77202  13.144   0.781   3.630
11976W        W77203  29.442   7.836   0.863
11977W        W77204  35.969  35.952   4.788
11978W        W77205  43.256  10.638  11.012
11979W        W77206  27.648   4.001   3.408
11980W        W77207  11.610   8.953  10.835
11981W        W77208   8.502  38.803  13.888
11982W        W77209  28.194  11.335  10.720
11983W        W77210  38.947  31.233  10.779
11984W        W77211  34.496  33.662  12.929
11985W        W77212  21.046  17.070   2.345
11986W        W77213  42.515   4.402   3.590
11987W        W77214  32.242  44.804  10.834
11988W        W77215  32.636  32.139   2.346
11989W        W77216  26.095   9.673   3.566
11990W        W77217   1.660   8.760   3.819
11991W        W77218   5.233  11.441  12.517
11992W        W77219  43.399  21.250   0.011
11993W        W77220   9.299   3.755   0.393
11994W        W77221   2.415  44.849   0.599
11995W        W77222   7.109  15.227  14.733
11996W        W77223  13.771  14.093  10.597
11997W        W77224  24.205  19.022  12.417
11998W        W77225  11.804  25.421   0.717
11999W        W77226  17.434  18.082   0.234
12000W        W77227  12.684  27.870  12.087
12001W        W77228  24.207   9.223   4.805
12002W        W77229  19.581  44.118   2.249
12003W        W77230  24.190  30.990   1.807
12004W        W77231  42.962  12.707   0.932
12005W        W77232  18.007   7.303   1.454
12006W        W77233   9.458  38.273   1.191
12007W        W77234  10.744  16.801  12.054
12008W        W77235  36.677  36.311   4.558
12009W        W77236  32.709   6.478  12.295
12010W        W77237  20.580  33.310  10.573
12011W        W77238  43.894  11.308   1.779
12012W        W77239  32.659   4.624   1.711
12013W        W77240  18.549  11.578  12.022
12014W        W77241  40.787  15.114   1.450
12015W        W77242  37.858  36.896   2.799
12016W        W77243   1.420   9.490  14.667
12017W        W77244  27.044   0.019   4.503
12018W        W77245  24.984  23.736  12.534
12019W        W77246   4.137  18.560  14.940
12020W        W77247   7.602  27.724  10.599
12021W        W77248  34.135   7.926  13.529
12022W        W77249  20.336  41.342  11.189
12023W        W77250  37.476  15.636   4.832
12024W        W77251  23.461  17.894   3.297
12025W        W77252  29.854  33.037   0.190
12026W        W77253   1.426  12.389   1.185
12027W        W77254   6.291  41.987   2.336
12028W        W77255  31.637  44.284   1.226
12029W        W77256  30.478   7.708  10.929
12030W        W77257  26.962   5.376   3.516
12031W        W77258  41.230  12.801  11.051
12032W        W77259  28.507  37.853  10.623
12033W        W77260  44.803  40.029   4.927
12034W        W77261  20.023  25.647   5.191
12035W        W77262  32.650   1.642  12.645
12036W        W77263  39.523  16.350   1.982
12037W        W77264   4.392  21.299   4.105
12038W        W77265  23.080  17.820  13.155
12039W        W77266  13.556  11.839   0.580
12040W        W77267  17.345  29.362   4.969
12041W        W77268  15.565  10.681   0.652
12042W        W77269  36.279  33.057  11.601
12043W        W77270  41.257  35.503  13.533
12044W        W77271  43.743   4.993  14.921
12045W        W77272  25.270  27.175  10.745
12046W        W77273  24.462  16.010  12.585
12047W        W77274  19.868  11.658   3.212
12048W        W77275   5.977  32.224   4.337
12049W        W77276  11.379   4.754  11.133
12050W        W77277  29.555  34.085  14.644
12051W        W77278  27.404  27.417   0.863
12052W        W77279  39.722  13.449   2.632
12053W        W77280   2.500  44.900  11.999
12054W        W77281  14.159   0.093   1.934
12055W        W77282  43.465  40.350   2.505
12056W        W77283  20.619  27.106   1.795
12057W        W77284   8.854  43.825   4.684
12058W        W77285  12.174  26.425   0.485
12059W        W77286  29.723  13.097   3.084
12060W        W77287  20.504   3.066  14.299
12061W        W77288   9.301  30.046  11.725
12062W        W77289  28.140  22.290   0.651
12063W        W77290  24.119  31.636  11.057
12064W        W77291  21.779  18.920  10.585
12065W        W77292  36.091  23.134   2.506
12066W        W77293  37.714  16.076   1.800
12067W        W77294  15.640  42.337  10.767
12068W        W77295  35.872  40.062   0.255
12069W        W77296   1.195   5.933  13.522
12070W        W77297  18.634  32.517   0.865
12071W        W77298  35.416  11.776  13.126
12072W        W77299   9.216  25.760   3.665
12073W        W77300   7.887   1.376  14.091
12074W        W77301  40.639  21.963  12.147
12075W        W77302  12.377   1.175   1.371
12076W        W77303   3.541  42.657   0.340
12077W        W77304  16.286  34.566   3.552
12078W        W77305  10.219  11.727  12.495
12079W        W77306  29.409   0.482   1.686
12080W        W77307   2.503  25.118   1.819
12081W        W77308   6.102   4.892  12.547
12082W        W77309   1.504  37.013  11.488
12083W        W77310  27.205  17.732   9.723
12084W        W77311  12.866  43.388   4.561
12085W        W77312  44.179  38.325   1.530
12086W        W77313  34.314  23.674   1.321
12087W        W77314  16.516  18.187   2.463
12088W        W77315   2.819  35.442  14.528
12089W        W77316  35.653  24.250   4.165
12090W        W77317  32.312  23.514  13.175
12091W        W77318   7.471  21.763  13.605
12092W        W77319  41.379   2.729  11.014
12093W        W77320  19.177  20.360  11.477
12094W        W77321  10.355  43.592   3.659
12095W        W77322  25.214  31.031   4.274
12096W        W77323  20.779  23.526   2.206
12097W        W77324  22.216   3.527  13.514
12098W        W77325  13.700  32.301  13.762
12099W        W77326  16.031  39.322  12.606
12100W        W77327  21.655  31.661   1.539
12101W        W77328  22.186  37.544   2.322
12102W        W77329  41.905  20.118  13.928
12103W        W77330  17.577  35.053   2.739
12104W        W77331  42.982  36.859   4.224
12105W        W77332  20.711   5.824  14.794
12106W        W77333  13.115  38.618  11.177
12107W        W77334  33.891  37.208  14.333
12108W        W77335  25.254   3.462  13.608
12109W        W77336   7.932   9.625   1.324
12110W        W77337  11.904  37.458   0.791
12111W        W77338   9.835  39.802  12.626
12112W        W77339  17.646  33.411   1.406
12113W        W77340  27.738   4.778   2.752
12114W        W77341   9.260  38.655  11.605
12115W        W77342  16.320  28.753   0.539
12116W        W77343   5.751  13.296   3.190
12117W        W77344  36.621   7.061   3.999
12118W        W77345   1.907   1.696  14.787
12119W        W77346  26.717  29.508   2.310
12120W        W77347  15.030  14.197  10.316
12121W        W77348   7.010  40.946   4.644
12122W        W77349  32.360  42.941   2.940
12123W        W77350  32.023  27.913   0.792
12124W        W77351  26.552   3.869   1.117
12125W        W77352  44.455  12.642   0.886
12126W        W77353  16.875  20.004   0.259
12127W        W77354   9.345   4.757   1.315
12128W        W77355  18.770  22.568   2.661
12129W        W77356  20.336  24.096  11.989
12130W        W77357   5.410   0.530   4.488
12131W        W77358  23.701   6.198   1.601
12132W        W77359  34.110  14.923   2.680
12133W        W77360  11.926  15.984   1.128
12134W        W77361  20.017  34.016  14.844
12135W        W77362  25.544  23.557   2.275
12136W        W77363   0.853  42.458  12.868
12137W        W77364  31.002   8.159  11.461
12138W        W77365  32.100   3.685   3.678
12139W        W77366  24.578   4.652   2.308
12140W        W77367  10.297  27.146   0.844
12141W        W77368  10.687  27.239  12.373
12142W        W77369  25.705  18.514  13.048
12143W        W77370   6.541  22.345   0.524
12144W        W77371  25.817   2.925  12.951
12145W        W77372  16.313  17.235  13.077
12146W        W77373  31.473  43.879  11.564
12147W        W77374  17.334  28.863   3.201
12148W        W77375  33.478  28.483  12.432
12149W        W77376  16.526  18.851   3.566
12150W        W77377  43.078   8.935  11.652
12151W        W77378   1.269  13.148   1.596
12152W        W77379   4.027  41.899   3.279
12153W        W77380   6.219  20.650  12.571
12154W        W77381   0.852   8.283   1.362
12155W        W77382  24.038  13.451   4.500
12156W        W77383  20.246  35.217  12.073
12157W        W77384  30.549  17.078   3.094
12158W        W77385  24.572  23.129  10.964
12159W        W77386  27.893   3.584   3.200
12160W        W77387  19.907   4.363   1.840
12161W        W77388  24.046  12.399   2.204
12162W        W77389  10.169   5.767   1.415
12163W        W77390  11.725   3.706  14.075
12164W        W77391   5.583   5.822   3.288
12165W        W77392  21.327   0.689   0.853
12166W        W77393  25.596  20.744   3.278
12167W        W77394  17.542  19.683  11.394
12168W        W77395  19.293  18.190  12.379
12169W        W77396  14.797  21.228  10.678
12170W        W77397  36.515  28.157   3.298
12171W        W77398  37.307  32.544   5.105
12172W        W77399   2.911  29.743  10.704
12173W        W77400  25.696  35.963   2.899
12174W        W77401   3.774  11.050   0.431
12175W        W77402  16.700  32.547   4.278
12176W        W77403   7.986  16.649   3.113
12177W        W77404  39.583  29.696  14.840
12178W        W77405   6.123  40.051  12.550
12179W        W77406   4.418  34.413   2.430
12180W        W77407   5.275  23.909  13.348
12181W        W77408  44.587   2.974   3.808
12182W        W77409   5.884  10.119  14.983
12183W        W77410  31.191  16.151  13.023
12184W        W77411  15.829  20.768  13.537
12185W        W77412  37.324   4.187  14.457
12186W        W77413   6.010   1.801  11.837
12187W        W77414   8.682  32.257  13.602
12188W        W77415  13.081  23.777  14.085
12189W        W77416  12.146  25.742   2.335
12190W        W77417  39.383  40.478   4.489
12191W        W77418  12.419   5.181   4.617
12192W        W77419   8.712   4.781  12.406
12193W        W77420  15.787   0.440   1.161
12194W        W77421  18.773  15.189   2.876
12195W        W77422  17.320  21.896  12.180
12196W        W77423   6.790  36.575  13.842
12197W        W77424  28.373  26.658  13.012
12198W        W77425  40.031  38.394   4.923
12199W        W77426  32.617   9.854   2.834
12200W        W77427  35.202  35.172  12.451
12201W        W77428  14.964   2.730  13.043
12202W        W77429  23.733   4.964   4.457
12203W        W77430  21.702  23.136  12.238
12204W        W77431  26.571  27.057  13.301
12205W        W77432   1.270  14.701   3.240
12206W        W77433  18.328   8.168   3.314
12207W        W77434  25.950   8.928  12.398
12208W        W77435  34.006   6.731  13.896
12209W        W77436   7.211  27.014  12.120
12210W        W77437  18.221  43.954  13.741
12211W        W77438   3.467   6.140   2.147
12212W        W77439  22.962  13.364   4.055
12213W        W77440  22.593  18.997  11.197
12214W        W77441   7.705  31.650  12.847
12215W        W77442   5.472   6.243   4.683
12216W        W77443  23.689  22.687  11.159
12217W        W77444  11.426   8.899   2.285
12218W        W77445  20.363  41.229  12.148
12219W        W77446  30.459  18.847  14.011
12220W        W77447  22.717  20.966   4.945
12221W        W77448  41.810  38.344   1.885
12222W        W77449  16.723  30.825   3.595
12223W        W77450  43.622   5.673   3.005
12224W        W77451  41.931  11.125  12.175
12225W        W77452   9.783  10.689  12.496
12226W        W77453   2.890  26.140   1.003
12227W        W77454  19.865  31.515   1.922
12228W        W77455   5.779  28.750  11.136
12229W        W77456  40.060  34.131   2.782
12230W        W77457  10.261   8.218   2.675
12231W        W77458  42.983  41.024   1.888
12232W        W77459  20.606  42.962   3.105
12233W        W77460  40.778  40.912  10.817
12234W        W77461  33.901  13.983  13.821
12235W        W77462  25.205   9.381   2.350
12236W        W77463  35.155  37.380   5.008
12237W        W77464   0.422  41.543  11.148
12238W        W77465  23.294  21.464   1.861
12239W        W77466  38.376   4.416   0.403
12240W        W77467  29.399  36.700  10.732
12241W        W77468  12.596  13.873   1.814
12242W        W77469  40.473  36.534  12.982
12243W        W77470  29.202  12.996   3.143
12244W        W77471  19.510  30.509  11.748
12245W        W77472  14.719  26.150  10.814
12246W        W77473  19.485  43.381   4.957
12247W        W77474  17.194  34.059  10.852
12248W        W77475  15.525  37.629   1.840
12249W        W77476   1.281  13.640  13.976
12250W        W77477  33.981  40.285   2.664
12251W        W77478  13.133  34.954  14.339
12252W        W77479  20.962   3.255  10.835
12253W        W77480  44.010   7.800   0.377
12254W        W77481  43.991  42.356  13.281
12255W        W77482  38.159  13.285  14.827
12256W        W77483  14.998   0.778  12.861
12257W        W77484  23.709  17.705   0.692
12258W        W77485  27.045  12.868  13.080
12259W        W77486  18.702  19.498   2.768
12260W        W77487  32.141  26.710  13.558
12261W        W77488   8.165  22.916  11.189
12262W        W77489   5.700  30.457  11.918
12263W        W77490  12.316  32.249   0.303
12264W        W77491   0.314  19.077   1.622
12265W        W77492  44.472   4.714  12.801
12266W        W77493  13.297  44.195  12.010
12267W        W77494  44.997  30.730   3.610
12268W        W77495   8.048  32.669  10.200
12269W        W77496  28.204  31.721  10.709
12270W        W77497  38.839  32.554   2.417
12271W        W77498  31.861  32.579  12.998
12272W        W77499   4.737  42.727   2.231
12273W        W77500  19.218  21.257   3.767
12274W        W77501   6.910  17.518  12.543
12275W        W77502   5.978  21.531  11.571
12276W        W77503  28.313  12.154   1.813
12277W        W77504  35.936  32.341   3.182
12278W        W77505  34.547  21.681  10.609
12279W        W77506  28.965  22.227   1.883
12280W        W77507  44.191  27.868  12.165
12281W        W77508  44.506   5.959   0.880
12282W        W77509  24.574  38.998   3.237
12283W        W77510  27.359   4.456   4.854
12284W        W77511  33.875  26.531   0.756
12285W        W77512  23.570  29.582   0.281
12286W        W77513  40.337   4.706   3.237
12287W        W77514  23.362  30.575   1.878
12288W        W77515  34.266  26.653  10.727
12289W        W77516  27.392  44.646  12.552
12290W        W77517   7.341  19.844   0.842
12291W        W77518  28.450  11.634   4.959
12292W        W77519  17.222  36.357  10.469
12293W        W77520  28.332   6.131  14.832
12294W        W77521  22.805  34.778   0.077
12295W        W77522  23.525  40.007   3.482
12296W        W77523   8.785  38.136   0.450
12297W        W77524  31.919  13.791  12.062
12298W        W77525   6.202  40.170  10.839
12299W        W77526  14.655  10.388   3.254
12300W        W77527  25.958   7.968   0.818
12301W        W77528  42.277   4.911  12.033
12302W        W77529   1.149   0.263  11.834
12303W        W77530  17.759  18.062  10.720
12304W        W77531  30.744  17.773   1.754
12305W        W77532  33.594  26.946  10.347
12306W        W77533  37.914  42.475   0.610
12307W        W77534   4.982  31.667   4.899
12308W        W77535  17.790  32.611  10.680
12309W        W77536  38.503  15.296   0.340
12310W        W77537  33.899   6.943   2.692
12311W        W77538   2.749  37.209   1.307
12312W        W77539  25.022  12.974   1.873
12313W        W77540  11.626  36.891  13.433
12314W        W77541   3.945  29.370   1.981
12315W        W77542  42.028  21.686  11.607
12316W        W77543   7.227  22.108  12.975
12317W        W77544  44.432  44.770   0.372
12318W        W77545  39.407  33.957   1.727
12319W        W77546  40.479   1.845   0.390
12320W        W77547   6.854  25.078  13.422
12321W        W77548  22.581   6.165  13.799
12322W        W77549  41.978  23.894  13.571
12323W        W77550  40.736   9.626  12.036
12324W        W77551  18.158   3.571   4.868
12325W        W77552  37.614  17.792   2.253
12326W        W77553  33.344  18.955  13.319
12327W        W77554  16.509  37.859  10.611
12328W        W77555  43.541   6.344  13.565
12329W        W77556  10.055   0.254  12.338
12330W        W77557  12.336  17.065   4.136
12331W        W77558  20.779   9.767   3.676
12332W        W77559   6.162   3.426  13.396
12333W        W77560  37.612  43.858   1.758
12334W        W77561  12.119  41.932  11.198
12335W        W77562   9.927  13.826   3.690
12336W        W77563  38.794   2.478   2.310
12337W        W77564  31.510   8.389   2.757
12338W        W77565  43.813   9.305   2.972
12339W        W77566  21.984  17.797   3.306
12340W        W77567  37.916  26.602  10.325
12341W        W77568  33.857  24.570   4.318
12342W        W77569  37.316   9.951  12.021
12343W        W77570  26.680   8.078  13.423
12344W        W77571   8.880  25.015  10.734
12345W        W77572  32.042   2.330  10.744
12346W        W77573  13.389  34.050   2.180
12347W        W77574   3.158   5.498   0.404
12348W        W77575  27.649  16.523   4.156
12349W        W77576  20.063   3.728   1.538
12350W        W77577  22.906  43.114   4.852
12351W        W77578   7.760  42.571   0.696
12352W        W77579  24.301   0.418  11.756
12353W        W77580  27.933   5.844   3.908
12354W        W77581  34.899  33.969  14.776
12355W        W77582  17.540  35.553  12.678
12356W        W77583  25.711  40.433  12.545
12357W        W77584  12.775   9.593  11.180
12358W        W77585  44.592  36.292   2.679
12359W        W77586  40.960   6.618  11.750
12360W        W77587  40.442  39.650   1.542
12361W        W77588  37.336  24.281   2.204
12362W        W77589  19.143   4.334  10.987
12363W        W77590  16.548  33.589  12.858
12364W        W77591  12.551  31.304  12.105
12365W        W77592  11.407  30.442   2.200
12366W        W77593  23.068  23.189   4.820
12367W        W77594  31.695   0.236   3.386
12368W        W77595  23.202  23.647   1.653
12369W        W77596  21.279  17.080  12.771
12370W        W77597  28.607  41.997  11.574
12371W        W77598  36.547  37.196  14.763
12372W        W77599  10.210  11.181  10.746
12373W        W77600  13.113  42.772  13.746
12374W        W77601  44.527  26.445   4.547
12375W        W77602  26.244  42.478  10.681
12376W        W77603  17.723  12.734   1.487
12377W        W77604  22.199  24.613  11.466
12378W        W77605  41.444  26.544  14.991
12379W        W77606   2.819  37.390   3.103
12380W        W77607  32.107  35.700  12.572
12381W        W77608  11.841  25.799  14.746
12382W        W77609  39.372  36.349   0.840
12383W        W77610  43.882  31.365   1.616
12384W        W77611  19.755  37.969   3.263
12385W        W77612  42.217  27.914   3.720
12386W        W77613  13.711   6.432   4.124
12387W        W77614  28.768  39.236  11.105
12388W        W77615  13.520  44.596   4.598
12389W        W77616  37.540   3.719  13.344
12390W        W77617  11.226  30.628  10.215
12391W        W77618  20.863  11.003  13.519
12392W        W77619  29.029  15.992   5.454
12393W        W77620  33.654  39.472   0.836
12394W        W77621  18.787  42.831   3.621
12395W        W77622  38.571   7.489  10.791
12396W        W77623  38.789  13.789  12.085
12397W        W77624  24.513  39.375  14.912
12398W        W77625  12.984  16.027  10.790
12399W        W77626  10.224  11.702  13.428
12400W        W77627  43.570   2.939   3.117
12401W        W77628   1.973  21.651   2.874
12402W        W77629  44.961  30.432   3.165
12403W        W77630  25.052  10.145   1.284
12404W        W77631  22.663  30.452   4.058
12405W        W77632  15.291  25.148  14.707
12406W        W77633  44.255  37.868   4.063
12407W        W77634  43.019   6.244   4.189
12408W        W77635  17.708   5.955   3.134
12409W        W77636  13.351  44.863   0.758
12410W        W77637  16.235  43.580   3.589
12411W        W77638  42.281  12.731  12.374
12412W        W77639  42.416   8.253   2.948
12413W        W77640  13.504  29.638   1.153
12414W        W77641   4.712   5.218   1.839
12415W        W77642   5.335  29.883  11.732
12416W        W77643  38.407  12.099  13.831
12417W        W77644   8.364  39.056  14.417
12418W        W77645  16.160  20.625  13.145
12419W        W77646  34.349  18.723  11.416
12420W        W77647  38.327   0.966  13.348
12421W        W77648  16.172  24.085   0.405
12422W        W77649  29.539  18.838  12.963
12423W        W77650  23.484   0.419   3.068
12424W        W77651  39.807  14.728   4.138
12425W        W77652  12.894  13.743  11.308
12426W        W77653  23.493  17.091   0.963
12427W        W77654  18.171  44.740   3.416
12428W        W77655  39.880  41.867  13.357
12429W        W77656   1.448  20.290  11.000
12430W        W77657   9.491   8.478   1.568
12431W        W77658  40.906  30.151  13.303
12432W        W77659  20.759  14.816  13.817
12433W        W77660  27.126  28.741   4.723
12434W        W77661  31.128  11.261  10.982
12435W        W77662  44.225   1.849   2.785
12436W        W77663  31.236  36.787  12.587
12437W        W77664  40.362   4.664  13.272
12438W        W77665  35.785  32.663  13.850
12439W        W77666   8.850   3.466   0.414
12440W        W77667  34.048  30.655  13.602
12441W        W77668  36.035  33.894  11.444
12442W        W77669  10.799  15.593  13.853
12443W        W77670  33.823   7.493   4.200
12444W        W77671   1.791   4.799  10.776
12445W        W77672  26.007   1.521  14.059
12446W        W77673  32.023  23.771  10.261
12447W        W77674  25.410  30.631   1.106
12448W        W77675  11.219  41.559  10.986
12449W        W77676  28.167   6.757   1.554
12450W        W77677  40.603   3.385   3.236
12451W        W77678  42.108   1.787  13.992
12452W        W77679   2.207  11.866  13.278
12453W        W77680  44.116   6.884   2.704
12454W        W77681  27.902  11.185  11.977
12455W        W77682  38.937  41.805   2.350
12456W        W77683  29.026  15.680   0.235
12457W        W77684  13.042   8.832  12.082
12458W        W77685  38.844   5.191   0.824
12459W        W77686  16.425   2.977  10.438
12460W        W77687   1.518  26.599   3.324
12461W        W77688   9.923  36.366  13.555
12462W        W77689   8.247  21.860  12.999
12463W        W77690  43.974  38.332   0.903
12464W        W77691  15.734   2.193   2.744
12465W        W77692  39.829  32.964   3.833
12466W        W77693  21.151  30.356  13.088
12467W        W77694   2.917  17.747  10.744
12468W        W77695  36.076  40.899  14.470
12469W        W77696   8.428   8.753  12.436
12470W        W77697   2.133  19.080   4.047
12471W        W77698  11.775   3.118  14.959
12472W        W77699  10.379  23.688  14.320
12473W        W77700   1.730  34.650   2.255
12474W        W77701  21.984  22.467   4.656
12475W        W77702  35.026  38.106   1.055
12476W        W77703   1.016   1.033  13.492
12477W        W77704  30.025   6.683  14.310
12478W        W77705  17.178   5.051   4.148
12479W        W77706   9.962  28.199  13.738
12480W        W77707  26.456   0.229  14.804
12481W        W77708   6.025  31.944  10.784
12482W        W77709   7.528   1.092  12.420
12483W        W77710  12.251   6.367   1.311
12484W        W77711  35.177  39.262   0.335
12485W        W77712   7.340  25.112   0.630
12486W        W77713  12.961  27.608   3.234
12487W        W77714  19.653   1.713   4.320
12488W        W77715  14.360  31.188   2.353
12489W        W77716  38.655  23.457   9.949
12490W        W77717  27.527  17.268   2.082
12491W        W77718  24.778  20.459   2.582
12492W        W77719  39.930  39.411  12.817
12493W        W77720  31.076  43.207   2.898
12494W        W77721   7.953   0.448   0.342
12495W        W77722  21.428  16.725   0.059
12496W        W77723  10.368  14.920  10.599
12497W        W77724  18.158   6.715  10.685
12498W        W77725  33.904   6.792   4.091
12499W        W77726  34.693   4.896   2.169
12500W        W77727  36.106  27.160   4.267
12501W        W77728   8.613  19.575  12.859
12502W        W77729   1.216   4.930   3.082
12503W        W77730  33.263  25.686   4.489
12504W        W77731   7.234  14.273   3.097
12505W        W77732  21.090  34.600   2.019
12506W        W77733   5.029  29.065  11.580
12507W        W77734   3.940  14.201  14.341
12508W        W77735  17.313  34.424   0.469
12509W        W77736  35.801  23.124   1.200
12510W        W77737   3.774  13.629   0.449
12511W        W77738  23.115  40.736   3.115
12512W        W77739  24.991   4.444  13.313
12513W        W77740   2.283  18.237  11.806
12514W        W77741   9.438  17.261  14.973
12515W        W77742  41.922   7.564   4.503
12516W        W77743  23.059  31.510  13.941
12517W        W77744   8.835   3.724   2.661
12518W        W77745   3.731   3.842   2.532
12519W        W77746  27.635  41.410  13.565
12520W        W77747  44.192  26.180  13.763
12521W        W77748  22.642  40.902   3.332
12522W        W77749   7.236  26.477  13.411
12523W        W77750   2.703  32.240   1.072
12524W        W77751   5.781   5.558  11.089
12525W        W77752  13.900  26.596   0.345
12526W        W77753  17.048  17.153   1.339
12527W        W77754  26.774  42.920   4.582
12528W        W77755  28.544  18.290   1.627
12529W        W77756  38.427  39.129  11.534
12530W        W77757   4.256  22.110   1.414
12531W        W77758   5.363  18.832  14.345
12532W        W77759  16.885  41.944  12.912
12533W        W77760   7.122  13.806   0.255
12534W        W77761  39.122  20.716   1.660
12535W        W77762  39.113  21.905   3.145
12536W        W77763   6.000  28.055   3.689
12537W        W77764  20.262  28.634  11.987
12538W        W77765   5.158  43.610   4.018
12539W        W77766  35.357  36.171  14.103
12540W        W77767  40.492  37.286  11.064
12541W        W77768  41.078   9.655  14.236
12542W        W77769  27.912  30.095   2.571
12543W        W77770   8.835  36.920   1.719
12544W        W77771  21.900   2.848   2.740
12545W        W77772  39.232  18.774   0.652
12546W        W77773  25.051  30.531   1.934
12547W        W77774  32.785  10.874   0.454
12548W        W77775   4.227  26.159   0.372
12549W        W77776   3.266   1.154  11.914
12550W        W77777  29.457   3.979  12.372
12551W        W77778  38.887  32.637   4.541
12552W        W77779  40.872   1.962  13.424
12553W        W77780  43.080  34.915  14.298
12554W        W77781  30.302  18.830  11.668
12555W        W77782  11.511  23.977  12.072
12556W        W77783  14.122  44.889   0.304
12557W        W77784  27.114  38.596  13.897
12558W        W77785  24.649  23.794  12.089
12559W        W77786  13.886  28.399  11.231
12560W        W77787  16.212   4.792   3.194
12561W        W77788   0.987  17.053  12.935
12562W        W77789  34.584  32.559   0.400
12563W        W77790  32.843  16.762   2.795
12564W        W77791   3.234  18.625   4.540
12565W        W77792  33.884  11.177  14.853
12566W        W77793  31.584   5.700  12.895
12567W        W77794   7.392  18.266  12.809
12568W        W77795  30.900  20.893   1.671
12569W        W77796   4.345   5.323  12.481
12570W        W77797  25.438  12.630  12.551
12571W        W77798  33.395  28.374   2.703
12572W        W77799  30.114   6.110   1.963
12573W        W77800  35.382  30.783  13.025
12574W        W77801   7.466   7.410   0.837
12575W        W77802  26.478  23.578   4.143
12576W        W77803  14.437  15.724   1.253
12577W        W77804  41.921  44.323  12.152
12578W        W77805  27.022  16.203   2.293
12579W        W77806  43.111  32.378   2.273
12580W        W77807  26.752  28.378  10.839
12581W        W77808  37.207  38.815  12.478
12582W        W77809   1.783  28.919  12.665
12583W        W77810  13.413  26.994  13.837
12584W        W77811   4.639   3.373  14.364
12585W        W77812  13.554  22.858   3.592
12586W        W77813  23.919  28.460  12.431
12587W        W77814   7.164  37.323  14.364
12588W        W77815  10.346  10.441   1.232
12589W        W77816  24.538  28.105   2.284
12590W        W77817   7.519   7.345   5.002
12591W        W77818  30.475  35.787   4.608
12592W        W77819   9.869  16.334  13.024
12593W        W77820  27.983   3.840  13.831
12594W        W77821  27.376  28.531  14.715
12595W        W77822  18.347  13.371   4.033
12596W        W77823  20.991  43.988  14.865
12597W        W77824   7.355  37.590  12.512
12598W        W77825  26.021  17.381  12.058
12599W        W77826  41.909  36.641  14.896
12600W        W77827  17.862  12.673   3.745
12601W        W77828  18.778  18.458   3.048
12602W        W77829   7.180  37.874   2.871
12603W        W77830   7.088  14.893   0.591
12604W        W77831  42.745  41.339   2.243
12605W        W77832  27.038  23.878  11.094
12606W        W77833   5.868   0.781   4.585
12607W        W77834  17.960  37.559   3.657
12608W        W77835  29.705  43.360  14.053
12609W        W77836   2.098  43.709  14.443
12610W        W77837  18.158  28.958  13.523
12611W        W77838   3.320   5.821   1.740
12612W        W77839   5.212  24.590   0.140
12613W        W77840  30.231  18.749  13.504
12614W        W77841  17.130  40.738   2.264
12615W        W77842  10.023   5.098   2.666
12616W        W77843  43.278   9.679   2.362
12617W        W77844  32.454  39.767   4.527
12618W        W77845  44.591  19.916   2.346
12619W        W77846  10.261  34.194  12.053
12620W        W77847   2.540  30.607   3.641
12621W        W77848  24.763  31.634  12.104
12622W        W77849  18.089  36.952   0.769
12623W        W77850   5.760  11.144  14.039
12624W        W77851  35.368   0.265  14.650
12625W        W77852  33.120  39.301   3.629
12626W        W77853  10.846  10.240  14.451
12627W        W77854  16.443  38.752   2.291
12628W        W77855  38.556  14.526   2.214
12629W        W77856  20.257  31.105   3.355
12630W        W77857  17.821  11.804  10.728
12631W        W77858   7.827  36.859  11.576
12632W        W77859  28.915  41.794   2.899
12633W        W77860  29.881  20.832   4.860
12634W        W77861  40.708  19.376   0.253
12635W        W77862  40.049   1.633   0.160
12636W        W77863  14.730  27.441   3.785
12637W        W77864  26.886   1.729  12.943
12638W        W77865   6.392   5.661   4.572
12639W        W77866  23.600  23.253   2.401
12640W        W77867   3.288  22.089  11.995
12641W        W77868   2.874   2.992   4.267
12642W        W77869  33.152  20.107  13.668
12643W        W77870  26.426   4.278  13.476
12644W        W77871  13.056  34.897   3.103
12645W        W77872  10.343   3.192  13.415
12646W        W77873  30.455  26.427  14.897
12647W        W77874  30.187  18.291  14.429
12648W        W77875  19.520  36.913  10.700
12649W        W77876  29.829  25.457  14.385
12650W        W77877  24.937  25.266  11.245
12651W        W77878  43.226  28.951   2.583
12652W        W77879  37.299  31.991   1.818
12653W        W77880  40.610   9.720   2.636
12654W        W77881  33.800  20.538  10.694
12655W        W77882  44.087  33.652   3.295
12656W        W77883  42.803  10.851   2.345
12657W        W77884  39.330  11.715   1.291
12658W        W77885  36.667  39.532  14.322
12659W        W77886  16.191  27.423  10.648
12660W        W77887  38.316   9.869   3.231
12661W        W77888  42.148  41.571   1.525
12662W        W77889  18.993  17.364   3.947
12663W        W77890  18.320  19.229   3.634
12664W        W77891  25.264  12.418  12.084
12665W        W77892  32.373  14.157  10.730
12666W        W77893  21.168  16.803  14.530
12667W        W77894   2.689  22.206  12.808
12668W        W77895  26.427  30.382   1.018
12669W        W77896  21.792   0.373  14.997
12670W        W77897   5.815   0.004   2.161
12671W        W77898   0.422  40.378  12.187
12672W        W77899  23.586  24.422   1.803
12673W        W77900  17.633  35.084  12.922
12674W        W77901  25.082   6.209  11.227
12675W        W77902  41.332  14.231  12.061
12676W        W77903   4.158  43.517  13.789
12677W        W77904  10.272  17.720  11.203
12678W        W77905  24.020   8.505   2.245
12679W        W77906  37.077   6.434  13.943
12680W        W77907  12.441   0.015   2.234
12681W        W77908   2.078  23.503   3.649
12682W        W77909   4.243  19.194   3.332
12683W        W77910   0.014  13.783   2.125
12684W        W77911  25.642  42.743  10.430
12685W        W77912  17.116  15.334   2.700
12686W        W77913  28.418  43.787   2.940
12687W        W77914   3.009   0.089   2.354
12688W        W77915  41.336  21.598  11.202
12689W        W77916  31.670  22.768   2.817
12690W        W77917  22.110  32.974   1.419
12691W        W77918   2.996  36.560  10.822
12692W        W77919   2.526  18.266   0.425
12693W        W77920   6.272  29.392   0.959
12694W        W77921  11.975  19.067  13.606
12695W        W77922  39.013  43.957   4.073
12696W        W77923  42.915  11.931  12.342
12697W        W77924  32.568  38.852   3.657
12698W        W77925  30.232  20.985  11.101
12699W        W77926   3.778  41.446   3.244
12700W        W77927  29.656  28.408  11.623
12701W        W77928  21.569   2.480   4.008
12702W        W77929   9.173  41.252   4.104
12703W        W77930  10.103  16.833  14.782
12704W        W77931  34.864  17.565   1.278
12705W        W77932   4.283  29.901   0.276
12706W        W77933  36.559  27.745   4.535
12707W        W77934  14.601  34.086   1.271
12708W        W77935  41.984   6.024   3.513
12709W        W77936  14.681  24.552   0.356
12710W        W77937  36.184  30.123  12.010
12711W        W77938  26.191  34.068   2.365
12712W        W77939   7.817  23.766   3.779
12713W        W77940  13.223  27.578   0.359
12714W        W77941  39.732  10.096   2.915
12715W        W77942  37.479   9.216  12.508
12716W        W77943   9.838  29.560   4.089
12717W        W77944  42.421  10.099  11.000
12718W        W77945   3.027  24.237  14.026
12719W        W77946   6.447  29.160  12.037
12720W        W77947  19.415  42.065   1.467
12721W        W77948  13.480  17.721   3.192
12722W        W77949  39.391  34.973  12.480
12723W        W77950  13.774   9.604   0.745
12724W        W77951   1.889  29.692  14.542
12725W        W77952   4.500  12.275   1.662
12726W        W77953  10.197  15.941  12.674
12727W        W77954  39.833  26.071  10.725
12728W        W77955  31.587  31.576  11.454
12729W        W77956   1.357   4.500  10.861
12730W        W77957  12.630  26.666  12.615
12731W        W77958  27.530   0.433   0.678
12732W        W77959   2.318  30.190  13.915
12733W        W77960  39.915  26.318  14.454
12734W        W77961   9.836  30.738   0.870
12735W        W77962  19.918  13.684   3.619
12736W        W77963  30.137  20.113   2.414
12737W        W77964  42.597  37.248   1.325
12738W        W77965   8.437  38.442   0.251
12739W        W77966  14.193   2.013   1.682
12740W        W77967  33.788  41.740  13.928
12741W        W77968  13.762  10.391  14.049
12742W        W77969  44.161  17.244  10.711
12743W        W77970  36.302   3.207  11.150
12744W        W77971  10.456  30.366   0.707
12745W        W77972  38.368  24.663   3.877
12746W        W77973  40.775  22.625   4.425
12747W        W77974  37.132  39.834   4.408
12748W        W77975   8.166  37.045  13.595
12749W        W77976  10.409  16.450   4.863
12750W        W77977  38.040   5.065   4.632
12751W        W77978  35.685  33.129  10.911
12752W        W77979   9.872   7.757  13.539
12753W        W77980  15.180  27.418  13.429
12754W        W77981  11.800   4.502   1.286
12755W        W77982  27.340  22.864  13.805
12756W        W77983  22.485  22.826  10.760
12757W        W77984  28.770  32.626  13.479
12758W        W77985  36.458  13.092   3.758
12759W        W77986  31.479  14.353  14.068
12760W        W77987  31.176  12.262   0.363
12761W        W77988  41.501  28.141   3.130
12762W        W77989  38.361  34.040   2.434
12763W        W77990  29.113  20.744   4.668
12764W        W77991   0.023   3.872  14.470
12765W        W77992   1.744  22.019  12.988
12766W        W77993   3.126  35.473  10.805
12767W        W77994  18.963  23.687   1.841
12768W        W77995  11.057  26.083   1.705
12769W        W77996  15.839  36.148   1.892
12770W        W77997  12.752  25.821   2.929
12771W        W77998   1.989  43.211   0.994
12772W        W77999  22.513  40.495   2.182
12773W        W78000  11.937   0.164   2.193
12774W        W78001  44.319  21.319  13.981
12775W        W78002  37.222  12.315  14.864
12776W        W78003  20.402   8.317   3.492
12777W        W78004  21.903  43.929   0.705
12778W        W78005  33.631  11.259   1.435
12779W        W78006  41.624  43.459  13.507
12780W        W78007  13.419  12.633   3.722
12781W        W78008  33.152   9.132  12.544
12782W        W78009  27.839  18.284  13.962
12783W        W78010  18.601  19.977   0.493
12784W        W78011   7.615  28.091  13.349
12785W        W78012  43.084  21.696   0.266
12786W        W78013  30.709  21.708   0.320
12787W        W78014   6.924   7.303  14.332
12788W        W78015  34.774   5.388  11.651
12789W        W78016  40.375  10.332   3.726
12790W        W78017   3.431  16.771   4.803
12791W        W78018   0.295  22.482  11.960
12792W        W78019   5.753  25.566   3.768
12793W        W78020   1.290  41.287  13.865
12794W        W78021  15.124   7.349   3.707
12795W        W78022  39.027  20.560   0.201
12796W        W78023  30.609  44.844  14.813
12797W        W78024  36.500   4.228   2.912
12798W        W78025  24.570  22.482   4.607
12799W        W78026   5.978  21.451   3.818
12800W        W78027  41.834  10.741  10.780
12801W        W78028  25.652  33.836   4.661
12802W        W78029  42.958  15.791   2.619
12803W        W78030  35.987  28.454  14.663
12804W        W78031  11.537  16.360  12.917
12805W        W78032  26.481  34.303   4.944
12806W        W78033  18.674   0.233   4.113
12807W        W78034  22.288  10.825   3.573
12808W        W78035   1.844   4.260  10.713
12809W        W78036  34.062  27.384   4.290
12810W        W78037   6.281  12.414   4.881
12811W        W78038  35.981  43.870  14.954
12812W        W78039  32.748  43.403   1.140
12813W        W78040  42.007  40.165  14.964
12814W        W78041  31.462   2.025   4.930
12815W        W78042  43.899  25.280  11.219
12816W        W78043  26.914  39.695  11.803
12817W        W78044  17.085  36.015   1.503
12818W        W78045  38.459  28.129  10.881
12819W        W78046  20.741  13.246   0.245
12820W        W78047  17.560  37.072  11.699
12821W        W78048  19.048  21.087   4.224
12822W        W78049  38.327  18.274   4.622
12823W        W78050  23.802  14.357  12.494
12824W        W78051   3.378   7.039   1.224
12825W        W78052  19.570   5.237  11.908
12826W        W78053  37.429  25.962   2.761
12827W        W78054  36.549   7.052  12.900
12828W        W78055   8.212  37.004   0.006
12829W        W78056   7.193  23.772   0.750
12830W        W78057  39.385  32.430   4.676
12831W        W78058  31.754  12.640  12.923
12832W        W78059   6.769  25.155   2.284
12833W        W78060   2.560  40.365   3.374
12834W        W78061  40.877  29.596  11.042
12835W        W78062  37.313   8.276  12.393
12836W        W78063  24.007   4.916   4.031
12837W        W78064  23.991   8.685   1.455
12838W        W78065  42.242  28.640   1.264
12839W        W78066  19.104  10.247   0.524
12840W        W78067  40.082   6.652  11.251
12841W        W78068  14.703  38.391   4.644
12842W        W78069  28.819  15.083  14.502
12843W        W78070   8.171   9.180  12.349
12844W        W78071  14.541  17.969  11.719
12845W        W78072  24.526  13.809   3.327
12846W        W78073  10.612  17.708   2.454
12847W        W78074  44.934  31.597  11.134
12848W        W78075   0.217  28.549  13.981
12849W        W78076  26.075  36.340   2.887
12850W        W78077  15.012  29.147  12.509
12851W        W78078  17.087   4.425  12.110
12852W        W78079  28.075  36.961  11.635
12853W        W78080   5.653  40.408   3.681
12854W        W78081   8.444   9.620  13.016
12855W        W78082  32.183  18.760  10.757
12856W        W78083  31.427  22.088   3.993
12857W        W78084  44.862  32.898  10.744
12858W        W78085   9.131  29.722   1.370
12859W        W78086  30.882  40.344   2.849
12860W        W78087   3.034  26.513  12.401
12861W        W78088  13.007  29.095  13.936
12862W        W78089  21.659  25.638   1.211
12863W        W78090   7.893  33.554  12.944
12864W        W78091   4.438  23.591   1.987
12865W        W78092  14.962   3.059  13.470
12866W        W78093  32.337  31.916  10.752
12867W        W78094  42.835  21.175   1.511
12868W        W78095   5.295  32.154  11.765
12869W        W78096  34.587  30.332  12.531
12870W        W78097  18.074  41.788  11.529
12871W        W78098  39.043  18.803   5.536
12872W        W78099   0.766  19.450   2.784
12873W        W78100  21.566  27.150   4.592
12874W        W78101   1.505  34.720  11.616
12875W        W78102  12.026  36.294  12.665
12876W        W78103  10.490  14.725   4.877
12877W        W78104  30.381  14.794   1.881
12878W        W78105  39.307  26.538   5.122
12879W        W78106  21.955  34.565  11.699
12880W        W78107  17.038  26.992  12.450
12881W        W78108  33.799  24.220   0.593
12882W        W78109  28.655  23.383  11.224
12883W        W78110  24.973   6.113  14.537
12884W        W78111   3.903  31.354   4.085
12885W        W78112  29.050  28.700   2.015
12886W        W78113  28.590  16.483   3.190
12887W        W78114  19.893  12.272  10.904
12888W        W78115  25.314  40.031  10.607
12889W        W78116   9.336   1.424   0.761
12890W        W78117  23.929  35.605   4.551
12891W        W78118  13.052  26.362  14.003
12892W        W78119  30.177  26.904   2.182
12893W        W78120  17.816   8.877   0.665
12894W        W78121  27.926  27.099  13.632
12895W        W78122  41.858  16.687  12.745
12896W        W78123  30.981  41.666   0.873
12897W        W78124  30.704  29.005  11.957
12898W        W78125  42.727  41.554  10.871
12899W        W78126  19.063  34.676  11.106
12900W        W78127   3.052  12.769   3.050
12901W        W78128   2.478   2.868  11.548
12902W        W78129  34.539  18.542  12.201
12903W        W78130  42.901  28.633   1.676
12904W        W78131  37.543  24.130  14.269
12905W        W78132  19.779  38.856   4.956
12906W        W78133  42.483  36.500  10.929
12907W        W78134  12.144   2.487  11.949
12908W        W78135  37.486  14.180  13.497
12909W        W78136  18.462  18.682  10.736
12910W        W78137  32.746  40.009  10.643
12911W        W78138  37.535  23.210   2.328
12912W        W78139  27.425  19.736   1.709
12913W        W78140  30.800  33.971   4.398
12914W        W78141  22.722  20.488  13.517
12915W        W78142  15.179  19.262   3.372
12916W        W78143   5.615  32.665  11.173
12917W        W78144  29.734   3.423   9.873
12918W        W78145   5.847   3.271   2.714
12919W        W78146   7.053  37.444   0.378
12920W        W78147  25.197  12.027  10.708
12921W        W78148  24.735  37.300   4.820
12922W        W78149  39.436   0.610   3.233
12923W        W78150   0.064  22.602  11.479
12924W        W78151   9.140  18.956  12.485
12925W        W78152  42.285  37.937  11.665
12926W        W78153  13.181  30.489   2.683
12927W        W78154  34.479  24.576   4.662
12928W        W78155   7.207   8.325   1.616
12929W        W78156  43.785   4.503  12.099
12930W        W78157   7.422   7.372  13.232
12931W        W78158   5.198  34.615  14.892
12932W        W78159  38.568  11.789  10.578
12933W        W78160  37.483  32.436  11.960
12934W        W78161  27.170  12.580   3.731
12935W        W78162  35.292   1.303  11.221
12936W        W78163   2.086   6.669  12.529
12937W        W78164   2.261  35.677   2.804
12938W        W78165   5.674   6.006  10.795
12939W        W78166   4.951  38.463   1.267
12940W        W78167  18.105  10.292   1.390
12941W        W78168  20.875  40.586   5.167
12942W        W78169   1.759  13.600   3.650
12943W        W78170  17.735  40.080   4.632
12944W        W78171  37.587  21.544  13.960
12945W        W78172  35.833  19.391   2.042
12946W        W78173  26.164   0.732   3.223
12947W        W78174  40.523   9.397  13.020
12948W        W78175  37.222  16.924  11.982
12949W        W78176  43.384   1.197  13.897
12950W        W78177  30.806  25.689  10.659
12951W        W78178  39.330   0.446   0.331
12952W        W78179  30.726  12.169   0.751
12953W        W78180  29.926  19.237  10.813
12954W        W78181  14.270  26.526  12.855
12955W        W78182  19.209  34.367  13.339
12956W        W78183  38.679   4.510   0.863
12957W        W78184  11.264  25.610   1.908
12958W        W78185   1.919  20.471  12.442
12959W        W78186  33.367   0.553   1.773
12960W        W78187  33.963  28.745  11.561
12961W        W78188  34.466  32.926  13.442
12962W        W78189  16.589  20.578   4.235
12963W        W78190   6.099  24.802   2.284
12964W        W78191  20.510  16.301  11.551
12965W        W78192  18.992  20.475  11.947
12966W        W78193  26.039  31.578  11.213
12967W        W78194  32.151  29.142   0.469
12968W        W78195   4.336   8.294   0.700
12969W        W78196  35.610  23.046   2.728
12970W        W78197   5.428  34.721  10.615
12971W        W78198  32.470  19.380  11.765
12972W        W78199  16.784  33.963  12.585
12973W        W78200  30.260  42.939  12.202
12974W        W78201  14.578  11.278  10.761
12975W        W78202  39.896  37.324  14.281
12976W        W78203  20.108  13.263   4.638
12977W        W78204  25.699  34.872  11.303
12978W        W78205  18.011  11.370  12.467
12979W        W78206  12.340  24.738   0.770
12980W        W78207  28.936  26.239   5.219
12981W        W78208  19.817  11.380   3.876
12982W        W78209  19.209   4.745  11.302
12983W        W78210  35.448  13.831  14.856
12984W        W78211   8.397   4.370  14.544
12985W        W78212  24.934   5.877  11.866
12986W        W78213  26.574  32.122  11.393
12987W        W78214  14.221  14.610   4.611
12988W        W78215   8.312  44.727   4.356
12989W        W78216  33.896  10.344   4.121
12990W        W78217  35.809  11.375  12.279
12991W        W78218  44.703  15.311   1.683
12992W        W78219  16.283  27.633   0.271
12993W        W78220   7.080   6.822   2.472
12994W        W78221  17.794  19.007   4.567
12995W        W78222  20.622  37.748  14.786
12996W        W78223  28.393   3.248  14.979
12997W        W78224  33.976  27.761   5.449
12998W        W78225  22.994  41.956   1.099
12999W        W78226  23.057  23.936  12.417
13000W        W78227  28.481  24.190   0.475
13001W        W78228  30.233  26.617   1.699
13002W        W78229  22.859  30.318   0.294
13003W        W78230  32.212  29.891   3.320
13004W        W78231   6.551  28.422   0.511
13005W        W78232  18.050  17.515  11.101
13006W        W78233  38.506  29.100  14.893
13007W        W78234  37.089  29.887  12.008
13008W        W78235  30.326  12.277   2.415
13009W        W78236  10.011  14.169   2.411
13010W        W78237  43.336  37.326   1.440
13011W        W78238  13.643  19.579  14.781
13012W        W78239  13.035  44.163  12.929
13013W        W78240  44.279  24.182   2.680
13014W        W78241  28.210  14.811   0.706
13015W        W78242  13.527  35.859  10.701
13016W        W78243  27.437   5.367   1.884
13017W        W78244  34.862   3.352   2.176
13018W        W78245  19.680  24.138   3.975
13019W        W78246  42.329  39.558  14.159
13020W        W78247  20.760   7.794   3.778
13021W        W78248  39.859  30.540   3.622
13022W        W78249   5.921  42.959   1.678
13023W        W78250   5.967  29.889   3.711
13024W        W78251  11.237  42.819   4.683
13025W        W78252  27.236  14.462   0.871
13026W        W78253  17.295  35.463   1.239
13027W        W78254  43.740  25.197   1.952
13028W        W78255  43.246  11.146   2.373
13029W        W78256  39.137  13.065   0.779
13030W        W78257  44.603   6.641  12.867
13031W        W78258  28.000  27.411  11.500
13032W        W78259  23.958   7.696   2.660
13033W        W78260   9.385   8.816  13.291
13034W        W78261   6.259   5.887   1.160
13035W        W78262  13.163  24.048   2.360
13036W        W78263  21.165  42.844   0.371
13037W        W78264   8.619  39.011   2.175
13038W        W78265  42.385  26.040   2.644
13039W        W78266   7.787   3.227  10.287
13040W        W78267  26.678  17.501   1.792
13041W        W78268  39.299   8.829   2.680
13042W        W78269  23.525  25.263   0.863
13043W        W78270   7.461  21.498   3.633
13044W        W78271  35.993  26.261  12.091
13045W        W78272  16.442   5.685   3.683
13046W        W78273  12.236  43.310  11.065
13047W        W78274  17.313   6.819   3.961
13048W        W78275  29.624  44.725   0.251
13049W        W78276  20.034  11.102  10.286
13050W        W78277   2.213  16.494  13.134
13051W        W78278   2.117   6.225  13.421
13052W        W78279  29.834  27.617   0.883
13053W        W78280  14.285   2.552   1.785
13054W        W78281  43.076   3.048   3.242
13055W        W78282  21.527  11.625   2.585
13056W        W78283  31.279  37.034   0.780
13057W        W78284   5.751   6.429  14.265
13058W        W78285  25.424  22.543  12.886
13059W        W78286  43.388   2.074   3.322
13060W        W78287  13.421  12.758   0.821
13061W        W78288  28.189  26.446  14.805
13062W        W78289  32.402  20.533   4.171
13063W        W78290  11.573  17.145   3.158
13064W        W78291  37.162  38.721   1.739
13065W        W78292  12.356  25.945  13.377
13066W        W78293  17.309  38.666  11.134
13067W        W78294   2.679  31.952   4.551
13068W        W78295  25.603  16.971  10.841
13069W        W78296  32.589   9.775   4.634
13070W        W78297   0.295  44.751   2.950
13071W        W78298   1.365  34.499  11.164
13072W        W78299  10.463   6.333   0.884
13073W        W78300  17.124  38.349  12.937
13074W        W78301   9.163  26.488   1.783
13075W        W78302  14.052  10.442   2.343
13076W        W78303   6.696  42.288  13.497
13077W        W78304  32.278  15.199  12.052
13078W        W78305   1.642  38.129  13.349
13079W        W78306  35.965  29.678  13.439
13080W        W78307   3.876  44.238   3.175
13081W        W78308  17.967  22.358   3.227
13082W        W78309  11.540  25.194  12.664
13083W        W78310  14.107  23.277   1.797
13084W        W78311   4.110  18.714   1.719
13085W        W78312  23.468   7.012   0.824
13086W        W78313  16.342  43.964  10.810
13087W        W78314  33.725  20.079  12.898
13088W        W78315  43.757  23.193   1.156
13089W        W78316   2.904  41.891   4.017
13090W        W78317  36.486  35.332  11.207
13091W        W78318  25.184  12.583  14.741
13092W        W78319  20.764   9.397  11.006
13093W        W78320  18.497   6.003   5.061
13094W        W78321  34.647  22.768  11.672
13095W        W78322   6.579  21.287  11.603
13096W        W78323  12.766  34.061  14.985
13097W        W78324  38.851  15.073  10.413
13098W        W78325  39.657  12.114  13.168
13099W        W78326   6.795  37.078   3.647
13100W        W78327  43.977  16.770   3.628
13101W        W78328  42.921  34.525  12.549
13102W        W78329  21.330  22.550  11.660
13103W        W78330  29.992  27.818   2.685
13104W        W78331  43.543  26.011  14.434
13105W        W78332  19.571  28.565   3.301
13106W        W78333   1.934  43.072  12.509
13107W        W78334  10.768  27.770  13.000
13108W        W78335  24.227  11.229  13.414
13109W        W78336  18.439  23.081  14.256
13110W        W78337  32.839  31.505   1.306
13111W        W78338  33.889  15.860  12.376
13112W        W78339   5.782  10.116   2.788
13113W        W78340  32.972  31.976   0.622
13114W        W78341   0.043  44.321  13.536
13115W        W78342   3.936   8.802  12.930
13116W        W78343  28.967  33.582   3.417
13117W        W78344  36.332  27.216  13.561
13118W        W78345  23.932  13.173  11.216
13119W        W78346   6.514  23.109   2.877
13120W        W78347  42.817  15.703   4.506
13121W        W78348  39.865  32.466   2.013
13122W        W78349  42.814  42.345   2.349
13123W        W78350  21.807   4.719   1.318
13124W        W78351  24.435  41.092   4.815
13125W        W78352   7.221  31.501  14.128
13126W        W78353  13.724   8.329   0.437
13127W        W78354  31.985  37.285   3.178
13128W        W78355  36.657  25.561  14.864
13129W        W78356  44.497  24.867   3.112
13130W        W78357  42.606   7.357  14.939
13131W        W78358  14.037  41.014   2.396
13132W        W78359  28.795  19.233  12.083
13133W        W78360  15.658   1.938  13.941
13134W        W78361   3.795   8.920  10.627
13135W        W78362   3.330  16.190   0.226
13136W        W78363  23.505   7.800  12.727
13137W        W78364   2.860  26.760   3.325
13138W        W78365  18.178  13.112  10.444
13139W        W78366  26.155  35.319  13.878
13140W        W78367  42.820  33.164   3.219
13141W        W78368  40.278  25.826   2.271
13142W        W78369  10.767  44.359  11.617
13143W        W78370  38.418  26.571  14.637
13144W        W78371  39.704  12.942  13.526
13145W        W78372  44.651  24.312   3.121
13146W        W78373  37.305   4.649  12.247
13147W        W78374   9.272  34.093   4.283
13148W        W78375  25.108   0.999  13.410
13149W        W78376   3.857  30.183  13.553
13150W        W78377  25.767  14.896  13.988
13151W        W78378  29.022  41.269  10.555
13152W        W78379   8.797  23.936  10.707
13153W        W78380  40.811  26.704   2.983
13154W        W78381  32.916  38.347  12.845
13155W        W78382  19.441  24.129  10.508
13156W        W78383  16.063  25.166   4.581
13157W        W78384  21.820   2.736  12.516
13158W        W78385  21.568   1.511  12.885
13159W        W78386   9.167  41.036  10.499
13160W        W78387   4.526  30.020   1.390
13161W        W78388  20.318   8.188  11.009
13162W        W78389  38.013   8.668  13.613
13163W        W78390  29.285   3.323   0.397
13164W        W78391  39.411  15.115  11.419
13165W        W78392  26.388  36.786   1.305
13166W        W78393   5.020  41.396   2.742
13167W        W78394  23.860  28.624  14.438
13168W        W78395  24.572  12.162  11.405
13169W        W78396   1.677  12.939   1.902
13170W        W78397  23.244  33.331  12.173
13171W        W78398  29.965  34.252   2.605
13172W        W78399  32.675  32.044   3.703
13173W        W78400   3.873  10.517   2.332
13174W        W78401  10.622  38.855   2.395
13175W        W78402  26.691   0.972   2.612
13176W        W78403  43.363  29.603   1.088
13177W        W78404  16.378  37.598  12.178
13178W        W78405  25.998  39.277   1.736
13179W        W78406   9.723  42.863  10.787
13180W        W78407  16.149   1.635   3.626
13181W        W78408  27.787  26.478   2.762
13182W        W78409  11.451  41.550   4.555
13183W        W78410  17.259  31.691   1.827
13184W        W78411   6.087  38.759   0.306
13185W        W78412   5.661  32.566   3.000
13186W        W78413  15.621   4.783  13.074
13187W        W78414  34.007  22.654   3.699
13188W        W78415   6.903  37.988  12.265
13189W        W78416  20.582  43.592  14.779
13190W        W78417   8.845  29.406   2.729
13191W        W78418   9.408  20.181   1.530
13192W        W78419  17.414  10.842   3.078
13193W        W78420  20.702   6.416  13.074
13194W        W78421   3.860  22.156  10.731
13195W        W78422  41.445   0.468   1.700
13196W        W78423  43.385  23.247   0.325
13197W        W78424  29.126  32.400  11.681
13198W        W78425  44.052   5.759  11.146
13199W        W78426  18.862  23.454  11.055
13200W        W78427  19.529   2.272   1.925
13201W        W78428  37.544  10.799  12.986
13202W        W78429  39.781  33.154  14.533
13203W        W78430  19.232  35.495  13.385
13204W        W78431  26.791  44.409  13.383
13205W        W78432  31.194   2.020  12.497
13206W        W78433  15.055  12.314   1.344
13207W        W78434  24.980  19.241  11.043
13208W        W78435   6.747  33.069   4.736
13209W        W78436  12.680   2.197  12.791
13210W        W78437  34.484  27.064   2.316
13211W        W78438  44.983  44.337  10.640
13212W        W78439  25.662  25.276  13.983
13213W        W78440   3.545  31.713   1.917
13214W        W78441  42.307  29.939   1.837
13215W        W78442  27.469  13.578  11.577
13216W        W78443  32.590  29.523  12.470
13217W        W78444  29.232  16.127  11.154
13218W        W78445  19.040  10.846  14.895
13219W        W78446  20.848   8.194  11.883
13220W        W78447  14.272  35.316   1.446
13221W        W78448  43.374  33.717   4.684
13222W        W78449  11.740  19.596  14.955
13223W        W78450  39.628  41.096   2.334
13224W        W78451  29.702  17.555  12.059
13225W        W78452  19.184  24.939  14.943
13226W        W78453  29.561  22.885   1.110
13227W        W78454  40.283   5.937  12.566
13228W        W78455  21.367  27.127  11.954
13229W        W78456  21.770  14.847   2.182
13230W        W78457   0.784  23.701   1.880
13231W        W78458  43.796  21.828   1.925
13232W        W78459  44.781  22.661  11.054
13233W        W78460  41.238  17.783  12.987
13234W        W78461  39.546  19.046  14.438
13235W        W78462   9.358  22.984   2.641
13236W        W78463   0.807  44.826  13.667
13237W        W78464  10.844  32.078   0.583
13238W        W78465  30.663  42.490  14.723
13239W        W78466  23.137  21.654  13.894
13240W        W78467  23.876  30.244   0.888
13241W        W78468  30.018  36.569   3.114
13242W        W78469  38.968  41.052   4.199
13243W        W78470  12.865   5.032  12.931
13244W        W78471  35.522  18.004   1.526
13245W        W78472  10.971  44.379   0.564
13246W        W78473  14.511   0.452  13.530
13247W        W78474  17.905   0.560   4.463
13248W        W78475  29.974  20.651   4.371
13249W        W78476   2.948  32.532  10.722
13250W        W78477  26.632   9.333   0.760
13251W        W78478  31.858   0.404   1.685
13252W        W78479  26.656  17.630  11.936
13253W        W78480  28.054  21.213   2.638
13254W        W78481  29.064  27.934   4.667
13255W        W78482  16.815  39.375  13.500
13256W        W78483  41.879  41.258  11.239
13257W        W78484  22.155  38.878  13.496
13258W        W78485  21.080  35.530   4.372
13259W        W78486  42.768  22.336  14.051
13260W        W78487  17.242  39.274   1.360
13261W        W78488  26.173  34.392   1.697
13262W        W78489  27.116  13.079   1.270
13263W        W78490  44.099  41.793   0.734
13264W        W78491  43.795  32.948  13.463
13265W        W78492  43.300  38.230  12.450
13266W        W78493  10.605  19.294   0.435
13267W        W78494  31.042  22.590   0.938
13268W        W78495  30.770  14.603   0.819
13269W        W78496   4.871  42.526   3.634
13270W        W78497   0.207  44.789  14.977
13271W        W78498  18.201  16.725   4.149
13272W        W78499  25.567  14.530  11.842
13273W        W78500  34.521  24.527   3.620
13274W        W78501  10.803   5.131   1.917
13275W        W78502  30.868  32.114  13.565
13276W        W78503  20.775  13.495  12.447
13277W        W78504  36.985  19.550   3.867
13278W        W78505  19.648  44.407   2.656
13279W        W78506  21.088  39.952   0.788
13280W        W78507  31.120   1.394  14.053
13281W        W78508  24.452  27.970  12.029
13282W        W78509   4.172  22.927  13.326
13283W        W78510  37.061  32.597   2.943
13284W        W78511   6.842  42.451   2.295
13285W        W78512  36.366  40.356   3.907
13286W        W78513   6.791  35.106  12.043
13287W        W78514  17.230   7.748   1.843
13288W        W78515  42.079  11.348  10.804
13289W        W78516   4.669  29.976  14.574
13290W        W78517  13.380   9.912   2.440
13291W        W78518  36.469  28.449   2.852
13292W        W78519  24.762  33.401   0.312
13293W        W78520  15.338  33.539   2.279
13294W        W78521  14.814   3.261   1.310
13295W        W78522  17.345  20.007  13.145
13296W        W78523  44.190  28.587  13.982
13297W        W78524  16.761  14.849  14.512
13298W        W78525  39.943  39.269  13.293
13299W        W78526  37.340   6.099   3.612
13300W        W78527   6.413  21.551   0.973
13301W        W78528  33.953  43.940   2.302
13302W        W78529  26.617   1.553   5.426
13303W        W78530  21.010  41.546  11.614
13304W        W78531  33.016  34.589   3.195
13305W        W78532  30.655  19.353   2.485
13306W        W78533  43.539   6.906  11.987
13307W        W78534  20.272  10.387  12.550
13308W        W78535  37.930  40.481  14.714
13309W        W78536   3.037  39.017   0.339
13310W        W78537   8.701  13.367   4.077
13311W        W78538  20.235  38.957  12.395
13312W        W78539  16.497  32.104  13.699
13313W        W78540  37.417   3.221  12.840
13314W        W78541   4.251   0.757   1.244
13315W        W78542   4.656  43.353   2.731
13316W        W78543  36.300   4.923  10.982
13317W        W78544  23.187   9.651   0.422
13318W        W78545   3.980   1.102   5.470
13319W        W78546  40.441  13.306   4.627
13320W        W78547  24.264   1.191   0.462
13321W        W78548  30.792  10.976  12.526
13322W        W78549  32.686  32.593  12.604
13323W        W78550  38.944  38.121   2.722
13324W        W78551  18.327  39.548   0.348
13325W        W78552  26.566   5.485  11.659
13326W        W78553  42.478  27.447   3.707
13327W        W78554   5.890   6.870  11.488
13328W        W78555  35.788  42.126   1.199
13329W        W78556  37.336   8.796   3.564
13330W        W78557  15.352  16.350  10.466
13331W        W78558   5.031  33.329   3.608
13332W        W78559  29.870  36.498   0.379
13333W        W78560  35.560  22.605   3.585
13334W        W78561  30.332   6.831   2.571
13335W        W78562  16.009  28.076   4.496
13336W        W78563  23.250  27.711   3.067
13337W        W78564  34.896   5.108  13.049
13338W        W78565  13.115  29.338   3.679
13339W        W78566  32.305  35.396  10.361
13340W        W78567  21.545  31.624   3.329
13341W        W78568  33.123  27.666  12.476
13342W        W78569  36.922  44.526  10.649
13343W        W78570  19.035  36.035  10.653
13344W        W78571  24.838   2.964   4.127
13345W        W78572  22.722  16.093  13.516
13346W        W78573  34.408  12.255  10.828
13347W        W78574   9.909   6.410  14.558
13348W        W78575  35.887  11.202  10.564
13349W        W78576  13.285  18.378   1.441
13350W        W78577   0.411   2.830   0.987
13351W        W78578  10.893  26.785   2.812
13352W        W78579  33.632   7.385   2.402
13353W        W78580  30.639  33.498  11.023
13354W        W78581   9.689  27.411  13.893
13355W        W78582   8.320   7.094   2.930
13356W        W78583  37.507  43.975  14.927
13357W        W78584  11.408  18.717  14.152
13358W        W78585  34.339  32.693  10.619
13359W        W78586  41.599  33.657  13.127
13360W        W78587  16.921   2.670  11.610
13361W        W78588   7.247   6.456  13.926
13362W        W78589  41.872  20.867   4.538
13363W        W78590  39.348  40.424  10.910
13364W        W78591  39.974  36.715   1.010
13365W        W78592  34.802  42.050  13.951
13366W        W78593  21.232   6.914  11.629
13367W        W78594  44.838  31.351  10.695
13368W        W78595   2.905  25.280   2.305
13369W        W78596  22.150  34.957  11.396
13370W        W78597  14.351  11.736   1.337
13371W        W78598   9.940  16.616   0.231
13372W        W78599  28.546  21.433   4.421
13373W        W78600  24.249  24.097   0.497
13374W        W78601  39.406  10.401  10.193
13375W        W78602  17.477   7.203  11.677
13376W        W78603  24.925  11.055  13.901
13377W        W78604  10.288  13.581  12.939
13378W        W78605  36.201   3.681  13.123
13379W        W78606   7.735  22.827   2.771
13380W        W78607  43.947   8.321   0.900
13381W        W78608  33.581  28.136   1.744
13382W        W78609  43.914   5.479  14.943
13383W        W78610  44.939  43.310   1.597
13384W        W78611  18.051  20.526   1.041
13385W        W78612  18.610  38.013   1.291
13386W        W78613  30.550  39.503   2.495
13387W        W78614  16.291  18.250   4.235
13388W        W78615  11.931  15.415   3.148
13389W        W78616  36.553  16.056  11.042
13390W        W78617   2.816  14.594  12.093
13391W        W78618  36.763  33.439   1.896
13392W        W78619  34.795  38.970  14.426
13393W        W78620  37.205  25.048  10.754
13394W        W78621  34.674   9.772   2.756
13395W        W78622  37.425  26.452   4.162
13396W        W78623  24.898  22.135  11.839
13397W        W78624  23.663   0.329   2.310
13398W        W78625  12.163  33.077   2.724
13399W        W78626  34.908  36.045   0.205
13400W        W78627  22.460  42.970  12.985
13401W        W78628  44.830  15.453   4.028
13402W        W78629  39.592   9.658   2.697
13403W        W78630   7.215  21.071  14.038
13404W        W78631  19.841   8.944   5.217
13405W        W78632  23.123  11.682   3.560
13406W        W78633  44.529  33.431   3.565
13407W        W78634  19.652  27.230  14.240
13408W        W78635   2.249  30.885   3.988
13409W        W78636  33.207  34.689  11.058
13410W        W78637  13.991  11.727  11.217
13411W        W78638  19.323  18.706   4.978
13412W        W78639  15.906  28.624  13.520
13413W        W78640   2.542   0.479  12.695
13414W        W78641   0.043  24.629  14.084
13415W        W78642  12.280  11.326  13.096
13416W        W78643  44.419  17.577   0.758
13417W        W78644  44.340   6.911   3.866
13418W        W78645  24.893  30.903  12.564
13419W        W78646  43.453  17.808  10.398
13420W        W78647  15.329   5.660  12.038
13421W        W78648  15.070  43.945  10.339
13422W        W78649  44.546  31.698  12.000
13423W        W78650  41.424  11.054   0.166
13424W        W78651  13.789  31.219   1.799
13425W        W78652  39.067  22.285  13.033
13426W        W78653  15.999  44.030   1.669
13427W        W78654  25.516  14.505   0.334
13428W        W78655  36.537  28.072   4.134
13429W        W78656  21.329  19.812   5.012
13430W        W78657  23.237  10.655   4.514
13431W        W78658  12.596  29.260  11.188
13432W        W78659   2.707  15.184  14.919
13433W        W78660  31.699  42.994   5.113
13434W        W78661  15.186  22.834   1.222
13435W        W78662  23.176  30.197  12.641
13436W        W78663   7.835  35.848   3.747
13437W        W78664   1.067  14.302  13.360
13438W        W78665  32.665  18.802  13.497
13439W        W78666   2.786  20.367  13.434
13440W        W78667  15.185  11.288   0.452
13441W        W78668  41.090  21.511   2.278
13442W        W78669   3.841  12.733  12.472
13443W        W78670  28.499  20.077   0.917
13444W        W78671  34.917  28.077   3.695
13445W        W78672  29.829  40.813  11.022
13446W        W78673   2.273  25.041  14.812
13447W        W78674  25.026  37.009   0.100
13448W        W78675  42.950  40.840   0.862
13449W        W78676  31.550  27.495   2.646
13450W        W78677   6.227  40.477  14.651
13451W        W78678   0.276  37.301  14.577
13452W        W78679   0.256  30.234   2.244
13453W        W78680  14.049   8.357  14.157
13454W        W78681  30.971   9.431   4.343
13455W        W78682  21.554  37.371   3.719
13456W        W78683  19.314  14.319  14.365
13457W        W78684  14.231  25.700   0.870
13458W        W78685  36.938  43.870   3.643
13459W        W78686  39.437  42.288  12.426
13460W        W78687  25.335  22.993   1.186
13461W        W78688  20.105  25.281  12.036
13462W        W78689  37.513  33.645   0.479
13463W        W78690  21.057  24.043   0.022
13464W        W78691  27.661   4.612  12.708
13465W        W78692  30.643  29.876   0.766
13466W        W78693  35.345   3.545   2.125
13467W        W78694   5.902  36.349  10.766
13468W        W78695  19.182  22.100  14.875
13469W        W78696  21.186  40.418   4.253
13470W        W78697  19.598   3.274   2.719
13471W        W78698  29.991  35.525  13.523
13472W        W78699   5.269  35.182   0.668
13473W        W78700  23.435  21.802  11.081
13474W        W78701  29.117   7.458   2.808
13475W        W78702  26.809  24.218  13.070
13476W        W78703  25.342  44.248  14.988
13477W        W78704  38.867  44.498  12.930
13478W        W78705  33.019   1.538   0.256
13479W        W78706  36.042  33.019  13.559
13480W        W78707  44.192  44.844   2.222
13481W        W78708   7.355  16.712  12.483
13482W        W78709   3.208   7.532   1.175
13483W        W78710   3.370  19.308  12.893
13484W        W78711  28.217  31.130  13.028
13485W        W78712   7.776  29.829   2.509
13486W        W78713  29.917  41.272  11.422
13487W        W78714   7.265  42.448   2.609
13488W        W78715  15.696  27.882  12.387
13489W        W78716   5.847   2.796  13.576
13490W        W78717  13.430  18.132  11.144
13491W        W78718   4.903  20.083   4.812
13492W        W78719  12.584  20.511  13.269
13493W        W78720  14.762  31.343   4.327
13494W        W78721  25.368   4.547  12.916
13495W        W78722  44.563  11.397   2.380
13496W        W78723  17.275  29.190  12.112
13497W        W78724   3.666  19.641  12.075
13498W        W78725  12.282  25.013   2.870
13499W        W78726  16.268  37.628  13.050
13500W        W78727  25.137  34.112   2.386
13501W        W78728   9.386  32.847  13.229
13502W        W78729  32.100  28.125  13.471
13503W        W78730  12.974  42.743   4.110
13504W        W78731  23.756   5.888   0.601
13505W        W78732  41.734  23.623   1.086
13506W        W78733   7.332  22.317   4.772
13507W        W78734  15.985  32.296  14.285
13508W        W78735  11.959  18.783   1.403
13509W        W78736  39.291  31.115   3.122
13510W        W78737  14.172  18.783   4.678
13511W        W78738   8.940  39.086   1.432
13512W        W78739  15.562  28.868   4.073
13513W        W78740  23.897  33.497   3.432
13514W        W78741  32.485  36.156   1.705
13515W        W78742  28.496   1.739   1.355
13516W        W78743  20.173   7.810   3.169
13517W        W78744  25.341  16.313  11.897
13518W        W78745  12.148  16.700   4.731
13519W        W78746  43.172  12.948  10.621
13520W        W78747  33.482  17.500  14.885
13521W        W78748   9.779  37.093   3.857
13522W        W78749  26.650  40.128   0.998
13523W        W78750  31.159  30.612  11.125
13524W        W78751  36.552  13.405   2.304
13525W        W78752  39.888   0.319   4.506
13526W        W78753  40.479  18.841   5.072
13527W        W78754  19.072  14.853  13.584
13528W        W78755  44.233   1.107   4.065
13529W        W78756  26.729  15.768  12.104
13530W        W78757  15.723  23.771   1.247
13531W        W78758  41.451   0.007   1.908
13532W        W78759  19.190  26.454   3.399
13533W        W78760  44.453  27.295   3.296
13534W        W78761   1.141  11.903  10.296
13535W        W78762  36.391  22.500   1.255
13536W        W78763  35.337  32.085   2.301
13537W        W78764  19.171   7.449  11.207
13538W        W78765  28.524  32.838   0.906
13539W        W78766  41.448  34.002   2.711
13540W        W78767   9.286  30.509  11.480
13541W        W78768  22.289  10.435  11.674
13542W        W78769   8.825   5.477  13.382
13543W        W78770  19.018  20.773   3.706
13544W        W78771  13.719  43.033   2.399
13545W        W78772  33.629  30.090   4.404
13546W        W78773  17.003  25.669  11.250
13547W        W78774  41.764  29.953   3.758
13548W        W78775  38.070  42.714   4.569
13549W        W78776  21.467  43.215  14.404
13550W        W78777   6.163   9.759  14.243
13551W        W78778  34.533  21.420   1.890
13552W        W78779  20.799   0.000  10.544
13553W        W78780  32.890   0.398  11.702
13554W        W78781  31.407  38.516  12.081
13555W        W78782  24.985  15.784  14.277
13556W        W78783   4.562  19.707  11.054
13557W        W78784   1.503  44.876  11.915
13558W        W78785  10.029   8.914   3.255
13559W        W78786   0.762  39.828   0.320
13560W        W78787   9.940  30.110  12.046
13561W        W78788   1.563  10.217  12.497
13562W        W78789  37.413  36.415   1.695
13563W        W78790  25.097  31.041  13.930
13564W        W78791  35.637  15.919   2.668
13565W        W78792   0.919  24.522  14.473
13566W        W78793   2.232  22.294   4.266
13567W        W78794  15.971  36.831   0.279
13568W        W78795  38.083   1.988  13.697
13569W        W78796  32.213  32.532   1.243
13570W        W78797  24.154  28.408  14.798
13571W        W78798  14.903   5.614  11.161
13572W        W78799  42.597  41.585   2.721
13573W        W78800  16.120  38.353  12.556
13574W        W78801  10.253  10.177   1.686
13575W        W78802   4.784  32.659  10.723
13576W        W78803  13.779  35.790   4.662
13577W        W78804  22.316  29.084   3.241
13578W        W78805  40.117  20.272  12.477
13579W        W78806  44.194  36.709   4.749
13580W        W78807  18.022   8.898   2.557
13581W        W78808   2.245  17.297  14.447
13582W        W78809   9.630  26.177  14.379
13583W        W78810  21.114  43.476  12.681
13584W        W78811  19.592  32.565   0.361
13585W        W78812  42.627  40.470  11.489
13586W        W78813  37.140   3.451   0.766
13587W        W78814   1.604  42.218  14.370
13588W        W78815   8.395  37.782   2.370
13589W        W78816  37.971  19.169  12.430
13590W        W78817  15.008   6.545   0.854
13591W        W78818  22.117   3.752   2.269
13592W        W78819  35.959  37.952   0.673
13593W        W78820  33.687  23.103  11.720
13594W        W78821   4.316  23.014  14.382
13595W        W78822  22.702  29.116   2.566
13596W        W78823  34.109  35.035   0.380
13597W        W78824  24.495   0.663   2.564
13598W        W78825  20.117  11.156   2.592
13599W        W78826  44.362   2.104  14.774
13600W        W78827  42.720  38.233  13.546
13601W        W78828  25.899   7.696  14.769
13602W        W78829  16.348  39.019   4.490
13603W        W78830  19.193  32.125  14.539
13604W        W78831  27.086  24.534  12.771
13605W        W78832   2.487  30.871  10.184
13606W        W78833   2.909  19.197  14.482
13607W        W78834  29.556   2.875   0.889
13608W        W78835  13.265  41.583  13.164
13609W        W78836  43.900  21.431   0.212
13610W        W78837  27.374   5.923   0.322
13611W        W78838  11.631  37.422   1.217
13612W        W78839   1.615  19.089   2.781
13613W        W78840  31.076  16.190   1.435
13614W        W78841   2.696  25.027  13.269
13615W        W78842  27.724  31.878  10.765
13616W        W78843  16.533   5.835   0.801
13617W        W78844  11.631  15.758   0.783
13618W        W78845   8.721  24.811  14.236
13619W        W78846  31.863  18.368   5.006
13620W        W78847  15.910  34.200  12.012
13621W        W78848  41.791  41.017  13.509
13622W        W78849  14.888  44.186   1.336
13623W        W78850   1.075  31.895   3.753
13624W        W78851   8.387  11.235   0.261
13625W        W78852  25.641   9.429  11.540
13626W        W78853  34.180  17.585   4.354
13627W        W78854  10.418  33.023   3.554
13628W        W78855  40.495  35.517   4.012
13629W        W78856  10.128  26.068   3.266
13630W        W78857  27.159  28.359  12.178
13631W        W78858   9.896  39.023   1.856
13632W        W78859  36.381  24.325  11.616
13633W        W78860  33.198   5.293  14.750
13634W        W78861  19.015   2.941   3.309
13635W        W78862  43.879  10.065  12.966
13636W        W78863  17.055  17.788   4.152
13637W        W78864  37.577  33.456   4.595
13638W        W78865  16.459  15.289  10.772
13639W        W78866   8.842  42.053   4.564
13640W        W78867  17.070   9.063  14.481
13641W        W78868   8.208  17.015  11.568
13642W        W78869  44.089  43.510  12.658
13643W        W78870  28.428  26.641  10.990
13644W        W78871   5.808  44.331   0.310
13645W        W78872   5.155   1.076  12.845
13646W        W78873   2.152  26.005  13.945
13647W        W78874  40.803  42.909   1.904
13648W        W78875  36.088  42.930  12.589
13649W        W78876   9.842  41.038  12.880
13650W        W78877  44.351  32.217   4.194
13651W        W78878   8.203  35.223  14.350
13652W        W78879  17.910  28.071   1.359
13653W        W78880  27.636   8.228   1.417
13654W        W78881  21.303   5.361   0.238
13655W        W78882  35.212  27.463  13.567
13656W        W78883  18.221  20.008  11.119
13657W        W78884  16.541  12.390  14.449
13658W        W78885  28.700  31.898  12.457
13659W        W78886  14.780  26.330   0.586
13660W        W78887  33.812  21.518  14.012
13661W        W78888  25.270  12.295  11.216
13662W        W78889  34.776  33.929   0.271
13663W        W78890  32.842  29.195   4.536
13664W        W78891  42.179  31.447   2.746
13665W        W78892  13.027  32.997  13.387
13666W        W78893  40.549  29.497  12.947
13667W        W78894   2.399  34.748  10.759
13668W        W78895  38.269  11.073   4.647
13669W        W78896   6.554   3.860  11.279
13670W        W78897  25.198   3.357  11.644
13671W        W78898  42.014  17.554   1.273
13672W        W78899  34.163  19.999  14.913
13673W        W78900   0.618   0.370  11.553
13674W        W78901  10.692  19.187   3.182
13675W        W78902   9.536  42.157  12.078
13676W        W78903   8.119   4.985   2.839
13677W        W78904  41.836  24.450  12.464
13678W        W78905  10.929  30.139   0.688
13679W        W78906  34.061  26.143  13.347
13680W        W78907  26.701  32.617  12.054
13681W        W78908  16.290   2.531  11.639
13682W        W78909  38.348  43.455   4.816
13683W        W78910  27.951  42.247  11.651
13684W        W78911  43.827  42.860  13.964
13685W        W78912   2.284   3.265   2.409
13686W        W78913   4.618  39.962  12.672
13687W        W78914  15.787  23.247   3.192
13688W        W78915  35.385  24.193   3.739
13689W        W78916   1.733  22.417   3.225
13690W        W78917   0.947  41.707  11.819
13691W        W78918  23.830  34.584  13.219
13692W        W78919   8.644  23.578  11.029
13693W        W78920  12.446   2.210   0.658
13694W        W78921  25.752  44.476   1.915
13695W        W78922  42.554  26.632  11.602
13696W        W78923  41.824  43.836  12.373
13697W        W78924  35.065  36.964   0.640
13698W        W78925  11.856  14.076  13.846
13699W        W78926  10.076  14.325  13.431
13700W        W78927  14.273  39.071   4.778
13701W        W78928  23.471  17.261   0.472
13702W        W78929  16.164  12.586   3.884
13703W        W78930   8.152  18.625  11.388
13704W        W78931  11.811  41.133  13.933
13705W        W78932  23.962  33.017  11.287
13706W        W78933  13.459  32.147   1.947
13707W        W78934  41.286  36.318   1.138
13708W        W78935  38.258  37.802  14.914
13709W        W78936  22.767  43.233  14.811
13710W        W78937  26.170  24.928   1.288
13711W        W78938   3.293  20.420   2.001
13712W        W78939  38.986  32.112  12.557
13713W        W78940   0.281  31.100  11.504
13714W        W78941  43.168  18.549   2.968
13715W        W78942   0.903  13.536  12.437
13716W        W78943   5.603  20.195   1.484
13717W        W78944  31.874  14.858  12.208
13718W        W78945  22.923  13.216   2.297
13719W        W78946  21.064   8.155   4.158
13720W        W78947   8.605  26.221  14.332
13721W        W78948  37.642  42.305  11.438
13722W        W78949  22.114   8.783  11.738
13723W        W78950  39.945  37.318   3.319
13724W        W78951   1.924   3.770   1.909
13725W        W78952  21.582  25.407  12.960
13726W        W78953  38.656   1.026  10.741
13727W        W78954  23.167  15.100  10.935
13728W        W78955  20.296   3.418  13.980
13729W        W78956   8.408   9.242   3.674
13730W        W78957  25.000  36.628   4.301
13731W        W78958  35.876  32.658   0.858
13732W        W78959   8.279  11.771  12.178
13733W        W78960  10.258  15.060  12.811
13734W        W78961  19.607  31.139  12.380
13735W        W78962  14.020  28.044  14.908
13736W        W78963  42.839  14.070  12.914
13737W        W78964  40.320  12.514   0.262
13738W        W78965  29.939  42.619  14.029
13739W        W78966   5.223   9.693   0.888
13740W        W78967   8.432  40.092   0.321
13741W        W78968  41.454  43.893   4.497
13742W        W78969  15.480  40.037   4.131
13743W        W78970   2.415  29.690  13.836
13744W        W78971   7.631  30.507   3.269
13745W        W78972  30.934   6.640   1.915
13746W        W78973   5.396  33.997  10.647
13747W        W78974  16.909   0.923  11.641
13748W        W78975  22.130  12.906  13.468
13749W        W78976   3.766  22.720  10.578
13750W        W78977   8.217   8.130  14.836
13751W        W78978  32.757  10.667   4.433
13752W        W78979  16.292  22.247  10.455
13753W        W78980  30.406  27.843   3.085
13754W        W78981   9.845  16.532   2.151
13755W        W78982  26.631  38.488  13.187
13756W        W78983  20.328  14.141   1.245
13757W        W78984  23.517  26.510   0.323
13758W        W78985  21.605   8.854  11.071
13759W        W78986  24.615  21.719   4.121
13760W        W78987  34.989  13.556   1.117
13761W        W78988  16.573  40.060   2.965
13762W        W78989  29.400  44.022  14.750
13763W        W78990   6.518  20.444  13.796
13764W        W78991   2.960  11.387   4.729
13765W        W78992   4.818  29.175   2.521
13766W        W78993  38.118  30.026   1.955
13767W        W78994  33.950   9.211  13.068
13768W        W78995  10.837  40.800  12.888
13769W        W78996  27.700   1.290   0.454
13770W        W78997   2.023  28.770   4.826
13771W        W78998  36.320  13.347   3.303
13772W        W78999  25.913  28.492   1.835
13773W        W79000   6.489  17.202  13.521
13774W        W79001  41.410  35.433   3.606
13775W        W79002  38.946   2.975  14.862
13776W        W79003  24.078  33.938   2.197
13777W        W79004  25.796   8.660   2.838
13778W        W79005  44.838   4.873   3.636
13779W        W79006  14.229  31.669  13.444
13780W        W79007  29.552  25.511   4.129
13781W        W79008  38.540  21.461  14.203
13782W        W79009  31.148  14.010  10.450
13783W        W79010  25.976  36.906  12.165
13784W        W79011  30.875  26.180  10.215
13785W        W79012  43.791  21.524  12.403
13786W        W79013  33.622  12.535  13.018
13787W        W79014  41.094  15.826  10.132
13788W        W79015  12.164  44.784  13.600
13789W        W79016  31.973  39.649  14.864
13790W        W79017  17.245  17.043   3.739
13791W        W79018  40.576  31.076   3.615
13792W        W79019   9.444   5.294   4.356
13793W        W79020   9.096  37.208  12.068
13794W        W79021   8.307  25.683   2.779
13795W        W79022  35.424  24.453   0.425
13796W        W79023  13.645  31.921   0.704
13797W        W79024  40.455   3.844   4.008
13798W        W79025  37.479  34.661  11.269
13799W        W79026  11.740   9.088  12.113
13800W        W79027   8.160  42.429  10.854
13801W        W79028  11.651  10.187  14.862
13802W        W79029  23.736   6.397   4.139
13803W        W79030  18.771  31.896   2.426
13804W        W79031   8.814  24.712   1.876
13805W        W79032  10.898  28.051  11.680
13806W        W79033  30.870  17.137  14.357
13807W        W79034  25.134  44.908   2.895
13808W        W79035   5.920   8.734   1.925
13809W        W79036  28.612  33.683   1.259
13810W        W79037  33.681  30.513  11.225
13811W        W79038  43.810  15.619   1.626
13812W        W79039  11.706  43.539  12.572
13813W        W79040  21.106  19.956  14.944
13814W        W79041  36.468  11.615  13.871
13815W        W79042  40.384   2.422   2.175
13816W        W79043   1.812   2.492   4.083
13817W        W79044  10.891   2.444  13.480
13818W        W79045  27.200  28.608   2.527
13819W        W79046  30.563  10.206   3.223
13820W        W79047   7.741  12.850   0.954
13821W        W79048   8.632  10.688  12.636
13822W        W79049   3.872  39.367   4.559
13823W        W79050   1.193  15.759   4.732
13824W        W79051  41.846  17.903  12.567
13825W        W79052   2.013  30.974  10.926
13826W        W79053  44.932  10.699   3.216
13827W        W79054   0.549  26.433   3.437
13828W        W79055  10.261  21.290   3.369
13829W        W79056  16.613  32.618   0.314
13830W        W79057  22.184  34.574   1.113
13831W        W79058  37.893  13.773   2.255
13832W        W79059   5.300  20.890  13.125
13833W        W79060  28.592  19.500  14.267
13834W        W79061  22.582  14.298  11.161
13835W        W79062  30.665  14.326  14.304
13836W        W79063  15.385  24.975  14.228
13837W        W79064   0.784  36.643   3.244
13838W        W79065   5.448  34.954  11.654
13839W        W79066   1.511  31.417   3.139
13840W        W79067  43.481  14.791  13.813
13841W        W79068  28.942  22.095  11.278
13842W        W79069  10.480  26.489  11.189
13843W        W79070  19.051   2.517  11.152
13844W        W79071  14.627  13.399  10.829
13845W        W79072  13.700  26.168   0.533
13846W        W79073  32.964  38.047   0.793
13847W        W79074   2.363  39.244  13.085
13848W        W79075  35.480  29.464  13.392
13849W        W79076  31.926   4.867  10.220
13850W        W79077  17.366  41.891  11.986
13851W        W79078  40.939  41.875   2.314
13852W        W79079  22.691  28.484  12.124
13853W        W79080  24.041  23.066  13.267
13854W        W79081  11.225  36.112  12.222
13855W        W79082  20.211  23.090   3.334
13856W        W79083  13.443  39.404  11.529
13857W        W79084  36.801  20.635   3.259
13858W        W79085  30.569  36.054  12.931
13859W        W79086  13.350   3.398  11.258
13860W        W79087   4.941  44.732   4.652
13861W        W79088  16.214  43.449   0.801
13862W        W79089  27.516  37.908   2.444
13863W        W79090  27.910   0.804   4.089
13864W        W79091  22.622  21.170  14.745
13865W        W79092  44.477  34.930  12.536
13866W        W79093  37.475  28.899   2.428
13867W        W79094  22.036  30.889  14.893
13868W        W79095  42.738   0.770   0.327
13869W        W79096  23.959   7.709  11.587
13870W        W79097  43.655  28.283   4.342
13871W        W79098  39.526  18.555   2.424
13872W        W79099  41.140  17.098  12.566
13873W        W79100  34.169   9.325  13.523
13874W        W79101  14.996  33.906  13.601
13875W        W79102  10.163  12.216  11.566
13876W        W79103  20.630  32.939  12.104
13877W        W79104   1.978  41.611   1.595
13878W        W79105  35.561  10.913   3.000
13879W        W79106   9.464  21.470   1.219
13880W        W79107   2.572  36.941   2.973
13881W        W79108  29.473  34.475   2.400
13882W        W79109  31.419  36.830   3.505
13883W        W79110  11.262  43.603  11.576
13884W        W79111  34.425  28.469  10.061
13885W        W79112  34.008  19.809  12.547
13886W        W79113  32.379  37.338  12.127
13887W        W79114   6.522  34.175   0.494
13888W        W79115  11.904  29.646   4.583
13889W        W79116  24.815  22.166   2.339
13890W        W79117   9.692  24.931   1.634
13891W        W79118  19.390  34.643   4.110
13892W        W79119  24.292  32.846  11.723
13893W        W79120   1.036  10.635   1.968
13894W        W79121  20.123   2.484   4.035
13895W        W79122  30.673   3.987  11.045
13896W        W79123  25.383  22.543  11.898
13897W        W79124  19.914  41.344  13.693
13898W        W79125  26.488  20.533  13.935
13899W        W79126   7.856   8.156   4.048
13900W        W79127  31.877  37.390  14.359
13901W        W79128   8.547  19.017  12.050
13902W        W79129  12.222  27.505  14.520
13903W        W79130  35.436  20.807  12.554
13904W        W79131  44.372  16.500   3.795
13905W        W79132   6.895  16.829   4.712
13906W        W79133  11.973  18.186   4.708
13907W        W79134  42.355  10.571   2.292
13908W        W79135  14.516  17.197   4.420
13909W        W79136  34.385   8.171   0.894
13910W        W79137  10.809  11.544   2.153
13911W        W79138  42.809   7.392   2.543
13912W        W79139   7.381   0.460   3.127
13913W        W79140  23.040  30.514  14.302
13914W        W79141  21.590   0.901   2.194
13915W        W79142  33.191  36.757  12.553
13916W        W79143  35.157   4.256   2.659
13917W        W79144   5.468  19.246   2.651
13918W        W79145  35.097  31.486  11.550
13919W        W79146   3.706  34.948   0.720
13920W        W79147   9.447  31.211   1.410
13921W        W79148  24.184   4.781   2.718
13922W        W79149  27.961   4.466   1.729
13923W        W79150  30.399  33.770   0.662
13924W        W79151   2.575  39.230   0.431
13925W        W79152  22.061  26.719  11.614
13926W        W79153  40.500  28.055   2.855
13927W        W79154  22.446  30.523   1.647
13928W        W79155  34.645   5.352  14.453
13929W        W79156  12.652  10.746  10.371
13930W        W79157  15.128  31.735  11.378
13931W        W79158   1.342  12.394   9.676
13932W        W79159  40.950   7.277   2.681
13933W        W79160  22.495  32.726  13.626
13934W        W79161  34.980  12.907   2.175
13935W        W79162   0.707   9.842  11.193
13936W        W79163  18.171  32.616   3.880
13937W        W79164  31.685   9.152  13.454
13938W        W79165  38.873  41.723  11.323
13939W        W79166   3.750   5.374   4.483
13940W        W79167  24.698  23.034  13.070
13941W        W79168  40.571  30.647   4.624
13942W        W79169  14.860   6.202   3.294
13943W        W79170   9.374   6.238   3.302
13944W        W79171  21.292  40.238  13.828
13945W        W79172   5.601  13.429  14.560
13946W        W79173  19.722  13.165   4.305
13947W        W79174  28.884   8.412   3.692
13948W        W79175  36.425  18.361   1.260
13949W        W79176  30.000  41.041  13.341
13950W        W79177   3.888   5.336  10.630
13951W        W79178  41.558   6.449  14.845
13952W        W79179  18.579  13.482  14.314
13953W        W79180   2.800  15.674  14.991
13954W        W79181   1.266   8.960   1.190
13955W        W79182  22.420  13.793  13.470
13956W        W79183  37.133   8.315   4.290
13957W        W79184  30.674  21.261   0.871
13958W        W79185  17.528   3.658   0.262
13959W        W79186  16.618  33.134   0.238
13960W        W79187   6.461  23.377   1.916
13961W        W79188   8.830  43.678  12.400
13962W        W79189  23.488  27.845  10.945
13963W        W79190  27.958   5.330   2.001
13964W        W79191   3.039   7.602  11.635
13965W        W79192  11.163  23.530   0.890
13966W        W79193  28.285  19.359  12.031
13967W        W79194   5.447  28.163   1.227
13968W        W79195   2.468  17.893  11.460
13969W        W79196  37.411  33.859  14.985
13970W        W79197   7.886   4.282  11.177
13971W        W79198   9.809  40.798  13.342
13972W        W79199   7.150   8.561  11.051
13973W        W79200  20.095  39.538   3.966
13974W        W79201  20.183  41.998   3.319
13975W        W79202  30.183  30.363  12.015
13976W        W79203  23.213  34.426   4.207
13977W        W79204   6.142   5.152  11.754
13978W        W79205  20.906  26.962   0.998
13979W        W79206  10.313  20.065   1.026
13980W        W79207  33.950  31.424   3.195
13981W        W79208  32.783  12.448   5.436
13982W        W79209   7.378   1.931  14.710
13983W        W79210  23.048  35.430  11.888
13984W        W79211   0.209  42.967   3.909
13985W        W79212  22.988   7.912  12.958
13986W        W79213  43.964  29.022  13.145
13987W        W79214  17.686  27.616   1.508
13988W        W79215  23.853  16.324   0.877
13989W        W79216  28.096  44.175   0.777
13990W        W79217  18.130   8.122  14.764
13991W        W79218  28.854  14.770   3.665
13992W        W79219  13.683  12.276  13.080
13993W        W79220  38.090   5.271   9.850
13994W        W79221  13.810   5.543   2.269
13995W        W79222  13.313  21.861   0.760
13996W        W79223  26.464  35.299   1.720
13997W        W79224  39.373  43.775   2.226
13998W        W79225  33.601  28.148  11.051
13999W        W79226  18.053  18.036   2.463
14000W        W79227  28.848   9.280   0.486
14001W        W79228  27.717  39.879   1.713
14002W        W79229   8.960  21.784  11.906
14003W        W79230   8.761  30.158  14.410
14004W        W79231   7.306   1.737   1.724
14005W        W79232   0.106  11.477  11.113
14006W        W79233   7.279   0.403  14.601
14007W        W79234  33.160   3.828  12.946
14008W        W79235  24.720  21.442   1.792
14009W        W79236  41.409   4.597   0.983
14010W        W79237  20.111  42.838   2.987
14011W        W79238  44.519  12.765  12.987
14012W        W79239  44.503  24.966  11.929
14013W        W79240  36.043  29.140  11.132
14014W        W79241  38.451  42.827   0.557
14015W        W79242  11.655   3.393   0.437
14016W        W79243  24.524  43.327   2.658
14017W        W79244  25.013   1.196  13.919
14018W        W79245  17.279  36.283   3.335
14019W        W79246  12.205  40.921   0.653
14020W        W79247  35.844   7.354   2.669
14021W        W79248  33.642   8.851   4.521
14022W        W79249  33.112  39.007   1.924
14023W        W79250   3.557  23.788   3.637
14024W        W79251  10.137  37.258  13.303
14025W        W79252   8.089   3.012  12.904
14026W        W79253  25.956   5.364   2.325
14027W        W79254  27.106  44.016  14.365
14028W        W79255  13.213  18.775  14.142
14029W        W79256  38.311  16.757   4.649
14030W        W79257  24.583  35.956  12.063
14031W        W79258  16.222  12.149  10.375
14032W        W79259  39.399  11.621  10.970
14033W        W79260  38.507   3.176   5.013
14034W        W79261  16.177  27.628  12.453
14035W        W79262  17.659  12.209   3.842
14036W        W79263  39.110  20.084  12.632
14037W        W79264  31.652   3.145   1.467
14038W        W79265  39.436  39.775   5.035
14039W        W79266   1.446   9.325   0.217
14040W        W79267   6.159  19.008   3.086
14041W        W79268  34.127  27.032   3.539
14042W        W79269  20.621  10.977   0.806
14043W        W79270  41.882  44.206   4.643
14044W        W79271  19.303  42.278   0.692
14045W        W79272  14.586  36.379  14.872
14046W        W79273  32.323   7.793   0.909
14047W        W79274   6.849   3.771  12.152
14048W        W79275  24.047  14.865   2.636
14049W        W79276  16.797  26.440  10.626
14050W        W79277  24.300  43.699   4.669
14051W        W79278  17.227  27.738   4.224
14052W        W79279  13.737  35.355   2.658
14053W        W79280  40.034  10.274  13.120
14054W        W79281  11.768  29.400   1.528
14055W        W79282  26.681  23.171   1.681
14056W        W79283  15.728  34.148  14.767
14057W        W79284  28.161   5.588  10.736
14058W        W79285  33.220  28.441   4.102
14059W        W79286  43.451  39.142   3.342
14060W        W79287  23.046   4.529   4.338
14061W        W79288  14.968  25.951   3.340
14062W        W79289  29.648  30.378  10.716
14063W        W79290  15.909  17.109  14.921
14064W        W79291  22.803  10.127   1.594
14065W        W79292  30.341  35.011  11.687
14066W        W79293  18.562   3.466   4.139
14067W        W79294  40.320   7.563   1.947
14068W        W79295  29.050  42.820   0.872
14069W        W79296   8.158  21.143  10.798
14070W        W79297  37.848   8.219   0.351
14071W        W79298   5.373  13.905   1.747
14072W        W79299  41.569  30.436  11.907
14073W        W79300  32.984   0.209   3.751
14074W        W79301  17.116   4.478  13.937
14075W        W79302  32.383   7.110  13.550
14076W        W79303   8.277  42.006  14.834
14077W        W79304  31.368  20.007   1.399
14078W        W79305  32.313  19.010  14.016
14079W        W79306  10.619   1.243   2.908
14080W        W79307   4.804  22.565   0.381
14081W        W79308  23.030  39.813  14.824
14082W        W79309  20.377  44.862   3.475
14083W        W79310  13.599  15.768  11.574
14084W        W79311  24.141  33.727  12.024
14085W        W79312  27.476  44.885   5.595
14086W        W79313  20.165  26.512  10.609
14087W        W79314  31.081  27.556  13.842
14088W        W79315  15.863   4.459   1.343
14089W        W79316   1.062   5.379  14.309
14090W        W79317  40.536  38.541  13.957
14091W        W79318  17.223   1.660  13.047
14092W        W79319   5.721  36.373   2.344
14093W        W79320   2.193  12.284   2.198
14094W        W79321   3.701   7.711   3.110
14095W        W79322  11.607   2.006   5.217
14096W        W79323   1.763  37.302   5.068
14097W        W79324  12.584  21.722   1.955
14098W        W79325  41.679   2.483   0.828
14099W        W79326  13.658  27.043  10.974
14100W        W79327  30.854  10.458  12.405
14101W        W79328  13.263  20.142   0.367
14102W        W79329   1.764  10.223   3.260
14103W        W79330  41.013  35.038   2.736
14104W        W79331   3.733  37.821   4.697
14105W        W79332  17.822  31.143  12.602
14106W        W79333  14.803   8.451   0.909
14107W        W79334  19.641  35.094  14.304
14108W        W79335  11.890   7.355  10.028
14109W        W79336  24.179  21.640  10.381
14110W        W79337  39.495  26.066   5.059
14111W        W79338  15.432  34.042  11.950
14112W        W79339   8.532  15.935  10.086
14113W        W79340  35.895  36.397   2.224
14114W        W79341   1.657  31.459  13.080
14115W        W79342  31.971  30.558  12.930
14116W        W79343  16.749  33.505   2.814
14117W        W79344  38.893  44.271  11.611
14118W        W79345  21.057  24.845  12.361
14119W        W79346  20.305  32.564  14.975
14120W        W79347  30.580  39.989  12.677
14121W        W79348  28.453  37.454  10.970
14122W        W79349  10.901  29.104  13.057
14123W        W79350   5.282  15.837  13.831
14124W        W79351  33.492   6.645   1.783
14125W        W79352  41.285  11.792   0.006
14126W        W79353  39.928  38.521   2.774
14127W        W79354   3.900  38.621  13.002
14128W        W79355   0.535  41.864  11.542
14129W        W79356  36.168   0.225  11.231
14130W        W79357  30.136  18.761  10.940
14131W        W79358  10.673  34.470   1.431
14132W        W79359  27.216  41.889   2.277
14133W        W79360  40.563   8.107  13.549
14134W        W79361   5.143  30.406  14.873
14135W        W79362  13.678  11.349  14.499
14136W        W79363   2.205  17.088   2.293
14137W        W79364  34.347   0.714  11.705
14138W        W79365  16.445  24.060   1.273
14139W        W79366  24.157   4.350   1.630
14140W        W79367  33.112  29.486   0.761
14141W        W79368  13.155  40.327  13.435
14142W        W79369   2.829  21.194   4.515
14143W        W79370   6.739  29.185   2.631
14144W        W79371  31.047  26.447   4.104
14145W        W79372  38.012   7.134  12.904
14146W        W79373  34.564   6.971  12.012
14147W        W79374  16.358  37.285  13.907
14148W        W79375  24.700  17.439  10.832
14149W        W79376  40.822  12.640   3.730
14150W        W79377   4.909  13.822   2.383
14151W        W79378  40.389  14.000  12.845
14152W        W79379  10.271  14.851   4.050
14153W        W79380  17.733   6.775   2.311
14154W        W79381  40.195  35.830   1.786
14155W        W79382  22.998  39.930  13.855
14156W        W79383  40.059  27.809   2.686
14157W        W79384   0.124  23.492  11.825
14158W        W79385  18.805  10.244   4.957
14159W        W79386  15.723  34.156   1.257
14160W        W79387  40.848  29.714   2.625
14161W        W79388  40.501  31.669  13.646
14162W        W79389  14.832  23.151   3.122
14163W        W79390  17.729   6.813   3.195
14164W        W79391  26.440  25.527   3.920
14165W        W79392   8.004  29.617   3.821
14166W        W79393  32.880  23.107  13.876
14167W        W79394  36.593  18.702   4.820
14168W        W79395  24.845  37.924  10.741
14169W        W79396  42.045  25.206  14.806
14170W        W79397  25.138   9.890  11.898
14171W        W79398  35.093  23.136  13.202
14172W        W79399  29.581  32.152  13.307
14173W        W79400  38.813  14.362  14.007
14174W        W79401  38.271   3.471   2.195
14175W        W79402  16.011  29.580   2.830
14176W        W79403  24.743  43.582  11.477
14177W        W79404  40.985  36.666   2.434
14178W        W79405  37.876  17.625   1.270
14179W        W79406  32.125  20.482   1.304
14180W        W79407  28.941  12.240   2.862
14181W        W79408  22.712  12.848  10.823
14182W        W79409  41.848  29.240   2.209
14183W        W79410   9.607  18.161   4.299
14184W        W79411  39.499   3.211  11.194
14185W        W79412  24.055  29.458   3.783
14186W        W79413  25.702  26.801  12.932
14187W        W79414  29.454   7.351  10.752
14188W        W79415   6.138  37.012  14.804
14189W        W79416  11.891  23.253   4.245
14190W        W79417  16.201  32.193   2.479
14191W        W79418  18.115  31.420  13.806
14192W        W79419  30.617  44.214  13.152
14193W        W79420  18.091  28.065   4.423
14194W        W79421  19.054   5.940   3.725
14195W        W79422  44.441  37.578   0.919
14196W        W79423  35.635  41.552   1.233
14197W        W79424  21.413  32.764   2.694
14198W        W79425  31.782  44.895  10.654
14199W        W79426  28.675  32.630   1.373
14200W        W79427  12.057  13.601  13.965
14201W        W79428  14.280  24.010  13.268
14202W        W79429  14.589  32.724   1.100
14203W        W79430  28.624  13.271  13.995
14204W        W79431  24.156  10.351   3.249
14205W        W79432  40.438  10.817   1.977
14206W        W79433  12.124  42.885   4.921
14207W        W79434  34.973  32.439   3.575
14208W        W79435  28.663   5.699  14.811
14209W        W79436  31.003   0.797  11.119
14210W        W79437  19.078  39.377  13.543
14211W        W79438  43.697  42.606   4.707
14212W        W79439   1.838  25.471  11.125
14213W        W79440  17.268  16.891  11.192
14214W        W79441  17.209   9.181   3.189
14215W        W79442   8.401  27.238  13.550
14216W        W79443  19.197   7.102   1.985
14217W        W79444   4.755  28.649  11.718
14218W        W79445  12.182  31.081   5.065
14219W        W79446  15.702  11.429  10.701
14220W        W79447  10.077  17.162   3.217
14221W        W79448  29.164  24.525   0.776
14222W        W79449  22.948  24.319  14.732
14223W        W79450  23.305  17.309  14.495
14224W        W79451  34.108  26.937   1.691
14225W        W79452  33.062  26.063  14.814
14226W        W79453  17.336   0.508  13.427
14227W        W79454  36.999  14.843  13.642
14228W        W79455  24.144  32.543  13.007
14229W        W79456  24.466  11.720  11.157
14230W        W79457   9.341  35.161  13.099
14231W        W79458  16.535  37.590   4.064
14232W        W79459  28.346  27.788  11.608
14233W        W79460  32.950  35.981   1.989
14234W        W79461  40.248   2.639   0.850
14235W        W79462   9.800   7.856   4.827
14236W        W79463  41.318  23.087   1.637
14237W        W79464  25.719  20.730   4.407
14238W        W79465  20.991  23.303   2.690
14239W        W79466   8.790   2.321  10.351
14240W        W79467  26.984   1.795   2.831
14241W        W79468   2.266  25.524  11.622
14242W        W79469  20.651  10.395  14.793
14243W        W79470  10.337  18.449   1.263
14244W        W79471  17.583  34.908  10.606
14245W        W79472  26.096  23.054  14.949
14246W        W79473  22.735  25.919   3.623
14247W        W79474  29.341  42.402   4.601
14248W        W79475  12.942  11.093   1.466
14249W        W79476   2.310   8.822  10.217
14250W        W79477  29.947  31.020  12.857
14251W        W79478  43.416  43.298   3.060
14252W        W79479   5.236  13.753  14.369
14253W        W79480   4.897  13.154  12.179
14254W        W79481  41.044  10.241   4.353
14255W        W79482  26.694  34.371   1.686
14256W        W79483  20.495  27.662  11.133
14257W        W79484  41.942   2.761  10.737
14258W        W79485  20.995  32.501  12.037
14259W        W79486   6.712   0.326   1.873
14260W        W79487  30.225  19.139   2.815
14261W        W79488   2.454  21.964  11.524
14262W        W79489  38.891   9.701  14.496
14263W        W79490   8.142  23.190  13.527
14264W        W79491  32.247  31.009  13.545
14265W        W79492  40.601  21.748   2.222
14266W        W79493  27.805  29.864   1.230
14267W        W79494   0.898  23.427   0.289
14268W        W79495  43.986  19.718   2.270
14269W        W79496  19.090  20.657  11.030
14270W        W79497  28.592  11.215  13.617
14271W        W79498  13.637   6.907   2.465
14272W        W79499   7.181  33.173   1.797
14273W        W79500  14.309  23.640   2.780
14274W        W79501   1.199  28.887   3.160
14275W        W79502  11.408  12.917   4.009
14276W        W79503  10.237   9.207   3.687
14277W        W79504  18.168   8.571  11.765
14278W        W79505  10.464  28.011  11.416
14279W        W79506  44.882  17.965  10.167
14280W        W79507  14.226  11.519  13.646
14281W        W79508   5.808  23.160  13.768
14282W        W79509  30.046  37.432  12.870
14283W        W79510   4.956  26.566  12.668
14284W        W79511  12.054  33.871   1.796
14285W        W79512  43.020  39.769  13.968
14286W        W79513  28.729  43.222   4.674
14287W        W79514  12.259  43.815   2.316
14288W        W79515  30.127  10.489   3.234
14289W        W79516  40.949   3.912   1.647
14290W        W79517  35.674   6.338   1.474
14291W        W79518   6.957  40.083   3.231
14292W        W79519   1.878  23.255   0.384
14293W        W79520  16.839  27.462  12.538
14294W        W79521  10.862   1.710  11.514
14295W        W79522  33.997  25.454  12.968
14296W        W79523  11.198  31.595  12.142
14297W        W79524   7.612   1.290  13.095
14298W        W79525  12.307   8.350   2.428
14299W        W79526  11.159  15.258  14.241
14300W        W79527   2.264  20.572  14.878
14301W        W79528  21.637  42.990  11.744
14302W        W79529  12.254  24.454  11.819
14303W        W79530  16.637  31.547  11.038
14304W        W79531  29.709  13.748   2.200
14305W        W79532  34.512  22.255  12.407
14306W        W79533   4.516  36.994  13.890
14307W        W79534   3.158  38.527   0.514
14308W        W79535  22.974  38.389  13.568
14309W        W79536   9.577  23.716   4.989
14310W        W79537  25.947  12.591  14.463
14311W        W79538  19.106  38.921   0.269
14312W        W79539   7.374   0.291  12.905
14313W        W79540  13.366  28.530  12.984
14314W        W79541  25.970  26.935  14.545
14315W        W79542  16.949  19.761  13.381
14316W        W79543  16.662  20.316   1.698
14317W        W79544  37.481  27.602   2.871
14318W        W79545  31.960  32.102   1.313
14319W        W79546  36.906  26.005  12.026
14320W        W79547   7.749  27.465  11.517
14321W        W79548  33.873  38.829   4.185
14322W        W79549  43.278  41.781   4.164
14323W        W79550  27.022  26.612  14.413
14324W        W79551  38.372   1.318  12.425
14325W        W79552  24.707  22.947   0.358
14326W        W79553   2.832  43.386  13.768
14327W        W79554   7.433   4.122   4.215
14328W        W79555  33.902  12.184   1.954
14329W        W79556   5.840  13.172   0.686
14330W        W79557  18.025  37.416   3.165
14331W        W79558  42.471  40.431  10.644
14332W        W79559  31.342  31.914  13.464
14333W        W79560  11.094  36.972   0.833
14334W        W79561  29.411  20.568  10.658
14335W        W79562   7.481  34.632   1.987
14336W        W79563  21.551  38.855  13.801
14337W        W79564  39.020   2.705   4.236
14338W        W79565  26.840  29.538  14.562
14339W        W79566  24.143  27.305   2.785
14340W        W79567  31.197  39.834  12.584
14341W        W79568  15.583  24.727   2.355
14342W        W79569  34.685  34.429   4.868
14343W        W79570   9.559  32.884  12.735
14344W        W79571  33.477  10.266   3.834
14345W        W79572  18.796  44.663  12.385
14346W        W79573  38.943   5.402   0.368
14347W        W79574   2.281   7.854  10.774
14348W        W79575  16.089  18.819  10.779
14349W        W79576  11.733  40.297  13.149
14350W        W79577  28.887   0.465  12.990
14351W        W79578  27.959  41.932  14.492
14352W        W79579  36.064  37.997   3.558
14353W        W79580  29.716  20.955  11.057
14354W        W79581   3.387  38.157   2.857
14355W        W79582   9.083   4.061  14.990
14356W        W79583  43.475   1.535   2.421
14357W        W79584  16.781  24.492  12.043
14358W        W79585  18.723  21.731  11.197
14359W        W79586  20.156   0.216   1.662
14360W        W79587  27.767  23.634   3.848
14361W        W79588  42.025  23.661  12.099
14362W        W79589  17.097  29.316   4.515
14363W        W79590  39.788  41.404  14.029
14364W        W79591  29.538  32.116  10.731
14365W        W79592  36.983  44.707  14.220
14366W        W79593   0.463  42.977   4.966
14367W        W79594  32.813  22.958   3.110
14368W        W79595  14.336  30.472   3.559
14369W        W79596   7.672   8.497  11.772
14370W        W79597   7.203   5.173   3.805
14371W        W79598  24.524   4.313  14.336
14372W        W79599  31.210  41.635   1.349
14373W        W79600  41.420   3.638  10.922
14374W        W79601   5.548  30.757   4.112
14375W        W79602  16.676   0.587  14.730
14376W        W79603  44.724  44.363   1.474
14377W        W79604  17.123  28.106  13.871
14378W        W79605  18.818  12.749   3.747
14379W        W79606  16.708  31.319   3.735
14380W        W79607  29.485  17.372   4.104
14381W        W79608  16.951   5.822   3.725
14382W        W79609  41.575  27.213   4.085
14383W        W79610  17.472   7.252   3.233
14384W        W79611  11.601  42.260   4.015
14385W        W79612  10.014   9.683   1.681
14386W        W79613   9.288  35.806  12.455
14387W        W79614  20.996  40.862   4.115
14388W        W79615  17.370   2.917   3.436
14389W        W79616  30.991   4.291   4.181
14390W        W79617  36.719  19.366   2.728
14391W        W79618   6.319  34.963  12.902
14392W        W79619  15.509  38.721  13.308
14393W        W79620  36.981  30.378   2.571
14394W        W79621  11.135  32.901  12.663
14395W        W79622  35.661  18.140  10.876
14396W        W79623   4.280  29.960  13.766
14397W        W79624   7.559  40.239   4.946
14398W        W79625  13.779  32.273   1.555
14399W        W79626  34.685  17.227   2.418
14400W        W79627  25.615   2.753   2.865
14401W        W79628  20.096   7.982   0.405
14402W        W79629  19.557   6.014   4.926
14403W        W79630  28.718  39.595  13.511
14404W        W79631  29.535  33.526  10.721
14405W        W79632  32.165  19.219   0.398
14406W        W79633  13.950  30.894   4.223
14407W        W79634  10.853  31.035   0.026
14408W        W79635  33.962  44.358   3.601
14409W        W79636   4.815  20.555  11.660
14410W        W79637  20.691  11.430  13.319
14411W        W79638  22.112  15.152   4.469
14412W        W79639  33.271  13.796   3.628
14413W        W79640   9.890   3.100   3.549
14414W        W79641  35.287   4.720  14.857
14415W        W79642  43.319  20.481  12.169
14416W        W79643   7.387  12.374   1.299
14417W        W79644  18.785   2.994  13.994
14418W        W79645  19.090   1.398   0.903
14419W        W79646  31.048   7.970  13.043
14420W        W79647  44.775  22.030   3.610
14421W        W79648  37.867  43.538  10.618
14422W        W79649  39.776  23.709  13.848
14423W        W79650  33.948   2.274   2.961
14424W        W79651  20.260  21.071  11.671
14425W        W79652   8.810  25.487  11.666
14426W        W79653  32.614  15.207   0.060
14427W        W79654   4.929   3.811  10.684
14428W        W79655  28.903  12.666  10.770
14429W        W79656  29.723   9.198  14.666
14430W        W79657  42.020  36.415  11.211
14431W        W79658  16.017  33.603  12.833
14432W        W79659  33.128  31.101  13.575
14433W        W79660  19.398  21.571  12.527
14434W        W79661  30.783  31.762   4.720
14435W        W79662  27.586   4.424   3.123
14436W        W79663  31.812  10.802  12.569
14437W        W79664  21.143  19.770   4.111
14438W        W79665  40.871  21.298   4.949
14439W        W79666   9.410   2.875   3.594
14440W        W79667  39.814  16.766  11.422
14441W        W79668  19.050  43.344  13.983
14442W        W79669  42.311  12.836   1.331
14443W        W79670  42.413  28.999  10.661
14444W        W79671  40.602  28.263  13.560
14445W        W79672   1.639  28.877  14.940
14446W        W79673   3.994  29.806  11.150
14447W        W79674  28.205  19.996   0.381
14448W        W79675   4.215   7.363   2.746
14449W        W79676  44.710  13.751   9.771
14450W        W79677  18.077  31.414  11.195
14451W        W79678  20.990   4.216  10.905
14452W        W79679  39.611  25.317   2.644
14453W        W79680  11.627   2.826  11.185
14454W        W79681  19.315  30.676  14.424
14455W        W79682  16.353  43.020  13.211
14456W        W79683  25.572   4.719  14.833
14457W        W79684  28.490   4.657  12.537
14458W        W79685  25.010  41.914   0.192
14459W        W79686  21.945  20.874   0.246
14460W        W79687  22.330  27.631  12.956
14461W        W79688  35.727  14.732  12.403
14462W        W79689  22.051  37.111   2.790
14463W        W79690  18.964   8.132  11.645
14464W        W79691  13.178  30.664  12.023
14465W        W79692  26.279  13.886  12.947
14466W        W79693  22.673  41.034  14.462
14467W        W79694  27.468  14.618  12.665
14468W        W79695  34.592  15.970   2.000
14469W        W79696  19.429  32.862   3.210
14470W        W79697   1.834  19.768  13.072
14471W        W79698  27.110  17.806  14.499
14472W        W79699   8.168  41.848  13.372
14473W        W79700  36.157  12.807   2.851
14474W        W79701  41.260  34.212   4.564
14475W        W79702  39.346  10.674  12.511
14476W        W79703  10.612  36.591   4.006
14477W        W79704   3.380  12.471   1.262
14478W        W79705  17.799  16.569  13.078
14479W        W79706  30.843  35.418   2.511
14480W        W79707  38.929  26.458  11.299
14481W        W79708   5.280   2.035   0.404
14482W        W79709  36.015  14.279  10.900
14483W        W79710  20.070   8.398   1.674
14484W        W79711  33.175  31.057  14.088
14485W        W79712  39.210  28.449   3.702
14486W        W79713  25.579  19.907   2.834
14487W        W79714  37.815  30.920  12.124
14488W        W79715  38.501  23.402  14.367
14489W        W79716  32.993  28.379  13.325
14490W        W79717  17.029  15.062  13.526
14491W        W79718  30.373  11.649   2.129
14492W        W79719  24.981  13.704   0.253
14493W        W79720  13.369  24.109   4.096
14494W        W79721  29.319   7.967   4.117
14495W        W79722  28.755  37.384   2.664
14496W        W79723   6.580  11.137  13.386
14497W        W79724  41.841   8.372  12.092
14498W        W79725  35.403  39.068  13.414
14499W        W79726  26.801  18.727  14.064
14500W        W79727   1.491   5.238   2.740
14501W        W79728  41.999  19.672   9.998
14502W        W79729  28.584   3.797  13.500
14503W        W79730  40.284  17.787  10.677
14504W        W79731  25.992   6.523  11.095
14505W        W79732  36.201  20.859   1.711
14506W        W79733  29.662  31.044  13.818
14507W        W79734  40.999   3.140  12.473
14508W        W79735  37.551   4.680  13.636
14509W        W79736  32.098  19.483  11.426
14510W        W79737  42.836  24.553   3.894
14511W        W79738  32.645   3.706  14.301
14512W        W79739   8.860  39.267  12.489
14513W        W79740  24.105  44.971   4.870
14514W        W79741   0.745   6.938   1.811
14515W        W79742  21.410   7.429   2.854
14516W        W79743  28.028   8.582   2.215
14517W        W79744  16.451  27.212  13.366
14518W        W79745  21.443  44.333   3.528
14519W        W79746  12.091  32.540   0.807
14520W        W79747   7.953   5.482  11.594
14521W        W79748  36.936  23.321   3.465
14522W        W79749  11.052  10.774   0.867
14523W        W79750  33.149  16.846   0.846
14524W        W79751  30.859  15.796   4.028
14525W        W79752  18.220  34.386  12.543
14526W        W79753  25.527  41.395   3.606
14527W        W79754   7.473   2.903   3.713
14528W        W79755  21.808  20.680  11.138
14529W        W79756  19.205   7.854  14.520
14530W        W79757  17.170  38.600  12.501
14531W        W79758  15.560  13.713   0.181
14532W        W79759  44.759  37.877   4.844
14533W        W79760  38.101  24.488  11.659
14534W        W79761  11.174  16.752   2.741
14535W        W79762  37.370  14.264   1.449
14536W        W79763  15.340  14.011  13.469
14537W        W79764  26.634  39.321  13.586
14538W        W79765  14.339   7.696   0.896
14539W        W79766  44.854  11.255   4.457
14540W        W79767  22.614  37.081   3.190
14541W        W79768  30.230  16.190   3.531
14542W        W79769   8.415  27.957  14.274
14543W        W79770  14.098  17.101  11.207
14544W        W79771   8.904   2.798   1.732
14545W        W79772  22.648  25.640   1.285
14546W        W79773  15.257   1.234  13.886
14547W        W79774   5.833  40.291  10.498
14548W        W79775  36.297  22.613  10.865
14549W        W79776  14.823  14.207  14.105
14550W        W79777   8.250  10.982   2.400
14551W        W79778   3.343   0.952   3.362
14552W        W79779   3.247  41.398  10.186
14553W        W79780  42.406  22.613   1.349
14554W        W79781  18.131  23.172   0.448
14555W        W79782  30.899  11.156   2.908
14556W        W79783  24.486  15.379  13.537
14557W        W79784  29.154  24.717   1.724
14558W        W79785  19.489   8.532  13.057
14559W        W79786  33.200  44.466   2.122
14560W        W79787  43.859  22.041  10.704
14561W        W79788  36.517  23.444  11.898
14562W        W79789  29.491  26.244   0.706
14563W        W79790  35.876  28.091   1.342
14564W        W79791  17.624   0.857  14.727
14565W        W79792  25.699   3.187   2.594
14566W        W79793  38.759  14.563  10.614
14567W        W79794   6.536  43.509  11.206
14568W        W79795  43.654  23.659  13.504
14569W        W79796  35.901  29.585   1.118
14570W        W79797  21.965  16.898  12.752
14571W        W79798  14.155  24.550   2.895
14572W        W79799  29.331   1.238  14.330
14573W        W79800   3.241  24.081  12.439
14574W        W79801   8.958  10.886  10.486
14575W        W79802  34.047   3.668  13.816
14576W        W79803  10.923  27.313  12.828
14577W        W79804  32.134  39.812   1.623
14578W        W79805  26.126  40.299   1.200
14579W        W79806  31.078  11.364   0.436
14580W        W79807   3.097  33.367   0.406
14581W        W79808  35.400  19.173  12.210
14582W        W79809   1.189  16.815   3.732
14583W        W79810  18.317   1.433   1.288
14584W        W79811  23.077   7.600   3.742
14585W        W79812  43.862  19.513  11.691
14586W        W79813   4.601  29.840   3.191
14587W        W79814   9.115  44.706   0.291
14588W        W79815  41.221  13.302  11.069
14589W        W79816  16.825  16.319  12.176
14590W        W79817  19.154  30.127  11.695
14591W        W79818  42.835  26.505  10.072
14592W        W79819  41.026  20.391  10.896
14593W        W79820  18.523  35.710   5.256
14594W        W79821  43.571  33.607   3.216
14595W        W79822  41.469   2.763  10.511
14596W        W79823  21.642  18.290   0.237
14597W        W79824  39.882  24.137   3.845
14598W        W79825  22.823  38.309   2.306
14599W        W79826  20.184  17.817  14.465
14600W        W79827  21.565  24.085   2.335
14601W        W79828  36.790   5.173  14.491
14602W        W79829  21.595   9.649   3.237
14603W        W79830  25.209  18.755  14.980
14604W        W79831  40.067  10.230   0.814
14605W        W79832  28.634  19.174   1.264
14606W        W79833   2.552  24.651   0.016
14607W        W79834  24.395  22.846   2.641
14608W        W79835  40.799  33.117  14.533
14609W        W79836  34.830   9.133   3.166
14610W        W79837  21.075  19.070  14.575
14611W        W79838  38.350  44.662   0.319
14612W        W79839  12.181  28.576   4.181
14613W        W79840  39.958  11.569  14.465
14614W        W79841  15.537   5.335   3.364
14615W        W79842  33.447  10.850  14.216
14616W        W79843  29.571  15.875   1.376
14617W        W79844  21.597  33.467   1.463
14618W        W79845   7.495  15.806  12.865
14619W        W79846   9.684   4.031   4.010
14620W        W79847  24.156  21.631  10.912
14621W        W79848  10.617  36.908  10.507
14622W        W79849  38.736  10.115   0.240
14623W        W79850  25.492  21.026  14.330
14624W        W79851  42.377  16.304   0.295
14625W        W79852  11.867  16.295  14.538
14626W        W79853  25.022  27.970   2.473
14627W        W79854   5.996  28.980   3.696
14628W        W79855  42.038  43.751   0.065
14629W        W79856  29.147  31.867   2.302
14630W        W79857   3.431  28.677  11.547
14631W        W79858   9.145   4.624  12.146
14632W        W79859  26.074  40.827   2.628
14633W        W79860  28.780  23.551   4.841
14634W        W79861  44.917  33.689  11.135
14635W        W79862  32.132  17.353   0.198
14636W        W79863  30.933  18.442  11.181
14637W        W79864   8.752  25.413   0.846
14638W        W79865   9.341  23.896   2.005
14639W        W79866   6.223   3.969  10.909
14640W        W79867  25.095   5.162   9.606
14641W        W79868  24.710  23.773  13.974
14642W        W79869  24.259   1.455  11.595
14643W        W79870   7.207  35.859   0.436
14644W        W79871   6.238   1.450  12.146
14645W        W79872  18.446  16.026   1.017
14646W        W79873  43.451  27.093   1.251
14647W        W79874  18.224  43.278  11.217
14648W        W79875  35.009  36.634  13.397
14649W        W79876  32.372  30.421   2.710
14650W        W79877  29.046  36.107  14.941
14651W        W79878   4.894  39.474  12.612
14652W        W79879  13.947  31.766   4.451
14653W        W79880  13.896  33.745   4.596
14654W        W79881   4.702  10.835  13.770
14655W        W79882  39.584  43.969   3.104
14656W        W79883  26.169   6.811   2.162
14657W        W79884  44.553  17.999  12.285
14658W        W79885  33.907  35.124   3.126
14659W        W79886  33.207   8.849  10.054
14660W        W79887  10.833  35.871   1.270
14661W        W79888  21.043   5.733  14.357
14662W        W79889  15.505  25.036  11.120
14663W        W79890  43.081   5.327  10.557
14664W        W79891  19.683  27.569  10.998
14665W        W79892   8.887  32.551  13.198
14666W        W79893  22.134  14.577  11.198
14667W        W79894   4.213  26.438   2.991
14668W        W79895   7.315  29.903   2.257
14669W        W79896  33.083  19.689   1.850
14670W        W79897  44.539   0.466  12.960
14671W        W79898  31.649  14.276   2.284
14672W        W79899  24.059  40.538   0.473
14673W        W79900  42.774  21.436   1.980
14674W        W79901   7.741  33.540   2.720
14675W        W79902  18.451  37.350   2.798
14676W        W79903  32.899  10.720   3.070
14677W        W79904   7.642  38.966  12.916
14678W        W79905  34.147   5.784   3.501
14679W        W79906   8.268  38.398   1.722
14680W        W79907  12.017   2.167  11.391
14681W        W79908  25.505  38.023   3.617
14682W        W79909   7.538  38.337   3.889
14683W        W79910  12.147  10.264   0.303
14684W        W79911  41.396   8.939  11.656
14685W        W79912   4.352  28.617  12.645
14686W        W79913   5.853  35.377  12.016
14687W        W79914   9.457  22.814   3.432
14688W        W79915  22.087  16.948   2.730
14689W        W79916  21.651  40.597   4.139
14690W        W79917  44.489  18.727  12.978
14691W        W79918  20.619  22.938  11.679
14692W        W79919   7.674  28.614   0.800
14693W        W79920   8.677  11.808   1.226
14694W        W79921  27.305  29.723  14.475
14695W        W79922  16.819  18.794   0.727
14696W        W79923  14.216  29.845   2.469
14697W        W79924  10.784  35.378  14.815
14698W        W79925  41.669  13.822   0.958
14699W        W79926  25.802  43.975  14.985
14700W        W79927  41.648  24.151  13.053
14701W        W79928   1.220  26.043   3.174
14702W        W79929  22.363   9.827   1.603
14703W        W79930  27.217  34.004   1.368
14704W        W79931  43.730   6.428  12.151
14705W        W79932   4.901  18.753  14.000
14706W        W79933  31.574  20.037  11.231
14707W        W79934  21.232  16.064  10.932
14708W        W79935  37.521   2.232   1.910
14709W        W79936  35.361  27.301   3.821
14710W        W79937  22.043  28.377  13.388
14711W        W79938  34.906   7.181  13.855
14712W        W79939  42.905  16.809   1.330
14713W        W79940   2.346  18.187  13.439
14714W        W79941  13.714  30.548   1.027
14715W        W79942  41.422   8.616   3.062
14716W        W79943  13.652   9.962  10.871
14717W        W79944  30.521  13.322   1.425
14718W        W79945  16.244  33.500   2.664
14719W        W79946   2.972  32.059   1.814
14720W        W79947   1.566  12.670   3.118
14721W        W79948   5.808  35.259  10.755
14722W        W79949  28.100  38.009  12.563
14723W        W79950   4.660   7.734  12.425
14724W        W79951  13.117  20.188   1.887
14725W        W79952  26.908  41.414  11.062
14726W        W79953   8.551  35.979  11.981
14727W        W79954  36.939   4.842  13.111
14728W        W79955  31.044  23.931  12.653
14729W        W79956  18.513  43.678  11.481
14730W        W79957  38.243  16.535   2.566
14731W        W79958  14.729  14.633   4.641
14732W        W79959  28.963  40.600  15.000
14733W        W79960  20.951   9.908  11.464
14734W        W79961  18.761  13.054  13.493
14735W        W79962   7.244   1.835  11.756
14736W        W79963  36.752  30.113  13.917
14737W        W79964  15.018  32.418  11.133
14738W        W79965  28.740  17.749  13.866
14739W        W79966  39.337  40.118   0.597
14740W        W79967   9.858   3.586   3.737
14741W        W79968   5.843  36.345   3.264
14742W        W79969  15.225   3.244  13.977
14743W        W79970  25.629  14.909   4.238
14744W        W79971   1.695  41.378  10.809
14745W        W79972  19.012   4.497   1.754
14746W        W79973  28.778   3.567   2.301
14747W        W79974   4.052  38.407   4.583
14748W        W79975   0.996  33.402   3.704
14749W        W79976  39.355  26.013  12.071
14750W        W79977   6.735  14.827   0.981
14751W        W79978   1.362   3.876  14.339
14752W        W79979  38.886  12.868   1.876
14753W        W79980  13.343   0.449   3.234
14754W        W79981  14.199  12.599  10.799
14755W        W79982   2.440  23.240   1.681
14756W        W79983   1.381  16.765  13.179
14757W        W79984  26.509   8.918   5.138
14758W        W79985  15.879  37.579  12.035
14759W        W79986  17.758  10.389   2.454
14760W        W79987  28.177  38.201   4.126
14761W        W79988  36.313  24.677  14.537
14762W        W79989  11.303  18.894  10.509
14763W        W79990   6.859  14.235   4.654
14764W        W79991  41.919  26.816  13.352
14765W        W79992  17.116  32.328  12.551
14766W        W79993  14.634  10.391   1.796
14767W        W79994  18.061  38.543   3.240
14768W        W79995  36.378  18.227   4.420
14769W        W79996   4.948  27.918   1.296
14770W        W79997  20.146  26.227  13.485
14771W        W79998  21.489  14.578  14.355
14772W        W79999   1.726   2.440   2.160
14773W        W80000  19.720  13.210   3.771
14774W        W80001  10.343   0.465   5.093
14775W        W80002  13.332   6.271  12.519
14776W        W80003  23.718  11.744   0.730
14777W        W80004  35.850  37.317   0.091
14778W        W80005   7.705  23.702   1.386
14779W        W80006  27.491  43.037   3.266
14780W        W80007  24.677  19.700  12.613
14781W        W80008  13.572  27.905  14.027
14782W        W80009  39.760  19.598  12.951
14783W        W80010   3.273  33.426   1.582
14784W        W80011  30.369  13.310   0.447
14785W        W80012  38.519  36.654  12.156
14786W        W80013  43.292  40.292  12.441
14787W        W80014  32.702   0.740  10.691
14788W        W80015  40.869  18.119   2.105
14789W        W80016   2.359   9.343   4.583
14790W        W80017   9.182  27.276  11.432
14791W        W80018  26.397  43.280  14.284
14792W        W80019  15.246   8.683   3.552
14793W        W80020  36.220  18.536   4.024
14794W        W80021  44.816   5.993   2.756
14795W        W80022  20.531  19.069   0.313
14796W        W80023   6.252  29.149   4.131
14797W        W80024  30.240   7.160  14.059
14798W        W80025  21.733   1.945   0.400
14799W        W80026  26.015  24.544   3.249
14800W        W80027  16.535  15.197  13.439
14801W        W80028  41.434   7.649   0.419
14802W        W80029   4.768   0.965  14.456
14803W        W80030   6.462  40.381   5.163
14804W        W80031   7.125  37.070   0.992
14805W        W80032   3.033  25.573   2.751
14806W        W80033  37.066  26.208   3.049
14807W        W80034   6.833  39.419  10.485
14808W        W80035  17.313   5.317  14.522
14809W        W80036   9.481   2.072  11.949
14810W        W80037  39.806  27.557   4.513
14811W        W80038   5.691  20.257   0.051
14812W        W80039  44.980  11.876  10.792
14813W        W80040   1.466  28.387   2.287
14814W        W80041  16.829  35.583   1.392
14815W        W80042  12.782  14.084   0.366
14816W        W80043   1.536  22.771  11.476
14817W        W80044  10.703  12.823  13.628
14818W        W80045   6.514  24.504  10.945
14819W        W80046  31.326  10.182   4.453
14820W        W80047  14.862  16.041  12.919
14821W        W80048  13.574   4.513   2.362
14822W        W80049   9.649  43.258  14.428
14823W        W80050  15.729  25.817  10.784
14824W        W80051  35.588  12.872   1.231
14825W        W80052   7.873   9.068   3.087
14826W        W80053   5.976   2.299  12.680
14827W        W80054  11.849  17.204   4.971
14828W        W80055  32.650   3.962  11.521
14829W        W80056   1.203   5.785  14.003
14830W        W80057   6.744  39.638  13.086
14831W        W80058  31.261   9.224  10.359
14832W        W80059  21.424  44.216  12.376
14833W        W80060   5.024  12.217   3.006
14834W        W80061   7.622  36.247   4.723
14835W        W80062  31.822   2.432   5.027
14836W        W80063  37.476  25.165   3.787
14837W        W80064  30.038  10.356   4.622
14838W        W80065  38.589  17.141   3.969
14839W        W80066  23.501  42.342  12.503
14840W        W80067  33.239  22.737  14.943
14841W        W80068  23.164   4.428  11.244
14842W        W80069  18.127  29.108  14.505
14843W        W80070  18.897  13.904  14.291
14844W        W80071  21.332  18.261  12.510
14845W        W80072  27.211   8.226  14.909
14846W        W80073  11.003   1.648  11.011
14847W        W80074  25.660  25.092   0.798
14848W        W80075   5.461  21.801   0.634
14849W        W80076  37.177  20.782  13.445
14850W        W80077   1.025  34.979  14.837
14851W        W80078   8.212  38.850  10.273
14852W        W80079   6.159  17.740   3.655
14853W        W80080  23.439  42.936   9.962
14854W        W80081   0.993  29.623  11.112
14855W        W80082  31.988  26.131   2.361
14856W        W80083  24.870  35.308  13.045
14857W        W80084  41.200   0.236  12.157
14858W        W80085   3.921  23.655   3.310
14859W        W80086  38.411  20.565  11.716
14860W        W80087  11.660  10.188  13.413
14861W        W80088  31.736  38.086  10.307
14862W        W80089  44.007  27.029  10.771
14863W        W80090  25.349  16.875  14.862
14864W        W80091  36.529  12.827  13.450
14865W        W80092  16.683  10.719  14.669
14866W        W80093  24.679  42.427   4.451
14867W        W80094   9.232  23.001   0.437
14868W        W80095   2.953  28.223   1.864
14869W        W80096   0.450  33.158  14.100
14870W        W80097  13.287  27.651   4.517
14871W        W80098  39.839  26.566  11.895
14872W        W80099  18.301  27.601   4.631
14873W        W80100  32.717   0.791  14.718
14874W        W80101  26.659  34.183   0.078
14875W        W80102   3.410   6.673   4.973
14876W        W80103  30.445  19.014   3.278
14877W        W80104  37.787  23.124   4.071
14878W        W80105  10.829  36.328   2.772
14879W        W80106  14.159  15.180   0.613
14880W        W80107  26.008  36.039  11.969
14881W        W80108   7.605  13.834   9.895
14882W        W80109   1.742   2.823   3.670
14883W        W80110  30.122   7.959   3.652
14884W        W80111  42.075  39.913  11.298
14885W        W80112   7.874  10.350   4.971
14886W        W80113  35.951  21.158  13.570
14887W        W80114  42.543  41.830   2.250
14888W        W80115  10.031  27.481  10.307
14889W        W80116  16.361  34.615   1.173
14890W        W80117  22.048  26.500  14.909
14891W        W80118  15.519  36.257   3.425
14892W        W80119  36.452  44.471   4.720
14893W        W80120  16.601  44.104  13.943
14894W        W80121  34.642  38.108  11.741
14895W        W80122  35.920  16.057   1.212
14896W        W80123   0.199  22.912  13.998
14897W        W80124  43.080  41.071   3.627
14898W        W80125   4.716  26.726   4.575
14899W        W80126  11.842  14.124  14.353
14900W        W80127  38.496  35.631  10.673
14901W        W80128  30.020  14.119   3.149
14902W        W80129  33.348  22.287   3.196
14903W        W80130  22.085  33.979   4.130
14904W        W80131  29.587  32.092   2.146
14905W        W80132  30.021  25.063   0.915
14906W        W80133  41.555   4.811   4.205
14907W        W80134  32.492  27.420   1.178
14908W        W80135  34.469   5.351   1.969
14909W        W80136   3.356  10.238  12.067
14910W        W80137   9.256  18.548  11.666
14911W        W80138  39.566  34.419   1.921
14912W        W80139  26.198  14.229  11.029
14913W        W80140  44.729  34.888   1.857
14914W        W80141  13.185  18.261  12.075
14915W        W80142  19.084   4.741   0.837
14916W        W80143  18.186   8.216  12.122
14917W        W80144  44.039  38.456  14.927
14918W        W80145  11.081  41.352  14.445
14919W        W80146  14.676  27.527  11.474
14920W        W80147   0.371  37.323  13.522
14921W        W80148   3.432  28.439  13.285
14922W        W80149  29.007   3.677   2.754
14923W        W80150  36.532  24.633  10.740
14924W        W80151   0.011  34.490  10.629
14925W        W80152   1.979  32.025   3.746
14926W        W80153  22.988  18.692  11.123
14927W        W80154   3.311  26.477  10.614
14928W        W80155  28.321  22.819  14.360
14929W        W80156  31.928  29.983   0.823
14930W        W80157  15.341  11.800  10.562
14931W        W80158  21.571  36.726  12.291
14932W        W80159   5.527   2.139   1.401
14933W        W80160  39.550  31.120  11.524
14934W        W80161  33.087   1.443   4.549
14935W        W80162  38.574   9.307   0.295
14936W        W80163  10.077  40.268   2.623
14937W        W80164  11.665  30.908  11.562
14938W        W80165   2.613  36.230   1.281
14939W        W80166   2.243   5.280   2.299
14940W        W80167   1.254  26.039   1.349
14941W        W80168  30.012  15.539  14.781
14942W        W80169  15.217  36.506  14.674
14943W        W80170  35.455  10.446   1.331
14944W        W80171   9.856  40.907  11.128
14945W        W80172  10.778  27.561  11.494
14946W        W80173  44.352  42.746  13.125
14947W        W80174  35.482  40.003  11.112
14948W        W80175  44.828   4.772   0.477
14949W        W80176   6.385   1.936  13.355
14950W        W80177  44.915  15.704  11.597
14951W        W80178  16.824  17.334  11.981
14952W        W80179  18.221  38.408   0.710
14953W        W80180  31.109  24.901   5.057
14954W        W80181  14.898  19.813   0.185
14955W        W80182  31.319   3.175   4.482
14956W        W80183  42.944  42.924   4.063
14957W        W80184  15.790   4.995  11.256
14958W        W80185  15.044  25.626  11.469
14959W        W80186   4.280  15.684   9.766
14960W        W80187   3.464  28.776  14.185
14961W        W80188   4.531  27.526   0.406
14962W        W80189  13.219  27.563  10.491
14963W        W80190  16.412  14.061  13.338
14964W        W80191  12.465  35.465   3.159
14965W        W80192  34.677  30.552   3.727
14966W        W80193  23.387  40.305  14.009
14967W        W80194  27.266  11.651  10.760
14968W        W80195  29.129   4.235   0.652
14969W        W80196  37.587   4.443   0.808
14970W        W80197   6.797  36.080  14.049
14971W        W80198  19.290  40.921  10.748
14972W        W80199  42.208  39.992   4.091
14973W        W80200  23.570  29.014  12.095
14974W        W80201   8.511  36.877  11.130
14975W        W80202  22.597  39.136   2.839
14976W        W80203  31.552  23.027   0.411
14977W        W80204  31.764  28.745   3.155
14978W        W80205  42.076  20.604   2.684
14979W        W80206  12.836  34.896   2.649
14980W        W80207  30.878  13.799   2.795
14981W        W80208  40.657  14.665  12.114
14982W        W80209  25.444   5.307   2.513
14983W        W80210  39.575   6.946   0.661
14984W        W80211  25.536  10.333  14.384
14985W        W80212  44.017  27.148   5.299
14986W        W80213  20.566  21.270  11.291
14987W        W80214  34.684  28.363  12.025
14988W        W80215  43.595   6.011   3.392
14989W        W80216  21.738  34.153   3.158
14990W        W80217  28.823  21.067  11.412
14991W        W80218  36.035  19.718  12.854
14992W        W80219  19.703  23.701   2.683
14993W        W80220  28.133  12.140   2.280
14994W        W80221   0.854  16.889   4.114
14995W        W80222  12.273  38.050  12.347
14996W        W80223  41.014   9.386   4.146
14997W        W80224  26.215  10.900   2.829
14998W        W80225  39.368   8.177  13.290
14999W        W80226  11.936  15.308   0.730
15000W        W80227  43.004  16.204   3.586
15001W        W80228  37.045   3.228  10.743
15002W        W80229  25.266  24.853  12.777
15003W        W80230  20.929  14.345   2.805
15004W        W80231  16.662  43.295   3.634
15005W        W80232   9.049  13.333   1.478
15006W        W80233   3.287   5.502   1.295
15007W        W80234  34.021  24.409   4.760
15008W        W80235  11.225  22.030  12.098
15009W        W80236  36.124   5.814  12.921
15010W        W80237  39.652   4.731   1.263
15011W        W80238  16.871  33.524  11.043
15012W        W80239  26.636  17.162   2.616
15013W        W80240  31.044  44.277  11.986
15014W        W80241   4.294  11.758   4.651
15015W        W80242  16.295   9.043   4.597
15016W        W80243  13.626  25.257   0.526
15017W        W80244  37.896  11.243  11.528
15018W        W80245  21.666  27.529  13.684
15019W        W80246   4.488   1.666  12.844
15020W        W80247  43.118   5.269  11.930
15021W        W80248  44.745  19.248   0.464
15022W        W80249  44.195  42.452   3.828
15023W        W80250   1.808  16.580  13.501
15024W        W80251  13.389  30.433  14.784
15025W        W80252  29.873  38.856  11.518
15026W        W80253  29.165  28.680  10.740
15027W        W80254  17.145  31.030   2.690
15028W        W80255  41.548   1.154  12.581
15029W        W80256   1.908   8.200  10.619
15030W        W80257  20.992   7.340   3.632
15031W        W80258  42.064   0.398  10.866
15032W        W80259  44.737  29.421   1.225
15033W        W80260  17.076   7.658  14.684
15034W        W80261   1.794  19.799  14.507
15035W        W80262  11.302  18.414   0.432
15036W        W80263  32.499  43.469  11.466
15037W        W80264  36.832   4.176  11.049
15038W        W80265   5.830  13.193   4.690
15039W        W80266  18.811  37.730   2.839
15040W        W80267  22.488   0.260  13.050
15041W        W80268   1.899  36.882  11.031
15042W        W80269  22.972  27.085  12.027
15043W        W80270  41.529  42.707  12.060
15044W        W80271  38.903  40.386  14.285
15045W        W80272  36.819  44.528  12.940
15046W        W80273   4.212  40.088   2.233
15047W        W80274  34.026  31.172  13.507
15048W        W80275  17.660  19.243   4.078
15049W        W80276   0.041  35.678   0.301
15050W        W80277  41.262  34.971  13.380
15051W        W80278  25.523  38.087  12.506
15052W        W80279  31.546  15.758  10.362
15053W        W80280  39.774  34.456  14.841
15054W        W80281  27.767   4.987   3.941
15055W        W80282  25.079  25.193   3.203
15056W        W80283  27.507  29.653  11.968
15057W        W80284  29.232  35.979   1.808
15058W        W80285  44.833  18.090  10.662
15059W        W80286  44.795   5.929   0.460
15060W        W80287   0.059   4.159   3.274
15061W        W80288  13.328  20.588   1.096
15062W        W80289  37.046  27.287  11.435
15063W        W80290  43.878  10.170  10.643
15064W        W80291  35.180  38.041   3.671
15065W        W80292  24.153  28.871  13.181
15066W        W80293  32.107  12.148   4.550
15067W        W80294  39.552   9.874   3.735
15068W        W80295  23.806  42.304  13.893
15069W        W80296  43.817  14.235  11.298
15070W        W80297  19.111  23.443   0.579
15071W        W80298  24.366  11.677   1.950
15072W        W80299   0.949  28.543  14.478
15073W        W80300  21.759  42.338  11.067
15074W        W80301  13.059   1.823   1.399
15075W        W80302  40.225   1.543  11.641
15076W        W80303  30.415  23.611   3.734
15077W        W80304  31.831  38.379   2.730
15078W        W80305   1.759  17.676   2.593
15079W        W80306  35.730  13.044   0.758
15080W        W80307  38.965  19.718   4.585
15081W        W80308   3.981  18.033  14.419
15082W        W80309   1.355  32.859  13.224
15083W        W80310  40.583   3.607   2.749
15084W        W80311   3.546  32.532  14.921
15085W        W80312  21.435  25.415   2.225
15086W        W80313  35.089  36.152   3.128
15087W        W80314  40.006   2.006  11.458
15088W        W80315  39.324   0.979  10.356
15089W        W80316  44.684   8.535   3.155
15090W        W80317  32.686  37.563  13.069
15091W        W80318  39.320  15.802  10.797
15092W        W80319  10.828  41.375   2.658
15093W        W80320  29.014  44.407   9.957
15094W        W80321   1.289  41.000  12.874
15095W        W80322  13.013  17.117  14.823
15096W        W80323   7.260   1.809  11.227
15097W        W80324  12.351  34.486   4.520
15098W        W80325  28.395  20.114   4.388
15099W        W80326  35.462  31.973   1.388
15100W        W80327  43.818   0.064   2.947
15101W        W80328   7.887  39.920  14.489
15102W        W80329  33.932  31.848   2.253
15103W        W80330   6.974  40.276  12.464
15104W        W80331  14.410  27.503   4.274
15105W        W80332   6.614  16.566  11.888
15106W        W80333  30.407   4.748  11.686
15107W        W80334  11.770  31.252   9.771
15108W        W80335   1.473  34.915   2.603
15109W        W80336  22.039  35.882  12.337
15110W        W80337  30.319  16.550   1.309
15111W        W80338   8.475  19.000  11.223
15112W        W80339  17.212   2.294   1.259
15113W        W80340  21.811  23.627  14.648
15114W        W80341  16.590  21.861   2.773
15115W        W80342  17.991  23.696  13.182
15116W        W80343  41.998   2.497  14.492
15117W        W80344   8.748  21.101   0.678
15118W        W80345  27.626  17.217   3.108
15119W        W80346  32.099  18.094   2.997
15120W        W80347   0.734  23.994   3.216
15121W        W80348  13.037  40.094  12.988
15122W        W80349  16.715   9.035  11.191
15123W        W80350  27.051  25.024   1.692
15124W        W80351  17.703   7.819   1.590
15125W        W80352   4.552  23.114  11.794
15126W        W80353  35.893  44.442  13.027
15127W        W80354   5.467  36.261   1.859
15128W        W80355  43.422  43.791   0.521
15129W        W80356   8.747   6.030   4.599
15130W        W80357  37.950  23.735   1.746
15131W        W80358  39.799  23.026   2.218
15132W        W80359  11.415  21.949  13.588
15133W        W80360  32.611  40.402   4.970
15134W        W80361  30.763  41.724  11.201
15135W        W80362  34.104  27.936   4.258
15136W        W80363  25.736  12.189   4.967
15137W        W80364  40.509  33.814   4.704
15138W        W80365  10.605  27.196   3.086
15139W        W80366  39.344  39.094   2.462
15140W        W80367  12.702  32.657  14.446
15141W        W80368   5.497  12.826   5.063
15142W        W80369  27.536  30.877   1.852
15143W        W80370   4.762  28.003   0.376
15144W        W80371  25.954  43.237  14.556
15145W        W80372   8.411   3.038  14.379
15146W        W80373  16.076  13.832  12.443
15147W        W80374   7.124   0.489  10.546
15148W        W80375  28.529  44.258  12.530
15149W        W80376   9.317  24.561  12.438
15150W        W80377  25.990  42.599   0.961
15151W        W80378  11.529  20.714   4.264
15152W        W80379  28.118  16.288   4.134
15153W        W80380  35.269  29.304   0.418
15154W        W80381   5.063  28.966  14.258
15155W        W80382  37.560  38.006   3.096
15156W        W80383   1.414   1.525   0.765
15157W        W80384   5.389  39.300   4.555
15158W        W80385  36.542  29.091  11.153
15159W        W80386  18.186  16.033  12.087
15160W        W80387  40.966  43.753   3.301
15161W        W80388  44.455  42.468   0.074
15162W        W80389  19.160  39.970   3.101
15163W        W80390  11.614  20.384   0.507
15164W        W80391  29.604   6.318   0.943
15165W        W80392   2.437  26.112   2.874
15166W        W80393  26.968  13.835   1.677
15167W        W80394  14.373  38.478   0.779
15168W        W80395  16.445   1.796  11.586
15169W        W80396  15.078  31.168  14.945
15170W        W80397  44.264  26.821   3.412
15171W        W80398   7.384  43.815   4.419
15172W        W80399  14.558  40.103  11.225
15173W        W80400  23.823   6.330  11.721
15174W        W80401  22.289  42.993  14.782
15175W        W80402  15.261  27.953  13.053
15176W        W80403  20.715  37.048  14.368
15177W        W80404  21.381  33.431  12.026
15178W        W80405   9.724  22.137   0.488
15179W        W80406   6.171  16.300   4.492
15180W        W80407   1.920  24.286  12.508
15181W        W80408  30.996  43.462   4.699
15182W        W80409  15.076  40.320  12.109
15183W        W80410  16.249   9.909   3.503
15184W        W80411  43.356   0.505   3.727
15185W        W80412  28.583   0.998   0.858
15186W        W80413  40.847  39.593  10.788
15187W        W80414  13.160  26.612   2.678
15188W        W80415  38.357  33.007   2.163
15189W        W80416  23.481  42.970  11.010
15190W        W80417  40.338  14.713  10.703
15191W        W80418  30.490  37.346   3.153
15192W        W80419   1.807   7.194   1.564
15193W        W80420   3.888  30.562  12.541
15194W        W80421  16.765  35.124   2.168
15195W        W80422  30.180  33.430   0.337
15196W        W80423   0.537  42.719  11.959
15197W        W80424   9.898  23.924   4.017
15198W        W80425  32.955   4.650  13.971
15199W        W80426  10.981  44.556   1.925
15200W        W80427   0.078  16.585  14.826
15201W        W80428  13.897  38.863  14.409
15202W        W80429  20.958  43.247   1.469
15203W        W80430  31.092  29.914   1.077
15204W        W80431  42.123  21.993  13.493
15205W        W80432  34.057  30.390  14.075
15206W        W80433  33.683   4.723   1.026
15207W        W80434  38.050  29.109   4.140
15208W        W80435  36.267  27.927   3.696
15209W        W80436   5.392  10.336   4.186
15210W        W80437  37.390   4.951  14.036
15211W        W80438   8.238  26.127   1.199
15212W        W80439  33.430   7.196   1.859
15213W        W80440   5.974  24.083   4.784
15214W        W80441  24.503  41.635   4.084
15215W        W80442  26.156   4.317  12.596
15216W        W80443  22.561  19.662  12.073
15217W        W80444  19.148  24.954   4.814
15218W        W80445  32.903  32.498   0.591
15219W        W80446  35.767   3.611   2.647
15220W        W80447  19.674  17.769   4.622
15221W        W80448  18.725  33.798  11.948
15222W        W80449  33.978   5.201   1.803
15223W        W80450   9.403  37.622  11.999
15224W        W80451  16.049   9.907   3.010
15225W        W80452  19.591  12.125  12.338
15226W        W80453  25.747  27.109  12.497
15227W        W80454  36.952   3.042  13.072
15228W        W80455  36.084  14.794  13.465
15229W        W80456  25.156   1.586  11.209
15230W        W80457  28.109  22.985   3.058
15231W        W80458   5.175   1.357  13.624
15232W        W80459   8.957  29.837   4.635
15233W        W80460  40.687  24.232   4.976
15234W        W80461  20.670  12.190   2.311
15235W        W80462  35.756  16.151   0.156
15236W        W80463  42.764  42.742  13.503
15237W        W80464  20.323  13.677  14.469
15238W        W80465  10.766  20.721  10.836
15239W        W80466   8.777  35.840   1.146
15240W        W80467  35.851  35.497   2.243
15241W        W80468  14.741  20.643  13.517
15242W        W80469  41.982  33.935  12.878
15243W        W80470   8.775   1.239   2.853
15244W        W80471  13.489  42.706  10.342
15245W        W80472  42.517  42.706  12.049
15246W        W80473   2.508  15.622   0.426
15247W        W80474  16.186  43.535   4.652
15248W        W80475  25.186  11.576  14.567
15249W        W80476  34.996  44.946   2.104
15250W        W80477   1.614  42.161  10.815
15251W        W80478   1.196  41.969  13.158
15252W        W80479  29.762  26.723   1.889
15253W        W80480  31.789  29.510  10.371
15254W        W80481  22.573  38.618  13.345
15255W        W80482  15.833  43.115   2.324
15256W        W80483   2.270   2.828   2.677
15257W        W80484  24.484  15.536  11.005
15258W        W80485   1.627  30.225   2.296
15259W        W80486  39.105  43.763   3.209
15260W        W80487  13.992   6.077  14.299
15261W        W80488   9.910  27.847   3.403
15262W        W80489  41.351  35.867  11.757
15263W        W80490   3.102  37.128   1.825
15264W        W80491  35.007  13.014  14.813
15265W        W80492  34.057  42.135  11.236
15266W        W80493  20.660   0.832  12.018
15267W        W80494   6.791  23.633  12.113
15268W        W80495  12.135   6.992  12.570
15269W        W80496  20.731  30.348   1.059
15270W        W80497  38.318  41.252   1.195
15271W        W80498  43.945   5.332   4.141
15272W        W80499  10.409  42.251  12.521
15273W        W80500  33.213   7.137  12.027
15274W        W80501   3.745  39.861  14.015
15275W        W80502  31.171  31.337   0.469
15276W        W80503   1.887  16.182   2.682
15277W        W80504   0.524  38.563  11.930
15278W        W80505  19.785   9.824   2.728
15279W        W80506  15.493  35.974  13.460
15280W        W80507  19.422  35.182   2.310
15281W        W80508  34.411  20.591   4.333
15282W        W80509   9.156   8.427  12.467
15283W        W80510  16.577   9.295  13.877
15284W        W80511  40.553   9.576  12.527
15285W        W80512  22.549   7.888   2.417
15286W        W80513  35.886  30.542  11.989
15287W        W80514  11.738  16.145  12.486
15288W        W80515  27.008  14.923  14.798
15289W        W80516   2.513  28.753  12.829
15290W        W80517  12.673  37.764   4.488
15291W        W80518   8.421   0.689   0.327
15292W        W80519  25.787  15.095  13.082
15293W        W80520  43.842  27.129   3.432
15294W        W80521  11.342  42.524  11.772
15295W        W80522  17.903  19.815   4.089
15296W        W80523  25.085  10.399  12.830
15297W        W80524  14.748  29.423   1.829
15298W        W80525   5.267   9.276  10.643
15299W        W80526  35.035  17.043  12.930
15300W        W80527   3.498  27.541   0.345
15301W        W80528  16.153  26.354  13.263
15302W        W80529  10.693  21.767   2.526
15303W        W80530   8.199  41.490   2.334
15304W        W80531   9.695   8.791   4.776
15305W        W80532  25.019  17.019  10.784
15306W        W80533  33.624  43.505   0.323
15307W        W80534  26.964   4.199   2.677
15308W        W80535  18.763   7.534   0.806
15309W        W80536  23.557   3.436  12.199
15310W        W80537  39.935   0.099   1.145
15311W        W80538  38.786  17.371  12.924
15312W        W80539  35.058  14.621   5.047
15313W        W80540  37.592  11.902   2.661
15314W        W80541  41.247  10.215  13.598
15315W        W80542  20.962  39.986   3.055
15316W        W80543  18.658  22.161   1.705
15317W        W80544  18.431  10.234   3.781
15318W        W80545  18.231   9.713   2.040
15319W        W80546  38.927  44.894   3.790
15320W        W80547   5.140  15.279   0.011
15321W        W80548  18.559  43.020  13.035
15322W        W80549  31.586  30.044   1.364
15323W        W80550  41.861  22.533   3.305
15324W        W80551  19.185  44.481  14.659
15325W        W80552  25.509  24.589   3.098
15326W        W80553   1.222  35.881   2.855
15327W        W80554  18.809   6.807  11.505
15328W        W80555   0.294  29.186   3.644
15329W        W80556   9.373   9.379  14.436
15330W        W80557  42.486  22.697  13.783
15331W        W80558  33.574  28.941   1.483
15332W        W80559   5.739  33.385  14.458
15333W        W80560  30.214  21.110  14.979
15334W        W80561  34.020   1.873  14.559
15335W        W80562  35.649   9.961   1.323
15336W        W80563   3.637  26.142   1.330
15337W        W80564  37.337  22.752   4.680
15338W        W80565   2.384  24.214  12.741
15339W        W80566   2.541  16.158  13.387
15340W        W80567  35.696   3.191   2.294
15341W        W80568  22.707  28.518   4.574
15342W        W80569  42.346  22.727  12.333
15343W        W80570  37.653  40.810  14.417
15344W        W80571  24.973  11.350   0.501
15345W        W80572   9.139   1.616  13.541
15346W        W80573  32.595  22.935  12.514
15347W        W80574  14.305  32.829  11.914
15348W        W80575   5.916  36.402   1.329
15349W        W80576  24.694   5.351   4.480
15350W        W80577  21.264   2.325   4.901
15351W        W80578  11.057  37.043  11.935
15352W        W80579  21.343  10.854  11.499
15353W        W80580  20.878  23.565   3.161
15354W        W80581  29.683  37.802  12.975
15355W        W80582  15.037  39.218   3.694
15356W        W80583   0.035   5.239   1.278
15357W        W80584  23.597  25.975   0.337
15358W        W80585  23.278  36.096  13.997
15359W        W80586  39.824   1.794  12.469
15360W        W80587  35.570  33.824  10.621
15361W        W80588  26.179  17.799  14.514
15362W        W80589  41.542  36.896   2.539
15363W        W80590  17.881  38.560  12.027
15364W        W80591  25.936  38.769   1.846
15365W        W80592  11.903  34.434  11.601
15366W        W80593   5.885   6.243   2.836
15367W        W80594  33.049  21.815  10.709
15368W        W80595  25.533   1.971  14.831
15369W        W80596  22.173  14.131   3.780
15370W        W80597  33.755  12.812  13.467
15371W        W80598  30.831   2.410  12.536
15372W        W80599  29.199  37.027  12.513
15373W        W80600  12.382  14.415  11.081
15374W        W80601   8.617  11.985   1.727
15375W        W80602  24.459  18.153   2.554
15376W        W80603  17.597  13.769  12.510
15377W        W80604  31.394   2.699  11.950
15378W        W80605  34.699   3.146  13.504
15379W        W80606  27.943  44.376  13.458
15380W        W80607  25.983  23.462   4.099
15381W        W80608  17.814  40.691  11.995
15382W        W80609  36.961   1.744   1.780
15383W        W80610  30.572  13.950  13.400
15384W        W80611  33.351  16.692   1.850
15385W        W80612  10.169  12.831   2.091
15386W        W80613  43.945  36.950  12.347
15387W        W80614  16.667  35.981  13.771
15388W        W80615   3.776   5.537   1.822
15389W        W80616  32.559  12.187  13.438
15390W        W80617   6.307  28.306   5.029
15391W        W80618  37.102  36.333  12.873
15392W        W80619  13.035  42.017  11.022
15393W        W80620  35.551   4.231   3.807
15394W        W80621  36.868  16.369   4.483
15395W        W80622   6.044  44.721  13.457
15396W        W80623  35.506  30.712   4.117
15397W        W80624  14.684  21.683   4.501
15398W        W80625  22.565   0.567   2.636
15399W        W80626  14.521  41.511  13.738
15400W        W80627  32.075   3.476   4.168
15401W        W80628  36.383   7.866   4.277
15402W        W80629  35.935  43.755  13.417
15403W        W80630  15.737  35.578   0.681
15404W        W80631  40.339  22.689   1.185
15405W        W80632  29.852  43.275  11.181
15406W        W80633   6.358   2.474   0.680
15407W        W80634  21.589  33.635   0.486
15408W        W80635   9.638  12.409  11.455
15409W        W80636  25.978  12.743  11.002
15410W        W80637  25.716  36.395  13.917
15411W        W80638  30.858  36.956  12.919
15412W        W80639  42.225  38.517  11.011
15413W        W80640  24.529  33.674   2.268
15414W        W80641  25.435   4.398  14.458
15415W        W80642   2.284   9.611   2.296
15416W        W80643  29.092  30.239  14.255
15417W        W80644  24.163   5.546  12.130
15418W        W80645  19.135  34.385   2.215
15419W        W80646  44.480   5.474  12.403
15420W        W80647  14.896  17.121  12.638
15421W        W80648  42.117  14.796  12.995
15422W        W80649  32.755   8.162  11.167
15423W        W80650  41.992  18.688  11.186
15424W        W80651  33.144  12.658   3.681
15425W        W80652  10.911  27.688  12.469
15426W        W80653  27.646   9.742   2.091
15427W        W80654  33.151   9.794   2.810
15428W        W80655   4.017  10.767   0.863
15429W        W80656  16.655  24.521   1.360
15430W        W80657  19.889  10.154  10.455
15431W        W80658  21.139  36.647  11.519
15432W        W80659  29.518  12.693  14.258
15433W        W80660  31.784  33.263  14.475
15434W        W80661  19.236  14.632   1.926
15435W        W80662  36.301   1.730   3.138
15436W        W80663   1.686  16.278   4.147
15437W        W80664  29.872  42.654  12.000
15438W        W80665  10.146  12.546  12.792
15439W        W80666   4.977  25.565  14.059
15440W        W80667  40.099   2.038  12.867
15441W        W80668  10.436  35.938  12.937
15442W        W80669  25.537  11.930  11.478
15443W        W80670  30.076  13.204   1.836
15444W        W80671   8.251  11.442   2.158
15445W        W80672  14.740  18.477  14.905
15446W        W80673  16.554  22.077   3.246
15447W        W80674  43.445   8.820   5.016
15448W        W80675   2.326  44.128   1.339
15449W        W80676   5.812  10.594   0.310
15450W        W80677  33.857   8.672  11.218
15451W        W80678  19.341  31.749  11.648
15452W        W80679   7.916  29.121   3.614
15453W        W80680  23.592  12.510  11.698
15454W        W80681  22.845   6.420   1.773
15455W        W80682  37.092  35.048  10.717
15456W        W80683  20.539  27.211  10.669
15457W        W80684  43.920  36.071  11.216
15458W        W80685  43.603   5.094  12.860
15459W        W80686  13.163   7.606   1.850
15460W        W80687  36.484  29.666  13.518
15461W        W80688  43.434  17.340  12.550
15462W        W80689   1.249  43.285   0.476
15463W        W80690  10.947  11.361   0.236
15464W        W80691  26.430  40.724   4.974
15465W        W80692  24.071   0.670  14.728
15466W        W80693   9.461  12.316   9.616
15467W        W80694  27.761  36.225  10.674
15468W        W80695  23.725   7.999   4.327
15469W        W80696  34.587   0.712   4.240
15470W        W80697  29.977   2.919  12.218
15471W        W80698  20.938  43.745  13.123
15472W        W80699  30.077  40.272  11.492
15473W        W80700   6.847   3.707   0.806
15474W        W80701  42.075   8.787   4.733
15475W        W80702   9.236  25.105   4.730
15476W        W80703  35.406  36.075  11.429
15477W        W80704  34.490  30.414  13.458
15478W        W80705  30.206  28.648  13.406
15479W        W80706  40.341  15.954   2.343
15480W        W80707  37.624  29.743   3.620
15481W        W80708  17.222   8.867  10.772
15482W        W80709  10.863  40.743   1.101
15483W        W80710  44.908  14.788  12.500
15484W        W80711  10.608   8.142  12.570
15485W        W80712  19.622   6.614  13.964
15486W        W80713   1.893  41.731  12.110
15487W        W80714  31.650  36.953  11.706
15488W        W80715  11.298  16.093  14.352
15489W        W80716   6.834  21.577  11.927
15490W        W80717   4.626   4.452  11.633
15491W        W80718  10.228   3.604  13.741
15492W        W80719  22.435  16.258  12.960
15493W        W80720  36.367  21.072  13.907
15494W        W80721  27.143  18.904   1.325
15495W        W80722  10.332   4.280  12.905
15496W        W80723  42.795  34.446   0.121
15497W        W80724  19.675  22.596   0.351
15498W        W80725  23.396  35.622  14.210
15499W        W80726  19.024  37.149  11.552
15500W        W80727  29.190  12.329   5.528
15501W        W80728  30.734  31.415   2.213
15502W        W80729  42.784  38.480   3.211
15503W        W80730  33.297  30.628   3.610
15504W        W80731  28.907  27.022   3.554
15505W        W80732  15.671  25.146   0.989
15506W        W80733  38.987  23.344   3.875
15507W        W80734  30.569  24.514  13.955
15508W        W80735  32.874   9.422   1.965
15509W        W80736  17.042   4.957  13.129
15510W        W80737   7.734  34.047  11.136
15511W        W80738  40.559  44.580   4.096
15512W        W80739   6.693   7.861  11.383
15513W        W80740  44.643  42.728   4.666
15514W        W80741  14.129  30.457   4.024
15515W        W80742   2.315  21.468   3.692
15516W        W80743   2.835  24.590  14.543
15517W        W80744  30.447  30.709   2.734
15518W        W80745   7.874  24.601   4.860
15519W        W80746  19.047   6.376  12.102
15520W        W80747  40.891   3.321   2.435
15521W        W80748  31.025   4.626   0.357
15522W        W80749  13.597  37.345   0.434
15523W        W80750  40.677  42.320  14.402
15524W        W80751  14.093  10.103   4.014
15525W        W80752   3.213   9.954  10.660
15526W        W80753   1.047  32.475  14.998
15527W        W80754  14.906  34.014  12.201
15528W        W80755  28.453  21.084  12.419
15529W        W80756   3.629  23.960  10.308
15530W        W80757  44.033  18.900  14.763
15531W        W80758  30.588  41.051  14.420
15532W        W80759  34.876  12.835  12.302
15533W        W80760  17.690  28.222  11.532
15534W        W80761  28.126  14.553  13.823
15535W        W80762  20.149  27.921   3.669
15536W        W80763   1.729   6.195   1.382
15537W        W80764  15.717   1.453  12.861
15538W        W80765  30.447   1.430  12.420
15539W        W80766  14.760  16.349  13.322
15540W        W80767  16.564  15.117   1.715
15541W        W80768   3.648   1.842   0.192
15542W        W80769  14.331   0.155  10.698
15543W        W80770   9.836  27.072   3.298
15544W        W80771  43.188  30.356  13.438
15545W        W80772  10.438  10.210  13.562
15546W        W80773  15.599  16.596   3.069
15547W        W80774  42.290  39.422   0.402
15548W        W80775  20.965  44.898  13.440
15549W        W80776  36.357   6.686  13.396
15550W        W80777  36.830  25.443   1.273
15551W        W80778  37.372  10.250   1.852
15552W        W80779  15.548  35.279  10.555
15553W        W80780  19.847   5.157   1.266
15554W        W80781  43.920  14.212  10.802
15555W        W80782  22.805  33.610   5.222
15556W        W80783  21.584  12.579   3.983
15557W        W80784  24.929  38.505  13.982
15558W        W80785  34.017  41.736  13.448
15559W        W80786  44.165  38.651   2.116
15560W        W80787   3.563  26.184  10.946
15561W        W80788   7.975  18.834  13.376
15562W        W80789  44.402  40.024   5.274
15563W        W80790  16.350  13.297   3.282
15564W        W80791   0.673   4.847  11.646
15565W        W80792  21.036  17.485  13.016
15566W        W80793  25.650  21.729  11.227
15567W        W80794  36.405  13.548   0.407
15568W        W80795  37.593  33.456  11.740
15569W        W80796   8.876  12.771  13.995
15570W        W80797  35.071  10.157   1.012
15571W        W80798  10.490   8.274   0.706
15572W        W80799  28.638   8.585  12.804
15573W        W80800   7.808  12.749  11.918
15574W        W80801  22.258  39.781   4.056
15575W        W80802  34.897   9.686   0.736
15576W        W80803  36.384  25.097   0.032
15577W        W80804  35.898  14.273  12.539
15578W        W80805  25.685   7.845   4.056
15579W        W80806  27.182  22.795   3.361
15580W        W80807  36.177  39.407  11.096
15581W        W80808  32.150   9.181   3.967
15582W        W80809  20.766  27.252  14.901
15583W        W80810  16.284  21.317   2.072
15584W        W80811   9.123  17.785   2.721
15585W        W80812  14.594  13.252   3.734
15586W        W80813   7.944  43.953   1.294
15587W        W80814  15.102   1.132  11.217
15588W        W80815  41.913  43.612  13.951
15589W        W80816   8.476  41.492  14.107
15590W        W80817   0.413  31.040  13.604
15591W        W80818  35.311  35.650  10.661
15592W        W80819  19.267  15.040  10.516
15593W        W80820  17.019  22.993  10.642
15594W        W80821  28.251  37.458   2.523
15595W        W80822   4.818  37.001   0.385
15596W        W80823  30.181   6.490  13.423
15597W        W80824  36.707   8.299  11.118
15598W        W80825  36.479  26.482  10.685
15599W        W80826  44.043  41.825   2.788
15600W        W80827  38.318  18.413   3.714
15601W        W80828  36.533   4.068  11.454
15602W        W80829  28.722  43.073  10.621
15603W        W80830   1.459  21.326   2.135
15604W        W80831  13.847  44.270   3.420
15605W        W80832   4.970  14.821  14.840
15606W        W80833  41.084  31.872  11.084
15607W        W80834  11.877  12.217  13.388
15608W        W80835   1.782  30.979  14.008
15609W        W80836  42.848  11.703  10.403
15610W        W80837  35.494  32.907  12.785
15611W        W80838  42.016  26.020  13.026
15612W        W80839   6.887   4.920  11.595
15613W        W80840  12.172  16.657  10.672
15614W        W80841  34.616   1.226   4.139
15615W        W80842  18.416  33.575   1.283
15616W        W80843  43.306  29.436   2.501
15617W        W80844  20.750  34.851   5.000
15618W        W80845  21.275  43.114   4.932
15619W        W80846  17.490  43.099   2.718
15620W        W80847  11.701   8.270  11.568
15621W        W80848  17.617   2.278  11.585
15622W        W80849   8.812  35.985  12.409
15623W        W80850  19.464  17.212   0.761
15624W        W80851  32.734  39.051   1.468
15625W        W80852  32.080   3.353   0.754
15626W        W80853   3.306  18.341  11.596
15627W        W80854  13.601  29.942  14.780
15628W        W80855  30.358  24.174   3.325
15629W        W80856  18.821   2.627  10.685
15630W        W80857  15.635  17.420  11.965
15631W        W80858  19.434  27.867   0.415
15632W        W80859   1.862  24.579  10.758
15633W        W80860   6.451  29.031  13.869
15634W        W80861  36.557  26.142   3.157
15635W        W80862  33.096  41.836  12.132
15636W        W80863  27.427   7.332   4.086
15637W        W80864  37.535  35.969   1.459
15638W        W80865  24.603  44.971  14.940
15639W        W80866   8.335   4.696   2.477
15640W        W80867   9.121  23.912  11.127
15641W        W80868  38.927  34.204  14.279
15642W        W80869  39.564  15.555   4.132
15643W        W80870  17.291  32.658  10.713
15644W        W80871   4.748  41.997   4.438
15645W        W80872  34.725  18.726   2.855
15646W        W80873  20.337  33.206  11.081
15647W        W80874  39.905  14.208   4.177
15648W        W80875  14.017  29.612   1.175
15649W        W80876  15.359  20.674  11.852
15650W        W80877  21.421  24.773  12.000
15651W        W80878   1.296   5.676   0.738
15652W        W80879  24.942  27.182  13.116
15653W        W80880  17.611  14.592   2.772
15654W        W80881  43.887  17.316  12.107
15655W        W80882   0.184  43.824   2.300
15656W        W80883  18.504  34.021   2.879
15657W        W80884  28.981   8.751   0.801
15658W        W80885  33.411  27.736   0.838
15659W        W80886   7.930   7.661   2.157
15660W        W80887  33.597   4.860   1.911
15661W        W80888  44.061  29.145   4.464
15662W        W80889  22.394  24.412   3.363
15663W        W80890   9.591  33.209   2.978
15664W        W80891  17.048   5.923  13.958
15665W        W80892   6.116  44.335   2.794
15666W        W80893  21.173   4.917  14.959
15667W        W80894   8.137  43.728  11.474
15668W        W80895  27.490  16.555  10.614
15669W        W80896   1.920  27.718  11.267
15670W        W80897  37.915   4.688  11.121
15671W        W80898   9.752  22.299   0.994
15672W        W80899   5.750  22.068   0.976
15673W        W80900   6.129   2.357  14.401
15674W        W80901  39.637  39.070   3.877
15675W        W80902  32.781   0.393   0.494
15676W        W80903  44.292  40.197   3.672
15677W        W80904  11.017  41.091   0.339
15678W        W80905   8.271  10.202  11.457
15679W        W80906  19.168  39.895   1.269
15680W        W80907  34.077  17.253  11.007
15681W        W80908   3.014  12.783   0.751
15682W        W80909  42.510  14.145  11.587
15683W        W80910  35.429   1.973   2.678
15684W        W80911  32.303  37.111   2.813
15685W        W80912  37.957  35.131   0.322
15686W        W80913  20.997   4.888  12.041
15687W        W80914  23.792  15.720  11.508
15688W        W80915  12.822  13.680   2.252
15689W        W80916  14.281   9.357   0.143
15690W        W80917  15.568  33.378  11.987
15691W        W80918  38.534  24.511   0.767
15692W        W80919  39.807  38.589   0.791
15693W        W80920  19.886  23.240   3.700
15694W        W80921  39.227  20.263   1.395
15695W        W80922  41.975  29.720  13.079
15696W        W80923  40.374   9.368   0.441
15697W        W80924   0.899   7.705   4.149
15698W        W80925   3.793  25.478   4.355
15699W        W80926  13.335  35.098   1.679
15700W        W80927  26.608   7.925   4.033
15701W        W80928   9.308  39.686   2.237
15702W        W80929  17.218  36.465   2.854
15703W        W80930   4.379  10.321   1.810
15704W        W80931  38.876  35.279   1.111
15705W        W80932  37.329  43.833  13.258
15706W        W80933  19.926  43.027  13.772
15707W        W80934  40.655  32.410  10.702
15708W        W80935  12.256  34.358   1.717
15709W        W80936  14.092  23.676   3.248
15710W        W80937  10.640  13.218  12.488
15711W        W80938  37.720  38.165  12.848
15712W        W80939  23.394   9.737   4.829
15713W        W80940  34.566  23.991  14.983
15714W        W80941   2.977  12.496  14.221
15715W        W80942  36.386  33.355   2.335
15716W        W80943  32.488  36.341  13.055
15717W        W80944  39.876  44.505   3.692
15718W        W80945   9.192  25.081   1.451
15719W        W80946  39.805  10.991  11.669
15720W        W80947  21.132  28.106  14.347
15721W        W80948  19.091  36.611   4.173
15722W        W80949  42.002  40.624  12.541
15723W        W80950  35.003  30.195  12.806
15724W        W80951   8.618   6.295  11.078
15725W        W80952  19.249  29.488   2.355
15726W        W80953  21.952   7.523  11.505
15727W        W80954  25.079  43.379  11.125
15728W        W80955  19.795   5.198  12.946
15729W        W80956  30.413  32.721   4.584
15730W        W80957  21.062   0.397  13.621
15731W        W80958   6.142  35.990  12.481
15732W        W80959  26.859  41.914   4.210
15733W        W80960  43.795  21.065   2.353
15734W        W80961  20.099  24.124   3.608
15735W        W80962  12.604   5.287   2.384
15736W        W80963  31.173  23.467  11.159
15737W        W80964   1.958  12.789   0.931
15738W        W80965  21.061  30.384   3.134
15739W        W80966   9.562  16.968   1.693
15740W        W80967  43.768   8.771   3.212
15741W        W80968  14.348   1.183  14.051
15742W        W80969  26.811  28.078  12.478
15743W        W80970  24.882  40.418  14.391
15744W        W80971  41.404  25.092  11.668
15745W        W80972  31.157  39.952  14.805
15746W        W80973  12.412  22.883   3.328
15747W        W80974   4.020  33.258  12.058
15748W        W80975  21.264  24.996   4.097
15749W        W80976  30.713  22.794  13.123
15750W        W80977  36.915  15.182  11.621
15751W        W80978  29.236  35.039   1.821
15752W        W80979  41.752  39.498  13.436
15753W        W80980   9.382  30.456   0.946
15754W        W80981  14.137   7.140   1.641
15755W        W80982   1.462  27.433   4.279
15756W        W80983  12.669   2.248  14.490
15757W        W80984  36.739  29.842  12.680
15758W        W80985  16.606   3.874   3.639
15759W        W80986  12.539  30.088  11.547
15760W        W80987   5.758   8.505  13.199
15761W        W80988  13.800  42.290   2.906
15762W        W80989  29.723  12.349   1.718
15763W        W80990  37.338   0.062   0.636
15764W        W80991  15.688  30.780   4.985
15765W        W80992  13.303  36.807   3.721
15766W        W80993  17.180   1.033  14.939
15767W        W80994  18.849  27.555  11.664
15768W        W80995   9.833  12.690  13.598
15769W        W80996  36.052  11.280  11.830
15770W        W80997  21.427  40.304  12.332
15771W        W80998  33.759  40.662   3.213
15772W        W80999   8.411  28.678   1.513
15773W        W81000  37.803  44.283  14.644
15774W        W81001   4.277  10.328   4.212
15775W        W81002  16.435  34.875  12.236
15776W        W81003  21.145  32.491  14.439
15777W        W81004   4.443  10.695  10.781
15778W        W81005  17.574   8.367  12.986
15779W        W81006  29.843   9.824  12.536
15780W        W81007  36.919  29.670  11.247
15781W        W81008  25.811  34.477   3.507
15782W        W81009   2.201  11.815   4.641
15783W        W81010  28.553   5.850   0.485
15784W        W81011  22.422  19.295   0.864
15785W        W81012  11.108  27.684   3.601
15786W        W81013   8.380  11.235  14.366
15787W        W81014  10.119   0.731  12.098
15788W        W81015  23.512  30.040  12.991
15789W        W81016  11.106  44.056  12.907
15790W        W81017  36.207  40.348  10.547
15791W        W81018  23.037   6.789   4.588
15792W        W81019  22.095  19.458   2.642
15793W        W81020  17.345  25.993  11.457
15794W        W81021  25.767  30.474   4.642
15795W        W81022  18.292  35.408   1.427
15796W        W81023   4.339  19.735  11.508
15797W        W81024  31.379  10.978   1.890
15798W        W81025   1.661  16.202  11.301
15799W        W81026   7.146  21.246  10.753
15800W        W81027  26.986  34.459   2.164
15801W        W81028  25.207  38.122  12.951
15802W        W81029   6.784  18.079   3.741
15803W        W81030  41.757  28.145  12.127
15804W        W81031  21.564  22.516  10.686
15805W        W81032  29.290   8.362   2.676
15806W        W81033  40.227   3.935   4.470
15807W        W81034  34.461   3.565   4.580
15808W        W81035  44.723  15.187  11.558
15809W        W81036  17.487  21.359   1.449
15810W        W81037  23.113  13.021   0.878
15811W        W81038  10.414   4.255   4.254
15812W        W81039  38.059  44.433   3.761
15813W        W81040  39.797  15.393   1.837
15814W        W81041   0.319   8.410  11.098
15815W        W81042  30.163  25.260  11.685
15816W        W81043  25.757  39.503   0.265
15817W        W81044  26.084  32.963  13.971
15818W        W81045   6.219  44.103   0.574
15819W        W81046  43.267  23.321  13.506
15820W        W81047  26.433  12.868   3.315
15821W        W81048  30.329  33.285  12.951
15822W        W81049  41.503  25.116   2.746
15823W        W81050   2.406  20.051  14.767
15824W        W81051  18.643  15.707   0.663
15825W        W81052   2.325  24.510  14.561
15826W        W81053  31.650  37.816  12.528
15827W        W81054   7.204  20.699   1.675
15828W        W81055   1.436  33.631   3.814
15829W        W81056   8.315   7.387   3.770
15830W        W81057  44.842   6.285   3.629
15831W        W81058  18.625  28.359   4.283
15832W        W81059  36.810  32.769  12.437
15833W        W81060  26.477   8.315   4.333
15834W        W81061  34.364  37.272  14.916
15835W        W81062   9.041  10.444   0.416
15836W        W81063  23.568  24.951   4.538
15837W        W81064  23.234   1.310   0.303
15838W        W81065   9.705  37.926  11.521
15839W        W81066  40.914  26.019   4.320
15840W        W81067  14.889  44.365   2.598
15841W        W81068   5.714  11.707  11.915
15842W        W81069   1.291  12.297  11.145
15843W        W81070  26.533  44.879   4.514
15844W        W81071  37.461   8.636  12.751
15845W        W81072  12.810  17.339   4.226
15846W        W81073  12.246  25.117   3.385
15847W        W81074  11.845   5.100  12.503
15848W        W81075   0.454  37.955   4.241
15849W        W81076   1.710  24.659  14.071
15850W        W81077  12.765   5.681  10.625
15851W        W81078  18.280   7.383  12.303
15852W        W81079   0.485   0.793  14.354
15853W        W81080  27.374   0.087  12.274
15854W        W81081   9.273  29.156   3.635
15855W        W81082  42.927   8.368  10.844
15856W        W81083  24.155  37.721   2.264
15857W        W81084  44.501  25.996  14.478
15858W        W81085  10.075  14.325   2.879
15859W        W81086  33.317  24.291   0.839
15860W        W81087  38.147  31.330  13.025
15861W        W81088   9.644  32.835   3.346
15862W        W81089  25.422  30.617  11.671
15863W        W81090  37.313  41.937   3.709
15864W        W81091  30.101   8.141   0.031
15865W        W81092  28.031  41.755  13.440
15866W        W81093  31.602  19.129  13.548
15867W        W81094  14.412  31.645   0.746
15868W        W81095   1.807   9.318   4.507
15869W        W81096  39.213  35.336  13.535
15870W        W81097  16.888  31.096  11.558
15871W        W81098  35.493   2.001   0.461
15872W        W81099  13.788  42.543  11.511
15873W        W81100   5.205  22.926  11.265
15874W        W81101   4.145  34.802  13.925
15875W        W81102  20.128  20.380  12.414
15876W        W81103  29.224   9.957  12.000
15877W        W81104  18.538  11.646   3.837
15878W        W81105  41.608  17.899   1.218
15879W        W81106  27.212  14.308   1.640
15880W        W81107   4.295  33.907  12.537
15881W        W81108  19.965  35.585  11.327
15882W        W81109  10.223  11.337   3.299
15883W        W81110   9.993  11.833   1.355
15884W        W81111  16.892  44.478  12.540
15885W        W81112  21.006  34.804  14.207
15886W        W81113  32.252   4.880   3.469
15887W        W81114   8.178  38.324   0.808
15888W        W81115  43.720  11.802   2.481
15889W        W81116   5.952  39.856  13.009
15890W        W81117  16.577  19.341   2.750
15891W        W81118  18.165   3.180   0.798
15892W        W81119  19.258  40.784  11.660
15893W        W81120  16.109  43.400  11.474
15894W        W81121  38.183  34.330   2.026
15895W        W81122  38.883  42.378   4.119
15896W        W81123  34.570  10.248  11.683
15897W        W81124   6.548  37.109  11.152
15898W        W81125  30.844  29.441  11.682
15899W        W81126   4.393   0.794   0.730
15900W        W81127   6.861  35.394  13.471
15901W        W81128  24.436  32.072  13.864
15902W        W81129  20.756  15.846   0.243
15903W        W81130  22.072  10.129  14.812
15904W        W81131  34.709  19.567  13.337
15905W        W81132   4.430  13.581  10.511
15906W        W81133  32.822  19.489  12.133
15907W        W81134   5.403   0.504   3.628
15908W        W81135  11.609  21.648   2.801
15909W        W81136   4.973  20.710  12.639
15910W        W81137  39.896  15.060   4.594
15911W        W81138   9.493   6.107  14.432
15912W        W81139  33.110  12.221  13.501
15913W        W81140  15.619  43.105   4.109
15914W        W81141  38.971   0.710  11.687
15915W        W81142   2.392  29.740  10.657
15916W        W81143  27.633   2.403   4.556
15917W        W81144   7.426  35.853   2.742
15918W        W81145  40.982  13.673  13.630
15919W        W81146  27.196  20.592  14.309
15920W        W81147   1.883  42.965  13.763
15921W        W81148  13.787   7.262  14.024
15922W        W81149  35.431  34.420  11.503
15923W        W81150  30.997  28.625  11.122
15924W        W81151  31.774  38.756   5.278
15925W        W81152  36.569  11.927   2.390
15926W        W81153   6.801   3.394  10.352
15927W        W81154  23.805  30.459  13.814
15928W        W81155   4.649  42.185  12.078
15929W        W81156   6.761   5.375   1.873
15930W        W81157   2.379  43.096  14.934
15931W        W81158  32.054  41.250   0.410
15932W        W81159  33.053  17.683  14.037
15933W        W81160   6.091  38.551  11.179
15934W        W81161  36.622   9.036   2.662
15935W        W81162  43.063  16.657  11.502
15936W        W81163  34.761  20.568  12.011
15937W        W81164   6.475  16.795   1.455
15938W        W81165   5.916  41.217   3.141
15939W        W81166  42.823  36.511   4.601
15940W        W81167  14.375  15.198   2.649
15941W        W81168  20.760  44.454  13.627
15942W        W81169  10.775  29.374  12.321
15943W        W81170   8.876   0.564   0.036
15944W        W81171  10.886  18.136  10.663
15945W        W81172  10.430   2.967  14.845
15946W        W81173  43.927  24.719   4.600
15947W        W81174   1.375  32.962   0.472
15948W        W81175  13.023   3.985  13.987
15949W        W81176   0.553  14.531   3.861
15950W        W81177  26.056  26.839   3.842
15951W        W81178  24.956  13.228   4.534
15952W        W81179   3.708  36.688  13.910
15953W        W81180  14.588   3.906   4.265
15954W        W81181  12.924  36.265   4.407
15955W        W81182  44.839  33.986  13.316
15956W        W81183  31.967  37.755   9.909
15957W        W81184   6.242   7.976   1.448
15958W        W81185   5.413  12.343   1.338
15959W        W81186   8.548  36.761  13.800
15960W        W81187   9.346   0.161   0.228
15961W        W81188  21.157  43.331   3.746
15962W        W81189   9.849   0.711   0.421
15963W        W81190  40.505  26.445  14.950
15964W        W81191  24.276  35.893   0.417
15965W        W81192  33.019  33.339   2.581
15966W        W81193  41.629  22.424  12.373
15967W        W81194   1.952  17.503   2.126
15968W        W81195  28.675  30.225  13.936
15969W        W81196  33.092  41.305  14.391
15970W        W81197  29.598  32.230  14.764
15971W        W81198  37.933   7.942  11.153
15972W        W81199  38.332  19.716  11.621
15973W        W81200  12.099   8.584  11.941
15974W        W81201   5.995   6.757   2.630
15975W        W81202  37.840  14.026  12.108
15976W        W81203  27.456  34.469   3.614
15977W        W81204  42.878  21.217   4.138
15978W        W81205   6.906  44.750   0.735
15979W        W81206  42.631  21.695  10.750
15980W        W81207   0.388  44.832   0.511
15981W        W81208   5.268  11.820  12.178
15982W        W81209  37.077  17.830  14.213
15983W        W81210  12.671  42.465  12.142
15984W        W81211  25.106  22.706  12.507
15985W        W81212  20.257   2.263  14.704
15986W        W81213  35.165   4.380  11.608
15987W        W81214   2.369  19.068  10.001
15988W        W81215  21.505  24.081  11.466
15989W        W81216  25.132  28.464   3.603
15990W        W81217  36.423  13.143  13.929
15991W        W81218  28.644  30.054  12.074
15992W        W81219  22.108  22.243  13.045
15993W        W81220  29.079  31.370  11.709
15994W        W81221  15.857  28.597   0.784
15995W        W81222  29.863  23.560  10.619
15996W        W81223  38.392  14.824   1.779
15997W        W81224  34.453  11.389   1.232
15998W        W81225   6.292  15.536  12.897
15999W        W81226  16.159  15.166   4.185
16000W        W81227   7.414  21.624  14.822
16001W        W81228  25.739  29.928  13.709
16002W        W81229  44.061  37.908   2.794
16003W        W81230  13.898  31.844   5.363
16004W        W81231   8.183  36.472  11.033
16005W        W81232   7.618  12.319  13.136
16006W        W81233  37.965  27.456   4.186
16007W        W81234  15.106  25.906  13.006
16008W        W81235  17.051  12.148  10.625
16009W        W81236  13.319  39.897   0.699
16010W        W81237  32.425   9.581   1.723
16011W        W81238   3.249  13.629   0.424
16012W        W81239  21.146   3.697   0.570
16013W        W81240  10.681  15.152  13.376
16014W        W81241  34.556   1.708  11.485
16015W        W81242  26.785  23.479   5.164
16016W        W81243  22.497  27.241  10.840
16017W        W81244   2.831  18.525   3.590
16018W        W81245  43.619  30.812  12.954
16019W        W81246   5.194   0.503  11.503
16020W        W81247  16.196   1.287  11.276
16021W        W81248  27.091  10.318   1.342
16022W        W81249  17.272  44.532  10.749
16023W        W81250  39.914  17.556  12.518
16024W        W81251  18.258  33.058   2.359
16025W        W81252   9.518  41.310  13.933
16026W        W81253  23.790  43.312   1.335
16027W        W81254  34.143  10.617  12.572
16028W        W81255   8.215  12.230  11.231
16029W        W81256  26.377  25.737  11.027
16030W        W81257  18.135  24.115   4.560
16031W        W81258  39.555  28.146   0.429
16032W        W81259  29.381  37.038   0.308
16033W        W81260  26.959  20.766   3.932
16034W        W81261  32.457  36.311  12.032
16035W        W81262  26.981  41.435   4.883
16036W        W81263  13.954  24.535   3.752
16037W        W81264   8.774  10.907  13.073
16038W        W81265  12.838  37.571   2.770
16039W        W81266  34.870  18.187  12.035
16040W        W81267  37.110  16.966   3.484
16041W        W81268  12.145   4.340   2.078
16042W        W81269  39.933  25.238  13.252
16043W        W81270   9.940   0.383   4.206
16044W        W81271  13.605  27.134   2.849
16045W        W81272  10.827  10.426  13.322
16046W        W81273  41.864   4.877   1.176
16047W        W81274  17.756   0.234  13.517
16048W        W81275  17.600  21.335  13.420
16049W        W81276  26.105  34.429  10.801
16050W        W81277  25.064   3.295   3.224
16051W        W81278  26.962  15.883  14.989
16052W        W81279  33.184   8.652  12.797
16053W        W81280  42.247   3.723  14.957
16054W        W81281   0.340  15.316  13.096
16055W        W81282   7.192  35.316   0.415
16056W        W81283   8.140  13.903  13.978
16057W        W81284  15.497  21.199   4.625
16058W        W81285  16.689   9.906  10.736
16059W        W81286  33.542  39.723  11.904
16060W        W81287  24.583  22.073  14.795
16061W        W81288  13.523   4.494   0.673
16062W        W81289  43.832  28.172   2.359
16063W        W81290  28.107  26.093   3.501
16064W        W81291  15.998  10.787  13.431
16065W        W81292  19.074  28.498  13.804
16066W        W81293  17.407  32.922   0.669
16067W        W81294  18.078  41.584   2.543
16068W        W81295   5.277  19.965  13.169
16069W        W81296  28.231   4.864   4.197
16070W        W81297  20.005  34.316  12.052
16071W        W81298  11.016  24.045  12.992
16072W        W81299  35.985  43.714   4.617
16073W        W81300  37.268  15.263  13.851
16074W        W81301  25.376  38.554  12.690
16075W        W81302   5.917   4.874   9.753
16076W        W81303   6.323  28.216   3.328
16077W        W81304   2.060   2.260   3.117
16078W        W81305  30.830  29.237   4.999
16079W        W81306  22.882  35.477   2.861
16080W        W81307  12.393  19.803   0.336
16081W        W81308  10.058   4.004   2.176
16082W        W81309  31.632  19.426  14.475
16083W        W81310  26.100  42.559   0.467
16084W        W81311   0.285  40.041   2.387
16085W        W81312  38.545  38.249  14.911
16086W        W81313   8.655  44.808   3.589
16087W        W81314  20.827  32.885   4.394
16088W        W81315  43.050  17.152   4.561
16089W        W81316   1.968   0.310  14.033
16090W        W81317  24.763  25.075  14.932
16091W        W81318  10.328  31.605   1.267
16092W        W81319  21.900  42.560   4.064
16093W        W81320   9.557  33.462   2.169
16094W        W81321  41.266  32.551   2.308
16095W        W81322  17.437  39.982   4.216
16096W        W81323  13.830  28.366   3.226
16097W        W81324  14.150  44.376   0.065
16098W        W81325  41.392  34.224   0.449
16099W        W81326  27.305   7.564   2.972
16100W        W81327   9.849   8.960  12.990
16101W        W81328  36.016  24.154   1.519
16102W        W81329  39.069   3.994  10.247
16103W        W81330  29.638  23.092   1.591
16104W        W81331   8.582  33.180   2.128
16105W        W81332  24.452  26.713  11.578
16106W        W81333  40.455  18.995  14.944
16107W        W81334  20.604   2.970   9.886
16108W        W81335  26.508   6.812   0.825
16109W        W81336   3.168  30.027   5.265
16110W        W81337   3.178  17.517  13.478
16111W        W81338  17.101  10.446   4.854
16112W        W81339  24.966   1.948  12.597
16113W        W81340  10.804  12.185   3.192
16114W        W81341   5.221   2.380   2.293
16115W        W81342  23.382  17.168  11.218
16116W        W81343  27.385  42.394   2.409
16117W        W81344  32.693  30.341  11.986
16118W        W81345   9.130  33.555   3.844
16119W        W81346  44.546  10.365  13.574
16120W        W81347  13.287  38.494  10.696
16121W        W81348  13.871  34.070  10.704
16122W        W81349   2.363  36.438   0.310
16123W        W81350  38.074  10.692   0.371
16124W        W81351   0.532  15.108  11.161
16125W        W81352  11.345  31.666   5.004
16126W        W81353   5.749   2.443   2.326
16127W        W81354  11.592   7.417   3.142
16128W        W81355  12.304   8.053  14.227
16129W        W81356   5.808   0.459   3.262
16130W        W81357   2.229  17.882  12.838
16131W        W81358  35.889  28.647  13.308
16132W        W81359  44.563  22.186  13.205
16133W        W81360  11.293  41.560  14.022
16134W        W81361  17.885  28.578   1.261
16135W        W81362  43.716  39.851   3.782
16136W        W81363  22.429  21.452   4.885
16137W        W81364  36.891  39.997  14.325
16138W        W81365  10.410  35.473   3.214
16139W        W81366  25.109  26.011   2.607
16140W        W81367  13.619  33.077  14.663
16141W        W81368   4.857  40.810   0.622
16142W        W81369  32.765  32.163  12.332
16143W        W81370  30.988  33.127  11.688
16144W        W81371  31.481  34.042  10.667
16145W        W81372  34.062   9.822  14.844
16146W        W81373   5.604  23.343   1.448
16147W        W81374   4.627  24.191   1.200
16148W        W81375  14.165  14.081  12.147
16149W        W81376  24.194  10.393  12.977
16150W        W81377   9.788  14.168   1.944
16151W        W81378  40.916  38.562   4.384
16152W        W81379  24.676  21.190   0.840
16153W        W81380  31.579  25.605   4.811
16154W        W81381  11.198   5.831   4.878
16155W        W81382  11.857  15.125   2.288
16156W        W81383  13.181  35.999  10.306
16157W        W81384  25.802  19.990  13.587
16158W        W81385  37.998  28.533  11.942
16159W        W81386  40.941  13.864  10.687
16160W        W81387  40.461  33.822   1.242
16161W        W81388  33.439  38.039  13.962
16162W        W81389  28.377  15.608   3.631
16163W        W81390  35.520   9.829  14.490
16164W        W81391  13.585  28.236  12.057
16165W        W81392  16.285  11.069  14.689
16166W        W81393  38.369  34.690   2.348
16167W        W81394  34.115   3.747   0.374
16168W        W81395  34.574  43.870   4.568
16169W        W81396  20.146  23.104   1.715
16170W        W81397  24.498  17.260   1.802
16171W        W81398  41.182  19.166   0.225
16172W        W81399   8.590  22.079   4.224
16173W        W81400  27.644  44.569   4.123
16174W        W81401  44.774  37.329   4.113
16175W        W81402   1.788  30.688   3.170
16176W        W81403  12.540   9.766  12.579
16177W        W81404  22.308   0.189   2.320
16178W        W81405   0.381  38.531   2.933
16179W        W81406  39.899  30.062   3.784
16180W        W81407  37.893  34.508  10.504
16181W        W81408  14.766   1.350   1.236
16182W        W81409  38.609  28.982   2.819
16183W        W81410  34.784  20.478   0.346
16184W        W81411   9.138  11.231   2.612
16185W        W81412  26.430  31.745   0.876
16186W        W81413  35.545  18.729   3.329
16187W        W81414  24.193  33.453   1.927
16188W        W81415  24.287  23.533  14.129
16189W        W81416  10.546  16.263   2.833
16190W        W81417   2.134  28.704  14.884
16191W        W81418  23.563  31.315   3.587
16192W        W81419   6.175  14.668  10.816
16193W        W81420  24.247   5.076   4.476
16194W        W81421  15.830  42.403  11.311
16195W        W81422  19.439  43.714  14.861
16196W        W81423  17.089   7.584   3.259
16197W        W81424   7.088  31.955   3.317
16198W        W81425   5.462   0.892  10.576
16199W        W81426  36.128  39.991   1.162
16200W        W81427  44.720  22.072   1.254
16201W        W81428  29.528   6.365  13.455
16202W        W81429  24.241  20.837   4.118
16203W        W81430  31.851  15.775  10.781
16204W        W81431  44.004  22.593   0.051
16205W        W81432  28.629  16.912   0.388
16206W        W81433  30.966  11.040  13.132
16207W        W81434  42.008   4.946   0.678
16208W        W81435   2.833   5.359  12.451
16209W        W81436  27.198  34.097  11.247
16210W        W81437  30.416  33.982  12.397
16211W        W81438  25.442  42.329  12.311
16212W        W81439  14.366  36.347  12.033
16213W        W81440  29.248  10.179  10.710
16214W        W81441  40.472  32.902   1.387
16215W        W81442  14.820  31.016  11.666
16216W        W81443   8.325  28.105   2.763
16217W        W81444  31.403  23.906   1.193
16218W        W81445   0.748  14.531   2.349
16219W        W81446  43.760  22.063   3.834
16220W        W81447   7.559  14.143   2.675
16221W        W81448  12.432  40.474   3.595
16222W        W81449  20.887  19.397  10.841
16223W        W81450  32.289   2.866  11.950
16224W        W81451  11.384  26.057  14.373
16225W        W81452  18.755  30.838   0.282
16226W        W81453  12.741  44.939  13.371
16227W        W81454  18.140  24.635  12.082
16228W        W81455   8.199  13.521  12.053
16229W        W81456  23.315  10.791  13.503
16230W        W81457   6.222  16.745  14.296
16231W        W81458  38.468   3.865   3.975
16232W        W81459   4.169  20.821   0.690
16233W        W81460  10.951  43.789  10.690
16234W        W81461  28.530   0.258  13.336
16235W        W81462  18.179   4.063  14.290
16236W        W81463   2.011  30.153   0.644
16237W        W81464  15.343  12.902  13.873
16238W        W81465  16.903  37.475  10.423
16239W        W81466  17.669   6.058   3.633
16240W        W81467  34.342  28.004  11.890
16241W        W81468  38.584  15.045   2.220
16242W        W81469  31.180   0.883  12.387
16243W        W81470  31.977  40.889   4.518
16244W        W81471  13.543   0.318  13.328
16245W        W81472  11.700  11.770   4.554
16246W        W81473  10.723  39.835   0.958
16247W        W81474  38.503  40.020   4.798
16248W        W81475  24.314   3.496   2.302
16249W        W81476  31.176  24.893  13.563
16250W        W81477   1.010  37.222  10.734
16251W        W81478  42.244  42.462   1.373
16252W        W81479  26.047  34.826  14.801
16253W        W81480  19.424   1.913  13.397
16254W        W81481  37.134  34.386   0.931
16255W        W81482   5.826   5.042   2.152
16256W        W81483   8.688  40.618  13.904
16257W        W81484  22.109   1.971  11.868
16258W        W81485  12.192  14.215  11.518
16259W        W81486   0.997  27.679   3.574
16260W        W81487  16.661   2.896   0.911
16261W        W81488  22.335  44.212   0.737
16262W        W81489  23.195  31.636  11.621
16263W        W81490   7.937  10.349   3.606
16264W        W81491  13.706  35.389  14.575
16265W        W81492  39.875  32.217  11.620
16266W        W81493  26.936  23.754  13.337
16267W        W81494  41.963  16.211  10.799
16268W        W81495  16.905  19.688   0.826
16269W        W81496  37.451   6.241   0.733
16270W        W81497  39.294  34.039   2.707
16271W        W81498  20.613  36.616  13.027
16272W        W81499  30.134   6.490   4.684
16273W        W81500   4.448  22.140   4.120
16274W        W81501  41.227  32.430   1.790
16275W        W81502  16.164  40.000   0.320
16276W        W81503  20.605  20.462  12.172
16277W        W81504   6.122   4.328  14.144
16278W        W81505   7.622  15.598  14.272
16279W        W81506  19.231  23.935   0.042
16280W        W81507  19.299  17.757  10.730
16281W        W81508  20.410  43.600  13.248
16282W        W81509  24.536  44.253   2.444
16283W        W81510  28.685  10.486  11.489
16284W        W81511  14.329  22.629  11.511
16285W        W81512  21.934  39.635  12.913
16286W        W81513  29.398   5.729   3.695
16287W        W81514  27.945  41.072   4.176
16288W        W81515  16.803  43.164   0.557
16289W        W81516  38.041  13.888  14.010
16290W        W81517  14.956  38.329  12.443
16291W        W81518  21.757  41.788  11.205
16292W        W81519  39.968   1.301   3.739
16293W        W81520  42.549  39.541   0.854
16294W        W81521   9.142   9.187  12.966
16295W        W81522  35.045  12.069  14.856
16296W        W81523  11.850  19.781  14.067
16297W        W81524  10.885  26.535  14.808
16298W        W81525  36.113  34.494  13.140
16299W        W81526  17.644  17.357  13.998
16300W        W81527  38.833   0.239  11.621
16301W        W81528  23.572   7.404  14.992
16302W        W81529   2.917   8.204   2.441
16303W        W81530  21.696  23.448  11.778
16304W        W81531   1.842  24.657   1.491
16305W        W81532   1.325  34.903   3.472
16306W        W81533  19.936   2.608  12.968
16307W        W81534   6.140   0.302   2.834
16308W        W81535   8.607  22.824   4.933
16309W        W81536  15.146  17.379  11.796
16310W        W81537  15.854  38.315   0.322
16311W        W81538  27.566   5.495  11.262
16312W        W81539  23.440   6.000  11.736
16313W        W81540  43.846  40.954  11.371
16314W        W81541  43.532  42.507  14.572
16315W        W81542  38.565   1.408   5.081
16316W        W81543   7.477  28.051   0.887
16317W        W81544  40.852  29.696  12.557
16318W        W81545  35.973  32.254   3.714
16319W        W81546   0.526   1.792   3.260
16320W        W81547   1.888   4.910  14.762
16321W        W81548  11.114  43.270   1.245
16322W        W81549   1.287   7.620   0.833
16323W        W81550  20.824   6.743   2.215
16324W        W81551  38.859  28.265  11.400
16325W        W81552  37.382  42.592  14.942
16326W        W81553  44.680  28.109  10.786
16327W        W81554  39.032  25.279   1.238
16328W        W81555   7.667  22.545  12.542
16329W        W81556   5.434  15.866  12.898
16330W        W81557  29.142   1.732   0.960
16331W        W81558  33.510   3.818   4.755
16332W        W81559  29.452   4.328  11.449
16333W        W81560  23.881   8.984   2.176
16334W        W81561   6.917  27.186   0.480
16335W        W81562   9.212   1.487   2.701
16336W        W81563  23.006  35.784   3.267
16337W        W81564   2.819  28.600   2.181
16338W        W81565  44.838  18.317   0.722
16339W        W81566  39.468  29.771   4.365
16340W        W81567   3.748   8.226  11.937
16341W        W81568  40.487   6.686   1.746
16342W        W81569  22.583   2.637  12.945
16343W        W81570  14.509  43.432  11.564
16344W        W81571  14.839  32.968   3.204
16345W        W81572  15.180  38.293  11.384
16346W        W81573  30.561  28.168  10.831
16347W        W81574   7.177  42.244   1.234
16348W        W81575  23.677  44.035  10.519
16349W        W81576  17.738  35.712  14.343
16350W        W81577  42.490  20.496   9.940
16351W        W81578  20.238  22.155  10.482
16352W        W81579   5.823  33.393   0.377
16353W        W81580   3.359  27.344   3.853
16354W        W81581  19.049  14.449   3.338
16355W        W81582   7.193  28.543  11.188
16356W        W81583  42.882  11.208   0.876
16357W        W81584  30.978   7.601  14.312
16358W        W81585  10.222  38.848  12.590
16359W        W81586  29.381  19.616   3.288
16360W        W81587  35.960   6.187   4.610
16361W        W81588  38.714  16.078   0.012
16362W        W81589  17.517   5.112  12.922
16363W        W81590  39.349  17.149   1.346
16364W        W81591  31.122  30.782  11.993
16365W        W81592  19.646  31.895   2.187
16366W        W81593  23.631  42.340   4.355
16367W        W81594  44.611   0.106   1.725
16368W        W81595  17.753  11.364  12.953
16369W        W81596   2.652   4.354   1.246
16370W        W81597  18.210  16.237   2.583
16371W        W81598  14.184   7.581   1.872
16372W        W81599  39.776  32.021   3.811
16373W        W81600   4.714   7.838   4.531
16374W        W81601  37.466  30.476  14.799
16375W        W81602  41.039   8.960  13.305
16376W        W81603  22.596   6.394  13.324
16377W        W81604   7.693  12.529  11.138
16378W        W81605   7.742  14.083  13.661
16379W        W81606  21.443  16.632   3.288
16380W        W81607  41.534   8.699   1.263
16381W        W81608   3.416  23.964  13.343
16382W        W81609  41.435  40.638  12.985
16383W        W81610  43.366   4.818   0.619
16384W        W81611   0.446   5.857  14.653
16385W        W81612   2.874  22.643  12.547
16386W        W81613  42.557  40.730   1.238
16387W        W81614  36.018  19.638   0.220
16388W        W81615   2.444  19.217  14.240
16389W        W81616  12.085  23.607   0.451
16390W        W81617  10.938   7.737  12.424
16391W        W81618  31.978  25.058  12.607
16392W        W81619  26.328   4.288  14.911
16393W        W81620   9.332   9.452   2.191
16394W        W81621  34.875  20.587   1.742
16395W        W81622  31.503   3.297  13.628
16396W        W81623  26.005  12.222   1.701
16397W        W81624  20.999  23.029   2.260
16398W        W81625  14.314  20.160   3.246
16399W        W81626   8.029   1.684   4.743
16400W        W81627  22.978  18.346   1.861
16401W        W81628  19.594  23.462   3.137
16402W        W81629  42.348   6.896   3.171
16403W        W81630   7.959  11.957   1.301
16404W        W81631  20.296  16.165   4.132
16405W        W81632  33.508   8.898  11.485
16406W        W81633  38.753  19.981   4.989
16407W        W81634  24.953  16.301   0.183
16408W        W81635  23.944   7.166   1.868
16409W        W81636  40.238   3.733   3.137
16410W        W81637  17.346  40.644  11.134
16411W        W81638  16.249   6.604   3.684
16412W        W81639  25.734  37.429  13.950
16413W        W81640  22.050   2.334   1.195
16414W        W81641  29.613  13.274   0.049
16415W        W81642   5.867  33.981   4.772
16416W        W81643   6.769  10.607  10.021
16417W        W81644   8.612  34.365   5.673
16418W        W81645  18.502   6.460   4.819
16419W        W81646   3.229  35.159  11.223
16420W        W81647  20.795  36.113   0.285
16421W        W81648  40.239  37.044   4.826
16422W        W81649  32.430  12.598  13.776
16423W        W81650  28.442  16.366  14.267
16424W        W81651  16.098  30.314   0.801
16425W        W81652   1.722  27.962   4.458
16426W        W81653  29.621  20.816   0.381
16427W        W81654  18.278   7.150   4.261
16428W        W81655  15.303   0.882   4.141
16429W        W81656  42.485  10.726   0.286
16430W        W81657  34.323  14.037   2.783
16431W        W81658  31.457  27.828  14.062
16432W        W81659  22.980  26.508  14.803
16433W        W81660  26.336   2.266  11.685
16434W        W81661  38.398  31.590  14.504
16435W        W81662  34.344  44.922   0.870
16436W        W81663  25.577   9.771  11.148
16437W        W81664  28.593  12.066   1.389
16438W        W81665  27.402  13.607  10.103
16439W        W81666  35.660  26.359  10.320
16440W        W81667  34.665  37.726  13.102
16441W        W81668  21.980  31.354   3.359
16442W        W81669  20.292  21.219   2.651
16443W        W81670   9.677  42.507   2.292
16444W        W81671  40.594  20.108   2.812
16445W        W81672  37.035  10.228   1.461
16446W        W81673  27.556   1.229   1.404
16447W        W81674  27.573  27.656   3.235
16448W        W81675  40.482  36.162  11.693
16449W        W81676  11.936   7.132  12.141
16450W        W81677  35.851  37.841   2.141
16451W        W81678  23.189  22.004   2.824
16452W        W81679  44.730  39.825  12.399
16453W        W81680   9.703  39.479   1.659
16454W        W81681  21.014  26.133  12.609
16455W        W81682  30.160  41.844  14.533
16456W        W81683  23.608   8.756   0.620
16457W        W81684  34.836   1.463   1.295
16458W        W81685  37.835  11.814  13.365
16459W        W81686  24.453  19.828  12.094
16460W        W81687  24.165  24.941  10.284
16461W        W81688   5.026   3.843   0.703
16462W        W81689  39.526  33.939   2.240
16463W        W81690  15.426  44.941   0.880
16464W        W81691   0.007  13.185  11.723
16465W        W81692  27.402   9.146   4.572
16466W        W81693   7.721  12.459   1.834
16467W        W81694  29.753  19.384   2.798
16468W        W81695  16.122  40.008  14.389
16469W        W81696   0.761  32.065  13.670
16470W        W81697  42.893  12.147   1.679
16471W        W81698  32.503   8.225  11.638
16472W        W81699   8.390  21.528   1.695
16473W        W81700  39.796   0.813  14.829
16474W        W81701  27.723   4.922   1.810
16475W        W81702   8.897  25.137   4.140
16476W        W81703  39.966   2.675   4.131
16477W        W81704   1.944  12.848  10.680
16478W        W81705   7.692  13.667   5.483
16479W        W81706   7.231   2.399  14.891
16480W        W81707   0.785  11.221   0.741
16481W        W81708   2.643  39.744   0.319
16482W        W81709  37.433   5.181   2.529
16483W        W81710  21.464  32.629   3.189
16484W        W81711  19.142  23.713   3.265
16485W        W81712  17.145   2.519  12.044
16486W        W81713  20.662   3.384   3.546
16487W        W81714  31.222  16.508  12.111
16488W        W81715  44.085  13.202  12.585
16489W        W81716   3.343  10.520   1.201
16490W        W81717  34.996  36.534   4.340
16491W        W81718   9.374  17.757   3.201
16492W        W81719  27.954  34.831  13.047
16493W        W81720  40.506  34.917  13.155
16494W        W81721  40.414  27.494   2.899
16495W        W81722  43.972  39.801   2.918
16496W        W81723  21.201  29.218   2.195
16497W        W81724   7.193   6.365   3.307
16498W        W81725  39.152   0.957  10.832
16499W        W81726  40.530   8.893  13.317
16500W        W81727  27.707   7.744   1.251
16501W        W81728  18.496  39.921   4.204
16502W        W81729  14.084  29.092   4.850
16503W        W81730  11.580  10.829  12.982
16504W        W81731   8.726   7.539  13.369
16505W        W81732  41.923   7.171   0.672
16506W        W81733  15.927  13.681  14.829
16507W        W81734  12.169  19.862  12.551
16508W        W81735   7.708  36.217  12.897
16509W        W81736  17.905   9.343   0.332
16510W        W81737   4.993  32.896  11.977
16511W        W81738   5.881  41.442  14.920
16512W        W81739  32.580  13.192   2.191
16513W        W81740   3.016  27.740   3.147
16514W        W81741  36.314  43.920  12.459
16515W        W81742  22.384  36.180  12.058
16516W        W81743  24.049   6.061  12.131
16517W        W81744  40.370  34.509   3.694
16518W        W81745  19.222  20.559  12.468
16519W        W81746  22.681  16.150  14.931
16520W        W81747  29.003   8.381   0.392
16521W        W81748  12.846  34.427   5.117
16522W        W81749  31.112  36.419  12.921
16523W        W81750   2.897  10.130   4.572
16524W        W81751  31.835  36.027   1.227
16525W        W81752  38.891  40.023   2.072
16526W        W81753  20.414  13.138  12.839
16527W        W81754  35.403  20.982   0.022
16528W        W81755   6.171  18.097  11.171
16529W        W81756   6.621   1.435  10.660
16530W        W81757  14.131  25.045   2.315
16531W        W81758  13.066  38.850  14.053
16532W        W81759   8.081  34.587  10.857
16533W        W81760  31.459  20.273   0.942
16534W        W81761  24.209  24.784   3.033
16535W        W81762  35.035   8.271   2.561
16536W        W81763   8.880  41.791   2.698
16537W        W81764  14.410  34.820  12.488
16538W        W81765   8.675   2.185  14.866
16539W        W81766  36.342  24.932   1.564
16540W        W81767  24.740  28.392  11.124
16541W        W81768  31.857  14.178   2.782
16542W        W81769  34.164   8.766  12.897
16543W        W81770  11.041  36.559  12.436
16544W        W81771  29.415  33.898  12.306
16545W        W81772  44.132  23.524  13.371
16546W        W81773  40.035  39.379   3.393
16547W        W81774   1.964   3.529   1.268
16548W        W81775  17.529   9.608   3.155
16549W        W81776  15.621  31.735  12.743
16550W        W81777  25.302   9.109  14.146
16551W        W81778  12.930  34.489   4.184
16552W        W81779  14.786   8.146   1.347
16553W        W81780  29.475  10.354  11.209
16554W        W81781   7.547  32.402   4.549
16555W        W81782   2.240  36.347  13.831
16556W        W81783   7.113  28.412   4.198
16557W        W81784  30.223  33.097  12.490
16558W        W81785   9.928  42.949   3.921
16559W        W81786  32.123   0.780  12.431
16560W        W81787  44.830   2.876  12.845
16561W        W81788   2.452  21.021  14.019
16562W        W81789   5.942  40.247   1.284
16563W        W81790   6.723  33.923  14.528
16564W        W81791   4.736  40.343  14.236
16565W        W81792  15.784   6.587   4.501
16566W        W81793  35.576   6.721  13.806
16567W        W81794   2.364   5.138  13.485
16568W        W81795  18.333  10.896  11.582
16569W        W81796  42.842  40.837   4.037
16570W        W81797  13.964   2.399   1.403
16571W        W81798   3.331   2.375  11.477
16572W        W81799  28.640  21.612  11.703
16573W        W81800   4.476  44.507   4.552
16574W        W81801  13.605  38.174   1.081
16575W        W81802   5.720  24.698   1.948
16576W        W81803  23.930  13.609   0.836
16577W        W81804  37.602  12.636   2.656
16578W        W81805   4.738   9.172   2.479
16579W        W81806  25.964  15.628  14.467
16580W        W81807  31.140  31.110   2.147
16581W        W81808   2.050   8.550  12.555
16582W        W81809   3.944  17.414  14.054
16583W        W81810  38.320  38.817  10.723
16584W        W81811  25.623  18.582  13.576
16585W        W81812  24.548   5.187  13.839
16586W        W81813  42.556  25.173   4.674
16587W        W81814  44.782  32.803   0.272
16588W        W81815  42.048  13.632  14.858
16589W        W81816  32.081  44.055   1.736
16590W        W81817  28.107   5.431  13.933
16591W        W81818  30.787  28.666   3.255
16592W        W81819  34.673  37.914  12.631
16593W        W81820  29.607  36.438  12.956
16594W        W81821   1.304  40.917   4.555
16595W        W81822  33.466  19.861   5.085
16596W        W81823  38.051  10.781   3.868
16597W        W81824  30.748   4.767  11.265
16598W        W81825  39.456   2.354   3.539
16599W        W81826   5.639  35.345  12.864
16600W        W81827   4.039  30.498   4.422
16601W        W81828   2.356   3.983   1.717
16602W        W81829  39.068   9.205   0.184
16603W        W81830  39.872  25.196  13.796
16604W        W81831  39.175  17.675   1.427
16605W        W81832   3.860  23.033   0.911
16606W        W81833   1.852  14.742  12.625
16607W        W81834  36.462  12.156   4.680
16608W        W81835  38.971  39.757  10.976
16609W        W81836  13.181   1.694   2.311
16610W        W81837  29.328   6.898   0.921
16611W        W81838   0.133   0.475   2.393
16612W        W81839   5.199  42.577   4.855
16613W        W81840   2.954  34.077   3.107
16614W        W81841  25.049  18.415  10.626
16615W        W81842  35.108  34.656  12.439
16616W        W81843  14.681  25.925   0.254
16617W        W81844  34.480  27.361   3.723
16618W        W81845  44.655   6.626  13.932
16619W        W81846  15.441  34.854  14.349
16620W        W81847  21.182  36.009  10.308
16621W        W81848  39.019  36.110  14.884
16622W        W81849  14.152  26.485  11.971
16623W        W81850   5.685  14.434   5.251
16624W        W81851  14.570  40.850  14.327
16625W        W81852   2.988  37.469  10.633
16626W        W81853   6.351   4.299  13.246
16627W        W81854   7.566  31.828   2.420
16628W        W81855  20.571   2.379  13.399
16629W        W81856  39.391   6.606   4.486
16630W        W81857  33.526   1.324  14.064
16631W        W81858  30.879  35.974   1.103
16632W        W81859  15.309   1.723   4.307
16633W        W81860   8.854   2.783   3.924
16634W        W81861  23.527  25.183   4.073
16635W        W81862   5.416  30.399  11.506
16636W        W81863   4.480  19.804   3.361
16637W        W81864  31.654  42.042   2.399
16638W        W81865   1.774  11.584  14.568
16639W        W81866  43.898  21.009  14.242
16640W        W81867  18.175  17.327   1.914
16641W        W81868  17.568  40.719  12.482
16642W        W81869  10.356   3.472  14.664
16643W        W81870  29.169  44.555   0.092
16644W        W81871  41.289  10.141   3.570
16645W        W81872  38.490  30.534   0.372
16646W        W81873  33.907  41.888   1.609
16647W        W81874  39.147  14.217  10.553
16648W        W81875  19.313  25.977  10.559
16649W        W81876  22.176  19.263  11.277
16650W        W81877  24.556   3.716   1.725
16651W        W81878  28.916  26.932   1.256
16652W        W81879  27.017   4.291   4.065
16653W        W81880  35.658   6.123  14.931
16654W        W81881  26.959  10.826   1.421
16655W        W81882  14.901   2.277   0.368
16656W        W81883  36.175  25.023   5.016
16657W        W81884  44.322  18.155   4.519
16658W        W81885  16.590  40.228  11.198
16659W        W81886   8.912  38.101  11.137
16660W        W81887  32.972  38.365   3.346
16661W        W81888  14.731   5.709   0.344
16662W        W81889  43.246  31.893   2.124
16663W        W81890  24.573  32.942   1.690
16664W        W81891  12.469  36.037   4.522
16665W        W81892  38.949  44.867   4.708
16666W        W81893  34.241  44.748  14.786
16667W        W81894  14.739   5.994   4.417
16668W        W81895   4.329  25.948   2.855
16669W        W81896   7.386  18.977   4.981
16670W        W81897  34.969   7.782   2.327
16671W        W81898  15.275  19.598  11.650
16672W        W81899   9.315  34.325   2.410
16673W        W81900  29.585  20.668  12.962
16674W        W81901   6.828  11.171  12.523
16675W        W81902   2.361   7.760   2.980
16676W        W81903  44.128   6.464   0.017
16677W        W81904  34.783  42.786  12.253
16678W        W81905  30.093  30.102   1.926
16679W        W81906  41.656  33.680  11.936
16680W        W81907   6.337  36.591   1.033
16681W        W81908   3.414  13.061   5.108
16682W        W81909  27.087  28.354   5.101
16683W        W81910  35.262  14.956  12.365
16684W        W81911  28.938   4.195  14.051
16685W        W81912  22.759  32.426   0.809
16686W        W81913  36.778  43.351   4.358
16687W        W81914  44.309   9.415  14.604
16688W        W81915   6.338  32.536  13.953
16689W        W81916  18.986   7.796  13.000
16690W        W81917  40.730  13.297   4.170
16691W        W81918  27.436  12.448   1.903
16692W        W81919  24.103  37.937  13.757
16693W        W81920  26.779  25.472  14.448
16694W        W81921  22.580  29.698  12.680
16695W        W81922  44.951  44.733   1.768
16696W        W81923  16.746  42.038  13.880
16697W        W81924  39.508   7.513  10.319
16698W        W81925  39.666  41.799  12.440
16699W        W81926  39.902  32.693  14.948
16700W        W81927   1.930  40.415  11.861
16701W        W81928  15.306  27.241  12.017
16702W        W81929  16.084  33.195  12.500
16703W        W81930  43.508   4.501  13.775
16704W        W81931  42.402   4.957  13.880
16705W        W81932  25.288  42.894   2.727
16706W        W81933   6.615  17.104  14.255
16707W        W81934  27.361  30.689   0.836
16708W        W81935  20.013  23.247  14.921
16709W        W81936  10.707  12.211   0.925
16710W        W81937   4.715  41.917  13.918
16711W        W81938  20.521  36.576   0.261
16712W        W81939   0.406  14.829  12.941
16713W        W81940  25.669   6.119  12.061
16714W        W81941   0.025  24.956   2.066
16715W        W81942  26.935  42.388  14.396
16716W        W81943  37.132   2.144   2.676
16717W        W81944   6.731  37.142   2.742
16718W        W81945   5.761  23.654   3.741
16719W        W81946  27.340  42.850   0.721
16720W        W81947  37.473   6.720  14.911
16721W        W81948   3.477  18.499   1.227
16722W        W81949  20.894  28.610   0.038
16723W        W81950  40.457  22.549   1.688
16724W        W81951  33.338   4.809  12.590
16725W        W81952   1.230  25.360   5.377
16726W        W81953  23.787  13.803   2.175
16727W        W81954  26.648  15.841   2.696
16728W        W81955   8.715  19.209   3.832
16729W        W81956   4.879  38.854  13.746
16730W        W81957  28.718  15.318   1.642
16731W        W81958  26.389  24.467  10.719
16732W        W81959   7.654  40.922   2.623
16733W        W81960  23.398   5.948   2.482
16734W        W81961  37.720  30.948  14.896
16735W        W81962  27.458   8.126  11.089
16736W        W81963  19.075  37.122  14.854
16737W        W81964  22.658   8.039  12.220
16738W        W81965   3.739  24.166  12.548
16739W        W81966   0.308  35.881  10.712
16740W        W81967  41.916  16.097   0.537
16741W        W81968  34.966  40.073   3.153
16742W        W81969  34.027   4.927  12.043
16743W        W81970  14.135  20.087  13.431
16744W        W81971  44.214  11.808  12.611
16745W        W81972  25.088   4.357   1.136
16746W        W81973   8.732   2.673   0.851
16747W        W81974  25.693  31.987   0.366
16748W        W81975   8.307  30.813  11.384
16749W        W81976   4.849  17.136   0.188
16750W        W81977  33.351  18.677   0.676
16751W        W81978   4.559  39.621  14.906
16752W        W81979  43.384   3.706   4.633
16753W        W81980  20.575   0.577  11.556
16754W        W81981  35.330  42.371   4.183
16755W        W81982   7.155  12.578  11.727
16756W        W81983  21.913  35.034   1.156
16757W        W81984  32.912  12.677   4.464
16758W        W81985  10.189  24.563   0.168
16759W        W81986  14.015   3.325   1.584
16760W        W81987   8.727  17.105  12.594
16761W        W81988  43.344   8.148   5.436
16762W        W81989  13.236  15.170   3.678
16763W        W81990  39.844  20.601  14.779
16764W        W81991  13.246  27.096   2.450
16765W        W81992  36.860  34.764  13.768
16766W        W81993  23.595  40.474   3.699
16767W        W81994  39.514  43.024  10.793
16768W        W81995  32.065  43.592   0.827
16769W        W81996  38.855  21.685  13.437
16770W        W81997  36.146  34.284  14.031
16771W        W81998  18.647  41.299  13.368
16772W        W81999  43.769  20.973  12.875
16773W        W82000  22.729  31.086  12.910
16774W        W82001  34.423   4.919   1.697
16775W        W82002   9.964  29.999   3.207
16776W        W82003  37.482   6.835  12.904
16777W        W82004   6.617  26.790  10.067
16778W        W82005  32.397   2.367  12.043
16779W        W82006  11.341  41.256  11.934
16780W        W82007  36.992  14.892  14.147
16781W        W82008   3.417  29.469  12.023
16782W        W82009  19.583   3.840  12.573
16783W        W82010   0.113  44.929   3.653
16784W        W82011   0.430  14.809  10.725
16785W        W82012  32.096   2.196   0.460
16786W        W82013   9.725  23.619   2.299
16787W        W82014   8.722  13.855   3.171
16788W        W82015   5.056  32.241  14.481
16789W        W82016  16.063  19.054   3.403
16790W        W82017   5.939   6.027  11.249
16791W        W82018  44.346  28.044   3.678
16792W        W82019  19.266  36.471   3.288
16793W        W82020  16.570  21.584  10.645
16794W        W82021  24.767  30.703  10.990
16795W        W82022   9.815  10.115   3.415
16796W        W82023   7.320  19.276   2.207
16797W        W82024  43.310  37.608  13.435
16798W        W82025  41.450  34.955   3.440
16799W        W82026   1.271  23.206  11.231
16800W        W82027   6.006  42.777   4.681
16801W        W82028  10.495  42.825  13.053
16802W        W82029  42.103   8.313  12.966
16803W        W82030  18.721  24.019   1.400
16804W        W82031  21.774  16.380   1.810
16805W        W82032  19.049   2.683   1.512
16806W        W82033   9.422  20.070   2.621
16807W        W82034  39.832   0.806   0.680
16808W        W82035   7.878  38.806   3.177
16809W        W82036  20.051  27.565  14.198
16810W        W82037   6.678  28.599   3.440
16811W        W82038  14.327  10.282  10.418
16812W        W82039  24.161  40.705   4.029
16813W        W82040  36.065  41.873  14.346
16814W        W82041  19.383  41.046   1.375
16815W        W82042  25.398   6.707   4.439
16816W        W82043  44.534   7.049  11.394
16817W        W82044  33.099  36.503   3.071
16818W        W82045  44.149  12.302   4.484
16819W        W82046   6.702  17.164   0.096
16820W        W82047  38.983  41.953   4.380
16821W        W82048  26.486   7.195   0.471
16822W        W82049   3.981  11.848   3.383
16823W        W82050  44.931  32.025  12.020
16824W        W82051  25.737  29.088   3.668
16825W        W82052  39.928   3.778   4.067
16826W        W82053  16.306  31.699  10.646
16827W        W82054   5.750  39.364  13.032
16828W        W82055  19.041  36.135   0.030
16829W        W82056  36.144  16.875  11.193
16830W        W82057   3.674  32.545   1.392
16831W        W82058   9.399   3.070   4.085
16832W        W82059   3.401  41.052  13.846
16833W        W82060  43.785  11.648  14.476
16834W        W82061   6.447  23.215  13.482
16835W        W82062  27.916  42.279  13.459
16836W        W82063  26.973  43.237   2.363
16837W        W82064  31.654   4.854  14.410
16838W        W82065   3.260  12.330   3.329
16839W        W82066  16.209  32.476   5.115
16840W        W82067  25.483  35.795  11.586
16841W        W82068   4.078  42.496   4.035
16842W        W82069  29.081  11.674   2.158
16843W        W82070   1.458  15.341   1.319
16844W        W82071  40.753  38.052  13.843
16845W        W82072  11.869  14.164   0.305
16846W        W82073   2.007  42.139   4.164
16847W        W82074  20.290  37.975  11.978
16848W        W82075   5.813   4.246  14.952
16849W        W82076  24.951  18.111  13.295
16850W        W82077  35.873   8.769  11.990
16851W        W82078  12.127  20.278   1.614
16852W        W82079   4.190  24.274   2.761
16853W        W82080  10.706  31.033  14.512
16854W        W82081  35.696   0.590   0.529
16855W        W82082   7.379   1.424  13.989
16856W        W82083  26.498  36.539   1.758
16857W        W82084  43.963  36.831  11.599
16858W        W82085  29.466  11.440   3.497
16859W        W82086  18.281  25.938  14.851
16860W        W82087   4.201  29.551  12.508
16861W        W82088  19.901  16.045  12.982
16862W        W82089  37.401  39.451  12.104
16863W        W82090  29.208  27.822   5.371
16864W        W82091  26.381  31.488   3.709
16865W        W82092  20.222  20.540   3.391
16866W        W82093  23.472  27.854  11.964
16867W        W82094   6.226   0.321   1.423
16868W        W82095  26.028  13.199   3.444
16869W        W82096  37.936  33.057  12.541
16870W        W82097  36.131  36.922  14.864
16871W        W82098  36.340  16.859   2.348
16872W        W82099  20.195   1.809  10.696
16873W        W82100  35.433  22.634  12.617
16874W        W82101  28.187  41.119   4.633
16875W        W82102  43.441  13.031   2.407
16876W        W82103   2.648  39.495   3.538
16877W        W82104  14.838   2.059  10.435
16878W        W82105   1.728  12.029  13.127
16879W        W82106  15.403  30.546   2.812
16880W        W82107  14.555  28.039  14.855
16881W        W82108   5.714   7.786  13.896
16882W        W82109   3.756  12.256   0.956
16883W        W82110  12.769   6.712   0.835
16884W        W82111  20.258  36.145   4.579
16885W        W82112   7.436   5.604   3.659
16886W        W82113  39.809  32.951  13.148
16887W        W82114  43.908  40.356   2.891
16888W        W82115  41.087  11.083   2.831
16889W        W82116  10.849  13.318   4.526
16890W        W82117  35.533  28.054   4.297
16891W        W82118  30.891  15.211  12.122
16892W        W82119  36.857  44.333  14.810
16893W        W82120  43.953  36.461  13.427
16894W        W82121  34.924  32.322  14.966
16895W        W82122  35.117  12.760   3.498
16896W        W82123  13.641   0.524  14.508
16897W        W82124  36.031  25.854  11.195
16898W        W82125  24.750  41.114   2.890
16899W        W82126  20.171  39.872   1.302
16900W        W82127  24.043  28.209   2.353
16901W        W82128  34.035  40.338  12.564
16902W        W82129   0.411  31.798  14.220
16903W        W82130  21.373  14.224   4.311
16904W        W82131   5.630  41.821   4.547
16905W        W82132  11.660   4.982   4.449
16906W        W82133  31.043  17.517   0.825
16907W        W82134  40.821  24.548   3.183
16908W        W82135  10.434  33.713  10.266
16909W        W82136  29.208  41.899  14.948
16910W        W82137  26.640  37.332   3.339
16911W        W82138  41.046  31.308   2.854
16912W        W82139  28.424  24.975  12.486
16913W        W82140  27.978  40.377   2.289
16914W        W82141  23.555  30.078   4.487
16915W        W82142  17.551  27.964   0.399
16916W        W82143   6.236  12.279  14.403
16917W        W82144  30.016   3.207   0.934
16918W        W82145  18.283  19.113  12.848
16919W        W82146  11.171  34.382   2.039
16920W        W82147   2.977  34.587  11.548
16921W        W82148  39.857  12.256  11.109
16922W        W82149   7.500   7.425  10.565
16923W        W82150  22.550   3.254   0.238
16924W        W82151  20.382  26.586  12.199
16925W        W82152   3.314   0.847  12.801
16926W        W82153  40.775  12.279   0.440
16927W        W82154  28.564  35.908  14.983
16928W        W82155  39.920  22.270   3.953
16929W        W82156   6.281   9.946  14.694
16930W        W82157  29.320  36.596   2.788
16931W        W82158  19.360  41.067   0.434
16932W        W82159  33.400   7.297   4.519
16933W        W82160  25.236  41.640  11.695
16934W        W82161  12.834  13.576   0.417
16935W        W82162  43.937  13.626  14.343
16936W        W82163  43.946  18.261   1.310
16937W        W82164  30.537  40.731   4.109
16938W        W82165   9.368  43.750   1.309
16939W        W82166   5.179  10.984   1.988
16940W        W82167  18.972  12.387   2.339
16941W        W82168  34.817  25.156  14.712
16942W        W82169  28.904   0.984  13.060
16943W        W82170  28.475  41.937   2.683
16944W        W82171   6.265  42.970   3.821
16945W        W82172   7.647  43.322   2.660
16946W        W82173   0.881  32.577   2.373
16947W        W82174  11.478   7.599  13.862
16948W        W82175   8.900  39.234   4.522
16949W        W82176  27.552  25.146   0.353
16950W        W82177  19.748  10.789   2.543
16951W        W82178  25.473  30.605   2.721
16952W        W82179  42.592  17.395  12.062
16953W        W82180  15.169  35.061   4.448
16954W        W82181  30.239  39.346  11.447
16955W        W82182  27.971  34.709  12.487
16956W        W82183  23.735  28.198  11.633
16957W        W82184  11.116  39.603   4.029
16958W        W82185  41.004  15.081   4.309
16959W        W82186  35.338  35.551  11.589
16960W        W82187  26.620  10.839   3.219
16961W        W82188  29.221  21.964   3.269
16962W        W82189  17.825  14.330  10.413
16963W        W82190  16.865  42.525   4.106
16964W        W82191  21.304  14.029   1.359
16965W        W82192  26.256  16.750   3.272
16966W        W82193  28.083  42.849   3.570
16967W        W82194  37.141  12.676   4.206
16968W        W82195   3.371   8.855   1.876
16969W        W82196  33.558  40.539  12.501
16970W        W82197  38.214  16.630   3.075
16971W        W82198  27.930  35.712  13.435
16972W        W82199  42.766  38.793   4.182
16973W        W82200   2.181  36.488   1.463
16974W        W82201  19.712  22.547   2.860
16975W        W82202  17.970  23.009   2.331
16976W        W82203   2.677  19.647  14.576
16977W        W82204   1.886   4.893   0.290
16978W        W82205  21.025  14.707   2.050
16979W        W82206   7.453  26.874   0.477
16980W        W82207  20.620  43.888   1.821
16981W        W82208  29.410   5.904   2.850
16982W        W82209  33.485  37.463  13.545
16983W        W82210   2.514  35.069  12.196
16984W        W82211  30.613  38.458  14.908
16985W        W82212  14.895  32.884   9.704
16986W        W82213  20.749  34.379  14.908
16987W        W82214  11.109  36.903   2.162
16988W        W82215  10.917   4.588  14.515
16989W        W82216  19.045  26.530   0.491
16990W        W82217  14.726  28.405   3.582
16991W        W82218  23.291  36.987   3.693
16992W        W82219  20.223   1.777  13.905
16993W        W82220   8.835  35.752  11.563
16994W        W82221   2.856  26.023  14.515
16995W        W82222  21.997  19.019   3.711
16996W        W82223   0.549  44.426  14.795
16997W        W82224  30.006   0.614  11.877
16998W        W82225   2.325   7.336  12.997
16999W        W82226  33.630  20.971   1.382
17000W        W82227  35.152  37.514   1.701
17001W        W82228  44.518   7.531  11.192
17002W        W82229  34.042  21.946   1.398
17003W        W82230   1.236   7.578  11.553
17004W        W82231  15.308  41.438  11.558
17005W        W82232  23.581  29.511   4.072
17006W        W82233  35.025   4.771   2.590
17007W        W82234  14.594  25.241   1.760
17008W        W82235   8.362  14.916  14.691
17009W        W82236  26.720  36.683   0.890
17010W        W82237  38.795   0.062   2.911
17011W        W82238  36.181  15.902   0.364
17012W        W82239  19.490  19.202  14.325
17013W        W82240  40.319  42.132  13.507
17014W        W82241  13.324  17.759  14.920
17015W        W82242   0.068  38.488   1.567
17016W        W82243  43.690   7.798   4.262
17017W        W82244  39.895  40.609   1.698
17018W        W82245   4.814  10.223   3.377
17019W        W82246  36.486  17.144  12.462
17020W        W82247  27.103  40.851   1.135
17021W        W82248  34.241  33.658   1.912
17022W        W82249  33.378  33.943  11.178
17023W        W82250  32.519  10.258   4.875
17024W        W82251  33.532   8.398  13.087
17025W        W82252  19.232  17.125  11.537
17026W        W82253  19.649  44.295   0.474
17027W        W82254  31.597  41.923   0.476
17028W        W82255  34.561  41.114  13.481
17029W        W82256  38.208   9.348  11.269
17030W        W82257   0.273  35.618   2.548
17031W        W82258  38.917  28.994   4.168
17032W        W82259  40.959  37.038  12.398
17033W        W82260  23.297  35.667  11.154
17034W        W82261  37.823   2.991  11.156
17035W        W82262  32.961  44.566   4.712
17036W        W82263  16.312   8.691   1.955
17037W        W82264  23.921  18.241  13.526
17038W        W82265  25.453  23.572   4.094
17039W        W82266  36.044  38.985  14.401
17040W        W82267  26.579  29.016  10.079
17041W        W82268  23.101  21.587  10.466
17042W        W82269  16.132   2.327  14.486
17043W        W82270   7.692  31.866   3.816
17044W        W82271  16.634  30.036   4.482
17045W        W82272  14.032  27.966   0.754
17046W        W82273  13.632  20.065   0.010
17047W        W82274  18.516  37.075  12.958
17048W        W82275  42.654  32.688   3.258
17049W        W82276  34.643  15.274  10.304
17050W        W82277   1.011  34.805   0.337
17051W        W82278  33.179  23.466   2.306
17052W        W82279  32.090  10.477   2.132
17053W        W82280   6.375   5.648  11.947
17054W        W82281  23.685  29.218   0.892
17055W        W82282  35.824   1.422  14.889
17056W        W82283   6.760  26.652   2.380
17057W        W82284   7.668  37.709  11.644
17058W        W82285  10.142  16.720   3.530
17059W        W82286  37.880   0.965   1.422
17060W        W82287   0.937   0.152  14.209
17061W        W82288  34.368  17.796  12.986
17062W        W82289  22.660  33.364  11.202
17063W        W82290   6.037   2.072   1.375
17064W        W82291  31.019  38.360   1.264
17065W        W82292  28.182   4.805   3.675
17066W        W82293  30.065   2.844   2.268
17067W        W82294  36.376  31.465  13.977
17068W        W82295   2.286  34.828   3.693
17069W        W82296  18.360  37.858   3.687
17070W        W82297  40.900  39.870   1.426
17071W        W82298  41.352  19.469  14.327
17072W        W82299  14.838  33.165  14.023
17073W        W82300   3.724  34.663   4.383
17074W        W82301   2.170  41.060   0.284
17075W        W82302   3.902  28.256  14.898
17076W        W82303   3.868  18.495  13.093
17077W        W82304   6.939  35.961   3.608
17078W        W82305  29.370  40.293   3.923
17079W        W82306   9.485  24.927  10.284
17080W        W82307   0.352  13.174  13.017
17081W        W82308  17.093   3.800  10.836
17082W        W82309  43.446  42.226   4.476
17083W        W82310  15.731   3.579   1.017
17084W        W82311  44.969   4.926  11.176
17085W        W82312   2.370   2.520   1.268
17086W        W82313  15.660  32.552   5.435
17087W        W82314  33.984  36.574  13.386
17088W        W82315  22.296  30.791  11.118
17089W        W82316  11.893  44.420  14.115
17090W        W82317  23.820  38.862  14.521
17091W        W82318  16.000  39.021   1.568
17092W        W82319  20.617  28.433  11.569
17093W        W82320   0.992   5.722  11.720
17094W        W82321  36.476  17.847   1.217
17095W        W82322  44.977  36.921   4.337
17096W        W82323   2.562  33.594  14.501
17097W        W82324  27.992  12.833   2.825
17098W        W82325  24.612  18.918   4.184
17099W        W82326  23.903  44.818   0.366
17100W        W82327  32.041   0.894   1.832
17101W        W82328  43.824  35.606  14.422
17102W        W82329   4.174   0.941   2.229
17103W        W82330  44.938  32.725   3.731
17104W        W82331  38.507  32.116   2.329
17105W        W82332  40.377  37.470   2.042
17106W        W82333  20.812   2.854  12.462
17107W        W82334  17.708   9.674   2.672
17108W        W82335   4.157  34.768   4.657
17109W        W82336  37.542  23.147   1.343
17110W        W82337  28.010  17.447   2.766
17111W        W82338  39.466  32.075   0.191
17112W        W82339  18.526  29.735  13.439
17113W        W82340  34.028  14.477  13.919
17114W        W82341  32.505  15.997   1.234
17115W        W82342  30.106  17.494   3.604
17116W        W82343   9.375  19.075  14.850
17117W        W82344  25.472   4.730   0.355
17118W        W82345   8.313  22.367  12.931
17119W        W82346   1.907  42.467   2.800
17120W        W82347  22.541  12.599  12.629
17121W        W82348  14.020   0.186  14.468
17122W        W82349  41.757   1.887  11.865
17123W        W82350  14.194  19.979  14.196
17124W        W82351  22.507  16.302   3.248
17125W        W82352  41.841   6.281   2.803
17126W        W82353  23.292  12.191   3.551
17127W        W82354   4.850  18.020  12.842
17128W        W82355   9.603  28.040   3.044
17129W        W82356  18.185  25.833  13.441
17130W        W82357  43.427   1.769  13.009
17131W        W82358  19.455   8.831  11.943
17132W        W82359  34.016  23.278   0.405
17133W        W82360  28.175   8.227  11.051
17134W        W82361  23.922  10.347   0.791
17135W        W82362   1.785  23.656  13.630
17136W        W82363   4.794  38.080  10.249
17137W        W82364  31.929  20.883  10.747
17138W        W82365   8.086  36.563  13.362
17139W        W82366  31.030  27.580   4.342
17140W        W82367  22.661  30.529   2.548
17141W        W82368  30.445  12.120   5.474
17142W        W82369  38.940   0.524   3.121
17143W        W82370  35.236  34.199   0.237
17144W        W82371  36.991   7.319   3.269
17145W        W82372  26.419  12.600  12.427
17146W        W82373  18.419  27.241  13.499
17147W        W82374  15.883  42.568   2.309
17148W        W82375  18.183  22.554  14.294
17149W        W82376  22.174  24.968   0.826
17150W        W82377   4.394  23.484  13.399
17151W        W82378  23.224  31.935   2.392
17152W        W82379  11.636  43.050   2.302
17153W        W82380   1.428  37.190   9.992
17154W        W82381  13.898  29.143  12.920
17155W        W82382  14.033  35.234   0.344
17156W        W82383  19.106  21.543  12.977
17157W        W82384   2.822  39.459  12.932
17158W        W82385   8.624  35.556  13.026
17159W        W82386  44.464  10.800   1.155
17160W        W82387  27.194  43.211   1.466
17161W        W82388  42.783   3.899   3.731
17162W        W82389  33.297  25.065   0.326
17163W        W82390   6.432  36.316   4.032
17164W        W82391   4.658  28.110  11.920
17165W        W82392  27.712  38.917   1.818
17166W        W82393  41.748  12.747  12.796
17167W        W82394  32.737  14.323   2.437
17168W        W82395  18.620  21.306  12.913
17169W        W82396  18.682  24.144  11.170
17170W        W82397  21.639  37.629   4.230
17171W        W82398   7.593  13.669   0.421
17172W        W82399   4.851  23.140  14.499
17173W        W82400   9.925  16.755   4.094
17174W        W82401  44.634  28.116   4.127
17175W        W82402  27.959  10.850  10.754
17176W        W82403   6.718  29.529   0.218
17177W        W82404  37.450  17.518  12.913
17178W        W82405  27.431  43.318   3.710
17179W        W82406  13.515   3.384  10.766
17180W        W82407  13.934  29.177  11.881
17181W        W82408  10.236  18.415  12.428
17182W        W82409  29.389  21.207   4.059
17183W        W82410  44.003  12.249  12.409
17184W        W82411  18.295  38.288   2.876
17185W        W82412  16.161  27.133   0.323
17186W        W82413   6.095  37.393  10.123
17187W        W82414  28.041  11.070   1.609
17188W        W82415  44.763  20.906   1.358
17189W        W82416  21.757  13.275   0.972
17190W        W82417  16.289  40.989   3.794
17191W        W82418  22.711   5.377  11.262
17192W        W82419  21.512  12.960  11.320
17193W        W82420   0.997   1.381  12.381
17194W        W82421  10.572  30.351   4.051
17195W        W82422  21.463   9.945   0.398
17196W        W82423  37.961   7.203  13.425
17197W        W82424  20.044   5.897  11.729
17198W        W82425  36.277  17.882  14.002
17199W        W82426  43.475   2.211   4.147
17200W        W82427  32.877   1.732  11.053
17201W        W82428   9.580  19.097   0.331
17202W        W82429   3.721  23.613  13.956
17203W        W82430   8.911  17.942   3.196
17204W        W82431  33.339  44.438   3.262
17205W        W82432  40.047  11.381  10.909
17206W        W82433  15.768   0.025  11.649
17207W        W82434  11.310  17.904  10.461
17208W        W82435  10.201  37.621   4.598
17209W        W82436   4.962   3.134  13.067
17210W        W82437  17.574  44.359   4.629
17211W        W82438  19.180  25.155  13.048
17212W        W82439  29.373   2.190   0.247
17213W        W82440  17.456  38.802   1.373
17214W        W82441  40.685  42.375   3.773
17215W        W82442  11.893  32.559  12.021
17216W        W82443  12.574  34.677   2.265
17217W        W82444  12.656  22.244   1.858
17218W        W82445   9.267   9.466   4.671
17219W        W82446  12.660  40.502   1.837
17220W        W82447  39.313  44.059   0.423
17221W        W82448  37.058  39.344  12.486
17222W        W82449  20.327  17.781  11.551
17223W        W82450  23.663  32.143  14.369
17224W        W82451  42.381  29.376  13.100
17225W        W82452  30.901   1.693  14.473
17226W        W82453  13.472  43.745  14.888
17227W        W82454  44.477   5.870   1.958
17228W        W82455  41.335  27.460  14.519
17229W        W82456  27.544  41.140  14.431
17230W        W82457  40.001  12.781  10.391
17231W        W82458  15.332  28.097  11.153
17232W        W82459  27.061  40.371   1.289
17233W        W82460  40.425  20.739  12.667
17234W        W82461  31.417  21.245  12.488
17235W        W82462  26.676  17.555   3.981
17236W        W82463  22.713  31.892   0.875
17237W        W82464   7.851  31.097  12.565
17238W        W82465  17.331  34.465  11.781
17239W        W82466  22.455  23.075  11.212
17240W        W82467  42.179  19.762  14.921
17241W        W82468  16.251  32.057  14.671
17242W        W82469  22.730  34.433   3.285
17243W        W82470   8.861  31.579  11.222
17244W        W82471   6.137  19.215   3.541
17245W        W82472  11.404  29.170  12.974
17246W        W82473  42.717  43.269   2.290
17247W        W82474  37.216   8.652  13.397
17248W        W82475  28.679   8.070  11.086
17249W        W82476  41.613  40.437  11.710
17250W        W82477   4.211  18.650  12.746
17251W        W82478  33.217  44.859  10.483
17252W        W82479  30.662   5.910   3.314
17253W        W82480  27.787  13.150   0.796
17254W        W82481  21.275  38.755   3.657
17255W        W82482  18.511  34.892  10.275
17256W        W82483  24.605  29.128   0.865
17257W        W82484  20.706   7.973   1.218
17258W        W82485  41.157  36.950  14.484
17259W        W82486  31.668   9.848   2.668
17260W        W82487  39.602  32.994   1.643
17261W        W82488  20.283  30.810  12.059
17262W        W82489  10.546  29.020   3.243
17263W        W82490  31.192  12.299  12.541
17264W        W82491  23.613  11.401  12.944
17265W        W82492  12.211  37.073   3.284
17266W        W82493  38.978   9.201   3.640
17267W        W82494   0.407   6.866  11.434
17268W        W82495   2.759  34.338   2.289
17269W        W82496  44.951  14.815  14.313
17270W        W82497  24.725  24.223   2.239
17271W        W82498  24.233  42.806   0.888
17272W        W82499  16.226   2.020   2.672
17273W        W82500  26.350  20.039  13.618
17274W        W82501  39.409  35.084   1.393
17275W        W82502  26.031  26.164   4.602
17276W        W82503   1.295   4.959  12.616
17277W        W82504  40.603  41.496   0.857
17278W        W82505   6.578  34.904  12.466
17279W        W82506  18.817   6.845  14.875
17280W        W82507  29.890  18.637  11.475
17281W        W82508  25.519  23.778   0.962
17282W        W82509  40.058  25.691  13.627
17283W        W82510   0.171  23.899  14.768
17284W        W82511  34.888  39.169   2.189
17285W        W82512  17.681  24.882  14.317
17286W        W82513   5.379  14.928   2.646
17287W        W82514  19.062  41.497  11.204
17288W        W82515  20.727  44.041  11.533
17289W        W82516   7.943  21.128  12.577
17290W        W82517  10.071   5.720  11.228
17291W        W82518  40.217   7.888   4.638
17292W        W82519  20.678  44.925  12.347
17293W        W82520  29.056  23.562  14.970
17294W        W82521  11.634   7.785   1.889
17295W        W82522   3.498  26.993  11.584
17296W        W82523  14.064  34.153  13.212
17297W        W82524   8.475   6.450  12.337
17298W        W82525   0.842  43.797  13.829
17299W        W82526  36.915   0.747   1.844
17300W        W82527  11.952   2.157   0.796
17301W        W82528  42.012   2.841   0.925
17302W        W82529   0.968  10.664   3.096
17303W        W82530  38.341  18.366  12.522
17304W        W82531  21.613  38.256   0.039
17305W        W82532  21.657  20.220   2.701
17306W        W82533  32.515  16.086   3.359
17307W        W82534  38.300  12.186   2.030
17308W        W82535  28.616  32.017  10.557
17309W        W82536  29.672  23.191   2.121
17310W        W82537  39.979  24.283  10.472
17311W        W82538  38.489  24.730  14.728
17312W        W82539  11.681  19.293  11.223
17313W        W82540   3.551   4.362  13.811
17314W        W82541  21.739  28.267   9.818
17315W        W82542  23.745   1.159   0.494
17316W        W82543  28.591   1.151   2.241
17317W        W82544  28.073  35.911   3.598
17318W        W82545  10.581   0.739   4.662
17319W        W82546  23.608  38.741  10.705
17320W        W82547   2.056  31.554   1.750
17321W        W82548  10.724  29.178   0.024
17322W        W82549  28.821  44.905   1.738
17323W        W82550  43.631   9.913  12.422
17324W        W82551  29.186  18.230   4.850
17325W        W82552  31.160   9.827   2.775
17326W        W82553  35.818   9.441   4.695
17327W        W82554   9.408  30.472  11.992
17328W        W82555   9.744  30.707  14.821
17329W        W82556  39.720  14.351   0.946
17330W        W82557  14.755   9.174   0.288
17331W        W82558  30.280  24.064  12.171
17332W        W82559  23.165  16.753   3.277
17333W        W82560   0.361  10.615   4.091
17334W        W82561   4.743  25.976   0.384
17335W        W82562  24.006   0.003  13.672
17336W        W82563   4.901  21.207   4.175
17337W        W82564  15.731  19.601   3.447
17338W        W82565  36.644   0.540  13.122
17339W        W82566   4.751  18.946  11.508
17340W        W82567  30.168   7.883  12.252
17341W        W82568   1.461  33.721  11.584
17342W        W82569  42.334  19.736  12.283
17343W        W82570   6.497  40.796  11.469
17344W        W82571  12.020   2.444   4.554
17345W        W82572  27.811  14.513  14.716
17346W        W82573  15.098   9.434  12.986
17347W        W82574  22.043  10.655  13.199
17348W        W82575  18.961  40.092   4.114
17349W        W82576  43.476  35.313  12.574
17350W        W82577   7.773   7.248   9.589
17351W        W82578   2.009  28.662   3.163
17352W        W82579  29.085   7.149   3.243
17353W        W82580  32.487  42.981  13.343
17354W        W82581  24.270   1.913   3.646
17355W        W82582   2.730  16.449  11.474
17356W        W82583  17.511  38.419   4.518
17357W        W82584  39.741  32.549  10.841
17358W        W82585  42.522  28.293   3.904
17359W        W82586   6.790  27.976   4.217
17360W        W82587  12.027  38.111  12.810
17361W        W82588  39.358  27.911   0.005
17362W        W82589  30.332  23.182  14.913
17363W        W82590   2.780  12.345  11.214
17364W        W82591  38.769   6.407   2.265
17365W        W82592  41.277  15.111  10.618
17366W        W82593  27.255  37.531   4.191
17367W        W82594  23.754  33.093  14.389
17368W        W82595  32.451  10.611   4.005
17369W        W82596  37.697  21.276   1.352
17370W        W82597   8.262  11.945   3.540
17371W        W82598   0.267  29.657   2.180
17372W        W82599   2.892  44.600   4.515
17373W        W82600  37.029  26.655  14.822
17374W        W82601  41.868   8.316   1.707
17375W        W82602  35.014  29.635   0.083
17376W        W82603  27.947  16.933   2.801
17377W        W82604  12.637  14.183  12.796
17378W        W82605  40.226   8.673   5.091
17379W        W82606  40.208   0.981  10.770
17380W        W82607  29.389  24.973  13.883
17381W        W82608   0.852  13.488  13.725
17382W        W82609  21.198   6.191   3.273
17383W        W82610  41.297   2.310   2.446
17384W        W82611  28.709  19.800  12.046
17385W        W82612  15.575  17.233   2.324
17386W        W82613  44.734  11.233  12.403
17387W        W82614  33.590   1.876  11.542
17388W        W82615  21.669   9.166  12.387
17389W        W82616   6.961  10.771  13.464
17390W        W82617   3.646  28.655   0.654
17391W        W82618  19.000  34.109   3.008
17392W        W82619  18.971  25.039   1.928
17393W        W82620  36.712   1.167   2.156
17394W        W82621  16.157  19.596  11.249
17395W        W82622  31.435   0.799   0.392
17396W        W82623  24.639   7.172   1.273
17397W        W82624  42.774  33.574   0.221
17398W        W82625  14.808  23.058   2.208
17399W        W82626   5.013  31.284  13.030
17400W        W82627  26.512   9.774   3.188
17401W        W82628  18.267   9.564  14.904
17402W        W82629   8.428  12.282  10.715
17403W        W82630  27.107   4.586   2.997
17404W        W82631   0.060  24.059  11.509
17405W        W82632  21.728  39.611  13.394
17406W        W82633  15.276   1.407  10.780
17407W        W82634  20.579  17.303  10.665
17408W        W82635  27.431  27.083  12.388
17409W        W82636  29.209  18.401  14.023
17410W        W82637  11.330  29.703  11.262
17411W        W82638  31.133   3.901  11.738
17412W        W82639  19.184   3.429  11.131
17413W        W82640  31.361   4.094  12.169
17414W        W82641  32.039  41.753   3.997
17415W        W82642  31.069  11.630   1.140
17416W        W82643  29.957   1.778   4.534
17417W        W82644  40.838  37.936  12.466
17418W        W82645  10.177   4.993   3.666
17419W        W82646  37.656  21.193  14.402
17420W        W82647  27.816  31.428  10.504
17421W        W82648  11.879   2.046  12.505
17422W        W82649  40.244  24.651   1.303
17423W        W82650  41.910   3.988   4.140
17424W        W82651  27.644  43.005   0.282
17425W        W82652  44.399   4.928  11.503
17426W        W82653  37.250   5.066  10.372
17427W        W82654   6.295  37.058  14.316
17428W        W82655  32.635   7.515  11.965
17429W        W82656   3.493  12.224  13.615
17430W        W82657  21.906  28.548  11.849
17431W        W82658  35.957   9.328  12.964
17432W        W82659  28.719  34.502  10.445
17433W        W82660  36.309  40.000  13.665
17434W        W82661  13.240  44.346   2.284
17435W        W82662  21.724  10.989  14.487
17436W        W82663  33.948  18.536  11.681
17437W        W82664  26.579  26.108   1.891
17438W        W82665  26.702  34.880   2.337
17439W        W82666  21.821   6.365  10.673
17440W        W82667   8.445   2.533  14.521
17441W        W82668  17.615  22.248  13.531
17442W        W82669  13.976   2.733  14.618
17443W        W82670  26.978  15.911  11.650
17444W        W82671   5.262   7.135   0.059
17445W        W82672  11.269  26.397   1.008
17446W        W82673   2.138  40.024  10.181
17447W        W82674  40.782  25.952   4.823
17448W        W82675  13.136   0.399   2.705
17449W        W82676  16.033   9.808   0.458
17450W        W82677  27.119  35.568   2.205
17451W        W82678  43.550  18.470   3.336
17452W        W82679   0.271  43.080   2.642
17453W        W82680  29.503   1.286  13.386
17454W        W82681   3.594  18.605  10.513
17455W        W82682   2.273  16.970   4.153
17456W        W82683   3.710  22.760   2.858
17457W        W82684   9.354  25.710  14.355
17458W        W82685  44.867  35.147  14.561
17459W        W82686  14.348  35.347  11.154
17460W        W82687   6.323  40.711   2.915
17461W        W82688   4.678  38.232  11.961
17462W        W82689   9.970  27.716  13.568
17463W        W82690  36.971   5.505   1.207
17464W        W82691  31.450  19.512   3.145
17465W        W82692  25.693  11.564  11.774
17466W        W82693  17.163  16.198  13.005
17467W        W82694  14.303  31.674  11.137
17468W        W82695  39.890   9.447  10.707
17469W        W82696  38.532   0.443   0.751
17470W        W82697   4.729   0.841  11.725
17471W        W82698  22.335   2.744  14.352
17472W        W82699  38.366  13.841   4.937
17473W        W82700   9.566   1.351  12.985
17474W        W82701  11.782  14.524   1.409
17475W        W82702  26.637  28.529   1.233
17476W        W82703  26.643  26.113   4.293
17477W        W82704  34.542  28.135  14.807
17478W        W82705   5.591   9.611   2.689
17479W        W82706  40.394  25.150   1.307
17480W        W82707   6.808  31.521  14.489
17481W        W82708   1.357   1.893  13.548
17482W        W82709  37.699  44.382   4.128
17483W        W82710  15.319  44.885   3.176
17484W        W82711  31.822  10.701  11.676
17485W        W82712   0.508   3.345   4.708
17486W        W82713  21.425  19.629  12.744
17487W        W82714   4.896  11.186   4.252
17488W        W82715   8.249   7.442  13.535
17489W        W82716   6.376  22.282   4.892
17490W        W82717  12.462  16.560   4.318
17491W        W82718   7.146   9.476  10.967
17492W        W82719  33.614  38.810   1.812
17493W        W82720  40.435  25.844   3.612
17494W        W82721  12.267  41.078  13.134
17495W        W82722  42.326   3.816  13.629
17496W        W82723  33.939  28.544   3.726
17497W        W82724  32.393  30.380  11.581
17498W        W82725   6.230  11.852  11.945
17499W        W82726   9.863   2.473   2.176
17500W        W82727  31.671   8.461   3.852
17501W        W82728  34.051  27.689  14.891
17502W        W82729  12.704   4.402   3.386
17503W        W82730  22.159  13.530   3.008
17504W        W82731  31.435  42.724   1.722
17505W        W82732   1.488  33.401   4.274
17506W        W82733  17.352   6.650  12.481
17507W        W82734  12.269  20.987   2.268
17508W        W82735  32.753  12.698  13.384
17509W        W82736  37.534  26.120   3.268
17510W        W82737  19.514   0.775   9.511
17511W        W82738  36.476  31.145  14.387
17512W        W82739   0.714  13.934  13.468
17513W        W82740  32.069  38.535  13.784
17514W        W82741  42.252  31.883   0.441
17515W        W82742  43.952  29.580  13.421
17516W        W82743  11.854  10.175  11.225
17517W        W82744  34.771  23.271   4.569
17518W        W82745  39.509   7.864   3.903
17519W        W82746   7.871   6.423  11.746
17520W        W82747  25.471  25.096  14.436
17521W        W82748  40.906  18.047  14.342
17522W        W82749   3.646  33.045   4.446
17523W        W82750  44.175  38.444  11.213
17524W        W82751  34.991   8.073  11.018
17525W        W82752  20.034   0.450   3.136
17526W        W82753   1.808  31.028   3.556
17527W        W82754  37.827  30.597   2.657
17528W        W82755  16.543  43.048   1.003
17529W        W82756  39.380  24.908   4.085
17530W        W82757  41.062  10.277  13.123
17531W        W82758  32.343  25.975   4.368
17532W        W82759  19.950  38.979   1.798
17533W        W82760   4.686  20.765   0.785
17534W        W82761  11.505   2.575  14.029
17535W        W82762  18.295  37.137   0.337
17536W        W82763  28.459  19.635   1.167
17537W        W82764  37.021  40.390   2.569
17538W        W82765  21.269  10.124   4.082
17539W        W82766  16.599  18.736  12.190
17540W        W82767  22.530  33.446   4.710
17541W        W82768  16.005  33.845  11.094
17542W        W82769  32.536  40.299   0.913
17543W        W82770  27.966  29.129   4.137
17544W        W82771   2.904  20.102  14.868
17545W        W82772   9.536  30.924  11.749
17546W        W82773  38.798  43.960   0.381
17547W        W82774  18.333  12.726  11.715
17548W        W82775  32.992   3.752  14.916
17549W        W82776  13.791  42.023  11.067
17550W        W82777  39.079  14.729   2.341
17551W        W82778  29.442   9.640  14.773
17552W        W82779  28.875  44.847   0.915
17553W        W82780  20.739  41.443   1.866
17554W        W82781  37.996  30.378  11.154
17555W        W82782  30.410  39.566  12.958
17556W        W82783  36.506  37.916  11.980
17557W        W82784  13.591  40.081   2.368
17558W        W82785   5.683  22.767   0.434
17559W        W82786   7.510  16.656   2.305
17560W        W82787  28.977   6.766   2.861
17561W        W82788  29.331   5.047  12.672
17562W        W82789  20.714   3.694   4.486
17563W        W82790  34.164   5.397  13.564
17564W        W82791  31.006  23.485   0.744
17565W        W82792   9.831  24.917  10.710
17566W        W82793  16.798   4.354  10.690
17567W        W82794  29.883   7.170  10.569
17568W        W82795   6.869   2.549  10.897
17569W        W82796  21.319  30.856   3.822
17570W        W82797  32.291   8.715   3.591
17571W        W82798  27.509  18.988   4.117
17572W        W82799  15.287  39.492   2.712
17573W        W82800  39.533  13.132   1.480
17574W        W82801  22.334  21.610   1.704
17575W        W82802  32.005  42.616   0.536
17576W        W82803  39.116  13.563  13.448
17577W        W82804  30.396  13.584  13.836
17578W        W82805  30.003  19.652  12.673
17579W        W82806   1.874  20.704   3.659
17580W        W82807  24.690  18.876  10.772
17581W        W82808  23.718  13.878   4.542
17582W        W82809  38.595  27.414   2.085
17583W        W82810  18.027  25.330  11.229
17584W        W82811  37.059  18.587   4.561
17585W        W82812   2.538  37.743   0.297
17586W        W82813   4.640  38.038   1.211
17587W        W82814  41.880  16.612  11.194
17588W        W82815  17.052  30.587  13.383
17589W        W82816  43.481  24.610   0.920
17590W        W82817  44.517  20.715   3.551
17591W        W82818  42.357  17.576   2.751
17592W        W82819   1.880  27.782  11.764
17593W        W82820  40.924  18.707   4.834
17594W        W82821  33.950  23.542  11.624
17595W        W82822  13.768  22.576  14.690
17596W        W82823  15.167  12.118  14.504
17597W        W82824   4.277  42.297   3.069
17598W        W82825  38.533  44.570  12.045
17599W        W82826  38.405   6.654   0.232
17600W        W82827   9.134  41.858  11.880
17601W        W82828  23.550  44.182   2.337
17602W        W82829  18.306  41.433  14.056
17603W        W82830   6.243  13.987   3.103
17604W        W82831  39.143   3.262   3.055
17605W        W82832   2.962  35.333  12.046
17606W        W82833   8.099  35.286  13.830
17607W        W82834  36.989  12.485   0.634
17608W        W82835   2.482  44.482   0.984
17609W        W82836  44.658  20.659  12.071
17610W        W82837   9.230  12.586  12.530
17611W        W82838  33.039  39.390   0.714
17612W        W82839   7.707  12.762  12.907
17613W        W82840  43.983  25.725  14.437
17614W        W82841  15.174  11.427   4.360
17615W        W82842  18.246  18.772   0.599
17616W        W82843   5.144  36.825  12.305
17617W        W82844  18.564  38.627   3.302
17618W        W82845  11.827  30.519   4.539
17619W        W82846  11.047   7.503   2.560
17620W        W82847  19.290  44.093   1.737
17621W        W82848  40.830  10.646   1.660
17622W        W82849  32.517  24.501   1.828
17623W        W82850   5.924   8.398  10.603
17624W        W82851  40.912  41.075   0.824
17625W        W82852  31.296  27.179   2.959
17626W        W82853  17.333  28.654  14.516
17627W        W82854  43.273  10.012   4.752
17628W        W82855  25.730  13.674  11.292
17629W        W82856  17.738  23.490   0.250
17630W        W82857   8.693   7.154   1.292
17631W        W82858  34.861  15.685  11.144
17632W        W82859  18.828  14.614   2.258
17633W        W82860  43.302  44.711   1.190
17634W        W82861  28.382  19.080  11.621
17635W        W82862  35.440  14.204  11.556
17636W        W82863   5.206  35.637   1.379
17637W        W82864   2.138  16.479   4.374
17638W        W82865  30.671  17.406   4.506
17639W        W82866  25.026   1.742  13.071
17640W        W82867  38.737   9.296  14.798
17641W        W82868  29.692  25.312   3.670
17642W        W82869  16.501  17.114  11.667
17643W        W82870  20.495  31.705  14.582
17644W        W82871   8.308  43.491  14.530
17645W        W82872  37.704  19.668   1.951
17646W        W82873  40.422  37.051   3.403
17647W        W82874   5.293  43.524   3.157
17648W        W82875  26.727   1.450  10.466
17649W        W82876  13.994   2.512  11.497
17650W        W82877   7.140  42.478  12.503
17651W        W82878  40.827   1.923  14.402
17652W        W82879   4.424   2.784  10.886
17653W        W82880   4.003   6.329   4.915
17654W        W82881   4.695  40.045  11.004
17655W        W82882  11.824  26.006  12.496
17656W        W82883  11.917  38.343   1.259
17657W        W82884  13.788   3.843  13.745
17658W        W82885  34.061  29.476   0.453
17659W        W82886  33.093   8.748   0.010
17660W        W82887  17.760  33.204   2.251
17661W        W82888  37.569  34.417  13.770
17662W        W82889  17.941   7.972   0.853
17663W        W82890  38.446  10.968   4.159
17664W        W82891  35.417  33.165  14.311
17665W        W82892  25.687   0.528   3.211
17666W        W82893  41.318  38.571   2.758
17667W        W82894  19.286  15.137  11.019
17668W        W82895   6.439  32.624   3.541
17669W        W82896   3.780  19.305   1.335
17670W        W82897  44.612  16.305   3.383
17671W        W82898  11.199  35.123   4.129
17672W        W82899  29.414   1.082   2.769
17673W        W82900  10.940  23.543  11.301
17674W        W82901  13.854  37.891   3.281
17675W        W82902  14.240  34.370  14.017
17676W        W82903  42.553   5.326   3.652
17677W        W82904  40.449  31.186  12.992
17678W        W82905  16.209  16.194   3.239
17679W        W82906  27.652  20.176  12.562
17680W        W82907   2.799  38.891   4.139
17681W        W82908   2.753  12.323   0.768
17682W        W82909  43.167  10.976  10.596
17683W        W82910  37.052  23.246  14.459
17684W        W82911  13.580  16.109   1.308
17685W        W82912  17.978  30.902  13.039
17686W        W82913   1.233  30.482  14.029
17687W        W82914  19.126  18.624   4.503
17688W        W82915   5.934  16.577   3.219
17689W        W82916  37.117  34.283  12.129
17690W        W82917  38.071   5.279  11.935
17691W        W82918  32.549   1.747  10.637
17692W        W82919  21.192  40.288  13.329
17693W        W82920  13.191  29.911   2.082
17694W        W82921  43.363   3.871   4.110
17695W        W82922   2.296  31.709   3.488
17696W        W82923  18.192  19.641   0.482
17697W        W82924  21.234  10.862   3.569
17698W        W82925  26.232   6.293  13.212
17699W        W82926  19.345  26.014   3.180
17700W        W82927  32.550  30.178  11.107
17701W        W82928   0.000  16.453   4.225
17702W        W82929  40.331  35.870  10.874
17703W        W82930   1.198  23.207  12.561
17704W        W82931   5.656  30.283  11.081
17705W        W82932  30.437  22.713   3.293
17706W        W82933  11.648  20.283   1.391
17707W        W82934  42.460  27.793   3.271
17708W        W82935  39.250   3.723  14.310
17709W        W82936  24.415  15.492   2.489
17710W        W82937  43.416   7.546  10.817
17711W        W82938  15.923  32.592   0.963
17712W        W82939  13.633  28.325   0.848
17713W        W82940  16.057  38.858   4.089
17714W        W82941  18.590  22.706  14.615
17715W        W82942   6.225  25.738  13.603
17716W        W82943   9.972  14.422   0.288
17717W        W82944  37.802  33.015  11.597
17718W        W82945  34.080  18.203  14.339
17719W        W82946  24.192   7.005   4.137
17720W        W82947  15.258  21.492  10.702
17721W        W82948  24.765  29.344   2.849
17722W        W82949  15.902   3.063  10.588
17723W        W82950  18.918  12.485  14.439
17724W        W82951  40.859   1.435  13.205
17725W        W82952   4.848  40.329   0.931
17726W        W82953   3.441  40.479   4.532
17727W        W82954   8.660  40.291  10.565
17728W        W82955  31.762  24.669   3.285
17729W        W82956   5.492  38.043  14.819
17730W        W82957   2.517  21.754  10.662
17731W        W82958   5.957  18.869   0.257
17732W        W82959   8.452   0.071   0.988
17733W        W82960   6.907  25.844   3.538
17734W        W82961  40.031  10.195  11.234
17735W        W82962  11.296   8.919   1.406
17736W        W82963  22.790  41.500  11.213
17737W        W82964   9.193  33.097  12.397
17738W        W82965  42.639  28.920  13.228
17739W        W82966  26.534  31.600  11.289
17740W        W82967  26.238   2.955   0.086
17741W        W82968  10.339  16.795   1.273
17742W        W82969  42.502   8.754   1.286
17743W        W82970  41.021  21.223  10.716
17744W        W82971   3.301  11.418  11.632
17745W        W82972  11.080   1.732   0.128
17746W        W82973   6.270  29.489  14.941
17747W        W82974   5.406   8.410  10.641
17748W        W82975  26.314   0.226  13.458
17749W        W82976  37.307  44.239  10.405
17750W        W82977   8.426  11.279  11.997
17751W        W82978  33.701  23.210  14.078
17752W        W82979  31.433   8.904  14.352
17753W        W82980  37.036   9.800   0.729
17754W        W82981  34.391   6.731   1.813
17755W        W82982  26.183  22.602  11.110
17756W        W82983   6.866  41.160  11.649
17757W        W82984   3.376  11.471   5.044
17758W        W82985  34.124  25.403  12.027
17759W        W82986  11.983  21.869   3.047
17760W        W82987   9.416  43.816   2.593
17761W        W82988  24.655  16.991   1.401
17762W        W82989  20.067  23.148  12.461
17763W        W82990  37.825   8.810   0.765
17764W        W82991   4.988  34.910  12.615
17765W        W82992  34.586   1.020  12.657
17766W        W82993  10.836  39.371  14.822
17767W        W82994  19.806   3.639   2.393
17768W        W82995  18.758  34.347   0.864
17769W        W82996  24.952  13.456  11.063
17770W        W82997   6.381   3.713   4.455
17771W        W82998  13.537  21.182   4.232
17772W        W82999  42.506  32.956   2.857
17773W        W83000  43.832  42.834  11.920
17774W        W83001  24.692  41.709  11.591
17775W        W83002  12.285  20.966   0.770
17776W        W83003  28.547   4.748   4.648
17777W        W83004  11.678  28.678   1.206
17778W        W83005  17.262  37.413   1.407
17779W        W83006  20.622  29.527   1.655
17780W        W83007   4.440  28.108   0.776
17781W        W83008  15.170  39.481  14.498
17782W        W83009  19.357  30.527  10.399
17783W        W83010   0.874   8.548  10.788
17784W        W83011   6.358  15.132   0.722
17785W        W83012  39.685  21.963  10.731
17786W        W83013  22.126   0.232   9.920
17787W        W83014  14.685  31.564   2.161
17788W        W83015   8.754  42.945  13.877
17789W        W83016  38.485  20.973   9.914
17790W        W83017  27.886  15.424  14.928
17791W        W83018  35.245  12.899  11.015
17792W        W83019   1.993   5.257   2.735
17793W        W83020   8.771  10.392  13.045
17794W        W83021  42.390  41.439  10.513
17795W        W83022  24.218  26.576  11.150
17796W        W83023   7.701  36.068   0.435
17797W        W83024  10.696   0.858  12.600
17798W        W83025  37.311  11.811  12.467
17799W        W83026  35.915  18.245  14.916
17800W        W83027  42.005  39.460   4.348
17801W        W83028  43.647  39.526   1.213
17802W        W83029  37.957  28.005  12.934
17803W        W83030  19.430  25.001  12.595
17804W        W83031  44.230   4.101  14.862
17805W        W83032  43.041  30.008   0.890
17806W        W83033  27.071  11.553  12.125
17807W        W83034  12.092   7.710   4.535
17808W        W83035  40.542  16.544  14.772
17809W        W83036  10.277   5.558   2.677
17810W        W83037   5.484   0.433   2.163
17811W        W83038  44.210  11.688  11.158
17812W        W83039  29.037   0.507   1.315
17813W        W83040  20.675  32.583   0.348
17814W        W83041  34.763  43.976  14.336
17815W        W83042  11.080  16.701   1.793
17816W        W83043  23.099  28.831   2.229
17817W        W83044  35.132   2.880  13.368
17818W        W83045   6.621  38.836   1.399
17819W        W83046  14.511  42.312   0.239
17820W        W83047  36.601   1.723   1.403
17821W        W83048  31.447  15.193   1.345
17822W        W83049  39.832  19.827   3.652
17823W        W83050   2.720  38.457   2.310
17824W        W83051  40.942  42.862   0.526
17825W        W83052   4.323   0.513   2.472
17826W        W83053  37.342  19.348  11.646
17827W        W83054  36.059  14.701  13.983
17828W        W83055  30.042  23.121  11.409
17829W        W83056  43.920  16.794   0.372
17830W        W83057  43.763  28.867  12.327
17831W        W83058  36.603   2.258   1.361
17832W        W83059   3.161  38.540   2.579
17833W        W83060  31.172  33.581  11.829
17834W        W83061  18.381  37.645   0.477
17835W        W83062   5.801  40.819   2.777
17836W        W83063  14.198  42.597  14.285
17837W        W83064  29.948  24.344   3.633
17838W        W83065  40.908  31.035  12.813
17839W        W83066  44.846   6.568   4.625
17840W        W83067  20.469  20.553   3.873
17841W        W83068  14.648  19.960   4.441
17842W        W83069  22.188  15.514  10.656
17843W        W83070  12.316   9.663   1.670
17844W        W83071   0.789  10.462   0.233
17845W        W83072  27.624  26.377   3.246
17846W        W83073  11.725  17.663   2.882
17847W        W83074  25.674   8.799   4.470
17848W        W83075  41.040  10.965  14.692
17849W        W83076  41.581   9.454  12.986
17850W        W83077  14.167  30.869  14.310
17851W        W83078  31.063  21.755   3.781
17852W        W83079  22.215  40.267  13.610
17853W        W83080  35.972   1.909   1.223
17854W        W83081   2.443   4.978   4.919
17855W        W83082  33.064  44.421   2.637
17856W        W83083  44.284  19.741   2.721
17857W        W83084  41.844  36.056  11.585
17858W        W83085  11.740   3.045   3.329
17859W        W83086  28.136  27.009   4.948
17860W        W83087  30.027  32.782   4.226
17861W        W83088  35.500  23.085  14.812
17862W        W83089  26.630  33.399   0.819
17863W        W83090  19.547   4.931   2.773
17864W        W83091  41.802  23.936  12.540
17865W        W83092  42.036   1.213  10.494
17866W        W83093  24.553  36.367   3.687
17867W        W83094  40.250  28.703   0.345
17868W        W83095  26.493  33.375   4.543
17869W        W83096  18.022   7.212   3.301
17870W        W83097  44.690  20.702   1.837
17871W        W83098  44.350   6.905  13.298
17872W        W83099  44.740   0.727  13.876
17873W        W83100  29.695  22.783   4.252
17874W        W83101  38.404  19.696  14.171
17875W        W83102   1.263  15.846   2.292
17876W        W83103  36.423  16.349   2.359
17877W        W83104  33.622   2.949  11.584
17878W        W83105  28.674  32.657  13.999
17879W        W83106  17.248  13.672  10.503
17880W        W83107  13.917  22.643  12.455
17881W        W83108  27.543  40.012  12.379
17882W        W83109  27.617   6.868   1.637
17883W        W83110  12.398  21.197  14.432
17884W        W83111  19.119  13.119   1.349
17885W        W83112  35.179  32.915   2.640
17886W        W83113  22.786  42.392  11.133
17887W        W83114   8.242  26.955  13.960
17888W        W83115  35.150  20.899   3.180
17889W        W83116  24.291  18.170  11.164
17890W        W83117  17.639  30.595  12.771
17891W        W83118  11.108  26.557   3.782
17892W        W83119   0.058  30.055  14.335
17893W        W83120  28.549  41.429  13.543
17894W        W83121  33.411  39.521   0.375
17895W        W83122   1.950  32.916  11.672
17896W        W83123  27.566  43.971   1.450
17897W        W83124  38.566  42.972   2.422
17898W        W83125  10.814  31.372  11.297
17899W        W83126  14.265  23.137   1.303
17900W        W83127  42.656  17.662  12.532
17901W        W83128  27.293  23.933  14.726
17902W        W83129  43.436  38.589   0.795
17903W        W83130  17.481  19.886  10.935
17904W        W83131  38.862  15.264   0.754
17905W        W83132  10.955   9.068   2.415
17906W        W83133  34.038   2.930   1.251
17907W        W83134   0.683  14.281  11.748
17908W        W83135  31.933  15.248   2.862
17909W        W83136  16.549   6.251  12.000
17910W        W83137  21.209  23.960   4.178
17911W        W83138  21.996  12.742   2.427
17912W        W83139  22.249   5.473  13.759
17913W        W83140  36.975   2.014  13.032
17914W        W83141  19.541  14.662  13.484
17915W        W83142  41.334  42.829  13.374
17916W        W83143  25.219  42.672  13.850
17917W        W83144  22.249  28.240  12.099
17918W        W83145  38.095  12.753   4.542
17919W        W83146  39.031  13.834  12.988
17920W        W83147  17.605  15.094   2.875
17921W        W83148  25.546  34.561  12.600
17922W        W83149  28.109  20.413  14.339
17923W        W83150  11.343  43.043   0.844
17924W        W83151  16.304   4.422  12.516
17925W        W83152  15.768   6.216   1.095
17926W        W83153   1.939   6.659  14.490
17927W        W83154   2.954   6.950  14.370
17928W        W83155  30.864  14.598   0.270
17929W        W83156  28.681   6.679   4.669
17930W        W83157  29.051  15.714  14.721
17931W        W83158  36.425  25.073  13.154
17932W        W83159   1.734   2.677   3.164
17933W        W83160  13.894  23.283   0.391
17934W        W83161  43.906   9.820   1.638
17935W        W83162  28.681  17.873   1.906
17936W        W83163  34.985  31.754  11.128
17937W        W83164  29.154  21.942   2.313
17938W        W83165  16.279  33.385  11.865
17939W        W83166  11.386  23.139   4.609
17940W        W83167  22.757   1.699  13.190
17941W        W83168  19.850  27.977  10.688
17942W        W83169  20.034  22.226  11.443
17943W        W83170  21.230   2.738   1.260
17944W        W83171  44.502  26.613  14.941
17945W        W83172  31.660  42.263   1.780
17946W        W83173  24.984  25.183  12.537
17947W        W83174   6.906  32.036   2.809
17948W        W83175  27.117  44.550  14.297
17949W        W83176  17.296  15.998  13.470
17950W        W83177  27.812  19.583  11.240
17951W        W83178  19.193  17.063   4.339
17952W        W83179  22.642  30.871   3.707
17953W        W83180  40.753  43.962   0.270
17954W        W83181  27.729   1.376  12.887
17955W        W83182  17.603  25.577   2.991
17956W        W83183  33.642   4.459  13.470
17957W        W83184  17.333   4.019  14.547
17958W        W83185  30.384  11.790  11.164
17959W        W83186   1.014  11.497  14.026
17960W        W83187  10.701  22.786  14.975
17961W        W83188  30.503  34.772   3.742
17962W        W83189  17.194  31.854  12.698
17963W        W83190   2.017  25.550  10.637
17964W        W83191  10.391  33.790   2.274
17965W        W83192  36.198  17.505  11.452
17966W        W83193  23.744  44.869  12.753
17967W        W83194   3.023  23.779   2.131
17968W        W83195   8.677  38.400   0.897
17969W        W83196  33.681  22.347  11.991
17970W        W83197  19.074  35.619  11.197
17971W        W83198  32.174   8.188  13.463
17972W        W83199  36.383   7.838   3.699
17973W        W83200   9.088  33.664  10.533
17974W        W83201   0.342  35.335  11.042
17975W        W83202   5.510   1.864   0.860
17976W        W83203  29.265  23.192  14.665
17977W        W83204  24.735   8.299  12.071
17978W        W83205   5.835  30.602   2.430
17979W        W83206   6.838  35.934  12.334
17980W        W83207  26.943  34.606   3.581
17981W        W83208  27.044   9.664   0.786
17982W        W83209   7.770   6.003   9.784
17983W        W83210  24.473  26.677  13.609
17984W        W83211   6.841  43.753  12.151
17985W        W83212  20.754  23.581  12.525
17986W        W83213  21.220  36.942  11.937
17987W        W83214  37.678  20.734  13.507
17988W        W83215  40.917  40.578  12.970
17989W        W83216  18.685   2.497   3.250
17990W        W83217  14.875  27.037   0.841
17991W        W83218  22.934  13.665   2.608
17992W        W83219   2.928  41.818   0.316
17993W        W83220  26.553  31.401  14.875
17994W        W83221   0.760  33.638  12.097
17995W        W83222  20.011  12.589   1.350
17996W        W83223  28.061   5.843  12.951
17997W        W83224  39.529  12.194   1.282
17998W        W83225   4.354  15.980   4.168
17999W        W83226   5.744  31.405  14.358
18000W        W83227  38.316   3.547  11.971
18001W        W83228  40.752  26.667  13.026
18002W        W83229  21.379  42.390   0.569
18003W        W83230  16.718  25.409   1.212
18004W        W83231  14.313  36.553  12.985
18005W        W83232   0.746  35.401   2.688
18006W        W83233   6.349  22.404  10.813
18007W        W83234  40.998  31.228  14.369
18008W        W83235  29.887  32.334   2.864
18009W        W83236  41.798   3.467  11.239
18010W        W83237  14.337   3.264  11.112
18011W        W83238  25.497  34.518   3.108
18012W        W83239  25.272  23.043   3.551
18013W        W83240   5.779   7.862   3.198
18014W        W83241  17.336  17.873   5.093
18015W        W83242  43.928  44.510   1.811
18016W        W83243  13.015   8.240   3.734
18017W        W83244  25.198  29.465   2.425
18018W        W83245   4.885  44.372   4.264
18019W        W83246  36.797  17.694   0.834
18020W        W83247  10.451  27.492  13.682
18021W        W83248  29.381  26.037   4.155
18022W        W83249  32.728   6.282  13.355
18023W        W83250   4.953  34.431   2.435
18024W        W83251  25.056  40.950  10.873
18025W        W83252  39.534  17.100   2.222
18026W        W83253   4.868  12.159   0.527
18027W        W83254  22.433  28.241   2.778
18028W        W83255  25.862   2.788   3.305
18029W        W83256   9.345  29.685   3.853
18030W        W83257  19.235   2.910   4.730
18031W        W83258   6.914  15.414   1.903
18032W        W83259   5.358  13.074   2.935
18033W        W83260  22.288  31.612  12.597
18034W        W83261   1.309  34.139   1.474
18035W        W83262  28.947  11.584  13.058
18036W        W83263   0.954  25.519  13.124
18037W        W83264  20.202   5.032  14.535
18038W        W83265  44.859  35.452   3.274
18039W        W83266  29.552   8.262  11.136
18040W        W83267  42.893  38.399   0.831
18041W        W83268  16.401  13.145  13.279
18042W        W83269   2.351  26.683  13.958
18043W        W83270   1.928  37.478  14.029
18044W        W83271  13.324  16.843   0.958
18045W        W83272  11.290  31.576  12.682
18046W        W83273   2.642  16.159  12.882
18047W        W83274  23.745  40.614   4.728
18048W        W83275  19.754  37.553   1.459
18049W        W83276  31.202  39.529   3.744
18050W        W83277  29.408  16.267  11.670
18051W        W83278   8.182  43.359   4.620
18052W        W83279  44.611   8.756   4.501
18053W        W83280  31.612  37.575  11.145
18054W        W83281   2.060  19.210   4.543
18055W        W83282  29.498  44.615   1.771
18056W        W83283  20.193  36.922  14.327
18057W        W83284  14.914  24.096  12.493
18058W        W83285  23.796   0.778   4.022
18059W        W83286  24.967  40.447  11.987
18060W        W83287  28.730  38.932   1.946
18061W        W83288  15.442  28.057   1.144
18062W        W83289  13.321  37.822  11.622
18063W        W83290  34.635  23.178  12.441
18064W        W83291  34.128  41.295  12.711
18065W        W83292  33.346   0.892   3.917
18066W        W83293  23.059  35.739  12.315
18067W        W83294  24.317   8.608  12.008
18068W        W83295  16.162  15.805   0.931
18069W        W83296  18.154  29.888  14.004
18070W        W83297  10.331  33.629   5.087
18071W        W83298  36.816  14.066  13.842
18072W        W83299  42.540  24.280  11.534
18073W        W83300  23.209  10.116  11.641
18074W        W83301   3.935  43.319   0.969
18075W        W83302  23.161  39.421   0.773
18076W        W83303  33.334  13.597   2.115
18077W        W83304  11.767  22.519  14.218
18078W        W83305  11.816  34.842   0.334
18079W        W83306  14.157   6.874   3.044
18080W        W83307  15.640  36.816   4.665
18081W        W83308  43.289  10.362  14.221
18082W        W83309  29.959   2.856   3.701
18083W        W83310  29.082  30.672  12.238
18084W        W83311  18.511  35.433   0.610
18085W        W83312  15.993  13.670   3.225
18086W        W83313  12.904  16.306  14.629
18087W        W83314  30.085  43.445   1.279
18088W        W83315  37.214  40.407   0.554
18089W        W83316  31.062  25.984   9.748
18090W        W83317  13.709  40.563  12.513
18091W        W83318   0.140  23.959   5.794
18092W        W83319  28.036   3.810   4.540
18093W        W83320  13.330  27.942   1.384
18094W        W83321  34.007  20.528  14.964
18095W        W83322  23.117  25.547   1.039
18096W        W83323  27.629  41.338  11.077
18097W        W83324  10.586   8.301   3.961
18098W        W83325  22.027   3.869   0.702
18099W        W83326  38.657  32.639  12.076
18100W        W83327  16.728  38.002   3.750
18101W        W83328  32.458  12.403   2.768
18102W        W83329  14.597  35.106  13.679
18103W        W83330  27.564   3.910   2.383
18104W        W83331   6.809  14.643   2.471
18105W        W83332  29.538  31.540   4.589
18106W        W83333  41.994  26.367   4.502
18107W        W83334  14.262  17.178  12.665
18108W        W83335   5.470  23.688   1.814
18109W        W83336  34.630  26.693   2.760
18110W        W83337   3.415  11.242   1.807
18111W        W83338  29.134   4.450   1.939
18112W        W83339  24.954  24.528  10.709
18113W        W83340  32.197  10.912   3.649
18114W        W83341   3.771  39.021   0.936
18115W        W83342   6.925  43.745   3.647
18116W        W83343  26.614  19.562  14.947
18117W        W83344   2.784   3.831  11.635
18118W        W83345  25.619   8.898  11.551
18119W        W83346   1.072  23.650   4.962
18120W        W83347  21.197  20.964  13.436
18121W        W83348  35.587  22.582  13.646
18122W        W83349  28.491  37.994  14.986
18123W        W83350   1.863  33.740   4.103
18124W        W83351   6.866  16.849  13.852
18125W        W83352   7.392  44.421   0.692
18126W        W83353  12.244  18.225   0.689
18127W        W83354  44.284  17.039  11.936
18128W        W83355  15.154   0.027  11.961
18129W        W83356  36.964   7.150  12.028
18130W        W83357  43.094   4.943  12.532
18131W        W83358   3.193  29.289  10.793
18132W        W83359   9.337   8.916   0.218
18133W        W83360  37.881  43.553   2.825
18134W        W83361  41.003  40.071  12.959
18135W        W83362  18.317  24.431   3.307
18136W        W83363  15.206   5.133  13.803
18137W        W83364  24.350  22.758  11.922
18138W        W83365   0.765  30.423  14.235
18139W        W83366  31.509   1.829   2.326
18140W        W83367  17.775   3.468  12.818
18141W        W83368  27.643  33.909   0.385
18142W        W83369  44.188  37.878  11.555
18143W        W83370  44.071  13.510  12.023
18144W        W83371  20.548   2.309  11.767
18145W        W83372  15.273  27.110   2.708
18146W        W83373  25.525   9.626  12.972
18147W        W83374  15.709  20.977  11.441
18148W        W83375  20.533  17.901   0.466
18149W        W83376  21.517  31.972   2.972
18150W        W83377   4.179  36.535  11.135
18151W        W83378  11.761  27.075   2.434
18152W        W83379  14.614  32.535  12.200
18153W        W83380   0.499  37.059   1.337
18154W        W83381  25.419  17.036   3.888
18155W        W83382  41.255  42.043  11.536
18156W        W83383  12.717   6.352   2.678
18157W        W83384  39.940  10.638   0.485
18158W        W83385  18.747  33.942   4.688
18159W        W83386  38.637  42.332   3.664
18160W        W83387   1.696  37.477   4.063
18161W        W83388  28.957   7.192  11.930
18162W        W83389  10.429  28.187  13.938
18163W        W83390  39.593  26.900   1.151
18164W        W83391  32.761  13.664   3.469
18165W        W83392  38.526  40.933  11.475
18166W        W83393   4.549  35.918  11.548
18167W        W83394  36.445  43.834   3.450
18168W        W83395  42.641   9.707  10.706
18169W        W83396  35.645  36.815  14.972
18170W        W83397  31.234  27.659   3.869
18171W        W83398  40.858  20.511   0.771
18172W        W83399  27.551  17.270   2.591
18173W        W83400  20.218  33.509   2.756
18174W        W83401  39.129  39.528  14.749
18175W        W83402   1.825  18.229   1.191
18176W        W83403  12.376  19.672   2.871
18177W        W83404  15.898   1.207  13.281
18178W        W83405  18.214  34.527   3.635
18179W        W83406  26.196  38.437  13.457
18180W        W83407  22.986  25.659  11.911
18181W        W83408  38.942   9.714   1.943
18182W        W83409  42.595  33.483   2.835
18183W        W83410  41.726  16.019   1.417
18184W        W83411   7.782  37.066   0.316
18185W        W83412  24.778  14.010   4.808
18186W        W83413  42.379  35.314   2.750
18187W        W83414  43.649  28.065   4.878
18188W        W83415   5.837  20.157   4.771
18189W        W83416   8.887   1.814  10.142
18190W        W83417   8.261  10.569   1.439
18191W        W83418   2.910  23.951   4.090
18192W        W83419  36.706  44.920  11.273
18193W        W83420  27.931  43.024  11.129
18194W        W83421  32.609  35.965   0.385
18195W        W83422   3.883   0.286   2.248
18196W        W83423   6.856  18.826   4.935
18197W        W83424   3.035  28.368  14.942
18198W        W83425  35.565  20.457  10.786
18199W        W83426   7.363   1.834   3.108
18200W        W83427   3.665  19.703   1.639
18201W        W83428  15.140  33.814   0.436
18202W        W83429  10.605  17.488  11.586
18203W        W83430  14.894  24.744  14.286
18204W        W83431  32.224  39.454   9.643
18205W        W83432   4.251   7.598  11.156
18206W        W83433   3.765   0.909  12.572
18207W        W83434  22.066  24.731   0.277
18208W        W83435  14.973  25.144  10.256
18209W        W83436  32.704  28.199   4.950
18210W        W83437  25.252   7.153   0.253
18211W        W83438  42.804  36.516   2.236
18212W        W83439  44.727  31.399  14.194
18213W        W83440  26.506   6.733  13.340
18214W        W83441  42.262  40.451  13.327
18215W        W83442  19.029   4.739  14.305
18216W        W83443   2.505  27.036   2.711
18217W        W83444   5.632  32.526   2.467
18218W        W83445   1.192  40.998   0.147
18219W        W83446  33.580  24.536   2.411
18220W        W83447  43.534  14.740   2.130
18221W        W83448  11.918   1.529  12.617
18222W        W83449   8.670  38.756   4.747
18223W        W83450  33.083  21.580  12.083
18224W        W83451   1.679  43.274   1.422
18225W        W83452  29.112  35.464   1.225
18226W        W83453   1.282   2.387  11.644
18227W        W83454  31.368  15.755   4.092
18228W        W83455   2.052  11.238  12.477
18229W        W83456  34.146  20.730  13.412
18230W        W83457  42.519  34.477  12.099
18231W        W83458  25.789  37.952   0.099
18232W        W83459  28.391  23.503  10.789
18233W        W83460  22.440   6.720   3.328
18234W        W83461   5.596  18.413   2.492
18235W        W83462  12.377   3.725   4.282
18236W        W83463   0.447  22.631   0.298
18237W        W83464  30.951  13.640  13.230
18238W        W83465  22.710   3.781  11.560
18239W        W83466  19.176  13.792  12.106
18240W        W83467  16.116  36.227  12.553
18241W        W83468  32.460  34.085  12.562
18242W        W83469  19.974  18.643  11.683
18243W        W83470  42.815  22.122   3.211
18244W        W83471  34.779   0.521  12.484
18245W        W83472  41.417  22.836   3.271
18246W        W83473   6.782  35.715   2.277
18247W        W83474  17.311  18.895   4.330
18248W        W83475  17.791  37.827  14.797
18249W        W83476  20.632  25.329   3.269
18250W        W83477  34.608  23.204  11.395
18251W        W83478   0.491   1.856  13.939
18252W        W83479  29.907   4.888  14.869
18253W        W83480  33.196  24.785   0.813
18254W        W83481  26.208  17.369  14.190
18255W        W83482  25.294  42.505   3.797
18256W        W83483  30.418  21.688  11.955
18257W        W83484  20.870  28.493  12.727
18258W        W83485  16.628  10.193  12.667
18259W        W83486  39.847  27.998   4.064
18260W        W83487  39.172  40.780  14.518
18261W        W83488  29.160  14.962   0.795
18262W        W83489  28.472   4.888   3.231
18263W        W83490   4.835  15.258   4.924
18264W        W83491  42.419  22.639   3.618
18265W        W83492  36.067  33.957  14.407
18266W        W83493  40.647  39.985   1.897
18267W        W83494  16.536  41.539  14.920
18268W        W83495  22.601  35.673  14.578
18269W        W83496   2.019  17.229  13.759
18270W        W83497  18.607  24.493   3.725
18271W        W83498  33.565   4.273   3.831
18272W        W83499  27.217  20.798   2.503
18273W        W83500  37.310  12.253   1.761
18274W        W83501   0.416  36.913  12.559
18275W        W83502  38.643  39.231  13.086
18276W        W83503  33.194   0.819   2.196
18277W        W83504  21.232   0.393   0.039
18278W        W83505  11.858  31.555  11.009
18279W        W83506  32.537   8.784  13.576
18280W        W83507  20.659   8.768   3.662
18281W        W83508  12.757   8.326  12.440
18282W        W83509   5.635  42.446  11.955
18283W        W83510   1.481   4.401   2.280
18284W        W83511  43.985  15.776  10.637
18285W        W83512  13.527  26.269   3.223
18286W        W83513  11.719   7.268   3.669
18287W        W83514   5.499   7.401   0.464
18288W        W83515  27.922  41.484   0.341
18289W        W83516  42.948  16.140   2.228
18290W        W83517  15.718  40.218   1.256
18291W        W83518  26.151   2.768  12.383
18292W        W83519  29.946  39.431   3.182
18293W        W83520  30.140  41.913  10.588
18294W        W83521  28.661  30.899  10.610
18295W        W83522   1.287   7.254  14.276
18296W        W83523  23.132  36.376   2.688
18297W        W83524   7.486  40.698   4.677
18298W        W83525   9.817   1.799   3.893
18299W        W83526   6.931  39.090   1.957
18300W        W83527  14.187   3.809   3.648
18301W        W83528  25.897   7.848  12.520
18302W        W83529  21.107  25.969  11.137
18303W        W83530   2.712  29.993  10.298
18304W        W83531  31.201  27.598   1.247
18305W        W83532  17.980   3.242  11.639
18306W        W83533   3.238  33.166  13.815
18307W        W83534  33.499  34.815   2.353
18308W        W83535   9.783  25.754  11.144
18309W        W83536  35.071   6.761  10.779
18310W        W83537  43.748  30.500   4.033
18311W        W83538   8.162  19.069   0.321
18312W        W83539  30.323   9.623  12.594
18313W        W83540  39.368  38.315   0.869
18314W        W83541  44.517   9.447  13.276
18315W        W83542  32.873  19.755   2.390
18316W        W83543   3.156  33.167   3.182
18317W        W83544  42.159  41.988  10.723
18318W        W83545  36.675  20.275   1.219
18319W        W83546  22.732  11.600   2.603
18320W        W83547  16.245  34.345  13.968
18321W        W83548  26.095  43.442  10.937
18322W        W83549  21.464  21.937   1.793
18323W        W83550  21.083  27.781   0.821
18324W        W83551  39.044  16.103  12.346
18325W        W83552  43.222  40.683   4.833
18326W        W83553  37.372  16.309   3.201
18327W        W83554  19.202  42.440  11.953
18328W        W83555  13.567  30.085  11.556
18329W        W83556  25.256  37.580  11.623
18330W        W83557  26.015   6.950   0.883
18331W        W83558  41.225   5.189   4.092
18332W        W83559  10.851  24.420   1.019
18333W        W83560  30.129   7.354  12.344
18334W        W83561  28.546  28.112   4.662
18335W        W83562  44.380  16.561   0.362
18336W        W83563  19.999   0.244  12.156
18337W        W83564  10.361  27.353   4.268
18338W        W83565  26.225   3.786  14.839
18339W        W83566  28.215  23.862  11.151
18340W        W83567  33.896  17.749  11.122
18341W        W83568  13.636  11.913   4.139
18342W        W83569  15.732  40.736   0.304
18343W        W83570   9.194  18.256   1.973
18344W        W83571  21.969  27.733  11.579
18345W        W83572  44.318   3.161   2.935
18346W        W83573  24.222  29.736  11.921
18347W        W83574  37.894  17.291  14.837
18348W        W83575  10.608  38.315   0.372
18349W        W83576  17.127  10.927   1.266
18350W        W83577  20.360  21.117   1.765
18351W        W83578  42.461   1.701  12.946
18352W        W83579   4.993  24.760  10.566
18353W        W83580  42.587  19.991  13.113
18354W        W83581  43.967   1.342   4.652
18355W        W83582  42.835  23.445  14.803
18356W        W83583  16.694   2.408   1.157
18357W        W83584   7.728  14.084  14.263
18358W        W83585  41.542  33.005   2.450
18359W        W83586  14.566   0.864  13.138
18360W        W83587  34.884   2.673  11.932
18361W        W83588  32.949  38.142   5.007
18362W        W83589   3.387  38.050   0.538
18363W        W83590  29.846  21.654  11.115
18364W        W83591  23.258  34.071  11.850
18365W        W83592  32.576   2.458   3.669
18366W        W83593   9.859  28.850  11.512
18367W        W83594  10.356  12.462  12.009
18368W        W83595  43.422  28.015   1.276
18369W        W83596  13.932  22.996  14.949
18370W        W83597  31.744  41.588  13.158
18371W        W83598  25.620  17.849  14.790
18372W        W83599  28.132  42.343  10.750
18373W        W83600  38.521  21.267   0.017
18374W        W83601  28.904  39.328   2.276
18375W        W83602   3.700  32.518  14.366
18376W        W83603  18.930  42.677   0.768
18377W        W83604   3.912   9.750   2.381
18378W        W83605   9.212   0.378  12.286
18379W        W83606  38.319   6.211   2.031
18380W        W83607   8.212  15.375  12.470
18381W        W83608  44.379  15.361   2.414
18382W        W83609  42.357   4.436   4.081
18383W        W83610  28.429  17.132   2.801
18384W        W83611  41.270  12.539  12.839
18385W        W83612  44.197  39.694   3.557
18386W        W83613  25.034  11.961   0.991
18387W        W83614   4.811  37.252  12.153
18388W        W83615   8.113  27.418   3.252
18389W        W83616  27.439  16.935  11.946
18390W        W83617   4.178  16.230  12.476
18391W        W83618  20.759  13.924   4.149
18392W        W83619  25.667  34.960   0.763
18393W        W83620   4.908   6.802   3.237
18394W        W83621  29.922  35.941  14.517
18395W        W83622  35.543  20.878   3.815
18396W        W83623  42.737  42.869  10.015
18397W        W83624  11.709  18.786   2.295
18398W        W83625   1.160  32.462   0.520
18399W        W83626  13.571   1.264   0.686
18400W        W83627  36.426  28.483  14.941
18401W        W83628  26.781  18.356   2.774
18402W        W83629  37.429   3.726   3.842
18403W        W83630  42.190  25.710  13.409
18404W        W83631  34.486  39.541   2.558
18405W        W83632   1.731  27.258  11.083
18406W        W83633  11.606   0.570   2.769
18407W        W83634  26.484  36.377   4.225
18408W        W83635  17.239   7.232  13.822
18409W        W83636  18.161  12.608  13.015
18410W        W83637  22.759  11.080  14.341
18411W        W83638  19.742  42.088  13.935
18412W        W83639  25.496  16.664  11.578
18413W        W83640   6.267  33.021   4.447
18414W        W83641  23.463  20.601   3.697
18415W        W83642   8.548   1.382  12.931
18416W        W83643  13.809   3.892  10.636
18417W        W83644   9.259  36.634   0.882
18418W        W83645   2.878  23.470   4.293
18419W        W83646   8.915  13.323  11.658
18420W        W83647  10.268  37.521  14.047
18421W        W83648  16.511  42.884  10.489
18422W        W83649  29.866  29.695  12.632
18423W        W83650  30.383  28.384   3.389
18424W        W83651  14.402   1.269   4.748
18425W        W83652  43.340  29.018   4.662
18426W        W83653  10.902  22.584   3.134
18427W        W83654  31.676  29.116   1.406
18428W        W83655  21.123   2.251  10.721
18429W        W83656  30.412  35.933  14.284
18430W        W83657  17.709  23.349  11.807
18431W        W83658  22.984  36.680   1.409
18432W        W83659  19.332  19.376  11.536
18433W        W83660  18.846  28.953   2.192
18434W        W83661  12.169  15.631  14.039
18435W        W83662  24.466  21.312  10.660
18436W        W83663   8.173  22.187   2.343
18437W        W83664  40.742  35.978   0.396
18438W        W83665  29.350  40.249  10.193
18439W        W83666  10.244   0.192  13.608
18440W        W83667  24.550   0.233   1.339
18441W        W83668  27.995  31.155   1.847
18442W        W83669  42.734  10.038  14.806
18443W        W83670  42.303  32.007   5.065
18444W        W83671  23.859   0.293  11.523
18445W        W83672  15.359  11.055   2.327
18446W        W83673  24.997  16.869   3.600
18447W        W83674  34.911  38.939  13.565
18448W        W83675   5.436  21.408  12.526
18449W        W83676  25.511  36.161  10.584
18450W        W83677  20.041   7.255  14.510
18451W        W83678   0.930  19.879  12.005
18452W        W83679   7.867  21.135  13.506
18453W        W83680  15.192  14.292  10.796
18454W        W83681  15.358  40.950   3.853
18455W        W83682  37.450  18.545  12.938
18456W        W83683  10.806  36.525   0.717
18457W        W83684   3.506  32.215   0.921
18458W        W83685  17.828  29.179  13.905
18459W        W83686  17.105  17.608  13.402
18460W        W83687  26.528  15.343  11.909
18461W        W83688  40.951  24.236   0.758
18462W        W83689  43.368  15.094  11.213
18463W        W83690   1.866   3.685  12.591
18464W        W83691  17.906  19.846  13.817
18465W        W83692  42.471  44.424   2.779
18466W        W83693  28.837  24.419   4.979
18467W        W83694  17.147  43.288  14.328
18468W        W83695  42.934   2.769   2.454
18469W        W83696   4.248   5.705   1.915
18470W        W83697  34.982  30.561   4.178
18471W        W83698   5.179   6.377   3.116
18472W        W83699  35.963  29.388  10.636
18473W        W83700  23.118  32.605  12.536
18474W        W83701  40.400  29.514   2.810
18475W        W83702  34.984  15.891  14.363
18476W        W83703  37.404  23.205   4.425
18477W        W83704  28.047  40.224  12.412
18478W        W83705   6.365  37.052  11.624
18479W        W83706   6.153  34.485  12.769
18480W        W83707  30.675  18.198   1.071
18481W        W83708  24.072   3.999  14.395
18482W        W83709   5.193  13.568  14.860
18483W        W83710   4.645  33.957   0.996
18484W        W83711   0.964   8.827  14.079
18485W        W83712  42.699  35.125  11.450
18486W        W83713  11.198  34.804   2.352
18487W        W83714  43.539  21.757   0.053
18488W        W83715   7.824   4.215  13.967
18489W        W83716  30.447  25.073   3.146
18490W        W83717   1.085  24.154  13.366
18491W        W83718   3.325   3.624   2.285
18492W        W83719   1.751  30.662   4.110
18493W        W83720  23.220  43.324   2.638
18494W        W83721  17.100  21.774   4.377
18495W        W83722  35.014   0.432   4.188
18496W        W83723  13.342  10.429  11.993
18497W        W83724  13.029  26.185  11.628
18498W        W83725  10.179  19.896   3.254
18499W        W83726  43.863  16.310   0.227
18500W        W83727   8.016  31.391   1.321
18501W        W83728  35.048  22.238  11.037
18502W        W83729  14.833  11.751  10.775
18503W        W83730  14.878  42.372  11.331
18504W        W83731  25.993   0.741   2.476
18505W        W83732  15.185  32.130   2.309
18506W        W83733  36.439  16.028  12.988
18507W        W83734  25.045   9.706  13.280
18508W        W83735  39.834   9.730   4.162
18509W        W83736  33.718  33.588  11.482
18510W        W83737  44.445  15.133  11.118
18511W        W83738  44.884  37.298  13.313
18512W        W83739  39.392  31.489  10.713
18513W        W83740  30.897  20.060   1.598
18514W        W83741   1.651   9.695   1.852
18515W        W83742  34.020  19.744   0.353
18516W        W83743  12.337  24.132  10.460
18517W        W83744  30.572  15.360   3.647
18518W        W83745  13.845   1.869  14.446
18519W        W83746  13.173   4.944  11.732
18520W        W83747  34.614  44.074   0.340
18521W        W83748  31.091  20.223  12.258
18522W        W83749   3.516  13.154   3.469
18523W        W83750  34.199  44.424   1.197
18524W        W83751  34.490  11.427  10.436
18525W        W83752  37.179  43.644   1.913
18526W        W83753  13.817   8.085  12.512
18527W        W83754  35.303   3.944  11.345
18528W        W83755  44.712   7.432  11.656
18529W        W83756  29.486  25.091  12.486
18530W        W83757  23.394  25.081   1.375
18531W        W83758  21.185  18.108   3.261
18532W        W83759  15.238  42.897  11.888
18533W        W83760  41.457  21.663  12.532
18534W        W83761  34.304  25.401   0.412
18535W        W83762  22.150  33.473   1.300
18536W        W83763  29.364   9.324   0.573
18537W        W83764  22.247  32.347   0.767
18538W        W83765   4.448  22.445   2.388
18539W        W83766  35.491   8.092  10.588
18540W        W83767  42.190  14.280  11.195
18541W        W83768  17.358  28.538   0.559
18542W        W83769  12.274   5.193   3.176
18543W        W83770  31.045  12.314  10.169
18544W        W83771  39.303  44.304  12.440
18545W        W83772  26.231   8.817  11.152
18546W        W83773  24.586  44.963   4.188
18547W        W83774  27.050   0.195   0.776
18548W        W83775  30.358   0.504   4.125
18549W        W83776   0.105   0.293  11.639
18550W        W83777   0.623  41.348  11.650
18551W        W83778  35.843   5.987   5.082
18552W        W83779  32.948  21.173  14.316
18553W        W83780  20.797  30.809   1.291
18554W        W83781  18.852  43.145   2.765
18555W        W83782  39.562   4.819   3.646
18556W        W83783  36.046  33.545   0.482
18557W        W83784  32.506  42.482  13.472
18558W        W83785  31.412   7.883   1.876
18559W        W83786  29.951  18.514   4.505
18560W        W83787   9.383  31.854  10.677
18561W        W83788  35.123  38.878  11.934
18562W        W83789  41.539  15.215   4.289
18563W        W83790  25.583  44.961  12.876
18564W        W83791  31.033   2.752   4.550
18565W        W83792  35.022  17.703   4.569
18566W        W83793  35.912   8.304  10.835
18567W        W83794  10.292   8.990  12.198
18568W        W83795  42.060  22.935   0.356
18569W        W83796   0.375  24.112   2.184
18570W        W83797  14.052  27.660  13.555
18571W        W83798  30.990   0.942  13.755
18572W        W83799  10.413  12.220  12.462
18573W        W83800  19.776   4.291  12.361
18574W        W83801   6.055  44.328  11.592
18575W        W83802  14.778  39.462   0.447
18576W        W83803  19.046  13.129   0.809
18577W        W83804   6.410   6.306   2.776
18578W        W83805  41.556  12.061   2.835
18579W        W83806  24.265  13.259   3.515
18580W        W83807  24.866  33.653   3.143
18581W        W83808   4.832  44.941   1.669
18582W        W83809  10.253   3.780   1.367
18583W        W83810   3.188   8.840   0.304
18584W        W83811   6.815  16.883  12.887
18585W        W83812   5.657  39.390   1.207
18586W        W83813   8.278  42.852   4.677
18587W        W83814  12.289  13.106  13.955
18588W        W83815   4.425  40.355   0.428
18589W        W83816  36.333  43.034   0.983
18590W        W83817  17.849  22.057   0.865
18591W        W83818  36.451  17.543  13.622
18592W        W83819  41.201   9.285   1.472
18593W        W83820  18.249   3.416   2.449
18594W        W83821   6.428  24.549  12.187
18595W        W83822  41.118  35.842   1.313
18596W        W83823   1.290   8.050   4.142
18597W        W83824  28.402  26.547   1.653
18598W        W83825  41.341   8.300   2.119
18599W        W83826   2.348  34.126   2.533
18600W        W83827  20.502  10.405   0.501
18601W        W83828  27.560  24.703  12.906
18602W        W83829  27.984  20.671  13.866
18603W        W83830  21.394  44.640   0.715
18604W        W83831  30.486  41.002   0.515
18605W        W83832  24.876  20.523   1.994
18606W        W83833  23.645  36.037  14.411
18607W        W83834  15.773  26.933   2.666
18608W        W83835   8.476  30.070  13.809
18609W        W83836  26.902  27.556  14.561
18610W        W83837  29.207  20.279   2.726
18611W        W83838  14.905  11.714  10.256
18612W        W83839  31.509   9.701   3.152
18613W        W83840  11.695  18.181  10.659
18614W        W83841  39.458  39.062  12.919
18615W        W83842  24.454  17.148   5.228
18616W        W83843  16.863  27.306  14.232
18617W        W83844  20.082   9.289   3.162
18618W        W83845  44.232  30.597   2.201
18619W        W83846  30.263  14.514   0.761
18620W        W83847  23.369  11.564  12.500
18621W        W83848  21.987  29.555   0.347
18622W        W83849  11.934  37.568  10.693
18623W        W83850  35.603  42.618   1.295
18624W        W83851  19.095  25.492  10.696
18625W        W83852  16.303  32.709   3.311
18626W        W83853  11.997  33.986   0.862
18627W        W83854   9.400  14.850  14.528
18628W        W83855  28.444   2.383   0.375
18629W        W83856   9.127  13.299   2.850
18630W        W83857  11.159  43.445  11.106
18631W        W83858  27.194  17.187   3.938
18632W        W83859  29.561  31.089   2.982
18633W        W83860  27.994   3.308  10.669
18634W        W83861  39.540  11.326   1.539
18635W        W83862  14.854   8.755  11.635
18636W        W83863  43.928  25.227  14.297
18637W        W83864  29.658  33.515   0.301
18638W        W83865  21.487  33.659   0.986
18639W        W83866  41.231  31.552   0.437
18640W        W83867  20.824  35.587  13.177
18641W        W83868  40.086  34.520   1.897
18642W        W83869  37.514  34.612   0.661
18643W        W83870   5.469  36.022  13.519
18644W        W83871  23.007  16.271   3.329
18645W        W83872  12.293  16.903  10.244
18646W        W83873  33.320  31.658  12.961
18647W        W83874  16.763   7.572   1.375
18648W        W83875  33.568  37.354   2.769
18649W        W83876  12.602  32.329   3.144
18650W        W83877   4.679   6.761  10.994
18651W        W83878  40.441  35.935  10.379
18652W        W83879   0.016  42.108  13.985
18653W        W83880  43.854  34.128  11.220
18654W        W83881   1.763  10.163   2.591
18655W        W83882  39.454  27.677   4.155
18656W        W83883   8.121  37.091   3.403
18657W        W83884  21.540  30.034  11.745
18658W        W83885  38.691  34.927  11.716
18659W        W83886  41.312  42.831   3.540
18660W        W83887   3.859  11.741   3.856
18661W        W83888  32.972  33.400  11.938
18662W        W83889   0.361  16.135   4.540
18663W        W83890  39.621  19.995   0.910
18664W        W83891  25.457  15.897  13.282
18665W        W83892  40.462  13.094   0.977
18666W        W83893  26.995  42.874  12.439
18667W        W83894  23.790  18.057  11.143
18668W        W83895  17.264  41.882   2.629
18669W        W83896   2.878   1.066  11.364
18670W        W83897  43.860   8.875  12.673
18671W        W83898   8.254  21.807  14.497
18672W        W83899  13.645  29.516   2.846
18673W        W83900   8.368  14.669   3.838
18674W        W83901  10.273  44.956   0.839
18675W        W83902  12.155   8.211  10.600
18676W        W83903  42.077  20.596   3.572
18677W        W83904  42.979  44.406  12.850
18678W        W83905  19.602  25.953   1.894
18679W        W83906  15.236  40.256   0.968
18680W        W83907   4.763  32.621  14.778
18681W        W83908  40.364  20.546   0.913
18682W        W83909  28.505  29.437   3.607
18683W        W83910  40.516  41.064   4.061
18684W        W83911  16.113  25.539  11.681
18685W        W83912  36.009  24.568  10.678
18686W        W83913  15.235   4.800   2.677
18687W        W83914  38.331   3.745  13.842
18688W        W83915  35.579  25.181  14.372
18689W        W83916   4.393   5.206   4.495
18690W        W83917  27.661  24.608   1.592
18691W        W83918  33.129  31.518   0.878
18692W        W83919  32.963  43.958  13.630
18693W        W83920  11.699  12.996   1.416
18694W        W83921  29.048  33.361   2.500
18695W        W83922  26.721   6.850  14.301
18696W        W83923  42.078  18.820  10.269
18697W        W83924   3.232  40.913   0.169
18698W        W83925  25.833  43.061   0.754
18699W        W83926  21.175  17.264  12.310
18700W        W83927  41.791  15.506  13.519
18701W        W83928  34.869  24.171  10.739
18702W        W83929  42.926  42.371  11.919
18703W        W83930  30.376  26.401   2.169
18704W        W83931  44.527  32.911  12.902
18705W        W83932   2.226   1.374  14.526
18706W        W83933  22.309  36.801   0.813
18707W        W83934   8.416  32.505   0.983
18708W        W83935  26.599  27.722  14.163
18709W        W83936  23.916  12.125  12.435
18710W        W83937   2.904  42.843  11.168
18711W        W83938  30.568   2.748   1.305
18712W        W83939  27.802  34.072  14.308
18713W        W83940  36.560  37.925   2.729
18714W        W83941  18.278   9.978   0.871
18715W        W83942   4.931   8.127  10.724
18716W        W83943  41.809  10.302   2.376
18717W        W83944  24.483  12.604  11.633
18718W        W83945  13.460  32.836   1.235
18719W        W83946  35.493  43.605   4.434
18720W        W83947  19.741   4.721  12.640
18721W        W83948  13.308  25.618  12.470
18722W        W83949   5.197  33.788   1.850
18723W        W83950  16.060  38.647  13.031
18724W        W83951  40.811  14.214  13.526
18725W        W83952  12.334  14.341  14.423
18726W        W83953  20.673  25.357  12.196
18727W        W83954  24.920  34.275  11.877
18728W        W83955  44.512  39.315  14.716
18729W        W83956  40.673   1.065   2.326
18730W        W83957  38.657  23.736  14.000
18731W        W83958  27.148  37.063  12.158
18732W        W83959   1.980  25.482   1.325
18733W        W83960  34.885  16.354   3.277
18734W        W83961  40.898   3.401   0.768
18735W        W83962  40.879  26.278  11.280
18736W        W83963  23.235  26.819   4.224
18737W        W83964   5.927  20.949  13.468
18738W        W83965   9.794  28.151  10.893
18739W        W83966  38.879   9.104   0.694
18740W        W83967   5.921   7.707  12.567
18741W        W83968  34.912  41.241  10.226
18742W        W83969   5.236  16.849  10.351
18743W        W83970  11.584   2.048   4.185
18744W        W83971  38.902  37.554  13.748
18745W        W83972  18.667  42.452  11.231
18746W        W83973  44.983  11.769   0.736
18747W        W83974  33.615   2.785  14.757
18748W        W83975  33.535   2.372   2.636
18749W        W83976  23.943   8.706   2.714
18750W        W83977  19.228  24.079   3.643
18751W        W83978  19.714   5.911   0.882
18752W        W83979  35.554   1.490   0.325
18753W        W83980  28.971  10.281   0.764
18754W        W83981  34.785  32.157  12.051
18755W        W83982   0.437  17.308   2.572
18756W        W83983  39.324  40.849   1.684
18757W        W83984  19.913  29.727   4.243
18758W        W83985  38.904  33.537  12.104
18759W        W83986  12.242  41.060  11.123
18760W        W83987   9.540  23.190  11.400
18761W        W83988  39.147  22.503  11.651
18762W        W83989  30.671  13.246  13.028
18763W        W83990  35.882  38.346  13.872
18764W        W83991  36.918  36.518  11.943
18765W        W83992   0.419  36.054   1.191
18766W        W83993  10.794  19.758  11.166
18767W        W83994   0.931  31.132   4.133
18768W        W83995  10.892   9.207   0.165
18769W        W83996  42.016  36.007  13.401
18770W        W83997  32.585  12.237   1.722
18771W        W83998  37.150   1.683   3.626
18772W        W83999  26.200  39.406   3.632
18773W        W84000  38.035  32.507  14.454
18774W        W84001  29.403  12.860  13.771
18775W        W84002  41.839  23.064  14.456
18776W        W84003  14.660  16.780  14.398
18777W        W84004  26.507  13.394   0.455
18778W        W84005  21.651   4.736   0.791
18779W        W84006   9.282  12.092  13.356
18780W        W84007  41.470  44.217  14.521
18781W        W84008  24.996   4.085  14.455
18782W        W84009  17.504   2.225  13.332
18783W        W84010  25.071  21.744   2.805
18784W        W84011  10.187  10.836  14.755
18785W        W84012   5.980  12.172   4.547
18786W        W84013  25.233  39.075  14.458
18787W        W84014   3.397  42.934  13.056
18788W        W84015  21.021   5.291  12.362
18789W        W84016  11.968  16.362   3.410
18790W        W84017  42.779  15.842  13.920
18791W        W84018  12.247  13.265   4.235
18792W        W84019  17.976  40.122  13.472
18793W        W84020  37.207  40.700   3.752
18794W        W84021  16.837   3.414   0.881
18795W        W84022   2.649  38.653   0.374
18796W        W84023  43.755   3.682  10.750
18797W        W84024  44.886  21.008   3.788
18798W        W84025  11.715  34.881  13.447
18799W        W84026   0.071   8.381   0.925
18800W        W84027  30.786  43.520   3.770
18801W        W84028  41.297  40.962  13.378
18802W        W84029   3.033  28.594  13.933
18803W        W84030  44.424  26.186  11.664
18804W        W84031   5.938   7.663   3.651
18805W        W84032  12.480   9.089  10.853
18806W        W84033  41.315  22.176  13.174
18807W        W84034  21.944   4.620   1.914
18808W        W84035   9.392  41.443  11.704
18809W        W84036  25.736   2.849   1.425
18810W        W84037  17.039   1.102   4.542
18811W        W84038   4.259  26.435  12.027
18812W        W84039   3.945  25.697  11.613
18813W        W84040  39.576  23.468   4.492
18814W        W84041  18.095   5.925  13.573
18815W        W84042  15.572  29.058   4.546
18816W        W84043   8.446   4.371  12.599
18817W        W84044   8.336  10.796   3.330
18818W        W84045  13.165  25.295   0.974
18819W        W84046  20.621  41.916  13.744
18820W        W84047  42.796  10.361  12.713
18821W        W84048  34.664  42.244   2.880
18822W        W84049  37.215  38.009  10.775
18823W        W84050   7.775  36.943   0.943
18824W        W84051   4.402  20.222  11.169
18825W        W84052  34.354   2.832   3.276
18826W        W84053  37.603   0.494   3.724
18827W        W84054   9.858  25.450  14.779
18828W        W84055  20.594  21.527   1.010
18829W        W84056  17.156  32.250   2.203
18830W        W84057  27.093  33.655   4.561
18831W        W84058  38.368   4.094  14.452
18832W        W84059  38.996   9.434   1.524
18833W        W84060   5.178  37.836   9.955
18834W        W84061  37.373  32.579   3.526
18835W        W84062   4.500  27.079   5.441
18836W        W84063   8.381  43.776  13.793
18837W        W84064   0.445  19.234   3.141
18838W        W84065   4.402   1.696   4.308
18839W        W84066  23.479  38.346  14.980
18840W        W84067  19.793  22.217  10.996
18841W        W84068  12.649  32.895  11.141
18842W        W84069  36.043  44.923  14.737
18843W        W84070   1.656  35.486   4.127
18844W        W84071   8.354   1.978   2.693
18845W        W84072   7.940  35.893   0.918
18846W        W84073  13.742   2.919   4.023
18847W        W84074  28.614  40.915  12.399
18848W        W84075  36.060  40.360  11.438
18849W        W84076   6.613  28.440  11.967
18850W        W84077   3.943   0.858   1.682
18851W        W84078  13.903  34.560   3.277
18852W        W84079  26.994  28.950   3.075
18853W        W84080  12.334  10.812   2.087
18854W        W84081  18.086  18.729  11.632
18855W        W84082  19.333  19.312   3.910
18856W        W84083  10.185   0.736   2.270
18857W        W84084   9.128  36.036  13.350
18858W        W84085   9.101   4.336  13.810
18859W        W84086  17.114  14.731   4.313
18860W        W84087   0.025  37.009   0.508
18861W        W84088  38.974   8.813  14.870
18862W        W84089  28.968  11.794   1.651
18863W        W84090  43.763   3.598   2.182
18864W        W84091  39.497  13.638  13.058
18865W        W84092  30.500  41.261  12.498
18866W        W84093   2.168   0.937  13.542
18867W        W84094  11.576  42.788   0.447
18868W        W84095   0.982   1.540   3.610
18869W        W84096  16.637  30.691  13.661
18870W        W84097  28.120   7.068   4.131
18871W        W84098  37.153   8.278  12.960
18872W        W84099  34.396  17.709   0.948
18873W        W84100  32.534  20.092   2.163
18874W        W84101   6.156  33.674  11.535
18875W        W84102  38.838  13.310   4.419
18876W        W84103  33.156   4.232   2.826
18877W        W84104   5.289  32.357  14.037
18878W        W84105  15.997  42.766   4.065
18879W        W84106  41.375  22.322   3.181
18880W        W84107   3.461  32.420  12.656
18881W        W84108  20.482  37.090  13.915
18882W        W84109   9.812  15.812  13.002
18883W        W84110   7.967  42.040   4.253
18884W        W84111  21.322  21.468  13.383
18885W        W84112   7.748  30.892   5.042
18886W        W84113   7.491  39.141   5.038
18887W        W84114   4.156  22.546   4.237
18888W        W84115  28.591  39.434  10.661
18889W        W84116  12.778  19.605   2.396
18890W        W84117   8.371   3.672   0.415
18891W        W84118  19.365  41.959  12.031
18892W        W84119   0.239  34.932   1.936
18893W        W84120  19.211  27.820   0.888
18894W        W84121  32.513  17.092  12.499
18895W        W84122  28.202  31.737  11.541
18896W        W84123  11.232  38.539  13.083
18897W        W84124  13.354  18.879  12.733
18898W        W84125  10.527  28.270   0.458
18899W        W84126  38.026  35.879   2.757
18900W        W84127  29.258  31.411  14.426
18901W        W84128   9.915  31.207   0.050
18902W        W84129  23.224  15.295   1.674
18903W        W84130  33.568  13.824   1.714
18904W        W84131  22.527  17.151   4.669
18905W        W84132  23.761  31.561   2.672
18906W        W84133   6.198   3.476  10.773
18907W        W84134   3.719  22.262  14.806
18908W        W84135  34.485   5.365  11.194
18909W        W84136  17.020  33.531   1.990
18910W        W84137  15.588  13.280   1.054
18911W        W84138  23.412  15.251   3.124
18912W        W84139   5.762  44.961   0.654
18913W        W84140  40.532  13.344   2.266
18914W        W84141   7.496  34.433  10.811
18915W        W84142  36.920  28.802  12.423
18916W        W84143  41.315  27.629   3.053
18917W        W84144   2.859  38.416  14.123
18918W        W84145  27.667  42.497  13.883
18919W        W84146   7.629  28.565  10.932
18920W        W84147  14.517   6.454   4.588
18921W        W84148  44.678   7.601  13.763
18922W        W84149   2.602  37.038  12.944
18923W        W84150   5.423   6.838   3.323
18924W        W84151  44.342   7.352  10.493
18925W        W84152  34.422  10.217   2.639
18926W        W84153  36.791  15.022  10.739
18927W        W84154   8.330   4.890   0.485
18928W        W84155  31.177  38.937   4.549
18929W        W84156   8.811  37.321  14.365
18930W        W84157  26.924  11.269  10.556
18931W        W84158  29.399   2.465   4.125
18932W        W84159  16.664   0.979  13.075
18933W        W84160  24.076  31.966   0.882
18934W        W84161  29.718  37.899   0.946
18935W        W84162   2.354   5.201  11.682
18936W        W84163   3.685  22.941  13.139
18937W        W84164  28.574  25.493  11.625
18938W        W84165   8.008  35.350  12.505
18939W        W84166  15.688  37.361   0.795
18940W        W84167  36.314  34.031  11.852
18941W        W84168  35.789  11.338   0.024
18942W        W84169  41.516  22.297   2.153
18943W        W84170  32.786  35.466  10.636
18944W        W84171  32.730  18.613   2.772
18945W        W84172  32.718  21.268   1.481
18946W        W84173  34.636  13.310   2.218
18947W        W84174  20.611  37.356  12.540
18948W        W84175  34.096  13.646  11.559
18949W        W84176  43.720  15.127   1.418
18950W        W84177  18.775  23.747  13.397
18951W        W84178  14.279  36.592  13.499
18952W        W84179  35.155  42.102   1.851
18953W        W84180  38.514  10.066  11.486
18954W        W84181  32.081  10.879  11.229
18955W        W84182  37.916  34.039   2.734
18956W        W84183  30.836  23.295   0.190
18957W        W84184   4.253  20.539   3.696
18958W        W84185   7.930  13.632  14.397
18959W        W84186   3.386  28.234  14.251
18960W        W84187  15.300  18.308   3.299
18961W        W84188  43.350  35.032   4.274
18962W        W84189  33.482  37.096  12.861
18963W        W84190  14.713   5.920  13.836
18964W        W84191  36.022   2.756  13.498
18965W        W84192   5.428  35.648  11.135
18966W        W84193  25.967  29.890  13.242
18967W        W84194  11.750  39.955  12.317
18968W        W84195  25.494   3.758   0.428
18969W        W84196  17.045   5.555   4.913
18970W        W84197  44.486   2.449   0.169
18971W        W84198  43.346  29.731   0.566
18972W        W84199  38.017  36.592   3.800
18973W        W84200   7.935   2.724  11.812
18974W        W84201  26.604  18.198  13.017
18975W        W84202  41.013  42.505  11.553
18976W        W84203   4.909   7.379   4.676
18977W        W84204  13.409  23.906  12.637
18978W        W84205  11.656  29.909  11.669
18979W        W84206  14.162  13.141  11.532
18980W        W84207  43.986  12.287   3.999
18981W        W84208  21.664  42.839   1.842
18982W        W84209   0.028  12.186  11.569
18983W        W84210  29.239  33.654  11.120
18984W        W84211   6.970  37.493  13.915
18985W        W84212  32.153  18.695   1.884
18986W        W84213  19.234  19.525  12.979
18987W        W84214  36.587  24.075  12.835
18988W        W84215  44.391  20.584   4.905
18989W        W84216  18.521  27.611  13.924
18990W        W84217  33.483   3.987  13.601
18991W        W84218  33.404  38.546  12.468
18992W        W84219  12.566   8.818   0.426
18993W        W84220   2.152  34.087   0.834
18994W        W84221  44.313  44.229  12.139
18995W        W84222  27.075   4.743  12.050
18996W        W84223  37.555  13.659  14.018
18997W        W84224  26.037  17.227   0.194
18998W        W84225  42.490   2.493   2.575
18999W        W84226  34.535  12.857  10.615
19000W        W84227  25.015   6.713   2.742
19001W        W84228  16.219  29.810  13.655
19002W        W84229  27.217   1.337  11.621
19003W        W84230   6.883  34.610  12.136
19004W        W84231  42.354  40.486   1.690
19005W        W84232  22.193  32.573  10.638
19006W        W84233   8.182   7.159   1.996
19007W        W84234  17.211  36.659  11.199
19008W        W84235  17.374  41.413  14.000
19009W        W84236  39.041   4.185  14.399
19010W        W84237  39.933  15.672   1.402
19011W        W84238  19.599  39.531   3.778
19012W        W84239  44.007  32.539   3.559
19013W        W84240  10.295  43.086  12.202
19014W        W84241   6.843  44.723  11.979
19015W        W84242  16.490  11.122  12.478
19016W        W84243   1.694  26.087   2.277
19017W        W84244  20.007  14.081  13.549
19018W        W84245  26.036  20.561   3.534
19019W        W84246  21.654  41.349  12.636
19020W        W84247   7.203  26.403   0.428
19021W        W84248   4.455  37.365   2.687
19022W        W84249  44.995  43.280   0.831
19023W        W84250  31.946  10.566   4.105
19024W        W84251  35.793  13.720  13.002
19025W        W84252   4.455   3.213  13.079
19026W        W84253   5.283  44.472   3.530
19027W        W84254  16.376  29.410  13.964
19028W        W84255   4.514  26.215  14.091
19029W        W84256  17.320   3.997  14.049
19030W        W84257  22.739  18.017  12.305
19031W        W84258  10.383  43.993  11.363
19032W        W84259  14.613  34.622   1.388
19033W        W84260  13.005   0.395  13.396
19034W        W84261  21.524  28.729   2.870
19035W        W84262  11.166  13.021  12.124
19036W        W84263  40.779  27.063  11.491
19037W        W84264   9.852  41.380  10.903
19038W        W84265  11.193   5.441  13.395
19039W        W84266  30.907  20.993   3.709
19040W        W84267  34.693  43.547  13.464
19041W        W84268  35.126  24.023   1.837
19042W        W84269  10.862  25.298  13.395
19043W        W84270   7.288  35.990  10.833
19044W        W84271  38.398  10.291  14.086
19045W        W84272  37.341  29.089  10.659
19046W        W84273  15.217  40.979   4.801
19047W        W84274  14.579  17.088   2.235
19048W        W84275  15.846  21.955   2.813
19049W        W84276  11.722  31.309   5.001
19050W        W84277  22.171  38.602   2.657
19051W        W84278  33.675  40.328   3.578
19052W        W84279  35.009  41.763  10.411
19053W        W84280  20.099  17.454   4.637
19054W        W84281  31.233  36.044   1.471
19055W        W84282  29.384  13.749   1.352
19056W        W84283  17.812  23.278   0.887
19057W        W84284  16.923  14.740  11.651
19058W        W84285  22.817  20.300  11.551
19059W        W84286  44.067  23.255   3.192
19060W        W84287  38.894  43.932   4.579
19061W        W84288   1.724  36.161  11.530
19062W        W84289   7.377  39.866   2.293
19063W        W84290   1.467  43.927   1.805
19064W        W84291  35.556  13.559   0.327
19065W        W84292  20.639  34.912  10.620
19066W        W84293  32.208  41.714  12.406
19067W        W84294  10.210  20.073   0.512
19068W        W84295   7.099  37.576   1.775
19069W        W84296  43.869  38.050   4.332
19070W        W84297  10.371  28.706   0.745
19071W        W84298  41.501  30.594   2.220
19072W        W84299  25.715  36.905  13.825
19073W        W84300  19.399  18.070   3.548
19074W        W84301  36.388  20.576  13.086
19075W        W84302  17.912  18.166  11.947
19076W        W84303  38.001  22.450   2.229
19077W        W84304  33.663   7.101  11.195
19078W        W84305   3.052  21.693  13.598
19079W        W84306  19.196  10.895  13.550
19080W        W84307  20.540  24.580  10.701
19081W        W84308  23.700  38.893   2.897
19082W        W84309  43.763  13.763  10.569
19083W        W84310  24.088  20.634  12.145
19084W        W84311  28.657  19.510   3.830
19085W        W84312  35.778  34.805  12.883
19086W        W84313  10.237  10.668  11.619
19087W        W84314  26.089  25.303   3.624
19088W        W84315  26.565   7.700   0.326
19089W        W84316   0.791  24.911   9.771
19090W        W84317  29.819   7.806   2.389
19091W        W84318  12.776  44.495  13.636
19092W        W84319  41.775  22.854   2.889
19093W        W84320  10.708   0.244   4.628
19094W        W84321  39.333  43.103  14.349
19095W        W84322  20.936  31.093   4.549
19096W        W84323   2.063   3.425  13.018
19097W        W84324  43.256  42.107   2.714
19098W        W84325  41.877  15.595   4.139
19099W        W84326  31.549   9.867  10.772
19100W        W84327  12.183  20.155  13.390
19101W        W84328  20.104   2.693  14.394
19102W        W84329  14.392  33.403  14.053
19103W        W84330   2.935   5.281  13.774
19104W        W84331   3.405  25.155   2.200
19105W        W84332  36.224  41.593  13.925
19106W        W84333  42.891   1.855   3.719
19107W        W84334  42.951  15.694   3.510
19108W        W84335  41.774  30.544   4.098
19109W        W84336  21.977   6.731   3.786
19110W        W84337  29.213   9.851   3.694
19111W        W84338  17.132  40.351   0.183
19112W        W84339  43.090  15.212   3.776
19113W        W84340   1.709  11.671   4.721
19114W        W84341  18.251  36.290   1.675
19115W        W84342   0.338  28.516  12.302
19116W        W84343  34.588   0.411   2.711
19117W        W84344  44.334  19.257  14.094
19118W        W84345   9.424  16.560   0.326
19119W        W84346  14.802   9.309  10.791
19120W        W84347  26.524  38.725   2.312
19121W        W84348  40.030  34.932  14.771
19122W        W84349  22.221   1.837  13.884
19123W        W84350   8.842  37.894   3.701
19124W        W84351   9.165  36.508   3.886
19125W        W84352  29.510  30.144   1.754
19126W        W84353  20.142   1.886  12.868
19127W        W84354  30.402  29.902   3.598
19128W        W84355  23.310  33.090  14.048
19129W        W84356  39.109  41.163   0.795
19130W        W84357   8.784  15.403   3.213
19131W        W84358  24.500  33.393  10.640
19132W        W84359  11.320  16.128   4.607
19133W        W84360  31.884   3.330  13.959
19134W        W84361   3.198  41.416   2.478
19135W        W84362   3.784  23.339  12.230
19136W        W84363  34.569  14.668  11.905
19137W        W84364   7.234  43.769  12.570
19138W        W84365  18.657  18.567   1.830
19139W        W84366  27.560  40.813   4.396
19140W        W84367   4.936   6.941   1.020
19141W        W84368   7.843   5.814  11.216
19142W        W84369  30.057   0.018  13.597
19143W        W84370   1.881  28.763  14.435
19144W        W84371  23.146  24.130   1.905
19145W        W84372  28.547  43.206  12.356
19146W        W84373  16.136  26.813  11.522
19147W        W84374   9.170  13.906  14.755
19148W        W84375  24.425  25.846  13.098
19149W        W84376  42.420  10.259  11.962
19150W        W84377  25.406  21.322   4.984
19151W        W84378  37.192  40.289   1.565
19152W        W84379   5.544  34.261  13.431
19153W        W84380  16.765  10.889  11.640
19154W        W84381  31.120  13.245  14.334
19155W        W84382   5.193  25.613   4.224
19156W        W84383  23.672  34.296  11.091
19157W        W84384  18.854  42.915  14.858
19158W        W84385   4.024   8.597   3.260
19159W        W84386  32.927  14.895  13.023
19160W        W84387   7.794  10.333   2.774
19161W        W84388  14.142  13.278  10.659
19162W        W84389  28.152  11.612   4.537
19163W        W84390  11.984  39.508   0.358
19164W        W84391  37.300   5.277  14.413
19165W        W84392   7.229   0.404   2.089
19166W        W84393  25.996  22.462  13.735
19167W        W84394   9.890  39.534  10.881
19168W        W84395   6.603   2.982  11.572
19169W        W84396  28.317  19.042  12.438
19170W        W84397   6.944  42.811  12.156
19171W        W84398  40.512  15.573  12.949
19172W        W84399  19.170   2.878   4.207
19173W        W84400   0.059  15.801  14.465
19174W        W84401   5.875  38.242  13.215
19175W        W84402  41.010  17.571  14.167
19176W        W84403  42.923  37.622   3.569
19177W        W84404  28.594  34.324   2.086
19178W        W84405  20.150   9.589   4.200
19179W        W84406  29.399   0.207   4.175
19180W        W84407  18.335  25.842   3.037
19181W        W84408  25.323  18.741   1.869
19182W        W84409  14.109  27.154  11.195
19183W        W84410  36.179  26.349  10.290
19184W        W84411  42.211  40.341   3.694
19185W        W84412  20.625  28.271   2.795
19186W        W84413  39.540  35.615   3.607
19187W        W84414  27.251   1.420   3.729
19188W        W84415  16.733  31.411  14.902
19189W        W84416  13.092  19.780   3.157
19190W        W84417  10.196  30.043  14.316
19191W        W84418  20.836  42.483   1.860
19192W        W84419  24.765  28.454   3.233
19193W        W84420  30.510  36.517   1.718
19194W        W84421  25.622   4.959  12.413
19195W        W84422   6.370  37.278   3.406
19196W        W84423   4.326   8.565  11.173
19197W        W84424  27.769  28.576  10.170
19198W        W84425  16.561  36.030   1.326
19199W        W84426   7.157  33.081  13.107
19200W        W84427  42.874  36.850  10.796
19201W        W84428  10.270   6.838   0.738
19202W        W84429  17.501  13.355  12.183
19203W        W84430  28.338   7.695  11.014
19204W        W84431  42.055  19.587   2.736
19205W        W84432  11.327   9.191   2.731
19206W        W84433  12.876   0.931  12.683
19207W        W84434   5.736  17.767   1.276
19208W        W84435  25.090  14.603  11.627
19209W        W84436  12.159  26.571  11.736
19210W        W84437  28.190  44.333   1.276
19211W        W84438  19.277  19.634  14.503
19212W        W84439  35.634  34.526   4.918
19213W        W84440  14.982   2.450   1.297
19214W        W84441   4.172  20.481   2.735
19215W        W84442  37.417   3.251  11.968
19216W        W84443  24.533  25.041   1.861
19217W        W84444  25.290  22.423   4.204
19218W        W84445  32.670   4.814  11.468
19219W        W84446  20.071   6.334   2.446
19220W        W84447  25.075  38.017   2.383
19221W        W84448  20.420   1.446  14.695
19222W        W84449  39.121   8.162  11.040
19223W        W84450   4.668  33.053  11.107
19224W        W84451   3.758  18.497   0.788
19225W        W84452   2.803  30.020  14.093
19226W        W84453  23.078  44.137   4.551
19227W        W84454  22.990  24.194  13.484
19228W        W84455   9.406  14.662  12.674
19229W        W84456  40.837  16.719   0.274
19230W        W84457   1.467  38.529  11.467
19231W        W84458  32.840  38.575  13.680
19232W        W84459   7.150  30.946  12.028
19233W        W84460  16.778  12.291   4.110
19234W        W84461   0.350  30.457  11.908
19235W        W84462   2.736  33.583   3.949
19236W        W84463   0.851   3.038   3.096
19237W        W84464   9.923  24.648  13.834
19238W        W84465  41.371  41.936   0.926
19239W        W84466   4.903  28.702  11.228
19240W        W84467  27.262  28.311   0.992
19241W        W84468  22.686  28.640  14.769
19242W        W84469  37.475   7.590   3.925
19243W        W84470  13.715   0.479   4.626
19244W        W84471   5.885  18.463   1.106
19245W        W84472  31.010   3.404  13.840
19246W        W84473   4.845  17.730   0.876
19247W        W84474   7.618  40.805   0.714
19248W        W84475  12.714  10.429   2.803
19249W        W84476  11.312   5.221  12.369
19250W        W84477  16.056   2.454  14.975
19251W        W84478  44.579  21.737   3.090
19252W        W84479  20.665  15.263  11.629
19253W        W84480  27.398  25.261  13.284
19254W        W84481  44.296  39.106   3.527
19255W        W84482  12.404  41.935   0.047
19256W        W84483  17.001  34.183   2.804
19257W        W84484  10.328  10.013   3.955
19258W        W84485  39.993  40.813   0.384
19259W        W84486  19.248   1.600   2.327
19260W        W84487   2.753  21.202   3.635
19261W        W84488  16.797  11.339  11.170
19262W        W84489  32.944  41.829  13.127
19263W        W84490  36.549   4.511   1.867
19264W        W84491  14.456   9.627  14.423
19265W        W84492  37.001   6.290   1.392
19266W        W84493  40.625   3.341   1.228
19267W        W84494  37.602  29.241   2.825
19268W        W84495  31.887  42.910  11.265
19269W        W84496  29.004  12.649   2.121
19270W        W84497  18.502  25.326   4.975
19271W        W84498  30.167   8.324   1.545
19272W        W84499  27.689  34.512  11.998
19273W        W84500  33.939  27.729  10.238
19274W        W84501  17.040  40.361  13.380
19275W        W84502  44.507   0.749  13.400
19276W        W84503  26.224  26.460  12.056
19277W        W84504   5.752  34.633  13.764
19278W        W84505  40.962  31.535  12.918
19279W        W84506  17.738  20.292   2.686
19280W        W84507   9.652  15.677   1.144
19281W        W84508  23.428  29.126  14.987
19282W        W84509  32.689  12.373   3.827
19283W        W84510   0.280  22.621   3.135
19284W        W84511   1.689   8.120  14.741
19285W        W84512  29.150  26.181  12.893
19286W        W84513   7.217  13.101   3.872
19287W        W84514  13.791   0.688  12.523
19288W        W84515  19.835  25.752  12.898
19289W        W84516  36.515  29.264  11.831
19290W        W84517  41.999  42.060   1.165
19291W        W84518  21.033   0.810  12.947
19292W        W84519   8.404  10.366  13.467
19293W        W84520  34.563   9.778  14.864
19294W        W84521   8.585   6.787  11.972
19295W        W84522  31.481  12.571  11.381
19296W        W84523  26.458  30.748   3.166
19297W        W84524  38.809  28.451   0.739
19298W        W84525   9.120  27.483   3.651
19299W        W84526  10.357  24.696   0.804
19300W        W84527   6.945  29.310   4.635
19301W        W84528   3.058  10.794   2.646
19302W        W84529   0.516  18.352   2.819
19303W        W84530   9.310  32.569  12.411
19304W        W84531  26.992   0.049  14.382
19305W        W84532  27.270  30.089  12.916
19306W        W84533  34.796  39.745  14.511
19307W        W84534   5.178  39.114   1.294
19308W        W84535  25.517  29.595  11.731
19309W        W84536  22.559  15.318   4.196
19310W        W84537   3.816   3.027  11.968
19311W        W84538   1.549  22.620   3.672
19312W        W84539  33.914  16.468   4.026
19313W        W84540  17.303  33.154  14.870
19314W        W84541  18.144  27.618   4.130
19315W        W84542  13.134  43.358  10.872
19316W        W84543  25.132  17.642   3.050
19317W        W84544   3.779   8.123  13.955
19318W        W84545  18.102   5.797   2.312
19319W        W84546  34.311   2.110   2.274
19320W        W84547  42.272   6.774  12.424
19321W        W84548  21.622  37.546   0.695
19322W        W84549  36.471  26.546   1.361
19323W        W84550   3.284  26.759   1.916
19324W        W84551  34.372  23.668  14.334
19325W        W84552  16.093  26.574  14.113
19326W        W84553   6.832  22.366  14.135
19327W        W84554  30.283  23.395  12.638
19328W        W84555  37.097  23.123   1.076
19329W        W84556  21.499  26.781   2.688
19330W        W84557  24.834  14.678   2.103
19331W        W84558  35.417  19.233  11.698
19332W        W84559   5.356   7.443  10.423
19333W        W84560  19.834   0.509   2.657
19334W        W84561  14.232  32.441   0.348
19335W        W84562   4.817   9.650   2.254
19336W        W84563  38.409  25.152   4.660
19337W        W84564  25.243  41.557   1.013
19338W        W84565  16.593  21.203  10.981
19339W        W84566  22.076   6.833   1.685
19340W        W84567   2.756  41.005  13.764
19341W        W84568   5.272   8.410   0.465
19342W        W84569   9.223  22.962  14.472
19343W        W84570   9.279   0.385  14.763
19344W        W84571   3.669  14.881  13.813
19345W        W84572   0.173   2.003  13.509
19346W        W84573  21.575  18.480   1.878
19347W        W84574   3.294  32.102   3.373
19348W        W84575  35.002   5.904  13.325
19349W        W84576  40.795   9.367  13.529
19350W        W84577  26.439  40.379  13.029
19351W        W84578   8.849   7.030  13.302
19352W        W84579  10.355  22.647   1.617
19353W        W84580   4.155   3.399  12.114
19354W        W84581   4.994  20.372   2.124
19355W        W84582  26.946  33.240  11.453
19356W        W84583   0.451  31.984   0.214
19357W        W84584  33.429  17.018   2.258
19358W        W84585   5.792  29.254   1.672
19359W        W84586   9.489  22.601  10.760
19360W        W84587   1.028  27.016  13.783
19361W        W84588  42.577  34.004  11.743
19362W        W84589   1.468  18.346   0.413
19363W        W84590  38.437  12.332   4.504
19364W        W84591  42.863  44.917   0.248
19365W        W84592   0.502  29.483  12.571
19366W        W84593  37.605  27.163   3.617
19367W        W84594  22.013  39.991  14.232
19368W        W84595  31.795  34.994  11.908
19369W        W84596  10.814   4.353  12.675
19370W        W84597  40.014  10.274  12.600
19371W        W84598  36.505  35.735   4.107
19372W        W84599  26.697  11.100   2.763
19373W        W84600   1.345  38.577  12.333
19374W        W84601  23.009  18.476  14.933
19375W        W84602  31.011  43.590  13.391
19376W        W84603  12.225  24.495  14.779
19377W        W84604  41.239  39.826   4.548
19378W        W84605  21.051   2.753  13.966
19379W        W84606  41.824  27.653  11.990
19380W        W84607  19.111  33.989   0.253
19381W        W84608  39.322  42.272   4.859
19382W        W84609  16.003  10.311   3.816
19383W        W84610  19.593  33.299   0.875
19384W        W84611  14.089  29.017   2.162
19385W        W84612  41.755   0.360   4.327
19386W        W84613  20.464  11.892  13.857
19387W        W84614  35.272   6.116   1.234
19388W        W84615   1.763  10.385   4.164
19389W        W84616  30.480  24.708  10.512
19390W        W84617  37.363   4.226   0.322
19391W        W84618  28.682  13.220  10.694
19392W        W84619  18.350  12.550   3.657
19393W        W84620  23.298  10.239   3.049
19394W        W84621  22.654   7.055   0.757
19395W        W84622  32.353  15.589  14.829
19396W        W84623  38.822  13.781  11.248
19397W        W84624  25.476   9.999   3.855
19398W        W84625   4.525  29.544  14.061
19399W        W84626  11.149  12.567  14.032
19400W        W84627  19.317  22.067  10.875
19401W        W84628  34.359   7.649   4.056
19402W        W84629  17.059  42.114  13.462
19403W        W84630  30.136  20.374  12.019
19404W        W84631  32.983  44.021   2.269
19405W        W84632  21.949   0.032   1.958
19406W        W84633   9.454  21.826   3.146
19407W        W84634   5.159  28.400   4.052
19408W        W84635  13.569   2.546  13.119
19409W        W84636  34.687  28.528   2.486
19410W        W84637   1.978  35.832   0.224
19411W        W84638  35.731  34.693   0.865
19412W        W84639   6.931  37.098  11.554
19413W        W84640  10.562  34.002   0.724
19414W        W84641   2.750  21.623  14.075
19415W        W84642  43.792   1.781  11.859
19416W        W84643  30.539  22.530  14.085
19417W        W84644  29.524  34.379   2.922
19418W        W84645   0.457  30.228   4.351
19419W        W84646   2.808  36.008   4.416
19420W        W84647  30.429  25.467  12.061
19421W        W84648  25.039   0.077   0.847
19422W        W84649  41.625  35.195   2.143
19423W        W84650   3.705  23.284   0.094
19424W        W84651  38.371  24.156  10.656
19425W        W84652   9.298  44.979  10.688
19426W        W84653   1.743  20.512   0.765
19427W        W84654  26.452  12.192   1.426
19428W        W84655  11.804  30.623  12.918
19429W        W84656  17.856  17.457   4.586
19430W        W84657  19.519  31.914  14.065
19431W        W84658  37.576  27.708   0.907
19432W        W84659  21.158  23.741   1.014
19433W        W84660  18.198  20.217   0.231
19434W        W84661  19.509  30.156  14.394
19435W        W84662   3.366   7.023  11.274
19436W        W84663  13.977  27.914   5.243
19437W        W84664  26.010  28.751   0.770
19438W        W84665   5.907  11.894   0.233
19439W        W84666  12.730  29.240  10.348
19440W        W84667  43.262  14.337   1.382
19441W        W84668  31.149   4.689  14.443
19442W        W84669  15.370   2.417   0.181
19443W        W84670  10.240  19.867  12.570
19444W        W84671   8.127  39.487   4.075
19445W        W84672  19.658   6.875   4.299
19446W        W84673  26.931  10.782  11.591
19447W        W84674  24.716  20.765  13.885
19448W        W84675   6.144   3.235   4.566
19449W        W84676  33.659  19.246  12.002
19450W        W84677   5.670  10.343   4.631
19451W        W84678  34.509  10.929   0.659
19452W        W84679   0.881  37.727  10.703
19453W        W84680  27.907   0.813   0.484
19454W        W84681  33.423  33.135   2.257
19455W        W84682  15.809  39.429   1.861
19456W        W84683  29.645  21.999   2.950
19457W        W84684  26.448  35.524  12.564
19458W        W84685  38.001   2.151   2.082
19459W        W84686  36.392  31.965  11.906
19460W        W84687   0.219  30.505   0.351
19461W        W84688   2.652  31.397  10.274
19462W        W84689  33.841  29.219  11.460
19463W        W84690  18.549   6.788   2.706
19464W        W84691  38.237  41.536  13.971
19465W        W84692   4.627  24.133  11.104
19466W        W84693   1.821  20.255  11.565
19467W        W84694   1.348   5.225   4.066
19468W        W84695  19.535  22.195   3.710
19469W        W84696  28.768  29.609   2.303
19470W        W84697  36.885   3.888  13.564
19471W        W84698  14.815  13.876   1.888
19472W        W84699   0.898  42.297  10.681
19473W        W84700   3.392  28.938  11.995
19474W        W84701  21.693  26.604  14.543
19475W        W84702  12.652   1.463   2.288
19476W        W84703  11.116  15.791   0.855
19477W        W84704   2.076  29.270   4.838
19478W        W84705  32.883   4.364   1.325
19479W        W84706  21.236  35.842   0.326
19480W        W84707  36.793   4.955   1.755
19481W        W84708   6.093  37.683  12.882
19482W        W84709  37.427  19.829   3.195
19483W        W84710  25.486   2.385   3.545
19484W        W84711  30.747  15.860  14.500
19485W        W84712  44.330  40.721   0.909
19486W        W84713  12.545  16.976   4.595
19487W        W84714  34.922  43.812   2.186
19488W        W84715  32.611   9.112  14.520
19489W        W84716  15.931  38.867  11.437
19490W        W84717  24.107  24.491   4.005
19491W        W84718  43.953  35.567  11.248
19492W        W84719  40.364   9.457   3.376
19493W        W84720   5.420  10.302  14.743
19494W        W84721  26.619  36.128   0.918
19495W        W84722  25.912  38.896  13.570
19496W        W84723  36.412  41.298  10.952
19497W        W84724   7.364  37.099   0.034
19498W        W84725  24.966   9.182   4.279
19499W        W84726  15.070  22.714   4.102
19500W        W84727  36.928  16.841   4.704
19501W        W84728  25.177   5.183  12.607
19502W        W84729  19.118  44.749   4.027
19503W        W84730  39.104  13.368  12.100
19504W        W84731  30.893   5.242   4.617
19505W        W84732   1.179  43.266   2.991
19506W        W84733  28.582  23.001   4.297
19507W        W84734   6.270   0.486   4.318
19508W        W84735   6.726  33.289  11.130
19509W        W84736  16.798  11.705   2.304
19510W        W84737  37.843  17.591  12.521
19511W        W84738  43.377  20.246   3.194
19512W        W84739   4.956   5.328  13.681
19513W        W84740  14.480  14.924   0.894
19514W        W84741  10.206  18.700  14.941
19515W        W84742  25.444   1.911   3.350
19516W        W84743  15.177  35.933   3.195
19517W        W84744  38.731  36.505  11.689
19518W        W84745  18.784   9.876   0.811
19519W        W84746  37.850  21.516  13.389
19520W        W84747  20.519  15.048   1.322
19521W        W84748  16.773  44.510   0.605
19522W        W84749  36.087  43.575  12.109
19523W        W84750  43.574  28.097   3.202
19524W        W84751  38.808  43.141  14.770
19525W        W84752   5.051   5.692   0.270
19526W        W84753  30.098  13.706  12.522
19527W        W84754  23.457  29.216   2.119
19528W        W84755  37.268  22.716   1.394
19529W        W84756  11.082  17.449   3.904
19530W        W84757  37.592  21.486  12.934
19531W        W84758  26.809   5.700   2.710
19532W        W84759  31.823  25.626   2.296
19533W        W84760   9.263   2.463  11.695
19534W        W84761   6.686  12.496   0.518
19535W        W84762  13.824  43.378   3.293
19536W        W84763  16.118  32.911   1.327
19537W        W84764  30.980  31.882  11.557
19538W        W84765  31.360  30.629  14.122
19539W        W84766  12.666  27.438  13.355
19540W        W84767  21.259  42.500   1.088
19541W        W84768  23.758   7.574  11.138
19542W        W84769  23.491  33.582  14.408
19543W        W84770  15.712  15.112   4.432
19544W        W84771  39.379  13.381  10.598
19545W        W84772  28.573  36.271  12.148
19546W        W84773  25.804  11.089   1.088
19547W        W84774  21.020   4.459  11.739
19548W        W84775  30.963  35.141  13.383
19549W        W84776  33.176  25.580  10.484
19550W        W84777  36.620  20.523   1.668
19551W        W84778  30.641  10.184  12.039
19552W        W84779  35.183  12.428  14.061
19553W        W84780  22.093  29.196   3.673
19554W        W84781   3.067  19.560  14.902
19555W        W84782  22.777  19.681  12.965
19556W        W84783  18.819  21.636  13.869
19557W        W84784  25.625  35.723  12.947
19558W        W84785   0.034  37.484   2.288
19559W        W84786  19.436  31.363  11.307
19560W        W84787  31.419  20.303  11.647
19561W        W84788  27.942  39.042   4.034
19562W        W84789   1.410  15.862   1.417
19563W        W84790   4.798  12.667   1.478
19564W        W84791  23.366  37.430   2.671
19565W        W84792  14.207  13.684   2.816
19566W        W84793  40.347  13.834   1.406
19567W        W84794  37.445  11.249   3.661
19568W        W84795  26.657  17.525  14.426
19569W        W84796  18.240  17.060   2.850
19570W        W84797  40.982  30.735  14.484
19571W        W84798  17.757  43.000  10.262
19572W        W84799  33.983  22.979  13.075
19573W        W84800  27.079  28.410   0.110
19574W        W84801  11.457  12.651   0.893
19575W        W84802  18.886  12.742  11.650
19576W        W84803   6.363  38.426  11.596
19577W        W84804   1.635  24.977   4.574
19578W        W84805   4.938  13.573   0.455
19579W        W84806   8.643  23.671   2.145
19580W        W84807  21.525  43.573   0.683
19581W        W84808  14.520  28.991   5.131
19582W        W84809  12.506  23.338   5.011
19583W        W84810   8.951  21.492  11.491
19584W        W84811  12.608  12.296   4.598
19585W        W84812  12.359  38.404   0.972
19586W        W84813  38.088  38.455  11.541
19587W        W84814  22.196  19.823   0.288
19588W        W84815  39.429   7.256   2.241
19589W        W84816   1.712  41.881   1.947
19590W        W84817  10.225  12.576  10.304
19591W        W84818   4.236  16.896   4.518
19592W        W84819  29.442  11.827  12.952
19593W        W84820   3.467   2.530   2.697
19594W        W84821  30.805   1.701   1.746
19595W        W84822  29.660  43.695   2.751
19596W        W84823  34.216  26.621  13.315
19597W        W84824  29.284  12.760   5.260
19598W        W84825  44.031  11.355  10.692
19599W        W84826  30.608   3.420  13.413
19600W        W84827  29.219  34.463  12.086
19601W        W84828  17.594  31.642  11.527
19602W        W84829  26.142  35.900   2.623
19603W        W84830  24.758  23.537   4.717
19604W        W84831  16.606  30.580  13.103
19605W        W84832  11.699   7.672   2.636
19606W        W84833  43.253  29.219   4.162
19607W        W84834  40.794  36.192   1.095
19608W        W84835  16.743  24.470  14.006
19609W        W84836  33.882  43.334   3.508
19610W        W84837   9.311  26.300  10.800
19611W        W84838  17.332  16.342   2.377
19612W        W84839   8.453   1.893  12.822
19613W        W84840  32.007  14.007  12.939
19614W        W84841   7.616  35.075  11.193
19615W        W84842  26.897  20.973   4.984
19616W        W84843  18.059  11.553   4.028
19617W        W84844  44.991  38.024  11.159
19618W        W84845  17.718  21.780   2.313
19619W        W84846   5.473   5.235   1.390
19620W        W84847  27.541  38.780  10.197
19621W        W84848   2.323  18.604  10.852
19622W        W84849   1.254   0.146  10.952
19623W        W84850  26.877  29.333   5.074
19624W        W84851   6.415  31.154  13.078
19625W        W84852  28.520  33.754   9.962
19626W        W84853  42.344   4.849  14.412
19627W        W84854  20.203  24.135   4.107
19628W        W84855  34.080   8.280  13.127
19629W        W84856  20.963  23.526  12.987
19630W        W84857   4.332  16.637  10.744
19631W        W84858  35.143  31.552   3.776
19632W        W84859   2.777   2.955  11.138
19633W        W84860  37.003   0.514   3.682
19634W        W84861  44.706  37.895   2.298
19635W        W84862  44.706  10.668  10.642
19636W        W84863  27.695  28.608   3.593
19637W        W84864   2.328  39.972   1.156
19638W        W84865  39.865  26.120  12.159
19639W        W84866  44.188   9.268  10.249
19640W        W84867   3.028  18.201   1.245
19641W        W84868  44.914  35.654   3.767
19642W        W84869  40.881  15.797  14.335
19643W        W84870   9.945  22.344   4.496
19644W        W84871  22.748  33.350  12.517
19645W        W84872  25.784  16.125  14.682
19646W        W84873  41.888  42.519   0.437
19647W        W84874   4.899   9.687  11.582
19648W        W84875  31.578  16.590   0.385
19649W        W84876  14.873   7.896   4.292
19650W        W84877  29.542   7.680  13.868
19651W        W84878  27.839  11.216  11.474
19652W        W84879  18.647  27.743   1.830
19653W        W84880  26.853  21.283   4.562
19654W        W84881  17.296   8.140   1.452
19655W        W84882  40.026  44.876   1.630
19656W        W84883  31.338  15.758   4.953
19657W        W84884  13.706  31.048   0.896
19658W        W84885  40.770  15.538  13.402
19659W        W84886   7.135   6.927   4.143
19660W        W84887  14.179  43.597   1.819
19661W        W84888  37.343  18.872  12.579
19662W        W84889  28.634  30.705   0.438
19663W        W84890   4.695  34.844  13.145
19664W        W84891  33.988  23.650  13.984
19665W        W84892  30.234   6.395  12.525
19666W        W84893   2.842   6.259  14.918
19667W        W84894  31.052  38.314   3.878
19668W        W84895  15.908   8.286   2.501
19669W        W84896  30.262  40.987  10.771
19670W        W84897  37.854  12.964  10.421
19671W        W84898  37.843  39.094   2.201
19672W        W84899  43.995  33.918  14.836
19673W        W84900   0.375  40.987   1.061
19674W        W84901  18.996  40.572  11.119
19675W        W84902  40.284  26.762   4.527
19676W        W84903  11.665  24.180  12.527
19677W        W84904  31.455   5.415   1.814
19678W        W84905  19.668  30.388  13.965
19679W        W84906  18.600   2.834   3.630
19680W        W84907  34.316  12.356   2.221
19681W        W84908  35.445   6.941  14.589
19682W        W84909  38.464  24.764   1.203
19683W        W84910  40.272  31.001   1.000
19684W        W84911  30.951  15.819  14.018
19685W        W84912  26.019   8.131   3.489
19686W        W84913   3.128  41.983  12.834
19687W        W84914  13.367  23.069  13.993
19688W        W84915  24.688  25.434  12.900
19689W        W84916  23.855  35.948   2.271
19690W        W84917  18.760  44.177  12.467
19691W        W84918   0.790  31.535  10.802
19692W        W84919  10.623  41.002   1.469
19693W        W84920  24.040   2.421   1.697
19694W        W84921  12.845  22.642   0.731
19695W        W84922  28.618  44.164  10.231
19696W        W84923  22.549  22.576  10.310
19697W        W84924   0.510   1.480   9.998
19698W        W84925  10.856  40.559   0.417
19699W        W84926  13.505  32.946  13.234
19700W        W84927  11.235  43.418   3.980
19701W        W84928  16.192  19.706   2.654
19702W        W84929  22.071  24.713   3.676
19703W        W84930  14.611  24.584  11.559
19704W        W84931  34.307  28.969  13.374
19705W        W84932   7.991   7.643  13.947
19706W        W84933  37.579  35.011   2.399
19707W        W84934  44.694   6.723   1.607
19708W        W84935  30.403  12.851   2.616
19709W        W84936  40.090   0.982   0.234
19710W        W84937  39.210  19.201  13.577
19711W        W84938   7.228  35.974  12.015
19712W        W84939   3.731   0.167   3.661
19713W        W84940  22.256  12.725   0.608
19714W        W84941   1.659   5.352   0.913
19715W        W84942  30.587  19.822   0.861
19716W        W84943  35.817   6.870   0.242
19717W        W84944  27.485  30.403   1.620
19718W        W84945  35.200  39.542  12.560
19719W        W84946  19.599   3.576   4.808
19720W        W84947  15.993   4.947   0.863
19721W        W84948  37.852   7.422   3.606
19722W        W84949   1.904   4.431  14.549
19723W        W84950  37.784  44.760  14.845
19724W        W84951  31.417  32.808  13.483
19725W        W84952   8.805   0.354  14.509
19726W        W84953   0.395   1.471   1.735
19727W        W84954  34.825   6.675   4.538
19728W        W84955  18.170  26.138   2.494
19729W        W84956   4.135  12.804  12.921
19730W        W84957  22.163   7.432  14.940
19731W        W84958  11.057  29.463   9.809
19732W        W84959  31.634  35.558  12.785
19733W        W84960   1.660   2.393  14.324
19734W        W84961  14.597  41.986   1.005
19735W        W84962   1.057  22.601   4.200
19736W        W84963  26.675  32.062   2.613
19737W        W84964  39.573  39.331  14.558
19738W        W84965  12.029   8.262  11.143
19739W        W84966  35.612   1.923  14.377
19740W        W84967  27.972  25.273  12.423
19741W        W84968  33.068  42.043   2.798
19742W        W84969  19.708  40.459  12.311
19743W        W84970  16.623  35.976   0.253
19744W        W84971   3.796  42.375   4.468
19745W        W84972   2.382   3.695  13.309
19746W        W84973   0.938  35.932  12.084
19747W        W84974  37.150  16.657  11.061
19748W        W84975  35.886  36.858  11.402
19749W        W84976   9.698   8.452  13.030
19750W        W84977   3.357  26.894   3.585
19751W        W84978   3.389   1.367   3.036
19752W        W84979  34.474  13.529   1.777
19753W        W84980  30.592  11.694  12.063
19754W        W84981  29.023  17.197   4.070
19755W        W84982  39.306   8.926   1.757
19756W        W84983  34.796  22.329  11.483
19757W        W84984  28.932  31.150   1.691
19758W        W84985   6.346   9.390  11.510
19759W        W84986  22.677  14.603  14.871
19760W        W84987  25.908   6.768   4.566
19761W        W84988   8.244   0.219   2.104
19762W        W84989   5.888   7.429  12.103
19763W        W84990  26.321  37.034   0.852
19764W        W84991  32.994  37.807   3.178
19765W        W84992  18.621   1.163  14.365
19766W        W84993  42.990  10.820   3.683
19767W        W84994  35.615  42.450   3.747
19768W        W84995  14.099  25.534  11.889
19769W        W84996  29.714   6.815  13.313
19770W        W84997  43.748   1.801   1.049
19771W        W84998  37.813  19.100   4.571
19772W        W84999  44.366  23.537   0.688
19773W        W85000  25.989  16.666   0.991
19774W        W85001  43.687  12.647  13.331
19775W        W85002  13.404  38.619   3.130
19776W        W85003  26.017  16.789   4.643
19777W        W85004  24.877  40.331  10.639
19778W        W85005  27.152  41.264  12.286
19779W        W85006  43.803  15.664   0.720
19780W        W85007  42.879   2.724  14.877
19781W        W85008  26.239  37.339  12.388
19782W        W85009  39.082  24.025  10.911
19783W        W85010  12.140  36.770  11.607
19784W        W85011   7.130  27.051   4.113
19785W        W85012   0.589   2.309   2.648
19786W        W85013  31.926  17.684   4.170
19787W        W85014  16.410   9.073  13.364
19788W        W85015  20.223   5.487   1.427
19789W        W85016  39.383  24.063   3.683
19790W        W85017  28.992  18.571  14.446
19791W        W85018  34.402   6.191   0.033
19792W        W85019  38.397  17.682   4.046
19793W        W85020  33.764  34.855  13.080
19794W        W85021  27.937  21.603   1.830
19795W        W85022  33.369  21.010   3.648
19796W        W85023  37.025  20.199  12.250
19797W        W85024  26.342  10.362  12.148
19798W        W85025  21.252  27.934  11.149
19799W        W85026  38.206  32.950   3.561
19800W        W85027  35.357  28.993   1.213
19801W        W85028  42.085  12.940   4.141
19802W        W85029   2.727  25.497   4.057
19803W        W85030  14.794  19.119  10.832
19804W        W85031  15.538  17.633  12.651
19805W        W85032  32.376  13.723   3.062
19806W        W85033  37.320  11.272  14.872
19807W        W85034   7.611  29.808  11.230
19808W        W85035  32.564  23.248   0.380
19809W        W85036  12.815   5.530  12.864
19810W        W85037  15.102  26.418  14.406
19811W        W85038   4.569  36.836  11.335
19812W        W85039  16.505  44.600  13.855
19813W        W85040  37.147  26.427  12.777
19814W        W85041  11.562  37.473   2.641
19815W        W85042  21.069  29.615   1.021
19816W        W85043  41.485  15.092  11.917
19817W        W85044  18.479   7.704  12.922
19818W        W85045  44.418   2.407   4.477
19819W        W85046  38.596  35.474  11.565
19820W        W85047  18.775   8.874   3.702
19821W        W85048  26.179   5.806  13.476
19822W        W85049  20.155  32.676   0.469
19823W        W85050  16.036  22.390   1.393
19824W        W85051  43.411   6.651   2.179
19825W        W85052  14.323   4.967   2.771
19826W        W85053   8.513   0.484   1.742
19827W        W85054  23.441   1.772  12.479
19828W        W85055  42.974  24.136   2.231
19829W        W85056  14.645  20.222  10.745
19830W        W85057  31.911  10.423  10.322
19831W        W85058  26.608   5.505   0.070
19832W        W85059  25.808   0.235  10.248
19833W        W85060  26.127  34.035   4.658
19834W        W85061   8.895  29.245  13.879
19835W        W85062   2.694  31.632   0.450
19836W        W85063   9.752  37.465   2.815
19837W        W85064   1.920  23.553   4.233
19838W        W85065   0.539  41.883   2.344
19839W        W85066  36.430  44.313   2.793
19840W        W85067  16.769  32.183   4.702
19841W        W85068  13.177  21.149   1.919
19842W        W85069  44.783  30.435   2.300
19843W        W85070  23.242   7.230   3.293
19844W        W85071  36.535  14.794  13.841
19845W        W85072  32.328  28.670   3.204
19846W        W85073  31.668  33.712   2.143
19847W        W85074  28.074  15.858  11.169
19848W        W85075  39.681  31.139  13.403
19849W        W85076  20.742  35.632   3.995
19850W        W85077  19.241   9.370  14.549
19851W        W85078  12.113  30.531  13.795
19852W        W85079  18.262  41.194  14.533
19853W        W85080  44.638   6.272   3.149
19854W        W85081  34.793  42.651   0.849
19855W        W85082   1.876  20.905  12.164
19856W        W85083   3.923  11.361  12.080
19857W        W85084  34.795   4.731  13.858
19858W        W85085  16.837  20.174  12.073
19859W        W85086  28.133  12.681   0.631
19860W        W85087  24.611   1.732   2.816
19861W        W85088  38.527  42.096  11.176
19862W        W85089  36.411   9.615   3.337
19863W        W85090  42.692  42.356   1.012
19864W        W85091  15.638   9.836   1.700
19865W        W85092  26.623  29.501  12.559
19866W        W85093  10.128   4.741  13.022
19867W        W85094   8.152  28.880   4.074
19868W        W85095  27.047   2.147   0.064
19869W        W85096  29.009  20.772   2.744
19870W        W85097  42.299  13.096  11.212
19871W        W85098  35.527  10.127  14.059
19872W        W85099  11.470   5.528   3.776
19873W        W85100  27.437  18.706  14.397
19874W        W85101   6.153  10.239  10.223
19875W        W85102   9.331  23.320  12.983
19876W        W85103  37.287  18.120   1.881
19877W        W85104  24.459   4.915   0.946
19878W        W85105  24.591  34.026   0.985
19879W        W85106   8.906   2.937   2.264
19880W        W85107  35.185  43.347   1.812
19881W        W85108  27.950   4.045   1.294
19882W        W85109  33.041  39.957  11.075
19883W        W85110  41.326  20.233   2.269
19884W        W85111  10.748  31.707   0.952
19885W        W85112  10.644  11.637  12.136
19886W        W85113  34.485  25.693   3.769
19887W        W85114  37.336  10.585  13.603
19888W        W85115  43.296  26.050   4.680
19889W        W85116  14.849  44.700   1.310
19890W        W85117  36.540  43.217  10.620
19891W        W85118  16.371  31.182  12.408
19892W        W85119  24.041  43.328   0.866
19893W        W85120  41.631  15.141   1.666
19894W        W85121  23.773  43.778  12.049
19895W        W85122  44.189  28.169   5.484
19896W        W85123  36.100  40.481   2.759
19897W        W85124  22.663   9.909  12.482
19898W        W85125  26.333  40.291  12.016
19899W        W85126  21.494  22.805   3.424
19900W        W85127  25.958   9.745   1.789
19901W        W85128  33.647  10.746  13.748
19902W        W85129   5.640  42.049   0.760
19903W        W85130  39.607  10.638   4.314
19904W        W85131  14.931  23.105   3.639
19905W        W85132   4.043  14.089   0.357
19906W        W85133  42.144  15.127   3.803
19907W        W85134   7.735   2.976   3.247
19908W        W85135  10.672  27.510   0.913
19909W        W85136  15.085   6.694   1.644
19910W        W85137  21.087  22.988   4.635
19911W        W85138  23.302  24.113  13.880
19912W        W85139  44.724  34.143   3.803
19913W        W85140  44.338   8.940  12.458
19914W        W85141  35.432  29.180  14.948
19915W        W85142  23.079  28.175  12.039
19916W        W85143  30.550   7.898  14.378
19917W        W85144  20.077  24.606   2.296
19918W        W85145  13.230  24.108   1.531
19919W        W85146   8.256   4.491  14.061
19920W        W85147  35.740   8.143  12.602
19921W        W85148  11.218  20.505  14.283
19922W        W85149  29.914  24.196   2.163
19923W        W85150   9.958  21.079   2.456
19924W        W85151  36.397  39.721   2.287
19925W        W85152  21.548   4.953   2.081
19926W        W85153   6.352  25.222  13.534
19927W        W85154  18.055  35.810   3.275
19928W        W85155   0.191  41.989   4.208
19929W        W85156  35.585   0.724   3.296
19930W        W85157  20.579  44.146   2.275
19931W        W85158  44.931  31.921   2.212
19932W        W85159  25.649   3.808  13.610
19933W        W85160   5.730  37.533  13.559
19934W        W85161  18.606  11.936  10.745
19935W        W85162  16.743  14.424   4.151
19936W        W85163  31.386  15.079  13.555
19937W        W85164   1.517  42.180   4.950
19938W        W85165   7.887  44.834  10.813
19939W        W85166  31.959  43.972   3.580
19940W        W85167  41.434  27.631   4.658
19941W        W85168  35.511  37.996   2.489
19942W        W85169   0.998  23.532   3.270
19943W        W85170  29.698  25.037  14.690
19944W        W85171  36.397  12.789  14.900
19945W        W85172  41.202   4.719   1.441
19946W        W85173  36.401   5.787  11.538
19947W        W85174  20.635  26.047   1.234
19948W        W85175  40.819  37.069  11.427
19949W        W85176   5.216  15.994  10.847
19950W        W85177  10.800  37.832   0.326
19951W        W85178  41.677  20.637  12.463
19952W        W85179  34.797  42.417   4.255
19953W        W85180   3.446  12.548  14.002
19954W        W85181   1.406  33.636  13.323
19955W        W85182   0.784   9.312   2.711
19956W        W85183   0.989  14.773  13.552
19957W        W85184  42.542  36.735   1.227
19958W        W85185  35.447  29.733  11.662
19959W        W85186   2.798  42.032  12.437
19960W        W85187  15.010  43.974  14.548
19961W        W85188  40.746  39.032   0.818
19962W        W85189  44.094  37.368  13.017
19963W        W85190   4.169  13.877  11.159
19964W        W85191   9.374  43.683   3.599
19965W        W85192  43.344  26.977   3.596
19966W        W85193   8.573  44.432   1.794
19967W        W85194  25.373  42.022   2.118
19968W        W85195  27.477  20.810  12.995
19969W        W85196  38.442   2.543   0.730
19970W        W85197   7.593  23.567  13.934
19971W        W85198   2.296  38.661  11.081
19972W        W85199  37.835   7.437  13.903
19973W        W85200  16.059  44.291  13.644
19974W        W85201  17.746  25.952  13.179
19975W        W85202  17.002  37.470   3.833
19976W        W85203  14.273  17.875  14.039
19977W        W85204  13.686   2.282   0.952
19978W        W85205   0.085  12.019  14.862
19979W        W85206  28.150  43.902  10.602
19980W        W85207   4.663  38.310   0.304
19981W        W85208  17.870  34.992  11.044
19982W        W85209  18.769  28.630   1.301
19983W        W85210  28.196   9.854   2.701
19984W        W85211  25.895  16.579  10.639
19985W        W85212   2.135  40.566  11.031
19986W        W85213  33.876   5.183  12.949
19987W        W85214  37.995  30.125   2.863
19988W        W85215  44.242  35.696   2.190
19989W        W85216   8.743   7.217   2.334
19990W        W85217  40.555   4.147  11.174
19991W        W85218  12.131  12.350   0.420
19992W        W85219  20.472  22.697  12.142
19993W        W85220  35.493  19.644   2.926
19994W        W85221   9.585  24.164  11.121
19995W        W85222  24.094   1.702   0.551
19996W        W85223   1.178  13.133  14.046
19997W        W85224  11.531  27.632   0.951
19998W        W85225  11.440   1.211   1.291
19999W        W85226  38.052  23.513   2.963
20000W        W85227  12.943  19.786   1.114
20001W        W85228  12.785  42.976  12.087
20002W        W85229  36.695  38.687  12.345
20003W        W85230  42.928  13.802  11.576
20004W        W85231   4.317  18.391  12.304
20005W        W85232   6.039  39.735   1.377
20006W        W85233   9.615  32.148   1.395
20007W        W85234   0.632  31.936   4.050
20008W        W85235  12.526  40.013   4.183
20009W        W85236   6.653   6.884   0.024
20010W        W85237  23.904  19.112  14.396
20011W        W85238   2.915  10.235  13.941
20012W        W85239   0.510  11.899   2.346
20013W        W85240   5.818  42.613   9.867
20014W        W85241   4.975  26.394   3.611
20015W        W85242  19.436  10.661   3.061
20016W        W85243  34.260   5.797   1.808
20017W        W85244  41.507   7.222   1.350
20018W        W85245  24.772  39.936  12.961
20019W        W85246  40.891  31.019  11.823
20020W        W85247  36.025  19.822   4.147
20021W        W85248  22.784   4.922  13.436
20022W        W85249  27.004  28.875  14.843
20023W        W85250   5.115  15.913   4.260
20024W        W85251   1.456  44.364  14.659
20025W        W85252  31.798  43.543   3.833
20026W        W85253   9.332  15.524  13.037
20027W        W85254  10.372  22.711   3.598
20028W        W85255  19.374  40.805   3.606
20029W        W85256  26.024  27.699  11.621
20030W        W85257  11.764  35.620  11.132
20031W        W85258  22.667  22.704  12.462
20032W        W85259  25.524  12.066   3.991
20033W        W85260  21.795  24.559  14.384
20034W        W85261  21.458  29.567  10.017
20035W        W85262  41.105  39.789  12.110
20036W        W85263  21.001  39.994   4.052
20037W        W85264   1.914   7.918  14.231
20038W        W85265  16.463  20.813   1.871
20039W        W85266  33.160  40.993  13.298
20040W        W85267  23.834  42.798   4.475
20041W        W85268  25.678   0.348   2.284
20042W        W85269  43.513  39.881   2.721
20043W        W85270  35.110  35.925  13.731
20044W        W85271  18.395  25.671   2.331
20045W        W85272  37.809  35.572   0.035
20046W        W85273  31.875  12.131   4.080
20047W        W85274   4.717   7.707   3.164
20048W        W85275  35.490  38.850  14.848
20049W        W85276  17.853  41.398   4.654
20050W        W85277   8.273  32.954  10.575
20051W        W85278  25.691   3.367  11.796
20052W        W85279  18.211  32.145   0.872
20053W        W85280   5.482   2.418  13.085
20054W        W85281  18.250   5.428   3.136
20055W        W85282  14.026  30.384  11.535
20056W        W85283  27.770   6.875  14.311
20057W        W85284  37.535   2.337   4.166
20058W        W85285  36.639  43.100  13.371
20059W        W85286   8.952  27.215  12.612
20060W        W85287  11.805  24.729   0.069
20061W        W85288  10.561  29.980  13.311
20062W        W85289  32.065   1.249   2.711
20063W        W85290  36.484  26.908   4.547
20064W        W85291  44.213   1.939   1.324
20065W        W85292   3.824  15.409  13.779
20066W        W85293  12.874  10.670  12.600
20067W        W85294  12.100  31.555  12.017
20068W        W85295  36.828  31.363   2.393
20069W        W85296   4.639  32.649  12.300
20070W        W85297  30.867  43.233  13.017
20071W        W85298  14.554  11.876   3.753
20072W        W85299  21.043  14.707  12.826
20073W        W85300  18.665  19.767  10.418
20074W        W85301  39.706  42.919   0.011
20075W        W85302   9.970  23.350  11.143
20076W        W85303  44.700  23.687   1.068
20077W        W85304  42.046  20.596   1.144
20078W        W85305   6.632  43.318  13.951
20079W        W85306  22.106  12.320   4.632
20080W        W85307   5.115  21.750  11.666
20081W        W85308  29.643  15.906   2.224
20082W        W85309   9.283  36.279   0.504
20083W        W85310  25.810   7.170   3.622
20084W        W85311  33.781  40.579   0.305
20085W        W85312  28.098  16.579   4.570
20086W        W85313  42.896  27.091  10.585
20087W        W85314   5.757   3.778  13.410
20088W        W85315  31.999  29.890  13.058
20089W        W85316  42.912   6.438   3.738
20090W        W85317  28.926  22.403  12.467
20091W        W85318  35.488   8.839   4.770
20092W        W85319   3.855   6.423   2.345
20093W        W85320  31.904   7.164   0.216
20094W        W85321  15.868  19.244   0.007
20095W        W85322  24.541  40.747   3.224
20096W        W85323  25.712  23.507  10.961
20097W        W85324  10.768  15.562   3.534
20098W        W85325  28.141  42.475   4.317
20099W        W85326  32.101  12.320  14.218
20100W        W85327  22.756   9.353   0.386
20101W        W85328  24.229  33.171   4.626
20102W        W85329  31.626  37.321  14.894
20103W        W85330  23.044  34.101  13.534
20104W        W85331  38.962  22.574  13.916
20105W        W85332  21.870  25.743   3.564
20106W        W85333  14.700  41.903  12.572
20107W        W85334  24.839  40.303  12.594
20108W        W85335  31.603  19.002   2.208
20109W        W85336   0.870  32.905   3.758
20110W        W85337  42.032   9.319   2.706
20111W        W85338   9.294  23.610  12.557
20112W        W85339   1.999  34.427  10.634
20113W        W85340  18.204  13.645   0.995
20114W        W85341  41.517  18.534  12.410
20115W        W85342   3.356  20.687   0.411
20116W        W85343  13.073  21.916   1.827
20117W        W85344  27.652   2.887   3.941
20118W        W85345  41.834  38.115  11.487
20119W        W85346  37.827  18.197   4.517
20120W        W85347   3.021  32.608  14.930
20121W        W85348  31.830   2.893  14.221
20122W        W85349  25.196  15.308   3.766
20123W        W85350  15.746  14.229  12.674
20124W        W85351  21.944  23.953   0.035
20125W        W85352  15.850  37.103  14.827
20126W        W85353  25.462  26.373  13.832
20127W        W85354   0.998  33.597  14.671
20128W        W85355  30.593  38.409  12.967
20129W        W85356  42.041  42.851  12.867
20130W        W85357  34.743  26.185   4.876
20131W        W85358   2.889   6.368   0.422
20132W        W85359  21.659   1.448   3.188
20133W        W85360  16.864   6.152   4.112
20134W        W85361  41.341  21.101  11.180
20135W        W85362   5.626  26.100  12.248
20136W        W85363  24.244  40.963  11.583
20137W        W85364  29.498  15.475   0.991
20138W        W85365   7.780  29.267  14.582
20139W        W85366  16.366  32.203   4.134
20140W        W85367  22.931  13.345   3.240
20141W        W85368   2.113  32.675   2.318
20142W        W85369  22.663  11.669  11.611
20143W        W85370  37.543  33.765   1.869
20144W        W85371   0.490  24.547   4.186
20145W        W85372  35.636  15.129  12.077
20146W        W85373  29.132  18.009  14.998
20147W        W85374  22.758   3.778  12.534
20148W        W85375  42.324  16.885  11.224
20149W        W85376  44.973  29.658  12.607
20150W        W85377  15.164  17.519   0.523
20151W        W85378  19.719   2.518  10.769
20152W        W85379  16.615  28.056  13.126
20153W        W85380   4.792  36.249   3.180
20154W        W85381  23.553  23.570  10.625
20155W        W85382  41.287  11.752  12.530
20156W        W85383  16.078  11.283  12.740
20157W        W85384  38.171  32.031  14.363
20158W        W85385   6.890  34.855   1.343
20159W        W85386  24.156  18.674   4.163
20160W        W85387  44.347   9.140   0.120
20161W        W85388  31.391  26.061  13.627
20162W        W85389  25.991  29.038   2.296
20163W        W85390  31.602  28.898   2.206
20164W        W85391  39.820  41.585  14.823
20165W        W85392   0.635   8.831  11.144
20166W        W85393   3.365  34.111   3.408
20167W        W85394  32.514   1.974   4.325
20168W        W85395  28.228  25.149  10.725
20169W        W85396  37.175  31.688   0.353
20170W        W85397  25.191  10.666  14.696
20171W        W85398   0.586  11.119   1.413
20172W        W85399   0.294  23.419  14.576
20173W        W85400  19.972  32.832  11.163
20174W        W85401   1.372  38.909   2.924
20175W        W85402  32.852  37.799   2.265
20176W        W85403  42.570  24.299  13.160
20177W        W85404  36.886  31.219   3.316
20178W        W85405  21.141  16.136  13.834
20179W        W85406  36.375  20.601   4.083
20180W        W85407  19.032  35.734   2.256
20181W        W85408   5.736  38.433   0.525
20182W        W85409  16.610  15.260   3.475
20183W        W85410  37.342  19.836  11.474
20184W        W85411  15.352  20.949  14.428
20185W        W85412  23.281  12.408  14.895
20186W        W85413  34.794   2.472   0.484
20187W        W85414  37.091  33.957   0.491
20188W        W85415  26.707  12.260   2.707
20189W        W85416   0.504  22.158  12.874
20190W        W85417  16.989  18.826  12.561
20191W        W85418  24.713  10.196  11.697
20192W        W85419  19.841  11.825   4.117
20193W        W85420  23.089  42.100  12.306
20194W        W85421  33.695  34.597  14.462
20195W        W85422   2.006  35.889   3.205
20196W        W85423   0.637  34.578   4.144
20197W        W85424  23.675  23.920   1.728
20198W        W85425   6.616  23.314  11.661
20199W        W85426  42.846  33.314   4.538
20200W        W85427   0.327   6.628   4.431
20201W        W85428  40.932  22.018   3.218
20202W        W85429  29.610  28.144  12.860
20203W        W85430   5.763  26.549  13.148
20204W        W85431  11.120   4.674  12.010
20205W        W85432  14.616   0.985   3.254
20206W        W85433   6.380  22.902   0.343
20207W        W85434  41.659   6.314   3.809
20208W        W85435   2.228  16.646  14.084
20209W        W85436  26.357  32.848  10.718
20210W        W85437  10.300  19.132   2.828
20211W        W85438  29.936  38.421  12.565
20212W        W85439  13.910  36.624   2.567
20213W        W85440  44.429  12.031  14.289
20214W        W85441  20.671  14.334  11.721
20215W        W85442  37.825  31.130   1.343
20216W        W85443   8.696   0.508  12.936
20217W        W85444  15.804   9.185   4.536
20218W        W85445   7.999  19.036  13.896
20219W        W85446  24.809  13.297   2.660
20220W        W85447  21.939   6.654   0.372
20221W        W85448   4.476  27.799  14.939
20222W        W85449  10.775  17.151  13.834
20223W        W85450  41.327  39.978  13.528
20224W        W85451  21.547   5.947   3.585
20225W        W85452  36.451   6.725  10.683
20226W        W85453  15.284  38.380  10.811
20227W        W85454  17.229  23.598  14.046
20228W        W85455  39.494   3.267   3.453
20229W        W85456   3.700  16.866   1.275
20230W        W85457  22.261  30.888   3.361
20231W        W85458  38.487  36.534  12.993
20232W        W85459   9.446  33.314   3.480
20233W        W85460  18.777  16.916   4.978
20234W        W85461  24.866  41.160   2.385
20235W        W85462  14.765  12.249  13.747
20236W        W85463  34.958  41.491   4.221
20237W        W85464  15.696   9.134  11.232
20238W        W85465   3.254  39.140   0.930
20239W        W85466  35.058  17.337  12.510
20240W        W85467  22.631   2.755   1.640
20241W        W85468  40.358  33.323   4.737
20242W        W85469  27.510  19.248  13.058
20243W        W85470  33.804   0.486  13.897
20244W        W85471  18.661  26.143  12.364
20245W        W85472  27.041   3.075   0.504
20246W        W85473  10.604  24.415  12.051
20247W        W85474   2.845   5.875  11.974
20248W        W85475   2.809  37.799  13.330
20249W        W85476  32.463  44.507   3.705
20250W        W85477  21.779  18.600   3.306
20251W        W85478   8.145  44.500  11.151
20252W        W85479  42.715  36.169   3.752
20253W        W85480  17.065  38.603   4.729
20254W        W85481  43.988  14.696   3.887
20255W        W85482  32.492  41.308   1.761
20256W        W85483  19.071  37.396   3.821
20257W        W85484   9.463  18.704   2.912
20258W        W85485   8.884  30.410  10.202
20259W        W85486  37.473  31.859  14.936
20260W        W85487  21.159  41.468   0.280
20261W        W85488  22.741  21.650   2.484
20262W        W85489  43.886  25.772  13.930
20263W        W85490   9.860  18.164   0.383
20264W        W85491  13.017   5.378   1.605
20265W        W85492  35.852  39.524   1.163
20266W        W85493  29.609  21.693  11.618
20267W        W85494  28.467  17.641  11.677
20268W        W85495  32.033  42.716  13.482
20269W        W85496  43.923  16.326  13.914
20270W        W85497  12.160  41.019   4.650
20271W        W85498  36.371  35.392   2.863
20272W        W85499  20.186  26.736  14.073
20273W        W85500  42.299   1.407  14.830
20274W        W85501  39.846  20.473   0.815
20275W        W85502   4.925  23.455  13.513
20276W        W85503   5.814  23.771   3.190
20277W        W85504  26.911  17.789   2.155
20278W        W85505  27.104  40.088   3.692
20279W        W85506   6.823  22.912   4.245
20280W        W85507  23.691   3.141   0.290
20281W        W85508  34.081  13.859   1.781
20282W        W85509  26.941  12.196   1.247
20283W        W85510  15.362   1.892  14.381
20284W        W85511   1.460   5.184  13.082
20285W        W85512  35.606   7.417   1.504
20286W        W85513  34.545  26.350  11.619
20287W        W85514  26.690  16.980   4.575
20288W        W85515  11.894   7.811  11.397
20289W        W85516   3.849  40.890   1.436
20290W        W85517  41.781   8.906   4.011
20291W        W85518  20.597  20.604   1.354
20292W        W85519  14.407   8.774   2.352
20293W        W85520  21.173  38.340  11.785
20294W        W85521   9.656  33.532   0.296
20295W        W85522  24.031  44.893  13.169
20296W        W85523   0.512  32.856  12.004
20297W        W85524  32.080  13.985  11.589
20298W        W85525  39.418   9.627  13.991
20299W        W85526  41.483  31.624   2.249
20300W        W85527  24.952  33.886  11.066
20301W        W85528   7.598  36.634  13.156
20302W        W85529  24.306  26.194  12.269
20303W        W85530  23.980   9.617   2.853
20304W        W85531  42.272  10.855   1.830
20305W        W85532  22.957   5.473  14.290
20306W        W85533  35.070  35.933   1.156
20307W        W85534  22.073  34.292   4.904
20308W        W85535  26.732  18.198   0.508
20309W        W85536   0.860  22.378   9.521
20310W        W85537  20.044  16.849   3.653
20311W        W85538  37.838  18.456  10.836
20312W        W85539  18.888   1.271   2.555
20313W        W85540   3.242   5.655  13.499
20314W        W85541  32.690  32.889   3.330
20315W        W85542  24.936  37.844   0.399
20316W        W85543  30.560  43.756   1.829
20317W        W85544   2.210   7.250  14.772
20318W        W85545  28.658   5.450  10.720
20319W        W85546  17.400  13.331   3.189
20320W        W85547  28.892  36.767  10.647
20321W        W85548  26.626  37.628   2.858
20322W        W85549  26.514   2.971   1.022
20323W        W85550  32.787  41.845  14.998
20324W        W85551  40.418  39.790   4.157
20325W        W85552   5.928  31.920  14.381
20326W        W85553  31.850  17.017  14.295
20327W        W85554  32.572  31.696  14.543
20328W        W85555  29.127  25.256   3.598
20329W        W85556   6.467  11.299  12.887
20330W        W85557  43.842   1.956  14.901
20331W        W85558  42.951  14.277   3.857
20332W        W85559  31.853   1.370  13.304
20333W        W85560  36.987  39.991   2.901
20334W        W85561  40.169  41.326   0.376
20335W        W85562   3.722   3.285   2.231
20336W        W85563  34.880   7.642   4.131
20337W        W85564   9.409  13.167   0.426
20338W        W85565  39.827  25.540  11.412
20339W        W85566  34.414  18.000  12.192
20340W        W85567  22.708  40.420   3.139
20341W        W85568  10.580  37.135  14.431
20342W        W85569   8.681  25.728   3.853
20343W        W85570   4.265   0.487  11.746
20344W        W85571  13.296  44.820   3.516
20345W        W85572  21.503   5.764   0.478
20346W        W85573  14.663  41.547   1.274
20347W        W85574  29.905   4.146  12.584
20348W        W85575  16.642  28.982   2.718
20349W        W85576  13.176  38.916   0.666
20350W        W85577  35.814  14.079   2.988
20351W        W85578   9.019  29.701  14.527
20352W        W85579  31.607  14.015   3.697
20353W        W85580   4.278  44.726   1.268
20354W        W85581  43.742  43.686   4.571
20355W        W85582  39.708  39.807   2.212
20356W        W85583  42.452   3.460  10.650
20357W        W85584  28.224  44.897  13.545
20358W        W85585  32.563  41.888   2.895
20359W        W85586  35.161  10.622  14.941
20360W        W85587  23.801   3.168  14.629
20361W        W85588   0.253  21.628  13.538
20362W        W85589  38.847   7.262  14.998
20363W        W85590  11.981   1.936   4.489
20364W        W85591  23.204  33.380   2.464
20365W        W85592   1.778  31.540   3.651
20366W        W85593   5.416  18.347  14.621
20367W        W85594  11.430  36.957  13.974
20368W        W85595  15.208  14.281   0.371
20369W        W85596  11.800  25.641  14.267
20370W        W85597  20.869  14.219   0.350
20371W        W85598   2.876  42.723   1.315
20372W        W85599   0.049  30.015   4.078
20373W        W85600   4.535  25.510   2.585
20374W        W85601  35.754   3.221  11.055
20375W        W85602  27.128  34.890  10.792
20376W        W85603   2.319  19.663   2.294
20377W        W85604  37.230  35.395   2.686
20378W        W85605  25.983  10.156   1.287
20379W        W85606   9.372  35.895  10.664
20380W        W85607  33.162   5.370  13.438
20381W        W85608  33.212  13.131  14.344
20382W        W85609  41.764   4.921   3.757
20383W        W85610  16.188  37.930  13.488
20384W        W85611  23.564  32.628   4.027
20385W        W85612   5.722  10.667  14.261
20386W        W85613   3.804   9.055   3.135
20387W        W85614  25.254   6.303  10.740
20388W        W85615  12.304  10.829  13.374
20389W        W85616   5.071  34.358  10.477
20390W        W85617  35.588   2.891   0.300
20391W        W85618  44.875  32.394  10.772
20392W        W85619   3.807  29.137   0.698
20393W        W85620   0.279  17.875   2.736
20394W        W85621  17.369   9.610   2.263
20395W        W85622  39.460  36.009  10.781
20396W        W85623  15.568  40.180  12.556
20397W        W85624   2.225  21.173   2.762
20398W        W85625  23.988  10.851   1.562
20399W        W85626  23.143   3.945  14.500
20400W        W85627   0.804  42.873   2.228
20401W        W85628  21.179  18.042   1.467
20402W        W85629   0.659  34.587  10.687
20403W        W85630   9.734   8.294   1.146
20404W        W85631   1.010  41.551   3.281
20405W        W85632   3.329  39.369  13.035
20406W        W85633  38.241  29.738  14.116
20407W        W85634  10.150   7.331   2.313
20408W        W85635   3.925  15.507  10.981
20409W        W85636   8.136   3.493  14.580
20410W        W85637  22.493  40.396  13.059
20411W        W85638  27.202   9.695  11.311
20412W        W85639  26.522  21.521   2.333
20413W        W85640   6.954   1.168  13.882
20414W        W85641   5.855  17.761  14.400
20415W        W85642  35.366  27.074  14.316
20416W        W85643  39.483  32.407  14.796
20417W        W85644  12.291   9.775   4.079
20418W        W85645  13.048  43.753  14.561
20419W        W85646  12.782  14.035  12.319
20420W        W85647  41.226  29.353  12.459
20421W        W85648   7.183   1.579  13.036
20422W        W85649  38.000  30.689   0.270
20423W        W85650  34.634  40.001  14.976
20424W        W85651   1.041  25.177   1.010
20425W        W85652  18.826  14.216   4.009
20426W        W85653   3.447  15.246  11.120
20427W        W85654  13.029  31.143   0.682
20428W        W85655  31.179  14.494  10.230
20429W        W85656  44.794   4.966  10.631
20430W        W85657  10.285  37.835   3.463
20431W        W85658  44.974  13.775  14.395
20432W        W85659  23.895  32.591   2.728
20433W        W85660  24.877   6.875  10.611
20434W        W85661  31.883  34.972   3.633
20435W        W85662  42.794  43.816  10.738
20436W        W85663  22.558  28.459   1.737
20437W        W85664   5.682   0.989  14.223
20438W        W85665  43.083  43.516  11.223
20439W        W85666  30.475  27.419  13.025
20440W        W85667   9.859  37.637   1.732
20441W        W85668  44.483  37.370  11.549
20442W        W85669   4.214  40.641  14.922
20443W        W85670  11.139   9.310   3.197
20444W        W85671  18.660  22.138  13.379
20445W        W85672  15.212  14.380   4.110
20446W        W85673  11.582  29.284  13.816
20447W        W85674  34.975   4.385   0.729
20448W        W85675  16.694  17.424   1.636
20449W        W85676  10.255  27.079   1.383
20450W        W85677  40.351  41.885   3.713
20451W        W85678  21.739   1.313   1.191
20452W        W85679   4.926   8.179   3.235
20453W        W85680  24.910  33.874   1.994
20454W        W85681  23.435   7.635  11.603
20455W        W85682  40.031  14.600  12.749
20456W        W85683  19.234   2.298  10.724
20457W        W85684  37.068   9.271   2.741
20458W        W85685  33.051  29.378  14.320
20459W        W85686  29.470   5.473   0.819
20460W        W85687  39.811  13.103   2.235
20461W        W85688  23.159  22.592   4.113
20462W        W85689  42.339   0.449   2.870
20463W        W85690  40.087   0.878  12.111
20464W        W85691  44.291   1.475   5.044
20465W        W85692  19.862  12.757   4.619
20466W        W85693   7.033  16.815   3.223
20467W        W85694  12.111   0.410   1.766
20468W        W85695  44.938   2.715   3.171
20469W        W85696  44.759  17.534   3.337
20470W        W85697  30.944  39.910  13.876
20471W        W85698  20.219   7.083   1.779
20472W        W85699  44.347  14.201   4.531
20473W        W85700   2.888  17.464   1.506
20474W        W85701  35.989  34.083   4.661
20475W        W85702  14.501  36.511  10.785
20476W        W85703  37.637  10.510   3.218
20477W        W85704  40.358  20.864  14.979
20478W        W85705  38.854  11.801  11.998
20479W        W85706  28.765  23.550   0.968
20480W        W85707  40.277  30.570  11.166
20481W        W85708   5.868  37.431   1.536
20482W        W85709  17.781  28.702  12.409
20483W        W85710  21.054  11.150  11.155
20484W        W85711  17.778  42.996   1.796
20485W        W85712   7.197  35.169   4.616
20486W        W85713  24.502  16.799  12.138
20487W        W85714  40.838  29.153   5.045
20488W        W85715  15.227  35.598  13.122
20489W        W85716   1.195  17.599  12.396
20490W        W85717  29.214  23.298   2.780
20491W        W85718   1.249   6.294  14.923
20492W        W85719  18.630  28.994  10.799
20493W        W85720  43.992  10.278  13.549
20494W        W85721   8.734  19.928   5.270
20495W        W85722  35.859  17.566  12.917
20496W        W85723  24.330  38.000   1.676
20497W        W85724   4.311  44.991   1.722
20498W        W85725  19.634  19.157   0.428
20499W        W85726  29.447  16.287   3.172
20500W        W85727  12.843  26.512  13.065
20501W        W85728  10.517  21.465   0.669
20502W        W85729   6.893  12.811   2.854
20503W        W85730  10.866  28.544  11.857
20504W        W85731  28.600  14.310   3.738
20505W        W85732   9.329  41.296   4.618
20506W        W85733  22.521   9.236  11.161
20507W        W85734   0.964  30.187   1.807
20508W        W85735  12.391  36.075  13.997
20509W        W85736  15.764  20.134   4.924
20510W        W85737   9.130  34.944   1.961
20511W        W85738   3.888  11.083   4.505
20512W        W85739   3.495  25.178  13.060
20513W        W85740  35.924   1.253  12.554
20514W        W85741  25.244  20.409   2.328
20515W        W85742  12.508  31.606  11.668
20516W        W85743   8.874  34.462   0.799
20517W        W85744   5.301  37.311  12.359
20518W        W85745  29.605  24.682   1.034
20519W        W85746  41.910  13.797  12.879
20520W        W85747  34.014   6.334   3.812
20521W        W85748  12.107  40.908   3.601
20522W        W85749  33.069  11.358   3.130
20523W        W85750  17.305  34.344   4.619
20524W        W85751   7.764  35.747  13.733
20525W        W85752  26.898  41.313   2.989
20526W        W85753  20.602  15.148   0.813
20527W        W85754  25.152   7.127  11.444
20528W        W85755  13.610  19.206  12.094
20529W        W85756  10.258  39.975  13.456
20530W        W85757  26.170  10.792   1.879
20531W        W85758  24.782   4.265  13.821
20532W        W85759  15.810  22.498  13.761
20533W        W85760  19.059  17.218   1.790
20534W        W85761  34.472  27.949  10.887
20535W        W85762  38.004  37.226   1.111
20536W        W85763   2.507  41.874  10.424
20537W        W85764  33.978  12.889  12.019
20538W        W85765  21.676  13.018   3.717
20539W        W85766  42.001  18.550   0.271
20540W        W85767   0.691  42.371   2.179
20541W        W85768  25.594  41.864  12.462
20542W        W85769   0.514   8.684   4.569
20543W        W85770  42.857  28.170  14.923
20544W        W85771  32.590   0.366   2.861
20545W        W85772  36.796  42.483  11.275
20546W        W85773  36.026  30.213   1.944
20547W        W85774  28.069  26.607   0.809
20548W        W85775  21.347  10.421  10.100
20549W        W85776   3.872   4.525   4.150
20550W        W85777  20.110  10.209   2.521
20551W        W85778  25.241   2.395   0.513
20552W        W85779  21.141  30.047   0.410
20553W        W85780  28.458  39.342  14.444
20554W        W85781  25.915  29.510  14.670
20555W        W85782  37.023   9.708   1.240
20556W        W85783  13.836  24.211   3.182
20557W        W85784  44.883  40.283   0.361
20558W        W85785  17.770  27.688  14.434
20559W        W85786  35.525  33.470  12.943
20560W        W85787   7.734  40.466   4.237
20561W        W85788  22.803  20.002   1.273
20562W        W85789  15.351  42.236  11.189
20563W        W85790  20.221  39.377  10.769
20564W        W85791  23.893   4.279  12.813
20565W        W85792   6.319   2.471  14.855
20566W        W85793  30.343  36.320   0.300
20567W        W85794   3.891  35.567  13.820
20568W        W85795  37.002  12.672   0.150
20569W        W85796  37.363   0.754  10.890
20570W        W85797   4.770  42.624  10.315
20571W        W85798   5.302  31.907  14.800
20572W        W85799  19.172   3.919   1.340
20573W        W85800  34.863  20.078  14.131
20574W        W85801  12.340   7.693  13.823
20575W        W85802  34.318  35.629  11.615
20576W        W85803  30.885   0.997   2.477
20577W        W85804   4.044  44.797   4.560
20578W        W85805  28.132   1.254   0.173
20579W        W85806   4.012  24.362   4.194
20580W        W85807  30.862  37.961  13.008
20581W        W85808  27.513  29.451  12.440
20582W        W85809  38.451  42.808   4.152
20583W        W85810  36.000  13.394  13.828
20584W        W85811  14.698  32.082   1.441
20585W        W85812  11.263   6.118  11.135
20586W        W85813   9.346   0.924   0.670
20587W        W85814  22.143  41.016   0.932
20588W        W85815  35.102  30.679   2.807
20589W        W85816  15.678  36.314  12.884
20590W        W85817  33.564  30.956  14.780
20591W        W85818   8.653   3.449  14.535
20592W        W85819  28.002  35.058   4.164
20593W        W85820  41.972  27.154  10.602
20594W        W85821  13.875  30.529  14.569
20595W        W85822   8.699  10.297   4.397
20596W        W85823  18.291   7.377  14.057
20597W        W85824   6.685  31.098  10.668
20598W        W85825  28.807  28.007  11.760
20599W        W85826  22.244  31.707   3.607
20600W        W85827  35.084  27.609   2.417
20601W        W85828  43.575  19.131  14.552
20602W        W85829   0.761  12.239  12.868
20603W        W85830   6.424  17.644  11.859
20604W        W85831  35.645  30.086   1.616
20605W        W85832  30.994   7.129  13.302
20606W        W85833  40.998  28.681   2.776
20607W        W85834  13.106   6.781  13.306
20608W        W85835  32.254  20.299   1.766
20609W        W85836  10.264  23.628   3.780
20610W        W85837  21.409  33.862  12.800
20611W        W85838   7.758  26.559  11.572
20612W        W85839  39.618  21.999   3.212
20613W        W85840  11.382  41.117   2.947
20614W        W85841  11.575   1.469   3.195
20615W        W85842   4.837   9.920   3.774
20616W        W85843  36.358  16.147   9.811
20617W        W85844  44.350  43.756  11.039
20618W        W85845  31.282  33.428  14.425
20619W        W85846  28.171  15.686  14.588
20620W        W85847  11.811   9.197   2.421
20621W        W85848  42.826  32.939   3.673
20622W        W85849  14.693  29.588   1.346
20623W        W85850   7.661  29.966  12.242
20624W        W85851  28.092  37.035   4.773
20625W        W85852  10.190  16.044  13.671
20626W        W85853  13.289  30.690   0.786
20627W        W85854  19.254   6.926   1.501
20628W        W85855  28.698  16.241  13.728
20629W        W85856  19.326  22.845  14.006
20630W        W85857  42.033  41.837  12.913
20631W        W85858  13.118   7.900  12.996
20632W        W85859  28.272  29.016   0.402
20633W        W85860  26.034  38.968   2.365
20634W        W85861   0.785  17.335   4.355
20635W        W85862  16.680   7.872   3.307
20636W        W85863  42.676   8.232   2.104
20637W        W85864  16.789  20.248  14.311
20638W        W85865  13.683   8.206   2.431
20639W        W85866  20.823  15.885   4.154
20640W        W85867  42.880  21.936  11.131
20641W        W85868  10.514  10.704   0.776
20642W        W85869  19.086  25.887   1.849
20643W        W85870  40.248  36.694  13.415
20644W        W85871  39.771  39.002   1.601
20645W        W85872  36.945  44.264  13.834
20646W        W85873  24.255   6.748   1.919
20647W        W85874  23.867  21.723  12.768
20648W        W85875  36.651  11.861  14.279
20649W        W85876   4.316   5.316  10.960
20650W        W85877  19.264  19.740   0.449
20651W        W85878   4.440  20.736  11.074
20652W        W85879  17.690  30.934   4.032
20653W        W85880  31.398   7.203  11.599
20654W        W85881   7.382   8.777   0.408
20655W        W85882   4.875  34.314   0.252
20656W        W85883  18.660   1.012   0.358
20657W        W85884  18.783   6.935   2.257
20658W        W85885   1.999  22.767   3.501
20659W        W85886  43.544  23.160  12.228
20660W        W85887  40.485   8.751  11.569
20661W        W85888  29.425  39.753  11.463
20662W        W85889  15.821   6.644   1.390
20663W        W85890  19.531   2.233   3.012
20664W        W85891  35.399  22.252  10.665
20665W        W85892  21.578  33.871   1.845
20666W        W85893  34.616  11.753   2.643
20667W        W85894  19.777  22.414  13.410
20668W        W85895  16.980  25.989   3.328
20669W        W85896  26.654   2.437   1.174
20670W        W85897  40.554  26.289   0.787
20671W        W85898  21.730  26.964   2.262
20672W        W85899   3.067   7.621  14.388
20673W        W85900  40.749  38.051   2.326
20674W        W85901  38.910  16.775  12.138
20675W        W85902  11.946  10.233   3.853
20676W        W85903  10.334  20.717  10.536
20677W        W85904  34.331  15.192   9.874
20678W        W85905  44.024   4.190   2.639
20679W        W85906   2.103  26.661  12.022
20680W        W85907  36.622  39.388   0.495
20681W        W85908  33.361  18.534   2.430
20682W        W85909   2.863  41.177  11.904
20683W        W85910  44.991  26.282   1.679
20684W        W85911  37.107  39.893  12.828
20685W        W85912  39.483  41.009  11.683
20686W        W85913  29.944  38.244  13.055
20687W        W85914  19.070  23.602   3.789
20688W        W85915  24.181  33.046   2.853
20689W        W85916  29.463  12.542  12.223
20690W        W85917  23.139   4.735   1.333
20691W        W85918  12.925  10.281   3.709
20692W        W85919  32.663  23.536  14.960
20693W        W85920   3.404  18.128  10.618
20694W        W85921   8.332  15.661  11.458
20695W        W85922  26.822  41.804  14.791
20696W        W85923  15.254  18.514  13.938
20697W        W85924  12.161  32.465   3.363
20698W        W85925  33.481  36.320   5.556
20699W        W85926  37.570  28.158  10.952
20700W        W85927  28.355  39.138  11.921
20701W        W85928  28.011  22.494   1.761
20702W        W85929  34.800   3.594  12.069
20703W        W85930  29.068  42.558   0.399
20704W        W85931  14.099  27.065   0.410
20705W        W85932  27.562  35.987  14.537
20706W        W85933  44.813  40.165   2.935
20707W        W85934   0.133  31.154   0.984
20708W        W85935  35.535  40.320   3.075
20709W        W85936   9.592  10.569   3.270
20710W        W85937  30.521   9.194   4.992
20711W        W85938  13.237  39.817  11.885
20712W        W85939   4.700  35.479   1.539
20713W        W85940   2.935  14.801  13.476
20714W        W85941  23.467  42.802   2.575
20715W        W85942  39.177  25.175   0.730
20716W        W85943   6.517  38.056  10.736
20717W        W85944  25.658  44.205   3.776
20718W        W85945  22.251   7.021   4.714
20719W        W85946  34.381  27.542  10.590
20720W        W85947  27.173   4.333   2.194
20721W        W85948   7.140  38.889   3.807
20722W        W85949  18.111  28.224   0.904
20723W        W85950  17.219  16.755   4.168
20724W        W85951   8.339  29.262   2.712
20725W        W85952  27.879  16.202   2.008
20726W        W85953  32.665   6.354   1.303
20727W        W85954   0.001  17.779  13.367
20728W        W85955   7.037  19.041  13.658
20729W        W85956  19.334  22.616  14.965
20730W        W85957   7.295   1.541   2.220
20731W        W85958  40.227  39.874   2.156
20732W        W85959   5.467   0.889  11.099
20733W        W85960   8.928  32.563   3.691
20734W        W85961  12.845  15.591  11.059
20735W        W85962   1.349  10.648   4.006
20736W        W85963  14.585  33.209  10.622
20737W        W85964  15.816  37.134  11.199
20738W        W85965  44.991  16.529  13.975
20739W        W85966  22.780   4.162   4.057
20740W        W85967  30.497   7.250   0.853
20741W        W85968  42.814   2.708  11.294
20742W        W85969  33.096  31.901   2.193
20743W        W85970  10.768   4.173   1.219
20744W        W85971  40.524  25.633   1.437
20745W        W85972  36.311  25.900   2.762
20746W        W85973   9.600   4.990  12.878
20747W        W85974  26.123  43.841  11.663
20748W        W85975  13.083  33.403  14.233
20749W        W85976  24.010   8.657   0.323
20750W        W85977  30.021   8.035  13.536
20751W        W85978  28.233   4.438   2.181
20752W        W85979  20.241  15.398   1.585
20753W        W85980  10.210  39.846   4.533
20754W        W85981  21.263  32.068  13.953
20755W        W85982  17.801   5.618   3.852
20756W        W85983  12.744  28.122  11.652
20757W        W85984  44.630  36.926  12.134
20758W        W85985  43.272  32.158   0.416
20759W        W85986   0.514  39.005   2.778
20760W        W85987  14.284  16.520   0.941
20761W        W85988  15.244  35.378   0.678
20762W        W85989  32.053  18.184  13.771
20763W        W85990  25.666  17.814  12.089
20764W        W85991  30.145   7.094  13.426
20765W        W85992   9.817  16.296  12.086
20766W        W85993  15.684   5.313  14.773
20767W        W85994  21.237  24.711  13.559
20768W        W85995  38.887  23.278   3.386
20769W        W85996  19.999  15.040  14.494
20770W        W85997  29.219   5.827   2.357
20771W        W85998  41.586  11.108  10.484
20772W        W85999  10.475   0.760   0.580
20773W        W86000  10.100  31.515  13.579
20774W        W86001  15.995   5.408   0.213
20775W        W86002  34.955  15.301   4.145
20776W        W86003   7.289   5.843   5.061
20777W        W86004  16.052  18.065   1.327
20778W        W86005  16.565   0.510   4.278
20779W        W86006  32.561  27.589   2.710
20780W        W86007  41.716   2.468   2.169
20781W        W86008   7.660  40.287   0.710
20782W        W86009  32.459   3.517  11.256
20783W        W86010  22.449  20.807   3.603
20784W        W86011  13.830  12.192  11.437
20785W        W86012   4.360  13.122  13.919
20786W        W86013  42.745   6.197  14.036
20787W        W86014  33.541  30.289  14.124
20788W        W86015  25.107   8.227  10.809
20789W        W86016  17.113   9.590  14.453
20790W        W86017  43.034  40.079   1.518
20791W        W86018  16.019  42.365   0.741
20792W        W86019  17.033  11.227   1.671
20793W        W86020   9.458  19.060  13.628
20794W        W86021  28.550   6.316  10.740
20795W        W86022  21.290   4.133   0.255
20796W        W86023  31.706  28.697   1.733
20797W        W86024   2.430   5.491  10.692
20798W        W86025  10.263  38.861   1.485
20799W        W86026   0.305  39.396  12.491
20800W        W86027  32.069   6.412  12.934
20801W        W86028  29.588  35.036   4.068
20802W        W86029  12.090  21.080  12.935
20803W        W86030  11.476   0.245   4.156
20804W        W86031  41.015   6.781   0.670
20805W        W86032  11.421  13.163  11.152
20806W        W86033   7.821  30.123   2.952
20807W        W86034  25.704  38.963  10.246
20808W        W86035   3.526  11.821   0.868
20809W        W86036  14.730  41.475   2.181
20810W        W86037  43.514  17.082   0.310
20811W        W86038  34.003  20.347   3.378
20812W        W86039   4.506  29.059   1.694
20813W        W86040  10.064  33.382   2.263
20814W        W86041  22.305  35.003  12.414
20815W        W86042   6.847  40.527   4.392
20816W        W86043  13.720   0.941   2.162
20817W        W86044  14.793  21.851  13.001
20818W        W86045   4.753  36.588   2.289
20819W        W86046  34.931  16.332   0.729
20820W        W86047   1.971  36.844   1.152
20821W        W86048  27.180  24.695  11.992
20822W        W86049  23.242  25.197  10.703
20823W        W86050  37.549  44.687  12.978
20824W        W86051   7.476   3.246   4.095
20825W        W86052  12.780  14.043  14.205
20826W        W86053  29.926  31.489  13.663
20827W        W86054   4.174   5.184  11.472
20828W        W86055  36.289   9.685  11.127
20829W        W86056  20.215  42.307  13.039
20830W        W86057  10.449  16.416  10.760
20831W        W86058  30.484  22.211   2.229
20832W        W86059  15.760  32.231   5.033
20833W        W86060   2.209  30.675  14.018
20834W        W86061  21.420   2.619   2.691
20835W        W86062  13.616  18.086   1.703
20836W        W86063  44.418  36.340  12.817
20837W        W86064  40.799  24.976   4.534
20838W        W86065  12.857  20.651  14.961
20839W        W86066  16.964  34.788  13.524
20840W        W86067  11.871  17.888  12.089
20841W        W86068  26.835   4.278  14.785
20842W        W86069   8.814  24.558   2.380
20843W        W86070   6.511  32.178  13.111
20844W        W86071   0.268  34.613   2.347
20845W        W86072  39.807  14.088  14.952
20846W        W86073  28.113  21.770   4.378
20847W        W86074  24.399   1.268  12.911
20848W        W86075  43.081  41.623   1.370
20849W        W86076  23.732  16.533  12.481
20850W        W86077  34.895  30.503  13.748
20851W        W86078   5.531  41.534   0.876
20852W        W86079  19.129  35.383  12.413
20853W        W86080   3.286   6.271   4.586
20854W        W86081  10.094  44.855   0.369
20855W        W86082  29.229  43.572  14.162
20856W        W86083  22.271  21.763   2.743
20857W        W86084  16.335  28.573  14.294
20858W        W86085  41.306  20.070  11.225
20859W        W86086  28.845  27.614   3.450
20860W        W86087  37.134  21.682  13.042
20861W        W86088  31.179  20.781   2.115
20862W        W86089  12.809  23.176   1.451
20863W        W86090  11.884  14.622  14.457
20864W        W86091   9.382   6.732   4.550
20865W        W86092  32.514   3.965   3.610
20866W        W86093  22.101  18.004   2.842
20867W        W86094  23.767  12.551  13.898
20868W        W86095  17.134  21.449   4.955
20869W        W86096  33.593  20.032   1.136
20870W        W86097  41.263  36.940   4.594
20871W        W86098  42.476  35.188  12.653
20872W        W86099  29.358  25.243  14.340
20873W        W86100  34.071   1.980   1.464
20874W        W86101  34.244  38.408   3.110
20875W        W86102  24.466  15.152  11.785
20876W        W86103  26.252  35.768  11.192
20877W        W86104   8.302  16.319   4.176
20878W        W86105  23.991  12.915  13.566
20879W        W86106  22.727  40.599  11.110
20880W        W86107  35.023  22.732   4.659
20881W        W86108  23.495  28.862   1.262
20882W        W86109  30.155  11.642   0.196
20883W        W86110  22.427  43.291  12.028
20884W        W86111  25.279  28.088  10.729
20885W        W86112   6.023  14.757   3.227
20886W        W86113  33.706  44.702  14.721
20887W        W86114   6.172  34.158   2.855
20888W        W86115   2.371   0.447  10.454
20889W        W86116  10.266  35.562  11.429
20890W        W86117  34.339  15.651  10.113
20891W        W86118  40.797  28.746   4.708
20892W        W86119  34.941  22.597   0.983
20893W        W86120   7.369  35.102  14.851
20894W        W86121  36.500  32.531  14.427
20895W        W86122   9.224  36.565   2.850
20896W        W86123  27.222  35.503  14.770
20897W        W86124   8.322  21.583   3.561
20898W        W86125  17.209  19.950  14.247
20899W        W86126   3.751   8.149   4.303
20900W        W86127  22.628   4.680   4.053
20901W        W86128  10.804  10.319   1.003
20902W        W86129   0.876  20.439   2.699
20903W        W86130  15.111   6.444   3.737
20904W        W86131   2.503  10.575  13.850
20905W        W86132  11.168   7.581   1.838
20906W        W86133  26.214  10.179  13.053
20907W        W86134  20.247   7.846  11.870
20908W        W86135  44.010  36.095  12.035
20909W        W86136  41.552   7.454   0.892
20910W        W86137  24.725  38.326   1.838
20911W        W86138   9.242  20.175   4.641
20912W        W86139  44.130   5.676  13.616
20913W        W86140  42.598  34.837   2.789
20914W        W86141  13.201  39.759   3.591
20915W        W86142  25.034   0.515   1.167
20916W        W86143  10.708  30.352   3.513
20917W        W86144  44.249  19.252   0.525
20918W        W86145  35.049  13.142  11.888
20919W        W86146  33.012   2.942  14.250
20920W        W86147  33.724   1.791   9.841
20921W        W86148  31.579  35.666  11.214
20922W        W86149  29.443  19.805   2.799
20923W        W86150   7.334  32.504  10.947
20924W        W86151  38.810  40.280   2.886
20925W        W86152  13.229  17.034  11.741
20926W        W86153  24.857  29.542  14.968
20927W        W86154  40.049   1.644  13.849
20928W        W86155  15.811  41.268  14.393
20929W        W86156  34.559  36.591  10.820
20930W        W86157  28.175  41.509   2.946
20931W        W86158  26.588   5.627  12.166
20932W        W86159  39.162   0.832   4.078
20933W        W86160  22.541  13.879   4.690
20934W        W86161  33.132  15.766  14.080
20935W        W86162   7.342   6.929  10.635
20936W        W86163  39.899  44.786  12.505
20937W        W86164  20.766  39.968   4.919
20938W        W86165  41.960  44.319   1.698
20939W        W86166  13.332  37.070   4.632
20940W        W86167   3.348  31.620   3.599
20941W        W86168   6.374  31.246   3.297
20942W        W86169  42.807   9.038   0.265
20943W        W86170  16.802  41.836   2.844
20944W        W86171  26.233  12.128  12.214
20945W        W86172   2.512   4.389  14.834
20946W        W86173   7.242  29.473  13.837
20947W        W86174   3.827  42.554  13.025
20948W        W86175   2.041  13.353  11.553
20949W        W86176  42.042   9.953   0.345
20950W        W86177  18.534  31.999   0.468
20951W        W86178  30.495  38.525  10.346
20952W        W86179  41.079  27.574   0.062
20953W        W86180   6.945   2.919   3.813
20954W        W86181   3.349   0.208   4.053
20955W        W86182   2.817   3.282   4.700
20956W        W86183  42.376  44.484   4.547
20957W        W86184  31.241  39.422  13.109
20958W        W86185  20.942   5.941  13.108
20959W        W86186  39.465  40.459  12.394
20960W        W86187  39.545   2.229   2.507
20961W        W86188  32.882  12.754   0.567
20962W        W86189  24.489  36.200  10.560
20963W        W86190  13.852  20.558   0.229
20964W        W86191  44.402  41.603   0.368
20965W        W86192   7.755  11.609  12.272
20966W        W86193   2.217  37.524   1.402
20967W        W86194   6.762  42.688  14.455
20968W        W86195  42.280  39.307   1.923
20969W        W86196  30.170  22.739  13.768
20970W        W86197  24.742  30.066   3.167
20971W        W86198  27.666  13.745   3.426
20972W        W86199   4.341  37.909   2.830
20973W        W86200  30.550  29.699   2.625
20974W        W86201   9.609   0.202  12.595
20975W        W86202  35.094  30.389   4.658
20976W        W86203   6.339  42.364  13.104
20977W        W86204  17.588  12.669   4.177
20978W        W86205   5.206  32.414  14.939
20979W        W86206  17.106  12.069  12.438
20980W        W86207   9.534  31.243   3.747
20981W        W86208  39.058   1.731  13.362
20982W        W86209  43.307  39.547   1.888
20983W        W86210  20.279   8.727   0.767
20984W        W86211   2.525  37.362  11.726
20985W        W86212   1.482  20.815   3.141
20986W        W86213  37.095  11.637   3.717
20987W        W86214  25.179   2.010  13.482
20988W        W86215   2.035  43.586  12.544
20989W        W86216  37.542   2.402   1.430
20990W        W86217  41.958  29.146   3.151
20991W        W86218  25.550  28.725   2.824
20992W        W86219  38.038  22.950   2.362
20993W        W86220  39.329  20.807  14.021
20994W        W86221  10.692   4.819   4.773
20995W        W86222  22.605   7.179   0.017
20996W        W86223  13.854  15.679  11.135
20997W        W86224  31.453  19.290  10.775
20998W        W86225  20.786  32.042  11.939
20999W        W86226  14.075  35.122  12.820
21000W        W86227   7.015  11.591  14.375
21001W        W86228  39.531  39.292  13.626
21002W        W86229  31.060   0.514  11.548
21003W        W86230  29.382  33.910  12.807
21004W        W86231  23.736  35.322  13.865
21005W        W86232   1.870   0.185  13.141
21006W        W86233  16.598  25.686   3.159
21007W        W86234  35.602   4.967   4.859
21008W        W86235  41.241  38.876  10.968
21009W        W86236   2.971  27.513   0.354
21010W        W86237  18.160  44.486   2.269
21011W        W86238  29.608  11.303   4.138
21012W        W86239   8.909  43.142  12.889
21013W        W86240  21.598  42.741  13.060
21014W        W86241  31.495  11.899  12.581
21015W        W86242   6.230  21.920  10.706
21016W        W86243   8.356   2.647   0.481
21017W        W86244  15.419   0.209  14.869
21018W        W86245  16.017  44.785  13.832
21019W        W86246  38.524  39.440   2.795
21020W        W86247  24.560  25.662   2.675
21021W        W86248  23.772  21.246  12.937
21022W        W86249   5.131  24.120  10.997
21023W        W86250  13.459   9.114   1.516
21024W        W86251  36.625  24.894   2.847
21025W        W86252   3.824   7.823   2.101
21026W        W86253  10.216  30.183   2.765
21027W        W86254  13.805   0.253  10.703
21028W        W86255  43.430   3.370  11.380
21029W        W86256  42.354   1.609   4.559
21030W        W86257  32.422  41.846   0.898
21031W        W86258  12.519  23.709  12.149
21032W        W86259  44.312  41.822  13.853
21033W        W86260   2.082  22.953   0.746
21034W        W86261  25.904  32.390   4.025
21035W        W86262  12.858  26.980   4.882
21036W        W86263  21.309  42.669  12.005
21037W        W86264  42.032  19.195  13.441
21038W        W86265  28.641  27.133   5.038
21039W        W86266   7.803   3.481   3.124
21040W        W86267   2.324  20.421   4.811
21041W        W86268  30.145  33.128   3.851
21042W        W86269  36.889  27.691   1.687
21043W        W86270  40.806  44.496   3.633
21044W        W86271  44.299  35.248   0.836
21045W        W86272  20.615   8.896  14.637
21046W        W86273  12.597  40.313  12.842
21047W        W86274   9.303  34.146  14.020
21048W        W86275  29.176  24.983   1.042
21049W        W86276  21.762  33.960  13.179
21050W        W86277  33.503   1.770  10.708
21051W        W86278  38.080  21.414   4.799
21052W        W86279  28.140  44.911   3.004
21053W        W86280   0.290  26.063   3.170
21054W        W86281   5.976   0.414   0.393
21055W        W86282  12.230  12.207  11.608
21056W        W86283   0.822  40.480   1.255
21057W        W86284  11.358  21.114   3.985
21058W        W86285   6.872  37.244   1.462
21059W        W86286   0.031  22.069  13.024
21060W        W86287   7.371  42.354  11.563
21061W        W86288  23.666  34.399   2.731
21062W        W86289  19.069  19.674  14.978
21063W        W86290  10.097  44.439  12.093
21064W        W86291  25.466  28.122   2.198
21065W        W86292  29.899   1.965  10.665
21066W        W86293  26.340   4.358   0.450
21067W        W86294  33.912   4.743   1.513
21068W        W86295  39.290  40.917  12.189
21069W        W86296   2.542  28.457   0.271
21070W        W86297  21.429  12.845   0.097
21071W        W86298  35.127  39.931   4.236
21072W        W86299  41.798  28.465  13.543
21073W        W86300  10.455  26.447  12.996
21074W        W86301  33.827  12.379   2.416
21075W        W86302  20.141  28.975   2.796
21076W        W86303   0.453  42.959   0.238
21077W        W86304  11.157  41.159   4.348
21078W        W86305   7.163  18.316   3.518
21079W        W86306  11.810  36.786  11.974
21080W        W86307  19.666   3.548  10.942
21081W        W86308  18.064   4.234  11.496
21082W        W86309  23.586  19.699   4.561
21083W        W86310   0.810   8.319   4.308
21084W        W86311  31.632  28.798   0.692
21085W        W86312  12.170  16.066  14.952
21086W        W86313  17.034   3.322   4.167
21087W        W86314  32.793  34.787   3.767
21088W        W86315  10.111  23.747  13.883
21089W        W86316  24.380  43.223  11.462
21090W        W86317  11.228  33.409  12.902
21091W        W86318   8.249   0.803  13.036
21092W        W86319  20.100  26.959   1.841
21093W        W86320  28.460  26.391  13.432
21094W        W86321  14.102  14.224  14.836
21095W        W86322  14.402   4.872  11.558
21096W        W86323  24.467  24.561  10.515
21097W        W86324  19.491  14.810   4.126
21098W        W86325   6.214  35.885  14.290
21099W        W86326  17.361  24.615  11.208
21100W        W86327  14.225  41.749  11.813
21101W        W86328  12.664  31.889   2.891
21102W        W86329  19.396   1.407   0.489
21103W        W86330  25.058  20.517  11.985
21104W        W86331  25.729   4.969   2.759
21105W        W86332   5.004   1.364  12.411
21106W        W86333  44.903  33.659  10.226
21107W        W86334  43.327  28.489   1.428
21108W        W86335   0.220  16.048  10.139
21109W        W86336  38.541  42.017  14.304
21110W        W86337  30.875  35.395   3.183
21111W        W86338   2.922  34.795  12.014
21112W        W86339  17.567  13.295   4.473
21113W        W86340   7.500   5.904   2.347
21114W        W86341  35.068   5.237  14.082
21115W        W86342   1.735  18.952   2.275
21116W        W86343   0.374  19.252   2.128
21117W        W86344   4.741   7.319  13.117
21118W        W86345  31.902   4.412  12.957
21119W        W86346  14.044  11.134   4.091
21120W        W86347   8.752  44.823  14.412
21121W        W86348   2.721   5.509  13.354
21122W        W86349   3.392  14.520   1.084
21123W        W86350   1.962   7.700  12.947
21124W        W86351  23.019  10.146   0.229
21125W        W86352  32.884  42.187  14.118
21126W        W86353  36.584  18.357   2.564
21127W        W86354  19.163   1.406   4.369
21128W        W86355  44.870  42.106   3.475
21129W        W86356   5.479  30.978   4.582
21130W        W86357   0.372  13.772   0.875
21131W        W86358  39.755   8.854  10.262
21132W        W86359  33.999  43.809  12.415
21133W        W86360  34.779   4.620   3.160
21134W        W86361  10.314   8.698   1.764
21135W        W86362  44.409  24.964   0.287
21136W        W86363  11.686  37.594   4.671
21137W        W86364  10.294   7.117  10.314
21138W        W86365  44.968  34.303   0.379
21139W        W86366  36.886   9.326   3.236
21140W        W86367  17.718   1.481   1.380
21141W        W86368  30.577  42.335   1.143
21142W        W86369  18.610   8.299   3.742
21143W        W86370  19.170  19.449   2.556
21144W        W86371  31.830   6.285  10.749
21145W        W86372  40.487   8.885   0.266
21146W        W86373  29.176  28.702  14.345
21147W        W86374  18.810  22.334  12.912
21148W        W86375  19.194  23.911  12.495
21149W        W86376  23.575   3.902  13.033
21150W        W86377  29.510  20.021  14.321
21151W        W86378   8.583  23.505   4.122
21152W        W86379  10.693   9.879  10.738
21153W        W86380  31.672  40.618  11.946
21154W        W86381  34.078   6.482   2.887
21155W        W86382  13.689  22.197   0.881
21156W        W86383  27.095  30.496   1.222
21157W        W86384  27.212  37.574   2.177
21158W        W86385   9.900  21.812   1.260
21159W        W86386  24.652  44.443   0.071
21160W        W86387  35.263   2.177  11.076
21161W        W86388  25.875   9.331  14.496
21162W        W86389   2.957  19.560   1.639
21163W        W86390  14.551  15.369   2.009
21164W        W86391  12.922  11.553   2.216
21165W        W86392  10.224  44.137  13.811
21166W        W86393  33.403   5.991  13.979
21167W        W86394   1.975  12.284   0.321
21168W        W86395  18.042  21.774   3.922
21169W        W86396  42.793  23.022   3.565
21170W        W86397  27.914  36.581  12.399
21171W        W86398  25.208  26.735   3.703
21172W        W86399  37.687  31.019   2.938
21173W        W86400  43.342  26.113   2.661
21174W        W86401  13.810   7.199   4.239
21175W        W86402   2.759  13.137   3.615
21176W        W86403  35.667   8.623  12.445
21177W        W86404  24.067  22.025  14.444
21178W        W86405  38.207   5.192   3.446
21179W        W86406  29.447   7.183  11.673
21180W        W86407  17.588   0.538   1.072
21181W        W86408  18.245  19.663  10.725
21182W        W86409   7.921  31.038  13.514
21183W        W86410  44.388  38.999   1.784
21184W        W86411  33.059  27.647   0.448
21185W        W86412  13.669  36.465   1.028
21186W        W86413  22.470  41.717  10.584
21187W        W86414  16.651  41.669   3.711
21188W        W86415  17.381  43.027   4.047
21189W        W86416  32.139  31.832   0.898
21190W        W86417   8.864   2.679  13.187
21191W        W86418   7.362  25.252   2.903
21192W        W86419  25.117  21.147   1.921
21193W        W86420  28.016  36.346   2.657
21194W        W86421  39.955  12.166   2.148
21195W        W86422  33.048  36.629   2.592
21196W        W86423  23.121  26.180   0.368
21197W        W86424  22.472  19.157  12.123
21198W        W86425   0.017  37.554  10.734
21199W        W86426  19.070  43.453   3.579
21200W        W86427  16.269  30.830  13.989
21201W        W86428   9.587  33.694  12.937
21202W        W86429  39.740   6.859  12.580
21203W        W86430   0.845  38.018  13.076
21204W        W86431  26.219  26.736   0.894
21205W        W86432  43.023  11.569  14.917
21206W        W86433  16.105  20.035  11.596
21207W        W86434   1.649   6.702   1.803
21208W        W86435  31.835  21.505  12.333
21209W        W86436  17.303   2.064   2.196
21210W        W86437  24.230   4.204  12.088
21211W        W86438  34.425   3.028   4.631
21212W        W86439  29.930  40.077   2.146
21213W        W86440  35.414  29.533   2.817
21214W        W86441  32.517   8.267   0.795
21215W        W86442  30.991   7.174  14.582
21216W        W86443  19.568  31.478  10.785
21217W        W86444  34.974  39.197  13.137
21218W        W86445   8.063  42.373   4.667
21219W        W86446  40.514  25.375  11.198
21220W        W86447  44.015  11.360  13.691
21221W        W86448  40.792  20.759  10.611
21222W        W86449  18.766  41.367   3.155
21223W        W86450  25.606  21.426   2.677
21224W        W86451  44.740  33.040  12.452
21225W        W86452  39.469  19.264   1.363
21226W        W86453  29.593  23.237  10.311
21227W        W86454  20.615   1.057   4.032
21228W        W86455   0.246   1.989  10.839
21229W        W86456  12.731  40.973  12.721
21230W        W86457  27.803   3.517   9.846
21231W        W86458  24.517  24.519   2.698
21232W        W86459  17.660   4.818  14.474
21233W        W86460  14.432  10.173  12.805
21234W        W86461  17.574   4.065   0.781
21235W        W86462  19.239  30.584   4.092
21236W        W86463  24.265  34.588  12.941
21237W        W86464  32.060  16.002  14.665
21238W        W86465  44.848  27.148  11.720
21239W        W86466  17.507  10.426  11.558
21240W        W86467  33.985   9.805  13.615
21241W        W86468  16.535  10.653   0.655
21242W        W86469  42.498  16.136  10.823
21243W        W86470   7.808  37.742  10.810
21244W        W86471  21.673  34.197  14.033
21245W        W86472  24.990  28.234   2.030
21246W        W86473  17.580   3.265   1.853
21247W        W86474   6.166  10.670  13.951
21248W        W86475  12.797  15.321   3.929
21249W        W86476  19.012  30.142   2.348
21250W        W86477  34.365  32.993   2.698
21251W        W86478  41.410  31.609   0.921
21252W        W86479  28.595  13.506  10.227
21253W        W86480  26.915  12.627   3.293
21254W        W86481  35.674  40.568   0.305
21255W        W86482   7.224  23.692   4.137
21256W        W86483  32.639   1.582  13.894
21257W        W86484  42.965  17.870   1.304
21258W        W86485  21.830  32.764   0.838
21259W        W86486  35.119  29.367   0.937
21260W        W86487  37.830  18.081  13.521
21261W        W86488  40.592  17.739   1.028
21262W        W86489  40.904  42.798  14.275
21263W        W86490  35.846   6.381  14.108
21264W        W86491  41.846  21.986  12.620
21265W        W86492  21.493  20.720  12.090
21266W        W86493   4.812   8.774  11.695
21267W        W86494  40.015  16.652  13.601
21268W        W86495  28.418  30.371   3.591
21269W        W86496  29.904  24.445   2.890
21270W        W86497  44.413  15.033   3.931
21271W        W86498   8.011   6.385  14.463
21272W        W86499  24.665  11.686  11.621
21273W        W86500   6.843   8.431   4.541
21274W        W86501  20.833  36.977   2.200
21275W        W86502   7.817  23.572  13.362
21276W        W86503  21.532  17.426  11.953
21277W        W86504  17.530  12.268  11.528
21278W        W86505  31.567  21.796   2.582
21279W        W86506  33.546  41.583  14.449
21280W        W86507  22.158  28.207   3.660
21281W        W86508  23.389   0.967   1.698
21282W        W86509  21.931  22.074   1.951
21283W        W86510   8.421  16.577   1.219
21284W        W86511  43.375  34.967   1.718
21285W        W86512  22.505   4.468  13.415
21286W        W86513  38.085   3.315   0.839
21287W        W86514  38.223  22.707  13.260
21288W        W86515  37.036   1.991  11.215
21289W        W86516  27.520  28.773   9.743
21290W        W86517  28.118  40.536  14.780
21291W        W86518  19.517  36.821  14.934
21292W        W86519  31.399  32.384   1.652
21293W        W86520  40.942  15.554   1.238
21294W        W86521  23.820  44.145   1.462
21295W        W86522  43.733  18.034   0.910
21296W        W86523   0.394  10.745  14.533
21297W        W86524  28.083  36.628  10.702
21298W        W86525  39.145  25.617  13.976
21299W        W86526  18.587  11.628   1.398
21300W        W86527  35.322  18.284   1.952
21301W        W86528  37.363  18.280  10.994
21302W        W86529  19.810  24.836  11.159
21303W        W86530  44.774  12.664   0.477
21304W        W86531  32.824  11.253   0.007
21305W        W86532   6.481  27.970  11.570
21306W        W86533  25.520  32.304   4.355
21307W        W86534   5.427  15.629  11.150
21308W        W86535  17.523  34.903   3.230
21309W        W86536  39.902   3.357  11.495
21310W        W86537  21.871  17.297   2.363
21311W        W86538  13.684  18.588   2.435
21312W        W86539  21.285  25.528   0.870
21313W        W86540  43.839   2.954   4.642
21314W        W86541   5.444   1.817  13.494
21315W        W86542  41.422  25.000  13.472
21316W        W86543   6.816  33.338   0.826
21317W        W86544   5.271   9.320  12.384
21318W        W86545  31.394  38.512   2.438
21319W        W86546   3.426  44.006   2.728
21320W        W86547  24.811  10.207  10.162
21321W        W86548  28.447  16.193   4.648
21322W        W86549  44.248  36.320  14.246
21323W        W86550  43.589  21.738  14.548
21324W        W86551  26.675   3.518  10.707
21325W        W86552  42.920  11.798  12.881
21326W        W86553   8.945  16.371  12.184
21327W        W86554  19.567  17.232   3.182
21328W        W86555  26.452  17.058  11.203
21329W        W86556   9.189  19.137   3.611
21330W        W86557  35.398  14.723  12.810
21331W        W86558  23.076   9.170   0.005
21332W        W86559   1.677  41.457   3.528
21333W        W86560   2.834   3.245  12.357
21334W        W86561  10.975  31.164  12.814
21335W        W86562  21.027   9.638  11.999
21336W        W86563  26.859  38.843  13.494
21337W        W86564   4.197  31.222   0.750
21338W        W86565  27.276  19.324  12.036
21339W        W86566   1.906   7.795  13.729
21340W        W86567   8.840   5.929   1.697
21341W        W86568  32.608  19.789  14.331
21342W        W86569   1.719  12.268   0.772
21343W        W86570  32.955  16.320  12.397
21344W        W86571  10.116  13.704  10.998
21345W        W86572  22.428  32.104  10.546
21346W        W86573  11.463  17.958   4.573
21347W        W86574  14.473  28.588   4.023
21348W        W86575  15.266  33.907   1.210
21349W        W86576   5.674  12.372  13.519
21350W        W86577  31.576  42.431  13.429
21351W        W86578  14.971  36.282   0.928
21352W        W86579   3.001  43.903   0.164
21353W        W86580   7.498  35.436   1.161
21354W        W86581  21.787  25.073   2.417
21355W        W86582  36.886   4.500   1.411
21356W        W86583  30.421  28.860   0.814
21357W        W86584  37.567  28.027  13.348
21358W        W86585   2.107  14.541   1.008
21359W        W86586  42.885  28.693   4.650
21360W        W86587  18.759  11.141  13.414
21361W        W86588  14.298  44.470  13.520
21362W        W86589  30.706   1.001  14.965
21363W        W86590  38.984  35.307   2.156
21364W        W86591  34.685  11.296  13.443
21365W        W86592   5.659   3.985   4.523
21366W        W86593  16.252  41.225  11.117
21367W        W86594   0.545   1.195  12.638
21368W        W86595  19.792  33.366   2.377
21369W        W86596  23.670  32.373  13.126
21370W        W86597  18.301  30.336  12.293
21371W        W86598  40.754  20.864  12.320
21372W        W86599  27.071  24.911   4.850
21373W        W86600  21.267  19.776   0.477
21374W        W86601   8.991   0.281   2.001
21375W        W86602  11.307  22.011  11.606
21376W        W86603  13.279  17.639  13.446
21377W        W86604  42.318  25.271  11.582
21378W        W86605  36.060  35.999  14.827
21379W        W86606  24.804   5.297  11.866
21380W        W86607  28.988  16.945  10.094
21381W        W86608  41.372  28.822  10.787
21382W        W86609  23.733  38.656   0.492
21383W        W86610  23.462  20.026   3.335
21384W        W86611  35.478  30.048   0.179
21385W        W86612  26.016  33.941  14.258
21386W        W86613  34.530  30.169  13.910
21387W        W86614  32.526  44.728   4.199
21388W        W86615  43.071  44.922  13.738
21389W        W86616  41.852  40.017  13.410
21390W        W86617  44.673  39.865   3.802
21391W        W86618  12.947   2.639   3.537
21392W        W86619  39.444  13.163   2.966
21393W        W86620  33.349  21.978   0.348
21394W        W86621  30.474  43.753  12.530
21395W        W86622  27.943  27.673  14.482
21396W        W86623  38.268  36.913  14.747
21397W        W86624  36.896   6.397   3.751
21398W        W86625  22.793  33.583  13.447
21399W        W86626  17.307  17.860   3.298
21400W        W86627  28.473  28.944   4.132
21401W        W86628  11.678  22.639   1.227
21402W        W86629  43.647  29.502   2.132
21403W        W86630  37.865  13.126   1.899
21404W        W86631  17.349  17.591   1.396
21405W        W86632  23.902  20.276   2.794
21406W        W86633  14.518  40.309  12.015
21407W        W86634  42.395  13.927   0.457
21408W        W86635   1.487  39.971  11.474
21409W        W86636   1.454  19.565   3.849
21410W        W86637   1.812  32.861  11.161
21411W        W86638  12.845   5.369  14.960
21412W        W86639  12.067  40.432   0.776
21413W        W86640  10.197   9.284  13.465
21414W        W86641  42.507  32.700  14.850
21415W        W86642   6.002  14.645  14.918
21416W        W86643  22.592   9.714  12.955
21417W        W86644  12.455  16.235   3.537
21418W        W86645  24.034  18.243  10.725
21419W        W86646  24.751  21.764   1.391
21420W        W86647  41.446  21.209   0.685
21421W        W86648  41.095  32.659  10.602
21422W        W86649  37.366  18.203   2.915
21423W        W86650   8.419  43.796   2.937
21424W        W86651   9.869  15.824  12.238
21425W        W86652   1.368  13.260   3.606
21426W        W86653  33.424  22.408   3.757
21427W        W86654  19.213  33.959  13.696
21428W        W86655  36.178  44.724  11.274
21429W        W86656  34.944  22.436  11.997
21430W        W86657  15.362   0.294   2.674
21431W        W86658  21.481  34.357  13.005
21432W        W86659  38.392  34.007  14.930
21433W        W86660  36.403  39.489  10.624
21434W        W86661   1.884  19.710   3.524
21435W        W86662  32.897  21.235  11.606
21436W        W86663  23.949   3.297  11.414
21437W        W86664  29.739   7.520   2.873
21438W        W86665  40.086  25.077   3.583
21439W        W86666  12.216  11.624   4.189
21440W        W86667  20.507  31.997  12.722
21441W        W86668  43.477  21.068  10.846
21442W        W86669  43.467  43.350  14.750
21443W        W86670  15.659   8.595  11.248
21444W        W86671   0.254  35.909  13.420
21445W        W86672   4.869   8.288   0.847
21446W        W86673  24.571  13.600   3.859
21447W        W86674  24.523  41.042  14.086
21448W        W86675  18.456   3.940   3.235
21449W        W86676  17.313  28.900  12.537
21450W        W86677  41.578   1.382  10.703
21451W        W86678   7.358  23.255  13.617
21452W        W86679  38.912  39.391  12.271
21453W        W86680  33.220  25.616  14.213
21454W        W86681   5.226   3.437   3.863
21455W        W86682   2.253  23.941  10.309
21456W        W86683  34.928  21.042  11.206
21457W        W86684   0.318   9.858   1.840
21458W        W86685  38.930   5.216  12.448
21459W        W86686  37.929  36.685   2.229
21460W        W86687  19.128  10.191  12.979
21461W        W86688  40.440  37.778  13.533
21462W        W86689  34.028  34.772  14.057
21463W        W86690  30.097  39.317   0.799
21464W        W86691  31.402  38.840  11.650
21465W        W86692  29.883   5.766  10.997
21466W        W86693  38.409   7.665   1.158
21467W        W86694   2.367   8.263  11.911
21468W        W86695  34.034  15.361  12.494
21469W        W86696  26.414  28.060   1.318
21470W        W86697  25.437  12.067   0.215
21471W        W86698   2.297   8.055   3.398
21472W        W86699  35.557  40.433  13.525
21473W        W86700  30.721  21.082  14.895
21474W        W86701   6.550  33.621  10.724
21475W        W86702  33.537  23.923  12.324
21476W        W86703   2.879   4.999  11.001
21477W        W86704  13.823  12.253  14.115
21478W        W86705  26.449   0.573   1.660
21479W        W86706  41.942  12.374  12.513
21480W        W86707  21.107  31.086  14.395
21481W        W86708  27.141   0.993   4.862
21482W        W86709  38.621  10.212  12.535
21483W        W86710  37.135  32.186   2.665
21484W        W86711  10.619  29.612   1.675
21485W        W86712   4.285  22.863  11.409
21486W        W86713  11.275   2.882   4.188
21487W        W86714   1.365  17.347   0.396
21488W        W86715   9.874  40.383  11.020
21489W        W86716  32.118  15.595  13.867
21490W        W86717   5.862  36.590   3.729
21491W        W86718  12.375  39.667   1.160
21492W        W86719   1.288   7.951  11.170
21493W        W86720   6.097  17.805  10.430
21494W        W86721  19.849   0.214  13.019
21495W        W86722   9.932  16.049   3.480
21496W        W86723  38.285  24.226   1.192
21497W        W86724  26.072  19.449  11.626
21498W        W86725  21.632  23.679   4.361
21499W        W86726   0.348  31.220  12.672
21500W        W86727  33.312  19.581  10.207
21501W        W86728  42.615   9.179  13.097
21502W        W86729   6.818   6.520  11.219
21503W        W86730   3.276  10.164   4.971
21504W        W86731  31.850  38.074   1.791
21505W        W86732  31.680  36.603   4.347
21506W        W86733   1.239   7.409  12.408
21507W        W86734   3.685  13.313  14.845
21508W        W86735  31.496  18.255   4.268
21509W        W86736  43.967  31.899  14.893
21510W        W86737   6.273  26.593  10.574
21511W        W86738  29.914   6.944  11.583
21512W        W86739   3.659   1.345   0.853
21513W        W86740  42.252   7.013  11.136
21514W        W86741   6.094  44.718  10.894
21515W        W86742   1.521  24.894   2.451
21516W        W86743  40.933  43.164  13.918
21517W        W86744   1.201  30.472   2.182
21518W        W86745  33.346   6.837  13.485
21519W        W86746   4.057  16.380   4.039
21520W        W86747  44.926   8.582  13.548
21521W        W86748  23.844  17.347  12.102
21522W        W86749  13.211  41.215   3.725
21523W        W86750  16.783  12.515  10.929
21524W        W86751  40.227   1.814   1.734
21525W        W86752   6.657  18.872   3.093
21526W        W86753  23.065  31.839   3.301
21527W        W86754   6.149  41.829   4.524
21528W        W86755  44.899  41.501   2.903
21529W        W86756  40.787  23.926   4.563
21530W        W86757  28.166  30.557   4.918
21531W        W86758  39.335  23.677  11.195
21532W        W86759  24.300  31.730  11.536
21533W        W86760   7.901  21.664  11.014
21534W        W86761   3.841  29.685  14.983
21535W        W86762  31.144  19.645   1.771
21536W        W86763   4.254   3.231   2.307
21537W        W86764  32.900   8.447   2.220
21538W        W86765  16.136   6.728  10.760
21539W        W86766  25.676  13.357  14.993
21540W        W86767  25.552  12.428   3.187
21541W        W86768  14.237   2.208   4.796
21542W        W86769  34.178  11.695  11.667
21543W        W86770   8.329  17.606   4.783
21544W        W86771  17.380  14.027  11.658
21545W        W86772   5.077  24.405  13.415
21546W        W86773  43.722  28.101  13.106
21547W        W86774   5.035  24.932  13.396
21548W        W86775  41.503  26.357   4.620
21549W        W86776  22.201   7.893   0.848
21550W        W86777  15.373   2.821  14.333
21551W        W86778  25.173  43.528  13.530
21552W        W86779  20.765   2.761   0.363
21553W        W86780  20.538  17.798  12.457
21554W        W86781   8.156   6.525  11.056
21555W        W86782  18.630  37.433   4.550
21556W        W86783  28.491   8.119   4.778
21557W        W86784  34.635  14.586   0.496
21558W        W86785  40.990  40.896   2.286
21559W        W86786  27.902  18.423  10.223
21560W        W86787  20.003   9.820   3.191
21561W        W86788  22.963  13.735  14.898
21562W        W86789   9.489  14.227   2.381
21563W        W86790  44.103  41.853  12.043
21564W        W86791  21.639  15.505   2.763
21565W        W86792  26.709  31.201   3.305
21566W        W86793  37.484  31.572   4.548
21567W        W86794   6.914  30.177  14.514
21568W        W86795  26.670  13.372  12.132
21569W        W86796  24.954  36.725   4.818
21570W        W86797   3.602   1.775   2.799
21571W        W86798  21.692  38.668   3.347
21572W        W86799  11.871  38.078  10.646
21573W        W86800  16.545  33.093  10.679
21574W        W86801   1.873  25.917  11.724
21575W        W86802  37.915  17.286  12.933
21576W        W86803  35.285  33.759   4.203
21577W        W86804  27.262   8.327  11.549
21578W        W86805  24.603  15.460  14.949
21579W        W86806  17.797  16.070   4.582
21580W        W86807  40.738  17.220  11.655
21581W        W86808  32.691  25.807  10.578
21582W        W86809  43.875  43.058   0.875
21583W        W86810   1.334  29.517   5.007
21584W        W86811  22.781  33.939  14.914
21585W        W86812  36.970  41.319  12.346
21586W        W86813  27.716  27.203  14.497
21587W        W86814   7.513  43.624   2.261
21588W        W86815   8.248  33.359  13.975
21589W        W86816  29.006  10.315  13.464
21590W        W86817  22.811  29.421   0.926
21591W        W86818  19.733  18.585   0.341
21592W        W86819  14.470  20.996   4.584
21593W        W86820  41.936  21.094   1.938
21594W        W86821  42.396  24.080  10.680
21595W        W86822   0.105  41.800  13.541
21596W        W86823  28.984  34.801  11.628
21597W        W86824   0.829   4.665   2.781
21598W        W86825  38.497  23.263   1.218
21599W        W86826  42.568   9.845  14.344
21600W        W86827   1.340  41.774  14.055
21601W        W86828  17.979  13.444  12.336
21602W        W86829  36.516  19.671   4.087
21603W        W86830  15.077  34.815   4.023
21604W        W86831  24.919  25.461   4.274
21605W        W86832  26.522  12.634  11.621
21606W        W86833   2.881  10.571   4.261
21607W        W86834   3.966  22.543   0.756
21608W        W86835  17.548   9.126   2.407
21609W        W86836  33.638   0.565   2.252
21610W        W86837  34.442  32.681   2.271
21611W        W86838  11.875  34.408   4.347
21612W        W86839  33.807  42.934   1.690
21613W        W86840  31.481  12.446   3.888
21614W        W86841  18.071  37.134   4.487
21615W        W86842  20.381  31.139   3.855
21616W        W86843  40.856  21.849  11.291
21617W        W86844  40.711   9.355  14.052
21618W        W86845  13.561  38.138   2.333
21619W        W86846   5.144   6.151   1.615
21620W        W86847  36.950  24.169   3.720
21621W        W86848  33.955   7.354   1.965
21622W        W86849  34.347  13.726  12.019
21623W        W86850  13.145   3.493  13.896
21624W        W86851  38.078  44.923   3.383
21625W        W86852   9.222  13.279  13.894
21626W        W86853  12.167   8.912  12.340
21627W        W86854  36.506  14.250  14.611
21628W        W86855  40.956   9.700   4.559
21629W        W86856  14.091  15.586   0.898
21630W        W86857  40.345  27.479  11.119
21631W        W86858  30.537  32.452  10.757
21632W        W86859  42.453  37.490   3.294
21633W        W86860  27.695  30.963  14.484
21634W        W86861  17.995  37.935   0.291
21635W        W86862   2.522  23.917   2.271
21636W        W86863  12.215  32.055   5.200
21637W        W86864  21.156   4.934  11.556
21638W        W86865  22.482  19.717  13.884
21639W        W86866  12.674  37.807   1.231
21640W        W86867  33.460  28.762   3.805
21641W        W86868  21.186   9.350  12.418
21642W        W86869  15.040   4.854   2.183
21643W        W86870  24.417  29.127   3.983
21644W        W86871  14.911  21.265   2.321
21645W        W86872   1.739   6.663   2.758
21646W        W86873  30.415  39.850   1.014
21647W        W86874  42.216  19.018   0.322
21648W        W86875  35.654  22.697  10.662
21649W        W86876   3.643  34.285   4.010
21650W        W86877  29.371   8.166   3.128
21651W        W86878  32.775  35.615   3.171
21652W        W86879   5.473  12.684  10.559
21653W        W86880   7.780  18.345   3.773
21654W        W86881  41.498   6.029  12.930
21655W        W86882   1.955  35.139   3.916
21656W        W86883  34.380  22.646  13.176
21657W        W86884   9.816   0.542  13.894
21658W        W86885  38.507  25.253   1.416
21659W        W86886   7.739   6.809  11.440
21660W        W86887  40.231  35.049   0.396
21661W        W86888  34.546  19.738  10.902
21662W        W86889  13.214  19.849  12.704
21663W        W86890  19.295  41.517  12.876
21664W        W86891  40.045  33.047  12.191
21665W        W86892  35.706  42.548  12.593
21666W        W86893  12.746  37.127  14.327
21667W        W86894  17.509  39.589   3.716
21668W        W86895  11.408  23.478  13.445
21669W        W86896  18.446   7.165  10.736
21670W        W86897  20.247  29.712  14.014
21671W        W86898  13.730   5.061  12.951
21672W        W86899  14.262  28.072   1.727
21673W        W86900  14.684   5.635   2.234
21674W        W86901  20.198  41.936   1.011
21675W        W86902  41.960  12.905  13.226
21676W        W86903   1.970  36.657   3.763
21677W        W86904   3.919  39.334  13.718
21678W        W86905  42.204  26.168  12.574
21679W        W86906  32.691  17.747   4.577
21680W        W86907   2.442   0.105  13.885
21681W        W86908  20.802   3.471  13.938
21682W        W86909  30.965   4.401  10.968
21683W        W86910  23.601  11.406  10.787
21684W        W86911  26.095  42.704   3.872
21685W        W86912   0.062  23.117   3.197
21686W        W86913  34.526  17.124  11.208
21687W        W86914   2.809  35.637  13.013
21688W        W86915  12.085  33.919   5.177
21689W        W86916   3.431  23.383   4.749
21690W        W86917  41.870  13.365   0.889
21691W        W86918   6.572  19.013  12.068
21692W        W86919   1.025  37.503   3.272
21693W        W86920  20.336  16.835  10.714
21694W        W86921  30.401   3.935   2.649
21695W        W86922  26.107  39.071   4.933
21696W        W86923   7.716  17.936   2.836
21697W        W86924  30.713  30.583  12.955
21698W        W86925  31.316  42.323  13.903
21699W        W86926  28.901  31.736   0.101
21700W        W86927   1.177  23.148   4.967
21701W        W86928  41.340   5.084   1.767
21702W        W86929   1.326   9.710  10.643
21703W        W86930  27.818  32.912  13.836
21704W        W86931  43.554  11.104   3.717
21705W        W86932  24.201   8.038   4.108
21706W        W86933  18.705   6.601  10.804
21707W        W86934  32.006  44.104   0.875
21708W        W86935  12.523  30.166   0.304
21709W        W86936   9.673  32.066  13.136
21710W        W86937  38.712  27.499  13.898
21711W        W86938  11.732  15.671   4.423
21712W        W86939  33.853  30.924   1.925
21713W        W86940  35.078  14.406  10.666
21714W        W86941   6.956  19.717   3.817
21715W        W86942  38.850  20.260   3.718
21716W        W86943   4.405  44.431   4.009
21717W        W86944  41.727  22.567  14.441
21718W        W86945  19.858  39.994  12.492
21719W        W86946  37.871  28.591   4.159
21720W        W86947  36.574  43.716  12.073
21721W        W86948  31.795   9.828  12.947
21722W        W86949  43.283  29.938   0.070
21723W        W86950   6.153  25.428   4.633
21724W        W86951  13.651   9.017  13.395
21725W        W86952  37.044  17.258   3.910
21726W        W86953  30.086  15.229   1.842
21727W        W86954  20.284  40.159   1.708
21728W        W86955  37.108   8.879  10.623
21729W        W86956  43.830  24.805  13.011
21730W        W86957  19.575  13.389   1.311
21731W        W86958  22.636  28.183   2.180
21732W        W86959  40.597  41.422   3.673
21733W        W86960  14.307  17.697   2.895
21734W        W86961   4.617  30.500  10.240
21735W        W86962  18.225  25.559  14.504
21736W        W86963  28.564  15.700  14.949
21737W        W86964  28.383   2.978  10.646
21738W        W86965  12.202  14.776   4.550
21739W        W86966   0.315   7.253  12.811
21740W        W86967  14.852  27.054  14.947
21741W        W86968  37.403  38.049  12.003
21742W        W86969  33.368  12.129  12.159
21743W        W86970  24.538   7.636   1.006
21744W        W86971  21.213  33.199   1.126
21745W        W86972   3.602  25.131   4.012
21746W        W86973  30.508   7.963   1.710
21747W        W86974  17.067  15.549   4.621
21748W        W86975   3.052  30.596   1.709
21749W        W86976  15.611  24.137   4.692
21750W        W86977  24.239   9.283   3.346
21751W        W86978   4.750  12.849  11.703
21752W        W86979   4.725   4.866   4.103
21753W        W86980  18.635   3.319  14.388
21754W        W86981  23.909  29.311   9.843
21755W        W86982  44.034  43.406   3.301
21756W        W86983  10.775  11.158   1.746
21757W        W86984   9.161   7.341  13.562
21758W        W86985  14.882  22.808   0.430
21759W        W86986  32.637  11.812   0.943
21760W        W86987  30.478  44.033   2.259
21761W        W86988  11.704   7.859   4.880
21762W        W86989  17.055   4.190  11.650
21763W        W86990  17.572  41.039  11.671
21764W        W86991  19.421   1.807   1.699
21765W        W86992   6.730  14.188   1.290
21766W        W86993  22.233  40.001   2.267
21767W        W86994   4.332   8.816  10.701
21768W        W86995  37.935  32.137  11.379
21769W        W86996  11.749   0.421   4.640
21770W        W86997  42.991  19.483   2.990
21771W        W86998  24.635  21.439  13.165
21772W        W86999  25.326  36.912   2.783
21773W        W87000  23.804  16.225  10.623
21774W        W87001  43.477   5.692   0.848
21775W        W87002   5.898   3.518   3.176
21776W        W87003  36.286  39.042  10.310
21777W        W87004   5.649  14.871   9.986
21778W        W87005  31.257  24.283  10.133
21779W        W87006   9.944  14.688  10.794
21780W        W87007  38.184  10.690   4.971
21781W        W87008  14.054  24.095   2.692
21782W        W87009   5.935   2.666  11.142
21783W        W87010   7.377  34.471   4.617
21784W        W87011  21.185  12.237  10.844
21785W        W87012  33.994   9.851   3.259
21786W        W87013  13.138  36.645  14.931
21787W        W87014  19.130  20.073  11.056
21788W        W87015  19.122  10.329   3.290
21789W        W87016  21.028   4.441   2.678
21790W        W87017  41.760   9.677  11.909
21791W        W87018  26.571  26.528  11.657
21792W        W87019  35.992  13.232   1.181
21793W        W87020  23.492  43.415   0.884
21794W        W87021  37.046  41.660   1.012
21795W        W87022  33.896   1.819  12.854
21796W        W87023  10.400   7.117   1.450
21797W        W87024  20.551  28.396   1.728
21798W        W87025   7.227   3.944  14.016
21799W        W87026  32.584   3.057  11.562
21800W        W87027  18.124  35.263   0.943
21801W        W87028  40.669  28.996   0.417
21802W        W87029  21.549  30.723   0.054
21803W        W87030  39.976  19.571  10.759
21804W        W87031  10.119  19.664   1.322
21805W        W87032  19.534   6.281  12.012
21806W        W87033  15.749  44.697  10.578
21807W        W87034  40.397  34.047   3.499
21808W        W87035   9.459   3.754  10.591
21809W        W87036   1.918  18.236   1.704
21810W        W87037  17.035  32.639   4.670
21811W        W87038  44.916  25.366  13.149
21812W        W87039   2.966   1.785  14.369
21813W        W87040  18.917  38.561  11.555
21814W        W87041  31.299  31.986  10.212
21815W        W87042  25.229   8.700  11.155
21816W        W87043  43.413  38.859  11.117
21817W        W87044  12.941  26.003   2.440
21818W        W87045  28.701  44.537   4.200
21819W        W87046  38.003  31.628   3.691
21820W        W87047  34.245  35.474  10.807
21821W        W87048  27.195  14.204   2.553
21822W        W87049  21.535  33.442  10.055
21823W        W87050  13.654   8.784   0.178
21824W        W87051  16.743  34.763   4.165
21825W        W87052  13.789  24.254  13.371
21826W        W87053  17.156   0.831  12.531
21827W        W87054  15.174  21.703   2.202
21828W        W87055  42.322  12.112  11.078
21829W        W87056  21.832   3.168  10.880
21830W        W87057  17.353  29.803   2.071
21831W        W87058   2.751  25.552   1.869
21832W        W87059  13.744   2.063   4.663
21833W        W87060  26.559  22.459   5.004
21834W        W87061  28.167  23.195   2.580
21835W        W87062  31.059  24.870  10.762
21836W        W87063  33.627   5.292   2.219
21837W        W87064  32.639  24.469  11.910
21838W        W87065  34.593   1.730   0.376
21839W        W87066  41.779  35.511  13.354
21840W        W87067  27.671  33.511   2.805
21841W        W87068  35.430  12.135  12.026
21842W        W87069  25.398  40.722   5.056
21843W        W87070  22.937  25.071  13.335
21844W        W87071  30.639  25.030  10.145
21845W        W87072  23.742  40.019   3.017
21846W        W87073  22.724  10.770   3.329
21847W        W87074  12.962  43.783   0.058
21848W        W87075   9.929  12.602   4.277
21849W        W87076  29.680   6.813   1.302
21850W        W87077  18.773  12.727   4.422
21851W        W87078  40.198   3.236   1.706
21852W        W87079  12.754  15.598   1.397
21853W        W87080  39.769  42.299  14.178
21854W        W87081  38.420  31.566   0.524
21855W        W87082  27.254  42.079  12.134
21856W        W87083  43.699  21.416   3.180
21857W        W87084   0.409  23.310  11.000
21858W        W87085   9.260   9.756  13.677
21859W        W87086  30.461  34.320  10.718
21860W        W87087   0.032  35.935   4.178
21861W        W87088  33.485  29.722  14.318
21862W        W87089   1.490   7.480  13.680
21863W        W87090  34.593  40.247  13.903
21864W        W87091  41.280  16.100   0.619
21865W        W87092   9.042  20.950   1.736
21866W        W87093  28.437  39.414   4.891
21867W        W87094   5.788  14.125  11.620
21868W        W87095  34.770   0.409  10.259
21869W        W87096  44.093  36.346   2.760
21870W        W87097  21.697   4.447  13.055
21871W        W87098  35.496  22.463  14.850
21872W        W87099  22.707  39.137   4.804
21873W        W87100  23.940  35.522  12.463
21874W        W87101  37.944   0.285  10.665
21875W        W87102  42.848   5.941  12.448
21876W        W87103   4.503  15.249   1.279
21877W        W87104   7.625  24.025  14.179
21878W        W87105  19.294   5.412   1.352
21879W        W87106  36.761   7.886   2.620
21880W        W87107   8.958  19.142  11.082
21881W        W87108  19.019  17.849  11.144
21882W        W87109  14.216  31.445   1.315
21883W        W87110   0.342   9.697   0.348
21884W        W87111  11.611  19.624  11.648
21885W        W87112   7.321   6.596   1.720
21886W        W87113  31.670  42.073   4.176
21887W        W87114   6.614   4.745  13.325
21888W        W87115   8.288   6.889  10.710
21889W        W87116  10.582  21.672  13.076
21890W        W87117  13.335   4.893   1.062
21891W        W87118   7.838  34.932   2.261
21892W        W87119   6.968   3.972   2.183
21893W        W87120  22.693  24.599  13.325
21894W        W87121   6.725   7.628   1.442
21895W        W87122  26.257  34.898   1.996
21896W        W87123  13.178  18.608  13.623
21897W        W87124  37.898   1.957  14.922
21898W        W87125  31.249  43.353   0.979
21899W        W87126   1.119   5.461   0.304
21900W        W87127   6.316   9.668   2.200
21901W        W87128  41.738  11.938  12.646
21902W        W87129  43.842   1.716  14.427
21903W        W87130  34.357  17.207   0.848
21904W        W87131  20.643  24.837  12.673
21905W        W87132  24.557  40.393  13.083
21906W        W87133  32.606  41.970   1.363
21907W        W87134  43.489  35.064   3.466
21908W        W87135  36.006  44.597   2.463
21909W        W87136  30.520  12.939   1.850
21910W        W87137   8.390   2.444  12.073
21911W        W87138   0.972  11.266  11.053
21912W        W87139  33.546  31.958   2.899
21913W        W87140  43.896  29.785   1.218
21914W        W87141   5.976  23.225   0.385
21915W        W87142  15.248  15.587  12.058
21916W        W87143  23.801  42.052  13.449
21917W        W87144  17.574  43.708   3.222
21918W        W87145  32.865   8.649  13.205
21919W        W87146   1.490  41.879   4.060
21920W        W87147   3.283  41.382  12.170
21921W        W87148   9.298  31.041  12.629
21922W        W87149  41.745   4.301   0.700
21923W        W87150   8.410  35.129   0.875
21924W        W87151  23.213  33.981  14.020
21925W        W87152  34.974  15.738   4.434
21926W        W87153  43.638  44.067  10.499
21927W        W87154  37.049  10.627   0.403
21928W        W87155  31.764  29.623   2.059
21929W        W87156  19.339   2.965  14.847
21930W        W87157  34.473  28.419   3.664
21931W        W87158  30.028  32.577   0.375
21932W        W87159  33.766  11.810  14.419
21933W        W87160  17.353  36.556   4.813
21934W        W87161   4.719  22.013  13.459
21935W        W87162  26.915   1.849   4.592
21936W        W87163   9.097   2.346   4.224
21937W        W87164  29.177  13.060  11.001
21938W        W87165  12.041  43.077  11.466
21939W        W87166  20.260  38.671   4.525
21940W        W87167  42.761  40.457  12.360
21941W        W87168  40.910   8.155   1.870
21942W        W87169   9.605  25.754   2.566
21943W        W87170  33.533  31.716   3.387
21944W        W87171  23.028  27.416   2.254
21945W        W87172  18.805  40.528  12.976
21946W        W87173  26.970  32.305  11.709
21947W        W87174  32.602   4.956   4.927
21948W        W87175  21.778  40.569  11.425
21949W        W87176   5.892   2.096  13.150
21950W        W87177  41.338   8.904   2.217
21951W        W87178   5.219  40.088  11.676
21952W        W87179  39.882  20.380   4.705
21953W        W87180  33.075  22.007  12.892
21954W        W87181  38.535  37.207  13.859
21955W        W87182  37.839   8.953  14.020
21956W        W87183  43.664  34.114   2.394
21957W        W87184  30.662  19.377   2.984
21958W        W87185   6.236   7.433   1.417
21959W        W87186   1.347   6.598  11.570
21960W        W87187  38.990   0.860   0.293
21961W        W87188  38.285  38.927   1.953
21962W        W87189  30.586  44.261   1.249
21963W        W87190  18.936  41.768   3.739
21964W        W87191  12.855  21.491  12.048
21965W        W87192  24.092  11.622   1.520
21966W        W87193  20.491  39.305   0.828
21967W        W87194  29.988  29.562   0.796
21968W        W87195   9.814  30.865  12.636
21969W        W87196  37.256   8.029  10.398
21970W        W87197  24.659   9.093   0.688
21971W        W87198   1.351  38.004  10.748
21972W        W87199  40.017  21.385   4.507
21973W        W87200  12.575  35.054  12.169
21974W        W87201  13.665  30.400  11.162
21975W        W87202  30.833   7.238   3.725
21976W        W87203  41.747   8.034   2.381
21977W        W87204  38.386   6.881  13.341
21978W        W87205  36.747  19.126   2.251
21979W        W87206  15.650  33.553   3.697
21980W        W87207  40.485  43.782  10.621
21981W        W87208  37.864  28.454   1.886
21982W        W87209   6.308  25.005  13.059
21983W        W87210  44.849  20.348  12.449
21984W        W87211  38.416  20.093  11.968
21985W        W87212   7.365   8.018   0.026
21986W        W87213   1.186  18.761   0.336
21987W        W87214   6.654  11.610   2.299
21988W        W87215  20.684  11.147  11.510
21989W        W87216  40.266  20.322  13.381
21990W        W87217  43.101  25.607  11.573
21991W        W87218  43.664  22.151   2.978
21992W        W87219   2.454  32.947  11.742
21993W        W87220  21.521   5.389  13.357
21994W        W87221  26.184  29.944   3.238
21995W        W87222  18.784  20.180   3.938
21996W        W87223  13.671  25.771   3.195
21997W        W87224   5.368   1.295   2.422
21998W        W87225  14.335  33.580   2.296
21999W        W87226  11.440  27.089   0.256
22000W        W87227  42.075   7.142  13.514
22001W        W87228  32.137  44.852  11.348
22002W        W87229  23.740   9.650  13.006
22003W        W87230   0.873  34.472  13.133
22004W        W87231  15.017   7.966  12.256
22005W        W87232   2.315  26.606  12.894
22006W        W87233  30.392  29.474   1.675
22007W        W87234  27.683  14.111   3.777
22008W        W87235  22.572  40.829   2.820
22009W        W87236  11.880   8.232   1.012
22010W        W87237  12.351  44.446   1.518
22011W        W87238  28.033  32.880   4.949
22012W        W87239  12.961  37.406  10.771
22013W        W87240  37.766   1.998   1.199
22014W        W87241  22.121  41.301  12.885
22015W        W87242  30.083  10.698   0.326
22016W        W87243  30.182  37.285   0.204
22017W        W87244   3.184  10.174   4.130
22018W        W87245  30.979  22.117   0.497
22019W        W87246   0.298  33.000  12.462
22020W        W87247  38.380  42.052  12.025
22021W        W87248   0.169  27.709   2.949
22022W        W87249  39.472  21.003  14.508
22023W        W87250  17.333   9.715  12.543
22024W        W87251  43.055  40.101   0.074
22025W        W87252   0.031  41.299  13.397
22026W        W87253   5.571  42.589  12.438
22027W        W87254  38.792  18.862  10.748
22028W        W87255   7.858   8.884  10.362
22029W        W87256  19.044  22.957  11.104
22030W        W87257  36.636  23.392   1.283
22031W        W87258  21.151  12.172   2.850
22032W        W87259  12.232  38.781  12.203
22033W        W87260  25.032  29.380  11.122
22034W        W87261  18.543  12.862   3.305
22035W        W87262   3.137  39.339  12.029
22036W        W87263   8.741  37.769   2.778
22037W        W87264  31.695   6.725   3.340
22038W        W87265  32.553  12.134   0.200
22039W        W87266  20.032  38.938   2.670
22040W        W87267  40.291   2.057  12.394
22041W        W87268  27.500   7.029   2.188
22042W        W87269   1.719  17.736   1.685
22043W        W87270   3.549  38.573  12.618
22044W        W87271  43.989   7.438   0.990
22045W        W87272  23.657  35.210  14.344
22046W        W87273  20.097  37.415   5.030
22047W        W87274  11.402  22.169  14.567
22048W        W87275   9.110  44.081  10.604
22049W        W87276   0.538  36.237  12.052
22050W        W87277  34.145   1.937  12.395
22051W        W87278  23.223  21.800   2.322
22052W        W87279  29.249  27.253  14.740
22053W        W87280  15.568  38.791   2.768
22054W        W87281  12.589  10.655   0.714
22055W        W87282  14.047  31.993  10.273
22056W        W87283   6.956  37.075   2.264
22057W        W87284  36.018  40.311   2.265
22058W        W87285  16.651  34.811  13.098
22059W        W87286  31.104  19.508   2.722
22060W        W87287   9.772  35.700   0.928
22061W        W87288  15.646  40.118   3.072
22062W        W87289  36.763  30.694  12.542
22063W        W87290  34.408  38.253  14.902
22064W        W87291  26.928  36.043   4.179
22065W        W87292  34.578  37.314   4.674
22066W        W87293  18.861   3.478  10.519
22067W        W87294  26.256   3.896  13.765
22068W        W87295   3.200   1.752  12.520
22069W        W87296  16.789  33.979  13.147
22070W        W87297  19.025  30.062  12.816
22071W        W87298   0.247  43.429   0.394
22072W        W87299  18.739  13.521  12.029
22073W        W87300  17.037  35.657   0.527
22074W        W87301   1.511  10.669   3.084
22075W        W87302  34.716  17.125  14.999
22076W        W87303   2.384  14.554   0.446
22077W        W87304  40.120   4.256   4.080
22078W        W87305  31.941  12.212  14.723
22079W        W87306   2.787  20.030   0.765
22080W        W87307  38.303  27.190  13.936
22081W        W87308  22.021  18.463  14.911
22082W        W87309  41.346  36.570   0.281
22083W        W87310  18.311  17.276  11.597
22084W        W87311  41.841  19.164   2.478
22085W        W87312  37.602  15.410  13.457
22086W        W87313  25.794  14.506  14.346
22087W        W87314   0.338  25.473  14.361
22088W        W87315  38.055  21.358  14.075
22089W        W87316  17.292  18.143  13.053
22090W        W87317  36.535  24.554  13.094
22091W        W87318   9.151  34.833   3.151
22092W        W87319  20.767   5.428  11.921
22093W        W87320  41.487  36.744  13.764
22094W        W87321  19.054   2.981  13.096
22095W        W87322  43.588  20.011  13.084
22096W        W87323  11.516  22.339  11.097
22097W        W87324  36.807  19.182  14.923
22098W        W87325  27.115  31.929   2.889
22099W        W87326  30.181  17.915  11.123
22100W        W87327  39.810  10.456  10.853
22101W        W87328  33.884  39.883   1.067
22102W        W87329  43.570  34.150  12.986
22103W        W87330  29.407  26.444  13.394
22104W        W87331  29.891   3.900   2.713
22105W        W87332  14.724  28.070  12.508
22106W        W87333  14.339  15.628   2.942
22107W        W87334  38.389  43.945   2.175
22108W        W87335  42.730  13.748   4.095
22109W        W87336  17.529  27.192  11.544
22110W        W87337  35.117  20.822   4.096
22111W        W87338  14.814  14.679  13.223
22112W        W87339  26.639  27.174   0.324
22113W        W87340  30.619  30.686   3.236
22114W        W87341   3.638  27.658  12.007
22115W        W87342  36.412   8.775  13.169
22116W        W87343  14.430  17.525   1.939
22117W        W87344  27.520  19.863   4.635
22118W        W87345  25.741   4.131   3.191
22119W        W87346  24.237  35.875   3.710
22120W        W87347  18.262  23.399   2.138
22121W        W87348   6.209   8.040  12.853
22122W        W87349   0.256   5.153  11.571
22123W        W87350  28.921  44.685   4.635
22124W        W87351  13.156  15.044   3.158
22125W        W87352  15.916  28.981   1.466
22126W        W87353  14.979   5.905  10.336
22127W        W87354  25.002  22.718   1.460
22128W        W87355  12.842  32.104   0.764
22129W        W87356   6.140   3.818  13.047
22130W        W87357  13.412  40.443  10.641
22131W        W87358   1.671   4.171   3.635
22132W        W87359   0.370  15.081  14.498
22133W        W87360  10.054  31.671  11.476
22134W        W87361   9.918  20.857   0.722
22135W        W87362   2.770  23.468  11.670
22136W        W87363  43.243  36.144   3.103
22137W        W87364   2.310  31.180   3.581
22138W        W87365   9.391  25.216  14.758
22139W        W87366  13.738  14.242   0.737
22140W        W87367  44.953   6.458   4.111
22141W        W87368  22.157  11.452  13.514
22142W        W87369   9.340  39.097  12.512
22143W        W87370  29.580  28.694   2.733
22144W        W87371  24.152   1.308  13.440
22145W        W87372  22.838  16.270   0.438
22146W        W87373  30.893  38.609   2.279
22147W        W87374  33.217   8.416  13.519
22148W        W87375   4.354  23.596   1.344
22149W        W87376  15.746  32.603  11.569
22150W        W87377  20.060  41.315   2.596
22151W        W87378  42.861  16.037   3.097
22152W        W87379   3.391  31.483  13.805
22153W        W87380   2.834  12.228   4.134
22154W        W87381   5.857   8.943  12.905
22155W        W87382  17.441  36.791   3.219
22156W        W87383  18.473   6.030  12.627
22157W        W87384  18.361  10.371  13.421
22158W        W87385  13.044  16.812   0.537
22159W        W87386  38.961   3.411   3.519
22160W        W87387   8.398  31.480   4.867
22161W        W87388  44.250   3.854   4.658
22162W        W87389   4.620   8.311   4.356
22163W        W87390  25.689  41.159   2.736
22164W        W87391  25.652   7.660   3.564
22165W        W87392  23.110  22.946  12.440
22166W        W87393   8.265   0.952   2.646
22167W        W87394  36.260  28.505   4.220
22168W        W87395  25.214   1.861   5.571
22169W        W87396  22.669  39.820  11.641
22170W        W87397  34.870  36.427   2.355
22171W        W87398  20.640  41.859  10.844
22172W        W87399  24.545  29.204   4.486
22173W        W87400   9.808  12.903  10.436
22174W        W87401  27.597   6.357  10.772
22175W        W87402  12.659  22.331  14.050
22176W        W87403  29.677   7.261  13.582
22177W        W87404  28.064   0.362  10.573
22178W        W87405   0.802  36.032   0.821
22179W        W87406  28.622  37.392   2.165
22180W        W87407  29.106  12.156   3.875
22181W        W87408  34.083  40.077  13.010
22182W        W87409  35.787  43.338   4.930
22183W        W87410  30.358  26.102   0.886
22184W        W87411   7.202  37.941   0.328
22185W        W87412  15.688  12.294  14.413
22186W        W87413   8.888   6.361   0.928
22187W        W87414  15.605  39.660  12.636
22188W        W87415  16.610  18.951  13.484
22189W        W87416  14.300  30.367  14.279
22190W        W87417  26.525  17.500  11.473
22191W        W87418  44.215  36.323   3.963
22192W        W87419  16.336  37.998  14.410
22193W        W87420  20.791  13.158  11.518
22194W        W87421  19.611  25.146   1.181
22195W        W87422  42.760  37.796  14.802
22196W        W87423  27.382  32.007  12.526
22197W        W87424  14.851  22.513  14.982
22198W        W87425  26.729  24.019   2.669
22199W        W87426  33.028  13.793  13.931
22200W        W87427  20.943  30.603   3.586
22201W        W87428   3.774  27.023   2.223
22202W        W87429  38.196  30.297   3.291
22203W        W87430  13.405   1.409   1.365
22204W        W87431  20.079  33.499  12.606
22205W        W87432  31.583  26.915  13.463
22206W        W87433  39.481  23.992  12.597
22207W        W87434  33.327  11.100  12.925
22208W        W87435   4.830  17.001   5.035
22209W        W87436  18.017  21.585   2.680
22210W        W87437  10.470  16.229   0.954
22211W        W87438  11.654  39.675   2.572
22212W        W87439   5.504  36.516   0.135
22213W        W87440   0.733   0.410   3.228
22214W        W87441  18.197  21.118   0.439
22215W        W87442  44.989  40.117  13.994
22216W        W87443   9.353  19.792   4.955
22217W        W87444  16.655  22.546  11.006
22218W        W87445  27.468  33.918  12.987
22219W        W87446  22.072  22.963   1.625
22220W        W87447  27.223  43.362  12.564
22221W        W87448  23.107  43.470  13.403
22222W        W87449  39.887  25.030   1.384
22223W        W87450  31.843   7.378  12.960
22224W        W87451  30.458   2.877   3.659
22225W        W87452   7.262  22.902  14.018
22226W        W87453  10.011  10.289   4.256
22227W        W87454  24.097   4.579   4.418
22228W        W87455  17.506  35.639  11.548
22229W        W87456   5.628   8.614  14.241
22230W        W87457   9.222  44.175   3.411
22231W        W87458  25.565   2.772  14.420
22232W        W87459  28.003  19.012   2.281
22233W        W87460  22.257  10.815   4.079
22234W        W87461   1.904   3.401   4.328
22235W        W87462  22.078   6.436  13.972
22236W        W87463  18.627  34.568   2.227
22237W        W87464  24.252  22.356   3.181
22238W        W87465  16.622  11.336   0.474
22239W        W87466   5.986  12.952   1.134
22240W        W87467  26.000  14.296   2.402
22241W        W87468  38.003   2.222   4.894
22242W        W87469  37.607  11.308  11.099
22243W        W87470  18.745   5.795   3.125
22244W        W87471   6.382   4.753   2.491
22245W        W87472  14.105  21.128  10.432
22246W        W87473  44.485  40.421  11.168
22247W        W87474  34.948  23.563   1.638
22248W        W87475  12.490  29.468   1.445
22249W        W87476  39.002  10.701  11.163
22250W        W87477  33.528  38.833  11.773
22251W        W87478  28.933  35.929   1.396
22252W        W87479  25.594   2.049   5.261
22253W        W87480  31.586  34.486   4.758
22254W        W87481  13.848   8.335  10.681
22255W        W87482  13.830  36.634  12.837
22256W        W87483  25.571   4.096  12.031
22257W        W87484  32.969  26.536   2.516
22258W        W87485  21.312  41.557  13.786
22259W        W87486  43.692  20.738   3.954
22260W        W87487  14.368  13.005  11.061
22261W        W87488  26.477  40.792  12.146
22262W        W87489  32.930  42.586   0.899
22263W        W87490  24.695   5.095  10.472
22264W        W87491  22.096   3.252  12.411
22265W        W87492  14.402  22.161   4.189
22266W        W87493   9.207  26.190  13.477
22267W        W87494  39.465  29.732   3.852
22268W        W87495  31.415   2.665   3.394
22269W        W87496  14.594  28.432  10.304
22270W        W87497  16.930   4.047  13.719
22271W        W87498  18.094  21.294  14.962
22272W        W87499  22.589  16.676   1.356
22273W        W87500   5.147  14.206  12.459
22274W        W87501   3.107  19.269   4.201
22275W        W87502  14.104  16.673  12.952
22276W        W87503   8.082  16.783   4.890
22277W        W87504   0.497   9.787  14.460
22278W        W87505  17.745  36.392   4.518
22279W        W87506  19.264   5.822   3.266
22280W        W87507  39.642  15.780   2.706
22281W        W87508   7.791  38.005  11.245
22282W        W87509  12.772  35.303  13.431
22283W        W87510   6.739   4.002  10.804
22284W        W87511  17.025  19.272  13.546
22285W        W87512  18.196  33.528   0.137
22286W        W87513  23.673   9.971   1.445
22287W        W87514  38.428  28.385  11.694
22288W        W87515  28.795  26.438   1.331
22289W        W87516   1.896  27.903   2.681
22290W        W87517  37.806  29.165  12.960
22291W        W87518  35.507  33.486   0.427
22292W        W87519  29.460   3.241  13.580
22293W        W87520  38.490  35.520  13.862
22294W        W87521  22.627  30.448   4.586
22295W        W87522   2.889  18.559  14.377
22296W        W87523  23.088  22.147  14.055
22297W        W87524  15.291  20.650  13.991
22298W        W87525  17.009  32.646   1.912
22299W        W87526  27.122  37.537   3.676
22300W        W87527  31.593  34.894  13.544
22301W        W87528  32.902  23.941   2.278
22302W        W87529  30.873  25.705  12.007
22303W        W87530  34.356  11.480   4.009
22304W        W87531  35.128  35.461  11.126
22305W        W87532  18.646  11.800   0.886
22306W        W87533   5.410  36.105  12.074
22307W        W87534  17.051  23.076  13.908
22308W        W87535  19.530  36.296  14.862
22309W        W87536  39.246   1.998   1.670
22310W        W87537  22.794  21.612   1.978
22311W        W87538   3.243  39.093   4.773
22312W        W87539   8.171  14.360  13.484
22313W        W87540  36.086  35.337  14.046
22314W        W87541  30.031  39.028   4.302
22315W        W87542  17.661  26.955   4.106
22316W        W87543  16.076  13.478   3.720
22317W        W87544  42.412  42.850   4.603
22318W        W87545  40.607  30.895  10.950
22319W        W87546  38.445  41.508   4.718
22320W        W87547  32.615  20.055  12.520
22321W        W87548  24.772   0.295   0.357
22322W        W87549   7.868   2.152   4.878
22323W        W87550   8.908  36.784  11.474
22324W        W87551   0.713  37.452  12.414
22325W        W87552  25.873  22.189  11.122
22326W        W87553  42.780   6.895   2.804
22327W        W87554  17.670  24.923  12.975
22328W        W87555  13.220  34.755   4.990
22329W        W87556  13.205  29.634  12.865
22330W        W87557  26.136  16.499  14.359
22331W        W87558  32.119  16.190  12.279
22332W        W87559   4.140  11.710  11.327
22333W        W87560  19.107  41.446   4.126
22334W        W87561  12.885  39.108  14.460
22335W        W87562  36.564  13.820  14.359
22336W        W87563  17.215  15.041  11.357
22337W        W87564  40.287  29.026   0.784
22338W        W87565  27.614  16.597   0.317
22339W        W87566  39.476  17.512   4.713
22340W        W87567  37.396  44.769   2.817
22341W        W87568   8.474  19.228  14.030
22342W        W87569  21.263  44.962   1.277
22343W        W87570   8.679  41.557   0.442
22344W        W87571  36.929  11.885  13.843
22345W        W87572  28.173  34.869   3.711
22346W        W87573  17.175   8.929   3.684
22347W        W87574   9.505   3.791  14.089
22348W        W87575  31.143  29.032   1.380
22349W        W87576  10.337  37.434  11.082
22350W        W87577  33.944  11.803   3.201
22351W        W87578  44.382  43.738  13.042
22352W        W87579  18.799   8.002  12.538
22353W        W87580  36.012  35.548   3.376
22354W        W87581   2.425  21.981  14.268
22355W        W87582  19.675  24.071   0.279
22356W        W87583  30.980  23.216   1.617
22357W        W87584  38.606   1.418  13.340
22358W        W87585  16.774  44.972   2.323
22359W        W87586  21.075   0.396   3.662
22360W        W87587  22.040  33.451   3.386
22361W        W87588  12.717  12.195  12.095
22362W        W87589   7.115  20.460   1.192
22363W        W87590  11.584  38.542   0.361
22364W        W87591  10.309   5.726   4.087
22365W        W87592  12.314  37.032   0.133
22366W        W87593  19.687   1.996  10.692
22367W        W87594  30.327  29.473  12.585
22368W        W87595  32.937   0.752   1.340
22369W        W87596  29.542  31.743  11.083
22370W        W87597   0.846   2.424   4.355
22371W        W87598  40.685  32.916   4.792
22372W        W87599  27.118  27.172  10.244
22373W        W87600  22.090  28.217   0.232
22374W        W87601  10.508  29.178   0.555
22375W        W87602   2.281  24.228   1.826
22376W        W87603  33.402  23.882   0.549
22377W        W87604  30.554  40.540  13.908
22378W        W87605  12.506   0.353  13.575
22379W        W87606  14.541   4.251  13.163
22380W        W87607  21.460  12.409  13.076
22381W        W87608  35.333  27.966   2.078
22382W        W87609  40.402  19.066  13.896
22383W        W87610  25.876  13.688  12.643
22384W        W87611  25.037  23.122   0.743
22385W        W87612  19.013   9.233  10.742
22386W        W87613  17.659   9.115   4.867
22387W        W87614   7.793   5.886   3.883
22388W        W87615  12.842  28.818   0.762
22389W        W87616   0.877   8.154  12.123
22390W        W87617   3.088  31.560   1.699
22391W        W87618   9.808  28.009   4.386
22392W        W87619  13.523   2.156   4.200
22393W        W87620  31.889   5.173   3.782
22394W        W87621   5.603  22.731  12.530
22395W        W87622   1.644  10.164  11.924
22396W        W87623  21.041  25.671  12.395
22397W        W87624  27.260   2.735  10.969
22398W        W87625  29.818  30.712  10.181
22399W        W87626   9.279  30.674   4.570
22400W        W87627  18.610  16.685  11.019
22401W        W87628  26.499  43.671  12.044
22402W        W87629  25.066   7.898   3.665
22403W        W87630  38.009  22.386  13.827
22404W        W87631  38.412  15.583   4.933
22405W        W87632  12.932  29.207  10.818
22406W        W87633   3.946   2.026  14.482
22407W        W87634   0.423  23.481  12.255
22408W        W87635  11.365  29.080   1.433
22409W        W87636  42.326  10.295  14.223
22410W        W87637   2.361  38.278  13.996
22411W        W87638  20.724  39.870  14.387
22412W        W87639   4.508  11.194   3.856
22413W        W87640  12.399  41.465   4.692
22414W        W87641  37.312  21.024  14.049
22415W        W87642  17.015  15.439  12.152
22416W        W87643   9.042  27.409   4.204
22417W        W87644  36.093  37.919  12.650
22418W        W87645  20.061  38.459   3.363
22419W        W87646  40.402   8.139   0.773
22420W        W87647  24.975  41.536   0.574
22421W        W87648  36.896  26.087   3.520
22422W        W87649  23.655  17.609  10.949
22423W        W87650   7.417   9.233  10.603
22424W        W87651  25.540  17.993   4.116
22425W        W87652   2.660   5.442   3.331
22426W        W87653  36.077  11.370  13.664
22427W        W87654  10.877  18.977  14.960
22428W        W87655   0.459  25.013  12.539
22429W        W87656   8.547  12.361  13.142
22430W        W87657   6.877  31.690   2.323
22431W        W87658  20.030  25.492   4.654
22432W        W87659   5.644  12.304   4.171
22433W        W87660  19.149  29.045   4.915
22434W        W87661   0.840  18.658   2.566
22435W        W87662   4.930   2.765   0.856
22436W        W87663  32.601  21.022   4.104
22437W        W87664   6.520  24.011  10.194
22438W        W87665  30.272  31.377   2.009
22439W        W87666  28.499   1.204   1.338
22440W        W87667   4.192  20.599  11.494
22441W        W87668  14.829  15.685   2.769
22442W        W87669  12.552   4.532   0.331
22443W        W87670  22.546  34.774   3.668
22444W        W87671  28.622   9.929  11.491
22445W        W87672  25.522   2.416  11.272
22446W        W87673  28.424  33.019   0.433
22447W        W87674   7.790  13.421   5.044
22448W        W87675  26.229  24.383  11.934
22449W        W87676  28.526  23.592   3.528
22450W        W87677  42.922  15.216   0.972
22451W        W87678  38.390   9.734   4.526
22452W        W87679  16.547  28.587  13.172
22453W        W87680  31.026  38.281  10.967
22454W        W87681   0.969  12.647   2.392
22455W        W87682  11.326  28.972  13.445
22456W        W87683  28.522   8.110  11.917
22457W        W87684  11.163  43.374   2.768
22458W        W87685  17.354  29.974   0.316
22459W        W87686  21.237  41.228  12.879
22460W        W87687  37.906  43.916   3.649
22461W        W87688  33.608  21.152  11.307
22462W        W87689   6.507  34.441   2.210
22463W        W87690   8.941   6.699  14.284
22464W        W87691  22.136  26.436   0.796
22465W        W87692  25.458   5.454  10.639
22466W        W87693  21.712  11.643   1.220
22467W        W87694  30.041   0.015  14.449
22468W        W87695  34.193  15.179   4.671
22469W        W87696  26.046  27.968  11.176
22470W        W87697   5.201  25.694   2.914
22471W        W87698  28.997  17.641  14.287
22472W        W87699  28.140  20.705   2.367
22473W        W87700  43.156   3.181  14.856
22474W        W87701  38.532   0.978   0.773
22475W        W87702  17.593  38.086  11.983
22476W        W87703  31.685  16.431   3.709
22477W        W87704  40.893  42.981   3.791
22478W        W87705  21.483  21.001   0.473
22479W        W87706  20.155  40.550  10.820
22480W        W87707  25.548  30.084  12.549
22481W        W87708  19.485  23.123  14.803
22482W        W87709  17.205   4.500  14.458
22483W        W87710  19.205   2.251  11.574
22484W        W87711  17.565  35.799   3.421
22485W        W87712  19.200   7.647   4.243
22486W        W87713  26.476  13.718   0.875
22487W        W87714  36.489  42.216   2.770
22488W        W87715  36.612  18.117  14.345
22489W        W87716  43.201  26.905   4.907
22490W        W87717  26.804  37.809  14.513
22491W        W87718  44.030  26.152   1.898
22492W        W87719  36.521   9.559  10.557
22493W        W87720  27.061  13.619  11.917
22494W        W87721  41.089  23.426   0.284
22495W        W87722   3.876  35.784   3.100
22496W        W87723  24.711  19.947  13.526
22497W        W87724   9.244  27.673  12.677
22498W        W87725  29.438  34.942   0.603
22499W        W87726   0.676   6.663   2.721
22500W        W87727  25.034  36.941   3.523
22501W        W87728  25.151  37.102   4.540
22502W        W87729   9.492  37.971   0.773
22503W        W87730  39.653  15.900   1.772
22504W        W87731   7.673  11.853  12.881
22505W        W87732  19.177   0.220  12.504
22506W        W87733  12.870   1.669   2.718
22507W        W87734   2.181   7.813  11.272
22508W        W87735   3.269  16.679  13.283
22509W        W87736  11.231   9.906   1.351
22510W        W87737   2.419  30.405   0.885
22511W        W87738  38.696  19.227   4.462
22512W        W87739  23.960  13.853  13.345
22513W        W87740  34.638  14.088  13.122
22514W        W87741  42.902  31.138   0.794
22515W        W87742  25.479   0.969  12.988
22516W        W87743  24.301  13.906   2.303
22517W        W87744   3.135  41.131  13.411
22518W        W87745  34.786  24.728  14.370
22519W        W87746  31.115   4.614   1.952
22520W        W87747  30.059  38.525   4.189
22521W        W87748   5.703  19.776   0.760
22522W        W87749  15.722  12.090   3.946
22523W        W87750  29.489   8.550  12.802
22524W        W87751  24.253  20.836  10.673
22525W        W87752   7.158   8.267   0.455
22526W        W87753  25.265  19.280  14.297
22527W        W87754  31.604  19.601   4.582
22528W        W87755   7.758  33.661   2.200
22529W        W87756  22.460   8.826   2.888
22530W        W87757  30.499   5.433   2.871
22531W        W87758  38.022   5.134  12.431
22532W        W87759   4.651  37.590   0.315
22533W        W87760  33.474  27.573  14.209
22534W        W87761  17.082  22.042   3.514
22535W        W87762  21.555   7.161  10.548
22536W        W87763  13.646  30.029   2.875
22537W        W87764  10.730  35.588  14.340
22538W        W87765  22.714   1.499   1.276
22539W        W87766  19.281  42.927  11.128
22540W        W87767  10.144   6.406   0.486
22541W        W87768  35.596  21.533  14.893
22542W        W87769   0.152   1.517  11.913
22543W        W87770   7.178  10.888   0.267
22544W        W87771  21.785  21.133  12.157
22545W        W87772  36.426   9.087  14.043
22546W        W87773   1.489  36.829   2.935
22547W        W87774  25.211   5.359  13.145
22548W        W87775  12.292  30.502  12.845
22549W        W87776  32.930  31.544   3.862
22550W        W87777  32.857  44.753  12.548
22551W        W87778  10.717  11.863  12.659
22552W        W87779  20.356   8.385   1.201
22553W        W87780  18.909   7.723  13.759
22554W        W87781  23.477  12.288  13.033
22555W        W87782  37.342  13.177  10.569
22556W        W87783  44.692   7.787   3.644
22557W        W87784  40.164  22.209   2.573
22558W        W87785   8.752  20.035  12.047
22559W        W87786  43.326  31.378   4.242
22560W        W87787  15.650   9.420  14.527
22561W        W87788   1.014  23.715  10.615
22562W        W87789   7.709  21.760   3.108
22563W        W87790   0.408   9.584   2.287
22564W        W87791  21.309  25.094   2.606
22565W        W87792  32.175   6.191  13.381
22566W        W87793   4.537   4.091  12.916
22567W        W87794  28.393  28.118  12.058
22568W        W87795  14.159  32.160  14.918
22569W        W87796  31.315  10.952  12.556
22570W        W87797  27.597  24.031   2.928
22571W        W87798  31.623  20.059  13.597
22572W        W87799  40.571  25.460   2.791
22573W        W87800   8.167  10.879   0.594
22574W        W87801  22.628   1.897  11.950
22575W        W87802  29.441  37.984  14.790
22576W        W87803  10.678  27.733   1.802
22577W        W87804  39.202  34.289   4.715
22578W        W87805   1.061  38.606  11.805
22579W        W87806  20.148  32.080  13.072
22580W        W87807  25.135  37.753  12.525
22581W        W87808   9.717  23.833  13.529
22582W        W87809  44.700  31.524  13.277
22583W        W87810  18.673  15.665   2.431
22584W        W87811  18.668  25.598   4.455
22585W        W87812  17.774   3.279   0.496
22586W        W87813  34.404   4.477  11.245
22587W        W87814  14.568   3.457  10.693
22588W        W87815   6.821  23.990  12.484
22589W        W87816  41.489   8.637   0.331
22590W        W87817  33.268  25.178  11.083
22591W        W87818  34.937  26.177  10.192
22592W        W87819  39.523  19.818   0.050
22593W        W87820  19.810  32.067  13.487
22594W        W87821   6.857  17.361  13.869
22595W        W87822  16.722   2.208   2.700
22596W        W87823  10.072  32.871  12.598
22597W        W87824  42.897  44.996  11.081
22598W        W87825   5.949  21.013   3.197
22599W        W87826  34.614   2.232   0.926
22600W        W87827  13.043   3.357   2.956
22601W        W87828   6.529   5.202   0.458
22602W        W87829  20.347  14.928   2.486
22603W        W87830   8.179  37.964  13.555
22604W        W87831  30.089  24.173  14.353
22605W        W87832  34.055   8.849   0.196
22606W        W87833   6.380  27.057  13.529
22607W        W87834  10.798   0.637  10.124
22608W        W87835  14.460  33.658   5.241
22609W        W87836  42.946   5.557   0.906
22610W        W87837  43.161  38.952  12.911
22611W        W87838  14.715  10.817  11.598
22612W        W87839  28.409  17.224   4.819
22613W        W87840  27.710  15.899   2.719
22614W        W87841  19.162  18.759   0.462
22615W        W87842  19.694  44.928  10.608
22616W        W87843   5.641   0.247  11.546
22617W        W87844   7.307  11.240   4.117
22618W        W87845  12.258  12.148   0.882
22619W        W87846  42.592  35.914   1.546
22620W        W87847  37.948   6.702  13.614
22621W        W87848  36.071  44.368   1.572
22622W        W87849   2.557  34.339   5.087
22623W        W87850  26.184  36.464  11.237
22624W        W87851  29.963   3.834  14.999
22625W        W87852  23.994  33.534   1.207
22626W        W87853   3.200  27.739   0.738
22627W        W87854   4.725  27.599  10.716
22628W        W87855  23.123  23.792   3.103
22629W        W87856  35.892  31.971  12.035
22630W        W87857  15.831  37.893  12.569
22631W        W87858   5.170  28.094   3.344
22632W        W87859  12.738  20.767  11.032
22633W        W87860  11.619  37.524   0.312
22634W        W87861  12.427  34.140  10.740
22635W        W87862  44.766  26.103   0.815
22636W        W87863   6.700  18.761  13.958
22637W        W87864  18.874  38.023   1.767
22638W        W87865  19.738  14.423  12.657
22639W        W87866   8.637  16.813   0.350
22640W        W87867  42.074  25.493   4.774
22641W        W87868  21.773  20.591   0.680
22642W        W87869  33.453   3.378   2.823
22643W        W87870   1.713  14.412   4.054
22644W        W87871  25.255  27.486  11.165
22645W        W87872   4.897  14.693  11.576
22646W        W87873  22.207  12.404  13.464
22647W        W87874  37.916  42.529   1.929
22648W        W87875  39.823   8.317  14.019
22649W        W87876  22.647  12.570  10.391
22650W        W87877  39.336  34.026  12.650
22651W        W87878   6.234  18.106  13.022
22652W        W87879   6.218  23.649  10.444
22653W        W87880  40.724  28.066  11.682
22654W        W87881  33.181  35.928  13.589
22655W        W87882  39.382  10.284   2.104
22656W        W87883   0.358  24.607   2.810
22657W        W87884  33.402  25.666  13.729
22658W        W87885  23.368  37.954   2.745
22659W        W87886  20.258  19.568   3.863
22660W        W87887   5.922  23.303  11.990
22661W        W87888  38.052  10.291   3.063
22662W        W87889  44.432  35.290  14.355
22663W        W87890  37.487  25.579  11.537
22664W        W87891   9.789  33.972  11.983
22665W        W87892   9.964  31.167   0.580
22666W        W87893   5.747  20.730   0.798
22667W        W87894   3.028  31.115  13.874
22668W        W87895   7.772   9.404   0.807
22669W        W87896  12.675  39.733  14.005
22670W        W87897  36.475  12.377  14.365
22671W        W87898  16.851  25.947  11.687
22672W        W87899  16.099   7.899   0.359
22673W        W87900  16.999  41.614  13.681
22674W        W87901  18.214   6.890   0.795
22675W        W87902   4.324  31.942   0.318
22676W        W87903   0.649   2.836   4.639
22677W        W87904  20.044   5.492  14.381
22678W        W87905  24.534   5.585  10.537
22679W        W87906  41.656   8.132   0.404
22680W        W87907  23.469   4.812   3.178
22681W        W87908  31.527  11.681   3.269
22682W        W87909  14.151  25.471  11.364
22683W        W87910  30.147  11.922   4.692
22684W        W87911  14.859  21.604  11.041
22685W        W87912   5.808  26.634  11.634
22686W        W87913  44.986  32.635  11.274
22687W        W87914  22.231  29.700   3.537
22688W        W87915  25.037  40.027  14.803
22689W        W87916  31.701  39.106   3.210
22690W        W87917  22.500  34.137   2.766
22691W        W87918  42.012   6.710  14.399
22692W        W87919  36.129  32.580   0.404
22693W        W87920  17.261  29.459   2.440
22694W        W87921  23.067   6.539  13.071
22695W        W87922  34.430   7.805  11.683
22696W        W87923  23.067  41.922   2.140
22697W        W87924  44.381  20.007  11.036
22698W        W87925  31.000  14.759  11.894
22699W        W87926  27.234  44.415  11.159
22700W        W87927  31.451  10.121  10.330
22701W        W87928   2.837  40.365  10.483
22702W        W87929   4.535  26.493  13.608
22703W        W87930   4.433   9.697  11.876
22704W        W87931  44.285  42.988  11.728
22705W        W87932  11.628   0.030  11.539
22706W        W87933   3.243  12.311   2.309
22707W        W87934  27.357  25.316   0.839
22708W        W87935  15.291  33.073  14.898
22709W        W87936  24.435   7.365  11.579
22710W        W87937  41.109  22.489   4.864
22711W        W87938  29.560  36.836   3.166
22712W        W87939  43.104  21.949  13.434
22713W        W87940  36.152  12.362   1.536
22714W        W87941  13.060  19.694   1.599
22715W        W87942  12.138  35.584  14.045
22716W        W87943  11.200   6.660   4.551
22717W        W87944  43.383   1.181   3.852
22718W        W87945   2.944  26.567   5.342
22719W        W87946  20.192  10.072  11.252
22720W        W87947   4.885  19.056  14.401
22721W        W87948  12.277  42.007  10.725
22722W        W87949  30.806  39.891  11.109
22723W        W87950  32.140   5.390  14.931
22724W        W87951  30.876  40.820   3.719
22725W        W87952   2.418  43.638  14.853
22726W        W87953  29.570  31.565   2.715
22727W        W87954  39.065  21.110  12.113
22728W        W87955  12.227  37.919  10.987
22729W        W87956   8.603  13.629  13.891
22730W        W87957  31.129  36.158   5.345
22731W        W87958  41.831  16.608   2.812
22732W        W87959  30.592   4.679   3.078
22733W        W87960  23.955  41.672  14.419
22734W        W87961  19.161  44.471  13.262
22735W        W87962  38.545  23.986  13.359
22736W        W87963  17.927  40.343  12.384
22737W        W87964  19.479  12.923   0.565
22738W        W87965   5.789  30.756   1.944
22739W        W87966  42.298  16.733  13.382
22740W        W87967  41.374  34.991   4.449
22741W        W87968   7.826  36.300  14.843
22742W        W87969   2.771  29.726   0.051
22743W        W87970  41.856  11.774  13.353
22744W        W87971  33.786  31.198  10.411
22745W        W87972  38.629   2.520  13.380
22746W        W87973  25.628  21.265   1.829
22747W        W87974   7.219  36.551   4.626
22748W        W87975  10.932  23.989   1.801
22749W        W87976  27.620  18.252  14.604
22750W        W87977   6.942  43.252  11.869
22751W        W87978   4.703  42.307  10.746
22752W        W87979  33.457  27.186  12.929
22753W        W87980   7.700   1.905  11.549
22754W        W87981  40.382  29.179   2.378
22755W        W87982  24.101  11.773  12.095
22756W        W87983  19.144  24.319   1.463
22757W        W87984  35.843  27.060  11.648
22758W        W87985   2.170   5.407   3.183
22759W        W87986  32.106  29.090   3.383
22760W        W87987   2.912  43.600  11.685
22761W        W87988   8.121  42.816  11.482
22762W        W87989   9.114  22.599   4.249
22763W        W87990  13.924   0.719   3.416
22764W        W87991   5.976   7.751  14.801
22765W        W87992  21.469  31.455  14.451
22766W        W87993   7.323  27.547   4.072
22767W        W87994  38.466  28.932  13.595
22768W        W87995  24.758   2.081   5.480
22769W        W87996  28.588   4.172  12.576
22770W        W87997   9.606  23.483   1.812
22771W        W87998   9.394  36.135   3.602
22772W        W87999  33.557   4.256   0.819
22773W        W88000   2.376  43.952   3.000
22774W        W88001   5.020  28.755   5.068
22775W        W88002  14.506   8.347  14.799
22776W        W88003  32.029  44.524   2.703
22777W        W88004  14.580   0.574   2.838
22778W        W88005   3.565  41.306   0.124
22779W        W88006  32.331  23.592   1.272
22780W        W88007  25.028  37.834   3.408
22781W        W88008   0.329  19.943  10.298
22782W        W88009  42.825  11.759   4.517
22783W        W88010  11.298  32.415  12.835
22784W        W88011   0.209  22.912  13.487
22785W        W88012  29.752   0.187  12.009
22786W        W88013   9.725  37.012   0.494
22787W        W88014  25.400  24.656  14.975
22788W        W88015  41.624  44.513  11.625
22789W        W88016   4.928   3.367  10.383
22790W        W88017  38.702  24.544  13.470
22791W        W88018  42.584  27.224  11.059
22792W        W88019   2.833  27.239   3.105
22793W        W88020  17.814   7.289   2.346
22794W        W88021  37.370   7.143   2.889
22795W        W88022  32.882  18.792   0.924
22796W        W88023  13.649  36.791   3.306
22797W        W88024  27.575  43.305   4.217
22798W        W88025   9.363  13.755   2.861
22799W        W88026  41.488  23.115   2.529
22800W        W88027  39.369  34.824   0.959
22801W        W88028  33.201   9.369  13.401
22802W        W88029  23.578   0.802  13.083
22803W        W88030  21.973  32.564   3.209
22804W        W88031  11.091  12.809  14.933
22805W        W88032   3.456  34.064  12.020
22806W        W88033   7.473   0.017  14.886
22807W        W88034  33.913  31.078   1.421
22808W        W88035  26.057  24.419   1.265
22809W        W88036  19.286  34.028   2.561
22810W        W88037   5.358  11.216  14.855
22811W        W88038  10.080  28.300   3.197
22812W        W88039  26.509  41.564  10.758
22813W        W88040  17.643  42.581   4.119
22814W        W88041  39.677  12.381   2.917
22815W        W88042   5.514  17.086  13.371
22816W        W88043  28.401   6.140   4.146
22817W        W88044  25.638  33.547  11.460
22818W        W88045  14.259   4.948   3.581
22819W        W88046  37.604  13.189  14.273
22820W        W88047   7.217  18.711  12.602
22821W        W88048  31.217  17.147   3.277
22822W        W88049  10.773  15.459   1.715
22823W        W88050  42.338  37.597   4.160
22824W        W88051  43.193   8.738  12.128
22825W        W88052  22.629  11.859  12.074
22826W        W88053  12.327   0.533   2.229
22827W        W88054  17.770  35.851  11.098
22828W        W88055  26.658  44.575   1.938
22829W        W88056   3.647   4.457  14.567
22830W        W88057   8.335  32.997   2.571
22831W        W88058  43.021  40.917  13.083
22832W        W88059  21.219  16.108  10.436
22833W        W88060   9.398  24.662  14.725
22834W        W88061  43.427  11.498   1.618
22835W        W88062  32.212  16.959  10.664
22836W        W88063  25.206  23.490  10.850
22837W        W88064  41.655  19.173   1.121
22838W        W88065  41.376   2.495  13.947
22839W        W88066   6.129  21.235  14.253
22840W        W88067  43.757  12.236   1.110
22841W        W88068  20.425  28.522   4.031
22842W        W88069  41.917  20.141  12.493
22843W        W88070  17.028  22.954   2.159
22844W        W88071  24.083  41.109   1.799
22845W        W88072   5.200  39.004   2.600
22846W        W88073  36.998   6.429   5.268
22847W        W88074  19.740  18.062   0.283
22848W        W88075  24.582   2.366   0.746
22849W        W88076  41.955  13.859  13.389
22850W        W88077  11.168  21.538  11.780
22851W        W88078  34.201  17.264  13.521
22852W        W88079  34.851  32.424   0.819
22853W        W88080  24.585  30.559   3.139
22854W        W88081  23.086   6.202  11.446
22855W        W88082  34.453  19.398  13.781
22856W        W88083   6.649   1.002  14.485
22857W        W88084  14.283  11.926   2.327
22858W        W88085  21.046  42.515  12.607
22859W        W88086  12.703   5.983  11.071
22860W        W88087  21.061  13.578   2.279
22861W        W88088  33.413  13.582   0.294
22862W        W88089  36.416  40.105  12.303
22863W        W88090  16.277  43.896  13.368
22864W        W88091  13.389  22.635  12.461
22865W        W88092  17.214   6.393   4.771
22866W        W88093   0.989   5.271  14.836
22867W        W88094  18.729   7.289   3.698
22868W        W88095  25.662   0.201  11.227
22869W        W88096  26.479  35.099  12.016
22870W        W88097  11.160  13.271  12.576
22871W        W88098  26.394   8.150   0.532
22872W        W88099  11.151  16.168  13.298
22873W        W88100  16.702  20.422  14.849
22874W        W88101  30.891  18.526  14.958
22875W        W88102   4.697  17.732  10.190
22876W        W88103  10.800  26.973   1.649
22877W        W88104  44.581  23.160   1.043
22878W        W88105  20.547  35.256  12.913
22879W        W88106  41.439  34.010  13.949
22880W        W88107  33.012  44.621   0.825
22881W        W88108   2.268  19.081  12.359
22882W        W88109  15.800  24.119  12.044
22883W        W88110  28.800  24.579  11.278
22884W        W88111   9.726  29.406  14.015
22885W        W88112  41.922  38.103  12.459
22886W        W88113   0.747   1.004   2.807
22887W        W88114   7.413  15.251   0.733
22888W        W88115  14.055  11.173   0.544
22889W        W88116  22.641  41.556  13.538
22890W        W88117  24.960   3.797   0.791
22891W        W88118  32.149  32.629  11.188
22892W        W88119   1.030  13.676  14.429
22893W        W88120  42.996  18.099   3.223
22894W        W88121  26.214  23.165   3.008
22895W        W88122  35.018   9.266  10.506
22896W        W88123  35.362  23.579  11.706
22897W        W88124  18.774   0.104   4.738
22898W        W88125   1.436  10.837   2.253
22899W        W88126  11.622  14.163  13.395
22900W        W88127   3.268  17.117   1.442
22901W        W88128  15.140  35.574   4.547
22902W        W88129   2.745   2.048   2.811
22903W        W88130   3.452  23.071   1.241
22904W        W88131  33.839  39.511  13.849
22905W        W88132  40.431  41.287   4.945
22906W        W88133   0.577  38.940   4.297
22907W        W88134  19.755  14.594   3.711
22908W        W88135  23.343  16.339   0.705
22909W        W88136  15.735  33.639   1.132
22910W        W88137  27.234  26.486  11.933
22911W        W88138  33.068  10.944   2.203
22912W        W88139  17.204   8.563   5.027
22913W        W88140  26.549  32.129  11.921
22914W        W88141   8.200  40.312  14.897
22915W        W88142  25.185  37.015   4.025
22916W        W88143  43.160  15.767  12.293
22917W        W88144   4.300   6.862   4.898
22918W        W88145  31.109  34.098   1.355
22919W        W88146  16.596  29.034   0.871
22920W        W88147  42.468  11.838   1.563
22921W        W88148  30.134   9.851  14.060
22922W        W88149  35.886  24.506  11.497
22923W        W88150  29.998  14.584  13.128
22924W        W88151  38.965  17.611   2.768
22925W        W88152  42.295  13.680   4.793
22926W        W88153  11.623   0.730   1.387
22927W        W88154  42.569  35.586  11.210
22928W        W88155  37.582   6.851   4.918
22929W        W88156   5.411  36.982   0.436
22930W        W88157  17.731   0.935   0.766
22931W        W88158   3.729   2.971   2.647
22932W        W88159   3.164  20.363   4.559
22933W        W88160  14.883  39.653  14.093
22934W        W88161  13.567  44.911  13.907
22935W        W88162  31.127  26.090  14.762
22936W        W88163  39.387  34.618   3.812
22937W        W88164  40.828  42.318  13.500
22938W        W88165  21.960  24.286  12.579
22939W        W88166  41.307   8.655  11.228
22940W        W88167  36.683   3.416  13.375
22941W        W88168  20.199  12.382  11.664
22942W        W88169   0.053  13.958   2.633
22943W        W88170  35.900  14.101   4.333
22944W        W88171   6.748   6.239   2.206
22945W        W88172  25.507  41.755   4.433
22946W        W88173   2.636  13.203  12.432
22947W        W88174  37.356  36.859   1.441
22948W        W88175  26.628   3.931   0.146
22949W        W88176  18.936  43.009   4.090
22950W        W88177  33.927  26.961  13.624
22951W        W88178  37.356  36.291   2.739
22952W        W88179  28.851  40.373   2.449
22953W        W88180   2.263   2.651  12.022
22954W        W88181  43.842  24.044   1.320
22955W        W88182   0.625  37.664  14.374
22956W        W88183  39.048   2.387  14.268
22957W        W88184  39.273  26.160   2.560
22958W        W88185  38.683  43.683  14.005
22959W        W88186  36.298   0.917  13.905
22960W        W88187  33.654  23.347  13.240
22961W        W88188  36.309  23.633   5.087
22962W        W88189  16.504  32.814   3.794
22963W        W88190   6.614   7.731  14.203
22964W        W88191  26.144  44.738   0.908
22965W        W88192   8.644  31.879  12.620
22966W        W88193  32.648  35.699  14.861
22967W        W88194  17.719  14.243  12.294
22968W        W88195  37.049  32.934  10.937
22969W        W88196   3.288   5.767   0.849
22970W        W88197   7.858  12.668   3.296
22971W        W88198  23.329  44.237   1.285
22972W        W88199  23.933  18.112   3.314
22973W        W88200   7.774  33.065  10.492
22974W        W88201  29.767   3.664  14.514
22975W        W88202   0.364   8.353  12.025
22976W        W88203  13.123  22.177  13.836
22977W        W88204  40.941  37.534  11.243
22978W        W88205   0.320   4.194   4.581
22979W        W88206   9.919  27.941  11.355
22980W        W88207   6.316  44.115   4.146
22981W        W88208   4.805  29.745  13.207
22982W        W88209   0.849  39.019   1.220
22983W        W88210  19.585  15.838  10.618
22984W        W88211  40.771  23.767   4.014
22985W        W88212   2.698  14.604  13.884
22986W        W88213  44.327  20.202   3.351
22987W        W88214  37.215  38.591  11.120
22988W        W88215  18.112   8.438   3.713
22989W        W88216  27.101  37.038  14.010
22990W        W88217  43.567   8.746  11.767
22991W        W88218  12.366   3.289  11.476
22992W        W88219  29.341  35.007   4.512
22993W        W88220  43.936   8.310  11.004
22994W        W88221  13.207   0.737  11.250
22995W        W88222  44.641  24.695  12.671
22996W        W88223  28.942  26.662  12.889
22997W        W88224  13.458  24.637   3.952
22998W        W88225  44.785  44.234  12.384
22999W        W88226  33.798  29.061  13.344
23000W        W88227   4.521  32.151   0.779
23001W        W88228  33.326  44.009  11.786
23002W        W88229  25.833   3.980  14.060
23003W        W88230  35.065  32.062  13.023
23004W        W88231  18.780  37.450   1.214
23005W        W88232  16.057  15.511   4.568
23006W        W88233   3.154  10.682  11.224
23007W        W88234  39.335  20.406   0.910
23008W        W88235  33.943  34.376   1.457
23009W        W88236  13.403  20.553   1.605
23010W        W88237   9.774  18.977   4.552
23011W        W88238  29.673   0.319   2.153
23012W        W88239   8.296   8.140  12.938
23013W        W88240  36.441  36.670  14.504
23014W        W88241   7.059  16.289  14.743
23015W        W88242   8.123  15.112   3.626
23016W        W88243  20.036  16.839  14.817
23017W        W88244  21.996  13.822  12.659
23018W        W88245   3.414  16.334  10.775
23019W        W88246  27.925  16.550  13.258
23020W        W88247  35.408  12.180   3.607
23021W        W88248  16.088  19.789   0.924
23022W        W88249  31.109   9.255  11.184
23023W        W88250  35.370   3.952  11.857
23024W        W88251  33.914  14.738  11.102
23025W        W88252   6.977  28.161  11.655
23026W        W88253   2.169  40.836  13.016
23027W        W88254  35.939  13.159   4.628
23028W        W88255  21.108   6.252   2.351
23029W        W88256  38.822  29.253  13.439
23030W        W88257  11.820  34.654   3.526
23031W        W88258  14.123  11.719   2.791
23032W        W88259  21.135  15.584   4.516
23033W        W88260  35.481  36.530  10.176
23034W        W88261  26.536   9.840   0.607
23035W        W88262  44.342  30.595  10.618
23036W        W88263  40.108  22.838   4.760
23037W        W88264  19.623  43.156   2.134
23038W        W88265  17.447   6.360  13.334
23039W        W88266   7.294  10.577  14.856
23040W        W88267  44.768  30.492  14.415
23041W        W88268  20.200  13.585  13.086
23042W        W88269  36.289  20.000  13.968
23043W        W88270  23.798  22.475   9.915
23044W        W88271   8.663  16.827  12.166
23045W        W88272  39.749   5.477  12.745
23046W        W88273  24.012   8.138   0.383
23047W        W88274  39.291   7.115  13.915
23048W        W88275  31.169  39.407   5.337
23049W        W88276  13.904  33.749  10.301
23050W        W88277  26.652  21.323   2.809
23051W        W88278  22.425   2.171   4.071
23052W        W88279   3.683  31.792   4.517
23053W        W88280   4.804   9.479  13.525
23054W        W88281   7.132  35.368  12.904
23055W        W88282  32.993  41.664  14.017
23056W        W88283  22.617   5.143  11.696
23057W        W88284  37.301  22.812  14.387
23058W        W88285  14.886  44.866  10.362
23059W        W88286   0.913  13.048  12.265
23060W        W88287   8.816  14.150  10.701
23061W        W88288  24.220  23.504  12.101
23062W        W88289   9.605  42.463  13.771
23063W        W88290  32.423  32.495   3.610
23064W        W88291  10.846  16.147   0.537
23065W        W88292  22.606  32.402  14.033
23066W        W88293  16.925  14.205  11.515
23067W        W88294  39.047  38.615   2.808
23068W        W88295  43.861   1.860   3.447
23069W        W88296   4.837   6.443   0.862
23070W        W88297   8.804  27.602  14.242
23071W        W88298   0.751   7.812   0.770
23072W        W88299   2.701  39.433  13.420
23073W        W88300  30.179   5.248  11.751
23074W        W88301   8.172  38.897   0.252
23075W        W88302   3.028  29.044   2.267
23076W        W88303  38.347  28.139   3.749
23077W        W88304  17.135   4.413   0.777
23078W        W88305  28.017  13.507   3.745
23079W        W88306  31.138  11.501   4.125
23080W        W88307  42.870  42.842  11.686
23081W        W88308  22.020   4.842  13.056
23082W        W88309  33.117  39.417  11.214
23083W        W88310   0.413  42.132   0.899
23084W        W88311  27.930  25.642  12.852
23085W        W88312  14.327   3.483  14.421
23086W        W88313   9.678  37.589   3.772
23087W        W88314  12.362  13.998  11.972
23088W        W88315  37.947   3.595   1.641
23089W        W88316   5.002  44.439   1.774
23090W        W88317  37.162  22.510   0.508
23091W        W88318  34.018  44.756  14.282
23092W        W88319  27.934   1.777  10.661
23093W        W88320  24.806  19.774  14.961
23094W        W88321  23.723   9.204   2.605
23095W        W88322  43.572   0.747   1.204
23096W        W88323   7.218  23.493   3.628
23097W        W88324  29.940  16.233   1.430
23098W        W88325  21.422  30.630   2.829
23099W        W88326  35.199  17.159   1.197
23100W        W88327   9.760  12.755   0.476
23101W        W88328   7.233  16.044  12.490
23102W        W88329   6.671  13.240   1.683
23103W        W88330  13.638  37.596   2.275
23104W        W88331  11.593   5.800  10.604
23105W        W88332  16.806  40.967  12.008
23106W        W88333   2.493   9.303   3.724
23107W        W88334  32.943  38.902   3.305
23108W        W88335  34.942  15.810   1.634
23109W        W88336   9.146  39.328  12.921
23110W        W88337   5.899  29.457  13.487
23111W        W88338  11.270  30.503   9.700
23112W        W88339   5.915  32.867   2.197
23113W        W88340  28.137  15.515  13.572
23114W        W88341  39.070   7.362  11.598
23115W        W88342  25.567  11.730   4.381
23116W        W88343  32.329  21.839  11.151
23117W        W88344  13.113  13.382   4.185
23118W        W88345  36.138  10.209   2.684
23119W        W88346   9.694  33.060   2.456
23120W        W88347  20.513  24.449  13.004
23121W        W88348   5.477  29.042   1.161
23122W        W88349  41.101  40.824   3.179
23123W        W88350  35.658  22.528   4.556
23124W        W88351   5.648  15.762  10.651
23125W        W88352  36.360  28.588  11.063
23126W        W88353  21.143  12.357   3.775
23127W        W88354  39.723  23.769   2.004
23128W        W88355  35.195   8.405   3.660
23129W        W88356   7.289  30.084   4.258
23130W        W88357  28.566   7.862   2.136
23131W        W88358  37.484   4.687   2.883
23132W        W88359  11.642  21.209  10.846
23133W        W88360  37.923  10.658   2.322
23134W        W88361  15.542  30.319  11.346
23135W        W88362   2.869  32.049   0.236
23136W        W88363   5.396   3.393  11.233
23137W        W88364  26.523  33.241   0.007
23138W        W88365  44.394  24.089   0.752
23139W        W88366  19.974  37.786  11.591
23140W        W88367   9.498  38.610  10.767
23141W        W88368  14.080  44.562   3.778
23142W        W88369  35.388  21.294  12.431
23143W        W88370  43.191  17.733  14.252
23144W        W88371  19.755  29.864  14.038
23145W        W88372  12.856  29.925   0.630
23146W        W88373  16.809   9.460   3.371
23147W        W88374   5.955  40.032  14.508
23148W        W88375  35.942   6.360   2.816
23149W        W88376  20.310  17.005  14.391
23150W        W88377  18.616  31.155  12.057
23151W        W88378  35.575  19.103  14.350
23152W        W88379  19.957  18.693   4.906
23153W        W88380  14.075   0.476   0.899
23154W        W88381  30.379   8.945   3.673
23155W        W88382  12.895  32.578  13.985
23156W        W88383  29.229  35.414  12.014
23157W        W88384   2.311  17.007  13.111
23158W        W88385   4.443   9.864  12.373
23159W        W88386   3.131  16.183  11.657
23160W        W88387  30.108  19.266   2.328
23161W        W88388  15.714  37.608  11.000
23162W        W88389  44.842  10.283  14.969
23163W        W88390  41.031  42.483   2.617
23164W        W88391  44.807   6.691  12.375
23165W        W88392  19.723  24.737   0.885
23166W        W88393  18.780  28.659   0.711
23167W        W88394  12.705  23.577   1.760
23168W        W88395  37.535  14.866  14.071
23169W        W88396  40.331   4.675  14.842
23170W        W88397  36.007  11.605  11.438
23171W        W88398   8.169   0.524  13.567
23172W        W88399  28.970  44.942  14.102
23173W        W88400  30.939  34.652  14.769
23174W        W88401  29.851  13.052   0.869
23175W        W88402  28.928  29.906   2.724
23176W        W88403   7.039   4.420  14.107
23177W        W88404  16.711  12.755  13.530
23178W        W88405  11.834  21.983   4.492
23179W        W88406  26.400  22.583  12.687
23180W        W88407   8.079  31.836   5.062
23181W        W88408  25.137  41.331   3.253
23182W        W88409  21.671  38.588   2.850
23183W        W88410  39.843  15.054   0.893
23184W        W88411  16.842   7.892  10.594
23185W        W88412  22.353  24.312   2.237
23186W        W88413  41.571  20.156  12.104
23187W        W88414  42.939  35.947  11.370
23188W        W88415  16.699  26.649  14.862
23189W        W88416  41.874   7.203   4.067
23190W        W88417   2.544   9.233  12.313
23191W        W88418  35.463   1.495   2.435
23192W        W88419  42.307  36.152   0.373
23193W        W88420  38.918  21.160  13.473
23194W        W88421  19.272  35.946   0.474
23195W        W88422  14.841  33.866   4.965
23196W        W88423  21.085  36.488   0.101
23197W        W88424  19.111   9.686  10.507
23198W        W88425  20.915  37.020   0.865
23199W        W88426  40.536   8.871   3.227
23200W        W88427  32.583  41.368  14.247
23201W        W88428  11.346   4.241  12.433
23202W        W88429   6.748   8.250   0.779
23203W        W88430   0.960  13.268   3.915
23204W        W88431  25.818  24.074  12.825
23205W        W88432   2.315  28.846   5.454
23206W        W88433   0.236  23.271   2.403
23207W        W88434  22.553  35.573   0.621
23208W        W88435  21.837   8.960   1.675
23209W        W88436  32.205  24.554  11.616
23210W        W88437  34.294  27.863   5.032
23211W        W88438   2.802  38.402   4.298
23212W        W88439  26.747   0.032   4.060
23213W        W88440  41.080  32.530   0.006
23214W        W88441  24.775  17.251  13.611
23215W        W88442   7.307  23.476   1.653
23216W        W88443  13.812  10.401  11.085
23217W        W88444   8.257  39.786  14.840
23218W        W88445  13.398   2.290  11.269
23219W        W88446  20.094  17.541  12.515
23220W        W88447  30.486  18.132   0.566
23221W        W88448   4.949   3.295   0.827
23222W        W88449  25.120  40.058   4.629
23223W        W88450  19.247  17.919  14.653
23224W        W88451  32.939  12.822  10.299
23225W        W88452   8.291  18.157  12.100
23226W        W88453  26.379  29.742  12.942
23227W        W88454  26.196  29.077  11.629
23228W        W88455  43.097   7.903  11.007
23229W        W88456  37.900   3.040  12.033
23230W        W88457  44.548  25.169  12.876
23231W        W88458  41.988  22.732  14.863
23232W        W88459  26.446   4.088  12.961
23233W        W88460  39.594   0.873  12.151
23234W        W88461   0.744   6.326   3.700
23235W        W88462  42.737  39.711   1.297
23236W        W88463  38.409  27.989  11.373
23237W        W88464  40.832   7.650   2.062
23238W        W88465   0.028   3.474   1.166
23239W        W88466   1.531  38.804  11.898
23240W        W88467  31.065  15.096  11.208
23241W        W88468  25.792   1.548  10.125
23242W        W88469  26.945  29.741   4.286
23243W        W88470  36.504  17.500  14.995
23244W        W88471  29.559  24.098  10.598
23245W        W88472   9.651  28.496  11.224
23246W        W88473  44.427  15.481   3.666
23247W        W88474  12.207  28.630  14.999
23248W        W88475  26.190  44.142  14.259
23249W        W88476  40.752  22.317  14.441
23250W        W88477  40.931  36.231   3.414
23251W        W88478  21.057  18.693  14.216
23252W        W88479  11.094   0.362  13.215
23253W        W88480  30.519   1.952   2.221
23254W        W88481  44.055  29.286   1.192
23255W        W88482  21.616  39.948  10.748
23256W        W88483  16.020   9.245   5.003
23257W        W88484  39.057  15.412   4.187
23258W        W88485   5.526  31.577   1.527
23259W        W88486  44.951  15.315   3.195
23260W        W88487   2.593  35.943  14.582
23261W        W88488  23.959  31.430   1.653
23262W        W88489  30.188  20.860  12.195
23263W        W88490  38.552  19.851  10.448
23264W        W88491  28.219  27.050  10.692
23265W        W88492  25.757  38.004  11.147
23266W        W88493  28.082   5.358   2.518
23267W        W88494   8.200  13.145  11.118
23268W        W88495  18.326  33.072   3.711
23269W        W88496  18.219  33.111  13.032
23270W        W88497  28.196  42.993   0.547
23271W        W88498  13.414  42.432   3.731
23272W        W88499  37.996  41.218  12.167
23273W        W88500   6.470   6.116  12.137
23274W        W88501  22.217  37.165   0.043
23275W        W88502  34.809  14.821  14.387
23276W        W88503   8.523  40.970  12.043
23277W        W88504   4.821   9.715  13.963
23278W        W88505  39.636   3.105   2.995
23279W        W88506  29.522  39.960  13.274
23280W        W88507   2.402  40.101  14.449
23281W        W88508  11.388  14.256  11.005
23282W        W88509  25.577  31.349  12.114
23283W        W88510  20.915  13.270  12.918
23284W        W88511  27.951   4.886   2.296
23285W        W88512  35.803   3.737   0.798
23286W        W88513   0.905  22.505   1.448
23287W        W88514  36.978  27.385  11.989
23288W        W88515  21.661   5.722   4.509
23289W        W88516   3.994   7.399  13.461
23290W        W88517  16.860   9.337  14.864
23291W        W88518  33.871  26.955  13.108
23292W        W88519  35.077   3.468  10.763
23293W        W88520  24.030  38.402  10.626
23294W        W88521   2.887  22.622   4.650
23295W        W88522  25.326   0.060  10.205
23296W        W88523  42.848  29.641  14.818
23297W        W88524  14.729  35.348   0.681
23298W        W88525  26.471  33.852  10.937
23299W        W88526  38.619  12.441  14.918
23300W        W88527  11.639  20.754  12.082
23301W        W88528   2.308  30.000  11.503
23302W        W88529  32.518   1.032   1.748
23303W        W88530  19.652   8.634   4.851
23304W        W88531   6.951   0.027  14.830
23305W        W88532  30.277  31.451   1.479
23306W        W88533   0.880  18.362  12.125
23307W        W88534  10.554  10.357   0.376
23308W        W88535   5.417  27.623  10.376
23309W        W88536  15.652  20.186   1.731
23310W        W88537  33.089  15.727   1.918
23311W        W88538   9.190  29.208  14.400
23312W        W88539  12.336  16.081   0.871
23313W        W88540  36.528  22.652   4.151
23314W        W88541  28.455  22.607  10.800
23315W        W88542  10.826  31.237  14.025
23316W        W88543  15.686   5.572   2.934
23317W        W88544  32.765  40.774   3.220
23318W        W88545  33.512   6.069  12.582
23319W        W88546   9.408  13.756  14.319
23320W        W88547  13.316  37.495  12.863
23321W        W88548  41.600  27.967  13.476
23322W        W88549  30.555  14.673   4.610
23323W        W88550  41.113   7.618   1.167
23324W        W88551  40.550   2.745  14.856
23325W        W88552   0.859  23.641  13.954
23326W        W88553  37.897   1.670  11.599
23327W        W88554  33.814  38.351   4.428
23328W        W88555  34.046   8.217  11.425
23329W        W88556  30.902  39.047  11.611
23330W        W88557  37.234  34.465   2.824
23331W        W88558  17.717  27.673  11.492
23332W        W88559  21.036  37.410   3.171
23333W        W88560  23.406  37.074   4.539
23334W        W88561  13.485  37.005  13.800
23335W        W88562   5.767  19.230  12.851
23336W        W88563  38.443   0.823  11.642
23337W        W88564   6.308   2.699   3.140
23338W        W88565  35.505  30.840  11.048
23339W        W88566  24.803  24.542   4.712
23340W        W88567   3.689  29.379  14.283
23341W        W88568   3.381   0.739  13.291
23342W        W88569  28.475  43.503  10.739
23343W        W88570  41.463   6.742  14.396
23344W        W88571   9.196   0.957   2.697
23345W        W88572  33.719  40.517  13.908
23346W        W88573  18.908   8.916   4.240
23347W        W88574  41.536  38.135  12.879
23348W        W88575  25.641  41.607  14.404
23349W        W88576  29.628  44.771   2.910
23350W        W88577  38.319  19.099  13.749
23351W        W88578  27.139  40.317  12.399
23352W        W88579  25.163  12.062  14.718
23353W        W88580   8.795  30.026  11.619
23354W        W88581  37.471  38.755   4.530
23355W        W88582  29.525   3.609  11.716
23356W        W88583  22.024   4.526  11.709
23357W        W88584  13.187  12.219  12.316
23358W        W88585  30.696   2.249   3.575
23359W        W88586  12.106  21.722   3.534
23360W        W88587  30.402  19.777   3.152
23361W        W88588  19.833   4.092  14.398
23362W        W88589  44.320   0.512   0.835
23363W        W88590  24.978   2.500   1.915
23364W        W88591  11.686  18.467  12.963
23365W        W88592  18.256  40.741   0.754
23366W        W88593   9.185  31.457   4.070
23367W        W88594   1.393  23.529   2.690
23368W        W88595   0.179  39.404  11.474
23369W        W88596  21.829   2.915   0.585
23370W        W88597  24.268  25.080   1.407
23371W        W88598   7.310  22.518   2.689
23372W        W88599  18.629  22.958  11.635
23373W        W88600  11.897  24.096   2.650
23374W        W88601  39.980  28.523   3.239
23375W        W88602   1.793  18.220  11.582
23376W        W88603   2.147  40.030   4.512
23377W        W88604   3.497  41.905   3.263
23378W        W88605  37.345  32.575  13.301
23379W        W88606   0.711  17.159  10.961
23380W        W88607  38.051  25.070   1.214
23381W        W88608  29.193  20.082   3.848
23382W        W88609  38.848   7.908  10.664
23383W        W88610  43.337  39.490   3.719
23384W        W88611  36.687  38.499  11.132
23385W        W88612  44.296  33.603   2.038
23386W        W88613  29.551  39.410   2.862
23387W        W88614  38.743  32.984   3.572
23388W        W88615  24.132   2.311  13.587
23389W        W88616  25.505   9.125   0.018
23390W        W88617   1.981   5.341   1.846
23391W        W88618  10.555   9.625   3.681
23392W        W88619  31.628  33.525  14.019
23393W        W88620  34.517  40.718   1.250
23394W        W88621   7.706  13.024   4.051
23395W        W88622  30.974   6.249   3.550
23396W        W88623  42.971  17.643   0.322
23397W        W88624   8.429  35.486   4.114
23398W        W88625  31.746  41.789  12.646
23399W        W88626   8.931   9.763  12.934
23400W        W88627  12.884   8.362   0.059
23401W        W88628  31.218   2.848   4.064
23402W        W88629  35.911  18.278  12.094
23403W        W88630  42.938   2.732  10.776
23404W        W88631   3.714   1.681  12.523
23405W        W88632  42.795   3.710   2.004
23406W        W88633  31.300  34.942  12.064
23407W        W88634  35.380  31.545  13.678
23408W        W88635  39.913   8.813  14.725
23409W        W88636  16.565   0.481  12.999
23410W        W88637  17.479   2.992  12.915
23411W        W88638  20.207  27.463   1.953
23412W        W88639  21.768  43.092   4.065
23413W        W88640  12.909  42.024  11.543
23414W        W88641  26.362  42.012  14.890
23415W        W88642  26.790  34.837   1.843
23416W        W88643  38.842  34.573  11.243
23417W        W88644  28.874   4.067  11.092
23418W        W88645   1.244   7.675  12.876
23419W        W88646  42.752   3.534   4.098
23420W        W88647  36.466  42.315  10.897
23421W        W88648  33.922  36.649  14.324
23422W        W88649   7.974   9.292  11.298
23423W        W88650  33.665  19.943   1.639
23424W        W88651  24.450  19.800   1.386
23425W        W88652   2.511  25.225  14.394
23426W        W88653  42.393  41.998  12.494
23427W        W88654  42.447   2.749   0.669
23428W        W88655   9.174  39.220   2.068
23429W        W88656  24.362  24.625   0.468
23430W        W88657  16.656   0.991  12.565
23431W        W88658  24.223  31.637  14.432
23432W        W88659   5.119  42.349   0.318
23433W        W88660   1.011  29.165   4.113
23434W        W88661  18.134  43.463  11.718
23435W        W88662   0.619  16.602   4.548
23436W        W88663  17.746  22.393   4.945
23437W        W88664  33.837  44.635  11.148
23438W        W88665  41.303  13.598  14.055
23439W        W88666  23.548   6.267  11.266
23440W        W88667  10.767   7.456   4.787
23441W        W88668  19.603  27.609  13.882
23442W        W88669  19.306   7.603   2.119
23443W        W88670  35.587   1.385  14.410
23444W        W88671  35.628  36.197  10.974
23445W        W88672  16.028  26.595  12.431
23446W        W88673  23.211  12.795  11.038
23447W        W88674  22.355   5.631   0.529
23448W        W88675   9.641  35.965  13.358
23449W        W88676  29.577   2.111  11.947
23450W        W88677   7.498  30.092  13.490
23451W        W88678   9.850   2.916  14.609
23452W        W88679  43.725  20.839  14.957
23453W        W88680  13.629  22.599   4.272
23454W        W88681  31.345  32.574  12.972
23455W        W88682   1.458   7.146   2.773
23456W        W88683  25.996   2.933   0.957
23457W        W88684   2.030  35.208   4.904
23458W        W88685  24.866   2.868   3.459
23459W        W88686   9.813  39.573   3.779
23460W        W88687  28.727  27.964  14.409
23461W        W88688  43.160  35.867   4.069
23462W        W88689  44.399  15.049  11.994
23463W        W88690  34.275  40.826  12.521
23464W        W88691  14.379  35.497  13.075
23465W        W88692  10.659  31.817   5.130
23466W        W88693  33.819   2.213   0.446
23467W        W88694  31.374  31.707   0.780
23468W        W88695  36.327  38.980  12.617
23469W        W88696   4.819  32.116  14.028
23470W        W88697  10.088  18.460   0.791
23471W        W88698  29.785   3.092   0.451
23472W        W88699  31.713  33.686   0.325
23473W        W88700  30.728   3.422  12.490
23474W        W88701  44.439  30.802  11.968
23475W        W88702  35.650  13.096   4.199
23476W        W88703  15.637  20.568  12.600
23477W        W88704  36.552  12.421  12.463
23478W        W88705  39.296  38.590  11.189
23479W        W88706  13.222   6.753  11.233
23480W        W88707  19.043   8.474   3.948
23481W        W88708  24.222  32.600  14.024
23482W        W88709  16.519  14.204   1.851
23483W        W88710  11.512  40.847   3.627
23484W        W88711  13.810  18.349  13.441
23485W        W88712   7.063  20.308  11.944
23486W        W88713  39.913  42.888  11.148
23487W        W88714   8.552  32.556   2.764
23488W        W88715  43.243  32.966   2.960
23489W        W88716   6.819  17.850   3.280
23490W        W88717  34.877   5.403   2.294
23491W        W88718  12.569  23.727  14.057
23492W        W88719  42.105  15.902  13.660
23493W        W88720  18.770   1.743   3.840
23494W        W88721   3.324   6.439  12.132
23495W        W88722   2.492  33.652  12.975
23496W        W88723  10.400  29.527   1.222
23497W        W88724  11.687   3.961   2.058
23498W        W88725  27.694  13.719   1.289
23499W        W88726   7.197   1.409   1.301
23500W        W88727  43.742  35.797  10.822
23501W        W88728  15.765  39.082  13.028
23502W        W88729  23.587  39.989  12.620
23503W        W88730   2.987  27.130  12.363
23504W        W88731  31.387  29.548   1.337
23505W        W88732   0.036  33.900   0.087
23506W        W88733  26.072  23.444  13.991
23507W        W88734   9.109  25.615  14.944
23508W        W88735   2.022  38.427   0.010
23509W        W88736  13.193  33.034   2.369
23510W        W88737  19.226  35.591   3.687
23511W        W88738  10.651   5.685  14.667
23512W        W88739  14.550  43.725   3.675
23513W        W88740  29.898  36.378   3.576
23514W        W88741  22.433  18.483   1.292
23515W        W88742  39.836  44.826  13.655
23516W        W88743  38.472  14.726  14.888
23517W        W88744  25.667   2.544   4.521
23518W        W88745  43.865  44.642   0.429
23519W        W88746  24.082  35.061   0.057
23520W        W88747  23.586  37.159   1.878
23521W        W88748  25.547  25.857  13.761
23522W        W88749   7.114  19.092   1.337
23523W        W88750   4.519   3.053  12.247
23524W        W88751  27.535  17.180   4.776
23525W        W88752  40.345  12.703   2.771
23526W        W88753  35.431   9.137   1.855
23527W        W88754   8.116   4.836   1.111
23528W        W88755  23.948  44.046  12.500
23529W        W88756  15.217  33.054   4.170
23530W        W88757  33.382  20.510   1.228
23531W        W88758  31.728  27.010   2.541
23532W        W88759  34.916  16.876  10.991
23533W        W88760  16.114  15.068  12.053
23534W        W88761  23.216   9.225   3.123
23535W        W88762  41.436  32.889  13.536
23536W        W88763  44.265  37.304   4.059
23537W        W88764  23.782  33.105   0.288
23538W        W88765  28.430   4.445   3.926
23539W        W88766  35.941  30.859   3.248
23540W        W88767  44.583   9.983   2.755
23541W        W88768  29.846  38.301  13.916
23542W        W88769   2.856  29.872   0.562
23543W        W88770  36.713   0.080  12.868
23544W        W88771  35.903  17.152   3.233
23545W        W88772  10.406   7.415  14.859
23546W        W88773  33.674  14.377   5.108
23547W        W88774  36.099  39.521  13.458
23548W        W88775  44.304  16.604  13.519
23549W        W88776  24.943   3.266  13.972
23550W        W88777  40.777  35.819  11.143
23551W        W88778  22.784  15.622  12.619
23552W        W88779   8.550  35.362  10.259
23553W        W88780  33.200  26.146  13.828
23554W        W88781  21.153  11.256   2.615
23555W        W88782  15.181  31.864  11.883
23556W        W88783  40.273  36.900  10.717
23557W        W88784  36.842  33.661  10.590
23558W        W88785  41.237  39.476   1.243
23559W        W88786  41.975  22.763  11.566
23560W        W88787   6.667  38.402  12.015
23561W        W88788   0.301  37.375  14.056
23562W        W88789  41.905  43.865  13.303
23563W        W88790  39.446  27.095  13.048
23564W        W88791  29.974  14.761  13.699
23565W        W88792   2.879  24.375   1.346
23566W        W88793  11.051  31.663  10.270
23567W        W88794   2.134  10.117  11.760
23568W        W88795  16.396   8.666  12.163
23569W        W88796  10.674   1.393   2.411
23570W        W88797  35.392  16.138   3.775
23571W        W88798  12.301  26.965  11.452
23572W        W88799   6.467  23.193  10.400
23573W        W88800  33.094  24.925   1.321
23574W        W88801   1.289  31.844   0.637
23575W        W88802   6.164  31.866  11.727
23576W        W88803   7.384   3.284  12.178
23577W        W88804  33.122  12.774  12.997
23578W        W88805   7.691  14.103  12.620
23579W        W88806  14.302  31.155  12.522
23580W        W88807  41.547  12.236   0.003
23581W        W88808  43.353  23.792   3.799
23582W        W88809   4.771   6.592  14.366
23583W        W88810  19.782  29.662  12.658
23584W        W88811  26.567   4.431   4.488
23585W        W88812  39.884  41.704  12.882
23586W        W88813  39.381   7.185   1.708
23587W        W88814   9.369   3.221   2.286
23588W        W88815  35.826  24.439   2.783
23589W        W88816  43.013  28.541  11.049
23590W        W88817  43.268  20.507   0.761
23591W        W88818   7.727  10.418   1.840
23592W        W88819  38.918   2.483  14.754
23593W        W88820  12.378  35.400   1.895
23594W        W88821  44.465  29.516  10.665
23595W        W88822  40.377  23.798  11.131
23596W        W88823  36.491   9.831   4.657
23597W        W88824  35.802  23.199  13.899
23598W        W88825  31.078  14.445   1.372
23599W        W88826  34.500   9.436   2.199
23600W        W88827  12.217   3.321  12.657
23601W        W88828  12.346  30.495   4.459
23602W        W88829  12.462  31.887  11.218
23603W        W88830  17.260  20.601  13.104
23604W        W88831  41.942   0.737   1.755
23605W        W88832   4.928  30.405  12.475
23606W        W88833   0.439   3.042  12.322
23607W        W88834   5.584   3.337   4.653
23608W        W88835  16.525   0.489  11.250
23609W        W88836  44.312  29.584  14.101
23610W        W88837  40.333   4.017  11.614
23611W        W88838  26.950  20.784  13.866
23612W        W88839   7.601  28.192  10.374
23613W        W88840  22.523   2.741   0.782
23614W        W88841  33.555  13.172   4.856
23615W        W88842  24.731  40.589   1.191
23616W        W88843  20.048  19.795   1.455
23617W        W88844  37.406  41.076  14.854
23618W        W88845   0.998  24.411   1.410
23619W        W88846  17.352   3.885  12.838
23620W        W88847  17.492  27.189   3.028
23621W        W88848  17.726   4.193  11.110
23622W        W88849   3.402  21.300   4.054
23623W        W88850  42.733  24.132   3.255
23624W        W88851  15.801  11.342   2.165
23625W        W88852  38.823  22.870   1.570
23626W        W88853  25.114   9.889   0.832
23627W        W88854  20.318  42.757  14.861
23628W        W88855  21.205   7.898   0.451
23629W        W88856   6.220   4.864   2.985
23630W        W88857  19.590  25.607   4.377
23631W        W88858  22.942  37.805  14.980
23632W        W88859  17.455  25.609  14.924
23633W        W88860  38.431  25.066  12.985
23634W        W88861   7.055  14.060   2.672
23635W        W88862  27.463  18.998   3.261
23636W        W88863  40.276  42.199  14.087
23637W        W88864  14.350  11.944   3.243
23638W        W88865  11.014  31.072   4.509
23639W        W88866  15.674  13.266   0.535
23640W        W88867   6.927  31.297   0.793
23641W        W88868  14.223  28.615   1.348
23642W        W88869  32.429   0.470  14.384
23643W        W88870  39.373   6.055   4.623
23644W        W88871   1.801  19.703   2.649
23645W        W88872  36.187   7.199   1.013
23646W        W88873  38.720  32.071   1.270
23647W        W88874  24.619  19.656   4.304
23648W        W88875  28.596  33.139  12.658
23649W        W88876  37.786  18.051  11.180
23650W        W88877  13.661  32.570  14.543
23651W        W88878  19.901   0.415   9.829
23652W        W88879  17.408  19.029  12.040
23653W        W88880  40.149  17.648  13.081
23654W        W88881  38.082  38.008   3.220
23655W        W88882  20.508  25.737   0.322
23656W        W88883  12.126   1.837  13.856
23657W        W88884  10.853  43.141  12.837
23658W        W88885   6.219   6.872   0.355
23659W        W88886  26.995  38.006  12.538
23660W        W88887  36.115  22.320  14.393
23661W        W88888  11.323  15.509   0.064
23662W        W88889   8.125  43.470   1.395
23663W        W88890  36.805   7.350  14.052
23664W        W88891   2.230  22.957  13.104
23665W        W88892  15.684   0.581  13.199
23666W        W88893   6.317  13.365   1.264
23667W        W88894  30.040  12.240   4.334
23668W        W88895  13.725  38.577  13.019
23669W        W88896  27.443  20.767   1.265
23670W        W88897  14.285   2.494  12.019
23671W        W88898  44.964  24.134   3.549
23672W        W88899   2.239  16.278  11.472
23673W        W88900   5.163  15.663  14.337
23674W        W88901   0.960  23.247   1.670
23675W        W88902  22.019  14.358   3.292
23676W        W88903  41.313   6.725   3.092
23677W        W88904  20.586  33.606  12.457
23678W        W88905  33.060  33.516  13.736
23679W        W88906  29.642  23.037  11.728
23680W        W88907  29.229   3.383  13.120
23681W        W88908   4.442  23.241   3.645
23682W        W88909  14.845  27.678   2.776
23683W        W88910  34.370   7.924   3.594
23684W        W88911  40.728   9.662   0.827
23685W        W88912   8.946  12.985   0.577
23686W        W88913  39.033  34.275  11.602
23687W        W88914  12.858   5.213   4.916
23688W        W88915  37.245  15.654  10.804
23689W        W88916  24.605   2.062   3.230
23690W        W88917   1.445  39.880   1.222
23691W        W88918  30.056  22.480   2.128
23692W        W88919  22.245  39.684  12.426
23693W        W88920  14.076  33.986   3.621
23694W        W88921  40.957  36.448  13.124
23695W        W88922  44.819  33.407  13.888
23696W        W88923  14.169  27.017  12.905
23697W        W88924  19.689  42.107   2.244
23698W        W88925   0.782  32.635   3.314
23699W        W88926  26.739  41.405   4.371
23700W        W88927  22.655  44.794  12.875
23701W        W88928  39.598  26.962  12.176
23702W        W88929  27.076  12.093  10.500
23703W        W88930  11.418  36.846   0.433
23704W        W88931  37.041  44.926   2.309
23705W        W88932   1.443  23.705   4.406
23706W        W88933   1.775  44.485  12.370
23707W        W88934  19.967  27.191  13.825
23708W        W88935  18.356  32.119  14.959
23709W        W88936  37.061  16.225   0.832
23710W        W88937  27.457  14.353  11.942
23711W        W88938   7.723   3.233   2.663
23712W        W88939  31.988  32.717   0.419
23713W        W88940  33.536  10.499  11.486
23714W        W88941  16.170  24.605   0.438
23715W        W88942  37.923   8.916  12.416
23716W        W88943  24.827   8.404   2.592
23717W        W88944  37.487  21.197  13.586
23718W        W88945  10.373  41.770   4.174
23719W        W88946   8.411   9.711   0.861
23720W        W88947  14.157   4.296  14.871
23721W        W88948   3.719  36.927  10.319
23722W        W88949  41.566  33.224   1.505
23723W        W88950  38.741  32.531  14.869
23724W        W88951  21.712  16.071  11.110
23725W        W88952  44.723  22.021   0.360
23726W        W88953  20.290   1.936   2.782
23727W        W88954  29.503   3.476  12.221
23728W        W88955  31.091  11.834   0.664
23729W        W88956  15.534   6.511  14.560
23730W        W88957  11.498  16.665  11.650
23731W        W88958  18.675   9.881   2.235
23732W        W88959  17.657  41.036   4.080
23733W        W88960  34.055  39.560   1.438
23734W        W88961  14.139  44.017  13.735
23735W        W88962  28.678  37.949  12.968
23736W        W88963  38.494  10.015   1.991
23737W        W88964  21.239  35.882  13.064
23738W        W88965  39.367  35.089   2.426
23739W        W88966  27.477   3.162  12.011
23740W        W88967  37.915  41.399   1.471
23741W        W88968  29.753  11.665  11.639
23742W        W88969  12.797  19.437   0.771
23743W        W88970  13.405  11.443   4.069
23744W        W88971  14.735   3.529   0.865
23745W        W88972  30.519   2.643  13.817
23746W        W88973  18.115  43.251   1.002
23747W        W88974  19.321  20.704  13.986
23748W        W88975  20.828  42.880   4.989
23749W        W88976  17.333   1.918   3.235
23750W        W88977  16.358  23.356  13.579
23751W        W88978  26.874   2.261   2.451
23752W        W88979  25.218  15.261   0.256
23753W        W88980  12.829  11.685  10.427
23754W        W88981  18.658  24.986   4.608
23755W        W88982  21.255  14.652  10.731
23756W        W88983  41.355  30.465  14.730
23757W        W88984  27.074   2.142   4.996
23758W        W88985   1.780  39.026   0.655
23759W        W88986  17.725   7.587   1.130
23760W        W88987  34.171  13.597  14.989
23761W        W88988   8.518  15.759   3.971
23762W        W88989  26.405   9.378  12.346
23763W        W88990  17.653  11.535  13.462
23764W        W88991  17.022   3.807   4.925
23765W        W88992   1.406  21.119  13.580
23766W        W88993  24.049   3.833   1.696
23767W        W88994  41.955  39.606   2.225
23768W        W88995   1.453  19.189   5.065
23769W        W88996  17.676  41.764   2.262
23770W        W88997  26.920  18.032   3.955
23771W        W88998  13.943  19.651   1.409
23772W        W88999  14.893  13.029   1.535
23773W        W89000   2.862  37.842  14.281
23774W        W89001  13.007  24.064  11.573
23775W        W89002  41.052  11.583   3.078
23776W        W89003  16.358  20.122  14.005
23777W        W89004  32.553  30.919  10.620
23778W        W89005  42.536  35.116   0.398
23779W        W89006  26.709  26.986  11.520
23780W        W89007  12.086  36.784   2.828
23781W        W89008  16.347  44.805   3.167
23782W        W89009  28.391  28.709  11.832
23783W        W89010  16.866  30.062   0.134
23784W        W89011  25.748  35.300   4.153
23785W        W89012  22.047  44.936  14.817
23786W        W89013  29.009  33.781  11.562
23787W        W89014  24.866  20.081   4.516
23788W        W89015  24.623   9.592   4.248
23789W        W89016  34.842  10.204  14.999
23790W        W89017   4.518   5.850   3.414
23791W        W89018  14.712  35.753  11.141
23792W        W89019  25.697  29.695   3.093
23793W        W89020  40.137  17.448   4.141
23794W        W89021   1.471  37.038   4.244
23795W        W89022  10.376  32.043   0.817
23796W        W89023  11.453  29.901  10.781
23797W        W89024  21.973   6.243   3.634
23798W        W89025  19.604  36.933  12.088
23799W        W89026  27.529  37.353  14.097
23800W        W89027  39.897  27.232   3.581
23801W        W89028  26.064  19.212   4.105
23802W        W89029  39.763  40.082  14.035
23803W        W89030  33.386  31.569  11.967
23804W        W89031   8.827  19.851   4.728
23805W        W89032  43.140  18.265   4.127
23806W        W89033  29.244  29.499   2.603
23807W        W89034   8.260  41.202   0.374
23808W        W89035   9.096  32.575   2.843
23809W        W89036  22.695  21.404  13.723
23810W        W89037   6.821  26.519  14.840
23811W        W89038  35.619  16.997   1.431
23812W        W89039  26.346  18.995  14.252
23813W        W89040  30.231  20.159  13.870
23814W        W89041  12.805   6.233  10.637
23815W        W89042  19.766  42.537   2.716
23816W        W89043  33.589   9.651   4.378
23817W        W89044   1.760  30.432  13.970
23818W        W89045  10.616  28.517   4.445
23819W        W89046  24.253  24.437   2.236
23820W        W89047   6.683  26.710  14.350
23821W        W89048  40.687   8.566   3.653
23822W        W89049  31.844  14.851   1.917
23823W        W89050  23.671   7.928  11.954
23824W        W89051   9.394  28.614  11.649
23825W        W89052  15.116  23.894   2.679
23826W        W89053  34.100   3.163  13.442
23827W        W89054   8.072  25.118   3.585
23828W        W89055  28.573  10.911  12.557
23829W        W89056  43.465  28.158   0.768
23830W        W89057  25.898  15.793  11.239
23831W        W89058  11.685  14.643   9.661
23832W        W89059  28.597  41.491   0.101
23833W        W89060  24.721  19.051   0.387
23834W        W89061  13.200  17.139  11.229
23835W        W89062  15.735   5.895  13.927
23836W        W89063   3.879  21.867  12.178
23837W        W89064  24.936  29.721  13.825
23838W        W89065  44.746   4.910  14.016
23839W        W89066  39.883  10.666   2.172
23840W        W89067  10.777  28.624  12.388
23841W        W89068   0.816  26.066  13.872
23842W        W89069  16.675  11.690   2.806
23843W        W89070  29.654   5.001   0.739
23844W        W89071  32.487  25.178   0.129
23845W        W89072  36.540  42.279  12.987
23846W        W89073  28.584  35.596   1.224
23847W        W89074  15.335  17.703   2.431
23848W        W89075  35.118  23.469  13.591
23849W        W89076  31.505  19.025  11.224
23850W        W89077  20.447  31.127  13.529
23851W        W89078  37.816  43.792  14.457
23852W        W89079  35.156   6.622   5.028
23853W        W89080  29.588  41.820  12.039
23854W        W89081  10.388  18.830   0.437
23855W        W89082  38.465   6.710  12.101
23856W        W89083  41.607  39.311  14.961
23857W        W89084  20.114  20.831   1.405
23858W        W89085  41.027  26.611  11.658
23859W        W89086  26.219   5.653  11.253
23860W        W89087  34.476  15.372  11.245
23861W        W89088   1.453  26.595  12.497
23862W        W89089  29.009  33.146   0.845
23863W        W89090  29.000   4.983   0.162
23864W        W89091   1.998  20.060  12.075
23865W        W89092  31.002   1.772  12.902
23866W        W89093  21.962  43.127  12.989
23867W        W89094   4.218   0.109  12.128
23868W        W89095  15.083   3.437  10.634
23869W        W89096  31.185   1.486  10.439
23870W        W89097  34.819  27.101   4.044
23871W        W89098  13.395  15.191   4.172
23872W        W89099  23.885  35.351   3.049
23873W        W89100  24.692  21.899  14.305
23874W        W89101  20.622   8.847   1.443
23875W        W89102  42.982  11.354   4.814
23876W        W89103  22.687  35.174   1.856
23877W        W89104   3.245  21.198   0.416
23878W        W89105  15.023   0.903   0.877
23879W        W89106  19.491  36.031   2.290
23880W        W89107  26.461  32.519  13.300
23881W        W89108   4.480  14.160  14.310
23882W        W89109  27.120  14.905  10.553
23883W        W89110  25.430  28.096  14.849
23884W        W89111  17.514  32.978  14.400
23885W        W89112  36.111  35.012  10.638
23886W        W89113  31.434   1.408  13.629
23887W        W89114  38.992  23.043  13.664
23888W        W89115  31.344   1.314  12.144
23889W        W89116  44.501  21.443  14.853
23890W        W89117   9.880  34.494   1.006
23891W        W89118  31.500   8.680  13.408
23892W        W89119  14.128  16.136  11.175
23893W        W89120  38.850  21.041  13.982
23894W        W89121  35.033  33.396   2.448
23895W        W89122  11.017  37.103   4.962
23896W        W89123  41.499   0.942   0.836
23897W        W89124  23.027  19.021   4.493
23898W        W89125   3.670   0.751   2.093
23899W        W89126  21.477   2.285  13.400
23900W        W89127   2.150  39.608   0.371
23901W        W89128  13.286  31.215  11.142
23902W        W89129  25.084   3.655   3.636
23903W        W89130  16.173  38.937   0.264
23904W        W89131  43.844  38.837   3.440
23905W        W89132  25.395   8.279   0.413
23906W        W89133   3.090   9.873   1.805
23907W        W89134   4.199   4.165  11.746
23908W        W89135  17.856   2.921  13.790
23909W        W89136  23.737  40.458  14.964
23910W        W89137   0.927  26.665  12.464
23911W        W89138  41.640  16.093   4.183
23912W        W89139  10.548  18.504   9.900
23913W        W89140  29.569  42.552  10.788
23914W        W89141  16.788  13.797   4.880
23915W        W89142  27.753   8.730  13.070
23916W        W89143  18.114  34.524   2.123
23917W        W89144  10.318   5.253   1.374
23918W        W89145   3.765  29.484   1.310
23919W        W89146  33.882  16.063  11.292
23920W        W89147   3.483  38.832   2.236
23921W        W89148  14.097   3.795   2.311
23922W        W89149  17.515  21.196  11.506
23923W        W89150  12.390   0.963  10.917
23924W        W89151  17.940  35.455  13.056
23925W        W89152  43.343  39.329  13.995
23926W        W89153   2.161   9.227   4.127
23927W        W89154  14.361  44.886   4.589
23928W        W89155  38.446  21.763   1.239
23929W        W89156  28.198  44.895   3.523
23930W        W89157   9.476  42.987  11.219
23931W        W89158   4.559  40.819  14.405
23932W        W89159   4.701  16.183  14.827
23933W        W89160  20.729  23.144   3.461
23934W        W89161  27.606  44.444  14.026
23935W        W89162  31.380  30.586   1.277
23936W        W89163  44.480  15.719  10.383
23937W        W89164  14.661  31.976  10.291
23938W        W89165  14.735  38.531  14.527
23939W        W89166  34.190  33.706  12.419
23940W        W89167   1.615  19.607  10.332
23941W        W89168  15.110   0.837   3.249
23942W        W89169   9.261  10.563  10.761
23943W        W89170  39.515  38.829   2.889
23944W        W89171   0.902  17.358   2.782
23945W        W89172   0.057  22.623   9.871
23946W        W89173   5.765  34.515  12.429
23947W        W89174  15.895  21.080   3.954
23948W        W89175  21.079  37.298   4.895
23949W        W89176  43.930  42.632   2.875
23950W        W89177  39.999   8.906  11.573
23951W        W89178   7.936  25.134   0.223
23952W        W89179   0.896   0.227   4.051
23953W        W89180  44.719   1.490   2.381
23954W        W89181  20.059  23.662   0.253
23955W        W89182   2.393  23.799   0.841
23956W        W89183  14.914  32.533   1.429
23957W        W89184  32.898  17.990   4.971
23958W        W89185   8.812  39.239  11.958
23959W        W89186  28.145   4.068   4.100
23960W        W89187  23.649  38.361   2.887
23961W        W89188  12.211  10.319  13.415
23962W        W89189  33.906  43.515  13.374
23963W        W89190  22.572   3.418  12.205
23964W        W89191  37.881  23.779  11.067
23965W        W89192  18.676  18.862  13.919
23966W        W89193  31.146  44.867   4.492
23967W        W89194   2.216   0.379   2.289
23968W        W89195   0.138  20.709  14.730
23969W        W89196  17.100   8.914   0.994
23970W        W89197  18.589  43.788   3.300
23971W        W89198  28.284  27.666   4.500
23972W        W89199   7.626  18.710  10.706
23973W        W89200  11.922  22.060  14.383
23974W        W89201  19.113  26.816   0.950
23975W        W89202  44.814  12.601   2.536
23976W        W89203  35.881  19.096   4.538
23977W        W89204  10.433  34.919  12.589
23978W        W89205  23.790  18.252  14.017
23979W        W89206  40.974  26.743  12.560
23980W        W89207  27.348  19.603   5.051
23981W        W89208  30.513  11.615  10.709
23982W        W89209  39.093  14.127   0.322
23983W        W89210  31.701   3.767   3.989
23984W        W89211  11.200  20.151  12.457
23985W        W89212   2.723  31.428  12.576
23986W        W89213   2.481  37.065  14.630
23987W        W89214  20.836  40.491  13.695
23988W        W89215  38.390   7.693  11.241
23989W        W89216   7.415  29.024  11.047
23990W        W89217  22.383  35.081   2.762
23991W        W89218  43.554  22.567   1.552
23992W        W89219  39.078  43.309   2.398
23993W        W89220  43.747  23.316  10.820
23994W        W89221  10.457  14.460  10.792
23995W        W89222  29.440  17.217  10.134
23996W        W89223  14.581   7.306   4.728
23997W        W89224   8.276   5.941   4.040
23998W        W89225   1.942  38.836   2.568
23999W        W89226   2.835  14.071  12.035
24000W        W89227  41.846  28.941  11.737
24001W        W89228  12.255  26.556   2.786
24002W        W89229  16.098  42.798  12.690
24003W        W89230   7.218  26.673  11.559
24004W        W89231  15.714  17.655   4.605
24005W        W89232  12.055  44.655   2.070
24006W        W89233  13.995  42.354   0.256
24007W        W89234  13.631   3.176   4.464
24008W        W89235  27.564  17.456  14.336
24009W        W89236  30.718  12.175   3.634
24010W        W89237   8.336  31.293   1.699
24011W        W89238  22.337  16.243  14.513
24012W        W89239   5.244  37.118  11.880
24013W        W89240  18.610  40.774  13.373
24014W        W89241  32.925  34.444   4.130
24015W        W89242   0.811  33.780   0.293
24016W        W89243  26.135  11.316  11.058
24017W        W89244  26.119  42.743   3.369
24018W        W89245   1.681  18.189  13.980
24019W        W89246  42.687  23.757   4.163
24020W        W89247   9.369  42.524   1.855
24021W        W89248  15.312  18.329  12.107
24022W        W89249  15.896  30.038   2.642
24023W        W89250  36.928  21.318   3.612
24024W        W89251   4.880  27.471  12.649
24025W        W89252  23.224  26.499   2.161
24026W        W89253   1.046  11.396  12.399
24027W        W89254   6.190   9.890  10.612
24028W        W89255  26.217  32.439   0.959
24029W        W89256  44.994   8.368   0.013
24030W        W89257  24.127   0.806  10.823
24031W        W89258   0.847   8.176   0.014
24032W        W89259   0.373  41.137   0.576
24033W        W89260  26.014  13.223  12.443
24034W        W89261  14.110  21.290  13.919
24035W        W89262  19.721  16.822  14.423
24036W        W89263  39.564  25.932  14.433
24037W        W89264  11.149  34.068   3.001
24038W        W89265  41.068  41.677  13.734
24039W        W89266  18.531   9.330   3.583
24040W        W89267  18.671  18.514   0.797
24041W        W89268   1.240  10.651   3.521
24042W        W89269   9.207  20.601   3.780
24043W        W89270  28.599  18.180  12.426
24044W        W89271  20.266  26.401   1.327
24045W        W89272   6.195  40.029   1.818
24046W        W89273  18.076  36.415  14.426
24047W        W89274  16.366  38.358  10.747
24048W        W89275   7.785  30.644   4.578
24049W        W89276  24.571  39.878  12.488
24050W        W89277  37.451  41.868   3.202
24051W        W89278  44.106  34.438  10.644
24052W        W89279  13.787  32.661   3.058
24053W        W89280  36.962  11.345   4.412
24054W        W89281  13.141   1.911  12.845
24055W        W89282  34.308  17.729   2.845
24056W        W89283  27.072  20.156   1.486
24057W        W89284  14.235  25.548   2.245
24058W        W89285   7.175  43.351   4.595
24059W        W89286  14.794  19.076   3.695
24060W        W89287   0.477  26.505   2.923
24061W        W89288  13.246  14.060  12.066
24062W        W89289  42.364  20.202   2.367
24063W        W89290  11.454   3.438   9.950
24064W        W89291  28.440  44.423  13.482
24065W        W89292  14.624  42.085   3.281
24066W        W89293  39.734  20.999  12.887
24067W        W89294  31.238  25.437   1.801
24068W        W89295  37.984   8.500  12.715
24069W        W89296   8.856  39.538   2.854
24070W        W89297   5.501  31.389   2.368
24071W        W89298  41.455  15.947   3.196
24072W        W89299   4.300   3.669   4.337
24073W        W89300  13.585  43.248   2.854
24074W        W89301  34.132   7.638   4.615
24075W        W89302  18.543  40.610   4.660
24076W        W89303  37.270  26.453   4.646
24077W        W89304  37.819  20.893  14.006
24078W        W89305  39.526  21.892  14.935
24079W        W89306  13.294  41.617   0.113
24080W        W89307  38.313   6.271   2.577
24081W        W89308  42.487   3.067  11.907
24082W        W89309  30.121   1.815  12.505
24083W        W89310  29.629  10.453  14.432
24084W        W89311  21.151   3.526   2.414
24085W        W89312  42.866  24.769  13.503
24086W        W89313  17.829  29.655  13.657
24087W        W89314  15.174  16.091  11.186
24088W        W89315  32.138  36.955  14.232
24089W        W89316   1.825  44.306  13.277
24090W        W89317   0.518  33.357  13.345
24091W        W89318  26.442  42.278  11.147
24092W        W89319  17.915   4.748  12.962
24093W        W89320  17.037   5.809   0.774
24094W        W89321   2.716  13.754   1.386
24095W        W89322   6.346  43.112   4.909
24096W        W89323  16.369   7.145   3.755
24097W        W89324  12.604   2.144   1.571
24098W        W89325  44.191  36.474   1.165
24099W        W89326  39.967  30.632  10.760
24100W        W89327  26.919  24.413  12.312
24101W        W89328  20.062   3.681  13.448
24102W        W89329  40.321  42.554   4.104
24103W        W89330   1.023  20.847   4.268
24104W        W89331  26.459   9.260  11.059
24105W        W89332  21.060  39.539   4.303
24106W        W89333   2.679  10.957  13.503
24107W        W89334  29.355  22.761  10.784
24108W        W89335   5.212   7.055   1.453
24109W        W89336  40.571   0.510  11.562
24110W        W89337  29.621  38.473   0.233
24111W        W89338  27.482  39.881  13.708
24112W        W89339  20.066  33.429   0.404
24113W        W89340  25.590   7.205   4.467
24114W        W89341  21.424  42.484   2.700
24115W        W89342  39.141  11.766   1.760
24116W        W89343  28.375  30.472  11.488
24117W        W89344  13.733  26.916  11.475
24118W        W89345   8.213  42.584  13.067
24119W        W89346   1.327  40.787   2.798
24120W        W89347  31.073  39.335   4.208
24121W        W89348  22.002  38.829  11.588
24122W        W89349  26.403  30.164   3.735
24123W        W89350  34.480   1.255   2.187
24124W        W89351   4.919  26.063  13.845
24125W        W89352  18.640  28.200  12.485
24126W        W89353   9.850  14.201   4.827
24127W        W89354  28.046  42.615   0.212
24128W        W89355  19.014  34.981   0.770
24129W        W89356  24.040  23.404   0.019
24130W        W89357  42.197  15.363   3.335
24131W        W89358   4.123   7.021   3.108
24132W        W89359  18.961  26.941   3.135
24133W        W89360  35.908  40.278  12.450
24134W        W89361  23.593  40.662   1.320
24135W        W89362   5.665   9.200   0.401
24136W        W89363  39.506   9.160  10.945
24137W        W89364  14.202  18.337  11.603
24138W        W89365  12.798  13.889  13.694
24139W        W89366   6.139   5.136   1.700
24140W        W89367  13.030  23.616  13.158
24141W        W89368   8.851  16.094  13.959
24142W        W89369  33.545  11.961   0.740
24143W        W89370  16.382   5.672  14.350
24144W        W89371  11.377  21.047  13.529
24145W        W89372  25.197  25.017  13.992
24146W        W89373  42.496  31.934   1.804
24147W        W89374  14.345  41.529   4.710
24148W        W89375  42.263  32.686  12.653
24149W        W89376   2.894   6.077   4.899
24150W        W89377  23.677  44.475  10.775
24151W        W89378  34.545  15.615   4.048
24152W        W89379  39.786  42.018  11.668
24153W        W89380  18.310  35.926   2.462
24154W        W89381  43.921  17.000  10.334
24155W        W89382  27.240  44.937   0.252
24156W        W89383  43.130   3.719   2.689
24157W        W89384  31.314  24.413  13.449
24158W        W89385  15.960  11.762  13.341
24159W        W89386   9.285  17.217  13.016
24160W        W89387  42.583  37.336  14.948
24161W        W89388  37.623  33.545   1.411
24162W        W89389  21.108  25.027   1.094
24163W        W89390  30.482  40.302   1.297
24164W        W89391  13.389  27.330   4.121
24165W        W89392  35.078   6.169   1.701
24166W        W89393  23.006  42.897   0.511
24167W        W89394   6.676  32.376   1.785
24168W        W89395  32.447  24.904  14.355
24169W        W89396  36.101  36.572   1.720
24170W        W89397  14.106  31.920  12.960
24171W        W89398  28.619  17.296  14.152
24172W        W89399  31.346  29.725  11.070
24173W        W89400  36.062  13.896  14.415
24174W        W89401  10.408  21.546  11.287
24175W        W89402  28.481   5.405  14.353
24176W        W89403  15.719   6.750   0.030
24177W        W89404  33.519  39.630   4.125
24178W        W89405  38.312  19.556  12.591
24179W        W89406  31.277  42.470   2.847
24180W        W89407   1.570  26.757  14.846
24181W        W89408  21.321   0.978   2.678
24182W        W89409  11.394  17.918   0.428
24183W        W89410  13.763   5.707   3.672
24184W        W89411  15.570  17.471  13.657
24185W        W89412  14.832  34.199  10.498
24186W        W89413   3.254  12.980   1.254
24187W        W89414  11.163  26.988  10.741
24188W        W89415  11.638  42.851  10.577
24189W        W89416  15.663  12.262  11.120
24190W        W89417  10.796  44.811   0.854
24191W        W89418  19.565  22.134   2.225
24192W        W89419  15.402   6.844  12.511
24193W        W89420  13.224  12.661   0.335
24194W        W89421  14.549  29.158   4.634
24195W        W89422   7.088  10.746  14.405
24196W        W89423  19.018  38.841   2.828
24197W        W89424  23.585  39.627   1.326
24198W        W89425  32.342   8.966   2.699
24199W        W89426  20.078  29.078   0.081
24200W        W89427  29.993   1.272  12.612
24201W        W89428  30.196  43.380   1.808
24202W        W89429  22.077  19.811   4.259
24203W        W89430  35.592  11.054   0.453
24204W        W89431   6.772  24.191  11.992
24205W        W89432  23.163  33.595  12.638
24206W        W89433  35.118  14.793  13.528
24207W        W89434  27.549   8.608  11.225
24208W        W89435  32.438  42.878  12.248
24209W        W89436  25.336  18.796   0.962
24210W        W89437  27.214   9.089   2.009
24211W        W89438  13.885  17.379  14.941
24212W        W89439  16.599  21.331  13.469
24213W        W89440  44.363  33.969  12.667
24214W        W89441  26.191  19.212  12.060
24215W        W89442  43.323   2.676   0.152
24216W        W89443  38.447  25.929   2.214
24217W        W89444  38.939  28.054  10.584
24218W        W89445  23.148  30.016   3.652
24219W        W89446  33.003  40.589   4.670
24220W        W89447  10.817  40.477  10.647
24221W        W89448  19.784  25.605   1.022
24222W        W89449  35.473  28.979  12.583
24223W        W89450  17.350  12.827   4.616
24224W        W89451  25.529  13.873  13.596
24225W        W89452  37.097  19.501   2.266
24226W        W89453   8.099  24.012  12.446
24227W        W89454  11.090   8.229  13.552
24228W        W89455  32.083  42.038   4.477
24229W        W89456  33.554  44.860   1.946
24230W        W89457  31.942   3.813   2.787
24231W        W89458  19.559  37.613   2.303
24232W        W89459  37.190  20.815   2.226
24233W        W89460   2.347  40.668   1.968
24234W        W89461  10.796  21.271   1.071
24235W        W89462  42.485  26.537  13.859
24236W        W89463   8.971   1.795  14.469
24237W        W89464  42.075   4.414  11.136
24238W        W89465  29.550  24.521   2.509
24239W        W89466  44.156  38.744  13.021
24240W        W89467  28.947  14.751   1.236
24241W        W89468  38.984  20.708   1.175
24242W        W89469   7.877  17.060  14.948
24243W        W89470   0.937   7.690   1.250
24244W        W89471  39.311  28.420   2.961
24245W        W89472  42.715  13.626   5.297
24246W        W89473   1.603   7.783  13.290
24247W        W89474  44.835  15.762   3.507
24248W        W89475  24.777  37.333   0.483
24249W        W89476  43.640  24.941   4.964
24250W        W89477   7.316   6.408  10.772
24251W        W89478  20.709  37.457   0.436
24252W        W89479   4.332  22.906   0.738
24253W        W89480  27.064  17.722  10.668
24254W        W89481  40.851  38.612  14.567
24255W        W89482  38.888  18.107   2.487
24256W        W89483   7.187  24.457  12.983
24257W        W89484   6.755  13.247  13.769
24258W        W89485  28.768  12.492   4.577
24259W        W89486  33.051  44.705   9.988
24260W        W89487  21.985  23.555   4.017
24261W        W89488  20.961  11.148  12.753
24262W        W89489  18.571   4.936  14.102
24263W        W89490  22.931  17.269   0.367
24264W        W89491  11.558  43.012   1.345
24265W        W89492  35.084   0.918  12.484
24266W        W89493  43.232  36.401   1.447
24267W        W89494  31.725   2.336   3.650
24268W        W89495   9.883  35.894  13.813
24269W        W89496  25.674  37.637   3.894
24270W        W89497  22.092   7.681  14.494
24271W        W89498  15.524  36.603   3.823
24272W        W89499  25.013  42.910   2.243
24273W        W89500  41.043  19.703   2.169
24274W        W89501   6.340  17.179  11.624
24275W        W89502  28.064   9.646  12.502
24276W        W89503  33.354  42.332   2.429
24277W        W89504   0.230   6.372  11.487
24278W        W89505  30.183  26.974  12.984
24279W        W89506  28.569  30.719  11.088
24280W        W89507  40.394  12.343   4.475
24281W        W89508  43.666   7.884  11.111
24282W        W89509   9.209  40.666   2.276
24283W        W89510  23.904  18.231  14.524
24284W        W89511   1.862  22.490  14.990
24285W        W89512  19.547  34.251   4.401
24286W        W89513  29.504  42.106  12.460
24287W        W89514  33.353   4.890  13.438
24288W        W89515  30.378  10.041  14.959
24289W        W89516  37.083  17.749   3.161
24290W        W89517  33.048  24.649  10.448
24291W        W89518  15.284  16.312  14.922
24292W        W89519  37.234   0.427   2.292
24293W        W89520  27.419  34.784  13.012
24294W        W89521  21.203  38.605  11.342
24295W        W89522  21.454   7.329   4.837
24296W        W89523   7.433  28.449   4.602
24297W        W89524   9.125  32.140   1.180
24298W        W89525  11.943  28.668   3.667
24299W        W89526  12.773  40.513  11.474
24300W        W89527  43.465  15.848   2.767
24301W        W89528  27.462  24.409  12.426
24302W        W89529   5.905  14.873   2.744
24303W        W89530  34.917  27.671   1.902
24304W        W89531  42.831  38.198   4.939
24305W        W89532  17.638   2.354   1.844
24306W        W89533  21.758   4.604   2.402
24307W        W89534  37.034  23.053  14.953
24308W        W89535  31.267  32.816  11.375
24309W        W89536  32.192  29.215   1.400
24310W        W89537  35.346  25.036   0.926
24311W        W89538  44.021  41.393  11.216
24312W        W89539  39.268  25.781  12.627
24313W        W89540  16.045  12.753   2.426
24314W        W89541  15.101  26.601  14.893
24315W        W89542   2.673  18.740   9.684
24316W        W89543  10.105  25.953  14.793
24317W        W89544   6.395  30.607   4.793
24318W        W89545  39.226   8.775  10.251
24319W        W89546  19.655  38.049   1.335
24320W        W89547  42.869  25.594  12.892
24321W        W89548  22.717  36.579  11.985
24322W        W89549  29.530   5.401   1.798
24323W        W89550  16.623   5.885  10.622
24324W        W89551   3.319  19.574   1.233
24325W        W89552  37.459   7.057  13.536
24326W        W89553   5.044  26.476  13.556
24327W        W89554  22.262  28.905   1.680
24328W        W89555  19.813  42.367   0.765
24329W        W89556  18.789  19.468  13.460
24330W        W89557  19.575  15.796  11.530
24331W        W89558  31.155  10.921  14.490
24332W        W89559  34.826   0.720   0.380
24333W        W89560  17.700  42.337   0.053
24334W        W89561  37.356  21.486  12.199
24335W        W89562  40.848  19.677   2.649
24336W        W89563  20.022  35.766  14.980
24337W        W89564  10.611  20.809  11.525
24338W        W89565  38.073  24.492  14.896
24339W        W89566  40.664  28.766  14.248
24340W        W89567  23.081  22.197   3.690
24341W        W89568  44.016  31.850   0.756
24342W        W89569  26.051  32.996  14.890
24343W        W89570  37.907  26.089   1.157
24344W        W89571   8.384  39.344  11.143
24345W        W89572  16.472  15.538  13.022
24346W        W89573  26.991   5.914  13.143
24347W        W89574  17.164  14.494   3.842
24348W        W89575  42.357   9.753   2.890
24349W        W89576  11.949  43.948   3.134
24350W        W89577  32.054  44.365  10.641
24351W        W89578  43.900  20.291   3.092
24352W        W89579  13.971  13.005   0.476
24353W        W89580   1.028  36.952   0.283
24354W        W89581  30.913  25.513  12.929
24355W        W89582  43.450  14.654  14.293
24356W        W89583  36.942  41.802  11.636
24357W        W89584  43.942  40.504   4.422
24358W        W89585  24.112  42.596   1.820
24359W        W89586  41.968  16.779   3.691
24360W        W89587  36.521   2.803   3.595
24361W        W89588   8.872  36.648   5.051
24362W        W89589  41.874  23.264  10.820
24363W        W89590  36.950  44.411   2.198
24364W        W89591  10.641   5.897   3.662
24365W        W89592  35.662  38.204  12.561
24366W        W89593   1.490  27.994  11.484
24367W        W89594  34.625  12.836   3.342
24368W        W89595  18.307   5.509  13.338
24369W        W89596  16.026  15.176  13.427
24370W        W89597  30.918  12.291  13.004
24371W        W89598  29.352  23.777  13.395
24372W        W89599  34.889   3.295   4.685
24373W        W89600  30.664  13.237  13.539
24374W        W89601  38.342  41.762   1.843
24375W        W89602  32.809  39.945  11.541
24376W        W89603  15.116  23.010   4.531
24377W        W89604  43.479   7.686  12.465
24378W        W89605  41.487  33.273   2.019
24379W        W89606  36.428  33.679  13.158
24380W        W89607  27.067   2.446  13.292
24381W        W89608  30.092  22.457   4.181
24382W        W89609   2.033  30.332   2.805
24383W        W89610  29.097  21.330  11.738
24384W        W89611   7.235  24.276  12.511
24385W        W89612  18.046  33.960  12.775
24386W        W89613  44.957  34.593   3.658
24387W        W89614   2.646  24.654   0.958
24388W        W89615  27.306  24.138  13.020
24389W        W89616  18.074   5.837  14.084
24390W        W89617  38.110  36.345   4.930
24391W        W89618  43.658   6.981   2.944
24392W        W89619  25.974  16.189   4.163
24393W        W89620  28.679  28.473  14.406
24394W        W89621  23.741  11.525   2.744
24395W        W89622  42.565   9.589  12.779
24396W        W89623  42.264  36.877  11.251
24397W        W89624  11.806  39.309  14.917
24398W        W89625  32.714   6.908  14.519
24399W        W89626  37.458  12.776   3.177
24400W        W89627  19.095  21.963  12.657
24401W        W89628  38.330  44.770   2.746
24402W        W89629  35.634  42.780   4.187
24403W        W89630  27.752  37.807   4.990
24404W        W89631  34.364  41.674   1.565
24405W        W89632  36.623   5.750  12.912
24406W        W89633   1.250  17.584  11.158
24407W        W89634  25.683  43.590  10.607
24408W        W89635  31.725   1.296  14.106
24409W        W89636   9.032  14.328  13.928
24410W        W89637  12.237  13.341  14.385
24411W        W89638   6.253  38.119  14.338
24412W        W89639   8.380   7.190   4.697
24413W        W89640  43.698  12.397  11.533
24414W        W89641  23.142   9.427  14.571
24415W        W89642   3.574  19.829  11.567
24416W        W89643  11.357  12.296   3.176
24417W        W89644  30.972   4.120   0.284
24418W        W89645  28.714  32.283  13.085
24419W        W89646  42.767  13.634   1.858
24420W        W89647  14.349  28.897  13.004
24421W        W89648   2.725  18.715   4.389
24422W        W89649  34.973  30.818  10.917
24423W        W89650  15.675  40.226   0.344
24424W        W89651  27.795  38.466  11.333
24425W        W89652  35.805  28.157   2.520
24426W        W89653  20.543  40.041  13.025
24427W        W89654  21.762  41.518   2.761
24428W        W89655   9.065   8.176   0.408
24429W        W89656  26.786  25.586  11.967
24430W        W89657   2.949  29.598  13.823
24431W        W89658  18.092   1.003  12.991
24432W        W89659  36.357  29.815   0.964
24433W        W89660  14.324  40.355   1.049
24434W        W89661  31.145   1.953  14.848
24435W        W89662  38.194   5.895   0.978
24436W        W89663  12.219  11.763  13.374
24437W        W89664  38.143  35.331   1.762
24438W        W89665  28.916   0.744  10.523
24439W        W89666  35.639  24.583   4.572
24440W        W89667   0.760   7.724  11.564
24441W        W89668  42.927  32.430  11.562
24442W        W89669  11.489  31.343   3.255
24443W        W89670  15.202  15.584  14.346
24444W        W89671  22.798  12.232   3.361
24445W        W89672  29.316  38.388  13.844
24446W        W89673  33.593   3.829  10.743
24447W        W89674  17.971  40.291  11.625
24448W        W89675   5.437   2.966   2.714
24449W        W89676  33.376  41.082  10.409
24450W        W89677  39.084  16.096  12.886
24451W        W89678  24.798   4.289   4.257
24452W        W89679  35.305  10.346   4.754
24453W        W89680  16.633  25.526  10.936
24454W        W89681  42.275  40.343  11.120
24455W        W89682   8.763  13.265  13.159
24456W        W89683  23.779  11.819  14.796
24457W        W89684   5.732  12.715   2.836
24458W        W89685   1.462  40.572  12.634
24459W        W89686   6.645  27.491   0.816
24460W        W89687   6.986  24.995   1.854
24461W        W89688  34.418  20.635   0.732
24462W        W89689  40.868  21.059   2.452
24463W        W89690  11.211   7.326   3.561
24464W        W89691  40.731  44.207  12.616
24465W        W89692   5.600  24.226   1.791
24466W        W89693  27.505  16.764  12.836
24467W        W89694  32.836   7.641   4.920
24468W        W89695  28.401  27.575   0.726
24469W        W89696  35.932  25.188   1.714
24470W        W89697   1.810  37.321   4.550
24471W        W89698  43.685   1.379   3.279
24472W        W89699  27.594  14.869  14.100
24473W        W89700  28.053  23.843   3.115
24474W        W89701  34.585   0.224  13.908
24475W        W89702   3.062  17.268  11.545
24476W        W89703  27.859  39.446  11.089
24477W        W89704  36.785   2.710  14.373
24478W        W89705  39.888   6.984   2.849
24479W        W89706  14.389  26.011   4.236
24480W        W89707  32.153  35.827  14.917
24481W        W89708  33.704  38.106  12.462
24482W        W89709  25.604   2.809  13.431
24483W        W89710  33.360   5.462  11.746
24484W        W89711  39.536  26.060   2.102
24485W        W89712  28.533  10.405  12.399
24486W        W89713  22.487  43.992   0.027
24487W        W89714  33.543   9.671   4.926
24488W        W89715   2.649  35.049   3.391
24489W        W89716   7.702  14.347   4.088
24490W        W89717   2.382   8.290  14.292
24491W        W89718   3.649  26.013   2.245
24492W        W89719  13.935  30.099   1.029
24493W        W89720   0.111  19.368   0.786
24494W        W89721   6.763  23.015  14.979
24495W        W89722   2.313  27.649  12.869
24496W        W89723  11.101   6.146   2.826
24497W        W89724  21.984  23.603  14.123
24498W        W89725  22.536  34.385  14.911
24499W        W89726  29.896  42.376  10.429
24500W        W89727  39.735  27.391   1.277
24501W        W89728  11.151   1.757   3.309
24502W        W89729  36.594   2.561  11.622
24503W        W89730  43.274  34.506   4.204
24504W        W89731  28.197   9.905  12.040
24505W        W89732  13.599  15.077   2.878
24506W        W89733   0.467  12.763   1.828
24507W        W89734  43.767  26.605  12.988
24508W        W89735  14.129  22.533   2.116
24509W        W89736  42.428   1.064   4.596
24510W        W89737   5.978  24.147  13.015
24511W        W89738  12.824  14.081  10.929
24512W        W89739  27.559  34.822   2.515
24513W        W89740  34.851  24.706  10.676
24514W        W89741   7.798   9.576   3.090
24515W        W89742  13.784  32.066   3.123
24516W        W89743  19.352  18.818   4.081
24517W        W89744   0.683  14.108   0.027
24518W        W89745  10.769  19.809   0.965
24519W        W89746  21.015  25.380   1.860
24520W        W89747  41.124  20.756  13.745
24521W        W89748   1.567  12.784   3.613
24522W        W89749  13.830  11.593   0.208
24523W        W89750   3.433  19.268  11.531
24524W        W89751  40.892  34.634  14.826
24525W        W89752   5.777  24.796   2.947
24526W        W89753  19.059   1.921  14.710
24527W        W89754  31.902  26.638   2.159
24528W        W89755  38.509  36.403   4.542
24529W        W89756  26.104  28.452   0.338
24530W        W89757  26.499  29.156   4.143
24531W        W89758  40.970  23.605   2.937
24532W        W89759  13.761  23.679  11.448
24533W        W89760  27.774   8.697   1.310
24534W        W89761  17.384  38.576  12.046
24535W        W89762  14.010   6.492   4.531
24536W        W89763  29.187  32.225  11.168
24537W        W89764  16.336  38.889  11.094
24538W        W89765  15.598  29.992   4.590
24539W        W89766  18.476  19.057   2.949
24540W        W89767  42.781  22.804  12.054
24541W        W89768   3.790  16.611   4.444
24542W        W89769  16.611  14.609  14.953
24543W        W89770  15.711  25.059  14.990
24544W        W89771  34.548  18.763  10.526
24545W        W89772  14.593  37.332  12.471
24546W        W89773  25.420   0.405   2.733
24547W        W89774   3.464  35.104   0.017
24548W        W89775   9.082  35.912  11.985
24549W        W89776  17.322   2.007  13.890
24550W        W89777  24.781   3.816  10.989
24551W        W89778   4.750  40.211   1.867
24552W        W89779   6.084  10.154  12.151
24553W        W89780  29.661   0.978   1.697
24554W        W89781   8.819  19.015  10.597
24555W        W89782  44.421  42.489  14.549
24556W        W89783  42.258  19.507  14.467
24557W        W89784  20.044  37.799   4.101
24558W        W89785   7.481  21.315   0.919
24559W        W89786   4.922  32.219  12.992
24560W        W89787  11.004  36.898  14.289
24561W        W89788  14.743  28.681   4.466
24562W        W89789  28.555   6.620  14.870
24563W        W89790  30.647  18.622  10.771
24564W        W89791  31.864  30.062   2.327
24565W        W89792  30.616  15.717  10.781
24566W        W89793  16.216   1.747   4.617
24567W        W89794  20.115  29.417  12.342
24568W        W89795  26.562   1.042   4.173
24569W        W89796  19.999  24.984   4.490
24570W        W89797   0.925  15.077  13.982
24571W        W89798  42.311  37.065   4.254
24572W        W89799  39.956  41.922   1.196
24573W        W89800  13.056  13.892  10.508
24574W        W89801  44.392   2.656   2.944
24575W        W89802  43.287  15.654   1.712
24576W        W89803  40.477  26.963   1.671
24577W        W89804  10.620  44.384  11.081
24578W        W89805  15.103  16.808  13.033
24579W        W89806   7.635  40.054   2.856
24580W        W89807  17.746  13.100   1.882
24581W        W89808   9.297  35.386  10.811
24582W        W89809   2.430  38.902   2.346
24583W        W89810   3.899   0.817  13.440
24584W        W89811   7.483  18.850  13.490
24585W        W89812   3.411  40.615   1.949
24586W        W89813  30.871  23.762  14.425
24587W        W89814  19.013  24.619   2.239
24588W        W89815  17.974  44.778  11.249
24589W        W89816  37.888  23.506  12.328
24590W        W89817   9.347  16.029  12.216
24591W        W89818  42.880   0.288   3.699
24592W        W89819  42.933  19.916  12.748
24593W        W89820  23.025  12.865   1.457
24594W        W89821  32.091  42.287   3.984
24595W        W89822   9.751  32.895  13.941
24596W        W89823  43.878  23.698  11.172
24597W        W89824   5.485  30.430  14.435
24598W        W89825  41.546  16.350  13.003
24599W        W89826  43.920  43.350  11.779
24600W        W89827  41.712  19.715   1.298
24601W        W89828   8.810  42.266  12.028
24602W        W89829   9.221  23.641   3.234
24603W        W89830  18.641  22.277  14.327
24604W        W89831  14.729  23.324   0.449
24605W        W89832  35.020  40.097  11.315
24606W        W89833   8.273  20.651  11.719
24607W        W89834  27.490  13.318   2.591
24608W        W89835   7.073  33.316   3.169
24609W        W89836  20.158  10.610  14.918
24610W        W89837  24.542  21.139  12.429
24611W        W89838   7.388  43.150  11.115
24612W        W89839   8.364  25.743  11.529
24613W        W89840  13.729  11.341   4.450
24614W        W89841  43.769  27.101   4.838
24615W        W89842  38.062  28.557  12.892
24616W        W89843  43.794   3.072   2.312
24617W        W89844  33.171  43.719   3.634
24618W        W89845  19.661  41.863   0.952
24619W        W89846  25.209  18.565  13.231
24620W        W89847  25.178  32.019   2.723
24621W        W89848  19.648  19.630   1.781
24622W        W89849  35.326   9.280  14.956
24623W        W89850  44.524   0.392   0.385
24624W        W89851  36.432  14.063   0.494
24625W        W89852   6.113  25.965  14.569
24626W        W89853   0.057  41.254   1.693
24627W        W89854   8.089  24.545   2.397
24628W        W89855  15.865   7.838  14.068
24629W        W89856  27.386   1.711  13.120
24630W        W89857  39.208   6.315   0.131
24631W        W89858  42.614   4.945   2.850
24632W        W89859   4.711  37.466   4.470
24633W        W89860  41.067  19.585   1.666
24634W        W89861  19.094   3.426  12.429
24635W        W89862  12.634  19.089   1.162
24636W        W89863  23.530  14.770   4.471
24637W        W89864  40.451  38.303  14.415
24638W        W89865  41.294  43.459   1.782
24639W        W89866  16.011  42.493  14.302
24640W        W89867  40.600  24.384   3.780
24641W        W89868  42.576  23.612   1.824
24642W        W89869   7.681  44.053  14.431
24643W        W89870   0.804  21.765  13.736
24644W        W89871   1.492  30.099  14.265
24645W        W89872   0.456   3.706  13.549
24646W        W89873   1.720   1.417   1.184
24647W        W89874  44.580  39.490   0.557
24648W        W89875  33.791   0.277   4.576
24649W        W89876  33.906  34.838   2.694
24650W        W89877  43.990   6.748   4.862
24651W        W89878  10.685  14.961   2.891
24652W        W89879   6.608  29.862  14.827
24653W        W89880   2.352  25.507   3.693
24654W        W89881  23.995  23.484   1.298
24655W        W89882   9.324  29.359  13.514
24656W        W89883  43.978  40.719   0.248
24657W        W89884  31.731  42.139   2.891
24658W        W89885  21.940  31.643  11.189
24659W        W89886  27.415  14.776   1.747
24660W        W89887   8.071  16.195  14.457
24661W        W89888  25.461   6.301   2.314
24662W        W89889   8.267  24.444  14.916
24663W        W89890  34.454  16.926  10.691
24664W        W89891  32.398   7.795   3.868
24665W        W89892   5.442  19.897  14.463
24666W        W89893   8.096   7.646  12.125
24667W        W89894   4.400   6.057   1.570
24668W        W89895  29.690  25.570  12.500
24669W        W89896  36.384  11.924   3.300
24670W        W89897  13.839   7.413  11.632
24671W        W89898   7.679  24.539   3.862
24672W        W89899   8.693  28.274   1.305
24673W        W89900  16.176   7.698   2.167
24674W        W89901  42.729  34.588  10.177
24675W        W89902   7.755  32.180   2.845
24676W        W89903  14.359   8.801  14.025
24677W        W89904   9.652  42.911  14.039
24678W        W89905  13.213  24.947   0.556
24679W        W89906  36.931  28.938   1.230
24680W        W89907  22.927  34.383   0.397
24681W        W89908   1.433  41.994   0.990
24682W        W89909  10.150  35.788  13.367
24683W        W89910  34.244  34.021   1.191
24684W        W89911  12.302   2.975   2.415
24685W        W89912  32.040  35.474  12.108
24686W        W89913  36.375  40.508  11.979
24687W        W89914  31.078  41.517   2.771
24688W        W89915  17.206   3.040   0.797
24689W        W89916  14.883  21.693   2.651
24690W        W89917  44.711   4.167  11.781
24691W        W89918  10.568  21.520  14.619
24692W        W89919  17.240  34.754   1.621
24693W        W89920  32.036  10.941   0.388
24694W        W89921  28.496  12.642  12.780
24695W        W89922  11.576  33.672   1.825
24696W        W89923   5.804  19.177   4.191
24697W        W89924  15.192  33.884   4.540
24698W        W89925  19.557  24.200  12.286
24699W        W89926  41.229  26.157  13.826
24700W        W89927   8.210  19.065  11.675
24701W        W89928   2.359  41.838  11.904
24702W        W89929  22.578  10.761  14.785
24703W        W89930  38.365   4.022   0.787
24704W        W89931  14.964  21.692  12.547
24705W        W89932  17.370  24.800  14.774
24706W        W89933  41.280  12.111   4.180
24707W        W89934  15.603  19.602   3.946
24708W        W89935  20.286  36.123   0.257
24709W        W89936   0.937   1.381   0.988
24710W        W89937  24.524  12.313   1.651
24711W        W89938   6.364  35.986   0.270
24712W        W89939  11.867   1.776   2.870
24713W        W89940   2.909  38.967  13.151
24714W        W89941  15.507  23.731  14.742
24715W        W89942  44.075  26.457  14.712
24716W        W89943  23.005  14.086   0.886
24717W        W89944  25.504  29.198  13.022
24718W        W89945  27.586  15.680  12.519
24719W        W89946   7.499  33.659   1.296
24720W        W89947  23.927  31.095  12.855
24721W        W89948  23.636   6.927  10.492
24722W        W89949   9.443  24.211   0.759
24723W        W89950  10.215  32.090   3.594
24724W        W89951  21.476   0.448  13.973
24725W        W89952  11.645  31.276  14.042
24726W        W89953   4.432  28.139   1.277
24727W        W89954  43.472   4.282   2.663
24728W        W89955  38.609   3.262   2.578
24729W        W89956  25.928  22.675   1.852
24730W        W89957  39.192  14.283   0.985
24731W        W89958  38.065  38.545   1.071
24732W        W89959  44.257  18.236  11.940
24733W        W89960   7.386  41.514   2.008
24734W        W89961   8.391  34.953  14.780
24735W        W89962  16.779  11.646   1.310
24736W        W89963  19.957   0.376   4.646
24737W        W89964  13.299  33.073   0.752
24738W        W89965  38.218  32.074   1.158
24739W        W89966  19.782  14.272  11.381
24740W        W89967  30.675  38.298  13.457
24741W        W89968  29.661  37.430  14.600
24742W        W89969  35.602   0.728   1.074
24743W        W89970   7.160   8.251   1.091
24744W        W89971  26.267  13.257   4.271
24745W        W89972   5.601  32.713   0.187
24746W        W89973  10.198  18.670  12.999
24747W        W89974  17.661  35.149  11.535
24748W        W89975  16.650  35.837  14.742
24749W        W89976  28.702   6.704   1.556
24750W        W89977  17.953  29.646  10.571
24751W        W89978   9.279   4.383  11.548
24752W        W89979  15.314  40.752   1.897
24753W        W89980  21.579  24.944  12.530
24754W        W89981   2.446  42.799  12.902
24755W        W89982  12.910  37.507  12.538
24756W        W89983   0.245  38.966  11.748
24757W        W89984  23.203  20.110  12.418
24758W        W89985  16.346  14.860   1.280
24759W        W89986   3.338   0.327   2.048
24760W        W89987  24.263   8.812   1.878
24761W        W89988  12.253  28.251  12.586
24762W        W89989   9.314  12.376   4.542
24763W        W89990   7.133  39.917  13.381
24764W        W89991  17.746  43.476  14.508
24765W        W89992  41.253   8.382  14.804
24766W        W89993  21.258  18.838   1.011
24767W        W89994   2.779  43.061  11.647
24768W        W89995   6.857  34.478  12.641
24769W        W89996  32.882  20.470  13.906
24770W        W89997  21.332  41.327   3.643
24771W        W89998  23.900  27.248   1.135
24772W        W89999  33.201  39.929  14.534
24773W        W90000  30.378  16.669   4.116
24774W        W90001  11.766  40.471  10.589
24775W        W90002  35.421  18.951  13.190
24776W        W90003  32.828   1.546   5.015
24777W        W90004   8.069  11.774  14.419
24778W        W90005  41.048  29.438   1.748
24779W        W90006  32.044  23.711   1.722
24780W        W90007  26.693   5.887   3.604
24781W        W90008   6.386   2.348  13.012
24782W        W90009   7.861  11.201   0.327
24783W        W90010  37.278  21.162   2.671
24784W        W90011  12.086  10.876  12.924
24785W        W90012   5.255  42.824  12.056
24786W        W90013  43.668  30.702   0.224
24787W        W90014  42.409  27.058  12.389
24788W        W90015  28.049  27.574  11.986
24789W        W90016  28.904   6.680  12.312
24790W        W90017   0.112  23.722   5.317
24791W        W90018   6.735  17.095   2.543
24792W        W90019  23.636  34.321   1.298
24793W        W90020  44.073  21.994   4.238
24794W        W90021  35.827   9.554   1.051
24795W        W90022  23.777  20.075  14.326
24796W        W90023  12.612  30.577   3.477
24797W        W90024  19.925  23.492  12.098
24798W        W90025  32.226  18.547   2.784
24799W        W90026  21.777   5.714   0.028
24800W        W90027   9.445  27.706   4.115
24801W        W90028  28.951  23.962   2.201
24802W        W90029  14.963  37.635   4.986
24803W        W90030  20.062  43.826  12.843
24804W        W90031  22.462   3.039   2.038
24805W        W90032  13.663   1.942   2.331
24806W        W90033  42.772  26.076  13.739
24807W        W90034   8.891   0.869   0.473
24808W        W90035  12.397   0.836  12.856
24809W        W90036  21.092  27.409   0.456
24810W        W90037  19.386  20.212  10.619
24811W        W90038  13.280   8.694   3.570
24812W        W90039  26.537  14.699   4.604
24813W        W90040  12.552  13.541  13.985
24814W        W90041   6.191  43.477  14.488
24815W        W90042   4.781  33.958  11.349
24816W        W90043  20.025  43.386   1.893
24817W        W90044  44.336   0.145  10.691
24818W        W90045  33.315  41.489  13.073
24819W        W90046  29.599  28.114  14.268
24820W        W90047   0.627  21.597   0.514
24821W        W90048   7.776   2.758   4.089
24822W        W90049  26.691   6.724   2.121
24823W        W90050  35.844  25.940  11.661
24824W        W90051  27.144  24.860  11.071
24825W        W90052  43.935  10.228   3.965
24826W        W90053  35.904   0.895  11.618
24827W        W90054  44.062  13.382   4.030
24828W        W90055   3.481   2.693  13.429
24829W        W90056  30.115  38.688   4.690
24830W        W90057   9.246  42.782   2.305
24831W        W90058  43.056   2.386   4.745
24832W        W90059  30.990  43.411   2.349
24833W        W90060  43.377  10.814  13.299
24834W        W90061   1.307   7.101   1.781
24835W        W90062   0.787   6.277  12.635
24836W        W90063  25.287  16.306   1.318
24837W        W90064  17.924  31.215  11.642
24838W        W90065  13.016  21.557   2.193
24839W        W90066  42.379  29.024  13.955
24840W        W90067  13.379  43.344   4.682
24841W        W90068  32.429  40.085  11.895
24842W        W90069  41.997  27.050   0.476
24843W        W90070  42.436   2.967  13.648
24844W        W90071  19.210  24.762   0.916
24845W        W90072  38.000   1.535  13.976
24846W        W90073  10.315   6.650  14.357
24847W        W90074  16.027  15.051   0.608
24848W        W90075  10.675  21.888   0.371
24849W        W90076   0.792   4.602  13.406
24850W        W90077  14.163  30.856  14.872
24851W        W90078  11.677  27.518   4.534
24852W        W90079  11.487  12.615   3.571
24853W        W90080  27.635  39.040  12.122
24854W        W90081   7.865  15.281   3.182
24855W        W90082  34.943  19.777  14.527
24856W        W90083  16.625   1.684   2.752
24857W        W90084  14.134  41.733   0.851
24858W        W90085  39.272  17.106  12.975
24859W        W90086  24.296  43.785   2.293
24860W        W90087  43.822  23.695   3.339
24861W        W90088  31.047   4.676   3.816
24862W        W90089  40.605   1.899   4.021
24863W        W90090  37.068  25.297  11.704
24864W        W90091  15.483  14.338  11.828
24865W        W90092  19.232  10.842   2.624
24866W        W90093  13.299  13.799  10.983
24867W        W90094  38.463  21.763   2.557
24868W        W90095  14.597  11.497   3.312
24869W        W90096   8.344  44.263   4.124
24870W        W90097   7.728   2.271   0.944
24871W        W90098  34.000  29.253  14.942
24872W        W90099  31.683  42.915   4.469
24873W        W90100  25.133  17.971  13.767
24874W        W90101   6.553  44.120   2.983
24875W        W90102  26.199  12.554   2.758
24876W        W90103  30.331  24.659  14.426
24877W        W90104  36.851  22.075  12.558
24878W        W90105  31.871  23.529   0.369
24879W        W90106  14.114  37.895  11.090
24880W        W90107  30.510  29.904  13.994
24881W        W90108  37.575   2.262  14.265
24882W        W90109   4.892  41.684  13.478
24883W        W90110  23.221   4.223   1.380
24884W        W90111   3.794  41.817   1.995
24885W        W90112  40.988   5.918   1.895
24886W        W90113   4.606  21.142   5.243
24887W        W90114  10.950   8.746  14.889
24888W        W90115  41.824   2.235  14.874
24889W        W90116  25.769  36.986   0.896
24890W        W90117  32.507  23.258  13.566
24891W        W90118  27.990  38.802   2.430
24892W        W90119  30.542  33.333  13.418
24893W        W90120  19.100  16.330  12.103
24894W        W90121   5.289  40.884   2.623
24895W        W90122  17.913  10.656   4.757
24896W        W90123  32.446  38.596   2.292
24897W        W90124  18.307  11.145  12.029
24898W        W90125  16.042  42.892  11.283
24899W        W90126   4.066  34.978   0.351
24900W        W90127  25.174  20.165  14.361
24901W        W90128  23.171  37.340   2.178
24902W        W90129  22.143  44.944  12.800
24903W        W90130  13.645  11.162  10.727
24904W        W90131  10.113  42.032   3.744
24905W        W90132  12.600  25.909  11.409
24906W        W90133   2.596   5.752   4.601
24907W        W90134   8.120  34.838  12.408
24908W        W90135  43.961  13.848   3.360
24909W        W90136  32.565  42.781   4.441
24910W        W90137  31.591  29.916   0.396
24911W        W90138   2.805  40.400  12.467
24912W        W90139  29.239  44.718  13.414
24913W        W90140  32.647  28.738  13.869
24914W        W90141   4.724   3.082  13.933
24915W        W90142  44.352  11.390   4.602
24916W        W90143  10.390  24.186  12.968
24917W        W90144  19.317  10.199  12.349
24918W        W90145  44.349   8.378   4.269
24919W        W90146  18.072  38.507  11.562
24920W        W90147  37.065  18.905   4.979
24921W        W90148  35.829  14.867  11.689
24922W        W90149  11.996   2.638   0.072
24923W        W90150  22.752  21.517  11.660
24924W        W90151  41.706  14.958  12.731
24925W        W90152   4.785  32.843   4.935
24926W        W90153  15.732  33.640   2.853
24927W        W90154  36.099  34.986   0.281
24928W        W90155  36.565  13.473  11.535
24929W        W90156  24.697  43.973  12.470
24930W        W90157   0.794   4.966   1.206
24931W        W90158  18.854  17.263  12.293
24932W        W90159   5.160  27.068  14.808
24933W        W90160  22.719  40.193   0.339
24934W        W90161   5.194  37.304   4.572
24935W        W90162  33.646  31.166  14.309
24936W        W90163  15.246   9.225  12.118
24937W        W90164  16.242  17.004  10.803
24938W        W90165   5.388  26.731  12.434
24939W        W90166  17.176  14.503  12.053
24940W        W90167  39.810  11.207  14.104
24941W        W90168  26.047  25.831   3.631
24942W        W90169   4.088  19.656  10.808
24943W        W90170  31.724  27.684  13.562
24944W        W90171  28.525  17.851   3.699
24945W        W90172  23.474  41.770   2.478
24946W        W90173  19.800  44.642   1.440
24947W        W90174  15.340  39.119  14.857
24948W        W90175  10.093   6.427   1.853
24949W        W90176  43.804  25.633  12.534
24950W        W90177   8.800  11.617  14.907
24951W        W90178  34.543  32.860  12.537
24952W        W90179  23.707   5.839   0.092
24953W        W90180  22.735  22.744  13.501
24954W        W90181   9.964   6.440  10.975
24955W        W90182  13.556  19.642  11.188
24956W        W90183  36.583  36.556   0.857
24957W        W90184   4.192  14.898  11.698
24958W        W90185  28.947  14.519  14.506
24959W        W90186  19.270  27.421   1.815
24960W        W90187   9.893  33.559   2.726
24961W        W90188  39.771  28.904   1.419
24962W        W90189   7.003  23.071  12.642
24963W        W90190  24.574  13.337   3.119
24964W        W90191   2.635   5.398  11.188
24965W        W90192  38.113   1.034  12.032
24966W        W90193  37.089   9.089  12.169
24967W        W90194  44.927  37.414   4.609
24968W        W90195  27.755  33.422   0.203
24969W        W90196  23.699  15.629  12.593
24970W        W90197  21.310  43.700  10.801
24971W        W90198   4.753  31.653  13.381
24972W        W90199  21.478  30.983   4.651
24973W        W90200  43.572  31.605   2.421
24974W        W90201  17.705  25.343   0.316
24975W        W90202  14.675  18.321   1.508
24976W        W90203  30.463  42.450   4.648
24977W        W90204  10.342  22.322   2.327
24978W        W90205  42.309  42.712  11.198
24979W        W90206  42.758   7.821   3.276
24980W        W90207  20.184   0.261  11.685
24981W        W90208   5.381  18.071  13.477
24982W        W90209   4.750  29.210  13.149
24983W        W90210  35.870   9.422   1.761
24984W        W90211  10.759  34.618  11.190
24985W        W90212  19.020  12.777   1.822
24986W        W90213   5.280  20.711  11.430
24987W        W90214  19.062  15.849  13.035
24988W        W90215  37.001  12.204   4.071
24989W        W90216   2.012  28.251   4.823
24990W        W90217  32.841  39.810  12.072
24991W        W90218  31.135  18.091  14.744
24992W        W90219  28.975  19.249   2.301
24993W        W90220  27.310  10.937  13.430
24994W        W90221  19.398  40.315   3.963
24995W        W90222  30.510  30.196   2.735
24996W        W90223   1.753  13.445   1.779
24997W        W90224  25.110  21.707  13.037
24998W        W90225  14.249  42.051   1.811
24999W        W90226  39.829  12.457  13.545
25000W        W90227  43.627  26.223  13.957
25001W        W90228  43.553  39.722   3.291
25002W        W90229  40.527  19.689   2.222
25003W        W90230  23.957  19.794   2.640
25004W        W90231  11.266   6.581   1.573
25005W        W90232   1.482  36.208   4.547
25006W        W90233  11.063  17.490  13.555
25007W        W90234  33.468   3.235   0.802
25008W        W90235  21.946   5.230  11.222
25009W        W90236  19.771  28.642   2.842
25010W        W90237  35.618  38.271   3.445
25011W        W90238  37.395  28.645   1.872
25012W        W90239  29.514   4.145   3.641
25013W        W90240  25.485  39.477  12.675
25014W        W90241   3.918  37.884  11.612
25015W        W90242  38.968  44.638   2.545
25016W        W90243  42.480  19.325  14.012
25017W        W90244  16.129  12.353   3.112
25018W        W90245   7.297  26.154   3.366
25019W        W90246  31.125   1.694   4.588
25020W        W90247  34.365  28.675   0.756
25021W        W90248  41.421  18.075  13.400
25022W        W90249  17.741  41.280  12.908
25023W        W90250  13.112   4.511  12.131
25024W        W90251  35.882  12.051   3.473
25025W        W90252  40.025  20.931   2.562
25026W        W90253  36.118  33.126   0.842
25027W        W90254  25.391   5.802  14.441
25028W        W90255  29.934  38.162  12.094
25029W        W90256  14.284  29.121   0.315
25030W        W90257  18.371   8.149   2.452
25031W        W90258   7.228   1.999  12.681
25032W        W90259  34.200  37.892  12.920
25033W        W90260  40.888  36.077   4.592
25034W        W90261   0.453  13.494  13.392
25035W        W90262  44.465  43.678   1.579
25036W        W90263   3.501  28.143  10.692
25037W        W90264  17.974  32.346  12.999
25038W        W90265  26.928  32.221   3.266
25039W        W90266  37.005   9.097   0.458
25040W        W90267   8.389  40.823   4.589
25041W        W90268  36.203  26.191   4.058
25042W        W90269  23.164   0.279  11.608
25043W        W90270  35.929  20.299   2.460
25044W        W90271  23.671  20.917   1.018
25045W        W90272  23.313  36.720  11.232
25046W        W90273   4.938  30.057  10.830
25047W        W90274  41.794   9.130   4.476
25048W        W90275  37.933  43.225   4.619
25049W        W90276  40.251  32.409  14.719
25050W        W90277  44.248  29.837  11.940
25051W        W90278  32.081   4.436   0.886
25052W        W90279   0.712  18.634  11.703
25053W        W90280  24.316  39.642  14.512
25054W        W90281  37.450  11.837  12.995
25055W        W90282  22.354  12.859   5.020
25056W        W90283  15.868   8.250   1.234
25057W        W90284  10.349  30.015   1.426
25058W        W90285  37.491  38.274  14.538
25059W        W90286  21.982  30.827   4.719
25060W        W90287  30.313  36.012   2.578
25061W        W90288  17.146   8.087  12.026
25062W        W90289   7.997  28.519   2.789
25063W        W90290   5.356  18.575  13.322
25064W        W90291  29.876  14.535   4.418
25065W        W90292  33.627   7.625  11.139
25066W        W90293  40.387  27.780  13.586
25067W        W90294   1.101  35.907   1.631
25068W        W90295  11.260  21.641   4.691
25069W        W90296  42.814  33.029  11.571
25070W        W90297  33.543  37.143  13.952
25071W        W90298   9.446  43.976   0.823
25072W        W90299  11.095  17.461  12.488
25073W        W90300   9.171   5.226   4.831
25074W        W90301  25.266   0.190   0.376
25075W        W90302   3.809   1.705   3.725
25076W        W90303  28.253  36.075  10.614
25077W        W90304  18.198  12.571   2.391
25078W        W90305  29.689   8.957  14.210
25079W        W90306  23.692  26.715   4.037
25080W        W90307  33.253  14.955  11.582
25081W        W90308   4.241  25.828  12.006
25082W        W90309  37.991  34.012   0.324
25083W        W90310  12.029  38.004   2.841
25084W        W90311   7.168  12.363  13.348
25085W        W90312   3.778  24.855  10.291
25086W        W90313   8.914  22.248   1.277
25087W        W90314   4.921  36.442   3.665
25088W        W90315  24.949  32.454   2.344
25089W        W90316  42.839  35.009   4.179
25090W        W90317  14.657  38.672   0.039
25091W        W90318  33.980   3.989  12.414
25092W        W90319  36.273   9.057   4.974
25093W        W90320  18.579  27.863   4.274
25094W        W90321  19.795  33.853  12.891
25095W        W90322  12.193   2.707   4.139
25096W        W90323  43.250  24.022  10.336
25097W        W90324  35.211  41.987  14.305
25098W        W90325  37.527  18.028  14.396
25099W        W90326   5.400   7.726   1.866
25100W        W90327   5.210  29.985   0.224
25101W        W90328  28.901  35.533   3.233
25102W        W90329  12.550   7.792  10.662
25103W        W90330  20.278  33.554  11.759
25104W        W90331  16.282   4.211   0.413
25105W        W90332  10.128  40.472   3.943
25106W        W90333  44.000  30.021  11.108
25107W        W90334   7.777  11.942  11.893
25108W        W90335  26.877  31.714   9.993
25109W        W90336  11.216  27.881   0.595
25110W        W90337  25.408  29.645  14.582
25111W        W90338  30.373  35.896   4.105
25112W        W90339  25.165   9.617   4.081
25113W        W90340  17.540  31.641   1.357
25114W        W90341  35.457  13.761   0.813
25115W        W90342  30.508  43.451  14.602
25116W        W90343  31.442  36.535   0.686
25117W        W90344  17.491  43.611  14.088
25118W        W90345  38.151  36.864  13.855
25119W        W90346  41.386  40.074   0.574
25120W        W90347  16.590  17.792  11.997
25121W        W90348   5.709  14.232  14.814
25122W        W90349  27.588  42.734   3.711
25123W        W90350  20.045  36.990  11.629
25124W        W90351  11.765  21.817  12.941
25125W        W90352  10.216  19.605  11.464
25126W        W90353  41.470  43.228   4.520
25127W        W90354  34.896  41.838   2.631
25128W        W90355  33.919  34.270  14.071
25129W        W90356  44.983  13.543   2.972
25130W        W90357  13.139  10.371   2.341
25131W        W90358  26.026  20.832   0.826
25132W        W90359  23.260  41.968   0.604
25133W        W90360  21.746  29.840   1.706
25134W        W90361   4.970  25.715  12.532
25135W        W90362  17.117  18.518   1.094
25136W        W90363  34.617  23.516  14.793
25137W        W90364  19.629  16.096   3.538
25138W        W90365  29.588  35.438  12.796
25139W        W90366  33.175  35.784  12.514
25140W        W90367   5.313   9.180  12.890
25141W        W90368  31.967   5.365   1.739
25142W        W90369   1.467   8.150   1.903
25143W        W90370  27.745  21.255   5.022
25144W        W90371  29.449  27.646  13.070
25145W        W90372  39.563  41.546   2.624
25146W        W90373  28.021   4.280   3.623
25147W        W90374  32.400  36.456   0.386
25148W        W90375  40.384  38.476   3.605
25149W        W90376   4.445   4.362  12.140
25150W        W90377  23.493  25.822  14.591
25151W        W90378  21.322  18.000  11.535
25152W        W90379  11.692  25.966  13.863
25153W        W90380  31.021  27.178   3.969
25154W        W90381  41.954   3.255   1.867
25155W        W90382  10.163  31.918   2.206
25156W        W90383  38.906  42.346  14.478
25157W        W90384  16.232  40.485   3.853
25158W        W90385  17.315  21.984   1.548
25159W        W90386   9.402  30.751   3.685
25160W        W90387  11.490  37.216   9.275
25161W        W90388  17.556  38.750   4.126
25162W        W90389  21.630  44.059  10.534
25163W        W90390  19.829  28.038  13.039
25164W        W90391  31.271  15.312  10.331
25165W        W90392  16.191  36.776  11.292
25166W        W90393  11.350  14.124  13.894
25167W        W90394  31.931   8.166  14.949
25168W        W90395  20.472  41.278  14.947
25169W        W90396  25.969  24.041   0.263
25170W        W90397  32.896  40.311  11.945
25171W        W90398  16.147  21.763   0.772
25172W        W90399  18.511   7.522   4.626
25173W        W90400   1.082  19.354  11.528
25174W        W90401   5.637  22.049   1.811
25175W        W90402  12.215   5.733   4.807
25176W        W90403  10.788  17.186   1.200
25177W        W90404  25.828   0.938   2.036
25178W        W90405  29.360  10.195   3.254
25179W        W90406   9.025   9.392   0.269
25180W        W90407  42.747   5.786  14.496
25181W        W90408  26.203   7.415   1.754
25182W        W90409  37.324  18.667   1.864
25183W        W90410   4.650  33.760  13.325
25184W        W90411  29.936  16.551  13.257
25185W        W90412  41.601  30.988  11.133
25186W        W90413  12.354  18.265  11.484
25187W        W90414   1.034   4.790   4.148
25188W        W90415  39.884  16.044  12.485
25189W        W90416  35.550  44.800   3.329
25190W        W90417  19.180  42.606   3.354
25191W        W90418  37.757  43.978  11.954
25192W        W90419  31.502  32.717   4.859
25193W        W90420  42.787  41.844  13.633
25194W        W90421  17.930  10.171   3.773
25195W        W90422  35.625  41.953   0.732
25196W        W90423  38.796  27.921   0.861
25197W        W90424  35.254  19.723   0.931
25198W        W90425  30.427   0.379  12.072
25199W        W90426  34.875  19.154  11.624
25200W        W90427  27.014  31.484  13.101
25201W        W90428  30.798  29.629  11.204
25202W        W90429   4.379  37.578  12.908
25203W        W90430  29.364   8.141  14.052
25204W        W90431   8.306   1.815  13.312
25205W        W90432  14.639  26.640  11.967
25206W        W90433  11.322  23.488  14.945
25207W        W90434  12.675  18.776   4.667
25208W        W90435  39.338   7.978   4.380
25209W        W90436   3.815  44.886   1.865
25210W        W90437  15.662  16.758  12.950
25211W        W90438  37.461  27.602  11.227
25212W        W90439  30.289  14.001  14.337
25213W        W90440   6.783  29.176   4.160
25214W        W90441  27.667   9.309  12.658
25215W        W90442  39.333   6.400   2.229
25216W        W90443   4.681  39.238  11.966
25217W        W90444  28.209  25.259   2.849
25218W        W90445  19.834  10.626  12.440
25219W        W90446  26.446   6.512   4.407
25220W        W90447  30.321  44.982   2.164
25221W        W90448  33.600   2.876   1.687
25222W        W90449   1.434  21.547  11.110
25223W        W90450  34.981   8.886  14.021
25224W        W90451   3.112   0.305  13.430
25225W        W90452  13.274   6.507   3.864
25226W        W90453  40.772  22.095  14.922
25227W        W90454  26.522  39.746  10.199
25228W        W90455  39.504  19.155   0.852
25229W        W90456  16.466  43.343  11.865
25230W        W90457   3.213   0.734   2.348
25231W        W90458  28.086  12.679  13.620
25232W        W90459  44.729  29.846  11.627
25233W        W90460   9.942   5.854  13.982
25234W        W90461  32.960  28.020   3.624
25235W        W90462   9.801  10.003  13.117
25236W        W90463   7.629  18.852   1.924
25237W        W90464  41.320  18.313   1.350
25238W        W90465   7.658  17.805  13.094
25239W        W90466  34.881  16.538  11.385
25240W        W90467   8.874   4.424  13.365
25241W        W90468   1.209  30.611   4.129
25242W        W90469  11.651  15.103  12.919
25243W        W90470  11.216  10.321   3.260
25244W        W90471  25.992  29.402  13.040
25245W        W90472  30.161  24.619   1.909
25246W        W90473   1.364  18.045  13.332
25247W        W90474  20.291  22.788  14.056
25248W        W90475  26.120  17.068  13.090
25249W        W90476  43.021  42.273  13.386
25250W        W90477  22.270   0.391  14.758
25251W        W90478   6.226  29.610  11.889
25252W        W90479  43.427  27.573   1.022
25253W        W90480  42.375  29.577   3.349
25254W        W90481  33.384   8.096   3.089
25255W        W90482  27.569  12.171  12.975
25256W        W90483  30.591   6.003   2.254
25257W        W90484  18.241  30.681   4.070
25258W        W90485  10.170  11.428  12.052
25259W        W90486  30.544   5.648  10.718
25260W        W90487  15.708  24.543  14.051
25261W        W90488  15.790  23.767  11.685
25262W        W90489  15.839  24.751  12.847
25263W        W90490  17.617  36.870   4.339
25264W        W90491   5.219  13.365  13.585
25265W        W90492  18.920  10.834   2.173
25266W        W90493   7.269  34.213  14.479
25267W        W90494  38.095   6.150   1.450
25268W        W90495   6.722  34.800   3.310
25269W        W90496  28.212  17.645   1.839
25270W        W90497  28.543  37.336  10.482
25271W        W90498   2.897  32.015  10.818
25272W        W90499  35.938  15.579  13.007
25273W        W90500   3.348  41.511   1.472
25274W        W90501  44.886  35.306  13.121
25275W        W90502   4.042   3.452   1.841
25276W        W90503  26.265  26.848  12.923
25277W        W90504   5.247   2.743   1.288
25278W        W90505  35.379  26.721   2.272
25279W        W90506  43.364  20.784   1.218
25280W        W90507  31.836  24.385  13.382
25281W        W90508  12.590  33.991   0.882
25282W        W90509  31.695  36.404   3.606
25283W        W90510  19.994  12.388  12.572
25284W        W90511   3.974   2.710  11.605
25285W        W90512  20.679   6.447   3.725
25286W        W90513   8.446  27.642  12.802
25287W        W90514  33.681  44.384   1.208
25288W        W90515  20.509  32.521   0.833
25289W        W90516   4.668  14.971   3.151
25290W        W90517  11.601  33.184   0.938
25291W        W90518  10.921  33.360  12.482
25292W        W90519  11.770   2.525   3.232
25293W        W90520  43.835  28.473   3.724
25294W        W90521  15.843  41.586   1.818
25295W        W90522  39.471  25.609  11.768
25296W        W90523  19.551  23.655   3.608
25297W        W90524   6.873  27.932  11.207
25298W        W90525  26.196  36.593  12.920
25299W        W90526  17.343  33.378   0.412
25300W        W90527  15.692  30.786   1.982
25301W        W90528   3.305  42.158  10.073
25302W        W90529  27.377   9.397  10.941
25303W        W90530  43.920  22.301   3.392
25304W        W90531   6.356   8.472  13.314
25305W        W90532  19.268  21.293   2.804
25306W        W90533   7.372  12.176   2.625
25307W        W90534  28.536  37.224   4.545
25308W        W90535  20.424  28.960   0.949
25309W        W90536  21.221  15.644   2.044
25310W        W90537  41.743  22.690   0.762
25311W        W90538   7.615   6.326   4.165
25312W        W90539  29.766  22.506   0.770
25313W        W90540  15.742   5.935  10.644
25314W        W90541   1.935  19.242  11.961
25315W        W90542  22.515  27.480   1.884
25316W        W90543  19.667   7.380  12.451
25317W        W90544   9.615  15.452  14.781
25318W        W90545  17.875  10.781  14.860
25319W        W90546  16.096   6.871   2.441
25320W        W90547  31.047  18.224  14.233
25321W        W90548  13.554  15.761  14.539
25322W        W90549  12.623  10.364  10.762
25323W        W90550  21.692  41.388  13.143
25324W        W90551   3.750  29.947   0.407
25325W        W90552  37.004  32.369   4.382
25326W        W90553  37.021  40.546   3.071
25327W        W90554  26.853  22.350  12.611
25328W        W90555  37.764  13.487  12.034
25329W        W90556  17.313  32.446  13.628
25330W        W90557  16.594  42.254   3.744
25331W        W90558  34.359  11.819   0.301
25332W        W90559   8.919  21.336   2.320
25333W        W90560  27.363  23.438   3.626
25334W        W90561   7.955  24.258  13.846
25335W        W90562  26.013  25.286  12.343
25336W        W90563  38.694  23.976  12.339
25337W        W90564  16.380  22.140   1.738
25338W        W90565  24.293   2.434   3.551
25339W        W90566  43.508   3.267  12.922
25340W        W90567  42.441  12.351   1.463
25341W        W90568  13.036  25.741   4.611
25342W        W90569  14.526   6.161  12.039
25343W        W90570  27.351   8.441   2.650
25344W        W90571  31.434  43.924  13.451
25345W        W90572   9.331   2.861  13.764
25346W        W90573  12.427  33.722  12.561
25347W        W90574  14.798   9.039  12.976
25348W        W90575  21.211  31.209   1.781
25349W        W90576  37.108   3.741   0.331
25350W        W90577  21.347  28.391  12.822
25351W        W90578   8.784  13.544  14.781
25352W        W90579  11.806  42.292  14.584
25353W        W90580  17.340  42.551  12.401
25354W        W90581   9.212   3.861  13.666
25355W        W90582  11.707  34.479  11.133
25356W        W90583  24.574  35.089  14.736
25357W        W90584   0.013  30.076  12.015
25358W        W90585  11.188   2.768   3.693
25359W        W90586   1.078  31.280  11.552
25360W        W90587  28.164  14.008   3.679
25361W        W90588  11.791  15.124   4.550
25362W        W90589   7.897  10.138   2.271
25363W        W90590  31.585   3.269   4.061
25364W        W90591  16.902   5.603  14.395
25365W        W90592   1.774  13.107  11.946
25366W        W90593  12.071  26.841  10.502
25367W        W90594  36.937  17.161  10.705
25368W        W90595  20.703  23.553   1.229
25369W        W90596  43.764  19.617  14.229
25370W        W90597   6.972  21.714   3.676
25371W        W90598  36.822  13.426  13.136
25372W        W90599  17.362  23.678   4.910
25373W        W90600  39.528  32.533  13.745
25374W        W90601  30.687   4.183   3.022
25375W        W90602  24.174   8.802  12.918
25376W        W90603   7.197   1.401  14.922
25377W        W90604  10.337  17.466  13.857
25378W        W90605   1.685  39.521  13.594
25379W        W90606  40.202   8.368  13.283
25380W        W90607  28.301  31.628  14.265
25381W        W90608  12.050  15.720  12.447
25382W        W90609  38.491  14.224  13.430
25383W        W90610  34.196  28.540   1.586
25384W        W90611   3.307  20.604   1.337
25385W        W90612  18.621  35.885  13.426
25386W        W90613  12.540  41.747   3.152
25387W        W90614   4.791  26.736   1.760
25388W        W90615  15.710  41.084   3.156
25389W        W90616   6.918  17.563  12.024
25390W        W90617   0.368   6.483   0.069
25391W        W90618   4.577  19.023   0.513
25392W        W90619  24.456  20.763  14.943
25393W        W90620  32.179  30.599   4.779
25394W        W90621  44.833  44.031  13.023
25395W        W90622  13.291   5.772   0.068
25396W        W90623   2.414  11.141   1.795
25397W        W90624   6.440  11.942   4.647
25398W        W90625   3.403   7.808   4.901
25399W        W90626  12.160  17.343   1.242
25400W        W90627  36.472  25.129   2.397
25401W        W90628  20.051   4.982  13.363
25402W        W90629  41.580   6.826  10.636
25403W        W90630  27.580  16.560   0.854
25404W        W90631  11.655  21.465  12.538
25405W        W90632  22.889  32.530   1.303
25406W        W90633  41.851   9.238  14.382
25407W        W90634  26.953  22.172  13.091
25408W        W90635  39.888  20.982   2.069
25409W        W90636  24.149  11.491  12.952
25410W        W90637   1.750  44.797  14.012
25411W        W90638   6.119  28.710  12.010
25412W        W90639  10.665  24.257  13.405
25413W        W90640  31.128  10.870   0.306
25414W        W90641  27.121  30.213  14.545
25415W        W90642  43.212  18.500   2.433
25416W        W90643  44.150  27.915   2.053
25417W        W90644   2.650  30.698  13.084
25418W        W90645  22.490   0.866   0.367
25419W        W90646  31.196  18.224   9.948
25420W        W90647   5.154   2.396   4.754
25421W        W90648  30.407  32.880  13.602
25422W        W90649   0.699  24.103  13.036
25423W        W90650  40.428   5.694  14.982
25424W        W90651  33.985  21.680  13.513
25425W        W90652  11.803   0.417  10.498
25426W        W90653   3.373   9.692   2.291
25427W        W90654  32.025  20.770  12.125
25428W        W90655  32.986  20.857   0.459
25429W        W90656  41.262  27.896  11.176
25430W        W90657  40.135  15.625  11.176
25431W        W90658  41.889  19.043   2.967
25432W        W90659  12.461  15.184  14.046
25433W        W90660  38.086  39.484   1.902
25434W        W90661  24.816   5.121   3.210
25435W        W90662  16.847  13.693  12.229
25436W        W90663  26.090  31.423  14.636
25437W        W90664  31.354  22.981  11.174
25438W        W90665  23.625  37.608   2.226
25439W        W90666  14.276  42.550  10.564
25440W        W90667  30.649   9.778  13.012
25441W        W90668   5.272  10.932  12.481
25442W        W90669  35.415  15.846   0.834
25443W        W90670  27.157  25.027  12.904
25444W        W90671   3.469   6.770   2.806
25445W        W90672  20.083   2.835   2.816
25446W        W90673  13.929  31.661  11.599
25447W        W90674   5.782  32.442  10.686
25448W        W90675  13.120  44.664  12.946
25449W        W90676  32.083  44.823   3.498
25450W        W90677  13.329  34.488  14.494
25451W        W90678   5.634  33.394   1.414
25452W        W90679  39.801  10.957  10.774
25453W        W90680  43.278  11.876   1.268
25454W        W90681  39.126  20.909   3.309
25455W        W90682  14.331  29.473   2.130
25456W        W90683  41.828  35.331   4.918
25457W        W90684  38.225  32.253   4.072
25458W        W90685  19.078  14.005   3.604
25459W        W90686  27.729  20.079  13.510
25460W        W90687  38.863  22.712  12.607
25461W        W90688   5.810  13.701   4.000
25462W        W90689  29.068  40.730  14.491
25463W        W90690   0.543  41.233   2.150
25464W        W90691  10.880  29.064  10.588
25465W        W90692  15.599  21.579   3.780
25466W        W90693   5.794  18.201  13.809
25467W        W90694   9.805  17.740   1.863
25468W        W90695  27.272  42.942  12.866
25469W        W90696   4.828  14.392  12.059
25470W        W90697  34.540  26.258   3.549
25471W        W90698   5.962  23.965   2.662
25472W        W90699   1.871  14.111   3.543
25473W        W90700   7.591   3.103  11.683
25474W        W90701  38.836   2.952  13.569
25475W        W90702   7.933  18.067   3.328
25476W        W90703  29.604   7.300   3.330
25477W        W90704  22.962  39.491   2.674
25478W        W90705  29.926  16.528   3.263
25479W        W90706  24.110  13.749   3.658
25480W        W90707  35.339  33.965  12.965
25481W        W90708   9.614  12.289   2.778
25482W        W90709  17.334  27.552  13.323
25483W        W90710   5.964  26.322   4.195
25484W        W90711  36.774  26.057  10.694
25485W        W90712   6.855  29.983   3.330
25486W        W90713  19.585  10.572  14.895
25487W        W90714  27.506  34.453  12.488
25488W        W90715  44.367   5.984   9.968
25489W        W90716  16.591   8.831  12.606
25490W        W90717  38.029  20.433  14.222
25491W        W90718   5.227  20.214  11.610
25492W        W90719   4.469  35.516  11.128
25493W        W90720  24.873  42.191  12.504
25494W        W90721  34.019  32.505   4.823
25495W        W90722  34.057   9.741  11.526
25496W        W90723  31.613   1.402  10.722
25497W        W90724   8.258  23.684  10.694
25498W        W90725   5.616  21.805  13.446
25499W        W90726  18.794  11.482   4.278
25500W        W90727  17.939  31.879  14.733
25501W        W90728  22.486  21.663  14.540
25502W        W90729  38.471   8.399   3.071
25503W        W90730  20.807   8.892  10.876
25504W        W90731  22.671  26.936   0.574
25505W        W90732  11.240   2.201  13.171
25506W        W90733  14.805  38.318  11.017
25507W        W90734   4.265  17.883  10.944
25508W        W90735   0.070  13.302   3.498
25509W        W90736  44.017   1.965  13.824
25510W        W90737  20.279  29.199  14.094
25511W        W90738   4.329  23.486  14.590
25512W        W90739  29.989   5.442   1.273
25513W        W90740  30.183  29.007  11.937
25514W        W90741   7.749  15.903   2.603
25515W        W90742  16.107   6.850   4.128
25516W        W90743  35.052  28.187  14.827
25517W        W90744  36.555  41.090   2.167
25518W        W90745  37.073  13.302  11.545
25519W        W90746  25.615  30.482   0.406
25520W        W90747   5.359  34.337   3.395
25521W        W90748  31.686   0.329   2.848
25522W        W90749   6.148  35.534   0.076
25523W        W90750  18.824  26.192  11.438
25524W        W90751  36.967  17.308   4.420
25525W        W90752  40.309  41.508  13.123
25526W        W90753   0.932  18.987   0.737
25527W        W90754  32.306  43.956  12.325
25528W        W90755  28.264   3.411   0.497
25529W        W90756  42.376  15.083  14.805
25530W        W90757  38.820   4.033   1.010
25531W        W90758  42.051   3.095  12.183
25532W        W90759  44.835   1.143  10.562
25533W        W90760  31.087   9.350   0.560
25534W        W90761  26.588   8.684  10.174
25535W        W90762  44.782  35.615   4.507
25536W        W90763   1.893  32.331  11.168
25537W        W90764  37.923   1.138  11.571
25538W        W90765   4.853   0.167  11.131
25539W        W90766  36.852  26.879   0.972
25540W        W90767  18.282  16.792  12.989
25541W        W90768  21.013   0.837   1.269
25542W        W90769  15.774   0.165  12.550
25543W        W90770   6.007   9.334   2.517
25544W        W90771  11.362  29.644   4.494
25545W        W90772  36.012  38.786  14.903
25546W        W90773  15.649  15.901  12.194
25547W        W90774   2.344  20.150  11.631
25548W        W90775  29.299  35.734  11.596
25549W        W90776  21.209  37.901  13.136
25550W        W90777  41.554  40.559   5.141
25551W        W90778  43.228  34.142  14.838
25552W        W90779  24.458   6.364  12.523
25553W        W90780  24.191  25.939   2.417
25554W        W90781  22.284   1.539   3.506
25555W        W90782  32.932  25.270   1.681
25556W        W90783  28.990  38.047  10.724
25557W        W90784  33.101  20.942  13.828
25558W        W90785  37.113  20.292   2.625
25559W        W90786  38.576  26.685  12.098
25560W        W90787   0.768  35.607   1.324
25561W        W90788  11.104  12.321   0.099
25562W        W90789  41.714  38.589  11.781
25563W        W90790  30.498  20.649   0.103
25564W        W90791   0.018  28.175  11.193
25565W        W90792  11.655  28.258  13.868
25566W        W90793  43.760  17.317  14.910
25567W        W90794  10.442  12.972  11.968
25568W        W90795  15.515  11.767  12.064
25569W        W90796  30.487  30.918  11.735
25570W        W90797  20.755  38.890   2.206
25571W        W90798  15.021  38.018  12.890
25572W        W90799  26.218   9.158   2.151
25573W        W90800  11.700  42.249   0.482
25574W        W90801   9.252  16.801  14.844
25575W        W90802  36.622   7.156   4.891
25576W        W90803  14.574  35.029  12.929
25577W        W90804  19.742  30.573  10.751
25578W        W90805   9.338  12.929  14.840
25579W        W90806  41.993  12.192  13.028
25580W        W90807  44.456  32.583   3.232
25581W        W90808  16.701  33.954   3.594
25582W        W90809   7.299  30.389   3.679
25583W        W90810  32.121  23.160   1.793
25584W        W90811  30.893  29.449  14.844
25585W        W90812  22.248  10.859   2.767
25586W        W90813   9.436  39.567   0.778
25587W        W90814   2.464  17.513  13.099
25588W        W90815  20.080   2.849  10.566
25589W        W90816  22.061  21.856  14.269
25590W        W90817  30.326  34.004   5.122
25591W        W90818  11.999  42.984   3.881
25592W        W90819  19.892   7.678  13.407
25593W        W90820  39.777  23.248  14.838
25594W        W90821  16.589  25.700   2.662
25595W        W90822   7.047  38.766   2.787
25596W        W90823   4.232  15.638   3.302
25597W        W90824  26.317  24.150  12.934
25598W        W90825  18.578  36.043   4.262
25599W        W90826   6.162  14.124  12.514
25600W        W90827  22.753   6.297   2.664
25601W        W90828   6.161   2.295  12.003
25602W        W90829   8.792  39.155  14.131
25603W        W90830  22.161  31.432   0.191
25604W        W90831   6.742  44.270  12.199
25605W        W90832  18.447  38.880  12.731
25606W        W90833  18.131  10.202   2.767
25607W        W90834   8.939  11.959  11.903
25608W        W90835   5.499  16.709   2.329
25609W        W90836  36.064  28.171  12.551
25610W        W90837  31.191  32.893  13.961
25611W        W90838  28.686  39.857   1.815
25612W        W90839  10.717  20.306   0.433
25613W        W90840  28.677  37.412   0.745
25614W        W90841  17.280   4.472  11.204
25615W        W90842  15.889  28.417   2.260
25616W        W90843  28.051  44.906  13.015
25617W        W90844   3.148  35.844  13.577
25618W        W90845  35.419  11.856   2.615
25619W        W90846  15.848  25.695  12.637
25620W        W90847   6.915  38.404   0.238
25621W        W90848  34.593  35.482  11.221
25622W        W90849  37.327   1.419   0.603
25623W        W90850  12.288  30.705   3.092
25624W        W90851   0.210  24.165  13.825
25625W        W90852   5.191  21.493   3.170
25626W        W90853  24.570   3.047   3.081
25627W        W90854  16.221  34.811   1.895
25628W        W90855  39.324   4.671  12.359
25629W        W90856  42.925   6.421  12.208
25630W        W90857  23.194  28.761   4.892
25631W        W90858   4.751  33.630  12.425
25632W        W90859  21.256   6.802  13.780
25633W        W90860  34.316  31.112  12.098
25634W        W90861  12.545  32.122  13.080
25635W        W90862  13.801   1.277   1.696
25636W        W90863   1.309  25.468   4.124
25637W        W90864   4.743  37.812   0.761
25638W        W90865  26.141  21.667   4.241
25639W        W90866  22.122  37.903   1.874
25640W        W90867  24.179  17.738  12.065
25641W        W90868  12.257  25.553  14.928
25642W        W90869   9.428  31.983   0.329
25643W        W90870  20.674  42.853  14.262
25644W        W90871   9.742   0.333  10.658
25645W        W90872   7.062  27.984  14.370
25646W        W90873  40.330  10.657   0.903
25647W        W90874  11.056  32.607  14.709
25648W        W90875   9.417  36.044  12.889
25649W        W90876  37.575  15.430  11.136
25650W        W90877  19.112  26.379  12.474
25651W        W90878  12.837  23.094   1.963
25652W        W90879  26.066  44.405   4.051
25653W        W90880  38.052  16.801  11.684
25654W        W90881  34.451  37.077  13.895
25655W        W90882  33.699  24.640   0.910
25656W        W90883   2.535  22.252   0.680
25657W        W90884  10.759   7.889   1.670
25658W        W90885  13.070  44.343   3.744
25659W        W90886  34.759  34.438   0.259
25660W        W90887   6.737  38.971  10.778
25661W        W90888  27.234  27.002   4.094
25662W        W90889   6.791  40.827  12.110
25663W        W90890  38.987  28.539  12.365
25664W        W90891  25.233  34.312  11.120
25665W        W90892  16.566  43.971   2.259
25666W        W90893   3.865  15.758   2.208
25667W        W90894  35.436  43.239   4.083
25668W        W90895  23.549  20.461  11.178
25669W        W90896   2.332  10.759  14.322
25670W        W90897  41.308   7.483  14.905
25671W        W90898  16.323  19.210  13.841
25672W        W90899  23.111  34.765   3.334
25673W        W90900   7.160   2.862  12.480
25674W        W90901  24.256  20.335  11.446
25675W        W90902   7.226   3.243  14.491
25676W        W90903  30.003  35.372   3.321
25677W        W90904  16.692  37.439  10.888
25678W        W90905   3.913   7.970   0.727
25679W        W90906  40.931  33.789  13.837
25680W        W90907  41.591  30.774   3.356
25681W        W90908  40.293   4.834  12.785
25682W        W90909  44.456  36.548  11.078
25683W        W90910  43.194  36.947   4.683
25684W        W90911  44.725  26.486   1.215
25685W        W90912  44.656  43.916  10.646
25686W        W90913  39.626   8.248   2.182
25687W        W90914  34.241  34.898   4.109
25688W        W90915  35.579  20.131  11.922
25689W        W90916  12.766  25.128  10.822
25690W        W90917  11.412   6.275  13.237
25691W        W90918  40.779   0.988  11.584
25692W        W90919  13.793   8.795   1.732
25693W        W90920  35.623  17.423   2.861
25694W        W90921  10.603  14.587   4.381
25695W        W90922  27.567  20.523  11.559
25696W        W90923  34.728  15.782  13.468
25697W        W90924  35.030  18.963   0.103
25698W        W90925   7.860   8.260   4.578
25699W        W90926  27.922  31.015   0.474
25700W        W90927  35.321   8.655  11.183
25701W        W90928  25.507  19.862   4.625
25702W        W90929  20.905  17.306   1.879
25703W        W90930  35.061   0.443  13.865
25704W        W90931  17.275  16.781   2.040
25705W        W90932  16.804  44.096   4.969
25706W        W90933  32.043  33.822  13.876
25707W        W90934  16.167  33.927  14.946
25708W        W90935   4.859  11.227  14.922
25709W        W90936  36.495  23.760  13.422
25710W        W90937  23.114   6.277  10.949
25711W        W90938  35.443  21.158   4.321
25712W        W90939  17.606  33.896   1.220
25713W        W90940  27.733  39.325  13.709
25714W        W90941   9.588  35.106   3.305
25715W        W90942  17.721  34.816  13.775
25716W        W90943  21.307  17.150   3.253
25717W        W90944  23.274  42.369   1.302
25718W        W90945   4.213   3.662  11.678
25719W        W90946  11.467  33.396  14.783
25720W        W90947  20.710  44.282   4.963
25721W        W90948  25.947  13.384  13.587
25722W        W90949  15.550  23.077  14.483
25723W        W90950  25.291  18.206  11.058
25724W        W90951  37.397  34.258   3.310
25725W        W90952  22.449   9.951   4.631
25726W        W90953  25.767  25.293   1.302
25727W        W90954   5.954  10.887   2.324
25728W        W90955  32.164   0.934   0.911
25729W        W90956  21.282  40.750  13.089
25730W        W90957  37.513  29.573  10.535
25731W        W90958  23.619   4.885   2.684
25732W        W90959  41.832   6.324   0.294
25733W        W90960  15.759  21.796  14.337
25734W        W90961  26.709  40.038  14.471
25735W        W90962  11.899   3.687  11.643
25736W        W90963  43.388  25.754  12.871
25737W        W90964   9.428  21.855  12.098
25738W        W90965  37.974  41.701  11.979
25739W        W90966  31.331  32.031   2.997
25740W        W90967   3.764  40.846   0.384
25741W        W90968  30.480  35.486  14.868
25742W        W90969  18.210  20.996  10.807
25743W        W90970  38.685  42.550  11.409
25744W        W90971  40.668  24.828  10.478
25745W        W90972  28.419  29.868   2.685
25746W        W90973  27.641  14.366  14.005
25747W        W90974  27.787   5.691  14.261
25748W        W90975  30.692  15.625   1.322
25749W        W90976  37.561  19.218  14.383
25750W        W90977  17.334  18.052  10.413
25751W        W90978  31.569  42.865   0.751
25752W        W90979  18.342   3.470   2.988
25753W        W90980  31.312  41.252  11.502
25754W        W90981  15.713  12.910  11.664
25755W        W90982  34.201   5.934  14.298
25756W        W90983  18.659   8.839   2.095
25757W        W90984  31.498  17.272   0.721
25758W        W90985  39.885  43.056   2.885
25759W        W90986  32.864   1.791   2.719
25760W        W90987  28.045  11.229   0.757
25761W        W90988   2.527  41.411  14.017
25762W        W90989   6.938  12.840  14.893
25763W        W90990   0.848  38.748  12.374
25764W        W90991   9.872  26.128   4.192
25765W        W90992  36.684  27.520  14.793
25766W        W90993  16.716  12.364   0.435
25767W        W90994  39.958  30.446  12.132
25768W        W90995  39.288  26.619  14.947
25769W        W90996  22.556  28.690  12.575
25770W        W90997   5.254  26.224   2.748
25771W        W90998   2.956  29.137   3.298
25772W        W90999  17.773  12.623   2.810
25773W        W91000  18.562  17.033   1.698
25774W        W91001  34.938  16.194  12.087
25775W        W91002  33.597   0.493   4.137
25776W        W91003  35.671  35.284   0.950
25777W        W91004  44.996   2.310  11.172
25778W        W91005  41.529  35.043  14.747
25779W        W91006  17.131   5.473  13.026
25780W        W91007   7.145  36.093   2.224
25781W        W91008  40.422  25.153  14.420
25782W        W91009  18.019  34.669  14.176
25783W        W91010  38.432  13.545   2.203
25784W        W91011   2.655  44.652  12.916
25785W        W91012  35.021   0.950  10.987
25786W        W91013  32.576  17.025   2.215
25787W        W91014  20.170  22.411  13.081
25788W        W91015  10.905  22.101   2.874
25789W        W91016  29.561  28.689   0.812
25790W        W91017   1.011  24.518  12.937
25791W        W91018  17.131  24.194  12.921
25792W        W91019  17.976   2.723  14.307
25793W        W91020   1.808  13.406  12.391
25794W        W91021   3.192  21.160  12.423
25795W        W91022   9.099  33.037   3.771
25796W        W91023   5.993  15.117   1.552
25797W        W91024  14.024  33.419   1.876
25798W        W91025  40.364   3.069   3.585
25799W        W91026   0.823   3.426   0.477
25800W        W91027  21.898   5.100   1.694
25801W        W91028  16.221  23.638  10.454
25802W        W91029  30.886  12.066  10.626
25803W        W91030  11.183   7.335  14.364
25804W        W91031  20.839  29.495   4.049
25805W        W91032   0.405  31.025   3.855
25806W        W91033  27.980  24.315  11.187
25807W        W91034   0.514   5.464   1.156
25808W        W91035  24.727  18.162  14.019
25809W        W91036  16.810   4.191  14.768
25810W        W91037  18.827  17.572  10.689
25811W        W91038  42.452  35.883  13.139
25812W        W91039  36.056  32.003   5.097
25813W        W91040   2.046  40.977  10.732
25814W        W91041  13.025  37.896  14.121
25815W        W91042   8.633  17.361  13.034
25816W        W91043  21.065  41.470   3.231
25817W        W91044  40.894  40.978   3.693
25818W        W91045  21.258   4.202   5.388
25819W        W91046  38.632  17.560   2.376
25820W        W91047  14.042   8.710   2.761
25821W        W91048  30.762  27.611  11.263
25822W        W91049  12.544  12.281  14.979
25823W        W91050  40.846  27.214   2.840
25824W        W91051  11.737  16.370  11.163
25825W        W91052  18.200  28.797   3.204
25826W        W91053  20.791  44.905  14.391
25827W        W91054  11.133   8.316   2.669
25828W        W91055  29.381  11.539  13.394
25829W        W91056   8.890  19.482   1.622
25830W        W91057  20.449  23.440  11.244
25831W        W91058  31.855  43.580   1.756
25832W        W91059  24.033  39.855   2.204
25833W        W91060  16.724  34.027  14.051
25834W        W91061  13.271  17.856   1.384
25835W        W91062  24.126   5.976   3.256
25836W        W91063  21.291  22.033   4.252
25837W        W91064   6.956  37.422  11.101
25838W        W91065  32.524  22.957   4.060
25839W        W91066  40.237  44.120   2.343
25840W        W91067  31.001  23.005   0.589
25841W        W91068  30.967   1.513  12.456
25842W        W91069  26.508  12.491  13.867
25843W        W91070  36.479  39.170  14.649
25844W        W91071  37.412  31.116   4.825
25845W        W91072  10.705   6.048   4.152
25846W        W91073  44.949  17.231   3.745
25847W        W91074  15.439  34.997  12.511
25848W        W91075  24.614   3.917   3.754
25849W        W91076  44.270   9.545   4.187
25850W        W91077  10.839  18.094   3.274
25851W        W91078  39.373  31.297   0.870
25852W        W91079  20.536   8.183   4.049
25853W        W91080   2.928  20.089   2.216
25854W        W91081  10.338   2.994  14.340
25855W        W91082  34.385  25.115  13.069
25856W        W91083  10.574  34.698   4.437
25857W        W91084  34.437   3.623  14.272
25858W        W91085  23.848  10.485  11.170
25859W        W91086   0.649  25.470   1.561
25860W        W91087   6.799  32.589  12.989
25861W        W91088  39.311  34.493  10.314
25862W        W91089   0.936  18.140   3.755
25863W        W91090  41.256   4.368   0.378
25864W        W91091  26.764   5.849  12.620
25865W        W91092   9.218  10.659  11.631
25866W        W91093  29.055  15.456   0.685
25867W        W91094  32.116  34.022  10.326
25868W        W91095  27.868   9.523   0.246
25869W        W91096  12.941  42.844  14.714
25870W        W91097  37.843  33.083   4.002
25871W        W91098  40.967  16.969  13.443
25872W        W91099  28.024  31.579   0.779
25873W        W91100  35.740  44.070   1.257
25874W        W91101  18.226  41.038  11.116
25875W        W91102  19.938   3.942   3.865
25876W        W91103  41.485  23.671  12.883
25877W        W91104  43.542   7.226  10.027
25878W        W91105  34.123  36.329   1.353
25879W        W91106  43.292   8.669  13.525
25880W        W91107  36.342  11.489  12.282
25881W        W91108  18.449   7.243   1.957
25882W        W91109  12.123  35.720  12.595
25883W        W91110  44.090  40.294   1.274
25884W        W91111  28.556   8.884  10.570
25885W        W91112  31.366  27.527   2.137
25886W        W91113  17.343  20.173   0.133
25887W        W91114  31.976  12.853   3.267
25888W        W91115   0.840  17.007   2.398
25889W        W91116  22.194   8.139  13.463
25890W        W91117  43.141  13.281   4.698
25891W        W91118  31.633   6.322   4.144
25892W        W91119  24.461  32.026  11.954
25893W        W91120  35.299   1.351  14.865
25894W        W91121  13.858  22.441  11.601
25895W        W91122  34.529   3.698   2.384
25896W        W91123  25.148   6.126  13.591
25897W        W91124  16.106   3.317  11.769
25898W        W91125   9.660   0.825  13.437
25899W        W91126  17.982   7.041   1.903
25900W        W91127  40.270   6.993  13.400
25901W        W91128  40.984  14.375  12.426
25902W        W91129  31.539  41.190  12.891
25903W        W91130  31.828  44.717   2.152
25904W        W91131  11.175   5.181   0.331
25905W        W91132  44.289  36.631  14.698
25906W        W91133  36.086   8.299   3.225
25907W        W91134   1.774  40.471  11.384
25908W        W91135  32.579  29.604  14.386
25909W        W91136  27.560   2.980   2.657
25910W        W91137   3.948  10.564  14.587
25911W        W91138  27.461  44.230  13.493
25912W        W91139  20.545   4.386  10.632
25913W        W91140  40.428  38.639  11.786
25914W        W91141  21.753  12.261  13.961
25915W        W91142  20.241   8.306   4.858
25916W        W91143  31.246  14.570  13.672
25917W        W91144   7.970  11.804   4.465
25918W        W91145  21.382  12.478   0.451
25919W        W91146  17.638  38.158  13.093
25920W        W91147  19.210  43.270  14.854
25921W        W91148   5.642   1.891  13.997
25922W        W91149  31.176  25.509   2.658
25923W        W91150  21.300  17.748  10.654
25924W        W91151  19.226  41.436  12.052
25925W        W91152   1.463  11.215  11.230
25926W        W91153   8.968  14.637  12.421
25927W        W91154  10.207  39.395  12.584
25928W        W91155  42.441  34.806  14.983
25929W        W91156  14.585  29.927   1.802
25930W        W91157   3.768   3.934  13.581
25931W        W91158  41.564   1.866   2.933
25932W        W91159   3.500  43.520   1.892
25933W        W91160   0.385   2.984  13.042
25934W        W91161  10.463  11.258  14.473
25935W        W91162   7.073  22.253   0.449
25936W        W91163  33.170   9.868  14.718
25937W        W91164   3.439  25.013  12.035
25938W        W91165  30.449  11.695   3.744
25939W        W91166  14.678   4.397  14.469
25940W        W91167   6.205  20.090  12.907
25941W        W91168  43.779  33.213   2.330
25942W        W91169  33.952  11.593  11.211
25943W        W91170  27.104  42.884   3.615
25944W        W91171  16.666  38.695  12.488
25945W        W91172  14.000  27.183   1.912
25946W        W91173  33.876  27.220   0.058
25947W        W91174  22.898  37.741  11.582
25948W        W91175  43.982  18.577  12.887
25949W        W91176   4.278  14.744   5.425
25950W        W91177  11.320  41.979  11.709
25951W        W91178  30.997  41.057   1.791
25952W        W91179  24.610  14.289  12.919
25953W        W91180  26.256  32.278  10.676
25954W        W91181   9.921  44.213   0.718
25955W        W91182  20.836  33.601  13.343
25956W        W91183  43.374   0.934  12.499
25957W        W91184  13.534   0.804  14.078
25958W        W91185  41.670  11.794   1.723
25959W        W91186  23.702  37.259  10.495
25960W        W91187  16.221   2.439   0.993
25961W        W91188  13.101   9.321   1.822
25962W        W91189  31.107  17.888  12.077
25963W        W91190  13.820  33.247  10.394
25964W        W91191  26.178  30.225   2.773
25965W        W91192  17.733   3.871  10.705
25966W        W91193   1.446   4.675  14.681
25967W        W91194  20.442   9.812  14.228
25968W        W91195  32.989  14.788   0.786
25969W        W91196  43.335  30.417  10.792
25970W        W91197  39.459  18.391   3.681
25971W        W91198  33.167   4.361   4.174
25972W        W91199  11.281  43.802  12.467
25973W        W91200  31.070  19.565   4.582
25974W        W91201  21.797  29.529   4.317
25975W        W91202  12.423  12.835   4.472
25976W        W91203  18.273   2.899   2.289
25977W        W91204  33.928  32.923  14.439
25978W        W91205  42.894  28.159   4.637
25979W        W91206   5.387  44.506   4.514
25980W        W91207  16.991  19.349  12.513
25981W        W91208   5.266   8.758   4.752
25982W        W91209  34.663  33.519  14.297
25983W        W91210  30.439  29.182  14.433
25984W        W91211  17.645  41.582  11.345
25985W        W91212   5.792  38.903  14.857
25986W        W91213  38.177  29.073  14.012
25987W        W91214   7.644  26.499   2.840
25988W        W91215  40.600  28.035   1.899
25989W        W91216  33.520  24.574  10.276
25990W        W91217   0.505   3.779  12.135
25991W        W91218   5.908  13.816  13.356
25992W        W91219  38.471  43.938  11.092
25993W        W91220  33.869  44.194  14.978
25994W        W91221  43.749  27.029  11.680
25995W        W91222  38.767  38.703   1.856
25996W        W91223  22.635  27.734  10.997
25997W        W91224   8.839  26.014   0.213
25998W        W91225  40.667   5.024  12.498
25999W        W91226   4.785  25.283   4.351
26000W        W91227   1.510  11.589   1.791
26001W        W91228  10.146  41.244   1.306
26002W        W91229  19.784  21.572   0.403
26003W        W91230  16.194  30.757   2.407
26004W        W91231  28.264  14.734   9.972
26005W        W91232  43.221  21.279   4.538
26006W        W91233   5.616  27.575  14.172
26007W        W91234  10.307   3.971   2.626
26008W        W91235  13.025  33.545   0.844
26009W        W91236   1.298  25.185   1.489
26010W        W91237  19.021   1.995  11.158
26011W        W91238  39.110  24.282  12.843
26012W        W91239  23.819  31.570  13.444
26013W        W91240  27.864  42.959   2.540
26014W        W91241  35.081   0.401   2.839
26015W        W91242  27.536  36.494  13.318
26016W        W91243  18.284   2.685   0.638
26017W        W91244  34.380  19.443   1.235
26018W        W91245  12.557  31.820  13.928
26019W        W91246  27.579  27.446  11.783
26020W        W91247  25.595  21.536  12.750
26021W        W91248   3.295  27.365   3.341
26022W        W91249  28.665  20.452   4.707
26023W        W91250  11.118  23.601  12.124
26024W        W91251  32.984  25.327   2.198
26025W        W91252  17.206  35.155   2.414
26026W        W91253  10.819  13.834  14.428
26027W        W91254  33.126  35.912  14.836
26028W        W91255  23.139  35.082   4.987
26029W        W91256  17.037  39.556   1.767
26030W        W91257   7.820  33.640  13.840
26031W        W91258  36.398  38.813   1.418
26032W        W91259  25.105  33.323  14.382
26033W        W91260  20.022  22.276   0.088
26034W        W91261  35.115  26.420   4.593
26035W        W91262  20.181  11.317  10.731
26036W        W91263  21.558  11.138   4.883
26037W        W91264   0.858  12.359  14.732
26038W        W91265  28.627  42.236   4.471
26039W        W91266  25.002  39.808   1.260
26040W        W91267  15.061  24.123   1.676
26041W        W91268   5.283  44.760   1.465
26042W        W91269  36.454  41.123  13.011
26043W        W91270  24.684  29.133  13.320
26044W        W91271  42.183  42.009  11.594
26045W        W91272  23.491  33.562   4.231
26046W        W91273  32.596  43.435  13.601
26047W        W91274  20.764   0.947  12.524
26048W        W91275   0.615  22.776  10.676
26049W        W91276  35.397  12.600   2.122
26050W        W91277  15.788  40.916  14.757
26051W        W91278  27.016  23.625   2.406
26052W        W91279  31.612  11.537  14.573
26053W        W91280   6.977  16.110   0.841
26054W        W91281  40.645  44.831   1.608
26055W        W91282  16.058  42.791   3.226
26056W        W91283   8.885  21.939   0.038
26057W        W91284   7.906  15.172   4.119
26058W        W91285  36.786  20.582  12.533
26059W        W91286   4.760  31.234   0.287
26060W        W91287  18.144  44.681  10.780
26061W        W91288  19.709  33.140  13.873
26062W        W91289  31.100  44.930   1.723
26063W        W91290  26.788   0.760   1.175
26064W        W91291  23.765  15.342   1.733
26065W        W91292  24.561  28.551   0.048
26066W        W91293  43.764  37.628   0.470
26067W        W91294   0.382  37.434   2.694
26068W        W91295   9.287  10.139  12.875
26069W        W91296  44.088  27.057  11.288
26070W        W91297   5.996  40.831  11.579
26071W        W91298  33.154  13.144   2.336
26072W        W91299   9.273  40.089   0.728
26073W        W91300  20.004  37.327   1.864
26074W        W91301  22.040  22.242   0.079
26075W        W91302  39.313  43.603  10.898
26076W        W91303  39.666  33.202   2.719
26077W        W91304  12.258  17.157  10.722
26078W        W91305  20.327  19.810  13.605
26079W        W91306   5.206  14.264  14.804
26080W        W91307   9.144  31.379  10.506
26081W        W91308  39.291  42.240   0.467
26082W        W91309  42.129  43.944   0.522
26083W        W91310  38.023   5.435   2.196
26084W        W91311  30.941  43.452  14.315
26085W        W91312  22.249  42.094   4.116
26086W        W91313   9.408  18.520   0.303
26087W        W91314  14.817  18.856  12.909
26088W        W91315  38.227  26.173  11.291
26089W        W91316  26.244  34.985  13.433
26090W        W91317  11.182  29.124   0.932
26091W        W91318  10.727  10.654   4.438
26092W        W91319   7.957  19.809  13.354
26093W        W91320  32.430  29.650   1.260
26094W        W91321   9.822  23.465  11.724
26095W        W91322  44.590  10.740  12.430
26096W        W91323  42.987  28.389  11.983
26097W        W91324  31.216  20.275   3.319
26098W        W91325  22.043  42.823   3.633
26099W        W91326  26.425  42.977   4.969
26100W        W91327   6.586  25.663   2.326
26101W        W91328   0.237   9.025  12.558
26102W        W91329   0.093  13.296   4.853
26103W        W91330   1.929  32.871   3.720
26104W        W91331  12.392  28.486  13.031
26105W        W91332  17.809  25.265  11.720
26106W        W91333  30.255  11.830  11.648
26107W        W91334  24.634   9.268   1.172
26108W        W91335  12.765  22.460  14.550
26109W        W91336   4.705  33.685   4.501
26110W        W91337  16.270  44.975  10.615
26111W        W91338   9.340  44.696   3.279
26112W        W91339  41.441  27.915   2.104
26113W        W91340  35.353  27.579   2.864
26114W        W91341   1.243   0.382   3.205
26115W        W91342  36.982  18.317  12.796
26116W        W91343  16.359   6.900   1.243
26117W        W91344  24.943  44.438  12.375
26118W        W91345  33.811   5.399  11.994
26119W        W91346  12.058   3.750   2.883
26120W        W91347  38.266  32.878  12.952
26121W        W91348  34.017   3.027  10.761
26122W        W91349  44.887   6.228  12.609
26123W        W91350  42.594  41.850   3.184
26124W        W91351   9.828  25.227   4.098
26125W        W91352  21.268  22.600   2.160
26126W        W91353   6.746  40.524  13.105
26127W        W91354   0.371   4.163   0.414
26128W        W91355   9.799  39.818  13.655
26129W        W91356  26.163   6.139  14.960
26130W        W91357   2.387  35.175   2.795
26131W        W91358  26.472  37.708   4.594
26132W        W91359  19.069  22.493  14.535
26133W        W91360  23.094  42.849  14.977
26134W        W91361  25.629  12.310  14.807
26135W        W91362  14.607  21.026   3.230
26136W        W91363  33.411  26.188   1.853
26137W        W91364  17.750  22.675  12.599
26138W        W91365   9.576  26.828  12.136
26139W        W91366  16.697   5.900   3.260
26140W        W91367   4.843  14.229   4.389
26141W        W91368  36.468  32.031  12.409
26142W        W91369   8.330  41.362   1.743
26143W        W91370  36.721  26.672  14.306
26144W        W91371  44.933  22.215  14.566
26145W        W91372  12.758   5.709   0.821
26146W        W91373  38.490  36.379  13.529
26147W        W91374   2.900  44.615   5.419
26148W        W91375  31.284  17.758   3.529
26149W        W91376  15.053   6.150   1.666
26150W        W91377  22.560   5.188   4.050
26151W        W91378  29.581   0.806  11.599
26152W        W91379  17.649  26.495   1.685
26153W        W91380  30.120   0.385  11.082
26154W        W91381  16.561  28.134  14.521
26155W        W91382   3.291   1.642  13.446
26156W        W91383  15.270   1.966  10.781
26157W        W91384  22.023  19.848  10.605
26158W        W91385  31.967  22.058  13.423
26159W        W91386  27.151  22.852  11.203
26160W        W91387  33.556   5.266  10.778
26161W        W91388   6.327   7.113  11.642
26162W        W91389  18.195  40.275   2.807
26163W        W91390   2.431   7.397  11.010
26164W        W91391  37.359  39.777   1.616
26165W        W91392  16.780  33.576  10.523
26166W        W91393  31.057  28.280   4.935
26167W        W91394  31.773  44.556   0.790
26168W        W91395   5.654   5.305  11.564
26169W        W91396  21.377  30.314   4.099
26170W        W91397  20.930  34.243   1.108
26171W        W91398  42.349   5.809  14.149
26172W        W91399   7.263  23.488  14.870
26173W        W91400  33.051   2.040  10.690
26174W        W91401  12.531  40.911   2.150
26175W        W91402  22.543  10.429   1.939
26176W        W91403  29.674  30.172   2.249
26177W        W91404  13.234  18.233   0.942
26178W        W91405  22.195   1.389   2.537
26179W        W91406  35.967  43.966  12.858
26180W        W91407   1.913  18.106   3.799
26181W        W91408  38.279  20.793   2.695
26182W        W91409   2.238  19.478  13.819
26183W        W91410  23.192   7.757  13.694
26184W        W91411  44.486  10.952   0.598
26185W        W91412   2.661  35.552   4.157
26186W        W91413  16.125   3.456   2.614
26187W        W91414  21.272  21.173  11.438
26188W        W91415   9.728  35.531  13.064
26189W        W91416  22.058  16.659  11.988
26190W        W91417  27.429  11.188  10.543
26191W        W91418  14.700  18.420  11.534
26192W        W91419  34.194  19.426  13.342
26193W        W91420  15.927  12.868  13.969
26194W        W91421  14.024  17.287   4.508
26195W        W91422  29.464  28.084  14.952
26196W        W91423   2.449  25.994  11.497
26197W        W91424   6.735   0.840  11.972
26198W        W91425  39.855  10.128  12.118
26199W        W91426  24.988  41.050  13.833
26200W        W91427  10.244   9.767  13.285
26201W        W91428  19.703  20.664  12.309
26202W        W91429   4.595  44.798   2.549
26203W        W91430   5.750  34.873  12.056
26204W        W91431  39.684  24.458  14.449
26205W        W91432   8.050  36.602  12.852
26206W        W91433  31.158  14.856   1.062
26207W        W91434   2.842  13.213  10.485
26208W        W91435  19.345  26.740  14.422
26209W        W91436  19.764   6.762  14.881
26210W        W91437  15.083  43.890   1.715
26211W        W91438  23.273  38.682   3.135
26212W        W91439  18.228  40.071   1.012
26213W        W91440   4.517  24.241  13.924
26214W        W91441  39.560  26.165  14.889
26215W        W91442   7.698  38.000   0.455
26216W        W91443   9.704  20.975  12.842
26217W        W91444  34.053  15.206  14.978
26218W        W91445  11.770   6.816  11.390
26219W        W91446  11.020   5.457   0.728
26220W        W91447  21.116  26.126  11.618
26221W        W91448  41.971  24.668  14.852
26222W        W91449   8.411  35.973  10.658
26223W        W91450  24.732  17.655  13.923
26224W        W91451  42.320  38.747   2.746
26225W        W91452   0.334  30.086  11.405
26226W        W91453  14.026  20.007   1.896
26227W        W91454  18.842  38.136   4.147
26228W        W91455  10.262  19.627  12.060
26229W        W91456  14.756  10.044   1.438
26230W        W91457  39.242  28.883   1.456
26231W        W91458   8.956  14.101  10.198
26232W        W91459  31.434  38.502   0.440
26233W        W91460  34.850  18.108  11.538
26234W        W91461  26.032  11.831   3.601
26235W        W91462  26.154   8.853   4.291
26236W        W91463  28.592  19.832   1.940
26237W        W91464  30.189  11.156  12.827
26238W        W91465  24.681  28.477   4.675
26239W        W91466  20.628  25.802  12.665
26240W        W91467   1.441   3.444   1.187
26241W        W91468  14.363  16.342  12.516
26242W        W91469  29.891  19.624  14.129
26243W        W91470   7.037  10.060   2.467
26244W        W91471   5.257  22.194  11.927
26245W        W91472  18.576   3.481  14.952
26246W        W91473  26.566  11.490  12.914
26247W        W91474  25.083   9.104   1.329
26248W        W91475  33.021  32.514  12.988
26249W        W91476  37.236  41.453  13.938
26250W        W91477  17.281  11.224  12.061
26251W        W91478  37.516  34.384   4.920
26252W        W91479   9.232  20.305  13.881
26253W        W91480  10.606  39.088  10.614
26254W        W91481  29.412  31.143  13.370
26255W        W91482  15.817   4.370   2.219
26256W        W91483  19.182  36.984  13.779
26257W        W91484   1.490  28.557   0.378
26258W        W91485  30.994  43.023   1.582
26259W        W91486  26.186   3.891   2.251
26260W        W91487  18.535  23.803  12.057
26261W        W91488   9.695  25.440   1.665
26262W        W91489  43.488   4.725   1.841
26263W        W91490  19.051   5.261   0.916
26264W        W91491  26.631  40.907   4.535
26265W        W91492  11.293  33.507   3.157
26266W        W91493   1.942  38.289   4.408
26267W        W91494   8.066  44.148  10.324
26268W        W91495  26.891  16.819  14.868
26269W        W91496  14.127  14.627  13.945
26270W        W91497  20.922  41.758  14.552
26271W        W91498  36.322  18.909  13.905
26272W        W91499   8.822  34.419  11.235
26273W        W91500  17.679   4.404   0.366
26274W        W91501  30.412  23.298  10.777
26275W        W91502  23.185  35.862   1.765
26276W        W91503  29.756  32.267  11.166
26277W        W91504  13.309   7.453  12.830
26278W        W91505  14.520   1.314   4.239
26279W        W91506   5.532  14.692   4.841
26280W        W91507  24.093  12.070   1.779
26281W        W91508  34.561  10.957  13.016
26282W        W91509  15.821  26.597   1.449
26283W        W91510   3.242  10.892  13.383
26284W        W91511   9.722  39.102  14.938
26285W        W91512  40.252   6.742  13.937
26286W        W91513   4.700  31.165   0.828
26287W        W91514  17.283  28.144  11.229
26288W        W91515  11.015  38.109   3.028
26289W        W91516   2.664  39.983   4.577
26290W        W91517  43.894  10.741   3.863
26291W        W91518  28.662  26.573  13.876
26292W        W91519  35.845  18.756  14.995
26293W        W91520  18.990   6.636  12.527
26294W        W91521  15.494   5.256  12.900
26295W        W91522  14.769   7.048  10.589
26296W        W91523  36.293  13.775   4.236
26297W        W91524  16.629  31.271  12.849
26298W        W91525  33.063  40.471  12.401
26299W        W91526  31.648  20.064   4.224
26300W        W91527   5.289   5.538  11.238
26301W        W91528  39.076  42.640   1.810
26302W        W91529  12.231  31.427  13.819
26303W        W91530  43.993  30.771  13.968
26304W        W91531  14.380  36.438   2.693
26305W        W91532   4.201  37.021  14.962
26306W        W91533  41.556  35.914  14.804
26307W        W91534  29.678  16.985  13.313
26308W        W91535  35.277  44.119  11.190
26309W        W91536  20.894  34.992   1.329
26310W        W91537  34.383   7.367   2.904
26311W        W91538  15.144  10.359   3.459
26312W        W91539  20.924  25.046  10.279
26313W        W91540  10.190  44.835  10.122
26314W        W91541  14.025  44.441   4.622
26315W        W91542  25.284  30.350   4.738
26316W        W91543  25.140  42.027   0.778
26317W        W91544  36.816  11.314  14.936
26318W        W91545  33.187  27.982   3.169
26319W        W91546  25.096   4.901   2.452
26320W        W91547  43.298  44.839   1.726
26321W        W91548  39.145  32.451  12.210
26322W        W91549  36.836  17.764  14.676
26323W        W91550  33.432  44.819  13.325
26324W        W91551  21.218  29.438  12.639
26325W        W91552  31.853  10.339   2.579
26326W        W91553  16.816  31.723  10.553
26327W        W91554  10.891  17.051   3.621
26328W        W91555  40.202  17.640   1.417
26329W        W91556  21.717  21.739   4.141
26330W        W91557  22.957  28.177   0.500
26331W        W91558  20.310  31.520   2.177
26332W        W91559  15.734  43.814  12.547
26333W        W91560  40.839  11.428  14.540
26334W        W91561  24.089  26.171   3.348
26335W        W91562  20.801  27.940   2.457
26336W        W91563  29.659   9.172   1.215
26337W        W91564  26.940  13.512   0.739
26338W        W91565  21.710   8.415  11.955
26339W        W91566  19.036  38.582   1.843
26340W        W91567  27.379   5.163   4.243
26341W        W91568  30.623  18.067  11.876
26342W        W91569  34.549  36.425   0.385
26343W        W91570  20.798  19.720   3.721
26344W        W91571  34.701  41.875  13.013
26345W        W91572  24.036  32.454  10.442
26346W        W91573  43.278  12.266   0.895
26347W        W91574  40.478  31.016  12.481
26348W        W91575  29.953  26.915  12.517
26349W        W91576  31.441  27.973  14.584
26350W        W91577   3.446  38.509  11.473
26351W        W91578  20.917  26.973  12.109
26352W        W91579  20.726  28.457  13.238
26353W        W91580  41.698   3.210  10.790
26354W        W91581  32.111  24.536  14.546
26355W        W91582  13.374   3.811  14.485
26356W        W91583   0.348  13.671  13.870
26357W        W91584  18.399   5.227   4.668
26358W        W91585  12.737   0.008  14.858
26359W        W91586   2.556   9.972   2.535
26360W        W91587  23.508  16.663  10.602
26361W        W91588  41.430  19.490   3.456
26362W        W91589  19.215  15.032  12.625
26363W        W91590  37.982  38.402  14.899
26364W        W91591  10.792  22.135  11.812
26365W        W91592  15.542   7.188   4.911
26366W        W91593  30.356  12.396  13.977
26367W        W91594  40.968  37.077  10.938
26368W        W91595  23.550   3.570  11.235
26369W        W91596  27.203  19.607   2.166
26370W        W91597  34.870   4.595  10.298
26371W        W91598  25.944  38.694   3.302
26372W        W91599  11.217  31.488   1.184
26373W        W91600  27.841  11.724  11.565
26374W        W91601   5.280  35.575   2.251
26375W        W91602   3.191  18.671   5.092
26376W        W91603  12.430  34.127   4.170
26377W        W91604  43.780   0.015   3.442
26378W        W91605   6.242  34.489   1.687
26379W        W91606  10.364  25.374   4.121
26380W        W91607  35.163  15.598   1.208
26381W        W91608  44.864  32.634  13.164
26382W        W91609   2.163  42.299   0.522
26383W        W91610  17.748   3.009  12.036
26384W        W91611  37.324  44.456   0.032
26385W        W91612  11.400  17.223   1.826
26386W        W91613  44.390   8.125   2.694
26387W        W91614  11.058  20.186  12.955
26388W        W91615  23.696  23.473   3.646
26389W        W91616  10.258   1.029  11.377
26390W        W91617  17.053  33.105  13.607
26391W        W91618  26.658  22.997  13.505
26392W        W91619  39.831  23.526  11.960
26393W        W91620  10.707  30.849   1.894
26394W        W91621  34.071   4.287   0.748
26395W        W91622  23.530  28.334   1.189
26396W        W91623   9.044  34.488   4.057
26397W        W91624   5.904  42.727   4.174
26398W        W91625  16.569  23.443  12.094
26399W        W91626  23.279  29.573  14.254
26400W        W91627   8.658  30.097  12.894
26401W        W91628  10.817  10.082   3.802
26402W        W91629   2.049   8.390   1.036
26403W        W91630  20.537  23.497   1.715
26404W        W91631  19.584  34.078  14.071
26405W        W91632  12.772   6.108   2.220
26406W        W91633  23.019  30.032  11.688
26407W        W91634  39.657   6.272  14.836
26408W        W91635  42.753  28.773  13.706
26409W        W91636   7.710   1.085  14.788
26410W        W91637  25.525  16.717   4.511
26411W        W91638  29.113  26.740  14.825
26412W        W91639  43.302  26.097   0.661
26413W        W91640  42.311   5.800   4.649
26414W        W91641  12.317  30.339  11.965
26415W        W91642  15.100  41.316  10.756
26416W        W91643  42.213  21.238   4.568
26417W        W91644  28.439  17.722   0.900
26418W        W91645  18.219   6.932  12.052
26419W        W91646  37.534  33.494   3.602
26420W        W91647  33.092  23.777  14.795
26421W        W91648  26.437  20.694  14.897
26422W        W91649   2.905  25.877  13.043
26423W        W91650  30.589  34.588  11.642
26424W        W91651   6.429  39.575  14.883
26425W        W91652  20.924  35.015   4.333
26426W        W91653  23.803  33.531  13.439
26427W        W91654  38.031  32.082  13.454
26428W        W91655  41.611  21.228   2.306
26429W        W91656  15.361  30.317  10.351
26430W        W91657   9.619  44.731   0.289
26431W        W91658   5.754   4.173  12.186
26432W        W91659  32.583  29.174  14.117
26433W        W91660  14.344  28.300   3.173
26434W        W91661  13.528   5.853  14.579
26435W        W91662  22.876   0.590  12.536
26436W        W91663  44.646  23.183  10.669
26437W        W91664   6.123  21.871  13.646
26438W        W91665  40.217  18.834   1.755
26439W        W91666  38.532   2.383  14.353
26440W        W91667  41.161  27.048  13.772
26441W        W91668  31.359  33.383  11.233
26442W        W91669  14.352   9.785  12.044
26443W        W91670  10.241  25.527  12.163
26444W        W91671  43.368  34.168  11.109
26445W        W91672  43.733  11.538  11.915
26446W        W91673  15.070  41.481   2.723
26447W        W91674  19.593  29.892   2.333
26448W        W91675   6.181  33.160  12.781
26449W        W91676  35.577  32.034  12.920
26450W        W91677  38.341  33.950   4.925
26451W        W91678  29.150  43.225   2.786
26452W        W91679  14.731  14.338   2.115
26453W        W91680   9.257   6.636   2.834
26454W        W91681   9.194  11.534  12.555
26455W        W91682   0.202  22.604   4.374
26456W        W91683  25.097  23.951  10.668
26457W        W91684  11.274  33.869  14.845
26458W        W91685  12.134  17.104  14.416
26459W        W91686  23.147  11.287  13.560
26460W        W91687   8.634  19.301   1.220
26461W        W91688  16.535   9.352   2.412
26462W        W91689  18.249  12.117  12.848
26463W        W91690  33.061  20.292   0.475
26464W        W91691  38.966  21.219   3.729
26465W        W91692   3.356  17.205   0.403
26466W        W91693   5.378  29.428   3.241
26467W        W91694  29.974  18.537  14.876
26468W        W91695  20.199  28.250  13.352
26469W        W91696   4.917  35.260   3.310
26470W        W91697   6.158   8.546   9.889
26471W        W91698  10.718  38.060   2.243
26472W        W91699  12.571   8.352  12.925
26473W        W91700  21.417  14.159   2.656
26474W        W91701  41.325  18.372   4.769
26475W        W91702   8.865  43.905  14.796
26476W        W91703  10.779  44.600  14.312
26477W        W91704  13.739  44.284  12.246
26478W        W91705  39.197  35.158   2.933
26479W        W91706  21.650  14.796  10.413
26480W        W91707  23.053  32.956  14.490
26481W        W91708  31.245   4.724  11.330
26482W        W91709  22.555  36.587  12.906
26483W        W91710  21.204  22.256   0.552
26484W        W91711  30.424  44.747   0.300
26485W        W91712   1.375  33.653  13.822
26486W        W91713  31.018  23.647   1.944
26487W        W91714  18.142  41.235   1.062
26488W        W91715  19.772  35.591   2.435
26489W        W91716   9.608  18.297  11.921
26490W        W91717  31.823  31.657  12.902
26491W        W91718  20.742  19.901  10.830
26492W        W91719  29.480  32.000  11.535
26493W        W91720   5.140  27.038  12.873
26494W        W91721  34.109   0.991  12.460
26495W        W91722   3.317  26.825  13.807
26496W        W91723  43.465  27.727  10.965
26497W        W91724  23.503  39.495  11.743
26498W        W91725  24.130  32.782  13.527
26499W        W91726  30.020  28.493   4.599
26500W        W91727   6.650  26.127  12.190
26501W        W91728   6.623  30.511   1.763
26502W        W91729   8.239  11.956  13.560
26503W        W91730   5.907  10.087   0.520
26504W        W91731  38.980  23.032  11.789
26505W        W91732  29.059  42.312  12.326
26506W        W91733  44.933  38.786  14.371
26507W        W91734   8.848  12.850  12.319
26508W        W91735   9.319   2.027   4.596
26509W        W91736   5.416  22.126  14.669
26510W        W91737  20.549   7.585   0.852
26511W        W91738  20.788   7.774  13.113
26512W        W91739  37.340  25.548   1.893
26513W        W91740  19.087  44.796  12.816
26514W        W91741  36.479  21.591  10.478
26515W        W91742  33.191   6.921  14.317
26516W        W91743  39.965  10.826   4.631
26517W        W91744  10.822  12.650  12.094
26518W        W91745   8.024  37.531  13.846
26519W        W91746  38.974  30.454   2.645
26520W        W91747  21.186  42.793  10.839
26521W        W91748  35.004  42.539   3.799
26522W        W91749  12.068  10.561  14.843
26523W        W91750  13.144   3.905   1.280
26524W        W91751  16.844   8.884  14.052
26525W        W91752  35.674  44.394  13.525
26526W        W91753  12.082  30.655  11.666
26527W        W91754  44.424  34.229  14.046
26528W        W91755   7.851  36.950   4.691
26529W        W91756  28.584  21.474   1.301
26530W        W91757  28.461   7.603  14.032
26531W        W91758  10.712  25.634  14.942
26532W        W91759  38.609  27.157   0.398
26533W        W91760  30.105  37.972   5.086
26534W        W91761  20.440  16.777   3.977
26535W        W91762   8.720  31.947   3.712
26536W        W91763  26.132   6.045   3.191
26537W        W91764  25.658  39.793  14.065
26538W        W91765   0.146  17.725  11.080
26539W        W91766  22.127  30.302   4.709
26540W        W91767  13.695  25.693  14.249
26541W        W91768  11.294  15.117  10.495
26542W        W91769  38.979  38.583  14.793
26543W        W91770  37.573  21.184  11.580
26544W        W91771   1.736   7.150  14.536
26545W        W91772  24.074  29.983   2.765
26546W        W91773  10.858  20.179  12.046
26547W        W91774  36.059  20.333   0.498
26548W        W91775   3.181   8.763  11.903
26549W        W91776   9.397  27.261  11.889
26550W        W91777  32.033  16.068   1.417
26551W        W91778  42.229  32.084   2.240
26552W        W91779  32.431  35.121  12.640
26553W        W91780  15.768   1.485   4.756
26554W        W91781  24.918  12.368  14.291
26555W        W91782  41.231  14.881   2.571
26556W        W91783  32.328  10.018  10.273
26557W        W91784   7.245   8.611  12.039
26558W        W91785  43.064   9.929  14.334
26559W        W91786  40.545  18.787  13.472
26560W        W91787  11.698   5.801   4.687
26561W        W91788   3.770  27.777  13.520
26562W        W91789   5.797   7.784   0.281
26563W        W91790  39.984  40.306  13.051
26564W        W91791   4.227  24.149   0.209
26565W        W91792  42.983  33.892  13.939
26566W        W91793   4.433   0.949   1.721
26567W        W91794  39.016  19.288   3.641
26568W        W91795  24.532  40.104  11.214
26569W        W91796   4.808  36.941   4.814
26570W        W91797  21.336  34.364   3.885
26571W        W91798  33.490  33.109  10.755
26572W        W91799  27.548  12.560   9.787
26573W        W91800  34.477  23.782   2.440
26574W        W91801  23.915  27.068   3.740
26575W        W91802  34.392  41.319   0.048
26576W        W91803   3.929   9.408  10.430
26577W        W91804  34.502  31.641   0.417
26578W        W91805  43.067   5.325   3.623
26579W        W91806  25.744  16.689   3.182
26580W        W91807  18.230  14.294  13.066
26581W        W91808  27.810  24.121  14.797
26582W        W91809   8.381  20.000  13.601
26583W        W91810  20.622   9.847   4.165
26584W        W91811  15.876   7.169   1.412
26585W        W91812  30.018   5.782  14.433
26586W        W91813   5.301  19.619  13.574
26587W        W91814   2.255  15.070  14.667
26588W        W91815  21.943  20.419  10.467
26589W        W91816  13.322  17.823  13.971
26590W        W91817  22.613  12.314   1.880
26591W        W91818  17.610  17.656  13.581
26592W        W91819  26.504  29.488  11.622
26593W        W91820   6.414   6.404   1.000
26594W        W91821  24.988  25.719   1.394
26595W        W91822  30.708   5.687   4.416
26596W        W91823  32.328   3.675  12.460
26597W        W91824   0.940   2.638  13.769
26598W        W91825  19.692   2.137  12.945
26599W        W91826  21.564   5.703  14.549
26600W        W91827  36.892  41.392  13.024
26601W        W91828  32.738  40.372   3.545
26602W        W91829  14.157   3.077   4.276
26603W        W91830  20.392  19.745   3.413
26604W        W91831   1.744   1.024   3.970
26605W        W91832  43.289  42.924   4.645
26606W        W91833  10.393  21.883  12.636
26607W        W91834  21.847  10.363  14.336
26608W        W91835   3.679  33.722   9.972
26609W        W91836  19.851  17.543   4.150
26610W        W91837  13.233   5.614  10.345
26611W        W91838  13.848  26.527   4.075
26612W        W91839  36.382  20.492  10.767
26613W        W91840  29.541   1.489  13.863
26614W        W91841  31.222  41.421  11.998
26615W        W91842  39.483  24.625  11.421
26616W        W91843  32.574  28.595   2.285
26617W        W91844  32.463   9.892  14.133
26618W        W91845  40.064  13.664  14.908
26619W        W91846   5.707  33.611   4.402
26620W        W91847  15.184  39.317   3.195
26621W        W91848  28.177  19.652  11.596
26622W        W91849  33.742  21.602   0.320
26623W        W91850   0.377  29.670   0.035
26624W        W91851   9.294  44.003   4.903
26625W        W91852  33.596  15.731   4.473
26626W        W91853  27.944   6.781   2.011
26627W        W91854  24.962   0.872   2.451
26628W        W91855  29.238   0.745  13.393
26629W        W91856  20.979  16.179   1.231
26630W        W91857  11.374  26.437   1.507
26631W        W91858   5.374  42.905  10.864
26632W        W91859  33.280  43.837  14.022
26633W        W91860  29.465   4.685   1.584
26634W        W91861  18.489  43.348   4.797
26635W        W91862  34.073  37.980  13.869
26636W        W91863  42.425  22.089   1.269
26637W        W91864   9.147  28.761  12.092
26638W        W91865   4.342  10.067   3.723
26639W        W91866  11.399  16.458  14.707
26640W        W91867  27.473  24.105   0.172
26641W        W91868  36.810   8.799  11.027
26642W        W91869  16.229  30.696   1.887
26643W        W91870  10.140  29.488   0.284
26644W        W91871   2.216  18.128  14.809
26645W        W91872  19.807  10.113  12.502
26646W        W91873  15.749  32.332  12.678
26647W        W91874  16.278  26.876   2.134
26648W        W91875   6.735  37.661   2.735
26649W        W91876  13.137  21.968  11.165
26650W        W91877  13.539   8.683   2.583
26651W        W91878  13.844   4.226  11.058
26652W        W91879   5.229  37.967  11.024
26653W        W91880  24.821  11.980  12.655
26654W        W91881  15.738  31.011   4.533
26655W        W91882  26.477  42.752  13.247
26656W        W91883  14.897   1.302   4.603
26657W        W91884  17.887  24.606  11.219
26658W        W91885  15.561  42.532   1.895
26659W        W91886  34.817   4.776   3.934
26660W        W91887   8.282  17.161  14.023
26661W        W91888  12.648  35.674   3.627
26662W        W91889  41.298  37.454  14.998
26663W        W91890  12.358   5.714  13.038
26664W        W91891  12.246   3.362  14.969
26665W        W91892  35.149  36.007  10.995
26666W        W91893  36.027  37.623   2.592
26667W        W91894  39.492  33.498  12.964
26668W        W91895  23.475  29.626  10.785
26669W        W91896  24.691  36.547  12.146
26670W        W91897  40.048  34.426  13.757
26671W        W91898  36.313  29.164   3.120
26672W        W91899   6.680  24.970  14.850
26673W        W91900  32.556  41.463  13.211
26674W        W91901  27.151  14.597  13.974
26675W        W91902  20.894   4.107  11.395
26676W        W91903  11.481  38.403  13.541
26677W        W91904  35.904  26.202   2.827
26678W        W91905  15.524  17.093   1.300
26679W        W91906   2.036   5.200  14.334
26680W        W91907  44.038  41.426  14.418
26681W        W91908  41.211   1.136   3.125
26682W        W91909   0.183  29.613  14.559
26683W        W91910  42.044   1.147  12.467
26684W        W91911  23.395  14.381  11.797
26685W        W91912  44.993   1.403   1.378
26686W        W91913   8.255  20.554   2.851
26687W        W91914  15.350   8.372  11.621
26688W        W91915  40.092  42.653  13.902
26689W        W91916  27.243  24.926   0.009
26690W        W91917  17.360  44.509  13.505
26691W        W91918  13.836   0.042   2.349
26692W        W91919  20.149  27.544  10.772
26693W        W91920  22.732  28.165  10.701
26694W        W91921  38.454  26.666  12.959
26695W        W91922  25.116  10.868   3.992
26696W        W91923  16.060  29.105  11.283
26697W        W91924  35.234  30.792   2.157
26698W        W91925   3.550  23.172  10.775
26699W        W91926  12.108  32.320  11.311
26700W        W91927  13.070  24.282   2.809
26701W        W91928  26.438  21.819   2.760
26702W        W91929   3.317   7.360   1.654
26703W        W91930  36.384  21.059  12.868
26704W        W91931   3.443  23.332  14.293
26705W        W91932  34.483  10.896   3.621
26706W        W91933  25.286  36.121   1.120
26707W        W91934  34.200  24.081  14.595
26708W        W91935  38.578  24.569   3.422
26709W        W91936   6.968  18.068  12.520
26710W        W91937  34.710  34.136   1.402
26711W        W91938  31.680  39.398   3.639
26712W        W91939  22.442  39.090  14.261
26713W        W91940   5.249  13.707   1.252
26714W        W91941  32.983  36.496  12.935
26715W        W91942  21.954  27.222  11.588
26716W        W91943  19.821  26.539  14.386
26717W        W91944  31.999  20.367  14.902
26718W        W91945  14.599  24.066  14.170
26719W        W91946  36.462   4.190  13.510
26720W        W91947   5.520  43.038   9.979
26721W        W91948  30.585  34.771   0.490
26722W        W91949   2.293  32.998  10.500
26723W        W91950  26.150  34.664  12.108
26724W        W91951  23.222  33.120   4.733
26725W        W91952  26.595  41.053  11.601
26726W        W91953  21.313  19.492   1.402
26727W        W91954   3.409  37.997  11.617
26728W        W91955   5.422  36.576  10.737
26729W        W91956   5.674   3.738  14.955
26730W        W91957  11.688  28.471   3.255
26731W        W91958  37.868  24.928  12.868
26732W        W91959   5.438  41.427  14.320
26733W        W91960  41.430  30.223  10.600
26734W        W91961  24.193  29.882  14.416
26735W        W91962  19.907  30.710   3.321
26736W        W91963   5.231  22.201   0.869
26737W        W91964   0.710  29.021   4.515
26738W        W91965   6.689  28.653   2.452
26739W        W91966   1.886   7.333   3.821
26740W        W91967  15.468  26.552   2.894
26741W        W91968   4.964  21.222   0.897
26742W        W91969  34.480  36.484   1.715
26743W        W91970  19.967   3.204   0.649
26744W        W91971  33.888   7.787   3.774
26745W        W91972  24.791   2.333   0.262
26746W        W91973  34.599  16.734   0.855
26747W        W91974  24.933  23.175   3.173
26748W        W91975  28.321  25.700   3.157
26749W        W91976   0.334   7.271   3.000
26750W        W91977   9.656  11.415   1.287
26751W        W91978  18.482  12.247  14.281
26752W        W91979  41.745  19.469   3.877
26753W        W91980  28.689  34.381   0.190
26754W        W91981   7.061  32.507   2.626
26755W        W91982   0.655  21.904   2.484
26756W        W91983  22.640  35.782   3.749
26757W        W91984  40.772  21.014  11.588
26758W        W91985  28.581   1.493   4.063
26759W        W91986  17.804  14.066  14.461
26760W        W91987  33.126  42.797   3.700
26761W        W91988   4.626   2.176   3.275
26762W        W91989  38.321  14.235   4.270
26763W        W91990  39.297  20.274   2.247
26764W        W91991  14.108  24.511  13.950
26765W        W91992  17.068  32.440   0.510
26766W        W91993   6.315  31.976  14.004
26767W        W91994   5.772  25.736  14.286
26768W        W91995  33.619  35.310   4.369
26769W        W91996  38.881  34.879   0.764
26770W        W91997  36.330  29.270   1.042
26771W        W91998  32.845  26.519   4.041
26772W        W91999  22.575  32.122   0.417
26773W        W92000  15.805  10.060  11.231
26774W        W92001  35.076   9.906  14.209
26775W        W92002  30.852  34.360   3.770
26776W        W92003  26.832  43.406   4.374
26777W        W92004   9.339  36.107   2.616
26778W        W92005  27.567  28.600  14.248
26779W        W92006  11.303   0.336  12.306
26780W        W92007  44.630   2.154   1.023
26781W        W92008  39.090  27.789  13.685
26782W        W92009  36.677  32.126  10.453
26783W        W92010   9.774  22.265   1.494
26784W        W92011  22.840  23.687  11.941
26785W        W92012   4.367  23.822   4.856
26786W        W92013  34.074  30.548  12.673
26787W        W92014  20.289  12.822   0.946
26788W        W92015  13.751  16.277   3.169
26789W        W92016  23.169  23.327  14.861
26790W        W92017  13.213  43.297  14.754
26791W        W92018  27.860   5.285   0.004
26792W        W92019  10.265  25.025   0.406
26793W        W92020  31.443  28.119  12.782
26794W        W92021   6.317  27.611  10.426
26795W        W92022  35.353  25.379  12.881
26796W        W92023   2.724   8.343  13.918
26797W        W92024   6.406  38.127   1.677
26798W        W92025  33.330  43.117   1.721
26799W        W92026  25.559  21.504  12.239
26800W        W92027  18.155  32.660   0.733
26801W        W92028  34.372   5.153  13.153
26802W        W92029   2.364  31.514   3.969
26803W        W92030  26.020  15.090   0.819
26804W        W92031  15.547  35.108  13.904
26805W        W92032  39.840  35.347   1.186
26806W        W92033  21.746   9.094   0.346
26807W        W92034  22.729  18.176   0.241
26808W        W92035  10.378  40.459  12.151
26809W        W92036   3.744   0.383   1.742
26810W        W92037   5.940  20.215  12.473
26811W        W92038  31.140   4.842  10.786
26812W        W92039   0.642   4.405   3.640
26813W        W92040   7.738  41.798   3.742
26814W        W92041  26.923  29.340   0.075
26815W        W92042  24.754  42.354   4.986
26816W        W92043  27.638  41.485   2.187
26817W        W92044  35.306  14.667  11.413
26818W        W92045   1.639  26.658   3.812
26819W        W92046   7.895  25.389  10.371
26820W        W92047   8.870  29.449   3.659
26821W        W92048  30.685  32.338  11.614
26822W        W92049  31.102  25.158   9.408
26823W        W92050  40.906   2.158   3.678
26824W        W92051  19.700  33.550   2.877
26825W        W92052  11.160   0.847  11.432
26826W        W92053  27.562  11.352   3.303
26827W        W92054  13.231  11.980   2.377
26828W        W92055   8.954  43.946  13.302
26829W        W92056  10.109  38.556   1.887
26830W        W92057  32.529  44.319   4.559
26831W        W92058   3.394  40.948   3.354
26832W        W92059   9.654  38.939  11.410
26833W        W92060  18.123  22.975   4.500
26834W        W92061  36.604  35.025   1.059
26835W        W92062  10.761  15.977   3.195
26836W        W92063  26.090   5.084   1.886
26837W        W92064  17.528   5.641  11.073
26838W        W92065   9.929  21.801  11.542
26839W        W92066   0.638  34.329   1.194
26840W        W92067  26.919  40.409   1.817
26841W        W92068   7.959  40.452   4.695
26842W        W92069  11.394  28.002   3.144
26843W        W92070   8.405  42.853  11.048
26844W        W92071  34.401  17.617  11.244
26845W        W92072   8.577  19.386   3.373
26846W        W92073  43.297  43.872  14.485
26847W        W92074  43.385  42.680   4.191
26848W        W92075   2.456   8.407   3.724
26849W        W92076  25.977  15.749  14.998
26850W        W92077  28.020   7.668  13.111
26851W        W92078   4.317  14.245   4.530
26852W        W92079  23.019  18.118   4.452
26853W        W92080   3.217   0.919  10.530
26854W        W92081  18.026  29.968   4.735
26855W        W92082  38.336  25.657  11.127
26856W        W92083  28.184  37.595   3.207
26857W        W92084   9.221  30.461  10.973
26858W        W92085  17.707  28.702   4.868
26859W        W92086   0.261  43.401   3.583
26860W        W92087  43.907  40.313  14.860
26861W        W92088  19.577  15.382   0.702
26862W        W92089   2.188  41.249   1.255
26863W        W92090  26.404  22.211  13.078
26864W        W92091  18.671  40.003  11.955
26865W        W92092  29.693  21.342   4.915
26866W        W92093  39.550  29.307   4.151
26867W        W92094  22.666  34.524   0.880
26868W        W92095  44.867  41.032  12.936
26869W        W92096  10.804  35.079  12.925
26870W        W92097   1.209  24.124  11.623
26871W        W92098  33.839  17.278  13.891
26872W        W92099  26.615  37.622  12.583
26873W        W92100  16.598  24.193  11.184
26874W        W92101   9.365  24.920   0.186
26875W        W92102  33.681  13.759  14.858
26876W        W92103  43.960  13.270  11.024
26877W        W92104  21.693  20.904  13.930
26878W        W92105  17.229  28.467   3.514
26879W        W92106  22.779  15.860  12.170
26880W        W92107  31.901   5.877  14.311
26881W        W92108  18.636   5.240  14.541
26882W        W92109  18.531   0.411   1.023
26883W        W92110  11.347  20.536   0.941
26884W        W92111  27.900  25.483   0.195
26885W        W92112  22.152  11.468  11.584
26886W        W92113  41.046  32.857   0.492
26887W        W92114  15.058  22.263   1.098
26888W        W92115  25.529  39.091   4.050
26889W        W92116  23.442  14.194   2.205
26890W        W92117  38.082  29.834  14.845
26891W        W92118  29.978  23.094  10.887
26892W        W92119  34.195  13.423  14.474
26893W        W92120  39.377  30.983  13.792
26894W        W92121  18.920  35.626   1.767
26895W        W92122  36.561  27.419   2.825
26896W        W92123  18.925  11.955  14.345
26897W        W92124  43.351  21.235  11.622
26898W        W92125   2.642  16.210  11.948
26899W        W92126  37.866  15.530   3.569
26900W        W92127  11.948   2.726   2.781
26901W        W92128   2.222  29.563   0.180
26902W        W92129  28.583  20.664   3.678
26903W        W92130   6.287   7.623  11.567
26904W        W92131  25.180  41.399   0.074
26905W        W92132  37.872  24.900  13.813
26906W        W92133  19.716  42.428  12.993
26907W        W92134  15.257  25.940  12.105
26908W        W92135  36.040  25.050  13.551
26909W        W92136  24.899   0.988   0.916
26910W        W92137  30.220   5.017   4.189
26911W        W92138   6.833   5.381   4.773
26912W        W92139   1.728   5.780   1.700
26913W        W92140  25.485  29.213   3.238
26914W        W92141  42.031  25.929   1.872
26915W        W92142  29.400  24.466   4.845
26916W        W92143  10.563  15.548  11.614
26917W        W92144  14.071  25.700   0.354
26918W        W92145  40.853  16.653  12.550
26919W        W92146  24.077  36.339   3.894
26920W        W92147  29.355  12.599   4.777
26921W        W92148   2.706  18.301  14.816
26922W        W92149   3.258   2.915   2.945
26923W        W92150  43.718  21.816  13.294
26924W        W92151  34.514  35.475   2.739
26925W        W92152  38.538  32.180  13.451
26926W        W92153  30.180   2.461  11.819
26927W        W92154  41.501   1.535  13.937
26928W        W92155   3.890  41.307  14.214
26929W        W92156  35.505   4.109   1.872
26930W        W92157  33.974  10.204   2.900
26931W        W92158  19.766  30.199   0.201
26932W        W92159  34.868  16.815   0.425
26933W        W92160  35.545   3.618  12.704
26934W        W92161  18.511  20.637   4.211
26935W        W92162  17.698  24.138   1.441
26936W        W92163  30.584  30.227   4.539
26937W        W92164  16.555  26.409  14.367
26938W        W92165  18.299  13.580   2.365
26939W        W92166  33.687  44.854  10.274
26940W        W92167   2.589  35.103  12.787
26941W        W92168  19.718   1.301  13.431
26942W        W92169  22.873  40.565   5.152
26943W        W92170  34.988   1.569  10.290
26944W        W92171  37.324  19.977  13.114
26945W        W92172  34.204  16.235  10.910
26946W        W92173  14.950  35.708   2.787
26947W        W92174  26.988  34.138   3.762
26948W        W92175   0.501  23.685  10.640
26949W        W92176  18.692  28.511   4.792
26950W        W92177   9.323  40.285   1.210
26951W        W92178   6.349  18.568   1.340
26952W        W92179  36.105  40.925  12.082
26953W        W92180  12.179  42.529   1.682
26954W        W92181  37.317   9.062  13.028
26955W        W92182  25.215  16.254   1.852
26956W        W92183   7.281  10.731   4.092
26957W        W92184  30.044  21.785  13.344
26958W        W92185  29.359  15.852   3.746
26959W        W92186  16.176  29.530  12.453
26960W        W92187  43.052   1.032   5.099
26961W        W92188   5.293  26.880   3.975
26962W        W92189  35.404   4.429  11.160
26963W        W92190  31.611  24.285   1.481
26964W        W92191   1.964   5.845  13.121
26965W        W92192  14.225   1.702   3.616
26966W        W92193  23.914  29.339  14.971
26967W        W92194  13.652  21.673  12.340
26968W        W92195  14.854  37.395  13.791
26969W        W92196  10.761   5.192   3.253
26970W        W92197  42.825  34.021   1.881
26971W        W92198  40.584  19.235   2.810
26972W        W92199   0.395   4.456   1.848
26973W        W92200  32.050  36.014   2.076
26974W        W92201  34.982  28.467   2.039
26975W        W92202  11.674   8.565   0.281
26976W        W92203   4.372   0.090  12.645
26977W        W92204  28.433  19.299  12.872
26978W        W92205  18.299  31.675  13.384
26979W        W92206  29.172   0.447   4.551
26980W        W92207  35.431  14.906  14.944
26981W        W92208  22.125  44.052   3.173
26982W        W92209   7.932  15.736   2.108
26983W        W92210  25.204  40.858  14.341
26984W        W92211  24.521   4.477  10.609
26985W        W92212   4.922  23.054  12.170
26986W        W92213  36.844   4.946  14.038
26987W        W92214   9.352  12.769  10.637
26988W        W92215  13.737  42.854  10.782
26989W        W92216  44.473   6.892   4.757
26990W        W92217  12.355   9.286  12.628
26991W        W92218  42.445  11.144  11.225
26992W        W92219  27.594  38.243  10.155
26993W        W92220  42.735  21.418  11.205
26994W        W92221  44.005  43.042   1.372
26995W        W92222  33.638   7.914  11.985
26996W        W92223   1.581  18.707  13.910
26997W        W92224  41.039  43.517   4.659
26998W        W92225  42.368   8.767   2.789
26999W        W92226   8.126  40.103  13.556
27000W        W92227  34.324  31.157   4.100
27001W        W92228  39.478  17.045  14.312
27002W        W92229  12.604  18.635   3.304
27003W        W92230  27.078  22.479   0.032
27004W        W92231   1.155  24.122  14.723
27005W        W92232  14.143  36.302   1.171
27006W        W92233  12.284  38.884  13.488
27007W        W92234  28.670  33.605  10.438
27008W        W92235   4.945  28.186   0.862
27009W        W92236  40.459  29.710  12.080
27010W        W92237   0.808  15.775   3.236
27011W        W92238  29.954  32.653  10.818
27012W        W92239  31.554  14.987   4.516
27013W        W92240  29.776  30.749  14.848
27014W        W92241   6.894  43.386  13.508
27015W        W92242  22.686  34.163   1.783
27016W        W92243  32.904   7.312   0.203
27017W        W92244  44.872  10.271   0.490
27018W        W92245  30.611  11.899   1.179
27019W        W92246  21.453  31.052   2.238
27020W        W92247  29.987  33.737  14.968
27021W        W92248   6.312  27.983  13.538
27022W        W92249  27.411  38.687   4.713
27023W        W92250  10.135  12.022   3.673
27024W        W92251   1.097   0.624  14.094
27025W        W92252  18.472  17.207  12.637
27026W        W92253   9.124  16.172  14.412
27027W        W92254  23.120   9.831   4.293
27028W        W92255   7.597  23.982  13.617
27029W        W92256  42.096   2.270  13.817
27030W        W92257  31.541  11.545  11.132
27031W        W92258  38.964  37.459  11.367
27032W        W92259  30.171  24.649   3.271
27033W        W92260  36.227  32.405   2.181
27034W        W92261  31.667  40.496  12.453
27035W        W92262  36.868  22.386   1.429
27036W        W92263  24.662  22.073   0.321
27037W        W92264   4.431   9.805  13.421
27038W        W92265  14.389  23.223   3.765
27039W        W92266  25.242  30.112   1.702
27040W        W92267  40.235  31.726   2.469
27041W        W92268  32.589  20.274   1.192
27042W        W92269  13.445  43.320  14.298
27043W        W92270  18.836  43.802   4.660
27044W        W92271  17.084  41.835  12.429
27045W        W92272  14.705  31.412   2.679
27046W        W92273  41.005  13.241   0.367
27047W        W92274  11.649  12.879  12.040
27048W        W92275  31.032  35.512   0.964
27049W        W92276  12.323  44.485   0.948
27050W        W92277  44.201  34.384  14.967
27051W        W92278  32.337  42.427   4.831
27052W        W92279  13.529  15.689   4.088
27053W        W92280  22.070  19.362  10.781
27054W        W92281   1.725   7.246  12.228
27055W        W92282  28.428  36.064   0.996
27056W        W92283   0.111  21.312   5.115
27057W        W92284  11.888   0.901   1.806
27058W        W92285  22.868   5.791   2.649
27059W        W92286   9.266  26.757  12.545
27060W        W92287  20.288   7.708  10.865
27061W        W92288  36.993  38.963   4.382
27062W        W92289  41.260  12.773   1.795
27063W        W92290  38.320  14.132  11.917
27064W        W92291  21.406  20.319  11.625
27065W        W92292  25.141  21.892   4.142
27066W        W92293  13.158  19.670   4.430
27067W        W92294  44.481  32.391  10.045
27068W        W92295  10.493   4.609   2.909
27069W        W92296  25.960  28.117   2.317
27070W        W92297  18.029  20.701  12.484
27071W        W92298  26.005  22.963  13.823
27072W        W92299  16.302  16.961   4.606
27073W        W92300   6.441   6.891   0.813
27074W        W92301  35.465  20.561   2.439
27075W        W92302  40.269  21.310   2.225
27076W        W92303   1.942  36.385  11.938
27077W        W92304   5.898  30.873   3.755
27078W        W92305  22.186  17.086  10.629
27079W        W92306  36.596  28.070  13.779
27080W        W92307  19.796  11.014  11.535
27081W        W92308  42.918  42.385   4.080
27082W        W92309  17.303  33.599  10.580
27083W        W92310   1.976  17.146  11.574
27084W        W92311  29.530  43.834  13.840
27085W        W92312   8.271  13.166  12.428
27086W        W92313  28.917  17.598   1.130
27087W        W92314  22.333  15.992   2.888
27088W        W92315  36.892  12.726  14.588
27089W        W92316  10.235  20.646  14.638
27090W        W92317  18.586  24.491  12.910
27091W        W92318  10.891  17.575   3.440
27092W        W92319  13.392   6.839  14.699
27093W        W92320  37.939  32.510  10.542
27094W        W92321  38.955  27.024   3.444
27095W        W92322  16.350  44.760   1.364
27096W        W92323  21.692  18.034  11.178
27097W        W92324   4.008   4.344  10.825
27098W        W92325  10.277  18.721  11.426
27099W        W92326  26.016  12.363   0.783
27100W        W92327  44.443  13.688  14.496
27101W        W92328  31.442  17.576   1.160
27102W        W92329  44.763  41.441   2.407
27103W        W92330  13.745  16.245   0.238
27104W        W92331   7.954   2.356  11.441
27105W        W92332  13.635  14.232  13.402
27106W        W92333  37.339  36.976   2.752
27107W        W92334  40.066   0.338   4.023
27108W        W92335  41.185  21.074   2.038
27109W        W92336  22.779   5.895   3.747
27110W        W92337   3.990  24.098  14.726
27111W        W92338  41.332  18.071  12.562
27112W        W92339  26.470   6.609  12.023
27113W        W92340  43.319  23.220   2.710
27114W        W92341   5.656  23.392   2.236
27115W        W92342  15.989   6.901   4.882
27116W        W92343  36.797  33.108  11.737
27117W        W92344  30.903   3.954   0.774
27118W        W92345  12.672  42.455   0.071
27119W        W92346  19.337   8.978   0.933
27120W        W92347  26.983   9.776   2.754
27121W        W92348  26.323  26.180   1.454
27122W        W92349  12.189  40.898  12.122
27123W        W92350   7.926  44.187   5.006
27124W        W92351  16.343  43.310  13.705
27125W        W92352   4.023  27.445  10.207
27126W        W92353  29.210  25.243  14.981
27127W        W92354  11.622  19.324   4.174
27128W        W92355  13.830   6.202  14.840
27129W        W92356  14.667  35.400   4.639
27130W        W92357  20.091   0.358  13.524
27131W        W92358  35.277  28.673   1.658
27132W        W92359  36.337  17.424  13.097
27133W        W92360  27.317   4.344  13.014
27134W        W92361  37.456  28.111  11.913
27135W        W92362   0.497   8.813   5.089
27136W        W92363  11.304  19.302  11.989
27137W        W92364  42.964  11.326  13.107
27138W        W92365  40.783  30.005  11.812
27139W        W92366   3.356  16.625   2.335
27140W        W92367  29.602   0.337   3.719
27141W        W92368  15.228  25.918  14.324
27142W        W92369  28.446  21.859  11.299
27143W        W92370  38.340   8.783   4.005
27144W        W92371  35.102  30.638   0.290
27145W        W92372   9.288   7.016   3.794
27146W        W92373  23.556  31.853   3.617
27147W        W92374  27.214  20.195  13.978
27148W        W92375  30.080  24.042   0.748
27149W        W92376  35.870  26.706   4.156
27150W        W92377  18.225  41.104  13.140
27151W        W92378  17.470  35.418   0.343
27152W        W92379  15.182  29.592  13.365
27153W        W92380  38.327  26.134  13.830
27154W        W92381   8.781  29.250  10.062
27155W        W92382  28.586  40.956  11.533
27156W        W92383  25.114  12.174   1.459
27157W        W92384  27.049  13.312  10.624
27158W        W92385  26.829  43.784   3.628
27159W        W92386  25.122   7.633   0.406
27160W        W92387   3.294  34.207   1.261
27161W        W92388  42.903  35.263   2.753
27162W        W92389  10.655  27.444   3.532
27163W        W92390   6.271   4.361   4.181
27164W        W92391   0.493   1.221   1.251
27165W        W92392  43.798  27.630   3.243
27166W        W92393  17.610  37.326   4.612
27167W        W92394   7.423  22.244  13.447
27168W        W92395   1.340  19.912  12.311
27169W        W92396  41.475   6.956   0.787
27170W        W92397   8.386  10.665  14.906
27171W        W92398  30.532  23.277   0.794
27172W        W92399  21.097   0.098  12.620
27173W        W92400  27.779   5.108  12.655
27174W        W92401   6.092   2.152  13.942
27175W        W92402  27.436  28.040  14.958
27176W        W92403  39.468  21.125   3.783
27177W        W92404  24.400  19.292   1.467
27178W        W92405  28.635  23.676   1.470
27179W        W92406  24.996   1.085  12.194
27180W        W92407  12.092   1.353   3.130
27181W        W92408  27.677  15.571  10.616
27182W        W92409  41.262  35.084  11.216
27183W        W92410  14.806   5.526   2.911
27184W        W92411  31.078  15.024  12.565
27185W        W92412  10.112  32.399   9.911
27186W        W92413  10.872  11.996   2.394
27187W        W92414  13.028  42.916  13.000
27188W        W92415  18.356  26.559  11.938
27189W        W92416  16.591  11.163   1.429
27190W        W92417  41.880  31.708  13.415
27191W        W92418  38.494  29.670   2.117
27192W        W92419  23.154  31.570   3.749
27193W        W92420  12.694  41.920   1.460
27194W        W92421  31.186   3.410   2.644
27195W        W92422   6.714  10.328   2.763
27196W        W92423  42.519  21.942  14.297
27197W        W92424  16.096  27.486   1.371
27198W        W92425  30.943  34.156   2.067
27199W        W92426  21.760  37.439  12.518
27200W        W92427  34.334  42.780   4.637
27201W        W92428   0.035  42.750   1.494
27202W        W92429  14.640   3.129  11.528
27203W        W92430   6.239   1.348   3.333
27204W        W92431  24.075  15.661  14.355
27205W        W92432  43.581  37.483  12.998
27206W        W92433  27.026  18.133  12.711
27207W        W92434  18.584  18.068   1.710
27208W        W92435  42.467  19.975   1.855
27209W        W92436  40.537  10.909   4.983
27210W        W92437  14.095  43.261   0.321
27211W        W92438  22.934  30.113   2.743
27212W        W92439   7.967   0.957   3.403
27213W        W92440  37.483  35.970  10.818
27214W        W92441  40.942  11.383   1.566
27215W        W92442   5.936  16.033  12.814
27216W        W92443  38.225   0.529  12.066
27217W        W92444  29.134  26.359  13.817
27218W        W92445   3.824   9.405   4.023
27219W        W92446  31.861   5.995   1.028
27220W        W92447  17.162  29.934  14.034
27221W        W92448  16.934  16.539   0.927
27222W        W92449  16.541  40.351  12.121
27223W        W92450  43.569  29.331  12.476
27224W        W92451  35.802  11.876   3.957
27225W        W92452  40.441  43.044  10.409
27226W        W92453   7.798   9.882  14.965
27227W        W92454  11.941  19.586   5.062
27228W        W92455   0.484  36.001  13.883
27229W        W92456   1.905  15.829   1.690
27230W        W92457  12.220  18.684   2.365
27231W        W92458  22.110  13.137  13.016
27232W        W92459  43.555   6.182   4.139
27233W        W92460  41.870  32.864   2.817
27234W        W92461   3.257  23.210   1.713
27235W        W92462   9.102   5.772  14.330
27236W        W92463  18.483  20.797   0.855
27237W        W92464  24.253   9.229   0.326
27238W        W92465  33.875  18.601   2.484
27239W        W92466  32.783  30.052   2.168
27240W        W92467  26.437  38.587  10.657
27241W        W92468  19.575  35.584  10.997
27242W        W92469  39.548  21.821  14.103
27243W        W92470  23.297  36.349  12.625
27244W        W92471   6.109  33.119  14.699
27245W        W92472   9.723  21.951   1.904
27246W        W92473  31.047  36.527   1.646
27247W        W92474  36.892  11.661   1.316
27248W        W92475  32.089  44.385  11.557
27249W        W92476  20.180  36.329   4.056
27250W        W92477  25.088  28.860  11.182
27251W        W92478  19.805  24.972   3.608
27252W        W92479  21.788  33.244   1.020
27253W        W92480  15.025  41.516  13.928
27254W        W92481  17.611  20.187  14.060
27255W        W92482  22.610  17.585  13.159
27256W        W92483  20.003  34.333  12.901
27257W        W92484  31.316  15.140   5.353
27258W        W92485  10.297  34.112  13.878
27259W        W92486  38.103  40.211  11.628
27260W        W92487   6.737  44.579  14.547
27261W        W92488   0.875  11.706  13.580
27262W        W92489  23.742  11.914  10.791
27263W        W92490  10.246  22.201   1.282
27264W        W92491  27.663   1.777  11.654
27265W        W92492  29.777   8.201   2.817
27266W        W92493   5.702  12.235  10.764
27267W        W92494  40.357  20.693  11.615
27268W        W92495  25.585  28.570   3.844
27269W        W92496  22.779  24.203   1.453
27270W        W92497   9.073  42.188   3.621
27271W        W92498  18.012  42.554   1.946
27272W        W92499  14.790   3.313   3.001
27273W        W92500   9.132   6.266   0.486
27274W        W92501   5.887  43.451  12.126
27275W        W92502  32.976   3.141  11.997
27276W        W92503   5.671  34.012  12.543
27277W        W92504   3.829  20.197  13.487
27278W        W92505   0.470  30.386   3.102
27279W        W92506  40.826   7.266  13.934
27280W        W92507  36.343  25.474  12.827
27281W        W92508  20.396  17.234   3.686
27282W        W92509  27.004  27.560  12.562
27283W        W92510  29.278  22.517   4.110
27284W        W92511   7.037  21.080  11.655
27285W        W92512  11.760  24.241  14.733
27286W        W92513  33.588  44.479   2.754
27287W        W92514   9.879   5.200  10.669
27288W        W92515  26.685   1.777   2.332
27289W        W92516  11.243  44.114  11.607
27290W        W92517   2.415  11.773   5.345
27291W        W92518  17.203  34.910  11.571
27292W        W92519  23.675  16.750   0.617
27293W        W92520  34.590  31.849  12.419
27294W        W92521  27.959  30.097   1.702
27295W        W92522   8.775  39.355  14.615
27296W        W92523   2.833  32.167   4.093
27297W        W92524  25.676  29.424   2.185
27298W        W92525  43.122  24.169   4.119
27299W        W92526  29.928  14.794  14.207
27300W        W92527   8.370  10.075   3.564
27301W        W92528  16.576  33.033  11.589
27302W        W92529  19.790  44.303   1.828
27303W        W92530   7.725  32.918   3.852
27304W        W92531   4.878  17.512  12.936
27305W        W92532  27.056   6.368  10.949
27306W        W92533  20.265  32.396  10.779
27307W        W92534  30.880   2.490  13.415
27308W        W92535   0.195  43.007  11.681
27309W        W92536  41.276  20.842  11.612
27310W        W92537   0.293  29.649  13.848
27311W        W92538  43.075  16.091   4.083
27312W        W92539  42.541  38.485  10.594
27313W        W92540  20.050  17.448  11.227
27314W        W92541  16.358  44.072   4.665
27315W        W92542  27.573   5.060  13.588
27316W        W92543  26.649  20.628  14.409
27317W        W92544  15.736   1.736   1.443
27318W        W92545   6.168  13.767  12.904
27319W        W92546   7.662  23.654  10.644
27320W        W92547  21.697  28.704  12.319
27321W        W92548  31.159  22.201   2.790
27322W        W92549   9.876  43.325   0.502
27323W        W92550  38.772  43.112   0.880
27324W        W92551  44.218  23.095  13.066
27325W        W92552   8.683  34.846   4.948
27326W        W92553   0.711  43.902  12.073
27327W        W92554   2.825  22.061   1.865
27328W        W92555   1.757  42.599  13.387
27329W        W92556  16.065  13.331   4.937
27330W        W92557   7.779  17.807  11.359
27331W        W92558  35.841  15.953  14.420
27332W        W92559   1.343  41.131   0.924
27333W        W92560  37.875  31.172   4.583
27334W        W92561  33.654  28.600  13.944
27335W        W92562  38.309   9.364   3.131
27336W        W92563  16.879  33.558  14.265
27337W        W92564  30.490  21.624   3.343
27338W        W92565  10.628  37.441  11.825
27339W        W92566  28.121   6.785  10.151
27340W        W92567  21.782  42.466  13.944
27341W        W92568  22.532  17.006  11.464
27342W        W92569  12.264  23.631  14.466
27343W        W92570  44.651  26.046   4.958
27344W        W92571  18.846  36.995   1.985
27345W        W92572  22.911  12.048  11.134
27346W        W92573   1.976  32.045   5.070
27347W        W92574  29.976   9.881   4.769
27348W        W92575  15.222   2.259  13.087
27349W        W92576  37.138  40.858  14.417
27350W        W92577  34.183   3.975   2.100
27351W        W92578   5.145   4.381   0.830
27352W        W92579  17.125  15.991   3.764
27353W        W92580  37.140  41.064   4.111
27354W        W92581  23.102  31.459  13.020
27355W        W92582   1.156  30.556  13.074
27356W        W92583  33.908  41.326   1.595
27357W        W92584  19.665   4.416   4.058
27358W        W92585  20.864  12.392   0.367
27359W        W92586  27.465  43.552   3.231
27360W        W92587  37.031  43.042  10.612
27361W        W92588  41.506  27.090   0.221
27362W        W92589  12.810   0.028   4.807
27363W        W92590  27.006  14.134  11.877
27364W        W92591   7.466  26.638  12.965
27365W        W92592   3.230  30.568   4.172
27366W        W92593   9.248  13.129  12.495
27367W        W92594  18.229  15.711  11.667
27368W        W92595   1.353  29.426  10.180
27369W        W92596  21.128  10.130  14.776
27370W        W92597  22.437  28.162   0.633
27371W        W92598  22.988  19.791   3.314
27372W        W92599  29.636   3.869   3.172
27373W        W92600  26.254  29.153   3.681
27374W        W92601   9.349  23.926   0.334
27375W        W92602  29.456  35.838   1.335
27376W        W92603  17.657  27.450  11.971
27377W        W92604  18.091  16.666  14.905
27378W        W92605  40.760  31.393   0.273
27379W        W92606   2.247  17.422   3.915
27380W        W92607  14.529  44.965   1.605
27381W        W92608   2.993  42.282  13.235
27382W        W92609  35.933  17.180  10.596
27383W        W92610  14.099  29.226   4.357
27384W        W92611   2.156  14.847   1.684
27385W        W92612  20.069  44.751   1.895
27386W        W92613  34.535   4.664  14.361
27387W        W92614   2.282  28.016   0.480
27388W        W92615  35.802  13.587   4.269
27389W        W92616  35.938  20.538   3.735
27390W        W92617  27.544  28.041   4.908
27391W        W92618  15.262  11.549   4.858
27392W        W92619   5.263  15.609  10.302
27393W        W92620  26.365  23.349  12.823
27394W        W92621  40.421  22.185  11.184
27395W        W92622   2.758  42.095   2.709
27396W        W92623   6.915  31.593  10.621
27397W        W92624  14.081  28.114  13.324
27398W        W92625  20.567   3.860  13.326
27399W        W92626  41.692  33.600   0.342
27400W        W92627  30.971  30.890   3.552
27401W        W92628   9.455  27.032   2.922
27402W        W92629  27.414  30.163   0.818
27403W        W92630   8.311   5.815  11.751
27404W        W92631  17.196   7.716   0.197
27405W        W92632  13.854  29.962   1.522
27406W        W92633   4.399  13.969   3.041
27407W        W92634  12.795   4.169   4.683
27408W        W92635  12.791   8.121   2.305
27409W        W92636   6.199  39.667  10.624
27410W        W92637  23.035  17.165  11.619
27411W        W92638   9.881  44.444   4.116
27412W        W92639  24.076  30.389   3.178
27413W        W92640   8.239  17.883  10.739
27414W        W92641  27.685   1.460   4.322
27415W        W92642   1.431  44.040  12.433
27416W        W92643  10.480  16.708  11.170
27417W        W92644   3.287  35.601   0.262
27418W        W92645  22.999  21.854  12.609
27419W        W92646   8.795  33.951  10.918
27420W        W92647   6.644  24.279   3.598
27421W        W92648  34.885  23.855   3.097
27422W        W92649  13.789  28.089  10.842
27423W        W92650  30.434  24.951   1.625
27424W        W92651  19.111   7.556   0.389
27425W        W92652  15.086   4.940   4.601
27426W        W92653  36.474  41.709   2.953
27427W        W92654  40.047   1.066   4.849
27428W        W92655   5.452   0.843   4.038
27429W        W92656  11.218  31.131  11.494
27430W        W92657   2.736  24.110  12.342
27431W        W92658  11.718  41.830  12.680
27432W        W92659   5.417  16.342  13.860
27433W        W92660  34.411  34.890   4.620
27434W        W92661  43.100  10.078   2.704
27435W        W92662  25.054  44.343  10.838
27436W        W92663  35.998  38.917   3.284
27437W        W92664  38.553  21.419   2.178
27438W        W92665  27.101  44.198   0.764
27439W        W92666  25.830   1.524   2.047
27440W        W92667   6.104  44.310  13.805
27441W        W92668  17.201  26.382   2.062
27442W        W92669   1.453  10.345  11.148
27443W        W92670  19.502   7.147   2.979
27444W        W92671  33.328   5.641  12.224
27445W        W92672   1.679  34.410   2.716
27446W        W92673   0.486   7.922   1.254
27447W        W92674  15.182  37.326   3.112
27448W        W92675  41.396  10.402   4.705
27449W        W92676  22.457  24.886   5.033
27450W        W92677  22.967   3.950  11.121
27451W        W92678   9.795  23.947  11.599
27452W        W92679  28.100  27.883  13.108
27453W        W92680  31.001   1.901  10.663
27454W        W92681  11.628  30.919   2.339
27455W        W92682  15.587  39.182  12.359
27456W        W92683  34.669  27.788   0.567
27457W        W92684  32.439  15.630   0.864
27458W        W92685  43.970  36.578  11.171
27459W        W92686  31.655  34.645   3.338
27460W        W92687  25.504  25.018   3.407
27461W        W92688  24.235  24.074  12.113
27462W        W92689  16.582  23.235   4.198
27463W        W92690  39.251  18.818   2.797
27464W        W92691  35.007  39.832  10.842
27465W        W92692  17.256  43.279   3.178
27466W        W92693   2.112  31.861  11.067
27467W        W92694  42.474  16.883  12.061
27468W        W92695  42.477  11.891  12.060
27469W        W92696   0.382   5.413   1.644
27470W        W92697  30.945  43.590  12.636
27471W        W92698  17.047   9.951  11.945
27472W        W92699  40.863  28.375   2.319
27473W        W92700  37.971  43.290  14.515
27474W        W92701  17.985  30.130  14.444
27475W        W92702  39.502  10.167  12.502
27476W        W92703  19.933  43.266  14.232
27477W        W92704  26.991   8.073   2.590
27478W        W92705   6.683  18.545   3.529
27479W        W92706   3.445  33.806  10.677
27480W        W92707  41.232   6.909  14.862
27481W        W92708  17.173  10.793  14.895
27482W        W92709   0.567  14.731   0.375
27483W        W92710   1.877  10.575   2.152
27484W        W92711  37.479  19.724  11.951
27485W        W92712   5.931  18.219  10.714
27486W        W92713  38.029  26.993   3.297
27487W        W92714  22.447   2.109  10.915
27488W        W92715  44.525  15.528   0.325
27489W        W92716  21.285  15.901   9.963
27490W        W92717  30.100   3.728   2.268
27491W        W92718   7.634  34.632   4.187
27492W        W92719   3.356  34.152  14.100
27493W        W92720  30.892  44.486   4.757
27494W        W92721  22.487  21.922  12.912
27495W        W92722   2.934  10.558   4.846
27496W        W92723  38.481  20.926   5.117
27497W        W92724   7.095  35.569   0.867
27498W        W92725  28.949  10.859   0.735
27499W        W92726  34.882  21.342  10.805
27500W        W92727  21.658   1.742  11.137
27501W        W92728  22.012   3.265   0.228
27502W        W92729  29.499  34.632   3.777
27503W        W92730  44.746  21.629  13.894
27504W        W92731  44.300   7.248   1.401
27505W        W92732   2.883  37.158   0.407
27506W        W92733  31.180  23.731   4.193
27507W        W92734  18.542  29.258   1.909
27508W        W92735  40.587  10.416   5.112
27509W        W92736  38.570  42.018   4.694
27510W        W92737  29.082  35.590   3.722
27511W        W92738  19.611  24.086   2.337
27512W        W92739  27.934   3.717   3.730
27513W        W92740  14.432  12.762   0.777
27514W        W92741  21.074  17.345  13.828
27515W        W92742  44.835   0.818  10.960
27516W        W92743   1.269  15.123  10.671
27517W        W92744  41.415  34.462  14.958
27518W        W92745  20.153   8.321   3.002
27519W        W92746  27.086  14.365  10.551
27520W        W92747  17.374   4.969  11.240
27521W        W92748  22.510  36.937   4.520
27522W        W92749  21.271  19.649   2.336
27523W        W92750  34.076  18.222   0.370
27524W        W92751  10.176   3.839   4.047
27525W        W92752  21.763   3.501   3.112
27526W        W92753   6.740  32.774   4.288
27527W        W92754   8.965   3.910   4.610
27528W        W92755  27.744  15.601  11.943
27529W        W92756  16.880  13.442   3.263
27530W        W92757  28.659  41.912  14.797
27531W        W92758  37.823  37.054   3.645
27532W        W92759  19.539   3.325   0.957
27533W        W92760  32.592  31.025   1.451
27534W        W92761  25.911  10.484  13.385
27535W        W92762  42.369  22.834  12.859
27536W        W92763  39.474   7.882   2.870
27537W        W92764  19.717   5.446   3.711
27538W        W92765  34.351  20.201   2.410
27539W        W92766   6.175  27.074  12.038
27540W        W92767  32.460   0.431  12.166
27541W        W92768   0.814  34.004  13.360
27542W        W92769  11.705  29.207   1.042
27543W        W92770  34.336  10.098   3.923
27544W        W92771  28.668  42.345  13.727
27545W        W92772  32.119  22.246   4.525
27546W        W92773  23.221  10.449   1.718
27547W        W92774  24.686  15.565   9.982
27548W        W92775  40.037   2.408  14.356
27549W        W92776  34.052  37.603  12.383
27550W        W92777   2.493   9.699   0.739
27551W        W92778  43.009   6.903  12.004
27552W        W92779  44.745   3.311   1.588
27553W        W92780   2.358  13.975  12.895
27554W        W92781  15.505  36.060   3.907
27555W        W92782  21.901  44.571  13.126
27556W        W92783  41.850  37.279  12.098
27557W        W92784  36.660  39.886   4.176
27558W        W92785   9.293  20.519  11.630
27559W        W92786  34.277  36.783   4.979
27560W        W92787  20.937  20.087   0.812
27561W        W92788  28.411  14.723   3.445
27562W        W92789  30.980   3.428   0.858
27563W        W92790  23.656   7.890  13.904
27564W        W92791   9.361  13.576  13.433
27565W        W92792  23.930  16.585  12.942
27566W        W92793  27.897   7.251   4.935
27567W        W92794  23.287   4.335  12.965
27568W        W92795   4.296  40.104  14.956
27569W        W92796  42.081  20.118   0.879
27570W        W92797  40.325  31.253   4.040
27571W        W92798   4.689  27.864  11.164
27572W        W92799  28.342   2.824  13.100
27573W        W92800   4.221  31.364  11.633
27574W        W92801  27.775   0.472   4.807
27575W        W92802  38.807  19.128  14.745
27576W        W92803  25.741  37.040  14.339
27577W        W92804  22.069  12.658  13.912
27578W        W92805  11.452  34.428   3.243
27579W        W92806  18.668  18.196   2.222
27580W        W92807  25.651  41.808   0.741
27581W        W92808  28.506  37.902   2.450
27582W        W92809  35.675   6.894   1.344
27583W        W92810  13.643   3.378  13.941
27584W        W92811  31.400  27.617  12.073
27585W        W92812  32.111  25.292  14.310
27586W        W92813  36.736  36.331  12.382
27587W        W92814  28.445  37.349   1.217
27588W        W92815  10.176   8.206   0.203
27589W        W92816  33.476  36.897  14.471
27590W        W92817  17.602  36.411   2.078
27591W        W92818  44.060  44.052   0.818
27592W        W92819  20.012  28.902   4.746
27593W        W92820   2.971  31.002  10.280
27594W        W92821   5.199  35.136   1.222
27595W        W92822  42.807  11.298   3.285
27596W        W92823  35.020  13.536  14.733
27597W        W92824  32.529  42.506   3.770
27598W        W92825   8.251  27.369  11.666
27599W        W92826   4.169  18.443   4.739
27600W        W92827   5.198   8.835  10.365
27601W        W92828  16.825  16.502   2.117
27602W        W92829   5.535  30.124  13.481
27603W        W92830  18.338  22.879   2.711
27604W        W92831  43.186   1.202   3.376
27605W        W92832  43.488  43.269  10.990
27606W        W92833  18.751  22.278   4.849
27607W        W92834  24.407  29.856   3.748
27608W        W92835  23.111  31.860  12.129
27609W        W92836  10.906  29.662  11.911
27610W        W92837   2.274  25.069  12.970
27611W        W92838  37.398  15.064   2.667
27612W        W92839   8.673  34.976   4.261
27613W        W92840  16.135   9.232   0.626
27614W        W92841  37.569  24.453  11.631
27615W        W92842  22.076  29.541   1.978
27616W        W92843   7.988  23.244  12.902
27617W        W92844  20.733  38.524  14.488
27618W        W92845  15.010   2.944   3.785
27619W        W92846  35.120   5.757   2.983
27620W        W92847  33.381   3.095  11.165
27621W        W92848  10.463  10.992  12.024
27622W        W92849  40.562  42.450   2.815
27623W        W92850   4.058  26.683   3.418
27624W        W92851  44.545  19.558  14.716
27625W        W92852  42.025  30.379  11.504
27626W        W92853  14.846   7.394  11.408
27627W        W92854   8.697   8.825   4.979
27628W        W92855  18.776  29.642   2.154
27629W        W92856   4.844  32.181  12.481
27630W        W92857  14.394  11.232   0.075
27631W        W92858  22.763   7.460   0.443
27632W        W92859  28.187  25.689   1.636
27633W        W92860  15.083  19.855   2.243
27634W        W92861  39.749   9.900  12.894
27635W        W92862  25.916  28.428   3.075
27636W        W92863  12.329  23.662  11.448
27637W        W92864   6.905  26.698  10.526
27638W        W92865  21.811  16.317  11.563
27639W        W92866  19.102  27.279  13.010
27640W        W92867  31.225  19.811  10.711
27641W        W92868   2.313  41.363  13.060
27642W        W92869  32.451  11.608  14.114
27643W        W92870  24.822  12.634  11.214
27644W        W92871  14.139  28.996   3.909
27645W        W92872  35.140  31.978  13.868
27646W        W92873  41.253  33.294  14.435
27647W        W92874  13.374  10.707  12.429
27648W        W92875  14.916  34.046  14.469
27649W        W92876   4.965  11.637  14.106
27650W        W92877  35.096  20.253  10.721
27651W        W92878   3.731  41.511   4.170
27652W        W92879  24.001   4.000  11.233
27653W        W92880  17.565  29.044   0.499
27654W        W92881  21.738  39.069  11.994
27655W        W92882   6.007   3.335  12.042
27656W        W92883  11.161  11.844   0.308
27657W        W92884  19.005  32.419   3.841
27658W        W92885  16.238  40.266  12.882
27659W        W92886   6.756   9.835  14.884
27660W        W92887  29.660  30.637  13.496
27661W        W92888  35.766  30.743  13.357
27662W        W92889  31.186  25.045   3.635
27663W        W92890  32.934  30.940  14.550
27664W        W92891  37.948   5.306  13.328
27665W        W92892  18.363  39.853  13.675
27666W        W92893   1.047  19.380  13.022
27667W        W92894  21.256  38.488  10.407
27668W        W92895   8.492   3.075   3.695
27669W        W92896   4.883  23.576   1.344
27670W        W92897  15.047  16.986   1.427
27671W        W92898  16.300   7.660   3.619
27672W        W92899  44.938   5.275  12.545
27673W        W92900  25.811   4.239  14.782
27674W        W92901  39.616   5.447   3.016
27675W        W92902   2.240   6.977   0.791
27676W        W92903  23.367  30.635  12.371
27677W        W92904  37.894  29.455  10.877
27678W        W92905  44.856  29.901   2.397
27679W        W92906   1.243  29.936  10.170
27680W        W92907  23.045  21.478  14.855
27681W        W92908   3.925   4.398   4.660
27682W        W92909  15.526   8.142  12.047
27683W        W92910  41.949  37.360   0.426
27684W        W92911  14.679   9.424  14.820
27685W        W92912  22.612  42.918   0.182
27686W        W92913  23.250  29.617   0.696
27687W        W92914   5.152  29.719  10.413
27688W        W92915   3.334  18.027   2.443
27689W        W92916   4.217  38.570   0.337
27690W        W92917   7.407  35.131   2.009
27691W        W92918  24.936  39.998   2.274
27692W        W92919  42.278  43.345   0.389
27693W        W92920  22.276  17.612  10.642
27694W        W92921  11.193  12.798   1.321
27695W        W92922  19.909  25.188   0.717
27696W        W92923  35.787  28.153  13.135
27697W        W92924  21.781  43.749  14.358
27698W        W92925  34.195  13.485   4.893
27699W        W92926   7.917   6.912  14.375
27700W        W92927  39.561  30.947   4.583
27701W        W92928  39.977  36.381   1.393
27702W        W92929  29.547  28.609   4.798
27703W        W92930  33.083  25.019  13.541
27704W        W92931   2.581  32.477   4.463
27705W        W92932  33.366  22.226  10.661
27706W        W92933   4.989  15.201   9.895
27707W        W92934  20.241  24.784   0.868
27708W        W92935   9.298  18.219   2.970
27709W        W92936  44.220  21.436  12.109
27710W        W92937  28.416  29.190   2.361
27711W        W92938  24.999  43.021  14.271
27712W        W92939   0.054   5.238  13.035
27713W        W92940  23.586  22.172  14.275
27714W        W92941  34.605  18.302  14.425
27715W        W92942  44.767  16.740   5.466
27716W        W92943  34.817  25.594   4.149
27717W        W92944   7.894   0.389  11.693
27718W        W92945  32.782   2.009   0.434
27719W        W92946   4.862   9.937  12.078
27720W        W92947  35.346   7.640   1.917
27721W        W92948  12.816  39.889   2.772
27722W        W92949  29.663  14.169  14.949
27723W        W92950   6.843  20.557  14.785
27724W        W92951   3.060  33.871   2.243
27725W        W92952  40.831  37.973   1.417
27726W        W92953  13.348   4.945   3.735
27727W        W92954  33.667  35.799   4.156
27728W        W92955   4.364   0.387  11.235
27729W        W92956   7.657  35.335  12.906
27730W        W92957  27.526  13.069   4.582
27731W        W92958   7.619  35.121  13.800
27732W        W92959  43.297   8.705   0.857
27733W        W92960  23.616  36.197   1.901
27734W        W92961  16.575  39.390   0.809
27735W        W92962  27.167  39.297   0.345
27736W        W92963   7.234  27.465  14.496
27737W        W92964  15.390  20.056  12.982
27738W        W92965  25.002  32.338   1.133
27739W        W92966   5.146  36.876   0.007
27740W        W92967  22.974  16.333  13.886
27741W        W92968  21.622  30.460   1.405
27742W        W92969   8.854  36.555   0.466
27743W        W92970  19.049  31.382   1.637
27744W        W92971  44.423  12.501   2.216
27745W        W92972  25.061   3.497   1.707
27746W        W92973   0.648   4.437   1.342
27747W        W92974  18.197  34.969   0.479
27748W        W92975   2.458  22.956  12.385
27749W        W92976  13.843  16.069  14.232
27750W        W92977  16.499  11.328  11.619
27751W        W92978   8.922  33.525  11.697
27752W        W92979   2.887  39.941  11.277
27753W        W92980  37.498  38.859   0.442
27754W        W92981   5.865  27.622  14.651
27755W        W92982  19.487  30.418   2.353
27756W        W92983  23.404   9.724  11.389
27757W        W92984  14.531  37.132  10.773
27758W        W92985  38.086  30.543   4.590
27759W        W92986  43.398  13.624  13.357
27760W        W92987   0.440  31.643  12.405
27761W        W92988  20.581  26.101  11.703
27762W        W92989   9.571  17.301   3.343
27763W        W92990  33.539  19.957   3.689
27764W        W92991  27.583   3.625  10.730
27765W        W92992   8.334  27.903   2.176
27766W        W92993  31.494  40.164  12.096
27767W        W92994  16.852  10.244  13.485
27768W        W92995  24.684   9.584   3.366
27769W        W92996   8.417  15.129   4.078
27770W        W92997   9.374  39.279   1.227
27771W        W92998  19.732  32.167   2.641
27772W        W92999  19.379  41.298   3.737
27773W        W93000  12.976  36.981   4.993
27774W        W93001  14.324  28.035   0.324
27775W        W93002  17.686  28.424  11.041
27776W        W93003  31.141  32.807  12.508
27777W        W93004  17.066   9.455   4.651
27778W        W93005  36.786   9.245  10.168
27779W        W93006  37.523  42.847  12.851
27780W        W93007   9.841   7.219   0.718
27781W        W93008  40.406  30.592   0.231
27782W        W93009   0.507  43.309   2.200
27783W        W93010  29.595  15.056   1.780
27784W        W93011  16.556  12.173  11.228
27785W        W93012   1.812  28.972  13.447
27786W        W93013  42.132  37.911   4.548
27787W        W93014  24.729  40.421  14.895
27788W        W93015  14.429  30.919  13.862
27789W        W93016   0.774  44.306  12.387
27790W        W93017  26.708  31.228  11.616
27791W        W93018   0.841   6.681  11.696
27792W        W93019  10.882  36.888   0.333
27793W        W93020   0.201   9.883  14.862
27794W        W93021   7.303  37.997  13.924
27795W        W93022   8.192  37.530  12.825
27796W        W93023  42.267  40.874  14.450
27797W        W93024  18.622  21.270   2.215
27798W        W93025   0.561  35.568   0.868
27799W        W93026  30.967   9.164   2.870
27800W        W93027  38.545  20.510  12.213
27801W        W93028  42.483   7.742   0.395
27802W        W93029  19.436  41.838   3.783
27803W        W93030  35.480  23.777   4.027
27804W        W93031   6.444  24.958   2.646
27805W        W93032  23.155  41.539   0.206
27806W        W93033  38.427   4.252  13.950
27807W        W93034  16.285  21.222   2.713
27808W        W93035  18.740  36.544   4.574
27809W        W93036  17.624  11.293  13.930
27810W        W93037   7.288  19.768   1.873
27811W        W93038  10.185  38.420   0.674
27812W        W93039  41.660  31.453   1.779
27813W        W93040  13.848  14.720  13.097
27814W        W93041  22.082  39.144   2.716
27815W        W93042   4.533   7.270  12.646
27816W        W93043  43.534   9.780  14.958
27817W        W93044  32.553  35.560   2.706
27818W        W93045  29.859  29.186  12.737
27819W        W93046  34.038  26.022  14.723
27820W        W93047  23.506  28.755  12.556
27821W        W93048  10.194  44.207   3.262
27822W        W93049  34.111  11.389  14.419
27823W        W93050   7.643  37.944   1.348
27824W        W93051   0.591  10.919   1.895
27825W        W93052   2.649  31.438   4.576
27826W        W93053  25.659   6.941  14.329
27827W        W93054  34.833  19.763   1.888
27828W        W93055  22.114  23.105  10.528
27829W        W93056  28.663  39.256   2.746
27830W        W93057  24.522  43.856  13.315
27831W        W93058   8.148  22.905  12.040
27832W        W93059  30.386  44.247   1.784
27833W        W93060  22.764  29.674  13.519
27834W        W93061  14.823   8.300  10.856
27835W        W93062  12.675  24.575   3.731
27836W        W93063   5.393  28.884  13.852
27837W        W93064  12.038  30.174  11.462
27838W        W93065  22.238  19.755   2.228
27839W        W93066  18.682  25.339  14.359
27840W        W93067   3.168   5.323  13.052
27841W        W93068  34.215  43.775   2.774
27842W        W93069  23.652  15.692   3.003
27843W        W93070  39.891  34.078  14.489
27844W        W93071  38.860  16.593  13.831
27845W        W93072  29.866  44.837   1.239
27846W        W93073  22.604  31.334  11.686
27847W        W93074  16.373  39.746  11.249
27848W        W93075  41.997  34.673  12.052
27849W        W93076   3.295  42.308  10.620
27850W        W93077  25.969  18.124   3.865
27851W        W93078  22.524  19.203   3.774
27852W        W93079  10.532  38.303  12.052
27853W        W93080  37.078  23.331   2.071
27854W        W93081  28.833  17.245   4.542
27855W        W93082  19.385  25.304   0.733
27856W        W93083   2.125  16.342  11.978
27857W        W93084  19.171  22.442   2.052
27858W        W93085  40.313  44.231   0.500
27859W        W93086  15.217  18.219   0.835
27860W        W93087  41.028   7.704  11.345
27861W        W93088   6.357  43.324  13.502
27862W        W93089   8.049  40.705  12.916
27863W        W93090  13.110  30.035  14.626
27864W        W93091  20.906   0.396   4.743
27865W        W93092   0.460   2.339   4.668
27866W        W93093  39.517  43.450   3.360
27867W        W93094  39.484  10.776   4.813
27868W        W93095  20.986  17.234  14.800
27869W        W93096  43.149  28.946   3.363
27870W        W93097  41.040  15.699  12.966
27871W        W93098  23.418  39.806  14.123
27872W        W93099  43.782   7.850  11.602
27873W        W93100  17.664  11.687   1.360
27874W        W93101  34.360  43.572   4.220
27875W        W93102   9.557  21.554  14.812
27876W        W93103  39.734  38.544   1.854
27877W        W93104  23.062   3.294  12.379
27878W        W93105  18.217  37.940   0.909
27879W        W93106  42.884  32.111   2.724
27880W        W93107  37.896  29.985  12.122
27881W        W93108   3.410  30.970  14.773
27882W        W93109  43.557  12.495   4.185
27883W        W93110   7.799  27.992  13.817
27884W        W93111  24.234  10.848   0.654
27885W        W93112   1.279  12.240  12.972
27886W        W93113  38.775  28.040  12.340
27887W        W93114  43.205  31.003  13.853
27888W        W93115  39.328  17.842  13.423
27889W        W93116  24.035  11.104   0.258
27890W        W93117  12.986  27.611  12.460
27891W        W93118  14.901  19.584   3.657
27892W        W93119  33.775  38.758  14.332
27893W        W93120  31.894   8.389  13.874
27894W        W93121  34.182  18.188  12.651
27895W        W93122  13.617   8.551  12.671
27896W        W93123  12.232  26.202   1.444
27897W        W93124  29.092  21.251   4.530
27898W        W93125  22.469  39.460   4.427
27899W        W93126  42.862  35.902  12.346
27900W        W93127  13.401  33.545  11.217
27901W        W93128   1.187   3.688  13.867
27902W        W93129  24.214  36.300  12.182
27903W        W93130  36.932  14.116  12.059
27904W        W93131   4.104  18.705   3.262
27905W        W93132   1.722  35.812   2.779
27906W        W93133  25.102  43.548   3.504
27907W        W93134  18.203  40.777  11.584
27908W        W93135  37.482   6.101   2.604
27909W        W93136   5.173  16.439  12.219
27910W        W93137  16.543  24.077  14.281
27911W        W93138  37.749  16.180  12.283
27912W        W93139  42.623  22.305  12.185
27913W        W93140   8.582  16.100  11.306
27914W        W93141  25.226  27.451   0.732
27915W        W93142  24.076  35.041  12.479
27916W        W93143  16.337  39.684  14.882
27917W        W93144  37.813   9.807  11.054
27918W        W93145   2.345  35.266  14.414
27919W        W93146  22.494  37.081  10.372
27920W        W93147  41.552  43.010  12.897
27921W        W93148  14.368  38.325   3.162
27922W        W93149  32.380  36.063   2.856
27923W        W93150  33.932  18.261  11.236
27924W        W93151  38.674  25.187   0.385
27925W        W93152  28.480  42.018   0.756
27926W        W93153  27.809   6.808  10.957
27927W        W93154  37.629  13.125   2.744
27928W        W93155  25.129  41.795  11.225
27929W        W93156  29.728  30.999   3.476
27930W        W93157  37.427   6.044  13.229
27931W        W93158  33.500  24.595   0.400
27932W        W93159  40.044  28.320   1.806
27933W        W93160   9.227  10.705   2.699
27934W        W93161   3.425  24.221   4.109
27935W        W93162  24.798  19.806  10.386
27936W        W93163  31.913  32.763  14.432
27937W        W93164  12.923  41.378  11.104
27938W        W93165  42.090  14.449  11.663
27939W        W93166  31.027   3.332   4.043
27940W        W93167  30.974  22.554  12.749
27941W        W93168   6.342  17.709  10.871
27942W        W93169  24.510  28.010  14.849
27943W        W93170   7.864  30.813   2.310
27944W        W93171  18.807  20.769  14.007
27945W        W93172  21.771  24.430  11.739
27946W        W93173  13.648  23.559  10.943
27947W        W93174  39.084  20.751   2.180
27948W        W93175  26.003  44.705   3.115
27949W        W93176  38.710  30.311  11.162
27950W        W93177  21.704   6.438   1.216
27951W        W93178  16.271  32.039   1.473
27952W        W93179   0.224  35.820  14.315
27953W        W93180  28.443  12.057   4.637
27954W        W93181  38.949  36.253   1.398
27955W        W93182  31.874  32.041  12.035
27956W        W93183   3.677  10.131  12.860
27957W        W93184  39.020  16.605  11.663
27958W        W93185  17.650  17.858   3.753
27959W        W93186  19.351  37.056   4.128
27960W        W93187  16.594  44.222  10.418
27961W        W93188  17.627   7.773   2.615
27962W        W93189  43.025   0.282  13.151
27963W        W93190  15.687   8.946   0.722
27964W        W93191  27.072   1.825  12.427
27965W        W93192  22.181   0.913   0.804
27966W        W93193  40.442   9.693  11.605
27967W        W93194  17.754  41.669   3.186
27968W        W93195  26.998   7.126   2.270
27969W        W93196  36.796  29.582  13.917
27970W        W93197  17.912  39.892  10.867
27971W        W93198  16.463  10.929   3.257
27972W        W93199  42.328  27.659  14.421
27973W        W93200  37.079   1.011   0.872
27974W        W93201  33.471   3.330   1.383
27975W        W93202  23.563  29.178  14.012
27976W        W93203  23.041  41.605  12.131
27977W        W93204   5.216  42.489  11.656
27978W        W93205  15.435  43.160  10.135
27979W        W93206  39.454  43.448  12.435
27980W        W93207   7.746  38.913  10.489
27981W        W93208  33.009  30.656  13.330
27982W        W93209  43.764  14.314   0.504
27983W        W93210  14.203  35.087   3.147
27984W        W93211  27.412  12.094   1.516
27985W        W93212   6.915  38.462   4.587
27986W        W93213   9.777  18.631  12.703
27987W        W93214   1.147  25.223   2.828
27988W        W93215  31.377  40.283  12.806
27989W        W93216  26.424  10.232   0.911
27990W        W93217  30.997  29.444   2.609
27991W        W93218  14.204  14.883  11.636
27992W        W93219  34.469  31.154   0.213
27993W        W93220  22.989  17.529  13.561
27994W        W93221   7.089  15.827  13.987
27995W        W93222  16.377  11.498  14.059
27996W        W93223  17.712  38.847  11.449
27997W        W93224  25.754   7.792   2.260
27998W        W93225  27.462  28.974   2.812
27999W        W93226  35.612   5.205  13.919
28000W        W93227  42.413  26.968   0.156
28001W        W93228  15.093  22.271  13.657
28002W        W93229  21.569  32.976  11.764
28003W        W93230  26.855  10.259  10.985
28004W        W93231  32.349  24.771  11.123
28005W        W93232  11.835  29.037  13.419
28006W        W93233  24.459  15.730   1.904
28007W        W93234  36.288  23.642  14.206
28008W        W93235  31.457  14.089   1.449
28009W        W93236  43.521  24.131   0.714
28010W        W93237   4.686  39.868   4.497
28011W        W93238  12.757  19.080  14.861
28012W        W93239  37.047  11.074  14.452
28013W        W93240   8.570  15.129  13.416
28014W        W93241  25.785  27.180  13.271
28015W        W93242   8.819   4.868   1.849
28016W        W93243  11.818  44.260  10.580
28017W        W93244  15.687  22.703   3.269
28018W        W93245  33.523  32.322  11.267
28019W        W93246  10.898   3.275  13.594
28020W        W93247  34.857  43.056   3.766
28021W        W93248  23.624   4.658   2.210
28022W        W93249  31.517  30.555   3.220
28023W        W93250  15.262   6.345  11.595
28024W        W93251  23.785   9.848  13.936
28025W        W93252  35.686  26.236   4.079
28026W        W93253  18.774   6.341  12.918
28027W        W93254  16.207  25.508  10.651
28028W        W93255  40.017  26.067  11.198
28029W        W93256  20.661  12.875  13.482
28030W        W93257  29.003  21.703  10.804
28031W        W93258  11.844   5.410   2.913
28032W        W93259  12.845  10.169  14.484
28033W        W93260  30.682  23.065   4.581
28034W        W93261   2.376  16.545   1.217
28035W        W93262   6.220  27.236   3.087
28036W        W93263  38.046  20.790   0.471
28037W        W93264  27.988  17.058   3.657
28038W        W93265  34.057  28.948  14.336
28039W        W93266  26.676  11.999  12.966
28040W        W93267  21.528  18.966  11.538
28041W        W93268   2.297  24.616  11.613
28042W        W93269   9.223  34.325   3.276
28043W        W93270  31.600  26.281   3.072
28044W        W93271  40.453   8.356   3.219
28045W        W93272  24.917  43.116  11.564
28046W        W93273  20.579  18.608   2.779
28047W        W93274   7.881   1.358  11.374
28048W        W93275   2.436   0.046  10.776
28049W        W93276  27.229  32.002  10.779
28050W        W93277  16.516  41.572   0.824
28051W        W93278  25.667   5.791   2.375
28052W        W93279  41.616  10.433  10.426
28053W        W93280  19.312  19.579   4.344
28054W        W93281   2.980  18.492  12.077
28055W        W93282  24.993  38.494  12.058
28056W        W93283  12.194  27.568  10.817
28057W        W93284   4.766   6.893  14.997
28058W        W93285  35.380  37.490   3.663
28059W        W93286   4.658  14.872   0.928
28060W        W93287   6.680  37.726   1.304
28061W        W93288  14.834   2.357  12.723
28062W        W93289  18.294   6.132   1.919
28063W        W93290  24.136  14.130  12.829
28064W        W93291  12.383  28.142   4.533
28065W        W93292  20.967  44.353   0.819
28066W        W93293   1.082  22.369   0.992
28067W        W93294  25.128  26.213   4.750
28068W        W93295  34.176   9.757   2.543
28069W        W93296   7.619  20.325   0.263
28070W        W93297  31.610  13.057  13.571
28071W        W93298  34.421  23.555   4.838
28072W        W93299   2.399  42.754  11.872
28073W        W93300  15.829   4.364  14.289
28074W        W93301  19.731  13.782  12.024
28075W        W93302  10.349  22.532   0.747
28076W        W93303  28.949  39.909  10.302
28077W        W93304  26.539   4.545  12.060
28078W        W93305   5.753   1.607  12.234
28079W        W93306  15.817  11.823  14.618
28080W        W93307  12.867   2.305  10.755
28081W        W93308  30.729  31.087  13.478
28082W        W93309  32.992  35.798  11.477
28083W        W93310   2.416  20.177   1.174
28084W        W93311  30.561  33.054   0.738
28085W        W93312  39.884  17.468   2.286
28086W        W93313  28.848  30.286  11.661
28087W        W93314   9.599  40.440   4.037
28088W        W93315  19.697  16.278   1.163
28089W        W93316  30.593  11.353   0.284
28090W        W93317  38.158  34.314  13.666
28091W        W93318  37.695  32.358  14.820
28092W        W93319  42.166  37.751  14.097
28093W        W93320   7.655  23.599   2.317
28094W        W93321   9.233  21.481  13.354
28095W        W93322  27.727  36.905   0.929
28096W        W93323  40.543  33.537  10.626
28097W        W93324   7.069  30.455   0.427
28098W        W93325   7.837  17.036  12.564
28099W        W93326   5.951  32.939  10.833
28100W        W93327  13.282   9.410   2.326
28101W        W93328  34.520  29.928   1.284
28102W        W93329  37.695   2.351  10.686
28103W        W93330   3.853  10.620   1.818
28104W        W93331   8.933  14.108  11.243
28105W        W93332  21.059   0.285  13.101
28106W        W93333  30.731  11.088   9.845
28107W        W93334   5.326   2.029   4.412
28108W        W93335  30.603  16.936   2.207
28109W        W93336  40.326   8.362   1.233
28110W        W93337  13.932   5.556  14.369
28111W        W93338  15.292  43.239  13.848
28112W        W93339  14.062   7.951  11.417
28113W        W93340  38.380  24.014   1.656
28114W        W93341  31.301  37.493   2.774
28115W        W93342  38.329  38.799   2.461
28116W        W93343  15.211  25.783   4.476
28117W        W93344  27.672  11.202   2.577
28118W        W93345  12.915  39.019   1.719
28119W        W93346   0.869  34.456  11.125
28120W        W93347   6.476  27.170   1.318
28121W        W93348  29.032  14.073   1.799
28122W        W93349  20.527  27.233   1.277
28123W        W93350  38.425  36.992   1.365
28124W        W93351   0.337  18.518  13.765
28125W        W93352  43.403  25.474  11.182
28126W        W93353   8.139  38.088   4.982
28127W        W93354  31.158  22.058   0.018
28128W        W93355   1.042  29.801  13.423
28129W        W93356   9.841  23.195  12.296
28130W        W93357  10.906  34.864   2.774
28131W        W93358  36.995  11.305  12.009
28132W        W93359  11.135   7.432  11.694
28133W        W93360  42.787   7.779  13.784
28134W        W93361  36.507  13.396  12.597
28135W        W93362  21.807  13.970   4.506
28136W        W93363   6.988  13.599   1.923
28137W        W93364  15.673  23.263  12.517
28138W        W93365  23.463  27.727  12.521
28139W        W93366  15.908   0.802   1.941
28140W        W93367  13.277  35.251   0.520
28141W        W93368  13.689  44.530   2.484
28142W        W93369   3.406  11.137  11.195
28143W        W93370  40.311   1.955  14.270
28144W        W93371  12.352  10.363  14.439
28145W        W93372  27.654  37.864  13.943
28146W        W93373  26.118  14.425   1.478
28147W        W93374  15.083   3.710  11.230
28148W        W93375  44.948  24.527   9.685
28149W        W93376  14.264  32.384   3.607
28150W        W93377  10.320  36.137   2.418
28151W        W93378  15.160   6.883   2.740
28152W        W93379  39.558  34.358  10.750
28153W        W93380  37.717   0.597  13.808
28154W        W93381  37.869  27.469   1.890
28155W        W93382  41.906   4.870  14.116
28156W        W93383  39.643  22.102   1.298
28157W        W93384  27.603  17.234   1.027
28158W        W93385  27.644  22.396   0.783
28159W        W93386  41.394  19.036   3.209
28160W        W93387  40.139   3.533   1.290
28161W        W93388  15.093  29.588   0.359
28162W        W93389  32.509  31.088   1.953
28163W        W93390  17.308   7.189  12.400
28164W        W93391  21.096  29.671   1.872
28165W        W93392  36.501  41.015   1.277
28166W        W93393  38.555  39.648  14.007
28167W        W93394   9.772  31.082  10.927
28168W        W93395   5.932  41.778  12.677
28169W        W93396   7.128   4.769   3.142
28170W        W93397  17.336   3.265   2.722
28171W        W93398  25.347   1.080  14.794
28172W        W93399  23.636  20.632  12.415
28173W        W93400  39.370  27.497   2.857
28174W        W93401  31.938  16.514  10.692
28175W        W93402  39.862  13.622  11.000
28176W        W93403  27.462  10.781  10.846
28177W        W93404   2.379  16.053   2.521
28178W        W93405  20.980   6.267  11.074
28179W        W93406  12.164  14.044   0.747
28180W        W93407  38.606  23.775   1.276
28181W        W93408   3.907  33.437   0.391
28182W        W93409   3.462  31.348  14.326
28183W        W93410   8.443  15.232   1.787
28184W        W93411  36.135  31.697  13.531
28185W        W93412  10.788   0.742   4.171
28186W        W93413  31.504   5.735  14.768
28187W        W93414  16.810  25.230   2.799
28188W        W93415  38.977  25.729   3.157
28189W        W93416  12.236  35.347  13.507
28190W        W93417   2.873  20.387  10.681
28191W        W93418   7.456   9.416   1.230
28192W        W93419  24.711  35.009   2.425
28193W        W93420   3.105  36.662  11.607
28194W        W93421  41.283  40.002   1.079
28195W        W93422   6.143  24.746  13.471
28196W        W93423  11.732  44.878  13.286
28197W        W93424  23.791  12.832  12.037
28198W        W93425  19.020   0.319  14.229
28199W        W93426  28.446  19.600   4.302
28200W        W93427  29.221  33.644   1.805
28201W        W93428  32.564  12.533  14.286
28202W        W93429  20.712  18.706   1.001
28203W        W93430   3.820  11.650  12.514
28204W        W93431  21.227  10.274   2.747
28205W        W93432   6.085  12.638   0.719
28206W        W93433   1.544   2.218  13.219
28207W        W93434  24.503  40.815   0.327
28208W        W93435  11.941  19.745  11.144
28209W        W93436  21.726   4.347   3.173
28210W        W93437   2.700  31.548  11.658
28211W        W93438   8.801   2.407   0.378
28212W        W93439  13.883  34.870  11.595
28213W        W93440  15.119  16.793  10.654
28214W        W93441  27.599  23.309   0.404
28215W        W93442  40.470  16.374   4.753
28216W        W93443  38.896  17.123  13.825
28217W        W93444  42.536  11.386   2.865
28218W        W93445  41.901  31.416  12.969
28219W        W93446  33.681  23.765   3.462
28220W        W93447  32.575  42.425   2.878
28221W        W93448  22.696  17.720  10.936
28222W        W93449  40.902   5.295  12.097
28223W        W93450  41.748  17.542  12.140
28224W        W93451  32.026  37.919   0.354
28225W        W93452   6.036  43.001  11.483
28226W        W93453  40.937  38.074  10.713
28227W        W93454   8.317   7.405  10.677
28228W        W93455   0.330  35.649   4.532
28229W        W93456  41.941   0.213   4.788
28230W        W93457  39.518  34.381  11.667
28231W        W93458   0.610  43.999   9.818
28232W        W93459  24.539  41.466  13.754
28233W        W93460  28.978  32.502   3.181
28234W        W93461  34.935  30.688  13.265
28235W        W93462  39.432   8.231  11.811
28236W        W93463  22.531  18.684   0.146
28237W        W93464   0.319  11.954  11.221
28238W        W93465  10.307  42.774   4.198
28239W        W93466  16.175   4.559   1.774
28240W        W93467  33.825   0.963   4.117
28241W        W93468   4.765   2.981  11.743
28242W        W93469  25.479  44.798  12.413
28243W        W93470   7.805  32.605  12.971
28244W        W93471  43.758   8.226  11.961
28245W        W93472   7.131  29.009   0.944
28246W        W93473  19.227  12.778   0.149
28247W        W93474  10.879  25.599  14.407
28248W        W93475   0.655   5.098  14.486
28249W        W93476  32.130  32.372  13.439
28250W        W93477  24.543   1.323  14.302
28251W        W93478  14.601  44.315  12.034
28252W        W93479   4.460   3.530  13.911
28253W        W93480  43.490  27.691   0.020
28254W        W93481  33.650  29.526  13.510
28255W        W93482  41.219   7.948   3.177
28256W        W93483  12.840  12.411  13.580
28257W        W93484  27.160  23.061  13.372
28258W        W93485  18.793   5.033   4.964
28259W        W93486   9.271   4.305   3.236
28260W        W93487  44.325  20.144  14.599
28261W        W93488   2.338  16.050   4.632
28262W        W93489  39.483  31.464   4.592
28263W        W93490  41.780  27.978   0.781
28264W        W93491  28.833   7.304   1.721
28265W        W93492  23.673  13.594   0.352
28266W        W93493  40.964  43.509   3.757
28267W        W93494  31.249  24.089  11.199
28268W        W93495   8.897  44.476  14.027
28269W        W93496  37.292  40.293   3.453
28270W        W93497  35.185  20.709   5.195
28271W        W93498   2.857   7.440  13.602
28272W        W93499  33.430  35.748   4.616
28273W        W93500   5.873  38.715  10.760
28274W        W93501  26.419   5.835  14.322
28275W        W93502  28.094  21.598  13.893
28276W        W93503  30.023  33.740   2.698
28277W        W93504  14.868   7.374   4.182
28278W        W93505  16.657  33.487   3.824
28279W        W93506   8.038   7.938   3.057
28280W        W93507  28.596  39.939  11.486
28281W        W93508  12.275  19.533   0.793
28282W        W93509  14.394  10.769   0.541
28283W        W93510  26.303  28.118  10.759
28284W        W93511  21.609  30.493   4.558
28285W        W93512  23.917  26.696   0.614
28286W        W93513  34.818   3.718   0.787
28287W        W93514  16.033  15.139  14.379
28288W        W93515  15.732  11.419  12.388
28289W        W93516   7.593   4.152   1.672
28290W        W93517  39.906   6.016   1.042
28291W        W93518  11.371  41.942   2.725
28292W        W93519   2.337  19.807   4.844
28293W        W93520  24.262   7.512   4.083
28294W        W93521  18.769  31.552   3.281
28295W        W93522  43.854  18.122   3.612
28296W        W93523  28.238  23.609   4.009
28297W        W93524  36.787   9.001   5.095
28298W        W93525  24.108   8.280   1.780
28299W        W93526  37.892   6.903   3.539
28300W        W93527  43.099   9.632  14.744
28301W        W93528   2.931   5.000   0.646
28302W        W93529  12.426  27.351   4.089
28303W        W93530   7.909  22.438  13.938
28304W        W93531   7.416  11.969  12.442
28305W        W93532  10.055  23.319  14.471
28306W        W93533   9.368  41.061  14.358
28307W        W93534  30.383   9.272  13.902
28308W        W93535   3.272  10.355   2.879
28309W        W93536  15.846  33.131  13.011
28310W        W93537  28.186  13.904   1.110
28311W        W93538  28.965  11.994   4.637
28312W        W93539  38.979  39.602   1.803
28313W        W93540  25.549   5.412   1.502
28314W        W93541  37.857  44.994   2.871
28315W        W93542   1.330  13.913  12.997
28316W        W93543  19.614  41.118  14.100
28317W        W93544   8.581  14.665   2.351
28318W        W93545  16.086  23.960   0.900
28319W        W93546  35.484  41.887  13.464
28320W        W93547  44.402   7.427   3.900
28321W        W93548   4.191  25.395  14.980
28322W        W93549  11.079  39.786  11.580
28323W        W93550  38.941  29.124   2.416
28324W        W93551  16.835  23.380   3.721
28325W        W93552   5.434  26.901  13.394
28326W        W93553  16.601   3.288   0.410
28327W        W93554   6.318  11.326   0.804
28328W        W93555  14.710   9.406   2.557
28329W        W93556  34.900  11.196  14.547
28330W        W93557  43.130  16.287  12.398
28331W        W93558  34.757  31.457   2.096
28332W        W93559  40.886  10.293   3.876
28333W        W93560   6.304  35.411  14.085
28334W        W93561  11.586  17.548   2.210
28335W        W93562   1.995   5.365  12.032
28336W        W93563   5.235  10.897  11.154
28337W        W93564  28.091   5.332   0.950
28338W        W93565   7.386  24.993   4.411
28339W        W93566  34.651   7.421  12.932
28340W        W93567  19.378  29.117  10.676
28341W        W93568  27.226   2.371   3.393
28342W        W93569  43.964  24.056   3.733
28343W        W93570  10.724   7.982   1.157
28344W        W93571  12.615   0.804  11.758
28345W        W93572  37.988  31.121   3.742
28346W        W93573  28.430  35.548   2.802
28347W        W93574  30.671  15.228   1.859
28348W        W93575  43.018   5.504  13.532
28349W        W93576  22.010  43.766   1.672
28350W        W93577  28.070  35.748  11.925
28351W        W93578  40.440  19.205   5.452
28352W        W93579  42.829  18.575   0.769
28353W        W93580  15.338  27.321   2.245
28354W        W93581  26.130  38.816   3.781
28355W        W93582  24.933  28.027   4.652
28356W        W93583  15.890  20.033  11.124
28357W        W93584  12.366  37.282   0.608
28358W        W93585   4.893  43.686   0.806
28359W        W93586  20.619  20.992   4.343
28360W        W93587  28.553   8.862  11.521
28361W        W93588  40.507  26.979  14.951
28362W        W93589  17.247  20.252   2.374
28363W        W93590  12.082   6.715   4.369
28364W        W93591  20.444  40.407  11.224
28365W        W93592  37.107  36.437   3.761
28366W        W93593  43.493  12.162  13.450
28367W        W93594  14.327  22.960   0.319
28368W        W93595  16.279  30.987   3.769
28369W        W93596   0.234  27.122   0.184
28370W        W93597   8.658  40.931   3.289
28371W        W93598   4.411  41.548  11.116
28372W        W93599  15.103  38.441   1.406
28373W        W93600  44.109  27.942   5.026
28374W        W93601  14.258  43.323   4.212
28375W        W93602   8.962   7.930  12.596
28376W        W93603  38.101  16.158   4.204
28377W        W93604  25.016  29.640   1.733
28378W        W93605  38.878  31.626   0.237
28379W        W93606  22.293  14.878  12.096
28380W        W93607   0.441  15.638   4.037
28381W        W93608  22.113  23.912  10.939
28382W        W93609  12.412  13.121  13.471
28383W        W93610  34.698  31.748   4.673
28384W        W93611   1.455  12.625  10.700
28385W        W93612  37.879  29.098   1.523
28386W        W93613   5.932  36.024   1.727
28387W        W93614  37.036   2.248  11.684
28388W        W93615  44.358   8.691   1.878
28389W        W93616  29.489  30.054  12.794
28390W        W93617   5.443   4.791  11.593
28391W        W93618   5.069  12.498  11.409
28392W        W93619  11.628  44.193  11.264
28393W        W93620  36.409  23.621  12.369
28394W        W93621  16.279   7.667  11.193
28395W        W93622  44.249  35.107  12.054
28396W        W93623  24.835  32.638   3.146
28397W        W93624  22.508  44.036   2.797
28398W        W93625  15.524   8.680   4.392
28399W        W93626  10.914  38.076   0.801
28400W        W93627  26.671   8.839  12.955
28401W        W93628  13.245  15.541   2.302
28402W        W93629  15.695   4.572  11.572
28403W        W93630  34.562   1.733   4.142
28404W        W93631  34.320   8.225  12.625
28405W        W93632  19.084  14.793  14.419
28406W        W93633  27.232  35.620  12.906
28407W        W93634  32.803  27.132   3.627
28408W        W93635   4.010  20.250   0.339
28409W        W93636  21.632  12.635   4.512
28410W        W93637   2.771  19.633   4.027
28411W        W93638  34.387  19.282   1.755
28412W        W93639  41.652  35.013   4.004
28413W        W93640  18.625  30.459  11.502
28414W        W93641  42.711  15.126  14.373
28415W        W93642  29.480  35.047  10.882
28416W        W93643  14.183  36.062  13.487
28417W        W93644  25.064   3.980   5.023
28418W        W93645  31.666  14.867   0.935
28419W        W93646  24.568  42.813  11.816
28420W        W93647  15.066  34.830   1.241
28421W        W93648  34.522   7.606  11.235
28422W        W93649   0.717  13.347   4.469
28423W        W93650  30.233  33.851  10.897
28424W        W93651  33.117  12.828   2.748
28425W        W93652  34.427  29.216  10.829
28426W        W93653  27.265  36.867  14.469
28427W        W93654  22.783  23.303  14.302
28428W        W93655  14.664  17.124   3.573
28429W        W93656  31.352  31.471  10.998
28430W        W93657  26.780  18.882   2.758
28431W        W93658   1.861  38.131  10.658
28432W        W93659  15.816  13.647  10.689
28433W        W93660   1.040  38.855   4.069
28434W        W93661  30.033  41.507  12.052
28435W        W93662  31.953   2.028  11.714
28436W        W93663  12.016  25.031  12.580
28437W        W93664   1.157  40.904  12.018
28438W        W93665  14.047  30.571  13.850
28439W        W93666  26.299  26.245  12.554
28440W        W93667  24.934  30.925  14.470
28441W        W93668  14.203  22.753   2.640
28442W        W93669  37.034  30.050  10.449
28443W        W93670  14.564   2.492   2.243
28444W        W93671   0.720   2.569   1.330
28445W        W93672  27.977   7.296  12.708
28446W        W93673  20.048  24.515  12.003
28447W        W93674  24.643  21.685   2.244
28448W        W93675   7.565  40.801  13.072
28449W        W93676  23.408  21.811   0.036
28450W        W93677  38.111  10.645  11.102
28451W        W93678   8.772   0.937   3.299
28452W        W93679  21.487   0.428   3.966
28453W        W93680  28.509  14.844  13.516
28454W        W93681  38.391  41.509   3.301
28455W        W93682  14.595   7.876  12.538
28456W        W93683  22.240  33.744  12.025
28457W        W93684   7.322  31.958   1.948
28458W        W93685  35.510  18.080  12.579
28459W        W93686  30.875  34.892   3.138
28460W        W93687  36.291  32.710  14.930
28461W        W93688  22.085  34.102  14.328
28462W        W93689  30.080   3.984   1.821
28463W        W93690  33.911  14.235  12.921
28464W        W93691  27.423  41.226   3.573
28465W        W93692   7.120  35.091  13.816
28466W        W93693  37.065  39.029  12.021
28467W        W93694  35.985  37.828   0.184
28468W        W93695  21.596   3.864   4.050
28469W        W93696   7.317   3.384  10.490
28470W        W93697   1.884  23.507  11.823
28471W        W93698  20.762   7.079   0.032
28472W        W93699  32.977  34.738  14.804
28473W        W93700   1.567   0.506   2.812
28474W        W93701  44.410  16.020  12.119
28475W        W93702  40.340  28.161  13.979
28476W        W93703   4.702  31.543  11.611
28477W        W93704  37.566  14.235  14.761
28478W        W93705  42.340  35.900  11.592
28479W        W93706  13.767  26.320  10.777
28480W        W93707  37.589  25.656   2.343
28481W        W93708  43.292  24.602   4.812
28482W        W93709   3.790  27.022  13.898
28483W        W93710  30.455  15.391   4.158
28484W        W93711  42.837   4.896   4.690
28485W        W93712  13.370  39.890   1.908
28486W        W93713  25.698  32.166   1.870
28487W        W93714  40.386   8.569   4.103
28488W        W93715  33.246  24.064  13.817
28489W        W93716  33.434  38.437   1.489
28490W        W93717  13.582  16.632   1.345
28491W        W93718  15.154  33.357   4.599
28492W        W93719  14.155   3.981  12.994
28493W        W93720  34.583  34.577  10.786
28494W        W93721  33.679  10.923   1.846
28495W        W93722  40.874  41.273  11.180
28496W        W93723  43.530   6.891   4.636
28497W        W93724  20.025  16.144   3.206
28498W        W93725  33.679  43.541  13.836
28499W        W93726  37.583   5.424  12.017
28500W        W93727  13.169   3.381  11.710
28501W        W93728  32.149   1.969  10.376
28502W        W93729   9.740  19.684  12.275
28503W        W93730  11.808   0.092   3.760
28504W        W93731   2.063   7.605   3.396
28505W        W93732  28.631   0.893   1.770
28506W        W93733   7.465   2.601  11.580
28507W        W93734  41.927   3.307  14.979
28508W        W93735   9.665  42.698   4.919
28509W        W93736  30.931  21.242   0.334
28510W        W93737  25.159   1.597  14.914
28511W        W93738  37.553  21.135  11.066
28512W        W93739  16.454   4.754   1.016
28513W        W93740   0.383  33.055  14.619
28514W        W93741  18.300  18.606   3.176
28515W        W93742  34.918  39.114  12.643
28516W        W93743  36.645  15.737  12.517
28517W        W93744   2.378   7.856  13.969
28518W        W93745  39.953  20.135  14.921
28519W        W93746   9.364  44.589   1.656
28520W        W93747   7.425  36.017   0.916
28521W        W93748  21.527  29.473  10.539
28522W        W93749  20.572  24.740  11.197
28523W        W93750  13.108  15.997   1.489
28524W        W93751  13.920  27.940   2.882
28525W        W93752  22.068  28.481  11.139
28526W        W93753  13.303  39.378   1.802
28527W        W93754  28.667  34.991   3.636
28528W        W93755  16.572  34.356  12.860
28529W        W93756  25.971  42.062  13.561
28530W        W93757  34.280   9.986  14.394
28531W        W93758   1.412   0.470   1.895
28532W        W93759   7.929  21.048   1.005
28533W        W93760   3.288  34.776  10.308
28534W        W93761  26.247  37.762   0.293
28535W        W93762  15.111  20.061  11.832
28536W        W93763  36.391  22.610  12.173
28537W        W93764  30.055   0.303   0.981
28538W        W93765  31.414  29.729  10.089
28539W        W93766   3.913  25.667   3.401
28540W        W93767  10.112  16.521   0.719
28541W        W93768  18.249  42.996   3.130
28542W        W93769  18.276  27.473   3.335
28543W        W93770  26.275  26.105   3.258
28544W        W93771   6.019  31.077  14.029
28545W        W93772   1.902  27.666   1.299
28546W        W93773  34.020  17.131   4.534
28547W        W93774  39.092  29.911  12.086
28548W        W93775  36.540   6.889   1.405
28549W        W93776  26.552  13.338  14.426
28550W        W93777  38.882   8.289   2.349
28551W        W93778  35.443  10.645   3.858
28552W        W93779  23.206   7.799   0.519
28553W        W93780   5.249  33.524  10.710
28554W        W93781  19.765  44.325   5.163
28555W        W93782  36.065  34.604   4.572
28556W        W93783  26.798   5.440  13.395
28557W        W93784  13.265  44.895  13.437
28558W        W93785  26.471  17.043   0.353
28559W        W93786  16.186  11.653   4.397
28560W        W93787  13.344  12.501   2.353
28561W        W93788  42.462   3.741   4.772
28562W        W93789  34.131  22.131   2.347
28563W        W93790  40.807  36.162  13.938
28564W        W93791  33.541  41.905   2.636
28565W        W93792   6.365  28.004  11.080
28566W        W93793  14.699  37.875   4.598
28567W        W93794  30.718  19.643  12.946
28568W        W93795  43.613   7.388  14.065
28569W        W93796  23.772  33.398  12.102
28570W        W93797  15.025   9.205  13.453
28571W        W93798  18.709  28.670  13.448
28572W        W93799  15.879  22.631   0.898
28573W        W93800  40.445  29.991  13.104
28574W        W93801  10.318  32.562   1.245
28575W        W93802  30.457  44.171  11.581
28576W        W93803   6.175   3.677   2.732
28577W        W93804  23.475  12.160   0.896
28578W        W93805  29.790   2.389   3.791
28579W        W93806  16.700  25.829   0.900
28580W        W93807  20.148  20.970   3.058
28581W        W93808  16.859  36.473  10.848
28582W        W93809  22.287  31.397  13.459
28583W        W93810  34.947  32.765   1.181
28584W        W93811  40.127  13.241  14.331
28585W        W93812   5.393  31.350   3.053
28586W        W93813   2.320  10.322   2.239
28587W        W93814  26.768   2.388   1.675
28588W        W93815  39.412  23.173  10.998
28589W        W93816  28.086  24.645  13.017
28590W        W93817   6.909   1.165   2.204
28591W        W93818  17.658  30.208   1.284
28592W        W93819  31.092  32.414   0.258
28593W        W93820  10.359  36.660   2.627
28594W        W93821  29.083   3.889  13.366
28595W        W93822  34.077  41.955   3.209
28596W        W93823  22.001  13.393  13.578
28597W        W93824  25.802   7.849   3.088
28598W        W93825  34.464  29.538  14.444
28599W        W93826   1.551  13.765   3.206
28600W        W93827   5.379  41.803   1.875
28601W        W93828  20.913  42.752   1.379
28602W        W93829  43.844  13.288   0.422
28603W        W93830  14.213  40.223   1.919
28604W        W93831  15.712  44.708   5.090
28605W        W93832   5.164  42.049  10.752
28606W        W93833   3.190   4.674  14.432
28607W        W93834  19.347  29.857  12.470
28608W        W93835  44.228   6.266   2.229
28609W        W93836  27.975  42.266   1.821
28610W        W93837  15.131   7.861   0.417
28611W        W93838   9.685   6.846  11.656
28612W        W93839   5.021   2.292   1.387
28613W        W93840  20.762   9.256  10.510
28614W        W93841   5.246  29.670   3.703
28615W        W93842  18.903  18.205  14.901
28616W        W93843  24.597  41.048  11.175
28617W        W93844   9.443  26.745  14.965
28618W        W93845   8.089   6.798  12.049
28619W        W93846  26.536  43.554  10.639
28620W        W93847  31.214   7.070  12.068
28621W        W93848   8.888  10.586  13.510
28622W        W93849  26.996   3.202  10.984
28623W        W93850  27.124  36.032   3.216
28624W        W93851  33.997  14.628  12.581
28625W        W93852  39.954  20.758  12.490
28626W        W93853  19.928  42.459   3.273
28627W        W93854  44.765  10.699  12.908
28628W        W93855  17.684  26.511   4.438
28629W        W93856   7.853  29.155   1.424
28630W        W93857  27.833  28.730   5.460
28631W        W93858  38.066  29.525   2.830
28632W        W93859  13.773  19.135   4.625
28633W        W93860  31.713  15.639   1.405
28634W        W93861  26.630   1.235  14.792
28635W        W93862   0.942  38.421   4.345
28636W        W93863  23.281  13.678  14.494
28637W        W93864  27.173  22.488   3.760
28638W        W93865  24.495  34.603  14.409
28639W        W93866   6.333  38.049  13.445
28640W        W93867   0.295  13.547  11.178
28641W        W93868  19.863  41.316  12.096
28642W        W93869  15.772  23.749   0.456
28643W        W93870  10.990  18.250  12.009
28644W        W93871  44.208  21.115  13.110
28645W        W93872   6.631  38.163   4.257
28646W        W93873  10.744  24.789  13.362
28647W        W93874  24.717  43.766  11.967
28648W        W93875  29.991  31.841   2.894
28649W        W93876  29.377  44.372   0.584
28650W        W93877  23.104   7.874  11.970
28651W        W93878  11.018  13.155  10.346
28652W        W93879  31.154  40.354   4.631
28653W        W93880  26.166  42.416  11.553
28654W        W93881   9.735  33.543  14.495
28655W        W93882  30.036   6.334   0.648
28656W        W93883  37.050   5.358   0.726
28657W        W93884  20.612  33.899  11.592
28658W        W93885   4.898   2.803  11.260
28659W        W93886  27.932   6.923  13.834
28660W        W93887  42.443  33.891  13.954
28661W        W93888   3.185  18.743  10.808
28662W        W93889  43.250   5.944   3.783
28663W        W93890  29.306  40.993  11.860
28664W        W93891  17.206  13.584   0.045
28665W        W93892  44.679   9.309  14.245
28666W        W93893  12.308   9.631   0.755
28667W        W93894  20.889  31.093   4.026
28668W        W93895  27.714  16.127   1.107
28669W        W93896  37.965  18.136   1.303
28670W        W93897  13.249   4.867   2.809
28671W        W93898  15.064  17.955   4.930
28672W        W93899  29.772  28.878  12.336
28673W        W93900  12.866  28.622  11.662
28674W        W93901  25.098  24.048  12.121
28675W        W93902  39.380  25.149  13.960
28676W        W93903  37.559  28.405   2.317
28677W        W93904  11.438   3.885  11.635
28678W        W93905  12.590  36.610   2.734
28679W        W93906  43.685  40.537  13.544
28680W        W93907  17.112  22.703  11.913
28681W        W93908  22.199  11.669   3.337
28682W        W93909  21.214  39.891   1.369
28683W        W93910   9.277  10.832  14.185
28684W        W93911   8.436   6.895  14.337
28685W        W93912  12.019   2.672  14.177
28686W        W93913   2.733   4.474  13.346
28687W        W93914  13.668  31.061   2.714
28688W        W93915   5.913  38.683  11.657
28689W        W93916  43.634  17.305  10.713
28690W        W93917  38.112  17.094  13.456
28691W        W93918   2.267  33.588   3.233
28692W        W93919   3.390  34.226  11.507
28693W        W93920  42.999  40.933   3.149
28694W        W93921   9.433  42.354  12.554
28695W        W93922  35.900  29.483   4.198
28696W        W93923   6.408  34.680   0.482
28697W        W93924  41.620   4.642  11.136
28698W        W93925  28.461  27.892  11.107
28699W        W93926  41.506  40.414   1.439
28700W        W93927  29.592   9.829   1.911
28701W        W93928  30.012   5.047   0.364
28702W        W93929  28.941  19.414   4.245
28703W        W93930  15.117  27.132   4.026
28704W        W93931  35.317  44.236   0.897
28705W        W93932  40.149  12.276  13.155
28706W        W93933  34.094  12.182  11.526
28707W        W93934  13.494  34.938  14.726
28708W        W93935  26.275  36.991  11.762
28709W        W93936   2.022  37.568   2.549
28710W        W93937   0.237  38.017   2.307
28711W        W93938  39.957  38.458   3.893
28712W        W93939  39.020  31.151  14.928
28713W        W93940  10.015   7.957  14.505
28714W        W93941  25.377  15.371   4.250
28715W        W93942  38.789  20.155  13.584
28716W        W93943  31.057  13.219  14.829
28717W        W93944  27.065  40.060   2.308
28718W        W93945  41.293  13.936   1.878
28719W        W93946  11.143  11.073  10.739
28720W        W93947  44.058   8.648  11.885
28721W        W93948   1.247  14.860  11.920
28722W        W93949   3.476  42.560   2.683
28723W        W93950  25.521  14.628  10.822
28724W        W93951  11.291  34.693   0.943
28725W        W93952  41.841   0.535  13.157
28726W        W93953   8.168  42.018   2.289
28727W        W93954  29.378  19.300  11.545
28728W        W93955  32.742  17.658   3.688
28729W        W93956   6.639  22.014  13.761
28730W        W93957  11.066  20.064  13.858
28731W        W93958  20.345   4.364  11.648
28732W        W93959  30.157   6.935   1.148
28733W        W93960  31.356   1.054   2.260
28734W        W93961  32.490  21.783  14.837
28735W        W93962   7.499  21.999   2.667
28736W        W93963  37.570  28.654   4.610
28737W        W93964  21.259  32.146  11.592
28738W        W93965  28.061  31.920   3.082
28739W        W93966  40.989   2.843  13.943
28740W        W93967  24.985  36.420  12.707
28741W        W93968  18.194  12.858  12.187
28742W        W93969  19.056   6.175  14.749
28743W        W93970  38.362   1.264   3.589
28744W        W93971   2.142  41.434   0.649
28745W        W93972  33.612   0.289   2.710
28746W        W93973  36.655  20.294   2.852
28747W        W93974  32.114   3.278  14.437
28748W        W93975  35.130  17.268   0.281
28749W        W93976  21.307  27.211   2.405
28750W        W93977  10.388  13.917   1.269
28751W        W93978  38.751  26.332   2.615
28752W        W93979  43.820   8.656  13.513
28753W        W93980  15.247  13.304   0.209
28754W        W93981  18.567   6.863  14.380
28755W        W93982  23.567   7.416  10.678
28756W        W93983   2.972  31.197   0.410
28757W        W93984  14.031   3.769  14.805
28758W        W93985  15.743  21.652   4.809
28759W        W93986  19.073  36.040   0.960
28760W        W93987  24.303  35.086   5.038
28761W        W93988  27.186  41.118  13.541
28762W        W93989  19.103  23.003  14.451
28763W        W93990  29.910  22.118   1.677
28764W        W93991  40.340  17.858  11.215
28765W        W93992  13.645  16.821   2.274
28766W        W93993  22.174   8.359  10.582
28767W        W93994  44.776  18.311  11.897
28768W        W93995  10.067  40.296   1.693
28769W        W93996  38.528  30.684   3.308
28770W        W93997  32.816  16.597  11.956
28771W        W93998   3.876  10.225  11.943
28772W        W93999  40.586  19.059   4.590
28773W        W94000   3.939  30.598   2.157
28774W        W94001  38.058  31.107   2.589
28775W        W94002  25.151   9.098  11.522
28776W        W94003  17.038   2.353  13.577
28777W        W94004   9.207   3.051  13.323
28778W        W94005  11.597  34.461   2.296
28779W        W94006   0.931  33.084   2.300
28780W        W94007  19.671   1.709   3.696
28781W        W94008   3.762  24.115   1.777
28782W        W94009   4.878   8.446  12.112
28783W        W94010  32.489   8.121   0.294
28784W        W94011  30.515  11.078  14.847
28785W        W94012  24.436  26.240   2.083
28786W        W94013   1.711  36.625   2.499
28787W        W94014  27.379   6.164   2.371
28788W        W94015   0.876  38.400   2.875
28789W        W94016  29.343  25.449   2.287
28790W        W94017  19.056  30.095   4.107
28791W        W94018   7.224  26.749   0.037
28792W        W94019   4.482  40.257  10.560
28793W        W94020   0.838  24.798   2.819
28794W        W94021  25.550  26.146  11.557
28795W        W94022  17.132  26.681  13.593
28796W        W94023  34.629  33.927  12.494
28797W        W94024  37.095  11.483   0.851
28798W        W94025  16.853  37.515   5.246
28799W        W94026  28.524  15.414   4.131
28800W        W94027  13.128  33.123  11.136
28801W        W94028  29.466  38.351   2.089
28802W        W94029   7.788  15.143  14.057
28803W        W94030  19.748  39.173  13.026
28804W        W94031  27.154  15.778   2.655
28805W        W94032  10.068  21.257   0.435
28806W        W94033  26.718  35.877   2.396
28807W        W94034  43.569  16.924   2.296
28808W        W94035  20.058  21.254  11.221
28809W        W94036  43.393   3.294  12.394
28810W        W94037   8.327   9.150   4.665
28811W        W94038  10.796  37.529  14.899
28812W        W94039  12.856   5.082   1.982
28813W        W94040  11.125  29.182   4.497
28814W        W94041  40.936  33.881   4.326
28815W        W94042  12.765  31.440   3.108
28816W        W94043  38.451  30.363   3.754
28817W        W94044  22.151   5.233   2.272
28818W        W94045  30.148  25.508  13.980
28819W        W94046  20.317  37.373   4.064
28820W        W94047  24.786  31.891  11.560
28821W        W94048  22.681  32.937  10.863
28822W        W94049  43.730  14.255   3.145
28823W        W94050   7.279  21.973  14.428
28824W        W94051   4.494  34.321   4.568
28825W        W94052  25.210  40.872   2.714
28826W        W94053  19.143  16.610  11.629
28827W        W94054  32.323  19.695   2.430
28828W        W94055  12.107  34.575  12.958
28829W        W94056  41.523  26.111   1.270
28830W        W94057   4.751  21.300   3.669
28831W        W94058  27.931  26.266   9.865
28832W        W94059  27.931   8.240  13.095
28833W        W94060  10.324  42.749   4.712
28834W        W94061  37.491   8.449  11.833
28835W        W94062   4.262  44.517  10.333
28836W        W94063  32.933   5.299  12.055
28837W        W94064  29.166   6.948   1.506
28838W        W94065  20.320  13.680   4.426
28839W        W94066  29.864  42.311  11.625
28840W        W94067  36.320  27.682   3.203
28841W        W94068   5.099  35.056  14.280
28842W        W94069   0.349   8.233  12.915
28843W        W94070  14.127  42.571   1.722
28844W        W94071   9.968   1.939  12.156
28845W        W94072  44.074  28.238   3.276
28846W        W94073  14.709  25.180  14.055
28847W        W94074  36.503  29.487   0.597
28848W        W94075  35.730   5.015   2.225
28849W        W94076  25.177   6.847  12.414
28850W        W94077   2.454  43.681  13.500
28851W        W94078  33.135   8.637   0.784
28852W        W94079  24.628  15.566  12.063
28853W        W94080   9.215  29.070   0.325
28854W        W94081   3.794  23.683  10.730
28855W        W94082  17.167  35.925  12.522
28856W        W94083  43.247  30.808   0.526
28857W        W94084   2.295   4.735  14.031
28858W        W94085  15.050  18.654  10.848
28859W        W94086  18.632  10.957   2.609
28860W        W94087  30.600   3.435   2.650
28861W        W94088  24.124  23.002  11.132
28862W        W94089  37.971  44.397   1.143
28863W        W94090  35.292   2.467   3.445
28864W        W94091  23.438  31.793  14.858
28865W        W94092   2.536   0.541   4.014
28866W        W94093  44.337  31.589  11.556
28867W        W94094  33.104  33.901  13.146
28868W        W94095   3.374   8.787   0.779
28869W        W94096  39.981  24.862  14.301
28870W        W94097   2.421  43.248  14.416
28871W        W94098  29.162  15.606   3.346
28872W        W94099  22.157   5.735   4.714
28873W        W94100  14.165  30.687  13.355
28874W        W94101  20.556  39.446   2.259
28875W        W94102  18.728  16.334   2.519
28876W        W94103  14.622  21.527   0.750
28877W        W94104  31.078   5.739  10.722
28878W        W94105  40.158  40.138   5.068
28879W        W94106  16.259  32.344   0.653
28880W        W94107  34.850  26.580   4.142
28881W        W94108  28.512  13.106   1.337
28882W        W94109  42.814  14.330   0.420
28883W        W94110  18.557   1.651  10.375
28884W        W94111   3.382  12.287  14.490
28885W        W94112   2.303   9.083   1.888
28886W        W94113  41.251  34.107   0.948
28887W        W94114  32.469  40.616  11.999
28888W        W94115  31.584   5.222  12.683
28889W        W94116  44.409  20.820  13.995
28890W        W94117  29.663  22.610  13.913
28891W        W94118  22.008   1.800   9.818
28892W        W94119  17.005  41.506   0.703
28893W        W94120  13.793  36.003   3.340
28894W        W94121  17.011  31.150   3.316
28895W        W94122  20.255   4.180   0.575
28896W        W94123  28.026  42.435   2.433
28897W        W94124  12.165   1.104  14.357
28898W        W94125   4.890  35.682   4.267
28899W        W94126   1.206  20.635  13.011
28900W        W94127  31.215   5.339   2.303
28901W        W94128   6.109  25.429   4.110
28902W        W94129   9.956   8.194   0.686
28903W        W94130  26.542  41.818  12.892
28904W        W94131  40.015  36.320   3.219
28905W        W94132  39.109  14.271   3.743
28906W        W94133  30.533  20.955  10.683
28907W        W94134  44.992   7.410   1.776
28908W        W94135  35.971  35.710   0.946
28909W        W94136  33.455  23.283   3.197
28910W        W94137  13.771  13.222   2.278
28911W        W94138   9.913  21.650  10.645
28912W        W94139  11.208  28.570   3.168
28913W        W94140  19.104  24.109  12.953
28914W        W94141  27.076  12.103  12.118
28915W        W94142  29.907  44.826  11.678
28916W        W94143  16.065   6.212   1.513
28917W        W94144  37.714  11.582  14.906
28918W        W94145  25.514  26.718  11.631
28919W        W94146  10.859  17.131  10.467
28920W        W94147  34.424  28.876  11.217
28921W        W94148  41.301   9.705   1.774
28922W        W94149  26.263   3.801  10.870
28923W        W94150  24.629  22.962  11.498
28924W        W94151  16.747   3.439  13.122
28925W        W94152   4.504  38.126   4.290
28926W        W94153  37.868  15.260   0.856
28927W        W94154  22.920  35.409  14.281
28928W        W94155   5.414   0.280  14.295
28929W        W94156  14.565   9.882   1.878
28930W        W94157  12.847  26.087  10.521
28931W        W94158  17.269  28.890   1.943
28932W        W94159  29.403  18.779  11.599
28933W        W94160  43.296  40.658  12.070
28934W        W94161  22.785  35.998   2.850
28935W        W94162  40.991  35.616  14.409
28936W        W94163  20.986  17.501   4.677
28937W        W94164   5.052  41.851  12.011
28938W        W94165  15.949  30.238  13.463
28939W        W94166  20.504  29.060   3.147
28940W        W94167   9.677   8.764   4.251
28941W        W94168  22.635  19.743   1.738
28942W        W94169   8.578  43.181   1.555
28943W        W94170  21.438   6.721  13.271
28944W        W94171  20.058   5.203   3.383
28945W        W94172   9.358  16.055  13.045
28946W        W94173   8.012  30.434   0.948
28947W        W94174  27.676   4.062   0.061
28948W        W94175   4.727   6.484   0.332
28949W        W94176   7.764   0.238   2.281
28950W        W94177  36.036   8.078   0.940
28951W        W94178   3.518  41.810   2.418
28952W        W94179  30.161  26.922  14.457
28953W        W94180  29.959  29.366  12.225
28954W        W94181  13.403  25.604   4.285
28955W        W94182  25.651   9.834  14.480
28956W        W94183  44.558  12.198  13.361
28957W        W94184  16.285  39.646   1.830
28958W        W94185  35.428  24.936   3.156
28959W        W94186   5.371  19.107  13.449
28960W        W94187   6.065  11.381  12.113
28961W        W94188  41.522  29.309  10.875
28962W        W94189  22.980   1.393  13.549
28963W        W94190  37.772  37.518  14.350
28964W        W94191   5.312   6.268  11.683
28965W        W94192  14.268  25.510   4.099
28966W        W94193  18.840  38.197  10.751
28967W        W94194  16.505  42.243   2.864
28968W        W94195  38.877   9.402   3.185
28969W        W94196  39.630  10.866   3.851
28970W        W94197  43.781  36.408   3.705
28971W        W94198  43.431  31.162   1.444
28972W        W94199   6.170   6.110   0.076
28973W        W94200   7.927  43.059   0.786
28974W        W94201  19.573  34.070  12.269
28975W        W94202  38.251  25.594  14.882
28976W        W94203  14.645  39.478  14.535
28977W        W94204  18.760  33.046   4.867
28978W        W94205  34.928  38.343  12.833
28979W        W94206  18.914   1.623   2.962
28980W        W94207   5.845  17.925   1.777
28981W        W94208  39.494  39.918  12.234
28982W        W94209  22.661  19.760   0.840
28983W        W94210  28.116   8.716   0.920
28984W        W94211  30.170  21.660  14.407
28985W        W94212  23.647  35.057   0.340
28986W        W94213  24.955  15.853   2.666
28987W        W94214  28.704  21.200  14.709
28988W        W94215  32.003  38.491  13.285
28989W        W94216  34.883   6.380   3.705
28990W        W94217  28.848  23.564  10.592
28991W        W94218  41.193  18.558   3.071
28992W        W94219   6.856   3.802   3.612
28993W        W94220   4.186   2.255  12.072
28994W        W94221  39.611  30.211  13.958
28995W        W94222  35.590  38.556  13.481
28996W        W94223  25.497  38.933   3.177
28997W        W94224   7.265  37.502   1.249
28998W        W94225  22.050  11.871   4.361
28999W        W94226  17.414  10.289   5.262
29000W        W94227  39.549   8.372  10.294
29001W        W94228  12.905  27.604   4.131
29002W        W94229  26.743   4.751   4.109
29003W        W94230   5.947  16.941   4.016
29004W        W94231  22.801   7.537   4.185
29005W        W94232   4.455   9.077   3.748
29006W        W94233   7.214  21.001   1.250
29007W        W94234   6.331  40.112  10.348
29008W        W94235  15.407  41.278   1.801
29009W        W94236  44.542  35.272   2.168
29010W        W94237   3.833  20.638   1.204
29011W        W94238  14.894   7.190   2.416
29012W        W94239  28.074  31.884   4.450
29013W        W94240   0.671  30.621  13.229
29014W        W94241  26.114   2.506   4.158
29015W        W94242   6.599  37.685   1.811
29016W        W94243  24.248   9.615   1.148
29017W        W94244  26.112  10.767  13.764
29018W        W94245  18.089  26.692   4.180
29019W        W94246  16.048   7.366  12.470
29020W        W94247  26.089  23.960   3.263
29021W        W94248  40.249  15.841   3.512
29022W        W94249  12.752  41.970   3.582
29023W        W94250  43.431  18.115   1.427
29024W        W94251  38.983   8.597   4.934
29025W        W94252  43.921   0.435  10.766
29026W        W94253   2.215  27.469   2.686
29027W        W94254   7.150  37.425  12.969
29028W        W94255  43.450  18.334  10.564
29029W        W94256   4.323   6.874   0.223
29030W        W94257  42.417   2.951   4.911
29031W        W94258   0.719  10.239  12.913
29032W        W94259  21.218  13.166   0.969
29033W        W94260   4.947  12.854  14.755
29034W        W94261  21.009   5.000   1.487
29035W        W94262  26.208  36.832   2.654
29036W        W94263  12.312  22.107   2.749
29037W        W94264  36.050   3.374   1.704
29038W        W94265  37.717  29.867   4.097
29039W        W94266   2.403  23.024   0.336
29040W        W94267  13.178  40.366   1.863
29041W        W94268  23.175  30.988   0.920
29042W        W94269  26.682  35.069  12.509
29043W        W94270   6.204  36.486  11.231
29044W        W94271  38.646  36.506  14.881
29045W        W94272  24.023  38.062  11.019
29046W        W94273  43.156   3.513  10.963
29047W        W94274   4.189  41.429  12.929
29048W        W94275  13.810   4.181   2.719
29049W        W94276  23.052  36.936   2.487
29050W        W94277  20.916   2.111  12.069
29051W        W94278  34.117  42.353   3.737
29052W        W94279  29.988  35.181   1.862
29053W        W94280  25.675  30.165   2.879
29054W        W94281  18.668  37.063  14.537
29055W        W94282  39.494   1.024  14.028
29056W        W94283  29.008   4.502   1.430
29057W        W94284  14.076   8.368   4.614
29058W        W94285  41.900  41.025  14.043
29059W        W94286  16.580  39.827  13.588
29060W        W94287  38.472  23.590  14.873
29061W        W94288  41.309  38.381   4.060
29062W        W94289  40.979  20.997   0.600
29063W        W94290  11.277  43.483  14.869
29064W        W94291  18.114  15.730  13.916
29065W        W94292  37.925  35.003  12.636
29066W        W94293  23.270  41.071  11.521
29067W        W94294  39.013  20.038   0.088
29068W        W94295  40.459  39.300   4.110
29069W        W94296  19.505  27.847  14.900
29070W        W94297  32.035   8.426   2.238
29071W        W94298  11.374  23.594   4.847
29072W        W94299  42.449  20.760   4.625
29073W        W94300  33.347   1.518  12.516
29074W        W94301  36.632  33.631   1.361
29075W        W94302   1.464  31.513   2.606
29076W        W94303   3.950  34.463   0.498
29077W        W94304   1.987  37.841   1.731
29078W        W94305  36.220  11.744  14.537
29079W        W94306  30.628  19.616   1.737
29080W        W94307  37.654  33.092   2.661
29081W        W94308  21.661  30.714   0.963
29082W        W94309  40.328   7.230  13.854
29083W        W94310  22.330  11.388   2.888
29084W        W94311   1.510  18.331  12.925
29085W        W94312  32.418   5.955   0.279
29086W        W94313   9.551  20.173   2.071
29087W        W94314   3.127  30.730  12.202
29088W        W94315  19.170  38.802   3.695
29089W        W94316  18.132  44.042   0.736
29090W        W94317  17.071   0.425   4.390
29091W        W94318  30.943  42.833  13.901
29092W        W94319  22.608   0.857  12.180
29093W        W94320  33.516  20.321   0.723
29094W        W94321  43.501  42.906   2.130
29095W        W94322  29.964  19.743  13.636
29096W        W94323  32.656  24.746  13.379
29097W        W94324  17.448  26.069   3.094
29098W        W94325  13.776  21.705  13.513
29099W        W94326   9.194  14.184  12.580
29100W        W94327   2.847  24.594  11.453
29101W        W94328  25.108  13.616  13.860
29102W        W94329  35.538  22.172  11.929
29103W        W94330   5.149  41.897   0.816
29104W        W94331  42.179  16.225   2.474
29105W        W94332  34.909  16.808   2.613
29106W        W94333   8.726   2.252   2.905
29107W        W94334  40.157  39.256   1.382
29108W        W94335  28.766   0.165   4.698
29109W        W94336  40.835  30.152  12.286
29110W        W94337  15.276  29.877   4.179
29111W        W94338   0.658  11.873  14.017
29112W        W94339  34.505   0.437   3.808
29113W        W94340  31.954  31.040  13.125
29114W        W94341   7.781  31.932  14.708
29115W        W94342  34.839  34.663   2.415
29116W        W94343  37.641  26.525  12.522
29117W        W94344   8.680  44.250   0.870
29118W        W94345  28.560   3.700   4.505
29119W        W94346  25.553  35.374   3.678
29120W        W94347  38.535  17.727  11.956
29121W        W94348  40.649  31.494  14.773
29122W        W94349  26.123  39.903   3.636
29123W        W94350  30.085  26.193   3.880
29124W        W94351  29.448  17.033   5.160
29125W        W94352  33.159  20.366   3.875
29126W        W94353   3.148  26.219  14.028
29127W        W94354  24.978  39.591   0.705
29128W        W94355  43.626  14.660  11.088
29129W        W94356   9.214  22.170  10.680
29130W        W94357  26.820  15.526   3.056
29131W        W94358  23.199   3.442   1.754
29132W        W94359  12.888  30.262  11.179
29133W        W94360   1.982   1.765   2.893
29134W        W94361  42.926  37.254  13.434
29135W        W94362   6.278   3.709   3.471
29136W        W94363  12.276  37.481  13.641
29137W        W94364  13.691   7.003   1.434
29138W        W94365   4.480  11.298  13.986
29139W        W94366  37.340  34.336  14.788
29140W        W94367   1.888  19.432   3.081
29141W        W94368  26.690  17.277  14.938
29142W        W94369   6.184  28.965  14.835
29143W        W94370   6.441  14.207  12.990
29144W        W94371  20.384  14.348   4.095
29145W        W94372  33.054  23.634  12.860
29146W        W94373  31.612  19.760  14.044
29147W        W94374  37.449  37.755   0.391
29148W        W94375  43.600  14.726   0.257
29149W        W94376  16.132  35.220  12.011
29150W        W94377  31.161  33.139  14.865
29151W        W94378  39.025  39.946   2.561
29152W        W94379  19.111  43.935   2.217
29153W        W94380  30.621  13.090   0.051
29154W        W94381  28.048   9.671   0.762
29155W        W94382   1.971  21.719  14.415
29156W        W94383  32.809   0.719   2.540
29157W        W94384  23.806  42.821  13.780
29158W        W94385  36.777   4.357  12.996
29159W        W94386   2.730  17.343  14.870
29160W        W94387   4.666  15.549   1.696
29161W        W94388  38.187  36.008  13.739
29162W        W94389  22.759  14.650   1.216
29163W        W94390  31.821  14.794   4.953
29164W        W94391   2.715   8.214  10.994
29165W        W94392   8.716  15.635  11.109
29166W        W94393  32.984  35.247  12.510
29167W        W94394   0.495  28.050  13.997
29168W        W94395   7.552  15.121  14.500
29169W        W94396   7.352  43.202  13.687
29170W        W94397  30.562   2.621   0.798
29171W        W94398  18.676  30.892  13.382
29172W        W94399   5.290  16.971   0.016
29173W        W94400   3.827   2.239  11.534
29174W        W94401   6.567  20.086   0.466
29175W        W94402  10.345  36.450  11.910
29176W        W94403  11.492  24.632  10.754
29177W        W94404  28.861  22.218   3.558
29178W        W94405  11.145  24.166  11.586
29179W        W94406  23.623  22.724   1.529
29180W        W94407  15.024  21.675  12.027
29181W        W94408   7.860  12.947   1.938
29182W        W94409  17.179  29.463  13.300
29183W        W94410  34.636  38.066  10.799
29184W        W94411  44.520  32.891  11.178
29185W        W94412  44.755  17.381  11.082
29186W        W94413  23.399   7.598  12.263
29187W        W94414  16.330   6.008   2.837
29188W        W94415   0.460  29.219  13.012
29189W        W94416  25.964  22.131  14.490
29190W        W94417  24.841  31.847   1.291
29191W        W94418  43.270   9.445   0.870
29192W        W94419  12.178  15.102   1.892
29193W        W94420  11.696  22.696   2.664
29194W        W94421  10.332  21.482   2.868
29195W        W94422  26.066  14.017   3.906
29196W        W94423   7.593  39.308  11.642
29197W        W94424  25.085   8.235  14.344
29198W        W94425  43.663  37.971  13.325
29199W        W94426  15.772  44.561  11.447
29200W        W94427  19.095  22.711   3.832
29201W        W94428  36.466  43.988   0.509
29202W        W94429  29.922  34.155  11.635
29203W        W94430   8.244   2.325   2.318
29204W        W94431  13.696  17.383   4.124
29205W        W94432  21.988  26.565   1.281
29206W        W94433  16.815  32.642   2.408
29207W        W94434  34.861  16.601   4.468
29208W        W94435   9.878  36.780  13.889
29209W        W94436  43.445  35.043  13.036
29210W        W94437   7.118  36.999   3.251
29211W        W94438  27.112  22.315   0.704
29212W        W94439  19.678  39.434   4.293
29213W        W94440  15.049  24.260  11.400
29214W        W94441   1.954   5.564  11.571
29215W        W94442  40.851  29.396   2.204
29216W        W94443  14.124  43.838   2.869
29217W        W94444  22.308   3.515  14.822
29218W        W94445  20.562  26.756  10.379
29219W        W94446  12.616   0.364   1.792
29220W        W94447   6.773  20.806   1.367
29221W        W94448  14.791  35.330  11.417
29222W        W94449  21.627  20.227  12.092
29223W        W94450  16.682   7.871  14.990
29224W        W94451  17.482   4.173   3.662
29225W        W94452  34.277  30.429   2.409
29226W        W94453  28.810  15.330   3.652
29227W        W94454   0.268  25.154  11.185
29228W        W94455  11.869  12.772   4.208
29229W        W94456  12.870  16.961  12.117
29230W        W94457  39.132  11.810  13.992
29231W        W94458  15.092  28.532  10.371
29232W        W94459  13.747  33.438   9.916
29233W        W94460  23.463   5.639  14.283
29234W        W94461  17.111  23.544  10.680
29235W        W94462  19.524   1.231   3.287
29236W        W94463  38.907  15.850   2.271
29237W        W94464  41.687  10.717  14.295
29238W        W94465   8.474   1.898   1.161
29239W        W94466  33.581   4.196  14.461
29240W        W94467  24.695   4.043  11.947
29241W        W94468  10.210  14.288  11.657
29242W        W94469  14.430  28.006   2.756
29243W        W94470   1.348  29.420   2.285
29244W        W94471  21.501  15.501  10.236
29245W        W94472  12.431   7.725   4.136
29246W        W94473  40.733   1.290  12.686
29247W        W94474  34.432  15.661   2.996
29248W        W94475  26.937  41.935   4.743
29249W        W94476  42.913   7.911   9.611
29250W        W94477   1.334   0.709   0.530
29251W        W94478   7.725  11.477  14.859
29252W        W94479  31.162  40.922  11.857
29253W        W94480  36.854  16.727   3.072
29254W        W94481  17.283  29.534  14.384
29255W        W94482  32.080  24.384  12.561
29256W        W94483  40.473  37.765  10.869
29257W        W94484  38.565  21.074  14.527
29258W        W94485  17.829  10.826   2.168
29259W        W94486   6.431   6.189  11.234
29260W        W94487  40.477  30.129  13.613
29261W        W94488  28.646  28.665   0.290
29262W        W94489  17.693  42.844  12.101
29263W        W94490  13.493   2.821  14.445
29264W        W94491  24.806  16.534  10.792
29265W        W94492  28.419  14.670   1.187
29266W        W94493   6.895  28.900  12.093
29267W        W94494  44.135  27.224  10.102
29268W        W94495  36.114  14.160  13.076
29269W        W94496  22.782  23.959   3.707
29270W        W94497  36.231  18.672  13.451
29271W        W94498  43.942  44.159   2.718
29272W        W94499  44.892   8.261   3.552
29273W        W94500   5.264  43.493  10.129
29274W        W94501   2.743  19.529  12.090
29275W        W94502   7.990  43.133   2.286
29276W        W94503  12.264  38.407  10.774
29277W        W94504  40.045  42.353  11.212
29278W        W94505  39.480   0.922   3.675
29279W        W94506  35.837   1.110   2.385
29280W        W94507  41.825   6.824   3.132
29281W        W94508  44.506  13.829  11.642
29282W        W94509  25.661  15.093   3.767
29283W        W94510   4.920  18.588   1.373
29284W        W94511  32.127  14.568  14.761
29285W        W94512  41.772  18.374   1.619
29286W        W94513  32.589  39.542  13.347
29287W        W94514  15.634   9.171  13.512
29288W        W94515  35.893  39.260  13.988
29289W        W94516   2.497  14.261  14.206
29290W        W94517  24.296   6.257  10.685
29291W        W94518  14.212  12.637  11.725
29292W        W94519  12.215  11.597   3.131
29293W        W94520   9.081   2.742   3.196
29294W        W94521   0.010  23.560  10.767
29295W        W94522  24.176  38.337  13.422
29296W        W94523   5.841  27.610   2.817
29297W        W94524   6.292  12.914   1.560
29298W        W94525  13.028  30.921   3.451
29299W        W94526  21.062  37.370  13.415
29300W        W94527   3.764  30.424  11.572
29301W        W94528  27.782  31.179  14.968
29302W        W94529  13.209  13.480   0.088
29303W        W94530  31.143  13.779  12.497
29304W        W94531  27.466  33.875   4.254
29305W        W94532  28.435  12.695   4.086
29306W        W94533   8.844  22.217   2.190
29307W        W94534  37.955  15.622   4.080
29308W        W94535  28.617  38.441  11.527
29309W        W94536  34.137  31.939  11.219
29310W        W94537   1.421  34.443   4.351
29311W        W94538  18.576  25.497  10.693
29312W        W94539  17.814  35.070   0.130
29313W        W94540  24.437  35.173  12.817
29314W        W94541  27.921  39.398   4.799
29315W        W94542  19.406  22.348  14.131
29316W        W94543  37.914   2.503  12.042
29317W        W94544  33.587  27.439  12.494
29318W        W94545  23.377  19.187  14.300
29319W        W94546   9.763  29.873  11.579
29320W        W94547  35.061  17.319   2.811
29321W        W94548  40.649   1.621   2.673
29322W        W94549  31.894   0.730   1.304
29323W        W94550  30.908  27.941   2.688
29324W        W94551  16.317  31.305  14.598
29325W        W94552   9.656  34.304   3.604
29326W        W94553  16.181  17.474   2.888
29327W        W94554  30.955   6.111   1.899
29328W        W94555  42.608   9.779  10.195
29329W        W94556  42.371  21.828   3.232
29330W        W94557   2.757  36.971   2.213
29331W        W94558   3.235  39.012  11.197
29332W        W94559  12.169   2.371   1.746
29333W        W94560  39.464  13.347  11.472
29334W        W94561  24.672   7.793  12.081
29335W        W94562  27.557  17.233  13.039
29336W        W94563  40.558  11.662   0.787
29337W        W94564  32.134  30.530  11.182
29338W        W94565  41.040   2.883  14.915
29339W        W94566  14.800  25.425   3.259
29340W        W94567  29.090  21.926  12.621
29341W        W94568  41.694  16.198   2.308
29342W        W94569  17.312  18.346   4.215
29343W        W94570  10.592  44.940   0.398
29344W        W94571  40.331   9.112  12.552
29345W        W94572   9.851  40.882   4.066
29346W        W94573  18.338  33.980   0.908
29347W        W94574  36.497   4.815   4.649
29348W        W94575  41.551  30.576  11.432
29349W        W94576  15.158  27.728  11.511
29350W        W94577  31.010  16.366   2.764
29351W        W94578  39.355  25.025  10.561
29352W        W94579  42.490   7.242  12.543
29353W        W94580  16.333  24.024  10.779
29354W        W94581  28.524  42.900  14.532
29355W        W94582  34.319  14.879   1.492
29356W        W94583   6.299  21.531   2.737
29357W        W94584   0.391   2.901  11.132
29358W        W94585   5.863   4.009   0.391
29359W        W94586  12.060  25.212  14.438
29360W        W94587  12.239  34.434  12.022
29361W        W94588   9.709  29.366   4.560
29362W        W94589   8.227  11.965   2.140
29363W        W94590   6.594   9.858   2.589
29364W        W94591   2.146   5.800  10.371
29365W        W94592  23.301  23.718   2.635
29366W        W94593  36.868   7.928   2.110
29367W        W94594  25.982  28.994  12.122
29368W        W94595   6.024  19.568   3.908
29369W        W94596  12.224  20.049   2.536
29370W        W94597  24.813  26.482  14.605
29371W        W94598  15.672  35.865   3.110
29372W        W94599  38.138  32.297   1.849
29373W        W94600  10.635  18.716  12.647
29374W        W94601  29.945  18.553   0.921
29375W        W94602  27.212  40.951   3.168
29376W        W94603  35.637  23.620   0.534
29377W        W94604  25.773   0.235   4.056
29378W        W94605  20.660  44.363   4.097
29379W        W94606  11.316   9.880  12.024
29380W        W94607  28.084  24.876   3.221
29381W        W94608  10.782  23.097  12.634
29382W        W94609   0.408  22.038   1.472
29383W        W94610   0.666   4.891   3.220
29384W        W94611  33.194   3.984   0.374
29385W        W94612   7.204  42.197   4.615
29386W        W94613  24.919  20.283  12.662
29387W        W94614   4.763   4.376  12.545
29388W        W94615  18.370   6.874  11.132
29389W        W94616  43.162  11.107   1.853
29390W        W94617  27.573  27.265  13.279
29391W        W94618  41.766  26.795   1.820
29392W        W94619  34.094  30.109  13.611
29393W        W94620  37.895   8.160  13.599
29394W        W94621  15.701  36.037  10.331
29395W        W94622  17.703   9.359  13.857
29396W        W94623  18.341  42.911  14.879
29397W        W94624  37.655  38.319  13.351
29398W        W94625   0.250  18.242   2.364
29399W        W94626  24.345  43.254  13.070
29400W        W94627  24.702  29.235  14.488
29401W        W94628  28.613  43.920   0.412
29402W        W94629   6.399  27.101   0.558
29403W        W94630   2.758  16.817   2.575
29404W        W94631  44.704   3.805   1.405
29405W        W94632   0.587   1.213   0.159
29406W        W94633  31.067   4.849   2.417
29407W        W94634   6.754  21.047   2.165
29408W        W94635   4.814  15.669  10.037
29409W        W94636  32.627  34.796  11.906
29410W        W94637   8.901  25.791  14.114
29411W        W94638  28.902   7.620   4.155
29412W        W94639  20.524  17.525   1.526
29413W        W94640   4.689  37.578  10.194
29414W        W94641   0.345  36.613   2.360
29415W        W94642  43.893  36.206   0.789
29416W        W94643   9.348  43.925  14.955
29417W        W94644  42.896  29.616  14.292
29418W        W94645  38.937  40.603  10.675
29419W        W94646  28.998  17.860   2.882
29420W        W94647  32.054   0.304  14.045
29421W        W94648  11.049  14.439   4.093
29422W        W94649  37.018  10.154   3.674
29423W        W94650  35.787  18.106  14.006
29424W        W94651  28.780  35.281  12.931
29425W        W94652  16.133  24.697  13.272
29426W        W94653  15.604  28.685   0.307
29427W        W94654   4.023  20.980  11.785
29428W        W94655  33.200  26.638  12.547
29429W        W94656  40.315  25.766  11.465
29430W        W94657  32.380  13.911  13.302
29431W        W94658   4.411  13.801  12.619
29432W        W94659  41.542   3.933   0.392
29433W        W94660  24.490  25.763   4.085
29434W        W94661  28.733  37.523  11.760
29435W        W94662  40.931  29.633   3.627
29436W        W94663   5.692  28.758   2.417
29437W        W94664   0.310  41.434  13.893
29438W        W94665  23.513  30.586  13.390
29439W        W94666  39.410   5.169  14.358
29440W        W94667  11.483  15.550  10.687
29441W        W94668   2.873  39.526  12.434
29442W        W94669  42.498  10.870   2.759
29443W        W94670  28.967  20.300  10.785
29444W        W94671  40.086  14.902   3.422
29445W        W94672  15.300  28.585   4.423
29446W        W94673  28.542   1.068   4.369
29447W        W94674  30.643  10.771  14.430
29448W        W94675  20.086  13.579  11.064
29449W        W94676  19.696  43.042   2.658
29450W        W94677   6.938  44.823  13.538
29451W        W94678   9.949   3.528  13.309
29452W        W94679  32.038  29.643   0.265
29453W        W94680  29.202  43.511  12.859
29454W        W94681  19.711  23.676  12.529
29455W        W94682  32.751  14.627   3.677
29456W        W94683  39.106   2.912  11.058
29457W        W94684  31.017   7.487  12.929
29458W        W94685  17.218  31.477   3.834
29459W        W94686  31.894  25.895   2.863
29460W        W94687  24.839  44.834   3.760
29461W        W94688  12.050  23.487   1.290
29462W        W94689  29.135  11.379   4.372
29463W        W94690  16.150   3.734   0.258
29464W        W94691  27.904  40.551  12.000
29465W        W94692  40.005  19.109  14.709
29466W        W94693  40.089  18.880   4.626
29467W        W94694   2.050  28.572  12.973
29468W        W94695  43.573   5.234   4.529
29469W        W94696  10.504  38.143   3.110
29470W        W94697  27.461  41.865   2.733
29471W        W94698  35.067  30.040  13.893
29472W        W94699  16.626  24.051  12.902
29473W        W94700   8.152  36.346   2.198
29474W        W94701  20.447  27.191  14.051
29475W        W94702  43.503  29.079  13.327
29476W        W94703  44.050   8.546  13.060
29477W        W94704  12.779  24.215  10.749
29478W        W94705  18.697   3.660   1.382
29479W        W94706  13.118  30.078   4.568
29480W        W94707   4.451  44.212  12.413
29481W        W94708  13.991  32.896   3.469
29482W        W94709   1.213  31.831   9.517
29483W        W94710   6.686  10.691   0.338
29484W        W94711  35.440  23.832   1.481
29485W        W94712  26.921  43.399  13.001
29486W        W94713  28.834  15.854   3.647
29487W        W94714   0.241  26.026  11.237
29488W        W94715  36.423  21.778   0.289
29489W        W94716   4.200   0.968   0.269
29490W        W94717  16.293  44.450   0.445
29491W        W94718  41.453  17.612  10.711
29492W        W94719   8.315  10.133  12.992
29493W        W94720  24.548  20.429   4.826
29494W        W94721  33.677  19.762  11.146
29495W        W94722  22.151  31.510   1.674
29496W        W94723  30.606   5.192   1.464
29497W        W94724  38.501  21.333  13.720
29498W        W94725  16.194  27.113  12.514
29499W        W94726  25.520  21.103  13.353
29500W        W94727   5.926  16.988   0.865
29501W        W94728  32.729  39.826  12.560
29502W        W94729  34.042  21.287   1.738
29503W        W94730   2.404  44.182  14.022
29504W        W94731  22.716   9.046  10.732
29505W        W94732  31.184   7.866   2.361
29506W        W94733  37.895  22.199  14.470
29507W        W94734  23.719  26.409   1.290
29508W        W94735  10.833  19.502  14.996
29509W        W94736  36.458  23.168   3.364
29510W        W94737  37.793  42.024   2.800
29511W        W94738   0.040  11.016  14.834
29512W        W94739  17.876  40.569  11.210
29513W        W94740  18.255  15.723  10.724
29514W        W94741  43.772  33.188  12.630
29515W        W94742  23.276  21.249  10.812
29516W        W94743  33.034   7.011  10.778
29517W        W94744   3.474  33.387  10.351
29518W        W94745   6.500  42.309   0.027
29519W        W94746  10.304  38.778   3.676
29520W        W94747   0.240  10.767   2.248
29521W        W94748   6.365  23.062  12.056
29522W        W94749  15.157  35.385   4.033
29523W        W94750   1.717  25.062   1.155
29524W        W94751  33.222  36.141   1.132
29525W        W94752  43.029  16.821  13.892
29526W        W94753  22.384   8.716   4.176
29527W        W94754   3.724  21.868  11.177
29528W        W94755  36.951  16.484  11.839
29529W        W94756   2.441  19.962  13.848
29530W        W94757  13.812  15.694   3.122
29531W        W94758  37.396  32.632  13.833
29532W        W94759  32.907  44.787  13.576
29533W        W94760  44.889  11.796  14.408
29534W        W94761  25.083  17.939   3.489
29535W        W94762  28.466  30.898   1.745
29536W        W94763  33.071  36.813   2.111
29537W        W94764  17.753  15.623   2.019
29538W        W94765  37.630  19.815  11.007
29539W        W94766  27.663  15.615  11.425
29540W        W94767  40.498  23.032  11.555
29541W        W94768  27.250  31.081  11.057
29542W        W94769  37.720  39.176   4.734
29543W        W94770  36.218  10.950  14.896
29544W        W94771  26.517   3.412   3.776
29545W        W94772  29.663  23.954  12.981
29546W        W94773  41.843   9.198  11.718
29547W        W94774   2.223  22.111   2.818
29548W        W94775  36.019  29.647  11.066
29549W        W94776  38.456  25.586  12.976
29550W        W94777  31.766  42.384  11.237
29551W        W94778  12.619   1.770  13.641
29552W        W94779  35.009  42.996  14.008
29553W        W94780  16.253   1.892   0.326
29554W        W94781  35.889   8.075  13.414
29555W        W94782  29.446  42.497   2.303
29556W        W94783  36.438  34.621   3.326
29557W        W94784  21.253  35.351   1.295
29558W        W94785  33.554  21.256   3.031
29559W        W94786  36.967  23.672  11.697
29560W        W94787  41.783   9.830  14.883
29561W        W94788  35.552  34.340  12.587
29562W        W94789  14.700  28.474  14.032
29563W        W94790  44.012  24.310  13.100
29564W        W94791  36.538  17.079   2.786
29565W        W94792   9.443   0.290  11.071
29566W        W94793  24.495  13.004  13.544
29567W        W94794  30.283  12.719  13.366
29568W        W94795  38.812  27.518   1.637
29569W        W94796  21.720  17.367  13.523
29570W        W94797   8.974  13.713  12.433
29571W        W94798  33.796  16.703  12.299
29572W        W94799  37.019  20.596   0.404
29573W        W94800  40.864  35.569  13.204
29574W        W94801   4.889  27.008  12.432
29575W        W94802   8.765  38.455   3.433
29576W        W94803   2.917  13.192   4.174
29577W        W94804  32.620  27.753  14.809
29578W        W94805  38.869  32.654  10.455
29579W        W94806  16.484   5.180   0.277
29580W        W94807  19.383   0.915   1.747
29581W        W94808  19.631  27.029   4.510
29582W        W94809  35.145  36.863   2.262
29583W        W94810  11.303   3.995  13.832
29584W        W94811  16.005   2.502   2.448
29585W        W94812  37.446  14.508   4.173
29586W        W94813  24.985  22.810  11.138
29587W        W94814  10.713  24.361   2.973
29588W        W94815   4.354  19.240  10.627
29589W        W94816  28.511  26.733   2.115
29590W        W94817   5.789  15.584  12.596
29591W        W94818  20.956  22.547  11.306
29592W        W94819   7.163  11.129   1.794
29593W        W94820  25.067   3.445  10.789
29594W        W94821  26.051  21.035   3.122
29595W        W94822  36.502   8.351   0.895
29596W        W94823   6.290  33.107   1.944
29597W        W94824  13.229   5.001   0.025
29598W        W94825  15.049  42.761   0.843
29599W        W94826  17.618  23.101  13.846
29600W        W94827  31.162  25.878  11.003
29601W        W94828   7.747  18.632   2.359
29602W        W94829   0.200  22.299  11.073
29603W        W94830  34.005  22.517   0.685
29604W        W94831   2.528  27.407  12.432
29605W        W94832  36.298  23.128  14.056
29606W        W94833   1.512  42.110   2.371
29607W        W94834  19.143  42.901   4.554
29608W        W94835  26.048   1.581   2.866
29609W        W94836   1.233  11.130   3.177
29610W        W94837  40.527  36.526  12.060
29611W        W94838   9.302  15.773  11.775
29612W        W94839   4.939  44.268   0.803
29613W        W94840   2.866  32.034  11.505
29614W        W94841  18.549  39.294   3.604
29615W        W94842  20.051  31.036   0.933
29616W        W94843  35.360  42.899   3.715
29617W        W94844  28.108   2.141   3.767
29618W        W94845  14.195  41.915  13.813
29619W        W94846  13.149  10.729  13.563
29620W        W94847  38.908  30.487  14.359
29621W        W94848   1.350  19.739  13.314
29622W        W94849   6.550  24.056   1.873
29623W        W94850  22.349  33.348  10.784
29624W        W94851   1.914  14.127   4.480
29625W        W94852  16.350   4.192  14.341
29626W        W94853  43.416  23.345   4.071
29627W        W94854   5.002  31.940   0.802
29628W        W94855  10.883   6.147  11.505
29629W        W94856   5.482  43.464   9.663
29630W        W94857  38.210   8.700  13.143
29631W        W94858  31.334  37.312   0.334
29632W        W94859  41.088  25.629   1.924
29633W        W94860  19.984  26.050  14.528
29634W        W94861  14.114  29.850   2.958
29635W        W94862  39.212  32.162  13.870
29636W        W94863  44.125  44.351  11.654
29637W        W94864   6.184  10.866   1.047
29638W        W94865  35.939  17.172   2.213
29639W        W94866  40.553  27.500   0.036
29640W        W94867  44.569  14.369  12.451
29641W        W94868  12.207  19.998  10.779
29642W        W94869  14.480  11.851  14.555
29643W        W94870  13.068  26.126   4.241
29644W        W94871  21.142  24.284   4.600
29645W        W94872  15.596  29.792   1.692
29646W        W94873  30.649  42.612  11.557
29647W        W94874  27.795  26.515  12.985
29648W        W94875  42.360  20.409   5.530
29649W        W94876  34.789  15.795  10.304
29650W        W94877  24.414  14.853  10.729
29651W        W94878  21.020  25.130  14.728
29652W        W94879  19.185  34.040   0.797
29653W        W94880   3.588  13.704   3.649
29654W        W94881  17.739   3.268   2.349
29655W        W94882  30.515   8.420  14.323
29656W        W94883  17.600  15.268   4.186
29657W        W94884  29.283   5.437  13.499
29658W        W94885  40.788  18.124   0.206
29659W        W94886  13.485   7.868   4.238
29660W        W94887  44.352   9.647   0.087
29661W        W94888  12.657  22.602   4.599
29662W        W94889  23.976  43.148   4.809
29663W        W94890   4.839  25.709   4.598
29664W        W94891   2.554   3.915   4.177
29665W        W94892  32.036  30.193   0.353
29666W        W94893  40.823  15.411  10.763
29667W        W94894  20.467   6.308  12.369
29668W        W94895   8.205  44.915  14.332
29669W        W94896   3.772  14.803  12.015
29670W        W94897  11.168  36.111  12.743
29671W        W94898  44.085  11.979  14.718
29672W        W94899  25.053  37.280  11.258
29673W        W94900  33.545  21.375  12.217
29674W        W94901  21.564  16.117  14.323
29675W        W94902  14.531  34.201   3.499
29676W        W94903  36.726  22.779   0.339
29677W        W94904  34.952  17.059  11.499
29678W        W94905  21.906   1.034   1.632
29679W        W94906  42.812  37.962   0.309
29680W        W94907  32.519  37.513   3.099
29681W        W94908  40.026  19.158  12.829
29682W        W94909   1.882  20.559   1.723
29683W        W94910  18.855   7.868  10.689
29684W        W94911  31.465  36.490  13.830
29685W        W94912  22.026  10.626   3.171
29686W        W94913   9.234  22.001  13.367
29687W        W94914   8.900  30.337  12.016
29688W        W94915  36.206  31.024   2.423
29689W        W94916   6.693  13.498   0.178
29690W        W94917  33.544  26.663  12.055
29691W        W94918  11.356  34.969  14.126
29692W        W94919  23.485  10.234   3.656
29693W        W94920  30.088  39.316  13.866
29694W        W94921  17.240  13.733   4.538
29695W        W94922   4.184   4.274   1.986
29696W        W94923   6.128  30.144  11.167
29697W        W94924  42.736   3.540  11.873
29698W        W94925  21.109  18.299  13.891
29699W        W94926   5.648  31.225  11.039
29700W        W94927  13.194  40.750   0.458
29701W        W94928  39.982   6.274   0.610
29702W        W94929  35.110  40.655   5.116
29703W        W94930   5.409  30.855  11.762
29704W        W94931  14.271  21.466   1.875
29705W        W94932  10.687  26.555   2.394
29706W        W94933  15.406  32.911   4.634
29707W        W94934  31.029  22.307  14.183
29708W        W94935   3.877  37.373  11.664
29709W        W94936  20.465  18.810  11.570
29710W        W94937  24.783  26.920   0.124
29711W        W94938   4.230  42.005   0.718
29712W        W94939  44.365  34.407   2.789
29713W        W94940  15.127  31.842  14.315
29714W        W94941  35.662  39.039   3.667
29715W        W94942  37.363   3.773  11.837
29716W        W94943   4.460  43.813   2.613
29717W        W94944  26.148  23.721   4.533
29718W        W94945  29.621   5.039  12.023
29719W        W94946  35.157  40.326   2.709
29720W        W94947  34.185  26.184   5.384
29721W        W94948  23.844  30.020   0.400
29722W        W94949  42.928  41.360  12.853
29723W        W94950   7.280  40.714   4.223
29724W        W94951  17.335  36.391  13.761
29725W        W94952  43.986   9.027  14.760
29726W        W94953  38.525   2.747  13.933
29727W        W94954   3.442  13.478  11.600
29728W        W94955   8.797  18.153   3.667
29729W        W94956  12.671  14.955   4.832
29730W        W94957  28.654   1.423   3.562
29731W        W94958  36.973  35.948   0.345
29732W        W94959  27.805  31.454  14.344
29733W        W94960  24.877   4.425  12.813
29734W        W94961  27.904  15.379  11.037
29735W        W94962  43.686  38.895  13.932
29736W        W94963  33.624  37.645   1.842
29737W        W94964   2.300  21.200   1.649
29738W        W94965  34.015   6.680  14.769
29739W        W94966  28.276  17.190  12.473
29740W        W94967   9.770  44.816  10.867
29741W        W94968  26.340  34.232  14.514
29742W        W94969  44.996  22.227   5.029
29743W        W94970  21.065   9.490   2.128
29744W        W94971  28.907  33.890  12.990
29745W        W94972   2.350  14.683  12.482
29746W        W94973   4.676   0.704  14.005
29747W        W94974  23.257  37.489  10.637
29748W        W94975   2.354   8.725   4.271
29749W        W94976  18.088  41.121   1.793
29750W        W94977  44.545  29.476   2.365
29751W        W94978  43.863  30.988   3.198
29752W        W94979   4.223  17.633   0.160
29753W        W94980  12.323  35.995  11.404
29754W        W94981  29.689   7.258   1.008
29755W        W94982  22.935  31.658  14.802
29756W        W94983  31.183  42.070   1.625
29757W        W94984  14.294   3.903  12.064
29758W        W94985  12.198  14.386  12.977
29759W        W94986  39.394  10.147   3.317
29760W        W94987  27.946  14.948   3.418
29761W        W94988  10.218  21.576  13.476
29762W        W94989  35.499   3.533   4.884
29763W        W94990   9.977  38.288   1.128
29764W        W94991  37.431   9.459  12.011
29765W        W94992  40.651  37.555  13.113
29766W        W94993  18.613  36.469  13.439
29767W        W94994   7.754  16.396   4.830
29768W        W94995  25.833  18.965  10.691
29769W        W94996  38.468  32.037  12.566
29770W        W94997   8.878  39.490  11.183
29771W        W94998  18.716  17.127  11.278
29772W        W94999  22.984  43.695   1.196
29773W        W95000  34.810  25.609  14.960
29774W        W95001  12.381  41.361   3.593
29775W        W95002  42.670   7.846   4.204
29776W        W95003  24.880  26.716   3.304
29777W        W95004   9.075  32.482   2.031
29778W        W95005  21.979  25.277  12.528
29779W        W95006   7.829  15.225   2.274
29780W        W95007  19.467  10.284   3.699
29781W        W95008   3.963   6.550   1.832
29782W        W95009   8.790  38.735  11.810
29783W        W95010   0.996  25.869   4.544
29784W        W95011   5.259  16.804   1.356
29785W        W95012  44.409   2.648  13.542
29786W        W95013  35.500  24.073   0.765
29787W        W95014   3.875   8.820   2.679
29788W        W95015  21.562  36.436   2.749
29789W        W95016  19.182  28.530   4.934
29790W        W95017  44.432  18.647   0.744
29791W        W95018  39.601  35.932  13.169
29792W        W95019   5.118  13.859  12.866
29793W        W95020   1.764  26.418  11.096
29794W        W95021   3.813   5.953  11.576
29795W        W95022  20.122   2.218  13.230
29796W        W95023   7.393  39.089  13.375
29797W        W95024  14.942   0.335  14.905
29798W        W95025  23.566  42.843  14.739
29799W        W95026   7.917  40.755  14.857
29800W        W95027  36.529  15.424   3.247
29801W        W95028  23.135  24.050  10.810
29802W        W95029   4.460   9.620   1.349
29803W        W95030  28.619  42.520   0.783
29804W        W95031  41.815  33.004   1.055
29805W        W95032  22.202   8.309  11.486
29806W        W95033  39.930   7.261   0.443
29807W        W95034   1.761  10.616  13.205
29808W        W95035   3.837  28.586   4.771
29809W        W95036  33.864  23.245   3.491
29810W        W95037   9.853  27.431   2.825
29811W        W95038  41.391  40.685   0.316
29812W        W95039   7.793  20.511   2.639
29813W        W95040  34.821   8.738  12.126
29814W        W95041  26.432   6.630   2.565
29815W        W95042  21.806  12.323   2.173
29816W        W95043  24.935  27.716   4.234
29817W        W95044  12.624  31.128  10.746
29818W        W95045  21.089   4.392  12.238
29819W        W95046  10.325   9.415   1.252
29820W        W95047  29.009  20.889   4.176
29821W        W95048   4.668   3.464   5.167
29822W        W95049   6.486  36.813   1.514
29823W        W95050  24.804   1.726  12.120
29824W        W95051  30.778  16.817   1.381
29825W        W95052  12.140  29.097   1.321
29826W        W95053  22.881  28.177  14.883
29827W        W95054  39.357  11.591   0.425
29828W        W95055  11.195  23.209   1.377
29829W        W95056  44.790  24.169  11.956
29830W        W95057   7.408   4.735   3.563
29831W        W95058  38.835   6.172   2.727
29832W        W95059  15.714  27.405  12.581
29833W        W95060  26.989  23.715  14.331
29834W        W95061  25.470  28.488  12.478
29835W        W95062  23.242  43.267   0.234
29836W        W95063  38.871  38.866  11.383
29837W        W95064  11.430  38.270   0.790
29838W        W95065   7.303  10.223   4.209
29839W        W95066  31.536  17.208  12.520
29840W        W95067  39.773  32.043  13.871
29841W        W95068  24.287  11.206   1.778
29842W        W95069   0.496  35.429  11.519
29843W        W95070  35.641  38.279   2.904
29844W        W95071  17.400  13.755  10.990
29845W        W95072  27.357   3.622  11.629
29846W        W95073   7.611  29.493   2.166
29847W        W95074   3.352  38.098  12.585
29848W        W95075  27.970  30.703  12.882
29849W        W95076  40.344  12.384  11.314
29850W        W95077   2.192  32.287   2.755
29851W        W95078   1.244  24.592  11.894
29852W        W95079  40.782  41.728  10.932
29853W        W95080  27.009  27.934   0.307
29854W        W95081   3.859   6.590   3.088
29855W        W95082   1.868  22.755   2.547
29856W        W95083  44.281  31.010   1.003
29857W        W95084  26.228  16.618  11.046
29858W        W95085   3.467   1.914  10.636
29859W        W95086  12.184  42.489  13.011
29860W        W95087  37.990  27.130   2.252
29861W        W95088  11.119  40.871   4.946
29862W        W95089   0.131   8.234  11.549
29863W        W95090  22.110  23.234  13.676
29864W        W95091  17.806   3.925   4.653
29865W        W95092  35.568   2.486  10.787
29866W        W95093  31.464  30.548  13.606
29867W        W95094  24.077  32.264  13.487
29868W        W95095  22.045   7.418  14.050
29869W        W95096  23.442   7.033   1.854
29870W        W95097  14.307   3.947   1.741
29871W        W95098  30.824  41.185   4.111
29872W        W95099  29.733  27.059  14.781
29873W        W95100  24.187   6.951   1.441
29874W        W95101   0.089   4.881   4.076
29875W        W95102  32.657   4.806  10.959
29876W        W95103  41.982  17.839   0.845
29877W        W95104  25.426  19.197  14.787
29878W        W95105  10.361  16.176  11.236
29879W        W95106  39.347  17.963  10.737
29880W        W95107  43.394  16.784   1.553
29881W        W95108  19.670  12.409  11.908
29882W        W95109  13.589  15.098  12.833
29883W        W95110  42.541  18.099   1.551
29884W        W95111  40.495  14.201  12.394
29885W        W95112  32.062   4.337   0.038
29886W        W95113  25.465  34.875  14.082
29887W        W95114  36.325   6.800   0.056
29888W        W95115  15.579  27.456  11.607
29889W        W95116  12.321  21.194  12.451
29890W        W95117  22.860  15.110  14.822
29891W        W95118   6.412  29.189   1.399
29892W        W95119  40.522  28.624  12.824
29893W        W95120  16.665  27.598   3.000
29894W        W95121  38.023  16.740  14.847
29895W        W95122  10.339   1.660   0.236
29896W        W95123  26.542   8.683  14.460
29897W        W95124  17.797  29.902  11.655
29898W        W95125  24.600  24.430  13.005
29899W        W95126  20.113   2.914  13.900
29900W        W95127  16.875  35.920   3.735
29901W        W95128  35.947  40.283  13.946
29902W        W95129  28.647  12.646  13.388
29903W        W95130  19.090  44.992   0.079
29904W        W95131  42.226  17.238  14.007
29905W        W95132   0.654  30.185   2.650
29906W        W95133  34.562  39.016  10.769
29907W        W95134   1.941  22.265   3.754
29908W        W95135  26.313  43.755  10.208
29909W        W95136   5.427   8.318   4.504
29910W        W95137  21.501  10.278  13.954
29911W        W95138   2.499  17.264  13.542
29912W        W95139  36.933  40.463  14.045
29913W        W95140  20.320  34.918  13.740
29914W        W95141  28.316  34.788  10.292
29915W        W95142  31.132  17.918   2.949
29916W        W95143  18.311   5.954  11.137
29917W        W95144  18.428  15.180   2.482
29918W        W95145  42.875   4.852  10.462
29919W        W95146  43.122  28.851  13.054
29920W        W95147  17.539  23.127  14.947
29921W        W95148  30.109  23.264  14.431
29922W        W95149  43.852  14.327  12.279
29923W        W95150  15.570  31.436   2.758
29924W        W95151  33.601   4.710  14.357
29925W        W95152   4.193   2.847   1.452
29926W        W95153  20.310   7.988  10.440
29927W        W95154   3.825  43.295  12.405
29928W        W95155  23.181  41.426   1.832
29929W        W95156  39.973  36.803   3.394
29930W        W95157  33.345  22.773  11.903
29931W        W95158  28.535  41.459  14.560
29932W        W95159   6.944  10.689   3.649
29933W        W95160  29.439  34.010  11.822
29934W        W95161  44.329  21.710   2.633
29935W        W95162  10.121  42.227  13.618
29936W        W95163  44.907  16.100  12.376
29937W        W95164  24.736   5.942  12.731
29938W        W95165  13.348  18.293   4.096
29939W        W95166  42.758  41.075  10.678
29940W        W95167  26.418   1.066  13.331
29941W        W95168   1.048   6.302  14.376
29942W        W95169   3.946  21.153   3.250
29943W        W95170  23.486   4.053  11.131
29944W        W95171   1.645  25.189   0.291
29945W        W95172  10.569  41.392   5.182
29946W        W95173  38.116  32.962  13.471
29947W        W95174  16.161  28.232   1.869
29948W        W95175  38.671  13.888   1.896
29949W        W95176   2.400  31.983  13.298
29950W        W95177  16.268  43.126  12.284
29951W        W95178   4.698   1.463   3.861
29952W        W95179  23.994  25.877   4.220
29953W        W95180  43.249   1.225   0.264
29954W        W95181  20.265  23.861   1.119
29955W        W95182   4.223  17.085  10.538
29956W        W95183  29.100   6.177  13.028
29957W        W95184  35.226  28.886  10.754
29958W        W95185  23.610   2.790  14.918
29959W        W95186   8.684  16.107  12.645
29960W        W95187  21.137  41.386  14.256
29961W        W95188  38.076  40.491   4.132
29962W        W95189   9.845  37.655   3.298
29963W        W95190  44.042  31.700  13.882
29964W        W95191  10.189  23.669  12.272
29965W        W95192  22.997  29.055   1.274
29966W        W95193  32.108  38.308   3.157
29967W        W95194  19.595   8.607   2.181
29968W        W95195   2.476  36.061  13.043
29969W        W95196  27.318   0.609   9.873
29970W        W95197   5.764  29.592  12.140
29971W        W95198  37.965  24.275   1.846
29972W        W95199  28.032  35.725   4.604
29973W        W95200  15.381   8.997   3.168
29974W        W95201  30.171  35.468  14.443
29975W        W95202  12.509  34.581   2.910
29976W        W95203  27.808  36.831   4.271
29977W        W95204  28.918  39.983   0.630
29978W        W95205  18.342  14.830   0.383
29979W        W95206  44.856  32.345  14.036
29980W        W95207   4.225   0.820  13.023
29981W        W95208  27.801   4.190  13.108
29982W        W95209   5.896  20.049  13.362
29983W        W95210  13.388  33.756   0.517
29984W        W95211  35.448  31.035   0.333
29985W        W95212  14.380  26.724   1.640
29986W        W95213  31.500  14.083  12.179
29987W        W95214  20.691  33.590  10.993
29988W        W95215   1.020   6.708   1.441
29989W        W95216   6.955  22.921   2.666
29990W        W95217  25.325   4.089  14.032
29991W        W95218   3.207   3.712  14.301
29992W        W95219  43.318  33.091  11.994
29993W        W95220  30.276  32.365  11.188
29994W        W95221  33.377   6.441  11.606
29995W        W95222   5.789   2.555  14.035
29996W        W95223  29.753  19.409   3.707
29997W        W95224  35.294  10.031  12.301
29998W        W95225  12.780  15.075  14.444
29999W        W95226  43.386  12.007   1.793
30000W        W95227  39.981  21.868   3.618
30001W        W95228  23.440  11.734   1.734
30002W        W95229   9.908   7.075  12.063
30003W        W95230  32.732  25.765   3.510
30004W        W95231  27.944  36.907  10.252
30005W        W95232   2.032  17.603  10.282
30006W        W95233  36.530  37.393   1.395
30007W        W95234  27.481  28.690   5.093
30008W        W95235  25.460  43.119  10.766
30009W        W95236  16.754  37.395  11.905
30010W        W95237  28.968   3.725  10.685
30011W        W95238  34.414  12.381   1.296
30012W        W95239  42.333  38.574   4.045
30013W        W95240  17.527  37.904  11.066
30014W        W95241  25.252  36.587   3.207
30015W        W95242   4.679   5.869  12.554
30016W        W95243   9.742  19.785  11.262
30017W        W95244  16.929   7.385  12.712
30018W        W95245   0.962   1.327  14.822
30019W        W95246   6.392  28.542  12.427
30020W        W95247  34.484  41.786   4.167
30021W        W95248  42.012  17.189   4.062
30022W        W95249  23.992  26.227  10.865
30023W        W95250  12.300  32.624  12.900
30024W        W95251   1.956  15.313  13.876
30025W        W95252  25.662  42.997   3.093
30026W        W95253   7.894  25.254  12.090
30027W        W95254   1.757  35.536  10.556
30028W        W95255  16.801  18.126   0.015
30029W        W95256   9.437   1.601   1.231
30030W        W95257   4.955  40.266  10.205
30031W        W95258  41.088  42.847   4.437
30032W        W95259  28.511  12.757  13.860
30033W        W95260   8.610  42.487   1.502
30034W        W95261  11.384  44.356   4.296
30035W        W95262  38.086  11.183  14.384
30036W        W95263  12.371  20.456   0.707
30037W        W95264  21.082  13.304   4.055
30038W        W95265  30.323  19.766   1.327
30039W        W95266  12.084  12.710  11.835
30040W        W95267   2.777  40.950   0.457
30041W        W95268  42.130  27.401   3.304
30042W        W95269   9.122  41.464  10.814
30043W        W95270  28.488   5.935  14.359
30044W        W95271  39.380  20.078   4.586
30045W        W95272  20.863  11.416   0.756
30046W        W95273  40.547   3.340   5.076
30047W        W95274  20.087   8.763   2.332
30048W        W95275  27.938  12.044   3.663
30049W        W95276  35.072   3.471   3.083
30050W        W95277  21.496  25.446  12.451
30051W        W95278   9.252  40.777   1.295
30052W        W95279   8.881  24.684   4.656
30053W        W95280   8.614  32.181  11.986
30054W        W95281   7.610  14.488  13.381
30055W        W95282  40.886  16.129   2.729
30056W        W95283   8.262   6.220   4.486
30057W        W95284  16.122  28.409  12.953
30058W        W95285  11.829  21.665   1.412
30059W        W95286  15.965   2.747   4.793
30060W        W95287  11.667  19.826   4.216
30061W        W95288  24.874  28.002   3.781
30062W        W95289  29.142  11.281   3.864
30063W        W95290  20.015  38.110  12.973
30064W        W95291  15.029   2.764  13.932
30065W        W95292  38.673  16.112  11.994
30066W        W95293  41.381  32.148   4.613
30067W        W95294   1.199  34.014  11.213
30068W        W95295  20.249  20.696   0.509
30069W        W95296  40.914  40.316   3.555
30070W        W95297  30.887  15.366  14.668
30071W        W95298  16.174  30.472  11.997
30072W        W95299  40.132  11.442   3.163
30073W        W95300  27.720  38.914  14.430
30074W        W95301  39.490  20.204  11.836
30075W        W95302  21.289  15.635   3.504
30076W        W95303  23.051  26.446   2.666
30077W        W95304   2.808   7.373   2.402
30078W        W95305   2.434   4.974   3.330
30079W        W95306  39.902  18.235  14.046
30080W        W95307   2.766  31.698   2.191
30081W        W95308  41.926   5.223  10.748
30082W        W95309  43.375  10.418  10.566
30083W        W95310   8.832  19.969   1.806
30084W        W95311  24.743  35.172   4.100
30085W        W95312  22.351  32.076   2.379
30086W        W95313  28.596  25.136  12.009
30087W        W95314  31.827   5.847   2.855
30088W        W95315  36.573  23.804   2.127
30089W        W95316   8.612  34.705  12.502
30090W        W95317  33.293  33.173  11.590
30091W        W95318  13.765  41.885  12.081
30092W        W95319  40.980   2.208   4.203
30093W        W95320  24.511  28.998  12.807
30094W        W95321  27.671  18.826   1.416
30095W        W95322  31.538   3.691   3.141
30096W        W95323  11.841  27.360   4.078
30097W        W95324  21.785   7.455  12.191
30098W        W95325  21.621  13.037   2.650
30099W        W95326   4.653  31.791  11.173
30100W        W95327   6.371   8.014  10.635
30101W        W95328  10.818   1.949   3.660
30102W        W95329  17.287  25.747   1.656
30103W        W95330  27.580  24.166  11.480
30104W        W95331  25.445  18.782  14.456
30105W        W95332  29.058  26.567   0.869
30106W        W95333  33.332  17.229  13.940
30107W        W95334  22.035  22.937   3.343
30108W        W95335   5.540  39.934  12.698
30109W        W95336  41.282  19.278   5.168
30110W        W95337  43.702  31.380  12.974
30111W        W95338   5.967  29.138   2.193
30112W        W95339  40.246   5.644   0.960
30113W        W95340  20.418  31.016   2.292
30114W        W95341  11.744  30.732   9.691
30115W        W95342  21.848  10.329  12.861
30116W        W95343  17.245  32.645  14.719
30117W        W95344  33.726  40.438  12.991
30118W        W95345  12.662  22.705   1.626
30119W        W95346  13.813  25.951   4.605
30120W        W95347  33.667   5.908   4.912
30121W        W95348   8.429  42.942   2.609
30122W        W95349   6.929   8.945  13.057
30123W        W95350  30.508   0.955  11.185
30124W        W95351   1.853  36.068  10.507
30125W        W95352  10.152  20.782   3.584
30126W        W95353  31.725  20.583  13.545
30127W        W95354  33.678  31.988  14.793
30128W        W95355   6.839  43.386   9.516
30129W        W95356  13.147   0.530   0.938
30130W        W95357  44.274   4.661   1.255
30131W        W95358  37.622  43.372  13.096
30132W        W95359  24.426  40.516  14.053
30133W        W95360  14.660   7.241  13.882
30134W        W95361   7.535   8.490   0.825
30135W        W95362  43.248  33.363  12.670
30136W        W95363  35.958   1.864   0.258
30137W        W95364  10.080  33.063   1.369
30138W        W95365  13.153   7.752   2.794
30139W        W95366   7.051  27.156  11.635
30140W        W95367   2.385  21.093  10.249
30141W        W95368  12.264   9.923  12.150
30142W        W95369  24.619   9.102  12.862
30143W        W95370  37.832  19.215   3.650
30144W        W95371   2.311   3.879  11.414
30145W        W95372  39.303  27.566   1.512
30146W        W95373  30.071  39.138  11.888
30147W        W95374   3.254   8.285   4.155
30148W        W95375  27.461  27.132   2.259
30149W        W95376  16.284  37.972  11.468
30150W        W95377  31.710  24.410  10.357
30151W        W95378  22.170   9.165  14.510
30152W        W95379  11.924  16.556   2.235
30153W        W95380  43.916  40.083   2.435
30154W        W95381   8.518  37.438  13.641
30155W        W95382   3.730  40.641  11.869
30156W        W95383  44.852   2.373  12.650
30157W        W95384   9.587  35.256   3.811
30158W        W95385  34.878  12.293   4.788
30159W        W95386  42.553  20.285  13.918
30160W        W95387  13.103  36.384  11.662
30161W        W95388  39.097   0.440  11.132
30162W        W95389   1.232  27.640   2.724
30163W        W95390   0.534  25.760  11.543
30164W        W95391  23.569  22.000   3.615
30165W        W95392  24.173  31.871   4.117
30166W        W95393  41.779   0.812  10.692
30167W        W95394   6.088  41.027  13.336
30168W        W95395  31.561  10.629  11.232
30169W        W95396  40.101  34.928   3.774
30170W        W95397   2.012  36.826   0.391
30171W        W95398   7.126   5.993  13.522
30172W        W95399  30.618  22.254   0.840
30173W        W95400  38.544  28.014   4.918
30174W        W95401  42.704  16.532   0.866
30175W        W95402  25.477   0.569  14.793
30176W        W95403  17.055  38.840   0.414
30177W        W95404  32.361   8.353  12.504
30178W        W95405  40.733  34.477  12.972
30179W        W95406   4.262   2.176  13.972
30180W        W95407  31.620   0.262   1.252
30181W        W95408  29.483  31.156  11.095
30182W        W95409   2.342  42.587   0.101
30183W        W95410   3.465   6.464   3.648
30184W        W95411  22.538  20.283   2.614
30185W        W95412  23.593  13.738  12.995
30186W        W95413  38.778  40.736   4.607
30187W        W95414  10.705  34.553  14.321
30188W        W95415  31.614  18.248  10.712
30189W        W95416  42.567   4.889   4.254
30190W        W95417  43.287  21.022   1.700
30191W        W95418  41.836  13.174  14.977
30192W        W95419  12.288   8.010   3.722
30193W        W95420  25.216  26.490  14.278
30194W        W95421  27.912  38.552   3.885
30195W        W95422   8.355  32.972   4.441
30196W        W95423   9.267  29.589   3.355
30197W        W95424   1.895  24.326   0.550
30198W        W95425  40.105  30.136  10.903
30199W        W95426  37.843  35.092   4.547
30200W        W95427  44.552  17.137   2.566
30201W        W95428  32.877  31.869   1.673
30202W        W95429  36.767  36.584   4.134
30203W        W95430   0.804   3.386  12.638
30204W        W95431  26.728  24.467   2.928
30205W        W95432  15.371   7.795   3.527
30206W        W95433  24.497  35.850  13.998
30207W        W95434  32.385  10.349   2.699
30208W        W95435  13.613   9.791  12.678
30209W        W95436  21.968  16.168  12.039
30210W        W95437  17.238  26.993  14.034
30211W        W95438  40.025  12.719   4.204
30212W        W95439  29.140  12.842   1.242
30213W        W95440  30.602  28.191  12.652
30214W        W95441  10.726  32.932   0.766
30215W        W95442  15.822  17.302  10.642
30216W        W95443  14.781  10.053  12.072
30217W        W95444  41.476   8.542   2.558
30218W        W95445  35.035  43.268   4.608
30219W        W95446   4.371  30.676   2.454
30220W        W95447  30.096  23.187   1.133
30221W        W95448  15.315  40.816  12.894
30222W        W95449  39.562  29.695  11.982
30223W        W95450  31.389  39.008   5.017
30224W        W95451  27.166  34.364  10.773
30225W        W95452  33.364  11.619   3.482
30226W        W95453  40.157  17.208   2.855
30227W        W95454  41.784  42.252   2.231
30228W        W95455  21.182  15.157  13.529
30229W        W95456  39.945  41.775   0.287
30230W        W95457   2.902  14.616  12.587
30231W        W95458  20.636  29.972  13.761
30232W        W95459   7.691   2.454   4.501
30233W        W95460  41.721  44.295  12.628
30234W        W95461  16.543   2.248   3.214
30235W        W95462   1.078   4.635   0.876
30236W        W95463  20.288   6.763   2.214
30237W        W95464  18.201  17.344   1.262
30238W        W95465  23.164  37.030  13.315
30239W        W95466  26.083   5.362  12.207
30240W        W95467  26.539  21.545  10.909
30241W        W95468  30.216  29.482  14.081
30242W        W95469  34.077  29.530   2.269
30243W        W95470  14.007  28.509  14.639
30244W        W95471   1.582  26.089  12.606
30245W        W95472   7.920  22.249   4.787
30246W        W95473  36.289  28.031  14.692
30247W        W95474   2.249  27.167   3.145
30248W        W95475  24.997  26.725  10.740
30249W        W95476  35.966  28.219   2.027
30250W        W95477  43.948   5.016   1.433
30251W        W95478  12.891  33.408  13.699
30252W        W95479  21.546  22.720   4.851
30253W        W95480  39.052  38.736  11.857
30254W        W95481   8.098  29.500  13.362
30255W        W95482  42.858   3.339   1.169
30256W        W95483  33.311   0.428  14.073
30257W        W95484  34.941  14.595  14.869
30258W        W95485  10.513   5.328  14.306
30259W        W95486  44.840   9.131  13.006
30260W        W95487  31.592   1.670  12.514
30261W        W95488   1.315   2.315   0.231
30262W        W95489  40.748  44.711  14.791
30263W        W95490   8.070   9.282   2.639
30264W        W95491  14.663  39.180   1.257
30265W        W95492  12.921   6.671  14.905
30266W        W95493  30.880  27.256  10.878
30267W        W95494   6.825  24.216   3.124
30268W        W95495   3.262  18.640   0.328
30269W        W95496  31.503   5.143   4.976
30270W        W95497  26.455  17.953   1.932
30271W        W95498  33.322   3.794   2.538
30272W        W95499   4.219  25.644   0.422
30273W        W95500  35.929  27.528   1.280
30274W        W95501  44.783  43.794  14.789
30275W        W95502  44.981  13.321  12.229
30276W        W95503  31.339  24.247  10.704
30277W        W95504   8.847  20.217  11.284
30278W        W95505  23.776   2.554  11.543
30279W        W95506  12.547  31.304  10.251
30280W        W95507  24.064   1.815  10.237
30281W        W95508  23.955   7.149   0.940
30282W        W95509  18.343  35.581  14.364
30283W        W95510  25.477  34.683  10.854
30284W        W95511   7.598   2.182  13.500
30285W        W95512  22.237   2.272   2.167
30286W        W95513  10.301  34.504  10.927
30287W        W95514  27.264  16.561  13.856
30288W        W95515  12.406  12.354  11.149
30289W        W95516  38.513  16.275  14.551
30290W        W95517  12.537  38.013   2.769
30291W        W95518  36.592  22.266   0.320
30292W        W95519  42.618  21.576   0.425
30293W        W95520  39.621  14.500  14.721
30294W        W95521  25.399  27.108   4.459
30295W        W95522  22.178   8.624  13.614
30296W        W95523  13.910  14.484  14.422
30297W        W95524   2.773  22.968   4.240
30298W        W95525  33.584  32.098   1.324
30299W        W95526  19.283  42.733   2.860
30300W        W95527  11.773   6.185  11.452
30301W        W95528  41.988   9.401   1.645
30302W        W95529  10.361  41.489   0.834
30303W        W95530   7.255   0.491  11.979
30304W        W95531   9.919  26.230   0.439
30305W        W95532   2.521  17.032   3.694
30306W        W95533  39.588   7.649  12.007
30307W        W95534  14.309  11.618   0.464
30308W        W95535   2.744  13.818  13.243
30309W        W95536  32.923   4.925   3.608
30310W        W95537  34.213  19.771   0.871
30311W        W95538  10.373  21.064  11.964
30312W        W95539  28.659  39.558  12.080
30313W        W95540  10.180  43.556   2.700
30314W        W95541  40.544  21.106   3.999
30315W        W95542  39.534  32.445   1.622
30316W        W95543  15.103  20.756  14.860
30317W        W95544  20.243  13.688  11.993
30318W        W95545   9.683  11.911  11.450
30319W        W95546   5.966  43.572   5.256
30320W        W95547  11.108   3.912  14.887
30321W        W95548  14.218   9.272   2.410
30322W        W95549  20.921  13.131   1.413
30323W        W95550  31.847  40.269  13.085
30324W        W95551   4.140   9.965  14.427
30325W        W95552  11.234   6.926   0.100
30326W        W95553   3.176  29.477   0.644
30327W        W95554  27.211  16.074   9.555
30328W        W95555  38.753  33.542  13.565
30329W        W95556  23.057  21.320  12.724
30330W        W95557  16.255  17.482   0.021
30331W        W95558  42.094  34.481  10.368
30332W        W95559  33.821  38.502   2.852
30333W        W95560  35.694  39.422  12.625
30334W        W95561   3.642   7.253  14.834
30335W        W95562   5.411   7.247   4.583
30336W        W95563  42.516  25.667   3.439
30337W        W95564  17.596  13.259   0.926
30338W        W95565   1.518  30.525   3.663
30339W        W95566  32.711  19.606   0.868
30340W        W95567  33.835  11.765   0.320
30341W        W95568  11.184  23.291   3.676
30342W        W95569  28.223  14.540   0.040
30343W        W95570  24.267   7.381  11.088
30344W        W95571  39.494   2.895   4.181
30345W        W95572   4.888  37.897   1.965
30346W        W95573  15.534   5.211  13.393
30347W        W95574  27.885  44.141  11.955
30348W        W95575  39.008  36.387  12.104
30349W        W95576  31.203  35.622  12.488
30350W        W95577  38.359  22.774   4.631
30351W        W95578  23.416  39.495   3.690
30352W        W95579   0.538   8.753  12.899
30353W        W95580   4.820  43.743   3.054
30354W        W95581  26.215  15.824  14.056
30355W        W95582  28.214  16.140   2.398
30356W        W95583  37.144  17.172  11.174
30357W        W95584  21.807  23.686  11.321
30358W        W95585  25.402  34.358  14.077
30359W        W95586  21.135  39.981  10.283
30360W        W95587   5.772   0.155   3.674
30361W        W95588  33.812  40.475  11.011
30362W        W95589  29.519   3.004  14.956
30363W        W95590  38.853   2.927   3.356
30364W        W95591  41.929  15.266  13.089
30365W        W95592  40.935   6.485  12.626
30366W        W95593  31.538  28.496   3.681
30367W        W95594  18.380   0.396  10.830
30368W        W95595  29.901  10.316   2.481
30369W        W95596  19.740  35.391  14.743
30370W        W95597  21.102  33.886  10.752
30371W        W95598  15.692  37.247   2.754
30372W        W95599  21.598   2.379   1.432
30373W        W95600  12.724  34.250   2.576
30374W        W95601  19.562  43.388  13.843
30375W        W95602  16.653   4.510  11.560
30376W        W95603   7.452   4.447  12.481
30377W        W95604  23.571  31.566   4.054
30378W        W95605  43.147   0.704   3.305
30379W        W95606  24.359  31.354  11.920
30380W        W95607  37.501  43.571   3.201
30381W        W95608  18.661  44.331  14.472
30382W        W95609   9.085  32.686   9.594
30383W        W95610  43.084  32.424  13.767
30384W        W95611  14.899  32.205  12.477
30385W        W95612   8.900  29.225   1.372
30386W        W95613  11.102   2.179   2.731
30387W        W95614  31.687  20.037  12.954
30388W        W95615  18.365  39.482  10.667
30389W        W95616  43.240  31.505   0.930
30390W        W95617  10.013   3.943  14.066
30391W        W95618  28.517  11.086   0.961
30392W        W95619   8.834  12.718   2.303
30393W        W95620  44.528   2.481   3.957
30394W        W95621   6.381   1.730  13.871
30395W        W95622  26.164  25.677   4.503
30396W        W95623  43.928  11.737  10.357
30397W        W95624  32.093  16.097  13.886
30398W        W95625  36.655  11.803   0.870
30399W        W95626  26.713  17.215   3.597
30400W        W95627   7.856  44.280   0.489
30401W        W95628  23.750  39.188   0.401
30402W        W95629   8.168  28.359   0.042
30403W        W95630  15.214  36.121   9.955
30404W        W95631   3.714  21.894  13.950
30405W        W95632  40.811  41.535   1.952
30406W        W95633   7.997  21.501  14.845
30407W        W95634  21.215  36.154  11.655
30408W        W95635  24.451  13.580   0.866
30409W        W95636  29.224  31.953  12.445
30410W        W95637   0.043  43.900   0.221
30411W        W95638   7.219  22.782   4.559
30412W        W95639  39.357  32.530   2.350
30413W        W95640  44.705  23.306   2.350
30414W        W95641  44.421  36.553   3.565
30415W        W95642  33.363  14.200  12.649
30416W        W95643  10.053  26.638  12.084
30417W        W95644  11.856  24.958  14.041
30418W        W95645  18.624  20.307  13.138
30419W        W95646  32.104  35.326  13.910
30420W        W95647  37.468  24.697   2.495
30421W        W95648   3.310  18.030  12.004
30422W        W95649  39.897  17.880   0.876
30423W        W95650  29.879  27.909   3.181
30424W        W95651  36.813  10.371   3.259
30425W        W95652  17.057  31.405   4.673
30426W        W95653  13.911  33.834   0.624
30427W        W95654   8.765   3.785  11.679
30428W        W95655  26.476  44.846   3.218
30429W        W95656  23.958  20.698   3.659
30430W        W95657  34.872  28.069   1.066
30431W        W95658  28.390  40.110   2.439
30432W        W95659  27.614  38.093   1.438
30433W        W95660  44.211  23.493   1.188
30434W        W95661  34.790  20.791  10.755
30435W        W95662  35.129  19.199   3.610
30436W        W95663   1.446  21.527   3.556
30437W        W95664  38.388   9.800  14.332
30438W        W95665  31.352  15.231   4.105
30439W        W95666   2.005  35.416  14.042
30440W        W95667  33.932  10.470   1.927
30441W        W95668  16.141   1.523  10.793
30442W        W95669  26.037  19.803  14.021
30443W        W95670  43.789   5.672   0.425
30444W        W95671   7.680  43.935   0.847
30445W        W95672  16.566  38.681   0.483
30446W        W95673  14.684  20.777  11.616
30447W        W95674  38.816   9.618  12.084
30448W        W95675  36.482  21.572   3.439
30449W        W95676  32.869  27.656   1.505
30450W        W95677  15.937   2.301   4.534
30451W        W95678  29.855   4.419  13.937
30452W        W95679  43.433   3.931   3.096
30453W        W95680  40.422   7.427   0.371
30454W        W95681  27.973  22.191   4.664
30455W        W95682  33.035  20.042   3.509
30456W        W95683  23.572  44.396  12.650
30457W        W95684  24.094  12.003   4.973
30458W        W95685  21.091  15.334  14.538
30459W        W95686  28.605   4.979  12.936
30460W        W95687  12.873  32.009   1.397
30461W        W95688  41.749   5.366   1.480
30462W        W95689  40.523  34.005  11.090
30463W        W95690   8.660  30.512  14.864
30464W        W95691  33.572  24.950  14.910
30465W        W95692   0.760  25.132   3.637
30466W        W95693  29.166  16.646   4.965
30467W        W95694  42.027  21.035  12.306
30468W        W95695   3.791  42.325   1.891
30469W        W95696  29.480  38.213  13.352
30470W        W95697   6.717   3.471  10.866
30471W        W95698   3.890  15.079   2.634
30472W        W95699  22.192  34.129  13.393
30473W        W95700  26.956  12.258   1.763
30474W        W95701  32.397   4.669   1.247
30475W        W95702  44.819  43.546  10.315
30476W        W95703   0.457  23.275   1.471
30477W        W95704  29.072   9.851  13.261
30478W        W95705   0.729  10.497  10.731
30479W        W95706  20.902  14.039  13.344
30480W        W95707  17.074   6.806   0.229
30481W        W95708   6.368  21.401  12.056
30482W        W95709  40.384  13.307   1.431
30483W        W95710   5.370   7.859  10.746
30484W        W95711  32.081  42.987  13.041
30485W        W95712  31.787  26.356   0.877
30486W        W95713   0.912  12.409   1.884
30487W        W95714  36.550   5.512   9.838
30488W        W95715   9.001  28.025  13.985
30489W        W95716  42.786  18.192   3.675
30490W        W95717   9.742  30.719  11.301
30491W        W95718  10.189  29.978   0.505
30492W        W95719  20.709  11.474  14.870
30493W        W95720   1.278  23.324   1.253
30494W        W95721  27.722  33.981  13.812
30495W        W95722  34.970  19.283   1.715
30496W        W95723  19.819   1.443  10.759
30497W        W95724  20.552  17.210   4.614
30498W        W95725   7.938   5.323  12.480
30499W        W95726  11.114  31.360   2.417
30500W        W95727  20.555  19.740   0.825
30501W        W95728   8.264  21.403  11.269
30502W        W95729   9.240   4.329   3.799
30503W        W95730  14.871  30.065   1.280
30504W        W95731  24.452   1.293   3.107
30505W        W95732  26.151   6.941  12.461
30506W        W95733   8.279  37.162  12.390
30507W        W95734  42.350   4.894  12.863
30508W        W95735  12.654  16.097   4.499
30509W        W95736  36.489  41.434  11.430
30510W        W95737   2.289   9.606  13.838
30511W        W95738  36.066  21.846   3.294
30512W        W95739  37.803  41.250   0.394
30513W        W95740  14.249  22.754  13.957
30514W        W95741  34.515  26.780  14.781
30515W        W95742  17.612  20.698   3.597
30516W        W95743  40.435  10.191  10.305
30517W        W95744   2.186   3.324  10.565
30518W        W95745   6.008   8.915   4.303
30519W        W95746  23.067  18.577   3.601
30520W        W95747  15.001   9.256   4.063
30521W        W95748  39.877  14.795   2.960
30522W        W95749  36.587  27.146  12.808
30523W        W95750  23.948  21.001   4.909
30524W        W95751  37.022   3.653   1.649
30525W        W95752  14.990  32.925   3.704
30526W        W95753   2.641   6.840   1.648
30527W        W95754  17.973  24.819   3.379
30528W        W95755   0.836  35.071   1.454
30529W        W95756  28.668  16.641  10.937
30530W        W95757  31.697  28.415  14.519
30531W        W95758  35.598  36.221  11.898
30532W        W95759  22.204   8.834  10.759
30533W        W95760  16.826  37.878  14.585
30534W        W95761  41.522  34.560   3.768
30535W        W95762   6.464  39.935   3.274
30536W        W95763  37.196  24.573  14.798
30537W        W95764  42.212  30.636  12.567
30538W        W95765   1.436  15.018   2.865
30539W        W95766  44.157  23.679   4.804
30540W        W95767  38.080  40.778  10.765
30541W        W95768  43.875  21.968   0.360
30542W        W95769   6.858  40.996  13.912
30543W        W95770   4.945  12.148   1.430
30544W        W95771  29.433  37.016  14.802
30545W        W95772  12.762   0.424  14.487
30546W        W95773   9.482  20.645  10.721
30547W        W95774  13.193   7.307  14.886
30548W        W95775   0.316  36.810  14.818
30549W        W95776  31.766   6.109  12.590
30550W        W95777  16.102   4.407   0.882
30551W        W95778  23.613  39.505  13.385
30552W        W95779   3.767  43.258  14.669
30553W        W95780  22.822  38.045  14.250
30554W        W95781  26.001   6.514  14.033
30555W        W95782  31.444  39.025   1.175
30556W        W95783  12.794   4.770   4.637
30557W        W95784  44.861  16.245   1.290
30558W        W95785   1.289  32.138  11.285
30559W        W95786  40.032  16.718  11.879
30560W        W95787  29.869  13.395   0.483
30561W        W95788  33.449  42.851   4.549
30562W        W95789  10.672  43.550  11.216
30563W        W95790  11.612   2.262   2.793
30564W        W95791  43.353  41.789  14.927
30565W        W95792  18.768  19.767  13.032
30566W        W95793  23.197  30.539  11.876
30567W        W95794  37.085  33.994  14.491
30568W        W95795  40.965   8.595   2.406
30569W        W95796  13.673  39.539   0.491
30570W        W95797  21.263  40.862   1.438
30571W        W95798  20.541  12.588   1.856
30572W        W95799  27.201  22.370  13.955
30573W        W95800  34.544  35.415   1.175
30574W        W95801   5.806   5.734   3.740
30575W        W95802  24.607  34.986   0.820
30576W        W95803  27.034  14.897   4.593
30577W        W95804  16.626  30.928   2.666
30578W        W95805  44.756  17.909   1.056
30579W        W95806  24.517  22.027   3.718
30580W        W95807   8.127   5.693   1.315
30581W        W95808   5.800   7.207  13.154
30582W        W95809  18.581  20.813  11.954
30583W        W95810  11.050   0.771   2.778
30584W        W95811  39.413   0.569   1.758
30585W        W95812  15.731  24.401   3.799
30586W        W95813  43.356  24.757  10.725
30587W        W95814  10.765  19.888  12.490
30588W        W95815   6.372  20.093   3.656
30589W        W95816   7.726   5.172   3.725
30590W        W95817   5.350  43.460   0.918
30591W        W95818   5.700  35.902  14.412
30592W        W95819  10.635  10.983   1.209
30593W        W95820  28.438  32.610   3.329
30594W        W95821  27.667  36.120   4.691
30595W        W95822  43.110   1.841  13.942
30596W        W95823  21.207  34.643  14.764
30597W        W95824  44.741  33.480   0.171
30598W        W95825  27.013  10.265   2.936
30599W        W95826  35.075  28.990  12.081
30600W        W95827  21.391   1.455   4.144
30601W        W95828   4.772  32.306  11.081
30602W        W95829  35.773  10.163  12.457
30603W        W95830   8.413  16.119  11.791
30604W        W95831  25.716  13.706   4.694
30605W        W95832  25.022  19.048   4.826
30606W        W95833  43.383  17.223  12.050
30607W        W95834  14.689  25.968  13.309
30608W        W95835   8.742  40.016   3.640
30609W        W95836  22.802  43.060  12.588
30610W        W95837  20.402  40.397   4.989
30611W        W95838  41.945  29.192   4.468
30612W        W95839  25.456   1.992  13.940
30613W        W95840  12.231  40.025   1.918
30614W        W95841   9.561  19.091   4.048
30615W        W95842  19.063  39.471  12.136
30616W        W95843  11.605   9.450  13.916
30617W        W95844  24.621  21.802  10.786
30618W        W95845   3.844  18.829   2.828
30619W        W95846  24.212   8.251  13.578
30620W        W95847  36.822  12.929   1.040
30621W        W95848  17.561  10.144   1.381
30622W        W95849  23.331   6.542   1.747
30623W        W95850  28.162  22.895  12.034
30624W        W95851  29.636   8.740   2.855
30625W        W95852  16.769  40.553   3.094
30626W        W95853  13.673   2.730  12.166
30627W        W95854  16.015  32.450  11.980
30628W        W95855  36.938   9.738  14.394
30629W        W95856  26.757  14.767   2.295
30630W        W95857  43.341  22.899   1.910
30631W        W95858  13.404  31.368   3.711
30632W        W95859  26.711   4.139  13.870
30633W        W95860   1.808  35.685  13.144
30634W        W95861  11.440  30.959  12.826
30635W        W95862  25.174  21.239  12.558
30636W        W95863  44.357   7.254   2.955
30637W        W95864  28.052  17.963   2.743
30638W        W95865  39.932   0.840  11.205
30639W        W95866   8.336   4.295   1.242
30640W        W95867   4.158  32.519   1.630
30641W        W95868  42.723  35.655   1.126
30642W        W95869  29.490  27.785   4.938
30643W        W95870  18.273  32.659  13.259
30644W        W95871  14.825   0.021   3.839
30645W        W95872  29.923  11.172   1.847
30646W        W95873  41.994  28.882   0.431
30647W        W95874  30.857  13.760   3.303
30648W        W95875  12.309  11.430   3.690
30649W        W95876   8.395   6.314   3.720
30650W        W95877   4.899  20.923  11.180
30651W        W95878   6.210  24.400  12.610
30652W        W95879  26.191  24.851  11.032
30653W        W95880  32.155  19.787   1.770
30654W        W95881  15.175  32.142  13.367
30655W        W95882  29.894  11.921  14.814
30656W        W95883  29.415  17.760   3.204
30657W        W95884  42.283  30.441  14.483
30658W        W95885  40.917   3.886  11.968
30659W        W95886  40.913  35.670   4.273
30660W        W95887   8.374   6.893  13.452
30661W        W95888  36.032   9.079  13.404
30662W        W95889  43.437  38.777   4.693
30663W        W95890  20.187  37.711   0.583
30664W        W95891  15.948  29.241   4.176
30665W        W95892   3.259  20.564   2.482
30666W        W95893  20.234  26.204  14.069
30667W        W95894   4.435   0.926  13.533
30668W        W95895   6.163  27.258   2.450
30669W        W95896  41.773  28.407   0.365
30670W        W95897  27.722  12.592   4.561
30671W        W95898  44.384  14.533   2.143
30672W        W95899  21.767   7.454  13.146
30673W        W95900   2.723  22.099   3.258
30674W        W95901  33.603  16.142  14.991
30675W        W95902   0.433  30.136  13.974
30676W        W95903  32.755   2.506  14.288
30677W        W95904  18.746  20.249  13.989
30678W        W95905  41.992  10.079  12.263
30679W        W95906  14.134  34.748  14.335
30680W        W95907  25.219  18.271   2.079
30681W        W95908  10.466  22.574  13.441
30682W        W95909  41.773  27.516   0.413
30683W        W95910   8.669  33.014  12.489
30684W        W95911  19.458  38.037  12.654
30685W        W95912  13.154  15.145   2.632
30686W        W95913  16.323  31.171   0.210
30687W        W95914  34.501  44.546   2.655
30688W        W95915   5.751  11.742   1.925
30689W        W95916  40.595   7.500  13.475
30690W        W95917  11.768  31.394  12.819
30691W        W95918  16.294   7.189   4.528
30692W        W95919  13.510  24.679  13.299
30693W        W95920  19.648  42.849   1.711
30694W        W95921   6.044   8.217  12.377
30695W        W95922  31.854  41.333   4.238
30696W        W95923  19.648  19.067  13.841
30697W        W95924  12.681  27.658   0.254
30698W        W95925   2.475  28.520   3.388
30699W        W95926   0.412  17.690  14.187
30700W        W95927  34.061   4.781   0.538
30701W        W95928  29.905  42.349  13.519
30702W        W95929  23.723  15.723  12.054
30703W        W95930   9.654  24.420   1.742
30704W        W95931  32.429   0.858   4.812
30705W        W95932   6.386  34.594  11.379
30706W        W95933  38.923  31.040   1.302
30707W        W95934  38.712  22.224   2.133
30708W        W95935  20.918  36.988   4.519
30709W        W95936  17.437  27.918   5.013
30710W        W95937  34.566  40.846   3.848
30711W        W95938  39.064   0.314   0.792
30712W        W95939  19.705   0.120   2.352
30713W        W95940  38.097  15.525  13.605
30714W        W95941  36.127  42.246  11.794
30715W        W95942  35.504  13.946   2.590
30716W        W95943  37.601  16.393  11.068
30717W        W95944   8.434  30.203   0.268
30718W        W95945  27.381  37.077   1.320
30719W        W95946  21.820  39.831   1.968
30720W        W95947   2.172  35.990   1.134
30721W        W95948   5.917  11.600  13.835
30722W        W95949  15.904  23.099   0.508
30723W        W95950  17.555  12.258  10.601
30724W        W95951  14.653  22.047  13.462
30725W        W95952  35.352  44.967   4.656
30726W        W95953  44.954  43.792  12.578
30727W        W95954  17.294  14.396  12.561
30728W        W95955  18.663  37.358  10.097
30729W        W95956   1.437  39.326  13.031
30730W        W95957  19.877  27.627   0.270
30731W        W95958  30.834   5.432   3.275
30732W        W95959  41.056  27.083  11.915
30733W        W95960  17.538  21.654   4.650
30734W        W95961  31.548   7.860   2.761
30735W        W95962  37.103  28.461  12.049
30736W        W95963  42.651  26.532   0.371
30737W        W95964  31.362   9.704   2.259
30738W        W95965   0.887  25.672  10.179
30739W        W95966  33.943  41.778  11.599
30740W        W95967  35.365  15.524   1.714
30741W        W95968  29.790  26.395   1.476
30742W        W95969  38.622  19.380   1.457
30743W        W95970   4.703   8.749  10.141
30744W        W95971  42.376  41.242  11.045
30745W        W95972  43.616  24.656  12.550
30746W        W95973  16.497  40.576  12.567
30747W        W95974  29.132  43.767   2.709
30748W        W95975  32.493  27.343  11.590
30749W        W95976  34.864   8.811   1.233
30750W        W95977   2.300   1.244   0.416
30751W        W95978  17.000  19.459   2.028
30752W        W95979  14.576  26.079  13.797
30753W        W95980  18.536  39.732  14.148
30754W        W95981  38.502  32.922   0.162
30755W        W95982  37.910  19.647   3.322
30756W        W95983   7.199  22.627   4.041
30757W        W95984  24.276  43.927   1.500
30758W        W95985  31.085   3.629   4.608
30759W        W95986  28.170  16.161  12.426
30760W        W95987  16.686  17.326   2.672
30761W        W95988  28.342  18.137  13.973
30762W        W95989   2.602  22.519   5.316
30763W        W95990  40.794  42.933  13.455
30764W        W95991  40.686  15.562   3.582
30765W        W95992  31.645   3.461   3.585
30766W        W95993  11.746  40.787  12.410
30767W        W95994  43.929  38.414   3.073
30768W        W95995  22.205   8.325  11.999
30769W        W95996  16.997  26.496  12.592
30770W        W95997  28.779   5.002  10.985
30771W        W95998  30.226  31.696  12.325
30772W        W95999  31.857   7.971   0.815
30773W        W96000  17.400   1.184  13.428
30774W        W96001  42.443   9.583   4.872
30775W        W96002   6.278  14.874  14.539
30776W        W96003  10.993  19.067  12.351
30777W        W96004  34.653   0.292   0.690
30778W        W96005   0.223   9.260   1.910
30779W        W96006   9.855  41.131   4.510
30780W        W96007  19.749  41.227  10.687
30781W        W96008  33.903   3.209   2.637
30782W        W96009  25.510  25.470   3.139
30783W        W96010  25.054  13.375  14.346
30784W        W96011  35.839  26.183  14.338
30785W        W96012  34.508  42.310  11.032
30786W        W96013  18.670  34.759   0.384
30787W        W96014  13.291  40.237   0.304
30788W        W96015  36.012  28.166  11.055
30789W        W96016  17.353  20.261   1.854
30790W        W96017   9.593  34.023   1.746
30791W        W96018   8.571   6.316   1.930
30792W        W96019  40.827   8.874  14.831
30793W        W96020  20.292   5.448  14.848
30794W        W96021  24.134  21.656   2.389
30795W        W96022  12.722  17.122   0.257
30796W        W96023  15.579  32.687   4.117
30797W        W96024  12.280  42.998   1.886
30798W        W96025  29.895  14.722   2.064
30799W        W96026  39.343  12.583  13.694
30800W        W96027  44.919  20.419  12.949
30801W        W96028  14.304  29.433  12.969
30802W        W96029  17.586  28.544  11.947
30803W        W96030  28.612  12.677   9.958
30804W        W96031  19.761  34.503  12.474
30805W        W96032  21.653   7.969  13.036
30806W        W96033  17.824   2.799  12.500
30807W        W96034  27.473  32.740  11.219
30808W        W96035  43.596  34.865   2.635
30809W        W96036  13.327  30.094  12.018
30810W        W96037  10.544   5.466   0.528
30811W        W96038  39.404  32.492  12.673
30812W        W96039  36.150  12.863   1.526
30813W        W96040  36.801  12.598   3.797
30814W        W96041  22.847  32.857  13.996
30815W        W96042  25.425  14.071  12.024
30816W        W96043  35.088  14.839   1.776
30817W        W96044  13.381  30.497   0.304
30818W        W96045  34.469  21.951  13.515
30819W        W96046  26.413   7.423  12.544
30820W        W96047  18.523   4.497   4.136
30821W        W96048   2.482  23.453  14.251
30822W        W96049  28.457   4.368  11.221
30823W        W96050  13.325   9.760   1.955
30824W        W96051  40.422  15.565  14.349
30825W        W96052  39.360   3.346   2.084
30826W        W96053   0.859  32.080   0.777
30827W        W96054  26.644  30.430   2.785
30828W        W96055  15.261  43.595  14.226
30829W        W96056  24.471  10.204   0.057
30830W        W96057  43.080   4.826   4.210
30831W        W96058   5.480  39.772  13.197
30832W        W96059  10.919  39.530   3.031
30833W        W96060  22.189  15.218  12.504
30834W        W96061  41.307  17.833   4.326
30835W        W96062  31.181   6.994   4.534
30836W        W96063  32.479  18.236  10.475
30837W        W96064  27.021  29.441  11.756
30838W        W96065  26.967   7.864  11.734
30839W        W96066   1.049  35.592   0.685
30840W        W96067   6.255  37.845   4.137
30841W        W96068  42.487  27.723  11.235
30842W        W96069  40.582  12.235  11.751
30843W        W96070  38.132  22.120   0.845
30844W        W96071   0.975   7.633  12.023
30845W        W96072  36.349  37.033   0.795
30846W        W96073  40.526   6.073   3.065
30847W        W96074  23.420  38.555   4.721
30848W        W96075  38.525  14.337   1.704
30849W        W96076  13.511  15.036   4.799
30850W        W96077  22.277  44.276   1.425
30851W        W96078  16.062   8.806  12.553
30852W        W96079   9.289  37.105  11.610
30853W        W96080  15.799   3.697  12.009
30854W        W96081   8.194  12.277   2.608
30855W        W96082   9.450  15.028   3.266
30856W        W96083  16.585  26.481  12.936
30857W        W96084  42.555  19.411   2.720
30858W        W96085  20.923  11.438  14.423
30859W        W96086   1.240   6.584   0.967
30860W        W96087  14.762  37.481   2.320
30861W        W96088   4.519  44.483   1.635
30862W        W96089   1.798  38.862  12.319
30863W        W96090   3.033  33.944  13.768
30864W        W96091  28.500  40.989  14.359
30865W        W96092  34.427  16.323  11.499
30866W        W96093  44.154   9.098  11.173
30867W        W96094   9.797   2.439   1.297
30868W        W96095  32.541  17.529   2.341
30869W        W96096  34.893  37.604   3.769
30870W        W96097   6.370  25.587   1.438
30871W        W96098  33.587  29.128   4.175
30872W        W96099  10.340   8.914  14.114
30873W        W96100   4.507  39.931  14.491
30874W        W96101  16.200  16.773   0.400
30875W        W96102  12.931   1.924   3.171
30876W        W96103   6.959  41.860   4.155
30877W        W96104  16.585   8.153   4.531
30878W        W96105   9.655   9.395   5.010
30879W        W96106   4.678  27.506  14.484
30880W        W96107  39.783   7.821  12.618
30881W        W96108   6.673  10.082   1.194
30882W        W96109  16.715  15.323   2.179
30883W        W96110  34.686  24.547   0.813
30884W        W96111  17.813  22.726  13.530
30885W        W96112  23.492   8.672   1.381
30886W        W96113  12.381  35.938   1.201
30887W        W96114  13.372  36.505  13.547
30888W        W96115  13.211  21.598  10.775
30889W        W96116   2.819  12.725   3.931
30890W        W96117  10.731  25.399  12.002
30891W        W96118  42.474  42.070  13.965
30892W        W96119  20.928  40.468   3.770
30893W        W96120  37.120  33.032   3.336
30894W        W96121  12.004  28.569   2.826
30895W        W96122   3.148   9.237   0.976
30896W        W96123   3.530   4.765   2.779
30897W        W96124  38.265  44.411  12.529
30898W        W96125  25.530  20.531   0.040
30899W        W96126   3.796  30.091  13.042
30900W        W96127  16.150  26.030  14.270
30901W        W96128   8.241   2.774  10.968
30902W        W96129   0.400  40.026  14.285
30903W        W96130  37.838  38.031  11.693
30904W        W96131   6.344  19.921  10.534
30905W        W96132  28.847   2.223   3.291
30906W        W96133  22.183  22.521   1.883
30907W        W96134  38.272   2.583  12.960
30908W        W96135  36.563  27.655  12.921
30909W        W96136  28.131   3.342  11.978
30910W        W96137  13.828  37.440  14.981
30911W        W96138  33.554   1.382   4.287
30912W        W96139  42.625  44.222  14.404
30913W        W96140  20.616   7.756  11.247
30914W        W96141  19.384  23.162   3.686
30915W        W96142   1.269  29.790   4.575
30916W        W96143  19.685  31.921   1.167
30917W        W96144   1.496   1.266  12.480
30918W        W96145   1.999  18.562  11.246
30919W        W96146   2.744   4.213  10.650
30920W        W96147  14.076  43.764   3.944
30921W        W96148   0.908  20.640   5.175
30922W        W96149   3.403  12.738   4.672
30923W        W96150  28.102  19.869   1.741
30924W        W96151  29.566  22.724   0.347
30925W        W96152  17.687  37.792   2.342
30926W        W96153   6.254  12.603  11.246
30927W        W96154  33.996  43.962  13.627
30928W        W96155  25.620  34.356  14.984
30929W        W96156  22.158  39.353  13.322
30930W        W96157  18.767  40.098   3.439
30931W        W96158   0.839  10.642   3.871
30932W        W96159  37.438   7.446   1.142
30933W        W96160   3.585  25.153   1.169
30934W        W96161   1.299  44.621   2.767
30935W        W96162  39.976  43.192  14.077
30936W        W96163  34.346  44.926  12.931
30937W        W96164  11.043  29.749  14.472
30938W        W96165  44.765  18.569   1.668
30939W        W96166  39.529   2.983   0.306
30940W        W96167  15.180  21.726   3.154
30941W        W96168  16.730  11.180  13.810
30942W        W96169   4.524  35.002   4.110
30943W        W96170  22.551  14.974   3.223
30944W        W96171  39.532  27.929  14.377
30945W        W96172  39.876   9.129  14.294
30946W        W96173  15.070  28.728  13.759
30947W        W96174  27.238  26.655   0.775
30948W        W96175  29.904   9.643  14.516
30949W        W96176  30.014  32.805   3.000
30950W        W96177  18.270   9.312  12.149
30951W        W96178  27.881  32.400  13.553
30952W        W96179  16.851  25.151   4.276
30953W        W96180  42.557  42.504  12.543
30954W        W96181  32.990  28.578   3.627
30955W        W96182  34.884  11.892   0.337
30956W        W96183  44.674  24.609   3.551
30957W        W96184  18.733  21.548   4.634
30958W        W96185  23.438  22.438   1.025
30959W        W96186  40.892  10.783  11.953
30960W        W96187  42.715   1.672  13.383
30961W        W96188  27.558  30.179  11.929
30962W        W96189  22.726  18.982   2.186
30963W        W96190  26.487  35.532  11.672
30964W        W96191  35.978  10.911  13.894
30965W        W96192  33.384  43.536  11.568
30966W        W96193  10.169  27.760  11.785
30967W        W96194  40.461  14.753  11.210
30968W        W96195  39.332  41.872   3.982
30969W        W96196  10.380  38.060  13.018
30970W        W96197  43.435  31.614  11.487
30971W        W96198  24.970  27.563  12.501
30972W        W96199   6.230  25.539  13.130
30973W        W96200  15.026  37.567   1.756
30974W        W96201  33.871  32.443  14.207
30975W        W96202  44.229  13.753  12.985
30976W        W96203  28.685  17.243   0.786
30977W        W96204  37.000  23.805  13.625
30978W        W96205  33.251  10.792   0.666
30979W        W96206  11.878  21.591  10.589
30980W        W96207   5.218   7.316  14.051
30981W        W96208  32.185  33.463  14.200
30982W        W96209  28.645   2.973  14.026
30983W        W96210  26.414  29.670   4.167
30984W        W96211  30.802  31.425  12.964
30985W        W96212   1.558  16.990  10.625
30986W        W96213   1.358  28.148   2.729
30987W        W96214  41.597  25.064  11.208
30988W        W96215   7.236  38.858   2.319
30989W        W96216  11.214  19.600   4.336
30990W        W96217  29.537  26.597   1.076
30991W        W96218  16.506  34.315   4.363
30992W        W96219  11.294  27.178   4.586
30993W        W96220  22.212  13.448   1.172
30994W        W96221  36.359   3.047  14.282
30995W        W96222  42.398   4.432  13.840
30996W        W96223   6.802  10.852  12.965
30997W        W96224   3.849   5.191   0.233
30998W        W96225  34.847  41.575  14.950
30999W        W96226  23.075   6.328  13.548
31000W        W96227  33.477  19.126  11.538
31001W        W96228  18.637  33.510  13.316
31002W        W96229  42.723  35.748   2.791
31003W        W96230  26.930  33.384   3.085
31004W        W96231  36.609  16.411   4.035
31005W        W96232  21.478   7.780   4.564
31006W        W96233   4.635  35.997  14.359
31007W        W96234  41.325  10.580   1.383
31008W        W96235   7.448  20.098   1.367
31009W        W96236  27.140  20.239   0.968
31010W        W96237   8.003   2.056  10.033
31011W        W96238  12.367  39.270  11.982
31012W        W96239  31.670  38.885   2.169
31013W        W96240  31.984  30.097   4.780
31014W        W96241  11.653  15.765   3.928
31015W        W96242  28.649   5.378   0.244
31016W        W96243  35.691  23.243   2.207
31017W        W96244   7.298  26.128  13.013
31018W        W96245  37.024  25.636   0.819
31019W        W96246  11.405  10.388   1.208
31020W        W96247  38.519  34.060   3.450
31021W        W96248  10.788   3.522   0.450
31022W        W96249  13.286  15.533   1.357
31023W        W96250  27.165  38.065  13.871
31024W        W96251   0.780   1.392  13.219
31025W        W96252   0.911  15.484   2.248
31026W        W96253   6.910  41.840   3.066
31027W        W96254   4.267  27.115   0.212
31028W        W96255  27.719  33.003  12.531
31029W        W96256  32.132  29.192  12.514
31030W        W96257  39.805  15.269   2.738
31031W        W96258  16.552  42.770   2.797
31032W        W96259  17.134  14.612  14.833
31033W        W96260  17.762  26.183   4.825
31034W        W96261  18.561  35.522  11.286
31035W        W96262  15.266  38.900  10.663
31036W        W96263  43.131  26.515   3.244
31037W        W96264   4.227  10.973  13.051
31038W        W96265  35.425   9.940   2.274
31039W        W96266  43.111   1.342  11.583
31040W        W96267  12.836  23.253  13.969
31041W        W96268   9.838  20.167  13.494
31042W        W96269   5.844   0.063  13.817
31043W        W96270  14.796  19.912   4.958
31044W        W96271  15.158   4.245   1.181
31045W        W96272   6.248  21.698  14.453
31046W        W96273  12.853  30.458  14.929
31047W        W96274  37.160  13.527   4.218
31048W        W96275  19.210  39.048  10.847
31049W        W96276  23.577  19.978  13.187
31050W        W96277  38.991  35.906  11.873
31051W        W96278  36.603  19.665  13.658
31052W        W96279   8.079   8.478   0.400
31053W        W96280  21.446  32.543   1.072
31054W        W96281   0.684  30.555   1.267
31055W        W96282   5.200  22.823   0.167
31056W        W96283  24.651   9.910  14.248
31057W        W96284  21.817   5.771  13.561
31058W        W96285  33.914  21.629   2.857
31059W        W96286  36.475   8.382   3.694
31060W        W96287  28.891  27.461   2.474
31061W        W96288  24.068   0.804  13.336
31062W        W96289  41.845  20.653   2.220
31063W        W96290  44.104   3.037  14.991
31064W        W96291  39.071  11.253  14.708
31065W        W96292   1.400  36.074  10.766
31066W        W96293  20.159  40.009   4.210
31067W        W96294  30.996  14.064   1.719
31068W        W96295  43.967  44.894  13.312
31069W        W96296  29.065  21.701   2.795
31070W        W96297  19.089  37.673   2.087
31071W        W96298  21.433   3.917   3.158
31072W        W96299  32.017  38.133   5.391
31073W        W96300  14.272  17.034   0.755
31074W        W96301   3.720  14.863   3.080
31075W        W96302  23.143  16.964   4.099
31076W        W96303  39.808  21.733  12.444
31077W        W96304  31.127  42.889   0.234
31078W        W96305   4.207  34.337  10.530
31079W        W96306  43.983  15.011   2.211
31080W        W96307  16.009   2.021   0.758
31081W        W96308  19.018  24.686  14.079
31082W        W96309  13.555  15.766   0.074
31083W        W96310  17.290  30.648   4.213
31084W        W96311   4.420  26.632   0.354
31085W        W96312   6.602   8.161   0.234
31086W        W96313   2.765  35.955   2.054
31087W        W96314  44.576  34.717  12.068
31088W        W96315   5.523   0.750   0.058
31089W        W96316  37.774  26.664   2.411
31090W        W96317  20.327  19.150   2.246
31091W        W96318  20.188  11.970   2.276
31092W        W96319  44.100   8.258  11.538
31093W        W96320  30.528  34.854  14.487
31094W        W96321  29.398  25.757  14.358
31095W        W96322  44.291  17.227  12.419
31096W        W96323   5.502  12.567  10.038
31097W        W96324  16.578  24.946   0.516
31098W        W96325   5.662  34.907  14.299
31099W        W96326   6.174  17.203  13.994
31100W        W96327   2.936   6.337  10.679
31101W        W96328  22.937  43.325   3.287
31102W        W96329   8.449   1.927   0.633
31103W        W96330  33.968  34.425   4.083
31104W        W96331  29.549  14.690  12.862
31105W        W96332  27.661  40.989  11.617
31106W        W96333  43.919  40.900   1.688
31107W        W96334   0.086  35.897  14.817
31108W        W96335  17.180  24.539   2.207
31109W        W96336  30.148  34.609   2.263
31110W        W96337  14.679  21.752   3.989
31111W        W96338  21.518  20.508  12.589
31112W        W96339  19.701  26.203  11.748
31113W        W96340   2.221  31.977  12.360
31114W        W96341  43.311  30.309  10.281
31115W        W96342  16.810  29.021   1.689
31116W        W96343  21.650   8.298   2.356
31117W        W96344  23.149   1.228   1.175
31118W        W96345  28.996  42.645  13.978
31119W        W96346  19.409  38.624   2.214
31120W        W96347  27.232  25.731  13.410
31121W        W96348  23.661  40.945   3.865
31122W        W96349  20.812  13.631   4.569
31123W        W96350   6.750   9.842   1.682
31124W        W96351  12.215  39.671  11.130
31125W        W96352   7.304   3.642   4.396
31126W        W96353  39.382   7.240   9.895
31127W        W96354  30.096   9.271   3.955
31128W        W96355  32.905  34.186   1.553
31129W        W96356  12.647  28.380  14.803
31130W        W96357   1.245  39.821  14.765
31131W        W96358  35.414  30.161   3.313
31132W        W96359  16.471  18.453  13.469
31133W        W96360  32.959  20.019  12.111
31134W        W96361  33.608  27.942  14.985
31135W        W96362  20.084   2.971   4.228
31136W        W96363  29.103  44.147   4.948
31137W        W96364  15.767  26.573   1.993
31138W        W96365  14.176  34.562  13.530
31139W        W96366   1.769   2.466  11.936
31140W        W96367  15.664  25.523  11.201
31141W        W96368  33.621  22.350   5.046
31142W        W96369  23.208  40.852   3.609
31143W        W96370  20.711  27.414   0.826
31144W        W96371  28.271  13.988   4.531
31145W        W96372  26.648  42.591   1.285
31146W        W96373  23.507  41.601  13.407
31147W        W96374  30.980  34.655  10.568
31148W        W96375  33.983  11.381   2.334
31149W        W96376  13.272  30.551   4.398
31150W        W96377  16.271  33.967  13.116
31151W        W96378   4.699  19.688   2.561
31152W        W96379  36.647  15.459   1.389
31153W        W96380  43.748   3.756   3.508
31154W        W96381  39.868  21.595   1.412
31155W        W96382   0.427  35.157   1.153
31156W        W96383  32.477  38.364  14.027
31157W        W96384  16.576  16.162  11.285
31158W        W96385   9.161   2.489   4.865
31159W        W96386  40.438  16.099   2.990
31160W        W96387  23.940  21.245  10.616
31161W        W96388  36.812  28.997  13.080
31162W        W96389  10.970  44.838   4.445
31163W        W96390   1.364  37.646   0.896
31164W        W96391  10.159  15.743   1.347
31165W        W96392  31.086  34.614  13.429
31166W        W96393  16.148  30.168   4.093
31167W        W96394   1.843  12.154  11.170
31168W        W96395  25.907  17.629  12.515
31169W        W96396  29.963   6.736   0.322
31170W        W96397  18.256   5.374   2.585
31171W        W96398   7.864  40.241   3.636
31172W        W96399  13.303   4.194   4.289
31173W        W96400  30.996   7.651  11.004
31174W        W96401  37.860  40.073  12.600
31175W        W96402   4.495   8.368  11.617
31176W        W96403  31.506  41.732   3.824
31177W        W96404   9.320  13.962  12.115
31178W        W96405  31.000   9.711   1.785
31179W        W96406  42.971  32.847   2.112
31180W        W96407  10.554   8.010  14.325
31181W        W96408   3.767  41.762  13.920
31182W        W96409  19.261  11.646  10.707
31183W        W96410  15.900  12.170   1.749
31184W        W96411  25.628  43.864  11.449
31185W        W96412  39.150   1.025   3.303
31186W        W96413  20.070  27.181   3.244
31187W        W96414  26.727   2.891   1.481
31188W        W96415  16.331   9.217  12.843
31189W        W96416  31.869  13.788   1.589
31190W        W96417  32.407  44.580   3.133
31191W        W96418  24.004  16.101  12.240
31192W        W96419  34.149  14.390   1.725
31193W        W96420   3.679   6.198  14.336
31194W        W96421  22.104   2.547  14.784
31195W        W96422   8.474   2.135  11.663
31196W        W96423  25.958  14.601   0.593
31197W        W96424  18.751  23.199   1.816
31198W        W96425  14.673  27.722  12.902
31199W        W96426  28.864  18.764   2.127
31200W        W96427  16.735  36.846   1.858
31201W        W96428  32.032  17.946  10.435
31202W        W96429   6.815   0.201   2.373
31203W        W96430  37.465  17.073   1.894
31204W        W96431  33.029  22.753   3.876
31205W        W96432  43.492  16.295  14.855
31206W        W96433  13.097   5.443  11.585
31207W        W96434  13.355  38.895   4.085
31208W        W96435  40.253   3.794  13.544
31209W        W96436  41.487  30.798   0.109
31210W        W96437  11.191   7.323  13.502
31211W        W96438  15.536  12.347  10.614
31212W        W96439  10.340  43.960   2.125
31213W        W96440  31.938  40.828   3.633
31214W        W96441   2.329  38.556   4.171
31215W        W96442   3.414  39.839   4.101
31216W        W96443  34.151  30.702   2.852
31217W        W96444  40.342  11.378  12.383
31218W        W96445  33.482  21.211  14.448
31219W        W96446  26.490  25.713   2.292
31220W        W96447  22.251  25.786   0.555
31221W        W96448  18.119  22.028  11.597
31222W        W96449   1.604  43.105  13.346
31223W        W96450   7.788  14.218   2.173
31224W        W96451   1.484  41.601  12.511
31225W        W96452  19.597  18.863   4.567
31226W        W96453  38.484   4.948  12.574
31227W        W96454   8.907  30.974  13.945
31228W        W96455  12.330  13.838  12.479
31229W        W96456  35.544   2.867   2.682
31230W        W96457  42.924  11.740  13.426
31231W        W96458  36.273  28.050  13.012
31232W        W96459   3.275  21.996  14.750
31233W        W96460   5.424  22.242  12.444
31234W        W96461  20.784  23.997  12.897
31235W        W96462  30.058   0.786  11.394
31236W        W96463  44.982   6.731  14.821
31237W        W96464   4.283  33.390  12.475
31238W        W96465   4.257  12.693   2.424
31239W        W96466   2.774   7.331  14.079
31240W        W96467  16.075   0.817   0.010
31241W        W96468   5.699   6.931  10.993
31242W        W96469  22.786  14.143   2.791
31243W        W96470  12.994  17.531   3.270
31244W        W96471  40.490   8.858   1.259
31245W        W96472   0.597  23.694  14.968
31246W        W96473   4.304   9.727   0.376
31247W        W96474  25.461  37.467  14.401
31248W        W96475  36.485  41.027  14.761
31249W        W96476  26.322   3.557   3.106
31250W        W96477  13.269   3.385  12.994
31251W        W96478  40.508   0.667   2.050
31252W        W96479  11.716  37.874   1.938
31253W        W96480  21.822  38.999   0.400
31254W        W96481  13.662  25.607  11.523
31255W        W96482  33.004  18.482  11.145
31256W        W96483  29.534  21.673   2.573
31257W        W96484  24.867   6.979   3.645
31258W        W96485   9.860  22.817   3.772
31259W        W96486   4.742  42.240  12.574
31260W        W96487  40.825   9.753   3.181
31261W        W96488  20.677  42.796  10.681
31262W        W96489   1.490  27.870   2.311
31263W        W96490  34.985  40.880  10.961
31264W        W96491   1.882  43.569   1.793
31265W        W96492   1.016  40.243  12.623
31266W        W96493  24.803  42.413   5.523
31267W        W96494  11.760  44.741   3.137
31268W        W96495  41.021  16.615  11.267
31269W        W96496  26.381   1.788   4.590
31270W        W96497   9.539   9.386   0.320
31271W        W96498  39.445  14.185  13.033
31272W        W96499  18.577  11.671  11.193
31273W        W96500   3.793  33.808  14.885
31274W        W96501  43.175   5.408  12.775
31275W        W96502  43.273  24.468  14.349
31276W        W96503  15.335  13.316  12.949
31277W        W96504  39.351   8.617  13.843
31278W        W96505  21.639  15.854   1.786
31279W        W96506  38.306  10.297   4.097
31280W        W96507   6.929  18.778   3.934
31281W        W96508  15.212  12.750  11.601
31282W        W96509  29.638  11.840   2.820
31283W        W96510   5.395  21.249   2.374
31284W        W96511  44.349   3.149  13.396
31285W        W96512  13.013   0.264   3.587
31286W        W96513  38.138  27.407  14.404
31287W        W96514  40.231  22.995   1.920
31288W        W96515   5.188  31.671   2.709
31289W        W96516   5.960  43.663  13.446
31290W        W96517  15.340  17.619   1.933
31291W        W96518  30.444   6.787  11.644
31292W        W96519  31.775  22.949  11.531
31293W        W96520   6.092   9.232  11.094
31294W        W96521   5.816  34.900   3.393
31295W        W96522  12.594  31.964  12.138
31296W        W96523  36.287  32.208   1.692
31297W        W96524   6.907  22.536   1.839
31298W        W96525  21.814  42.291   0.286
31299W        W96526   8.721  12.332  11.611
31300W        W96527  12.267   6.419  12.569
31301W        W96528  27.092  41.281   1.457
31302W        W96529  10.276  24.565   2.797
31303W        W96530  13.235   3.034   0.695
31304W        W96531  15.513  18.172  12.569
31305W        W96532  44.061  39.809   0.015
31306W        W96533   7.178  18.553  11.285
31307W        W96534  44.619  26.671  11.730
31308W        W96535  22.477  32.201   1.223
31309W        W96536  23.645  15.894  14.939
31310W        W96537   3.489  20.146   0.369
31311W        W96538  28.731  15.305  12.057
31312W        W96539  26.393   9.243   3.113
31313W        W96540  11.369   8.183  13.074
31314W        W96541  40.944  41.325  12.069
31315W        W96542  42.842  30.055   2.757
31316W        W96543   3.157   8.284   3.237
31317W        W96544  26.536  18.596  13.619
31318W        W96545  29.826  41.034  11.869
31319W        W96546  11.069  17.456   2.241
31320W        W96547  12.243  30.480  10.696
31321W        W96548  23.267  16.484   4.280
31322W        W96549  32.220  24.285  11.180
31323W        W96550  37.380  21.702  13.487
31324W        W96551  11.686  15.508  13.247
31325W        W96552  41.805  20.247  11.261
31326W        W96553  19.156  33.186  11.299
31327W        W96554   0.047  42.078  12.132
31328W        W96555   3.697  43.312   1.439
31329W        W96556  24.935   6.440   4.478
31330W        W96557  15.849  31.477  13.897
31331W        W96558  43.396  27.485  12.387
31332W        W96559  16.099   3.749  14.253
31333W        W96560  35.557   4.502   2.335
31334W        W96561  35.401   9.492   0.459
31335W        W96562  24.069  42.970  12.743
31336W        W96563   7.134  17.117  14.244
31337W        W96564   2.480  36.439  13.389
31338W        W96565  20.650   4.767  11.606
31339W        W96566  20.632  18.069  12.015
31340W        W96567  15.800   2.452  11.354
31341W        W96568  44.881  25.786   1.785
31342W        W96569  24.576  42.327   0.528
31343W        W96570  30.609   9.424   0.282
31344W        W96571  22.446  30.440  12.522
31345W        W96572  28.696  44.416  14.937
31346W        W96573   7.406   6.857  12.426
31347W        W96574  19.886   8.127  12.156
31348W        W96575  11.180  27.727  11.997
31349W        W96576  29.943  31.692  14.927
31350W        W96577   2.020  20.797   5.014
31351W        W96578  19.995   3.558   1.032
31352W        W96579   9.219  41.020  11.462
31353W        W96580  40.956  14.112   2.288
31354W        W96581  29.022  42.046  13.474
31355W        W96582   0.334   5.272   0.734
31356W        W96583  21.527   2.910  14.108
31357W        W96584   2.632  13.670  14.088
31358W        W96585  33.044   3.129   3.633
31359W        W96586   8.733  29.045  11.866
31360W        W96587  25.643  20.236  14.579
31361W        W96588  19.740  20.738   3.230
31362W        W96589  38.981  20.767  14.398
31363W        W96590  17.371  15.611  14.312
31364W        W96591   4.471  22.425  13.206
31365W        W96592  24.770  22.267   1.366
31366W        W96593  23.017  23.658   4.071
31367W        W96594  15.999  35.129  14.674
31368W        W96595  21.502   8.648  12.399
31369W        W96596   2.490  42.329  12.147
31370W        W96597  22.304  21.553   2.222
31371W        W96598  13.320  31.823   0.016
31372W        W96599   0.702  44.828   0.123
31373W        W96600  19.840   6.757  13.459
31374W        W96601  34.099  23.285  11.196
31375W        W96602   0.410  34.609  12.269
31376W        W96603  23.678  36.565   3.636
31377W        W96604  42.933  19.028  13.863
31378W        W96605   6.741  19.469   1.376
31379W        W96606  28.891  36.319   2.787
31380W        W96607  15.161  16.716  12.505
31381W        W96608  39.979  21.095  10.552
31382W        W96609   7.303   8.826   2.489
31383W        W96610  26.918  35.265  11.691
31384W        W96611  41.412  19.168   0.678
31385W        W96612  14.786  31.900   2.528
31386W        W96613  18.254  41.579  12.869
31387W        W96614   4.368   0.899  10.929
31388W        W96615  34.619   5.282   2.736
31389W        W96616   5.263  29.478  11.408
31390W        W96617  27.349  31.935  11.649
31391W        W96618   9.741  38.189  10.953
31392W        W96619   8.565  44.328  10.228
31393W        W96620  20.794  29.111  12.558
31394W        W96621   4.056  22.095   4.515
31395W        W96622  34.158  25.597  14.403
31396W        W96623  15.980  11.325  11.569
31397W        W96624  18.668   0.829  10.784
31398W        W96625  40.330  30.191  11.910
31399W        W96626   7.617   5.755  13.377
31400W        W96627  25.537  29.118  11.233
31401W        W96628   6.288   0.938  12.196
31402W        W96629  29.194   0.733  14.420
31403W        W96630  40.026  26.119   1.938
31404W        W96631   7.779  13.514  10.288
31405W        W96632  18.604  16.751  12.437
31406W        W96633  31.477   7.087   1.225
31407W        W96634   2.362   0.388  14.387
31408W        W96635   4.338  23.551  12.383
31409W        W96636  34.833  23.550  13.019
31410W        W96637   4.481  31.528   2.132
31411W        W96638  41.638  13.114   1.941
31412W        W96639   4.077  34.322   4.951
31413W        W96640  14.020   3.484   3.257
31414W        W96641  22.079  31.165  12.454
31415W        W96642  39.148   0.216   3.467
31416W        W96643  35.842  15.871  12.130
31417W        W96644  25.904   1.003  10.101
31418W        W96645  42.197  10.805  14.295
31419W        W96646  39.005  32.132   4.477
31420W        W96647  36.950  22.752   1.812
31421W        W96648   9.742   4.232  14.395
31422W        W96649  12.099  17.734   0.715
31423W        W96650  21.024  11.748   2.520
31424W        W96651  27.650  28.949  12.373
31425W        W96652   7.484  29.251  12.877
31426W        W96653  19.136  32.903   3.613
31427W        W96654  27.119  34.544   4.092
31428W        W96655   5.127   7.713  12.220
31429W        W96656  14.162   4.758  13.916
31430W        W96657   8.728  36.345  14.449
31431W        W96658  10.736  11.092   3.559
31432W        W96659   5.848  23.660  12.950
31433W        W96660  33.899  21.862  14.915
31434W        W96661  17.092   2.426  14.081
31435W        W96662  11.444  27.488   3.257
31436W        W96663  24.086  34.966  14.530
31437W        W96664  44.647  36.043  11.273
31438W        W96665   3.895  38.830  13.475
31439W        W96666  25.188  19.687  14.611
31440W        W96667  39.129  23.755  12.912
31441W        W96668  18.678   0.655  14.399
31442W        W96669   5.155   1.301   1.953
31443W        W96670  29.783  32.802  11.274
31444W        W96671  32.502   1.769   3.313
31445W        W96672  43.349  18.014   4.516
31446W        W96673  40.533  22.993  14.820
31447W        W96674  32.433  21.085  10.744
31448W        W96675   2.855   1.485   1.243
31449W        W96676   7.357  13.372  10.022
31450W        W96677  26.126   9.495  11.920
31451W        W96678  36.875  38.409  12.952
31452W        W96679  38.953  19.747  10.149
31453W        W96680  10.215  29.688   2.897
31454W        W96681  18.750  30.957  11.566
31455W        W96682  43.540   2.320   1.786
31456W        W96683  10.263  44.007  12.370
31457W        W96684   9.696  20.019   3.344
31458W        W96685  28.467  20.845   0.018
31459W        W96686   2.788  15.409  11.595
31460W        W96687  30.569  44.762  10.734
31461W        W96688   0.689  39.403  13.379
31462W        W96689  28.381   9.576   4.486
31463W        W96690  43.595  15.226   1.910
31464W        W96691   9.065  23.176  11.638
31465W        W96692   8.080  30.282  13.024
31466W        W96693  21.605  42.005   3.606
31467W        W96694   6.907  35.364  14.578
31468W        W96695   9.765   5.829  13.428
31469W        W96696  41.573   6.351   2.302
31470W        W96697  20.679  23.747  10.898
31471W        W96698   0.249  18.851  14.123
31472W        W96699  20.129   6.712   0.675
31473W        W96700   5.423  20.118   1.965
31474W        W96701  26.181  22.254  10.717
31475W        W96702  33.385  23.129   0.735
31476W        W96703  37.976  10.122  13.282
31477W        W96704  23.620  34.163   1.820
31478W        W96705   4.809   9.150   3.394
31479W        W96706   8.241  35.237   3.687
31480W        W96707  25.895   4.554   1.908
31481W        W96708  27.621  29.724  12.876
31482W        W96709  28.071  10.703   0.799
31483W        W96710  32.840  37.653  11.207
31484W        W96711  24.649  36.652   1.755
31485W        W96712  41.670  21.077  14.376
31486W        W96713  18.655  44.739  13.333
31487W        W96714  11.765   8.280   2.741
31488W        W96715  41.529  34.970  13.803
31489W        W96716  44.985  40.291  11.096
31490W        W96717  20.688  11.879   0.594
31491W        W96718  11.685   6.905   3.196
31492W        W96719  14.869  11.833   1.259
31493W        W96720  15.081   9.806   0.813
31494W        W96721   6.199  13.495   2.965
31495W        W96722  25.802  11.248   2.878
31496W        W96723  13.781  15.801   0.527
31497W        W96724   4.260   6.240  11.756
31498W        W96725  13.879  28.633  12.961
31499W        W96726   3.621  16.246   3.117
31500W        W96727  40.413  37.193  13.620
31501W        W96728   7.356  29.178  14.243
31502W        W96729  37.072  26.286  14.460
31503W        W96730  26.646  35.789   4.527
31504W        W96731  40.974  14.909  12.463
31505W        W96732   0.024  21.313  11.801
31506W        W96733  14.152  44.085  11.980
31507W        W96734  14.051  16.762  12.443
31508W        W96735  11.323  20.556   2.303
31509W        W96736  25.916  33.923   2.812
31510W        W96737  10.461  12.118  14.414
31511W        W96738  27.637  23.082   3.341
31512W        W96739  39.156  28.834  11.107
31513W        W96740  23.686  11.610   4.168
31514W        W96741   5.888  36.798  13.022
31515W        W96742  41.811   5.061   3.272
31516W        W96743   7.425  15.610   3.183
31517W        W96744   0.009  27.855  13.385
31518W        W96745   2.723  39.938  12.737
31519W        W96746   2.539   6.296   2.834
31520W        W96747  26.496  10.319  14.216
31521W        W96748  14.383  39.361  11.468
31522W        W96749  27.061  31.382  14.839
31523W        W96750  37.870   9.318  14.545
31524W        W96751   7.602  13.183   2.533
31525W        W96752  27.538  17.602  11.586
31526W        W96753  38.664  16.966  10.419
31527W        W96754  10.890  16.265   1.559
31528W        W96755  10.755  27.614   4.010
31529W        W96756   6.468   5.347   1.258
31530W        W96757  33.907  30.893   4.215
31531W        W96758  24.624  31.631  13.060
31532W        W96759  22.154  42.970  10.920
31533W        W96760  15.741  36.822  12.847
31534W        W96761  10.250   8.805   4.645
31535W        W96762  41.995   2.894   4.155
31536W        W96763  40.438  33.461   3.239
31537W        W96764  38.647  23.465  11.679
31538W        W96765  26.067   8.396   1.643
31539W        W96766  24.047  27.885   4.217
31540W        W96767  32.465  31.703   4.068
31541W        W96768  41.464  38.847   3.865
31542W        W96769  16.485  21.454  12.008
31543W        W96770  19.969  22.866   1.274
31544W        W96771  35.686  33.597  14.470
31545W        W96772  24.516  43.827   3.622
31546W        W96773  38.162   2.838   0.381
31547W        W96774  16.574  30.910  14.825
31548W        W96775  37.063   8.674   1.439
31549W        W96776   3.346  22.667  11.901
31550W        W96777  39.916  28.383  12.027
31551W        W96778  32.076  33.612   1.243
31552W        W96779  37.928  25.959  14.710
31553W        W96780  29.149  16.346   1.011
31554W        W96781  17.823  13.596   1.779
31555W        W96782   2.735  19.800   2.608
31556W        W96783  43.981  20.999   3.602
31557W        W96784  34.510  30.607  12.973
31558W        W96785  22.655   4.348  11.232
31559W        W96786   8.595  12.506   1.846
31560W        W96787   7.084  43.720  13.080
31561W        W96788  42.699  29.325   5.069
31562W        W96789  32.988  30.145   2.687
31563W        W96790  12.383   0.567  10.578
31564W        W96791  36.312   8.749  13.680
31565W        W96792  14.546  15.597   3.739
31566W        W96793  20.847  19.314   2.248
31567W        W96794  21.000   0.448  10.664
31568W        W96795   6.458  34.599  13.625
31569W        W96796  39.714  21.219   1.054
31570W        W96797   6.347  35.876   4.857
31571W        W96798  17.836  17.591  11.545
31572W        W96799  35.332  37.385   3.150
31573W        W96800  33.552  26.166   0.950
31574W        W96801   1.537  32.647   0.039
31575W        W96802  41.550   3.279   3.136
31576W        W96803  14.364  40.500   4.577
31577W        W96804  37.253   3.394   2.105
31578W        W96805  31.993   6.350  14.064
31579W        W96806  14.244   7.398   0.346
31580W        W96807  20.729  44.913  13.895
31581W        W96808   1.400   2.381  13.700
31582W        W96809   4.763  38.226  13.162
31583W        W96810   4.911  28.122  10.699
31584W        W96811   7.564  19.405  10.108
31585W        W96812  27.471  20.618  13.834
31586W        W96813  11.333  24.679  12.087
31587W        W96814  10.650   9.920  12.476
31588W        W96815  15.287  39.434   0.410
31589W        W96816  17.298   9.204  12.508
31590W        W96817  18.290   3.075  12.022
31591W        W96818  28.023  23.154  12.474
31592W        W96819  30.658  20.829   2.856
31593W        W96820  23.410  33.344   3.454
31594W        W96821  30.411  30.699  14.404
31595W        W96822  35.468  24.491  11.764
31596W        W96823  37.858   2.929  12.909
31597W        W96824  32.872   5.523  11.077
31598W        W96825   5.828  27.755  12.537
31599W        W96826   6.734   6.293  11.673
31600W        W96827  30.975   6.752   3.691
31601W        W96828  17.270  41.954   0.687
31602W        W96829  17.660   3.827  11.623
31603W        W96830  33.722  11.488   0.762
31604W        W96831  44.604  27.794   9.999
31605W        W96832  31.620  11.408   2.292
31606W        W96833   7.626  32.766  11.968
31607W        W96834  43.177  34.111   2.247
31608W        W96835  12.859  11.404  14.880
31609W        W96836  40.474  43.766  11.990
31610W        W96837  13.720   9.995  13.193
31611W        W96838  22.656  43.225  10.704
31612W        W96839   0.017  32.049  14.911
31613W        W96840  27.196  32.493  12.146
31614W        W96841  24.840  40.594   0.664
31615W        W96842  11.704  29.764  13.946
31616W        W96843  22.586  21.102  12.939
31617W        W96844  40.349   1.390   1.371
31618W        W96845  12.796   7.693  13.552
31619W        W96846  26.605   0.493   0.705
31620W        W96847  11.291  29.883   4.048
31621W        W96848  23.245  44.259  11.333
31622W        W96849  30.622  25.002  11.987
31623W        W96850  12.577   6.170   0.626
31624W        W96851  19.253  29.884   2.740
31625W        W96852  38.055  29.790   3.294
31626W        W96853  44.884  18.037  13.810
31627W        W96854  34.004  36.333   2.869
31628W        W96855  34.884  12.138   0.998
31629W        W96856   3.274  32.544  13.592
31630W        W96857  18.882  39.174  13.091
31631W        W96858  36.842   4.260   0.284
31632W        W96859  25.535  14.883  13.506
31633W        W96860  37.880   4.920   0.712
31634W        W96861  23.779  38.291   3.924
31635W        W96862  19.715  29.194   3.069
31636W        W96863  35.738  27.141  12.939
31637W        W96864  14.606  17.307  13.017
31638W        W96865  12.102   8.240   0.290
31639W        W96866  18.047   7.906   2.923
31640W        W96867  20.785  37.796  13.449
31641W        W96868  36.510  12.592   0.821
31642W        W96869   0.260  40.055   0.669
31643W        W96870   6.315  41.092  13.825
31644W        W96871  43.857   1.014  14.034
31645W        W96872  14.356  40.806  11.999
31646W        W96873  20.679  22.268   2.878
31647W        W96874   0.814   2.905   0.210
31648W        W96875  41.620  18.628  14.326
31649W        W96876   6.456   7.390  13.458
31650W        W96877  19.531  18.702  13.498
31651W        W96878   4.646  12.230   2.210
31652W        W96879  20.699  14.314  12.951
31653W        W96880  24.170   2.222  11.700
31654W        W96881  13.775   4.701   2.796
31655W        W96882  10.218  24.203   0.534
31656W        W96883   6.312  30.607  13.319
31657W        W96884  37.341  31.627   4.064
31658W        W96885  28.607  25.434   0.635
31659W        W96886   2.428  30.041   1.339
31660W        W96887   4.390   9.987   2.240
31661W        W96888   9.669  31.580   0.502
31662W        W96889  33.167  27.940   2.284
31663W        W96890   8.394  28.075   4.652
31664W        W96891  14.194   4.150   4.043
31665W        W96892  40.543  24.181   0.408
31666W        W96893  43.388  39.745  11.689
31667W        W96894  17.050  34.584  12.615
31668W        W96895  31.797   2.371  14.614
31669W        W96896  14.333  12.354   3.571
31670W        W96897  19.681  22.552   4.694
31671W        W96898  16.555  18.333   2.947
31672W        W96899  35.990  18.123   1.338
31673W        W96900  11.623  18.666   0.745
31674W        W96901   1.288  15.638  10.721
31675W        W96902  42.959   2.090   4.168
31676W        W96903   2.943  42.357   0.960
31677W        W96904  35.599  12.445  12.390
31678W        W96905  23.970  17.695   0.244
31679W        W96906  37.293  14.617  14.456
31680W        W96907  16.162  30.197   3.189
31681W        W96908  28.713  34.620  14.304
31682W        W96909  17.855  29.393  11.544
31683W        W96910  36.965   2.928   3.318
31684W        W96911  29.919  31.062  13.367
31685W        W96912  19.303   6.744   3.279
31686W        W96913  12.364  24.946  11.746
31687W        W96914   8.377  34.923  10.640
31688W        W96915  39.967  40.346   1.263
31689W        W96916  28.447  23.700   1.960
31690W        W96917  42.643  24.215   1.865
31691W        W96918  19.988  37.584  13.612
31692W        W96919   2.801  28.076   0.539
31693W        W96920  43.659  18.141   0.347
31694W        W96921  27.927  37.793  13.408
31695W        W96922  31.897  24.039  11.547
31696W        W96923  18.202  26.029   1.998
31697W        W96924  38.341   7.257   3.783
31698W        W96925  37.550  37.332   1.413
31699W        W96926  19.043  39.581   0.853
31700W        W96927  11.957  43.333   1.627
31701W        W96928  34.979  39.322  10.702
31702W        W96929   7.052  30.128  13.106
31703W        W96930   3.528  31.590   3.111
31704W        W96931  13.694  12.995   4.986
31705W        W96932  15.168   3.519  13.407
31706W        W96933  21.847  36.021  11.121
31707W        W96934  37.707  36.458  12.507
31708W        W96935  20.072  31.496   1.200
31709W        W96936   2.948  23.080  11.990
31710W        W96937  12.172  11.065   4.599
31711W        W96938  13.040  25.532   2.607
31712W        W96939   6.970   0.612  12.817
31713W        W96940   4.084   2.996   4.614
31714W        W96941   9.689  15.762   0.634
31715W        W96942  33.066  43.498  13.410
31716W        W96943   3.308  41.637   3.868
31717W        W96944  30.081  36.343   4.087
31718W        W96945  29.897   6.037  13.395
31719W        W96946   8.168  31.935   3.599
31720W        W96947   8.895  14.908  14.613
31721W        W96948  17.598  23.162  12.646
31722W        W96949  24.742  12.220   3.471
31723W        W96950   8.746  33.652  10.111
31724W        W96951  26.852  14.213   3.979
31725W        W96952  39.289  25.184  12.067
31726W        W96953  13.209  41.690   4.100
31727W        W96954  21.502  30.484  11.468
31728W        W96955  34.962  44.235  10.811
31729W        W96956  15.091  26.578   0.913
31730W        W96957  41.477  12.102  13.075
31731W        W96958  34.405  28.162   0.764
31732W        W96959  10.158   8.007   4.126
31733W        W96960   0.430  15.579   9.970
31734W        W96961   8.929  22.998   0.986
31735W        W96962  14.695  38.662   4.152
31736W        W96963  34.398  16.301   4.642
31737W        W96964  33.002  10.466  12.061
31738W        W96965  21.182  17.511  11.486
31739W        W96966  28.087   7.012  12.278
31740W        W96967  16.012  26.745  14.573
31741W        W96968  40.434  11.732   2.718
31742W        W96969  15.548  20.044  11.562
31743W        W96970  25.029   9.350  11.940
31744W        W96971  23.784  15.384  14.964
31745W        W96972   7.975  25.804   2.394
31746W        W96973  30.848  40.444   3.358
31747W        W96974   0.461  20.606  11.690
31748W        W96975  41.324  28.709   3.263
31749W        W96976  44.758  39.441   2.327
31750W        W96977  44.052  28.005   4.116
31751W        W96978  26.311  30.944  14.840
31752W        W96979  15.654   9.561  12.117
31753W        W96980   9.464   0.524   4.251
31754W        W96981  27.716  25.748   1.854
31755W        W96982  35.816  33.563  14.996
31756W        W96983  19.468  36.454   0.351
31757W        W96984  41.861   5.470   2.356
31758W        W96985  36.781  29.863   2.622
31759W        W96986  30.108  11.100   5.073
31760W        W96987  43.961   4.217   0.353
31761W        W96988  43.988  10.590   2.844
31762W        W96989   5.169   5.814  10.812
31763W        W96990  35.960   3.325   4.746
31764W        W96991  28.171  30.544  13.323
31765W        W96992  20.301  20.787   4.754
31766W        W96993   3.913   6.737   3.599
31767W        W96994   2.293  10.050  11.169
31768W        W96995  40.407  14.464  13.071
31769W        W96996  42.961   7.340  10.687
31770W        W96997  33.638  23.685   2.466
31771W        W96998  21.479  23.547  10.959
31772W        W96999  24.307  31.735   1.326
31773W        W97000  18.809   2.288  14.428
31774W        W97001   4.688   0.440  13.527
31775W        W97002  16.632  36.481   0.362
31776W        W97003  15.337  24.799   2.872
31777W        W97004  18.367   3.526  10.733
31778W        W97005   5.751  10.058  12.521
31779W        W97006   0.269  13.042  11.274
31780W        W97007  30.499  10.788   4.951
31781W        W97008  42.603  17.903  12.080
31782W        W97009   2.127   0.507  11.450
31783W        W97010  20.905  17.108   3.628
31784W        W97011  17.805  21.220   1.883
31785W        W97012  13.515  28.178   2.231
31786W        W97013  35.408  19.560   3.889
31787W        W97014   4.136   8.474   4.205
31788W        W97015  29.529  42.708   4.988
31789W        W97016  33.347  28.252   0.939
31790W        W97017  40.795  41.022   2.789
31791W        W97018  11.736  28.525  11.689
31792W        W97019   0.082  40.772  12.520
31793W        W97020   8.714   8.848   0.894
31794W        W97021  17.542  37.290   5.134
31795W        W97022   5.101  31.906  10.962
31796W        W97023  35.556  35.905  14.931
31797W        W97024  21.260  25.986   2.797
31798W        W97025   8.712   3.977   2.203
31799W        W97026  40.013  36.603   4.611
31800W        W97027  43.230  21.649   4.122
31801W        W97028   4.807   5.741  13.940
31802W        W97029  30.525   2.944  12.463
31803W        W97030  20.210  13.112  13.303
31804W        W97031   3.235  22.562  11.423
31805W        W97032  30.089  38.582  14.910
31806W        W97033  41.468  32.934   4.090
31807W        W97034  42.635   9.726   1.223
31808W        W97035  25.228  27.102  12.448
31809W        W97036  15.056  40.594  13.647
31810W        W97037  38.394  11.184  10.627
31811W        W97038  18.913   5.207  12.640
31812W        W97039  30.564  15.911   2.160
31813W        W97040  12.391   6.457   3.721
31814W        W97041  20.748  43.025   9.790
31815W        W97042  35.178  43.727  12.815
31816W        W97043  20.196  26.481  11.168
31817W        W97044  42.907  36.132  14.256
31818W        W97045   7.541  19.069   2.629
31819W        W97046   6.257   8.739  12.328
31820W        W97047  39.456  13.335  12.492
31821W        W97048  11.398   1.268   4.408
31822W        W97049   4.730  25.715  10.246
31823W        W97050  18.140  29.416  13.302
31824W        W97051  41.893  13.939   4.986
31825W        W97052  17.659  19.033  11.579
31826W        W97053  21.079  13.045   2.316
31827W        W97054  25.770   3.463   1.630
31828W        W97055   6.015  35.018  12.484
31829W        W97056  11.336  26.223   0.461
31830W        W97057  20.872   8.819  13.641
31831W        W97058  39.995   6.302  14.041
31832W        W97059  32.418  17.528  11.782
31833W        W97060  11.403   5.391  12.888
31834W        W97061   0.930  11.895   4.204
31835W        W97062  15.522   0.944  13.535
31836W        W97063  44.523  21.272   2.822
31837W        W97064  13.278   3.822  10.640
31838W        W97065  38.832  19.641  12.781
31839W        W97066  11.303  26.014  12.522
31840W        W97067  30.336  41.062   3.153
31841W        W97068  30.493  22.748   2.265
31842W        W97069  19.264  44.373   3.013
31843W        W97070  20.480   8.757   2.694
31844W        W97071   0.759   6.641   4.143
31845W        W97072  29.629  31.034  12.454
31846W        W97073   7.731  31.457   2.921
31847W        W97074  28.871   5.924  12.428
31848W        W97075  28.170   6.587   2.437
31849W        W97076  36.960  17.225  13.841
31850W        W97077  39.345   3.138  13.635
31851W        W97078  11.327   8.646  13.351
31852W        W97079  20.699  18.221   0.103
31853W        W97080  32.918  29.562  14.799
31854W        W97081  13.816  14.082   2.809
31855W        W97082  24.248   3.774   3.428
31856W        W97083  34.796  43.253  12.042
31857W        W97084  44.049  30.671  12.656
31858W        W97085  18.461  40.584  11.133
31859W        W97086  27.150  21.631   4.869
31860W        W97087  25.763  17.455  10.821
31861W        W97088  25.065  15.512   3.046
31862W        W97089  43.352   3.173  10.279
31863W        W97090  18.463   9.717  11.194
31864W        W97091   4.648  21.678   3.270
31865W        W97092   3.939  17.539  14.593
31866W        W97093  22.562  39.608   2.195
31867W        W97094  26.611  21.993  11.608
31868W        W97095   7.392   5.416  10.814
31869W        W97096  12.978  22.770   1.197
31870W        W97097   3.444   2.454  10.664
31871W        W97098  31.053  37.571  12.173
31872W        W97099   3.483  17.292  14.455
31873W        W97100   7.825  18.319  13.114
31874W        W97101  24.141  17.598   1.647
31875W        W97102  16.394  38.018   2.846
31876W        W97103  40.843  40.899   1.352
31877W        W97104  32.898  17.338  11.888
31878W        W97105  14.731  23.305   1.170
31879W        W97106  44.297  21.798  10.157
31880W        W97107  21.102  37.827  10.910
31881W        W97108  23.728  20.728   4.130
31882W        W97109  39.575   3.725   3.676
31883W        W97110  15.883  43.931  14.866
31884W        W97111  17.825   9.837  13.497
31885W        W97112  41.395   0.506   3.972
31886W        W97113  34.355   6.233  11.645
31887W        W97114  13.712  42.024   1.071
31888W        W97115  32.599  44.976  14.383
31889W        W97116  26.676   2.795   2.000
31890W        W97117  40.856  18.045  12.204
31891W        W97118  23.086   7.180  14.776
31892W        W97119  36.894  26.956  11.067
31893W        W97120  25.385  41.490  12.174
31894W        W97121  34.331  31.003   1.738
31895W        W97122  44.889   1.297  13.924
31896W        W97123  17.129   4.683  10.462
31897W        W97124  39.706  25.640  14.033
31898W        W97125   7.953  15.059   1.780
31899W        W97126  25.744  17.175  13.968
31900W        W97127  14.019   8.581  13.708
31901W        W97128  34.367  17.504   1.441
31902W        W97129  40.439  17.933   1.802
31903W        W97130  30.326  15.993  14.799
31904W        W97131  44.091  22.386  13.960
31905W        W97132  44.865  21.093  13.955
31906W        W97133  38.036  41.946  14.270
31907W        W97134  33.865   6.929  12.574
31908W        W97135   6.190  11.515  13.322
31909W        W97136  32.406  29.550  14.876
31910W        W97137  16.628  32.400  14.797
31911W        W97138  44.560   4.975  12.311
31912W        W97139   0.785  23.773  10.149
31913W        W97140  23.949   1.306   3.153
31914W        W97141   4.058  25.045   4.274
31915W        W97142  43.175  26.659   1.816
31916W        W97143  36.195   1.206   1.895
31917W        W97144  24.966   8.810  13.314
31918W        W97145   9.252  37.111   0.675
31919W        W97146   7.839  16.563  12.410
31920W        W97147  41.063  44.820   2.846
31921W        W97148  17.364  15.223   1.261
31922W        W97149  32.114  11.301   2.219
31923W        W97150  40.659   4.279   3.177
31924W        W97151  14.781   6.323  10.586
31925W        W97152  27.058  34.869   2.740
31926W        W97153  13.666   6.777   4.821
31927W        W97154   8.681  16.284   2.711
31928W        W97155  23.200  32.112   2.882
31929W        W97156  29.672  42.860  10.375
31930W        W97157  43.237  15.314  10.365
31931W        W97158  40.293  13.226  14.817
31932W        W97159   5.748   7.884  13.128
31933W        W97160  23.076  22.324  13.539
31934W        W97161   7.695  26.838   3.743
31935W        W97162  25.933   9.802  10.789
31936W        W97163  22.066  27.410   1.162
31937W        W97164  26.020   1.838  12.609
31938W        W97165  38.317   5.628   0.153
31939W        W97166  33.009   0.470  12.195
31940W        W97167  33.419  26.178  12.837
31941W        W97168  40.764  27.456   1.434
31942W        W97169   9.840  18.647  12.203
31943W        W97170  14.917  22.170  10.292
31944W        W97171  31.673  24.107  12.011
31945W        W97172  42.783  39.024  11.964
31946W        W97173  40.652  29.063   2.816
31947W        W97174  42.031  29.767   0.945
31948W        W97175  28.431  40.249   3.617
31949W        W97176  20.942  38.041  14.499
31950W        W97177  19.814  33.592  11.535
31951W        W97178  33.644   7.794   4.575
31952W        W97179  18.310  39.348  12.899
31953W        W97180  24.530  15.031  14.626
31954W        W97181  19.254  19.019  12.832
31955W        W97182   3.476  44.647  12.158
31956W        W97183  26.605  33.570  13.375
31957W        W97184   0.262  36.924   2.767
31958W        W97185   6.750   1.210   3.480
31959W        W97186  37.336  38.563   2.297
31960W        W97187   0.974  37.119  11.493
31961W        W97188   9.604  12.907  11.474
31962W        W97189  11.107  39.048   2.398
31963W        W97190  44.289  31.110   2.359
31964W        W97191  38.363   5.209  13.615
31965W        W97192  34.560  34.749  14.863
31966W        W97193  32.182   2.156   3.526
31967W        W97194  29.546  17.977  11.171
31968W        W97195  17.615  21.693  13.843
31969W        W97196   7.147   4.190  12.174
31970W        W97197   0.908  15.282   1.287
31971W        W97198  12.996   2.351  12.405
31972W        W97199  40.188  38.029  11.199
31973W        W97200  37.420   9.585  14.601
31974W        W97201  20.721   2.442  14.962
31975W        W97202  14.455  12.145   2.788
31976W        W97203  13.627  44.075   4.628
31977W        W97204  14.633  35.306  14.811
31978W        W97205  36.351   3.404   0.244
31979W        W97206  33.215  28.021   1.385
31980W        W97207  31.314  35.792  11.989
31981W        W97208  29.190   8.893  14.108
31982W        W97209  25.411  22.727   0.752
31983W        W97210  17.043  22.337  12.301
31984W        W97211  24.210  33.809  10.643
31985W        W97212  44.411   8.117   0.431
31986W        W97213  44.378   3.356   4.544
31987W        W97214  22.781  39.700   4.086
31988W        W97215  38.543  35.630  12.992
31989W        W97216  14.892  10.266  11.618
31990W        W97217   3.840  16.157  14.324
31991W        W97218  42.647  40.763   2.804
31992W        W97219  20.655   9.576   0.911
31993W        W97220  35.577  11.775   3.091
31994W        W97221   7.462  12.573   4.102
31995W        W97222  14.146  43.931   1.418
31996W        W97223  36.869   2.732  10.782
31997W        W97224   9.199  13.779  10.762
31998W        W97225  44.285  19.053   3.688
31999W        W97226  11.280  23.765   3.890
32000W        W97227  44.047  31.043   0.182
32001W        W97228  36.726   3.856   2.625
32002W        W97229   3.678  24.515   1.459
32003W        W97230   7.406  39.267   4.528
32004W        W97231  16.437  20.978  14.408
32005W        W97232  24.072  23.007   2.269
32006W        W97233  33.426  28.929  14.817
32007W        W97234  28.025  28.737   0.788
32008W        W97235   3.263  36.394   2.381
32009W        W97236  37.369   3.771   3.324
32010W        W97237  21.067  37.151   3.654
32011W        W97238  32.629  13.261   3.167
32012W        W97239   9.215   4.390   0.351
32013W        W97240  28.120  39.130  13.415
32014W        W97241  41.956   6.839   0.257
32015W        W97242  24.205  27.182  11.543
32016W        W97243   5.830  30.010   3.221
32017W        W97244  30.743  13.780  14.212
32018W        W97245  42.981  38.758  10.773
32019W        W97246  22.753  26.681   2.291
32020W        W97247  11.708   6.747   3.705
32021W        W97248  18.341  10.219  12.021
32022W        W97249  31.545   0.819   4.663
32023W        W97250  38.550   5.455  14.648
32024W        W97251   4.257  34.440  12.953
32025W        W97252  31.437  29.381  14.960
32026W        W97253  22.125   7.109   3.475
32027W        W97254  12.920  32.908  11.577
32028W        W97255  19.474  10.204   1.335
32029W        W97256   0.313  12.420  14.619
32030W        W97257  26.512   1.352   0.298
32031W        W97258  36.037   6.755  11.986
32032W        W97259   1.913  42.801  12.081
32033W        W97260   5.513  13.041  12.859
32034W        W97261   1.050  31.695   1.840
32035W        W97262  32.489  30.445   0.222
32036W        W97263   9.918  18.836   2.631
32037W        W97264  42.819  37.118   1.786
32038W        W97265  42.859   0.335  11.469
32039W        W97266  41.313  28.409   1.294
32040W        W97267  37.915  22.648  12.847
32041W        W97268  32.827  42.339   2.429
32042W        W97269  16.471  30.147   0.472
32043W        W97270  35.083  21.754   3.659
32044W        W97271  33.386   3.377  13.044
32045W        W97272  26.868   8.768   1.745
32046W        W97273   8.994  36.767  10.956
32047W        W97274  39.896  28.030   2.236
32048W        W97275   7.391  31.576   0.718
32049W        W97276  41.513  42.163   4.150
32050W        W97277  39.124  37.110  10.933
32051W        W97278  41.323  40.861  14.244
32052W        W97279   5.523  31.905   2.366
32053W        W97280  18.073   5.322   0.721
32054W        W97281   9.472  11.832   4.585
32055W        W97282  42.472   6.758   0.262
32056W        W97283  43.883  23.175   4.168
32057W        W97284   7.720  33.409  12.492
32058W        W97285  16.162  44.608   2.713
32059W        W97286   0.847  10.735  14.772
32060W        W97287  26.184  25.163  13.993
32061W        W97288  25.360  25.480   1.030
32062W        W97289  10.625  31.021  10.930
32063W        W97290  11.050  44.862   1.306
32064W        W97291   2.234  36.059  12.192
32065W        W97292  23.225   3.483   0.832
32066W        W97293   8.934  17.021   2.200
32067W        W97294  17.151  14.831   2.864
32068W        W97295  20.151  40.760  13.498
32069W        W97296   0.791  22.234  14.006
32070W        W97297  37.970  43.014   4.162
32071W        W97298  44.404  30.060   3.607
32072W        W97299  37.052  36.784   1.004
32073W        W97300  38.802  31.368   4.143
32074W        W97301  25.436  41.255  14.062
32075W        W97302  42.781  37.036   0.867
32076W        W97303  21.179   8.793   3.665
32077W        W97304  20.802  16.399   4.079
32078W        W97305  10.831  39.100  11.068
32079W        W97306  28.696   2.770  11.081
32080W        W97307   8.860  17.828  14.044
32081W        W97308  15.582  38.589   2.284
32082W        W97309  31.498  15.524   2.707
32083W        W97310  12.834   1.781   1.887
32084W        W97311  10.123  42.249  11.238
32085W        W97312   7.768   3.559  10.714
32086W        W97313   7.045   0.894  12.383
32087W        W97314   3.027  18.018  12.717
32088W        W97315  27.501   0.038   4.776
32089W        W97316  20.342   8.875  10.514
32090W        W97317  26.916  33.402  12.475
32091W        W97318  11.262   9.877   4.124
32092W        W97319  32.031  26.053   3.341
32093W        W97320  15.233  30.451  12.822
32094W        W97321  18.694  16.135  13.393
32095W        W97322  16.696  12.226   2.140
32096W        W97323  21.444   7.768  12.414
32097W        W97324  39.904   7.532  13.010
32098W        W97325   6.823  37.073  13.637
32099W        W97326  24.594  22.381   2.752
32100W        W97327   0.733   6.274  14.768
32101W        W97328  12.152  33.880   3.190
32102W        W97329   7.611  18.011  14.448
32103W        W97330  34.224  33.998   0.267
32104W        W97331  36.135  33.691   1.434
32105W        W97332  43.527  24.942  11.177
32106W        W97333  31.476   4.928   0.397
32107W        W97334   6.272   3.896   1.810
32108W        W97335  38.529  18.267  14.306
32109W        W97336   2.902   2.356   4.880
32110W        W97337   5.246  35.303   1.759
32111W        W97338  38.495  25.489  11.590
32112W        W97339  21.256   0.478   2.642
32113W        W97340   4.433  17.668   2.928
32114W        W97341  39.328   9.734   2.261
32115W        W97342  19.240  40.997   3.123
32116W        W97343  17.285  44.335   1.861
32117W        W97344  26.658  29.615   0.567
32118W        W97345  31.062  31.909   1.146
32119W        W97346  23.075  43.467   3.765
32120W        W97347  20.291  10.815  11.574
32121W        W97348   6.300  31.863   4.544
32122W        W97349  43.513   7.420   1.790
32123W        W97350  31.925  40.257   2.254
32124W        W97351   8.399  22.116   1.860
32125W        W97352  40.399  30.018  10.379
32126W        W97353   4.203  34.739  13.383
32127W        W97354  17.318  10.352  12.045
32128W        W97355  39.099  30.972   2.656
32129W        W97356  42.916  13.871  13.396
32130W        W97357   3.329  31.755   4.909
32131W        W97358  35.759  40.767  12.410
32132W        W97359  42.717   5.242   1.758
32133W        W97360  17.009  43.322   2.737
32134W        W97361  13.704  10.889  13.803
32135W        W97362   3.636  12.802   3.844
32136W        W97363  21.650  33.987   3.691
32137W        W97364   2.406   4.476   3.220
32138W        W97365  23.984  32.864   4.291
32139W        W97366   7.734  40.308  12.924
32140W        W97367  18.232  37.357   4.048
32141W        W97368  20.310   3.132   1.056
32142W        W97369  27.756  18.600   3.120
32143W        W97370   0.950  15.185  13.068
32144W        W97371  31.588  12.024   4.481
32145W        W97372  34.909  14.074  12.157
32146W        W97373  42.402   9.799   0.766
32147W        W97374  20.510  23.396  14.855
32148W        W97375   7.796  23.716   4.646
32149W        W97376  40.459  39.315  13.470
32150W        W97377  29.582  44.022   0.907
32151W        W97378  38.817  26.622   4.759
32152W        W97379  30.582  17.076  12.287
32153W        W97380   7.212  37.834  14.424
32154W        W97381  44.488  11.277  13.043
32155W        W97382  32.246  27.633  13.504
32156W        W97383   0.807  25.170   0.052
32157W        W97384  12.407  35.461   0.992
32158W        W97385   0.766  28.874   2.876
32159W        W97386   5.661   8.921  10.606
32160W        W97387   5.919   7.780   1.800
32161W        W97388  27.530  10.146   4.590
32162W        W97389   5.387  44.034  11.212
32163W        W97390   2.199  24.961   3.627
32164W        W97391  39.834   0.206  11.613
32165W        W97392   3.700  42.227  10.961
32166W        W97393   4.951  14.897  13.367
32167W        W97394  41.989  20.621   0.631
32168W        W97395   2.935  20.989   3.190
32169W        W97396  14.864  29.883   3.744
32170W        W97397   2.406  25.425   2.264
32171W        W97398  12.624  25.232   1.903
32172W        W97399  13.217   2.042   0.937
32173W        W97400  32.558  26.752   2.263
32174W        W97401  23.737   1.267  13.788
32175W        W97402   9.054  20.438   1.792
32176W        W97403  24.317  26.471  14.439
32177W        W97404  11.297  41.061  13.972
32178W        W97405  15.344   4.608  11.934
32179W        W97406   2.762  38.067  13.761
32180W        W97407  43.311   1.709   4.106
32181W        W97408  40.368   2.737   3.187
32182W        W97409  44.900  35.128   3.720
32183W        W97410  19.055  36.951   0.782
32184W        W97411  44.072  32.152  11.078
32185W        W97412  42.370  12.095  11.594
32186W        W97413  43.952   2.732  14.410
32187W        W97414  19.204  32.138   1.193
32188W        W97415  21.685  15.194  12.626
32189W        W97416  35.762   9.812   3.891
32190W        W97417  27.993   4.257   0.456
32191W        W97418  21.236  19.891  11.931
32192W        W97419   5.427  42.548   4.113
32193W        W97420  38.725  39.597   2.313
32194W        W97421   0.977  36.150   3.200
32195W        W97422   8.950  21.185   3.224
32196W        W97423   0.892  42.197   2.635
32197W        W97424  19.433  33.499   1.541
32198W        W97425   9.311  38.881   0.255
32199W        W97426  43.058   9.109  14.800
32200W        W97427  35.376  10.407   3.130
32201W        W97428  37.415  14.635   0.926
32202W        W97429   1.161  31.029   0.781
32203W        W97430   8.106  35.344   2.811
32204W        W97431  23.898   2.630   0.371
32205W        W97432  32.445   2.064  11.562
32206W        W97433  36.872  39.941   1.808
32207W        W97434   5.407  31.184  12.173
32208W        W97435  15.544  15.107   0.362
32209W        W97436   8.660  43.441  14.891
32210W        W97437   1.489  41.713  13.555
32211W        W97438  16.623  22.103  11.271
32212W        W97439   8.339  22.727  14.024
32213W        W97440  16.330  18.713  13.883
32214W        W97441  20.753  28.970  13.940
32215W        W97442  26.053  23.678  13.101
32216W        W97443   0.932   3.852  10.920
32217W        W97444  44.124   5.719  13.092
32218W        W97445  29.808  21.972  14.592
32219W        W97446  17.638  11.135   1.204
32220W        W97447  33.049  13.157  13.359
32221W        W97448  18.736  26.156  14.923
32222W        W97449  11.312  25.450   4.158
32223W        W97450  41.576  10.156  11.969
32224W        W97451   5.245  41.986  11.559
32225W        W97452  28.156  24.727  14.055
32226W        W97453  28.144  15.133   0.283
32227W        W97454  12.306  26.034   2.765
32228W        W97455   2.989   2.221  12.650
32229W        W97456  34.338  17.936  10.844
32230W        W97457  36.193  23.450  14.942
32231W        W97458  40.825  25.572  10.835
32232W        W97459   4.354  19.801  14.438
32233W        W97460  19.566  35.866  13.559
32234W        W97461  39.930   2.429  13.447
32235W        W97462  32.648  19.281   2.396
32236W        W97463  10.370  28.351  12.536
32237W        W97464  12.892   1.365   0.499
32238W        W97465  43.693  42.092   0.814
32239W        W97466  40.996   4.637  12.459
32240W        W97467  21.536  29.272   2.900
32241W        W97468   9.917  14.816  14.484
32242W        W97469  20.918  16.762  14.983
32243W        W97470  28.271  33.172   3.296
32244W        W97471  44.608   0.020  12.492
32245W        W97472  20.360   9.697  13.390
32246W        W97473  14.322   1.775   4.103
32247W        W97474   6.220  28.498  11.053
32248W        W97475  22.764  40.045   1.879
32249W        W97476   8.954  37.536  11.084
32250W        W97477  32.102  38.639   3.566
32251W        W97478  42.352  29.281  12.571
32252W        W97479  29.110  42.957  13.043
32253W        W97480  36.506  19.233  12.616
32254W        W97481  21.639   2.593   0.960
32255W        W97482   9.983  10.849  12.040
32256W        W97483   8.430   4.686   4.549
32257W        W97484  13.603  14.856  14.597
32258W        W97485  38.092  36.599   4.324
32259W        W97486  21.034   0.871  14.835
32260W        W97487  25.126  11.945  13.063
32261W        W97488   0.914  11.012  13.838
32262W        W97489   7.726  28.803  14.273
32263W        W97490  24.160  14.499  13.804
32264W        W97491  10.797  19.581   1.849
32265W        W97492  29.714   8.191  12.052
32266W        W97493  21.361   0.705  13.328
32267W        W97494  17.638  13.340  14.585
32268W        W97495  30.079  44.516   2.748
32269W        W97496   9.777  29.912   3.660
32270W        W97497   1.481   8.885   4.658
32271W        W97498  16.873  25.384   0.680
32272W        W97499  36.656  22.783   4.645
32273W        W97500   9.270   5.227   3.333
32274W        W97501  33.171  19.729   4.641
32275W        W97502  17.637  34.290  14.266
32276W        W97503   7.849  26.658  13.807
32277W        W97504   3.281   3.903   1.262
32278W        W97505  17.456  42.002   5.430
32279W        W97506  17.742   4.403   3.092
32280W        W97507   2.993  40.825   4.168
32281W        W97508   9.924   1.433  12.041
32282W        W97509  18.303  21.615   1.211
32283W        W97510  39.516  14.610  11.319
32284W        W97511  40.898  38.277   1.852
32285W        W97512  39.797  25.863  12.626
32286W        W97513  17.075  15.200   0.822
32287W        W97514   5.966   3.651  12.560
32288W        W97515   8.199  31.170   0.479
32289W        W97516  26.633  18.046  14.452
32290W        W97517   8.904  33.644   0.141
32291W        W97518  29.567  19.111   3.219
32292W        W97519  23.965  35.036  12.982
32293W        W97520  42.369  26.504  14.903
32294W        W97521  33.112  21.096   4.107
32295W        W97522  28.186  24.600   3.651
32296W        W97523  34.726  44.487  12.581
32297W        W97524  29.832  36.843   2.704
32298W        W97525   6.867  27.163   4.564
32299W        W97526  36.599   8.783   2.216
32300W        W97527  26.587  29.711  12.076
32301W        W97528  20.343  22.350   0.502
32302W        W97529  17.795  35.011   2.259
32303W        W97530   5.576  19.562  14.077
32304W        W97531  36.949  22.460   4.911
32305W        W97532  37.522  39.370  10.748
32306W        W97533  22.045  13.172   2.116
32307W        W97534  39.073   8.219   5.307
32308W        W97535  19.240   9.196   1.393
32309W        W97536  21.431  29.975   1.325
32310W        W97537  28.965  30.415   0.162
32311W        W97538  13.809  10.624   3.602
32312W        W97539   1.005  13.696  14.950
32313W        W97540  14.389  43.496  14.824
32314W        W97541  26.444  35.035  14.561
32315W        W97542   6.640   2.808  12.392
32316W        W97543  28.468  20.344  11.187
32317W        W97544  33.827  33.414   4.359
32318W        W97545  18.603  19.978  13.526
32319W        W97546   9.253   6.367   1.508
32320W        W97547  23.632  13.512   1.267
32321W        W97548  14.792  36.320  12.352
32322W        W97549  43.089  21.042  11.210
32323W        W97550  20.132  44.533  14.810
32324W        W97551  43.686  30.895  14.716
32325W        W97552  14.442  27.477  11.986
32326W        W97553  41.841  32.398  12.723
32327W        W97554  23.475  13.642   2.585
32328W        W97555  36.537   0.970   2.758
32329W        W97556  33.136  27.154  12.537
32330W        W97557  13.069  13.653   1.784
32331W        W97558   6.375  26.505  12.866
32332W        W97559  24.744  42.877   0.797
32333W        W97560  33.104  26.702   3.558
32334W        W97561  33.587  31.368  13.286
32335W        W97562  16.006   8.797   4.234
32336W        W97563   8.229  39.585   0.310
32337W        W97564  38.390  28.196  12.666
32338W        W97565  14.183  18.773   1.298
32339W        W97566  41.521   3.947  13.018
32340W        W97567  25.036  44.713   4.227
32341W        W97568   9.551  34.501   4.056
32342W        W97569  15.330  39.322  14.025
32343W        W97570  44.627  36.835   1.939
32344W        W97571  19.624   1.199   4.241
32345W        W97572   3.234  13.831   2.277
32346W        W97573  20.141  43.773   3.098
32347W        W97574  38.094  25.542   2.301
32348W        W97575  39.908  33.919   0.543
32349W        W97576   4.875  13.761  12.411
32350W        W97577  34.375   1.767  11.963
32351W        W97578  12.331  32.663  11.646
32352W        W97579  34.689  19.116   0.843
32353W        W97580  37.482  41.526   4.655
32354W        W97581  25.221  13.104  14.777
32355W        W97582  19.445  25.120   1.670
32356W        W97583  15.889  39.825  11.064
32357W        W97584  16.298   0.893  14.530
32358W        W97585   6.442  34.096   1.283
32359W        W97586   4.788  18.959   5.143
32360W        W97587  29.565  31.455  11.527
32361W        W97588  21.498  44.807  12.572
32362W        W97589  25.726  11.430   3.373
32363W        W97590  14.905  37.997   1.195
32364W        W97591  12.548  27.480   1.891
32365W        W97592   9.681  16.800   0.778
32366W        W97593  25.595   2.865  10.997
32367W        W97594  36.428  10.378   2.274
32368W        W97595  39.296  33.491  13.525
32369W        W97596   9.414  20.698   0.785
32370W        W97597  37.118   0.295  11.181
32371W        W97598  30.958  38.560  11.787
32372W        W97599   2.902  33.479  11.605
32373W        W97600  38.271  26.619   0.133
32374W        W97601  18.621  36.783   0.551
32375W        W97602  13.561   8.277   4.540
32376W        W97603  25.647   9.870   3.373
32377W        W97604  39.468  38.488  11.659
32378W        W97605   1.564  40.052   1.729
32379W        W97606  22.184  20.791  13.537
32380W        W97607  17.703   7.891  14.407
32381W        W97608   1.876  40.871  12.560
32382W        W97609  44.832  30.120  14.805
32383W        W97610  15.639  44.328   4.672
32384W        W97611  12.101  19.786   1.320
32385W        W97612  37.050  25.226  12.533
32386W        W97613  20.964  27.521   1.270
32387W        W97614   1.270  44.422  13.132
32388W        W97615  43.910  18.650   3.037
32389W        W97616  21.644  26.706  12.788
32390W        W97617  12.683  11.551  13.354
32391W        W97618   0.860  38.795   0.240
32392W        W97619  34.424  40.223   4.610
32393W        W97620  21.955  18.769   4.151
32394W        W97621  44.254  18.717   1.749
32395W        W97622  29.547  23.971   4.919
32396W        W97623  11.473  37.736   5.124
32397W        W97624  19.454  23.687  12.099
32398W        W97625  34.447  42.876  13.123
32399W        W97626   2.784  24.330   0.367
32400W        W97627  19.693  39.052   2.257
32401W        W97628  21.543  36.066  12.081
32402W        W97629   9.641  42.776  11.681
32403W        W97630   2.190   8.680   2.440
32404W        W97631  39.099  27.114   3.924
32405W        W97632   7.803  38.269  10.796
32406W        W97633  29.054  38.390   0.380
32407W        W97634  10.676  22.281  10.490
32408W        W97635  24.758  27.324  14.809
32409W        W97636  38.131  24.213  11.141
32410W        W97637  44.768  28.034  14.371
32411W        W97638  43.575  28.595   2.452
32412W        W97639  35.850   6.360   2.312
32413W        W97640  12.123   5.647  12.173
32414W        W97641  18.572  19.879   3.119
32415W        W97642  27.212  14.140  13.381
32416W        W97643   5.170  23.175   0.560
32417W        W97644  35.945  22.226  13.616
32418W        W97645  33.985  32.754  13.249
32419W        W97646  29.467  10.685   3.099
32420W        W97647   1.319  13.291  13.578
32421W        W97648  41.793   9.182  12.622
32422W        W97649  14.128  38.990  13.904
32423W        W97650   1.862  18.443   3.404
32424W        W97651  27.022  31.216  13.566
32425W        W97652  43.834   4.614   3.766
32426W        W97653  24.181   4.455   1.134
32427W        W97654  36.402  17.584   1.919
32428W        W97655  21.199  22.504   4.455
32429W        W97656  23.472  13.620  13.505
32430W        W97657  36.334  13.590   1.384
32431W        W97658  38.185   3.539  10.635
32432W        W97659  40.790  37.624   1.013
32433W        W97660  33.778   0.036  11.955
32434W        W97661   3.870  36.822  12.350
32435W        W97662  26.053  43.823   0.453
32436W        W97663  42.256  28.887  12.888
32437W        W97664  39.020  44.380   4.920
32438W        W97665  19.347  20.308   1.899
32439W        W97666  14.769  32.424   3.198
32440W        W97667  31.213  26.539  13.542
32441W        W97668   1.874   9.701  11.918
32442W        W97669   4.388  13.901  13.468
32443W        W97670   2.979  32.541   2.635
32444W        W97671  28.012  41.402  14.402
32445W        W97672  28.352  25.685  11.179
32446W        W97673  18.583  17.348  13.987
32447W        W97674  22.218  11.282   1.978
32448W        W97675  41.048  29.520  13.855
32449W        W97676  40.479  32.140   2.843
32450W        W97677  21.877  40.028  12.582
32451W        W97678  41.798  11.950  11.019
32452W        W97679   4.022  36.994  13.614
32453W        W97680  40.721  36.648  10.765
32454W        W97681  27.750  31.626  12.537
32455W        W97682  41.400  12.813   3.334
32456W        W97683  14.035  43.481   5.147
32457W        W97684  11.931  27.633   3.292
32458W        W97685  12.819  40.297   4.505
32459W        W97686  26.004  18.730   2.317
32460W        W97687  25.075   2.508  11.903
32461W        W97688  11.305  13.344   2.226
32462W        W97689  23.573  40.185  14.489
32463W        W97690  24.214  16.250   4.433
32464W        W97691  23.636  14.847  11.936
32465W        W97692  34.455  20.853   2.641
32466W        W97693  13.116  39.093   2.230
32467W        W97694   3.274  12.403   3.879
32468W        W97695  15.117  32.362  12.014
32469W        W97696  18.157  38.649   0.251
32470W        W97697   0.961  29.705   0.888
32471W        W97698  26.899  23.589   0.716
32472W        W97699  22.023   2.197  11.185
32473W        W97700  44.083  26.219  11.278
32474W        W97701  16.160  27.005  12.007
32475W        W97702  23.785  23.969  12.918
32476W        W97703  33.342   7.654   4.154
32477W        W97704  39.271  36.569  10.715
32478W        W97705  36.379  41.791  10.851
32479W        W97706  11.715  24.546   3.541
32480W        W97707  39.477  18.690   4.100
32481W        W97708  23.084  10.939  13.973
32482W        W97709  16.868   7.090   3.681
32483W        W97710  36.816  13.855   2.181
32484W        W97711   8.816  11.229   4.012
32485W        W97712   8.966  40.053   0.296
32486W        W97713  33.904  42.579   0.239
32487W        W97714  24.247  20.048   3.620
32488W        W97715  15.765   2.486  12.721
32489W        W97716   1.522   8.436  11.552
32490W        W97717   5.161  14.132   4.777
32491W        W97718  40.040  34.668   0.734
32492W        W97719  12.312   7.234   4.187
32493W        W97720   0.813   3.950   0.506
32494W        W97721  29.396   5.937  12.449
32495W        W97722  17.015   1.021  10.369
32496W        W97723  18.697  30.519   1.125
32497W        W97724   6.637  40.281  11.883
32498W        W97725  18.797  29.550   2.652
32499W        W97726  19.840  15.667   3.264
32500W        W97727  32.327  37.871  13.987
32501W        W97728   3.317  28.438  10.311
32502W        W97729  27.526  33.242  14.788
32503W        W97730  17.764  18.813  13.746
32504W        W97731  27.927  17.788  14.107
32505W        W97732  27.749  30.111   4.143
32506W        W97733  39.425  39.540  11.633
32507W        W97734   9.828  29.263  13.308
32508W        W97735  39.839  10.871   2.650
32509W        W97736  32.993   8.669  12.317
32510W        W97737  37.018   6.133   2.416
32511W        W97738  36.068   8.322  12.980
32512W        W97739  34.410  34.403  13.575
32513W        W97740   0.911  13.410  11.920
32514W        W97741  30.001  24.103  10.321
32515W        W97742  16.274   0.571   2.796
32516W        W97743  15.081  30.880  14.333
32517W        W97744  39.768  12.834   2.673
32518W        W97745  43.835  36.637  14.425
32519W        W97746  12.379  42.276  13.444
32520W        W97747  12.789  36.798  11.150
32521W        W97748  10.294  36.599   0.878
32522W        W97749  31.095  33.358  12.657
32523W        W97750   7.284  42.660  11.107
32524W        W97751  21.748   4.303  13.952
32525W        W97752  44.364  32.530   2.688
32526W        W97753  22.998   2.529  12.011
32527W        W97754  34.118   8.313   3.850
32528W        W97755  44.967  44.546   3.339
32529W        W97756  37.332  21.049   1.750
32530W        W97757  18.546  32.972  10.671
32531W        W97758  12.335  12.114  14.544
32532W        W97759  13.789  11.301   2.691
32533W        W97760  21.351  34.046   1.375
32534W        W97761  16.072   0.738  11.250
32535W        W97762   3.474   4.389  12.899
32536W        W97763  30.939  39.311   2.810
32537W        W97764  37.322  16.387  11.491
32538W        W97765  21.106  10.283  10.545
32539W        W97766   5.989  33.084  14.110
32540W        W97767  43.400   5.133   5.433
32541W        W97768  24.751  20.585   0.366
32542W        W97769  12.436  36.482   4.245
32543W        W97770   3.828  12.662  13.342
32544W        W97771  16.926  42.529  13.819
32545W        W97772  15.518  42.888  14.500
32546W        W97773  44.519  42.595   0.617
32547W        W97774  30.932  38.521  12.312
32548W        W97775   1.286   8.194  13.346
32549W        W97776  19.221  18.954   3.575
32550W        W97777  35.482  36.625  11.184
32551W        W97778  11.711  40.768  12.918
32552W        W97779   1.691  20.692  11.192
32553W        W97780  30.550  26.049   2.875
32554W        W97781  29.200  24.091  12.509
32555W        W97782  37.087  16.764   1.709
32556W        W97783  13.633  41.507   3.703
32557W        W97784   2.956   0.425  14.347
32558W        W97785  14.441  18.750   1.734
32559W        W97786  23.299  30.964  11.147
32560W        W97787  32.164  29.613   1.703
32561W        W97788   4.619  22.515  10.590
32562W        W97789   5.615  43.303   0.490
32563W        W97790  26.124   4.815  12.322
32564W        W97791  42.594  38.276  14.882
32565W        W97792  16.850  31.697  13.041
32566W        W97793  31.822  16.265  11.118
32567W        W97794   6.242  22.555  11.973
32568W        W97795  30.650  28.714  12.623
32569W        W97796  41.881  29.620  11.113
32570W        W97797   5.077   8.094   4.161
32571W        W97798  33.555  33.988   4.947
32572W        W97799  44.306  18.363   4.058
32573W        W97800  28.942  29.996  14.833
32574W        W97801  21.452  13.161   3.118
32575W        W97802  21.311  15.020   2.346
32576W        W97803  23.259  42.456   2.890
32577W        W97804  34.812  35.868  12.831
32578W        W97805  24.786  30.626  14.961
32579W        W97806  27.986  33.397  13.180
32580W        W97807  41.814  12.753  13.705
32581W        W97808   3.564  26.532   2.304
32582W        W97809  42.492  23.166   2.171
32583W        W97810  13.805  37.347   4.537
32584W        W97811  42.280  12.112   3.306
32585W        W97812   3.936  14.325   2.177
32586W        W97813  25.823   4.390   0.603
32587W        W97814  18.375  20.109  11.829
32588W        W97815   7.914  39.136  12.014
32589W        W97816  17.609  39.597   2.894
32590W        W97817  18.276  29.867  12.547
32591W        W97818  22.028  20.242   3.181
32592W        W97819  39.027  33.042  11.088
32593W        W97820  40.540  23.031   3.024
32594W        W97821   4.501  21.741   0.519
32595W        W97822  27.551  28.637  11.958
32596W        W97823  34.617  21.306  12.828
32597W        W97824  10.957   0.298  11.057
32598W        W97825  33.333  43.595  12.109
32599W        W97826  25.025  22.208   3.712
32600W        W97827  13.417  26.703  10.690
32601W        W97828  28.196  44.372  12.972
32602W        W97829  17.393   5.912   4.060
32603W        W97830  15.456  20.480   2.810
32604W        W97831  21.691  23.527   2.116
32605W        W97832  31.060  10.817  12.116
32606W        W97833  19.711  10.438   4.135
32607W        W97834  32.283  23.086  11.554
32608W        W97835  35.604  41.368  11.530
32609W        W97836  22.580  24.945  13.711
32610W        W97837  30.737  33.165   3.135
32611W        W97838  32.042   9.358  12.899
32612W        W97839  25.894  11.139  12.044
32613W        W97840  19.027   5.777  13.839
32614W        W97841  34.461  39.360  14.369
32615W        W97842  30.224  30.280   0.331
32616W        W97843  30.451  31.504  14.967
32617W        W97844   8.825   6.189  13.996
32618W        W97845  33.794  42.217   4.577
32619W        W97846  15.215  17.988  12.979
32620W        W97847   0.310  32.120  10.608
32621W        W97848  19.938   1.955   1.740
32622W        W97849  30.158  25.188  12.687
32623W        W97850  15.428  35.804   1.377
32624W        W97851  36.846  43.446  13.007
32625W        W97852  39.747   0.334  13.579
32626W        W97853  16.475   5.914  11.463
32627W        W97854  35.636  42.052   2.164
32628W        W97855   4.226  32.356  12.463
32629W        W97856  27.083  11.706   3.621
32630W        W97857  18.683  22.328   2.200
32631W        W97858  13.228  17.642   4.087
32632W        W97859  13.360   1.018   1.787
32633W        W97860  24.175  25.651   3.391
32634W        W97861  44.976   5.183   4.821
32635W        W97862  22.692  18.498   3.252
32636W        W97863  24.644  42.390  13.399
32637W        W97864  30.616  13.395  11.657
32638W        W97865  21.834  12.031  13.496
32639W        W97866   0.526   9.063   2.311
32640W        W97867  16.026   1.758   5.091
32641W        W97868  20.074   7.361   3.666
32642W        W97869  22.013  19.445  14.945
32643W        W97870  38.410  16.306  12.403
32644W        W97871  27.648  27.647   1.718
32645W        W97872   9.411  15.480   0.258
32646W        W97873  31.255   2.498   5.035
32647W        W97874  23.455   8.853   2.847
32648W        W97875  27.731  16.424  14.851
32649W        W97876   6.091  12.618  13.890
32650W        W97877  24.495  14.741   1.692
32651W        W97878  11.757   4.283   3.718
32652W        W97879  43.855  35.104   4.406
32653W        W97880   8.121   1.348   1.339
32654W        W97881  42.290  11.257  14.523
32655W        W97882   8.875   2.281  11.962
32656W        W97883  11.759  22.196  14.922
32657W        W97884  30.629   8.694  12.553
32658W        W97885  27.941  27.063  14.955
32659W        W97886   6.904   6.756   0.982
32660W        W97887   7.130  24.113   1.771
32661W        W97888  22.702  30.991   1.685
32662W        W97889  31.562   5.197  11.310
32663W        W97890  23.208  26.808  14.404
32664W        W97891  16.647  22.634  10.497
32665W        W97892  20.768   9.644  12.482
32666W        W97893  41.460  42.175   0.451
32667W        W97894   5.280   2.909   2.211
32668W        W97895  14.246  21.150  11.963
32669W        W97896   5.202  28.049  11.120
32670W        W97897   3.908  21.611   4.638
32671W        W97898  35.826  13.314  13.338
32672W        W97899  42.445  34.861   3.824
32673W        W97900  22.754  39.648  12.536
32674W        W97901  17.819  10.220   0.893
32675W        W97902   8.464  21.156  12.518
32676W        W97903  18.382   9.024  14.828
32677W        W97904  18.220  24.077   1.566
32678W        W97905  35.363  30.492  13.543
32679W        W97906  42.633  13.148  13.955
32680W        W97907  42.798  29.669  13.274
32681W        W97908  14.167  18.108  12.077
32682W        W97909  17.826  13.995  13.791
32683W        W97910  40.354  25.051   0.397
32684W        W97911  31.455  20.503   4.397
32685W        W97912  38.107  29.542  11.349
32686W        W97913  43.325   2.357   2.261
32687W        W97914  34.094  15.960   1.181
32688W        W97915   4.606  10.271   4.616
32689W        W97916  17.456  19.392   4.515
32690W        W97917  33.320  11.602  12.054
32691W        W97918   8.711  35.356   1.366
32692W        W97919   0.856   1.857  11.084
32693W        W97920  10.591   7.230   0.541
32694W        W97921  23.051  27.028  11.182
32695W        W97922  34.431   7.733   2.119
32696W        W97923   2.943   4.928   4.023
32697W        W97924   8.290  32.329  13.962
32698W        W97925   3.686  19.652   2.574
32699W        W97926  27.357  25.451   3.287
32700W        W97927  22.236  16.666   1.783
32701W        W97928  26.086  10.279   1.793
32702W        W97929  10.713  14.329   2.381
32703W        W97930  23.920  20.651   2.407
32704W        W97931   2.230  35.717  10.461
32705W        W97932  28.006  17.793  11.617
32706W        W97933   0.063  39.589  13.963
32707W        W97934  21.604  39.242  12.830
32708W        W97935   8.052  15.740  12.812
32709W        W97936  16.897  13.539  13.868
32710W        W97937   6.391  21.888   1.386
32711W        W97938  19.920  35.533  14.271
32712W        W97939   9.100  40.658   0.815
32713W        W97940  11.200  22.753   2.214
32714W        W97941  36.024  12.621  14.563
32715W        W97942   3.878  42.609  14.056
32716W        W97943  20.431  18.393   4.996
32717W        W97944  23.141   9.045   4.057
32718W        W97945   6.863  41.229  12.587
32719W        W97946   2.538  39.873  13.625
32720W        W97947  36.535   5.437  12.466
32721W        W97948  28.910  26.515   2.365
32722W        W97949  20.759  28.100  11.172
32723W        W97950  20.233  38.419  13.608
32724W        W97951  15.134   6.696  10.707
32725W        W97952  38.325  23.027   0.773
32726W        W97953   5.230   0.986   0.432
32727W        W97954  16.094   4.636   4.564
32728W        W97955   0.227  10.455  13.785
32729W        W97956  33.153  19.994  14.997
32730W        W97957  41.489  13.594  13.517
32731W        W97958  14.930  20.458  12.104
32732W        W97959  44.444  13.439   1.385
32733W        W97960   4.709   7.648  13.989
32734W        W97961  31.992  26.502  14.886
32735W        W97962   2.022  31.018  11.865
32736W        W97963  28.011   3.413  14.632
32737W        W97964   6.958  20.230  11.280
32738W        W97965  21.382  12.095   3.334
32739W        W97966   0.829  39.040  14.743
32740W        W97967   7.238  25.700  11.609
32741W        W97968  24.206  27.997   1.390
32742W        W97969  29.217  19.264   0.402
32743W        W97970  23.060  20.535   4.582
32744W        W97971  42.574   4.350  12.944
32745W        W97972  43.286   0.579  11.669
32746W        W97973  30.644  25.868  11.139
32747W        W97974  17.716  25.785  11.754
32748W        W97975  39.907  19.036   3.247
32749W        W97976  18.666  40.445  10.680
32750W        W97977  12.966  20.318  11.057
32751W        W97978  42.882  21.997  12.522
32752W        W97979  34.994   1.902   0.706
32753W        W97980   7.377  10.785  12.111
32754W        W97981  26.323  43.902   0.913
32755W        W97982  44.888  30.578  12.110
32756W        W97983  38.058  18.063  14.386
32757W        W97984  21.070  15.130   4.776
32758W        W97985   5.847  13.018  10.451
32759W        W97986   3.504  31.701   0.890
32760W        W97987  38.583  12.951  14.966
32761W        W97988  16.669  35.286  12.034
32762W        W97989  22.869   9.680   4.740
32763W        W97990  32.182  25.075   1.185
32764W        W97991   2.123  42.298  11.182
32765W        W97992  10.330  37.444   2.588
32766W        W97993  19.259  29.772   3.729
32767W        W97994  37.537  39.062   0.957
32768W        W97995  22.835  34.045   0.771
32769W        W97996  11.231  25.644  11.627
32770W        W97997  12.597  22.113   0.249
32771W        W97998  29.034   9.279   0.966
32772W        W97999  17.319  39.873   3.268
32773W        W98000  41.339  43.388   0.897
32774W        W98001  30.663   1.197   3.837
32775W        W98002  24.787  37.998  14.891
32776W        W98003  40.903  31.470   1.061
32777W        W98004  34.470   0.834   2.449
32778W        W98005   3.336  41.097   2.853
32779W        W98006  41.253  13.809  11.119
32780W        W98007  21.575  44.737   2.149
32781W        W98008  43.015  34.927   0.472
32782W        W98009   5.824  44.264  12.855
32783W        W98010  12.354  21.421  11.984
32784W        W98011   5.334  40.105  10.740
32785W        W98012  17.656   6.565   3.675
32786W        W98013  33.111  22.391   4.805
32787W        W98014  18.516  11.123  14.256
32788W        W98015   7.763   7.319  11.402
32789W        W98016  20.949  21.822  13.305
32790W        W98017  14.562   4.381  11.577
32791W        W98018  27.630  35.066  11.291
32792W        W98019  11.103  28.660   4.567
32793W        W98020   7.437  17.626  12.180
32794W        W98021  25.239  35.791   3.615
32795W        W98022  40.428   1.004   4.070
32796W        W98023   5.586   9.845   4.125
32797W        W98024  25.417  40.464   4.069
32798W        W98025  34.841  23.598   5.224
32799W        W98026  11.807  19.096  14.866
32800W        W98027  21.563  10.330  13.275
32801W        W98028   9.787  13.734  12.984
32802W        W98029  16.627  18.988   0.242
32803W        W98030  37.008  35.149  14.726
32804W        W98031  32.755  27.575  10.087
32805W        W98032   3.318  13.979  13.648
32806W        W98033  35.580   5.306  10.696
32807W        W98034   2.587  25.912  12.629
32808W        W98035  22.507   5.876   3.292
32809W        W98036  16.673  23.782   2.244
32810W        W98037  37.556  22.694   2.479
32811W        W98038  24.927   6.842  14.952
32812W        W98039  25.096  22.683  14.302
32813W        W98040  33.960  30.719   1.026
32814W        W98041  11.155  32.868   1.028
32815W        W98042  11.059   3.526  12.893
32816W        W98043  24.284   1.927  14.546
32817W        W98044   7.834  10.926  13.070
32818W        W98045  29.622   0.298   1.242
32819W        W98046  44.565  34.549  11.357
32820W        W98047  12.557   3.361  13.059
32821W        W98048  11.645  22.610   3.671
32822W        W98049  29.464  16.434   0.558
32823W        W98050  20.250  20.688  14.998
32824W        W98051  43.437   7.703  14.901
32825W        W98052  20.078   5.525   0.928
32826W        W98053  30.211  33.253   4.386
32827W        W98054  34.342   2.429   1.333
32828W        W98055  26.721   8.387  12.437
32829W        W98056  29.266   3.774  13.827
32830W        W98057  15.363  15.856  11.625
32831W        W98058  33.182  27.111  14.633
32832W        W98059  26.482   7.172   2.389
32833W        W98060  27.837  26.053   2.458
32834W        W98061   4.430  42.796   3.733
32835W        W98062   3.411  43.514   0.544
32836W        W98063  21.661  11.535  13.537
32837W        W98064   6.405  30.166  14.443
32838W        W98065  15.575  19.195  11.535
32839W        W98066  42.344  41.136   3.011
32840W        W98067  39.750  43.837   2.598
32841W        W98068   5.713   2.763  10.676
32842W        W98069  28.895  42.232  14.458
32843W        W98070  13.620  35.441   0.091
32844W        W98071  31.898  29.621   1.224
32845W        W98072  18.711   2.331  11.469
32846W        W98073   0.374  25.807  13.951
32847W        W98074  20.883   1.853  12.505
32848W        W98075  25.552  18.544  10.775
32849W        W98076  28.183  31.624   4.890
32850W        W98077  30.713  18.975   0.396
32851W        W98078  20.691  41.617   4.748
32852W        W98079   1.441   8.256  12.025
32853W        W98080  22.159   0.159   1.129
32854W        W98081  30.550  43.939  12.044
32855W        W98082  10.816  26.079   2.163
32856W        W98083  24.541  41.951  12.018
32857W        W98084  34.637  14.670   3.121
32858W        W98085  43.175  32.270  14.540
32859W        W98086  19.671   7.311   3.982
32860W        W98087  25.134   6.198   1.907
32861W        W98088   8.369  32.671   4.885
32862W        W98089  16.232  15.593   2.854
32863W        W98090  30.822  19.205   3.802
32864W        W98091  28.539  18.598  13.083
32865W        W98092  25.557  17.083   0.279
32866W        W98093  44.639  21.215   1.794
32867W        W98094  37.663  21.900  10.528
32868W        W98095  35.205  22.757  14.568
32869W        W98096  31.663  30.651  11.069
32870W        W98097  10.088  22.686   1.167
32871W        W98098  11.788  43.843   3.627
32872W        W98099  26.243  26.342  10.483
32873W        W98100   0.421  15.761  14.100
32874W        W98101   7.760  18.349   4.601
32875W        W98102  29.045  41.297   2.855
32876W        W98103   5.298  19.984  12.619
32877W        W98104  44.085  23.641   2.835
32878W        W98105   3.965  11.327  14.992
32879W        W98106  17.044  14.236   1.814
32880W        W98107  44.057  37.362   3.173
32881W        W98108   8.877  21.952   1.718
32882W        W98109  14.335   7.854   0.003
32883W        W98110  13.486  31.585  10.334
32884W        W98111   1.157  40.434  10.738
32885W        W98112  13.020  12.703   1.948
32886W        W98113  20.449  11.811   1.461
32887W        W98114  31.669   7.156   4.176
32888W        W98115  23.411  29.148  11.159
32889W        W98116  11.757  13.043   2.204
32890W        W98117   8.342  20.337  12.155
32891W        W98118  20.783   4.190   0.412
32892W        W98119  15.551  12.719   4.508
32893W        W98120  16.827  14.004  10.521
32894W        W98121  43.263  17.298   3.782
32895W        W98122  15.774  40.532  12.872
32896W        W98123  31.996  21.662  14.872
32897W        W98124  22.306  41.402   1.240
32898W        W98125  13.771  10.861   1.710
32899W        W98126   9.704  44.599   1.275
32900W        W98127  33.551  21.421   5.037
32901W        W98128  24.150  35.595  13.743
32902W        W98129  30.451  32.971   2.770
32903W        W98130  16.897  24.197   2.455
32904W        W98131  17.856  43.930  10.243
32905W        W98132  36.825  43.518   3.285
32906W        W98133   6.925  10.904  11.603
32907W        W98134  34.679  36.843   3.990
32908W        W98135  33.530  42.665   2.035
32909W        W98136  15.268   1.660  12.967
32910W        W98137  41.344  32.081  14.504
32911W        W98138  42.200  36.339   3.799
32912W        W98139  43.783   7.211   1.400
32913W        W98140  16.252  27.392   2.213
32914W        W98141  33.061  23.091   0.289
32915W        W98142  17.319  13.756   1.774
32916W        W98143  20.560   5.870   2.798
32917W        W98144   5.287  20.902   4.062
32918W        W98145  12.410  20.634   1.190
32919W        W98146  20.422  27.445   4.364
32920W        W98147  39.559  43.833  14.945
32921W        W98148  37.013  32.619  14.360
32922W        W98149  22.534  40.457   1.269
32923W        W98150  24.500  39.071   1.411
32924W        W98151  41.482  35.444  10.841
32925W        W98152  22.661  35.661  13.473
32926W        W98153  17.146   2.223   4.458
32927W        W98154  38.961   0.245  12.516
32928W        W98155  42.240  14.717   0.776
32929W        W98156  28.353  14.596  12.618
32930W        W98157  17.783  25.793  11.242
32931W        W98158  35.337  25.086  14.853
32932W        W98159  43.819  11.352   1.262
32933W        W98160  19.871  25.108   2.212
32934W        W98161  18.253   7.660   3.356
32935W        W98162  37.849   6.634   1.411
32936W        W98163  29.096  19.755  11.495
32937W        W98164  20.671  29.797  10.779
32938W        W98165  24.047  43.411  10.037
32939W        W98166  27.604  38.382   1.899
32940W        W98167  30.732   6.189  12.529
32941W        W98168  28.234  27.409  13.329
32942W        W98169  20.851  15.183  13.053
32943W        W98170  22.120  17.368   0.225
32944W        W98171  29.238  37.524  14.890
32945W        W98172  38.792   1.704   4.189
32946W        W98173  42.802   9.320   2.265
32947W        W98174   6.411  10.244   4.040
32948W        W98175  38.045  32.390  13.038
32949W        W98176  13.080  42.902   0.202
32950W        W98177  13.998   7.660   4.134
32951W        W98178  37.933  21.954  14.961
32952W        W98179  32.451  12.930  14.904
32953W        W98180  16.653  25.822  12.156
32954W        W98181  15.001   8.683  13.366
32955W        W98182  35.719  28.445  11.918
32956W        W98183  40.871  27.255   3.699
32957W        W98184  34.678  11.848  11.613
32958W        W98185  40.446  18.084  13.071
32959W        W98186   4.295   6.740   2.212
32960W        W98187  21.978   5.815   3.326
32961W        W98188  15.400  17.128  12.717
32962W        W98189  36.539  37.084   3.181
32963W        W98190  24.525  30.605  14.510
32964W        W98191  28.183   9.724  13.409
32965W        W98192  27.704  41.301   0.792
32966W        W98193   0.469  35.662   4.016
32967W        W98194   7.166  39.764  12.517
32968W        W98195  27.301  17.135  12.446
32969W        W98196  32.391  31.925  13.366
32970W        W98197  15.656   3.889   2.183
32971W        W98198   4.737  16.539   1.335
32972W        W98199   7.258  42.513   3.625
32973W        W98200   5.939  32.648   4.785
32974W        W98201   8.222  21.356  12.954
32975W        W98202   1.994  37.963   2.228
32976W        W98203  44.839  19.779   0.621
32977W        W98204  19.242  29.214   1.363
32978W        W98205  37.063  25.067  11.254
32979W        W98206  21.513  37.051  14.021
32980W        W98207  21.810  32.578   4.216
32981W        W98208  39.844   2.451  11.233
32982W        W98209   3.169  12.766  11.151
32983W        W98210   7.678  30.750  12.969
32984W        W98211   2.884  41.348   9.824
32985W        W98212  31.697  11.022  13.449
32986W        W98213  23.206  30.034  11.207
32987W        W98214   9.657  41.398   4.091
32988W        W98215  34.091  16.962   9.997
32989W        W98216  24.591  42.739   1.966
32990W        W98217  18.072  28.551  13.814
32991W        W98218  23.019   7.637   2.376
32992W        W98219   4.010  28.512   0.331
32993W        W98220  26.942  30.183  13.514
32994W        W98221  29.897   0.346   3.288
32995W        W98222  34.032  27.402   2.050
32996W        W98223  22.488  18.112   4.522
32997W        W98224  14.353  36.831   0.003
32998W        W98225  41.494  22.522   3.660
32999W        W98226   2.819  12.655   0.248
33000W        W98227  26.304  32.041   1.269
33001W        W98228  41.038  19.983  11.649
33002W        W98229  28.083  24.233   0.815
33003W        W98230   2.295  10.240   3.293
33004W        W98231  10.801  41.842  10.848
33005W        W98232  24.510   0.865  14.531
33006W        W98233  26.151  34.672   3.827
33007W        W98234   5.009  19.481   1.251
33008W        W98235  10.958  33.397  14.886
33009W        W98236  15.241   2.274   1.744
33010W        W98237  26.941  28.102   1.351
33011W        W98238  34.820  42.317   0.472
33012W        W98239  17.496  29.992  14.457
33013W        W98240  14.331  16.312  11.614
33014W        W98241  39.758  16.650  10.937
33015W        W98242  33.608  17.764   4.987
33016W        W98243  23.680   1.790  13.755
33017W        W98244  29.648   0.484   0.723
33018W        W98245  33.501  39.998   2.621
33019W        W98246  37.152  26.038   4.295
33020W        W98247  27.123   3.723   2.790
33021W        W98248   5.797  42.721  13.798
33022W        W98249  36.267  26.026  10.761
33023W        W98250  38.727  44.166   2.652
33024W        W98251  33.537   5.721  13.008
33025W        W98252  40.336  38.820  13.551
33026W        W98253  23.527  40.862  10.602
33027W        W98254  14.655  42.643   3.370
33028W        W98255  44.343  34.548   1.770
33029W        W98256  44.372  41.330  13.952
33030W        W98257  44.773  27.425  13.575
33031W        W98258   8.782  42.352  11.514
33032W        W98259  30.182  10.500  12.881
33033W        W98260  35.966  25.627   1.976
33034W        W98261  29.703  20.647  12.024
33035W        W98262  31.193  35.412  11.630
33036W        W98263  32.155  14.065  14.675
33037W        W98264  39.912  24.754   3.220
33038W        W98265  31.523  33.514  14.870
33039W        W98266   6.851  41.061   0.732
33040W        W98267  11.706  16.479   4.616
33041W        W98268   7.128  18.573  10.770
33042W        W98269  23.406   1.938   3.359
33043W        W98270   9.001  40.496  11.502
33044W        W98271   0.822  34.391   3.699
33045W        W98272  17.799  17.411   1.565
33046W        W98273   9.778  33.066   3.799
33047W        W98274   5.877   9.608   0.132
33048W        W98275   7.197  43.642  11.212
33049W        W98276  34.311  12.448   3.162
33050W        W98277   2.358  24.230   5.467
33051W        W98278   5.630  34.668  11.072
33052W        W98279  42.802  43.693   4.575
33053W        W98280  10.106  36.109   4.557
33054W        W98281  15.225  12.520  14.847
33055W        W98282  13.267  11.710  10.714
33056W        W98283  43.485  43.898   2.817
33057W        W98284  34.415  10.880  11.148
33058W        W98285  21.936  19.084  14.560
33059W        W98286   7.161  25.407   3.716
33060W        W98287   2.184   1.835   1.843
33061W        W98288  16.109  40.188  11.388
33062W        W98289  18.747  15.189  14.421
33063W        W98290  23.630  38.072  13.588
33064W        W98291  21.636  34.382   4.562
33065W        W98292  16.543  22.198  14.201
33066W        W98293  42.247  26.606   4.130
33067W        W98294  29.413  40.213   4.449
33068W        W98295   3.532   1.192  13.491
33069W        W98296  29.164  25.748  14.833
33070W        W98297   1.363  33.049  12.271
33071W        W98298  17.627  28.307   2.529
33072W        W98299  27.470  44.947   0.934
33073W        W98300  21.405   5.254   1.695
33074W        W98301  11.408   5.774   0.970
33075W        W98302  32.587  27.755  13.883
33076W        W98303   4.767  34.477  12.785
33077W        W98304  18.176  42.985   2.213
33078W        W98305  42.038  32.631  11.722
33079W        W98306   0.631  43.838   3.179
33080W        W98307  24.524  44.682   5.053
33081W        W98308   8.748   4.499   2.201
33082W        W98309  39.817  16.062   2.284
33083W        W98310  15.642  22.313  14.346
33084W        W98311  12.880  31.412   3.617
33085W        W98312  13.738  10.240   0.095
33086W        W98313   0.898  34.173   3.242
33087W        W98314  38.483  20.677   1.392
33088W        W98315  27.147  44.258   1.286
33089W        W98316  19.110  29.191  11.943
33090W        W98317  25.736  36.612  10.708
33091W        W98318   8.531  31.711  14.304
33092W        W98319  20.178  21.873   1.327
33093W        W98320   8.487   0.296  11.192
33094W        W98321  34.951  33.134  14.573
33095W        W98322  37.894  38.998   4.189
33096W        W98323  36.954  29.301  14.893
33097W        W98324  21.765  19.610   0.482
33098W        W98325  28.933  29.108   2.394
33099W        W98326  17.494  41.879   4.510
33100W        W98327  42.000  13.413  11.514
33101W        W98328   8.906  41.285   2.738
33102W        W98329  10.414  31.053   2.797
33103W        W98330  40.496   3.211   0.517
33104W        W98331   7.887  16.183   0.051
33105W        W98332   8.924  18.469   4.083
33106W        W98333  32.263  24.869   2.562
33107W        W98334  19.280  14.617  11.728
33108W        W98335  29.504   1.815   1.320
33109W        W98336   5.241  28.585   0.986
33110W        W98337   4.970  23.933   4.052
33111W        W98338  33.239   0.332   1.298
33112W        W98339  24.196   8.290  13.059
33113W        W98340   2.218  34.355  13.998
33114W        W98341   1.660  18.557  12.499
33115W        W98342  11.818  42.175   2.607
33116W        W98343  39.047  43.350  12.148
33117W        W98344  40.895  28.374  13.088
33118W        W98345  38.980  15.969   2.765
33119W        W98346   2.752   5.859   3.644
33120W        W98347  37.671   0.033  10.309
33121W        W98348  29.105  39.496   4.322
33122W        W98349  42.930  17.015  11.910
33123W        W98350  25.251  16.326   2.727
33124W        W98351  18.622  28.398   0.288
33125W        W98352  32.630  27.061   1.843
33126W        W98353  36.148  43.758  11.186
33127W        W98354  20.393   6.362   2.897
33128W        W98355  22.176   3.950  14.321
33129W        W98356   9.593  36.026  11.108
33130W        W98357  28.224   0.372  13.796
33131W        W98358  40.939  21.631  13.999
33132W        W98359  42.746   1.260   0.116
33133W        W98360  31.396  11.127   2.690
33134W        W98361  39.354  43.793   3.709
33135W        W98362  38.809  36.495  14.347
33136W        W98363  23.530  10.851   3.662
33137W        W98364   6.609  32.376  11.089
33138W        W98365  24.698  39.364  13.317
33139W        W98366   2.912  31.620  14.962
33140W        W98367  23.503  35.739   3.970
33141W        W98368   1.411  28.854   4.410
33142W        W98369   9.237  23.667  14.906
33143W        W98370  23.085  42.517   5.491
33144W        W98371  13.289  38.328   2.731
33145W        W98372  29.331  15.291   3.754
33146W        W98373   4.321  30.613   3.428
33147W        W98374  16.662   1.680  12.020
33148W        W98375  23.195  29.111   2.801
33149W        W98376  24.688  10.921   0.403
33150W        W98377  30.576  10.814   4.044
33151W        W98378  30.578   7.660   3.592
33152W        W98379  43.454  29.504   1.602
33153W        W98380  17.045  31.948   3.649
33154W        W98381   4.397  30.462  12.594
33155W        W98382  25.222  13.707  13.237
33156W        W98383  17.975  44.521   2.750
33157W        W98384  41.873  43.245   2.390
33158W        W98385  32.033  20.650   0.384
33159W        W98386  10.152  23.576   4.831
33160W        W98387  10.229  29.645   3.752
33161W        W98388   1.711  41.770  12.966
33162W        W98389  15.318  43.797  13.758
33163W        W98390  44.811  31.506   4.089
33164W        W98391  17.663   5.032  13.897
33165W        W98392  41.096  29.368   1.099
33166W        W98393   1.527  43.499  14.470
33167W        W98394   8.857  43.097   2.346
33168W        W98395  44.725  41.811   4.901
33169W        W98396  22.018  10.646  14.748
33170W        W98397   7.245   2.531  13.376
33171W        W98398  44.793  11.792   2.640
33172W        W98399  28.164  43.973  11.536
33173W        W98400   4.449  30.176   2.329
33174W        W98401  34.034   6.018  10.710
33175W        W98402   0.268   9.921  13.108
33176W        W98403  30.801  27.174  12.543
33177W        W98404   6.791  39.468   4.407
33178W        W98405  35.073   6.159  14.411
33179W        W98406   7.849  30.147  13.961
33180W        W98407  11.320  40.243  10.874
33181W        W98408  41.770  36.107   3.635
33182W        W98409  38.627   9.102  11.457
33183W        W98410  12.529  44.046  12.818
33184W        W98411   5.956  14.757   5.547
33185W        W98412  23.729  21.135   1.879
33186W        W98413  38.933  34.877   3.785
33187W        W98414  43.167  22.548  14.387
33188W        W98415  25.867   6.577  14.900
33189W        W98416  10.252   6.082   2.682
33190W        W98417  14.081  28.419   2.716
33191W        W98418  32.432  40.669  11.154
33192W        W98419   6.893  38.435  10.716
33193W        W98420  13.208  27.122  12.613
33194W        W98421  22.176  16.241   0.011
33195W        W98422  21.642  28.944   3.845
33196W        W98423  38.943  37.383   2.322
33197W        W98424   8.718  10.291   3.882
33198W        W98425  14.932  29.135  13.454
33199W        W98426  24.534  18.366  10.718
33200W        W98427  42.267  16.618  10.797
33201W        W98428   7.752  35.395  14.666
33202W        W98429  15.623   5.729   0.514
33203W        W98430  16.810  23.291  13.274
33204W        W98431  33.478  19.958  12.456
33205W        W98432  16.160  21.261  10.684
33206W        W98433  22.595  14.368  10.645
33207W        W98434   4.823  26.230  10.144
33208W        W98435  14.567  42.892   4.223
33209W        W98436  21.519  16.711  13.029
33210W        W98437   0.669  25.636  12.702
33211W        W98438  39.975  26.026   3.851
33212W        W98439  28.205  21.437  13.093
33213W        W98440  33.559  24.740   3.782
33214W        W98441  14.095  15.564  14.487
33215W        W98442  13.622  10.584   3.096
33216W        W98443   7.746  33.464   0.883
33217W        W98444  36.368  32.481  10.758
33218W        W98445  11.799  43.777  11.572
33219W        W98446   9.988  12.694  11.730
33220W        W98447   1.965  18.385   4.770
33221W        W98448   7.458   0.495  14.129
33222W        W98449  26.636  27.845  11.661
33223W        W98450  40.096  19.991  12.998
33224W        W98451  40.971   6.987  14.364
33225W        W98452  18.047  42.080   0.348
33226W        W98453  16.234  20.455  11.911
33227W        W98454  16.188  23.801  12.045
33228W        W98455   0.568  32.511   1.358
33229W        W98456   1.074  12.607   3.280
33230W        W98457  22.962   5.803   1.270
33231W        W98458  16.736  30.721  10.773
33232W        W98459  20.144  15.052  11.850
33233W        W98460   4.001  27.536   3.134
33234W        W98461  24.611   6.751   2.327
33235W        W98462  25.578  16.126   3.808
33236W        W98463  37.422  32.061   4.835
33237W        W98464  31.181  24.303  11.679
33238W        W98465  30.024   9.723  11.625
33239W        W98466  32.567  42.459  12.498
33240W        W98467  18.746  18.070   0.370
33241W        W98468  19.530   2.187   4.128
33242W        W98469  35.130  23.612  10.429
33243W        W98470   6.380  38.835  12.010
33244W        W98471  17.501   0.654   1.611
33245W        W98472  10.536   0.771  11.763
33246W        W98473  21.161  37.843   1.461
33247W        W98474   1.853  35.720   1.891
33248W        W98475   0.483  30.748  14.928
33249W        W98476  11.415  35.707  11.513
33250W        W98477  21.429  28.577   4.627
33251W        W98478   3.286  20.504   3.992
33252W        W98479  15.340  15.599   0.486
33253W        W98480  16.988  17.095  11.556
33254W        W98481  29.631  41.963   4.667
33255W        W98482  38.010  35.338  10.777
33256W        W98483   4.304  16.868   1.844
33257W        W98484  36.391  33.168  13.206
33258W        W98485  22.914  25.291   4.620
33259W        W98486  35.008   8.913   4.554
33260W        W98487  15.292  40.342   2.250
33261W        W98488  18.217  14.857   1.745
33262W        W98489  15.253  37.633   4.546
33263W        W98490  19.597  42.293  13.477
33264W        W98491  33.014  16.709   2.275
33265W        W98492  15.492  22.242   1.401
33266W        W98493  11.678  15.605  11.170
33267W        W98494   7.821   2.485   3.091
33268W        W98495  32.833  35.326   4.009
33269W        W98496  15.549  16.069   4.398
33270W        W98497  14.085   7.892   0.484
33271W        W98498   2.012  16.843   1.010
33272W        W98499  30.524  30.056  11.277
33273W        W98500  25.979  18.142   0.724
33274W        W98501   4.504   4.914   3.636
33275W        W98502  17.796  43.964  14.301
33276W        W98503  34.036  39.182   1.082
33277W        W98504  27.192  27.140  14.442
33278W        W98505  15.521  16.645  13.426
33279W        W98506  33.364  19.137   1.606
33280W        W98507  31.979   2.455   4.097
33281W        W98508   9.518   7.510   1.779
33282W        W98509  39.301  27.955  11.572
33283W        W98510  19.937  35.128   4.610
33284W        W98511  22.157  24.450  13.054
33285W        W98512  28.968  12.886  14.023
33286W        W98513   7.206  15.719   2.729
33287W        W98514  43.740  27.590   4.563
33288W        W98515  23.673  19.142   0.406
33289W        W98516  43.553   2.379  14.788
33290W        W98517  31.107   8.119   4.517
33291W        W98518  33.863   8.741  13.314
33292W        W98519  35.040  25.694  10.989
33293W        W98520  38.095  36.862  13.009
33294W        W98521   2.013  20.241  13.009
33295W        W98522   6.466  27.571   0.291
33296W        W98523  40.355  29.602  14.327
33297W        W98524  26.587  20.682  11.987
33298W        W98525   8.655  36.058   0.634
33299W        W98526  22.817  23.545   2.728
33300W        W98527   0.781   2.803  13.319
33301W        W98528   8.304  44.605   0.797
33302W        W98529   3.819   7.013  11.509
33303W        W98530  18.077  11.675  13.747
33304W        W98531  32.557   7.183   4.161
33305W        W98532  39.770  32.857   2.331
33306W        W98533  16.496  42.774  11.465
33307W        W98534  15.737  25.077   4.969
33308W        W98535  22.033   6.377   0.804
33309W        W98536   1.189  40.583   0.451
33310W        W98537  37.357  13.859   1.038
33311W        W98538  21.442  44.115   0.825
33312W        W98539  13.050   2.953   1.185
33313W        W98540  25.105  37.452  10.774
33314W        W98541   3.207  43.055   0.397
33315W        W98542  11.179  13.309   3.758
33316W        W98543  24.481  42.506   3.577
33317W        W98544  33.592   9.896   0.031
33318W        W98545   5.841  35.667  13.964
33319W        W98546  31.075  11.399  13.471
33320W        W98547  39.253   6.275  13.303
33321W        W98548   4.839   7.392  14.912
33322W        W98549  26.726  13.023   0.760
33323W        W98550  34.000  17.508  14.658
33324W        W98551  14.590  18.544  11.061
33325W        W98552  13.297  13.551  12.006
33326W        W98553  32.985  26.681   1.270
33327W        W98554  16.406  28.561  14.828
33328W        W98555  16.311  13.230   4.268
33329W        W98556  41.213  33.498   1.210
33330W        W98557  27.967  28.570  11.580
33331W        W98558  31.067  20.047  11.242
33332W        W98559  44.741  36.124   0.563
33333W        W98560   0.680  35.191   4.202
33334W        W98561  41.052  44.316   1.625
33335W        W98562  34.976  27.323  12.453
33336W        W98563  43.317  27.254   0.232
33337W        W98564  40.813  44.361  11.699
33338W        W98565  42.354  21.996  11.861
33339W        W98566   2.695  29.446   4.410
33340W        W98567  10.750  36.066   2.134
33341W        W98568  43.921   3.382   3.169
33342W        W98569   9.598  37.480   4.738
33343W        W98570  39.118   7.793   0.347
33344W        W98571  35.087  44.525  11.756
33345W        W98572  20.372  36.847  13.460
33346W        W98573  36.512   9.640  14.901
33347W        W98574  10.136   5.665  14.481
33348W        W98575  29.432  33.049   0.511
33349W        W98576  44.484  28.956   2.238
33350W        W98577   0.768  29.423   3.720
33351W        W98578  15.166  41.354   5.175
33352W        W98579  22.227  16.189   2.000
33353W        W98580  10.343  43.469   0.803
33354W        W98581  27.693  18.773  13.933
33355W        W98582   0.092  43.303  12.678
33356W        W98583  22.850  41.534  14.461
33357W        W98584  38.600  30.190   2.097
33358W        W98585  12.093  25.570  10.691
33359W        W98586  13.917  32.626  14.089
33360W        W98587   9.840  35.141  14.529
33361W        W98588  15.492  26.994   3.172
33362W        W98589  10.709   2.178   4.098
33363W        W98590   7.178  27.895  13.521
33364W        W98591  25.814  13.648   2.664
33365W        W98592  22.208  44.569   3.220
33366W        W98593  30.887   0.319  13.118
33367W        W98594  31.949  18.757  12.944
33368W        W98595   2.504  43.765  12.572
33369W        W98596   6.700  18.043  12.069
33370W        W98597  38.708  36.731  13.844
33371W        W98598   4.961  11.257  12.909
33372W        W98599  20.432  29.872   4.139
33373W        W98600  25.109  15.660   0.661
33374W        W98601   7.207  28.643  14.044
33375W        W98602  40.337  21.732   1.217
33376W        W98603  39.103  35.128  12.965
33377W        W98604  26.755   6.869  10.735
33378W        W98605  14.288   3.937   2.768
33379W        W98606  37.912   7.879   0.784
33380W        W98607  38.116  39.948   4.439
33381W        W98608   3.967  18.216  12.644
33382W        W98609  28.975   3.281  12.645
33383W        W98610   7.312   3.515  11.484
33384W        W98611  15.100  44.484  14.539
33385W        W98612  31.316  35.427   1.840
33386W        W98613  17.847  40.896   1.374
33387W        W98614  40.440  41.446  10.182
33388W        W98615   2.381  12.541  10.652
33389W        W98616  24.488  26.690  12.516
33390W        W98617  39.361  19.875  14.091
33391W        W98618   3.200   9.382  11.218
33392W        W98619  35.913  29.513   3.578
33393W        W98620  28.904  41.287   1.845
33394W        W98621  22.688   3.372   9.488
33395W        W98622  37.636  37.159  13.025
33396W        W98623  14.644   7.772  13.051
33397W        W98624  30.584  33.604   4.947
33398W        W98625  14.752   7.038   9.920
33399W        W98626  21.689  38.066   2.824
33400W        W98627  42.977   8.161  12.657
33401W        W98628  40.253  24.644  10.739
33402W        W98629  24.439  11.078  12.025
33403W        W98630  34.037   1.785  13.389
33404W        W98631   9.468  29.602  11.936
33405W        W98632  13.182  19.418  11.489
33406W        W98633  16.579  42.420  10.781
33407W        W98634  36.966  37.843  12.236
33408W        W98635  17.402   9.060  12.024
33409W        W98636   8.610  11.683  14.435
33410W        W98637  36.956   5.003   1.268
33411W        W98638   0.801  24.100   4.982
33412W        W98639  37.378  36.018   3.868
33413W        W98640  18.610  31.446   2.238
33414W        W98641  41.274   8.861   0.771
33415W        W98642  39.849  42.736   3.448
33416W        W98643  37.561  28.550   3.756
33417W        W98644   4.590   4.760  14.911
33418W        W98645  28.742  37.592  14.756
33419W        W98646  11.629  26.905  14.810
33420W        W98647  38.645  44.036   3.141
33421W        W98648  44.797  25.395   0.113
33422W        W98649  23.536  19.048   1.817
33423W        W98650  22.564  18.486  12.475
33424W        W98651  10.103  35.367   1.171
33425W        W98652  25.574  16.374   0.819
33426W        W98653   8.941   7.352   0.868
33427W        W98654  41.857  19.740  12.062
33428W        W98655  28.279  33.944   2.238
33429W        W98656  25.175  16.693   0.958
33430W        W98657  18.249   1.916  12.663
33431W        W98658  15.328   6.389   4.248
33432W        W98659  20.774  37.519   3.854
33433W        W98660   0.271   5.968   1.852
33434W        W98661  33.381  24.374  12.480
33435W        W98662  24.678  33.819   3.643
33436W        W98663  11.855  25.985  13.368
33437W        W98664  17.371  30.879  14.473
33438W        W98665  13.648  41.015   1.262
33439W        W98666  33.486  39.145  14.522
33440W        W98667  33.901   1.791   4.315
33441W        W98668  34.483  42.870  11.160
33442W        W98669  25.466  11.168   0.297
33443W        W98670  24.021  19.012   3.353
33444W        W98671  13.055  28.006  13.882
33445W        W98672  30.166  18.088   0.970
33446W        W98673   0.471  13.661   2.316
33447W        W98674  12.423  17.199  14.841
33448W        W98675   5.231  38.920  13.342
33449W        W98676  24.682  43.007  12.780
33450W        W98677  15.366  36.944  14.913
33451W        W98678   5.460  42.980  14.823
33452W        W98679   0.514  34.129   4.361
33453W        W98680  36.429  10.120  13.910
33454W        W98681  26.702   1.062   0.721
33455W        W98682  38.493   0.268   2.553
33456W        W98683  12.869  35.928   4.821
33457W        W98684  32.406  33.905  12.074
33458W        W98685  14.924  17.856   3.125
33459W        W98686   1.349  33.851   1.037
33460W        W98687  23.287   5.589   0.360
33461W        W98688   5.749  16.618  11.105
33462W        W98689  28.863  44.373   0.503
33463W        W98690  33.439  17.007  12.533
33464W        W98691  29.059  10.614   2.328
33465W        W98692  13.613  14.255   1.310
33466W        W98693  36.750  32.173   3.015
33467W        W98694  15.204  43.600  12.972
33468W        W98695  44.131   5.319  10.817
33469W        W98696  19.568  36.756  13.039
33470W        W98697  38.355   0.468  13.462
33471W        W98698  36.215   1.663  12.632
33472W        W98699  33.991  34.093  13.586
33473W        W98700  21.806   8.370   3.382
33474W        W98701  31.987   0.536   4.962
33475W        W98702   5.813  41.158   4.096
33476W        W98703  34.903  20.636  12.951
33477W        W98704  16.847   8.713   1.903
33478W        W98705  40.622  19.323  13.491
33479W        W98706   2.458  36.848   0.649
33480W        W98707  24.689  34.250  12.335
33481W        W98708   5.879   6.410  12.948
33482W        W98709  15.122  35.903  11.477
33483W        W98710  18.013  27.282  11.652
33484W        W98711   8.319  21.742   4.521
33485W        W98712  37.213  29.896   4.001
33486W        W98713  10.811  28.044   2.193
33487W        W98714  22.123  27.965   1.241
33488W        W98715  31.633  43.998  13.956
33489W        W98716  32.415  32.934  11.538
33490W        W98717   8.374  28.151  10.748
33491W        W98718  31.595  40.537  14.120
33492W        W98719  16.243  37.433   2.744
33493W        W98720  30.497   9.364   2.730
33494W        W98721  36.506  16.947  12.946
33495W        W98722  27.515  44.130  12.699
33496W        W98723   3.416  37.353   0.311
33497W        W98724  26.966  33.511   4.062
33498W        W98725  12.910  30.434   0.521
33499W        W98726  14.280  39.939  13.456
33500W        W98727  28.359  24.122  14.704
33501W        W98728   1.754  31.137   1.691
33502W        W98729  10.765  15.793  14.942
33503W        W98730  16.761  28.961  14.863
33504W        W98731  11.323  43.432   0.439
33505W        W98732  39.460  22.296  13.872
33506W        W98733  28.049  43.283   0.962
33507W        W98734   6.402  29.496   4.991
33508W        W98735  29.540  15.138   2.721
33509W        W98736   6.154  29.783  13.193
33510W        W98737  18.703  27.396   4.112
33511W        W98738  33.524  18.624   4.122
33512W        W98739  32.436  41.279   4.394
33513W        W98740  29.954  34.200  10.598
33514W        W98741  27.170  27.378  12.092
33515W        W98742   3.420  13.887   3.190
33516W        W98743  25.217   3.671  11.243
33517W        W98744   9.886  17.662   3.187
33518W        W98745  28.026  18.798  11.893
33519W        W98746   0.940  22.826  14.446
33520W        W98747   0.799  21.088   0.748
33521W        W98748  16.807   7.730  11.907
33522W        W98749  31.088  31.605   3.760
33523W        W98750  26.882  32.561   4.037
33524W        W98751  30.693  25.203  14.383
33525W        W98752  14.030  37.909   2.412
33526W        W98753   0.038   8.874   0.680
33527W        W98754  28.390  12.258   0.419
33528W        W98755  38.385  19.512   0.637
33529W        W98756  40.559   2.414  10.672
33530W        W98757  10.140  13.479  13.905
33531W        W98758  36.852  42.030   3.574
33532W        W98759  20.745  24.860  13.578
33533W        W98760   7.468  42.847   4.224
33534W        W98761  25.914  36.091   4.123
33535W        W98762  33.505   7.380   0.482
33536W        W98763   0.789  23.496   1.121
33537W        W98764  30.640  38.806   1.824
33538W        W98765  21.282  39.813  13.527
33539W        W98766  34.376  31.679   3.458
33540W        W98767  37.672  35.870  11.550
33541W        W98768   1.086  20.654   2.277
33542W        W98769  20.220  24.776  14.807
33543W        W98770  18.609  17.244   3.612
33544W        W98771  23.940  20.072   0.268
33545W        W98772  40.306  44.258  10.764
33546W        W98773  34.157  29.458  13.554
33547W        W98774  43.591  31.992  11.166
33548W        W98775  30.992  39.966  13.033
33549W        W98776  37.482  37.352  13.492
33550W        W98777  35.053  13.262  11.373
33551W        W98778  44.642  18.776   2.702
33552W        W98779   9.886  28.550   0.863
33553W        W98780  13.179  27.396  13.054
33554W        W98781   7.660   0.801  12.873
33555W        W98782  11.822  16.553   9.769
33556W        W98783  21.572   1.265   3.667
33557W        W98784  43.722  27.669  14.560
33558W        W98785  11.570  25.588  12.348
33559W        W98786  14.747   9.583  14.008
33560W        W98787  24.124  14.597  11.093
33561W        W98788  35.127  22.443   3.305
33562W        W98789  41.687   0.311  12.300
33563W        W98790   0.252  25.093   3.572
33564W        W98791  28.428  34.992  13.159
33565W        W98792  24.569  13.199  14.434
33566W        W98793  20.579  39.489   0.316
33567W        W98794  18.803  15.940  14.663
33568W        W98795  32.322  10.401  14.815
33569W        W98796  37.492   8.529   3.986
33570W        W98797  13.140  14.189   1.571
33571W        W98798  36.507  13.214  12.095
33572W        W98799  23.775   0.738  11.246
33573W        W98800  17.158  10.304  13.903
33574W        W98801   3.225  22.027  13.233
33575W        W98802  16.579   4.010  11.573
33576W        W98803  15.634  35.815  12.932
33577W        W98804  29.918  19.160  12.467
33578W        W98805  13.140   4.653   2.086
33579W        W98806   0.160  24.609   3.743
33580W        W98807  39.418  34.676  12.058
33581W        W98808  37.734  11.760  13.874
33582W        W98809  12.332  14.855  14.454
33583W        W98810  41.519  32.434  11.947
33584W        W98811  32.520  24.969  11.559
33585W        W98812  20.169  40.504  12.509
33586W        W98813  31.518  17.076   0.208
33587W        W98814  39.882  33.868  12.807
33588W        W98815  38.848   4.784  11.665
33589W        W98816   7.284  28.466  13.530
33590W        W98817   8.743   9.679  13.457
33591W        W98818  38.410  31.524  11.601
33592W        W98819  40.399  27.271  12.698
33593W        W98820  10.383  33.640  11.213
33594W        W98821   6.269  28.164  10.604
33595W        W98822  13.624  16.170  11.047
33596W        W98823  16.870  41.978   4.061
33597W        W98824  10.026  25.537  10.760
33598W        W98825  35.063  43.404   0.260
33599W        W98826  12.107  41.872  14.571
33600W        W98827   1.081  12.216  12.458
33601W        W98828  43.552   6.735  10.754
33602W        W98829  18.537  33.040  13.481
33603W        W98830  17.140  39.844  14.487
33604W        W98831  26.864  14.113   2.944
33605W        W98832  16.897  15.056  14.965
33606W        W98833  14.229  39.952   0.737
33607W        W98834  27.006   0.833   4.402
33608W        W98835  23.466  26.900  10.900
33609W        W98836  41.723  41.273   1.297
33610W        W98837  24.740  20.306  14.930
33611W        W98838  40.958  32.188  12.368
33612W        W98839  38.960  10.736   2.787
33613W        W98840   5.528  44.212  11.706
33614W        W98841  34.908   0.438  14.778
33615W        W98842  39.834  30.552   4.141
33616W        W98843   4.078   1.382  12.693
33617W        W98844  14.965  40.070   4.012
33618W        W98845  13.797  29.649  10.736
33619W        W98846  39.028  26.160  14.923
33620W        W98847  15.287  42.498   4.619
33621W        W98848   1.527  12.839  14.353
33622W        W98849  33.159   6.147  12.236
33623W        W98850   6.571  26.014   1.170
33624W        W98851  31.423  25.064   4.106
33625W        W98852  38.835   5.909   3.202
33626W        W98853  44.913   3.301   0.287
33627W        W98854   4.823  44.549   1.235
33628W        W98855  38.486  12.456   4.004
33629W        W98856  22.023  37.151   4.548
33630W        W98857   8.772  28.837   4.460
33631W        W98858  11.517  29.578   2.743
33632W        W98859   9.899  18.537  14.454
33633W        W98860  44.213  43.783  11.892
33634W        W98861  33.477  27.229  13.807
33635W        W98862   3.621   2.131   2.412
33636W        W98863   8.416  34.232  11.728
33637W        W98864   6.718  26.282  11.324
33638W        W98865  35.093  12.694   1.702
33639W        W98866   9.671  22.126  13.119
33640W        W98867  37.598   6.732   3.124
33641W        W98868   6.300  34.498   3.210
33642W        W98869   1.133  42.063   3.136
33643W        W98870   0.479   1.470   3.669
33644W        W98871  39.239  44.779  14.932
33645W        W98872  11.212   8.144   4.129
33646W        W98873  36.083  17.603   2.733
33647W        W98874  32.702  12.357  12.497
33648W        W98875  17.687   8.893  13.126
33649W        W98876   3.399  22.483  12.366
33650W        W98877  24.955  34.591  11.480
33651W        W98878  11.108  27.427   1.715
33652W        W98879  34.571  41.079   0.893
33653W        W98880  27.408   6.393  13.375
33654W        W98881  18.132  26.693   3.656
33655W        W98882  27.646  18.284   2.719
33656W        W98883  25.049  26.194  12.692
33657W        W98884   6.220  11.515   1.980
33658W        W98885  39.884  32.051  14.809
33659W        W98886  15.925  34.905  12.375
33660W        W98887   3.270  25.856  10.622
33661W        W98888  20.102  25.232  11.052
33662W        W98889  25.076  37.909   1.848
33663W        W98890  11.214   5.007   3.662
33664W        W98891  21.520  20.810  13.042
33665W        W98892  44.048  12.990  14.985
33666W        W98893  41.935  11.506  13.831
33667W        W98894  39.341  30.975  10.562
33668W        W98895  20.079  42.601  12.633
33669W        W98896  12.772  41.424   3.924
33670W        W98897  12.164  26.215   4.609
33671W        W98898   1.204  25.081  11.077
33672W        W98899   6.276  12.439  12.928
33673W        W98900  37.523   2.505  12.392
33674W        W98901  31.416  42.468   2.224
33675W        W98902  28.880  13.612   0.334
33676W        W98903  19.766   5.419   2.783
33677W        W98904  37.967  38.016  14.475
33678W        W98905   9.326  31.473  13.468
33679W        W98906  19.575  41.601   0.470
33680W        W98907  41.573  43.833   0.803
33681W        W98908  35.520  25.755  13.187
33682W        W98909  13.964  34.382  11.135
33683W        W98910  19.053  29.126  11.066
33684W        W98911  13.308  28.742  11.427
33685W        W98912  17.276  44.174  11.664
33686W        W98913   0.338  21.351   0.856
33687W        W98914  15.401  18.694   0.752
33688W        W98915  31.591  38.344  13.568
33689W        W98916  17.135  27.064   1.253
33690W        W98917  30.636  44.306  14.876
33691W        W98918  38.613  11.122   1.968
33692W        W98919  31.291   3.213  11.842
33693W        W98920  37.345  22.997   3.367
33694W        W98921  11.377  19.621   3.836
33695W        W98922   9.702  26.978   3.837
33696W        W98923  39.994  39.425   3.913
33697W        W98924  41.079  25.850   1.163
33698W        W98925   6.833  44.510   4.164
33699W        W98926  29.479  30.593  14.010
33700W        W98927   6.010  38.479  14.066
33701W        W98928   4.616  35.310   2.865
33702W        W98929   6.930  40.627  11.647
33703W        W98930  26.060  39.289  10.512
33704W        W98931  10.117  13.136  13.155
33705W        W98932   3.836  37.390   0.002
33706W        W98933  28.439  26.929  14.922
33707W        W98934  27.633  13.427   2.115
33708W        W98935  36.681  16.839   3.733
33709W        W98936   4.953   7.281   1.850
33710W        W98937  41.328  43.952  12.415
33711W        W98938   3.363   6.775  14.874
33712W        W98939  39.047   3.409  10.907
33713W        W98940   2.721  34.866  13.223
33714W        W98941  25.501  20.744   0.884
33715W        W98942  26.990  21.968  14.371
33716W        W98943  31.004  27.381  12.995
33717W        W98944  42.259  34.338  10.857
33718W        W98945  29.231  34.567   3.326
33719W        W98946  42.128   9.396  13.002
33720W        W98947   2.324  30.394   3.225
33721W        W98948  32.408  18.052  11.847
33722W        W98949  13.077  23.056  14.426
33723W        W98950  34.641  38.856   4.680
33724W        W98951  39.377   3.809  12.997
33725W        W98952   2.523  34.350  11.712
33726W        W98953  29.693  17.320  12.911
33727W        W98954  17.314  11.715  10.722
33728W        W98955  16.490  31.172   3.255
33729W        W98956  36.039   2.896   1.401
33730W        W98957  12.398  36.594   1.866
33731W        W98958  32.963   0.235   3.235
33732W        W98959  30.515  10.065  10.330
33733W        W98960   8.229  23.553   0.834
33734W        W98961  12.671  11.364   4.167
33735W        W98962  10.177  24.132  12.033
33736W        W98963  10.107  24.086  12.550
33737W        W98964  12.783  10.666  14.369
33738W        W98965   5.015   4.625   2.787
33739W        W98966   8.493  38.874   1.671
33740W        W98967   0.376  28.010  11.593
33741W        W98968  14.597  20.184   0.398
33742W        W98969  10.258  33.613   3.173
33743W        W98970  35.955  39.825  10.683
33744W        W98971  32.425  36.101   3.844
33745W        W98972  28.131  26.130  12.930
33746W        W98973  35.778  20.047   3.742
33747W        W98974  34.594   8.141   4.022
33748W        W98975  43.592  19.661   0.718
33749W        W98976  17.827  37.440  12.631
33750W        W98977  20.039  40.405   1.294
33751W        W98978  19.626  10.739  13.812
33752W        W98979  31.152   9.840  12.153
33753W        W98980  17.984   2.187  11.915
33754W        W98981  39.758  22.831   4.125
33755W        W98982   7.707  38.013   2.297
33756W        W98983  25.202  24.518   1.274
33757W        W98984  13.377  15.133  13.784
33758W        W98985   7.525  16.142   0.987
33759W        W98986  23.172  32.143   0.940
33760W        W98987  28.144  40.367   0.793
33761W        W98988  32.316  12.860  11.822
33762W        W98989  13.074  40.827  10.753
33763W        W98990  28.094  26.714   4.110
33764W        W98991  28.188  40.005   1.942
33765W        W98992  31.490   4.740   4.070
33766W        W98993  20.776  43.754   0.263
33767W        W98994  15.841  38.928  10.923
33768W        W98995  24.146  17.108   2.666
33769W        W98996  14.731  42.801  13.992
33770W        W98997   2.377  33.442   4.788
33771W        W98998  19.588  44.233  13.994
33772W        W98999  23.684  28.611  13.931
33773W        W99000  29.841  23.214   4.476
33774W        W99001  32.876  21.457  14.776
33775W        W99002  32.429  35.806  12.163
33776W        W99003  41.351  22.095  11.259
33777W        W99004  24.069   2.069  14.074
33778W        W99005  38.411  23.492   1.688
33779W        W99006  31.923  37.400  10.754
33780W        W99007   3.762   5.428  11.661
33781W        W99008  16.775   9.838  14.751
33782W        W99009   4.738  30.249  13.006
33783W        W99010   1.752   6.382   3.254
33784W        W99011  25.869  43.397  11.516
33785W        W99012  41.100  32.929   2.018
33786W        W99013  13.158  15.449   0.822
33787W        W99014  33.862  29.974   3.754
33788W        W99015  35.184  26.160   4.068
33789W        W99016   0.335   4.683   0.411
33790W        W99017  36.039  19.757   1.224
33791W        W99018  44.382  26.422   2.342
33792W        W99019  41.401  26.081   3.663
33793W        W99020  34.446  30.075   3.165
33794W        W99021  23.649  26.149  13.388
33795W        W99022  35.091  32.282  11.178
33796W        W99023  40.915  41.797   1.182
33797W        W99024  33.912  12.337  14.334
33798W        W99025  12.595  25.481   4.569
33799W        W99026  41.020  23.088   1.208
33800W        W99027  36.995   9.883  10.624
33801W        W99028  16.870  33.560   0.341
33802W        W99029  14.693  41.886  14.094
33803W        W99030  10.626  19.134   4.116
33804W        W99031  29.489   4.536  14.781
33805W        W99032   6.313   6.892  14.012
33806W        W99033  23.431   6.051  13.018
33807W        W99034  12.905  44.195   0.407
33808W        W99035  32.890  17.603  10.992
33809W        W99036   9.378  37.872  11.127
33810W        W99037  40.142  35.564  12.322
33811W        W99038   9.368  12.412   1.164
33812W        W99039  31.333  35.944  14.513
33813W        W99040  41.459  32.151   2.566
33814W        W99041  35.561   6.458   0.977
33815W        W99042  23.639  29.860   1.318
33816W        W99043  26.505  11.699   1.285
33817W        W99044   3.354  32.989   9.992
33818W        W99045   1.874  23.923   4.639
33819W        W99046  25.698   2.899  14.917
33820W        W99047  39.508  21.974  12.879
33821W        W99048  35.756  44.555  12.029
33822W        W99049  29.413   7.865   2.686
33823W        W99050  28.536  19.333  14.824
33824W        W99051  41.838   2.418  11.146
33825W        W99052  33.391  25.075   1.798
33826W        W99053  44.358  38.860  14.877
33827W        W99054   8.567   2.756   0.001
33828W        W99055   7.015  20.107  12.438
33829W        W99056   3.711   8.287   1.872
33830W        W99057  44.007  22.655  10.102
33831W        W99058  43.342   5.896  10.620
33832W        W99059  36.175  22.586   4.646
33833W        W99060  37.452  19.930   1.325
33834W        W99061  12.080   6.183  12.106
33835W        W99062   7.853  25.573  12.521
33836W        W99063  15.579  32.034   3.683
33837W        W99064  28.204   8.051   3.378
33838W        W99065   8.823  26.233  12.240
33839W        W99066  25.722  44.749   3.943
33840W        W99067  42.584  40.961   3.455
33841W        W99068  23.646   9.953  12.401
33842W        W99069  39.835  40.196  13.535
33843W        W99070  18.699  32.832   2.540
33844W        W99071   0.887  43.532  11.762
33845W        W99072  23.490  38.097  12.572
33846W        W99073  19.600  17.136  11.173
33847W        W99074  20.148  30.199  13.882
33848W        W99075  36.505  40.053  14.666
33849W        W99076  30.198  40.073  14.500
33850W        W99077  11.801   6.323  14.090
33851W        W99078   3.330  14.699   5.370
33852W        W99079  19.543  39.072  13.526
33853W        W99080  36.296  44.319   3.336
33854W        W99081  40.350  28.210  10.764
33855W        W99082  31.916   8.929   1.404
33856W        W99083  35.878  18.636  13.085
33857W        W99084   6.448  32.928   0.695
33858W        W99085  43.463  37.309  11.539
33859W        W99086  10.378  44.859  12.205
33860W        W99087  15.205  13.176  12.446
33861W        W99088  13.763  14.266  12.474
33862W        W99089   0.905  25.493  11.761
33863W        W99090   9.179   8.161   4.215
33864W        W99091  11.656   5.172  11.191
33865W        W99092  44.097   2.747   3.790
33866W        W99093  23.129  24.689  11.621
33867W        W99094  25.015  34.136  13.807
33868W        W99095   8.675  25.307  14.008
33869W        W99096  25.628  21.897   0.330
33870W        W99097   5.120  11.651  11.708
33871W        W99098  19.801  19.806   5.095
33872W        W99099  44.164  21.936  13.030
33873W        W99100   4.312  28.244   3.708
33874W        W99101  32.397  43.733  11.871
33875W        W99102   3.864  29.547  12.946
33876W        W99103  16.197   3.463   1.351
33877W        W99104  44.516  22.017   4.990
33878W        W99105  39.827  28.489   4.212
33879W        W99106  24.934   4.388   4.739
33880W        W99107  32.318   7.683   4.876
33881W        W99108  19.614  26.611  13.488
33882W        W99109  15.542  28.986   0.993
33883W        W99110  13.698  37.365   3.229
33884W        W99111  20.131   1.478   1.874
33885W        W99112  15.535  14.749   2.824
33886W        W99113  21.342  30.634  14.300
33887W        W99114  28.073  25.396  10.297
33888W        W99115  41.366  23.808   3.157
33889W        W99116  42.402   3.000  11.428
33890W        W99117  36.893   0.989  13.012
33891W        W99118  23.957  35.519   0.232
33892W        W99119  37.193  38.120   3.451
33893W        W99120   2.713  18.699  10.538
33894W        W99121   4.527  20.972  11.544
33895W        W99122   4.795  32.992   3.194
33896W        W99123  41.891  34.148   4.026
33897W        W99124  14.347  16.220  13.039
33898W        W99125  16.784  33.574  11.594
33899W        W99126  35.147  21.390  11.521
33900W        W99127  25.633   3.209   2.078
33901W        W99128  35.042  33.583  10.154
33902W        W99129  21.839  12.145  12.869
33903W        W99130  17.562  41.935   3.607
33904W        W99131  30.627  38.036   0.262
33905W        W99132  26.507  31.064  12.592
33906W        W99133  34.819   9.204  11.957
33907W        W99134  41.343  11.885   5.020
33908W        W99135  44.072  17.406  11.613
33909W        W99136  33.405  28.702  13.303
33910W        W99137  11.207  28.212   1.025
33911W        W99138  30.526  14.098   3.033
33912W        W99139  31.808  23.563   1.243
33913W        W99140  26.087  13.722   0.423
33914W        W99141  26.762  22.251   1.724
33915W        W99142  28.652  16.330  12.391
33916W        W99143  17.254  42.361   4.440
33917W        W99144  11.996  31.142   3.283
33918W        W99145  40.098  13.540  11.964
33919W        W99146  15.832   6.002  12.544
33920W        W99147  21.814  28.029  11.971
33921W        W99148   0.729   5.334  11.467
33922W        W99149  22.189  41.536   4.068
33923W        W99150  11.340  20.037   4.568
33924W        W99151   3.194  43.738  13.888
33925W        W99152   6.264   2.309   2.362
33926W        W99153  36.730  22.885   1.367
33927W        W99154  44.075  33.451   5.254
33928W        W99155  26.245  21.296   3.868
33929W        W99156  36.130  25.279  12.391
33930W        W99157  13.322  17.221  12.208
33931W        W99158   4.349  20.685   1.160
33932W        W99159  27.020  15.745   3.749
33933W        W99160  43.751  28.672   1.646
33934W        W99161  44.670  11.857  11.768
33935W        W99162  26.010  40.138  12.890
33936W        W99163  10.085  19.393  12.517
33937W        W99164  37.346  29.185  12.400
33938W        W99165  21.651  34.704   0.808
33939W        W99166   2.751  40.018  14.073
33940W        W99167  30.670  41.813  13.780
33941W        W99168  31.032  29.849  13.911
33942W        W99169   3.614  16.358  13.098
33943W        W99170  14.020  15.300  10.671
33944W        W99171  22.759  10.155   1.060
33945W        W99172   3.841  10.855  12.158
33946W        W99173   9.947  34.399  11.702
33947W        W99174  18.334  17.113  13.602
33948W        W99175   3.743   2.083  14.005
33949W        W99176  36.588  18.521  11.222
33950W        W99177  30.299  36.649  14.885
33951W        W99178  37.381  13.697   3.784
33952W        W99179   7.385  21.810   4.024
33953W        W99180   9.422  25.017   0.703
33954W        W99181  12.854  43.603   1.783
33955W        W99182  16.304   7.923   1.371
33956W        W99183   3.670   3.417  14.581
33957W        W99184   7.114  19.761  13.019
33958W        W99185  42.789  30.425   1.112
33959W        W99186  35.367  18.710  14.783
33960W        W99187  33.348  23.678   2.898
33961W        W99188  13.138   2.858  13.049
33962W        W99189  26.082  22.543   4.704
33963W        W99190  10.838  39.939  12.367
33964W        W99191  16.788  30.395  14.719
33965W        W99192  33.015  42.804   0.398
33966W        W99193   1.908  35.059  11.463
33967W        W99194  24.198  27.495  11.155
33968W        W99195  19.827  34.495  14.992
33969W        W99196  13.066  13.323   2.542
33970W        W99197   9.116   9.306   1.753
33971W        W99198  28.136  32.565  14.036
33972W        W99199  28.151  15.570  11.597
33973W        W99200  37.408  33.507  13.719
33974W        W99201  35.150   5.010   5.390
33975W        W99202  33.809  31.283  12.136
33976W        W99203  30.177  30.405  11.075
33977W        W99204  15.326   7.624  12.051
33978W        W99205  32.518  31.902  11.531
33979W        W99206  27.164  20.801   0.800
33980W        W99207  24.259  37.023   1.881
33981W        W99208  41.444  12.764  12.387
33982W        W99209  23.632   4.054  14.896
33983W        W99210  21.956   1.277   2.097
33984W        W99211  28.705  15.615   2.637
33985W        W99212  24.743  37.453  13.392
33986W        W99213  44.310  14.729  13.495
33987W        W99214   9.348  34.472   1.019
33988W        W99215   8.600  25.469  14.849
33989W        W99216  34.736   2.638  13.636
33990W        W99217   9.226  13.863   0.796
33991W        W99218  24.629   6.377   4.920
33992W        W99219  31.350  10.026   4.933
33993W        W99220  38.504  38.459  14.437
33994W        W99221  37.961   1.193  13.069
33995W        W99222   8.289  17.286   3.897
33996W        W99223   5.716   2.486   3.185
33997W        W99224   2.136  10.640  14.797
33998W        W99225   1.998   2.804  10.673
33999W        W99226  20.555  25.455   4.687
34000W        W99227  44.454  12.719   1.761
34001W        W99228  38.400   2.248   3.263
34002W        W99229  19.059  17.213  14.143
34003W        W99230   4.088   1.136   4.598
34004W        W99231  11.561  41.041   2.310
34005W        W99232  27.091  22.473  14.486
34006W        W99233   2.715  17.789   0.540
34007W        W99234  34.866  25.663  13.028
34008W        W99235  16.857  14.056   2.259
34009W        W99236  13.233   3.174  13.474
34010W        W99237   4.208  15.367  13.427
34011W        W99238  28.874  22.237  13.704
34012W        W99239  40.959  32.747   2.961
34013W        W99240  17.454   3.733  13.650
34014W        W99241  23.613   5.775   3.313
34015W        W99242  22.845  22.172   2.452
34016W        W99243  38.987  23.603   0.007
34017W        W99244  24.479  25.965   3.079
34018W        W99245  23.779  31.648   1.198
34019W        W99246  20.511   1.503   4.290
34020W        W99247  29.492  15.634  14.995
34021W        W99248  32.988   5.691  14.024
34022W        W99249   7.356  44.367   4.120
34023W        W99250  17.632   5.785   0.080
34024W        W99251  41.794   1.533  10.152
34025W        W99252  20.472   9.808  11.602
34026W        W99253   4.339  19.828   0.852
34027W        W99254   2.252  29.387   0.723
34028W        W99255   6.907  19.562   0.891
34029W        W99256  17.004  33.431   0.819
34030W        W99257   2.677  20.154   4.549
34031W        W99258  27.921  29.432   0.318
34032W        W99259  29.720  17.284   1.290
34033W        W99260   4.709  17.080   2.166
34034W        W99261  32.613  35.429  13.910
34035W        W99262  41.534  42.585   1.910
34036W        W99263  29.525  29.800   0.835
34037W        W99264   4.061  14.990  11.012
34038W        W99265  41.004  28.519   0.855
34039W        W99266   4.189  34.715   1.465
34040W        W99267  26.992  29.917  14.124
34041W        W99268  38.289  22.595  11.983
34042W        W99269  37.970  23.253  14.506
34043W        W99270  11.089  43.921   4.032
34044W        W99271  41.571  44.993  13.934
34045W        W99272   7.967  11.142  12.219
34046W        W99273  42.209  17.626  12.319
34047W        W99274  35.175  17.674  10.714
34048W        W99275  25.675  36.178   4.622
34049W        W99276  18.045  35.599  13.918
34050W        W99277  19.544  27.979   4.175
34051W        W99278  11.565  44.431   1.931
34052W        W99279  44.568  32.861  10.294
34053W        W99280  10.221  26.163  10.012
34054W        W99281   2.585  11.745   0.996
34055W        W99282  18.650  14.562   1.772
34056W        W99283  29.618  29.501  14.168
34057W        W99284  34.646  43.369  13.931
34058W        W99285  27.213   5.667   2.389
34059W        W99286  32.600   2.844   2.135
34060W        W99287  12.676  27.163   3.226
34061W        W99288  22.696  24.736   3.121
34062W        W99289  24.103  30.749   4.992
34063W        W99290  18.311  43.015   3.621
34064W        W99291  32.688   6.694   1.964
34065W        W99292  14.605  40.536  12.823
34066W        W99293  41.903  39.048  11.635
34067W        W99294  25.253  36.118   2.525
34068W        W99295   7.995  29.292  12.912
34069W        W99296  32.632  36.728   0.008
34070W        W99297  16.108  24.936   0.828
34071W        W99298  33.886  27.993  13.438
34072W        W99299  33.866  30.006   2.371
34073W        W99300  36.784   9.613  10.997
34074W        W99301  18.236  34.092   4.597
34075W        W99302   8.223  37.101   2.868
34076W        W99303  16.562  42.328  13.440
34077W        W99304  36.791  19.685  10.642
34078W        W99305  12.370  11.277  14.116
34079W        W99306  24.585  15.291   2.969
34080W        W99307  14.579  36.044  11.602
34081W        W99308  15.743   6.438  10.507
34082W        W99309  27.897   3.082   0.351
34083W        W99310  37.951  36.528   0.442
34084W        W99311  38.940   3.273  12.409
34085W        W99312   9.180  42.685  14.032
34086W        W99313   4.245  19.341  13.023
34087W        W99314  30.254   2.014   1.772
34088W        W99315  12.903  15.751  12.937
34089W        W99316  42.590   3.805   0.352
34090W        W99317   1.006  14.976   3.594
34091W        W99318  38.074  10.367   1.134
34092W        W99319   5.318  42.248   3.658
34093W        W99320  17.266  36.566   0.785
34094W        W99321   1.472  13.776   0.825
34095W        W99322  44.838  15.110  14.739
34096W        W99323   7.754  14.276   3.175
34097W        W99324   6.009  36.669  11.685
34098W        W99325  19.696   1.990  13.884
34099W        W99326  15.266  27.820  14.467
34100W        W99327   8.923   3.453  13.491
34101W        W99328  19.004  41.188  12.534
34102W        W99329  39.416  31.562  11.737
34103W        W99330   3.173  13.780   3.980
34104W        W99331  19.738  37.069   2.925
34105W        W99332  41.440  24.768  12.550
34106W        W99333  29.543  26.543   0.090
34107W        W99334  29.077  42.330  10.669
34108W        W99335  14.428   5.736  14.257
34109W        W99336  37.300   6.502  10.114
34110W        W99337  33.230  40.364  13.929
34111W        W99338  16.277  16.500   3.687
34112W        W99339  31.394  35.342   4.493
34113W        W99340  33.613  34.402  11.210
34114W        W99341  25.737   8.719  11.096
34115W        W99342  40.493  39.474   0.693
34116W        W99343  40.558  43.650  14.893
34117W        W99344  19.602  31.574  13.604
34118W        W99345  28.651   0.508  12.426
34119W        W99346  43.323  26.704  12.074
34120W        W99347   5.489  32.471   4.528
34121W        W99348   1.874  39.627  14.916
34122W        W99349  34.607  40.867   1.777
34123W        W99350  36.299  12.076   3.796
34124W        W99351  28.824  10.799  13.356
34125W        W99352  21.221   8.386   0.238
34126W        W99353  33.294  16.680  12.122
34127W        W99354  41.599  31.865  14.897
34128W        W99355   9.051  27.731   3.179
34129W        W99356  10.881  17.070  13.301
34130W        W99357  35.631  17.545   4.479
34131W        W99358  32.226  33.596   0.368
34132W        W99359  43.916  38.894  11.237
34133W        W99360  43.740  28.415   5.655
34134W        W99361  35.446  34.139  12.085
34135W        W99362  34.631  31.530  14.505
34136W        W99363   5.079  40.578  11.593
34137W        W99364   7.716  40.908  11.562
34138W        W99365  19.434  30.811   3.682
34139W        W99366  40.512   1.518  14.018
34140W        W99367   5.367  18.754  13.817
34141W        W99368  25.505  11.941   2.398
34142W        W99369   6.488  19.622   4.145
34143W        W99370   7.852   1.498  12.263
34144W        W99371  43.781  44.372  13.612
34145W        W99372  19.865   0.621   1.481
34146W        W99373  31.217  41.999   2.674
34147W        W99374   4.813  29.532  11.700
34148W        W99375  26.497   9.404  11.558
34149W        W99376  18.752  15.220  12.836
34150W        W99377  32.820  31.521  13.025
34151W        W99378  30.527  44.224  10.714
34152W        W99379  44.445  26.617  13.885
34153W        W99380  21.442  11.552   1.655
34154W        W99381   3.168  14.138   0.817
34155W        W99382  27.128  33.715  11.611
34156W        W99383  13.147  24.528   4.349
34157W        W99384  44.360  25.404   3.277
34158W        W99385  20.161  31.763  11.886
34159W        W99386  13.727  20.312  10.659
34160W        W99387  12.703  19.121   3.751
34161W        W99388  35.434   2.199  11.585
34162W        W99389  14.358  18.391  13.988
34163W        W99390  41.597  11.895  13.791
34164W        W99391  40.816   2.843  14.425
34165W        W99392  31.031  25.915   3.649
34166W        W99393  27.764  22.665   4.046
34167W        W99394  28.022  14.846  10.900
34168W        W99395  19.325  43.371   4.062
34169W        W99396  38.798   0.765  12.532
34170W        W99397  12.224  14.917  11.078
34171W        W99398  35.051  27.894   0.241
34172W        W99399  24.811  38.464  11.214
34173W        W99400   2.330  39.175  10.979
34174W        W99401  37.994  30.461   0.774
34175W        W99402  34.567  37.596  10.584
34176W        W99403  36.059  44.781   0.231
34177W        W99404  25.706  22.271   2.931
34178W        W99405  36.266  40.704   5.108
34179W        W99406  10.883   0.460   2.388
34180W        W99407  20.032  21.695   3.128
34181W        W99408   2.023   6.226   2.819
34182W        W99409  23.698  43.525  10.558
34183W        W99410   8.280  31.654  12.980
34184W        W99411  26.130  27.907  14.387
34185W        W99412  42.960   3.220   2.751
34186W        W99413  25.552  14.037   4.053
34187W        W99414  40.763  13.616  11.113
34188W        W99415  16.667  35.567  11.519
34189W        W99416   0.852  21.365  12.853
34190W        W99417   9.763  25.225  11.124
34191W        W99418  25.068  39.170  10.812
34192W        W99419  20.220   1.367  11.926
34193W        W99420  21.050  32.591   1.946
34194W        W99421   8.085  36.161   1.476
34195W        W99422  21.443  32.417  11.185
34196W        W99423  42.465  32.244  12.474
34197W        W99424  28.183  23.304  13.793
34198W        W99425  40.157  42.666  14.890
34199W        W99426   3.292  40.056  10.504
34200W        W99427  22.074  32.781   1.915
34201W        W99428  26.368  43.858   3.390
34202W        W99429  37.747  39.984  13.880
34203W        W99430  12.340  37.755   0.829
34204W        W99431  20.547  20.047  14.042
34205W        W99432  32.516   7.966  13.920
34206W        W99433  40.854  33.773   0.914
34207W        W99434  30.696   4.766   0.813
34208W        W99435  19.736  36.533   1.334
34209W        W99436  24.944   5.361   2.740
34210W        W99437  24.632  17.993   4.009
34211W        W99438   5.507  19.088  12.090
34212W        W99439  14.914  35.207   2.053
34213W        W99440  29.142  11.497  12.138
34214W        W99441  44.739  14.133  11.993
34215W        W99442   8.662  34.990  14.346
34216W        W99443  29.642  38.395   1.186
34217W        W99444  31.467  16.596   2.667
34218W        W99445  28.932  24.744   4.099
34219W        W99446  27.114  33.842  12.633
34220W        W99447  30.320  41.489   0.632
34221W        W99448  29.574  15.615  14.477
34222W        W99449  32.588   1.374  13.423
34223W        W99450  24.955  40.386   4.984
34224W        W99451   8.871   7.971  13.610
34225W        W99452  22.292   8.340   2.608
34226W        W99453  17.250  11.885   2.738
34227W        W99454  23.753  22.543   0.619
34228W        W99455  20.778  17.042  12.873
34229W        W99456  14.857  33.397   4.078
34230W        W99457   4.887  25.688  14.808
34231W        W99458   8.369   1.011  10.768
34232W        W99459  17.122  43.882   3.065
34233W        W99460  42.765  42.132   2.811
34234W        W99461  19.187  38.020   0.672
34235W        W99462  25.076  13.919   0.742
34236W        W99463   8.974  38.562  10.836
34237W        W99464  37.959   5.836   0.491
34238W        W99465  16.564  22.401  13.419
34239W        W99466   3.992  37.575   3.769
34240W        W99467  39.391  27.741   3.299
34241W        W99468  14.486   2.287   1.347
34242W        W99469   8.638  18.400   4.518
34243W        W99470  33.141  21.643  14.388
34244W        W99471  25.222   1.776   2.196
34245W        W99472  37.946  29.184   0.525
34246W        W99473  21.532  19.034   3.451
34247W        W99474  32.821  11.512  11.921
34248W        W99475   6.636   3.544   3.164
34249W        W99476  28.428  33.935   4.840
34250W        W99477  22.817  17.584  14.052
34251W        W99478  27.248   4.754   0.403
34252W        W99479  20.353   1.370   0.519
34253W        W99480  43.507   1.197  10.525
34254W        W99481  28.080  38.073  14.166
34255W        W99482   9.180  28.137   4.921
34256W        W99483  30.847  37.138  12.437
34257W        W99484  30.252  43.344   3.355
34258W        W99485  37.580  28.568  13.611
34259W        W99486  33.979  16.128  13.188
34260W        W99487   1.333  43.962  11.941
34261W        W99488   2.360   7.093  13.920
34262W        W99489  39.074  10.131   4.117
34263W        W99490  13.642  43.872   3.158
34264W        W99491  15.760  25.495   2.769
34265W        W99492  39.877  22.305   0.855
34266W        W99493  23.695  13.065  13.979
34267W        W99494  12.238  13.308   4.746
34268W        W99495  18.641  29.197  13.530
34269W        W99496  32.670  20.126   4.366
34270W        W99497  24.072  17.768  13.380
34271W        W99498  15.696   1.982  12.848
34272W        W99499   9.927  22.522   3.354
34273W        W99500   4.717  32.496   4.083
34274W        W99501   2.898   0.634  13.078
34275W        W99502  38.919  10.249   3.657
34276W        W99503  31.505  20.968   4.628
34277W        W99504  19.827  20.117   1.858
34278W        W99505  11.647  41.821  11.048
34279W        W99506   6.635  32.106  12.616
34280W        W99507  43.407  19.534  13.282
34281W        W99508  32.373  41.201  12.525
34282W        W99509  28.045  25.008  14.482
34283W        W99510  44.867   6.275  11.123
34284W        W99511  24.403  26.679  13.068
34285W        W99512  14.686  29.403  12.143
34286W        W99513  22.853  40.581   4.357
34287W        W99514   2.139  35.782  14.387
34288W        W99515  44.348  12.147   1.136
34289W        W99516  44.449  18.610  14.866
34290W        W99517  15.680  24.684   1.286
34291W        W99518  27.952  29.700  11.462
34292W        W99519  17.611  19.141   0.990
34293W        W99520  35.803  18.507   3.703
34294W        W99521  12.126  13.219   1.640
34295W        W99522   3.958   5.600  11.234
34296W        W99523  30.025   7.190  14.564
34297W        W99524   5.915   1.995   3.238
34298W        W99525  21.101  22.267  12.068
34299W        W99526  20.143  29.633   3.772
34300W        W99527  15.207   5.861   4.180
34301W        W99528  27.962   5.082   3.318
34302W        W99529  32.728  34.151  14.461
34303W        W99530  42.825  17.431   4.041
34304W        W99531  10.516  27.170  14.071
34305W        W99532   2.016   2.150  12.408
34306W        W99533  40.317  17.343  11.399
34307W        W99534  36.422  43.336  11.116
34308W        W99535  42.230  31.614   0.940
34309W        W99536  18.269   3.207   1.339
34310W        W99537  39.330   5.167   9.895
34311W        W99538   3.892  32.084   1.784
34312W        W99539  28.476  22.176   4.387
34313W        W99540  16.813  32.457  13.477
34314W        W99541  37.586   4.435  14.916
34315W        W99542  21.420  37.473   2.839
34316W        W99543  35.166  20.004  11.602
34317W        W99544  20.177  18.712  13.074
34318W        W99545   0.418  25.979   3.678
34319W        W99546  36.630  22.515  11.736
34320W        W99547  20.070  23.481   0.751
34321W        W99548   7.680   1.545   1.161
34322W        W99549  43.468   8.259   4.272
34323W        W99550  31.890  10.732  14.027
34324W        W99551   8.921  33.102   0.829
34325W        W99552  42.435  27.362  14.020
34326W        W99553  16.422  39.171  14.843
34327W        W99554  35.818   6.685   4.563
34328W        W99555  19.649   3.842   2.844
34329W        W99556   9.208  34.196   1.453
34330W        W99557  37.748  15.341  13.981
34331W        W99558  44.843  42.815   0.979
34332W        W99559  31.333  37.383  11.558
34333W        W99560  29.724  10.406   1.267
34334W        W99561  12.658  40.726  13.188
34335W        W99562  15.196  19.801  12.552
34336W        W99563  30.319  17.830   2.766
34337W        W99564  27.539   1.828  10.245
34338W        W99565  43.564   1.561  12.557
34339W        W99566  36.447  30.615   4.104
34340W        W99567  38.472  25.456   1.967
34341W        W99568   2.978  19.809   0.336
34342W        W99569   6.776  41.737  12.579
34343W        W99570  30.402  24.190   4.097
34344W        W99571  17.092  36.873  12.505
34345W        W99572  40.246  33.387   1.410
34346W        W99573  37.764  41.019   2.918
34347W        W99574   0.241  24.167  12.838
34348W        W99575   6.433  39.142   1.798
34349W        W99576  41.351  36.995   3.611
34350W        W99577  16.393  26.113   1.201
34351W        W99578  33.058  21.514  13.535
34352W        W99579   0.352  24.746   9.987
34353W        W99580  19.848   3.858  12.111
34354W        W99581  44.587  25.676  11.655
34355W        W99582   8.720  40.434  11.057
34356W        W99583  13.664   3.504   2.281
34357W        W99584  23.139   6.735   4.090
34358W        W99585  43.954  33.694   2.408
34359W        W99586  23.025  28.191   4.843
34360W        W99587  37.564  14.201   3.755
34361W        W99588  39.542   4.242  14.281
34362W        W99589  23.738  31.877   1.749
34363W        W99590  14.897  16.288  12.456
34364W        W99591  25.286  26.235   1.265
34365W        W99592  33.131  14.020   0.450
34366W        W99593  15.971  10.845   3.359
34367W        W99594  31.651  26.827   1.223
34368W        W99595  15.091  22.152   2.847
34369W        W99596  36.212  22.754   0.298
34370W        W99597  33.700   6.904   2.184
34371W        W99598  33.891   8.599   4.892
34372W        W99599   5.333   1.257   0.008
34373W        W99600  33.130  25.699   3.977
34374W        W99601  44.507  33.132   1.004
34375W        W99602  19.008  21.204  14.944
34376W        W99603  17.804   9.897   0.488
34377W        W99604  31.507   4.234   4.046
34378W        W99605   3.369  20.029   3.765
34379W        W99606  20.839   6.686  13.481
34380W        W99607  26.838  42.831   4.070
34381W        W99608  40.246  17.056  13.950
34382W        W99609   8.279  19.832   0.925
34383W        W99610  34.715  26.197   2.460
34384W        W99611  38.334  18.287  14.788
34385W        W99612  29.356  17.244   4.690
34386W        W99613  39.040  29.675   4.616
34387W        W99614   4.550  27.196   1.607
34388W        W99615   2.182  31.027  12.361
34389W        W99616  27.952  13.720  12.248
34390W        W99617  15.153  30.005  11.552
34391W        W99618  33.099  33.368   0.158
34392W        W99619   6.728  19.180  14.321
34393W        W99620  18.503   6.802   0.332
34394W        W99621  12.739  10.670  11.224
34395W        W99622  36.476  37.190  12.471
34396W        W99623   2.678  38.079   3.549
34397W        W99624  21.748   1.683   2.740
34398W        W99625   9.861  40.526  12.905
34399W        W99626  44.730  29.956   3.187
34400W        W99627   8.407  35.085  11.563
34401W        W99628  11.431  26.148   3.730
34402W        W99629  30.708  17.635   0.412
34403W        W99630  40.835  17.591   0.234
34404W        W99631  35.087   4.224  13.236
34405W        W99632  44.490   6.711   2.105
34406W        W99633  26.468  21.965  14.433
34407W        W99634  33.615  22.077   1.961
34408W        W99635  19.309   4.503  13.607
34409W        W99636  42.563  39.263  12.419
34410W        W99637  11.966  25.754   1.479
34411W        W99638  20.181  43.840   2.127
34412W        W99639  19.308  29.637  11.480
34413W        W99640  40.523   4.869   4.769
34414W        W99641  22.503  38.025   0.712
34415W        W99642  29.035  25.982  12.079
34416W        W99643  35.468  26.656  10.969
34417W        W99644  28.524  11.124   2.818
34418W        W99645   1.244  23.110  13.499
34419W        W99646  23.683  33.356  14.849
34420W        W99647  17.689  14.573  14.513
34421W        W99648  39.794  26.958   4.554
34422W        W99649  44.282   4.839   2.253
34423W        W99650  39.144  41.411   5.114
34424W        W99651  30.569   4.532  13.229
34425W        W99652  34.601  41.417   4.591
34426W        W99653  16.537   3.815   1.098
34427W        W99654  31.021  32.107  13.048
34428W        W99655  16.944  43.277  12.047
34429W        W99656  20.648  36.506   3.910
34430W        W99657  44.984  34.948  14.090
34431W        W99658  17.664  16.371  13.782
34432W        W99659  26.499  15.988   0.783
34433W        W99660  20.176  29.965   1.910
34434W        W99661  33.526   5.277   3.247
34435W        W99662  19.654  35.918  12.518
34436W        W99663  39.285  44.946   2.827
34437W        W99664  29.915  42.445   3.788
34438W        W99665  41.770  34.460   2.221
34439W        W99666  13.327   3.301  14.375
34440W        W99667  24.298  31.701  12.317
34441W        W99668  30.549  15.182  12.541
34442W        W99669  20.503  15.841  13.386
34443W        W99670  14.250   6.885  14.718
34444W        W99671  26.653  23.481  11.219
34445W        W99672   4.751   2.251   3.763
34446W        W99673   3.749   9.239   1.804
34447W        W99674  29.155  43.471   4.892
34448W        W99675   4.196  21.695  14.479
34449W        W99676  22.330  29.399  13.454
34450W        W99677   2.026  23.410  12.309
34451W        W99678   3.206  44.259  13.025
34452W        W99679   6.475  32.393  14.842
34453W        W99680  29.027  27.887   1.779
34454W        W99681  32.019  17.244  12.817
34455W        W99682  18.210  19.079  13.756
34456W        W99683  14.349  15.664  11.245
34457W        W99684  23.625   9.691   4.371
34458W        W99685   5.564   1.531  10.108
34459W        W99686  42.489  43.621   3.851
34460W        W99687  10.812  42.505  13.442
34461W        W99688   3.424  43.755  11.637
34462W        W99689  25.927  25.046   1.750
34463W        W99690  26.009  41.042  14.860
34464W        W99691   4.902  15.092  11.177
34465W        W99692  37.283  30.049  13.861
34466W        W99693  35.597  33.108   0.798
34467W        W99694   9.805  11.911  10.530
34468W        W99695  39.598  43.722   1.765
34469W        W99696  19.332  22.186   2.806
34470W        W99697   8.001  34.366   3.890
34471W        W99698  44.028  20.755   4.439
34472W        W99699  30.876  40.366  14.568
34473W        W99700  37.650  11.854  10.443
34474W        W99701  35.069   5.918   3.820
34475W        W99702  30.489  18.673   1.354
34476W        W99703  39.738   7.864  14.248
34477W        W99704  31.821  42.592   4.848
34478W        W99705  32.813  22.297   0.649
34479W        W99706   9.085  37.048   1.159
34480W        W99707  16.879  28.546   1.884
34481W        W99708  32.060  28.306   1.721
34482W        W99709  32.616   3.804   1.198
34483W        W99710   7.644   7.118  14.774
34484W        W99711  13.830  34.574   4.147
34485W        W99712  12.338  19.524  12.903
34486W        W99713  13.340  38.356  11.565
34487W        W99714  42.020  39.026  13.470
34488W        W99715  39.414  12.449   3.786
34489W        W99716   7.766  37.426   1.175
34490W        W99717  31.535  11.132  11.956
34491W        W99718  33.420  14.998   2.377
34492W        W99719  38.251   1.976  14.171
34493W        W99720  27.547  23.746   2.201
34494W        W99721  13.029  43.326   2.231
34495W        W99722   9.665  11.753  13.426
34496W        W99723  38.540  12.120   3.628
34497W        W99724   3.800  37.921   1.488
34498W        W99725  38.044  25.278   1.718
34499W        W99726  31.095  16.829  11.279
34500W        W99727  27.316  43.938  10.149
34501W        W99728  39.542   6.531  10.571
34502W        W99729  13.854  44.704  14.346
34503W        W99730   8.682  10.280   4.911
34504W        W99731  42.817  17.935   2.244
34505W        W99732  30.967  16.726  10.796
34506W        W99733   6.462  14.157   1.750
34507W        W99734  31.064   7.547  12.190
34508W        W99735  44.924  30.363   4.450
34509W        W99736   7.743   3.694   0.782
34510W        W99737  21.491   9.763   2.213
34511W        W99738  21.147  41.915  11.011
34512W        W99739  41.144  41.885  10.605
34513W        W99740  39.995   7.884   5.184
34514W        W99741  17.191  27.574   1.311
34515W        W99742  24.085  28.158   2.880
34516W        W99743   8.580   2.471   4.262
34517W        W99744  38.838  43.059   1.991
34518W        W99745  34.524  11.319  11.517
34519W        W99746  35.011  20.584   2.753
34520W        W99747  11.599  24.449   0.905
34521W        W99748  32.992  17.315   2.166
34522W        W99749  25.708  41.878   3.432
34523W        W99750  35.808   3.701  11.995
34524W        W99751  21.765   9.140  10.673
34525W        W99752   4.236  23.884  11.541
34526W        W99753  36.575   9.867  13.480
34527W        W99754  17.666  16.115  12.852
34528W        W99755  35.534  35.729  12.066
34529W        W99756  26.867  23.869   3.980
34530W        W99757  18.638  33.821   0.052
34531W        W99758  33.697  27.547   5.065
34532W        W99759  44.241  30.404   4.029
34533W        W99760  23.249  18.232   0.347
34534W        W99761  28.832  16.693  12.030
34535W        W99762  34.556  33.231  14.885
34536W        W99763   2.938  28.993  14.266
34537W        W99764   0.450  44.521   3.556
34538W        W99765  16.271  15.401  11.674
34539W        W99766  44.564  14.716  13.934
34540W        W99767   7.010   4.325   3.479
34541W        W99768  11.719  29.168   3.668
34542W        W99769  12.323  29.590  11.475
34543W        W99770  25.206   8.858  12.867
34544W        W99771  10.758  36.559   2.321
34545W        W99772  31.116  21.041   3.057
34546W        W99773  38.423  22.795  10.670
34547W        W99774  13.063   8.678  14.137
34548W        W99775  20.490  28.798   3.592
34549W        W99776   0.041  29.386  13.464
34550W        W99777  29.041   5.831   4.713
34551W        W99778   7.111   7.101  12.872
34552W        W99779  11.339  16.497   1.357
34553W        W99780  20.079  21.759   4.775
34554W        W99781  12.172  29.580  13.802
34555W        W99782  32.487  10.326  10.674
34556W        W99783  33.861   1.365   0.307
34557W        W99784  22.131  40.494  14.087
34558W        W99785  34.411  16.063  14.445
34559W        W99786   5.926  19.692  14.414
34560W        W99787  37.054  31.932   0.806
34561W        W99788   7.334  16.878  12.986
34562W        W99789  34.041  21.498  10.575
34563W        W99790  36.846  32.115  14.282
34564W        W99791   6.361  30.143  11.634
34565W        W99792  20.363  41.017   1.326
34566W        W99793  20.723  22.605  13.407
34567W        W99794   5.845  31.972   1.396
34568W        W99795   2.249   5.667  13.525
34569W        W99796   2.295  30.678   4.453
34570W        W99797   0.449  35.336   1.682
34571W        W99798  13.114   1.075  11.663
34572W        W99799  16.661  29.673  10.711
34573W        W99800  20.535  27.618  12.061
34574W        W99801  18.028   6.334   2.322
34575W        W99802  18.796  22.338  12.065
34576W        W99803  32.515   5.271  10.768
34577W        W99804   6.119   5.222  14.019
34578W        W99805  33.912  21.566   2.356
34579W        W99806  31.591   6.108   1.465
34580W        W99807  28.705  30.056   4.180
34581W        W99808   5.916  25.074   0.275
34582W        W99809  25.266  33.661  12.430
34583W        W99810  11.224  20.952   3.280
34584W        W99811  43.228  19.243   0.503
34585W        W99812  39.200  29.557  14.498
34586W        W99813  39.608  44.997  10.794
34587W        W99814  23.229  11.877   4.029
34588W        W99815  32.176  43.924  13.017
34589W        W99816  20.274  33.297  12.183
34590W        W99817  37.305  30.713   2.810
34591W        W99818   1.091   6.883  12.515
34592W        W99819  16.471  11.954   3.212
34593W        W99820  23.541   5.198  10.702
34594W        W99821  16.642  10.253   1.382
34595W        W99822   4.516  31.074  11.934
34596W        W99823  42.515  16.779   0.436
34597W        W99824  39.279   2.133  14.863
34598W        W99825   1.293  40.933  14.649
34599W        W99826  44.297   5.933   1.382
34600W        W99827  42.151   8.656  14.746
34601W        W99828  15.152  29.882  14.362
34602W        W99829  21.636  43.226   4.594
34603W        W99830   7.019   2.470  12.895
34604W        W99831  14.594   2.819  11.112
34605W        W99832  33.539   9.184   4.146
34606W        W99833  26.187  15.663  12.171
34607W        W99834  42.845  13.393   3.189
34608W        W99835  44.415  40.442  11.680
34609W        W99836   1.531  42.229   4.428
34610W        W99837  20.267  20.814  10.765
34611W        W99838  19.461  17.662   0.476
34612W        W99839  20.232  25.188  11.546
34613W        W99840  34.558  40.536  10.508
34614W        W99841   6.412  41.741   2.829
34615W        W99842  35.811   5.000   0.819
34616W        W99843  14.870   2.777  14.451
34617W        W99844  20.201  18.323   0.306
34618W        W99845  25.694   2.882  11.967
34619W        W99846   6.406  25.678  12.200
34620W        W99847   7.790  20.061   0.681
34621W        W99848  25.444  33.510  10.073
34622W        W99849  43.514   9.365  10.586
34623W        W99850  32.178  27.267   2.617
34624W        W99851  15.051  18.054  11.675
34625W        W99852  35.984  42.068   2.807
34626W        W99853  29.955  11.282  13.831
34627W        W99854  15.014  14.708   2.841
34628W        W99855  28.769  32.105   0.477
34629W        W99856  40.001  19.629   2.327
34630W        W99857  19.550  19.046   1.476
34631W        W99858  43.017   1.769  10.322
34632W        W99859  33.932  37.959   3.137
34633W        W99860   9.401  33.819   5.419
34634W        W99861  38.517  27.800  14.287
34635W        W99862   8.873   7.215  14.277
34636W        W99863   0.357   2.582   4.232
34637W        W99864   5.769  15.250  10.396
34638W        W99865  18.306   4.308   2.207
34639W        W99866  19.648  13.856  11.092
34640W        W99867  43.231  12.086   3.239
34641W        W99868  22.008   9.075   2.193
34642W        W99869  34.403  40.480  12.920
34643W        W99870   2.487  41.806   9.848
34644W        W99871  23.209  15.433   1.178
34645W        W99872  29.601  24.613  10.649
34646W        W99873  43.158  44.430   4.909
34647W        W99874  14.183  20.889   1.941
34648W        W99875  37.073  42.039  12.075
34649W        W99876  30.731  13.115   2.316
34650W        W99877  10.253  12.874   0.412
34651W        W99878  41.576  30.022  11.581
34652W        W99879  10.595  23.056  13.625
34653W        W99880  28.500  20.060   2.426
34654W        W99881  41.865  10.796   2.177
34655W        W99882  32.078  28.541   0.741
34656W        W99883  23.494  13.252  12.877
34657W        W99884  24.208  18.320   5.267
34658W        W99885  11.663   2.886  14.493
34659W        W99886   3.679  12.432  14.984
34660W        W99887  38.934  17.533  10.464
34661W        W99888  36.226   2.345  11.337
34662W        W99889  39.558  10.485   1.673
34663W        W99890   2.422  32.592   0.794
34664W        W99891  41.518   5.933   1.984
34665W        W99892  12.227  27.135   2.688
34666W        W99893  44.292  23.637   3.568
34667W        W99894  20.991  19.752   1.889
34668W        W99895  16.771  22.337   2.695
34669W        W99896  29.157  27.289   3.177
34670W        W99897  17.861   2.412   0.325
34671W        W99898  11.799  27.988  13.449
34672W        W99899  34.049  27.947  11.159
34673W        W99900  31.409  35.520  10.724
34674W        W99901  35.829   0.268   3.239
34675W        W99902  12.173  26.364  13.140
34676W        W99903  39.793   7.303  13.987
34677W        W99904  14.026  39.417   2.760
34678W        W99905  33.751  40.432   1.697
34679W        W99906   6.829   3.313   2.163
34680W        W99907  27.208  39.820   1.875
34681W        W99908  37.360  18.840  11.652
34682W        W99909  12.708  43.470  11.219
34683W        W99910  26.499  15.525  14.380
34684W        W99911   9.822  37.041  12.452
34685W        W99912  28.458   3.690  12.606
34686W        W99913  28.095  17.576   3.657
34687W        W99914  22.588  44.767   4.105
34688W        W99915  12.410  31.996  14.855
34689W        W99916  10.331   8.836  13.220
34690W        W99917  21.570  33.337  14.452
34691W        W99918   2.860  29.082   4.111
34692W        W99919  24.788   1.710  14.542
34693W        W99920  31.515  26.221  12.082
34694W        W99921   8.450   9.858   1.380
34695W        W99922  29.900  18.329  11.080
34696W        W99923  36.596  27.151   2.338
34697W        W99924  26.637  13.899   0.420
34698W        W99925   1.157  42.728   3.817
34699W        W99926  16.033   9.391  11.792
34700W        W99927  39.242  42.296  10.730
34701W        W99928   8.852  12.423   0.391
34702W        W99929  15.045  14.288   1.213
34703W        W99930  28.955  17.826  12.565
34704W        W99931  11.573  43.784   4.119
34705W        W99932  37.032   1.760  12.578
34706W        W99933  43.011  22.471  13.480
34707W        W99934  31.202   8.775  13.905
34708W        W99935   5.623  20.758   2.843
34709W        W99936  33.315  41.056  11.599
34710W        W99937  13.830  29.409  11.197
34711W        W99938  41.513   1.991  13.098
34712W        W99939  10.128  39.756  14.509
34713W        W99940  10.597   1.111  13.454
34714W        W99941  24.401  24.932   4.663
34715W        W99942  27.595  12.094  10.636
34716W        W99943  11.781  35.317  11.971
34717W        W99944  11.826  14.079   2.309
34718W        W99945   5.456  33.555  11.931
34719W        W99946  29.348  39.970  11.935
34720W        W99947  23.613  16.189  11.600
34721W        W99948  30.565  35.429  12.386
34722W        W99949   8.683   9.687  12.490
34723W        W99950  43.887  32.048   1.245
34724W        W99951  19.120  16.162   3.410
34725W        W99952  15.273  30.060   0.923
34726W        W99953   1.139  22.146  11.063
34727W        W99954   9.562  29.684  13.076
34728W        W99955  43.714  34.946   3.920
34729W        W99956  15.252  32.910  13.872
34730W        W99957  38.555   2.344   1.359
34731W        W99958   7.972  29.741  14.767
34732W        W99959  42.294  44.571   2.293
34733W        W99960  41.643  22.134   0.731
34734W        W99961   6.990  14.951   1.660
34735W        W99962  16.215  35.855  14.025
34736W        W99963  12.386  17.245  13.406
34737W        W99964  29.217  20.219  13.900
34738W        W99965  18.307  18.541  11.208
34739W        W99966  31.216  12.140   3.573
34740W        W99967  29.589  14.227  13.068
34741W        W99968   2.748  30.971   3.359
34742W        W99969  26.561   1.744  12.553
34743W        W99970  26.656   8.786   4.223
34744W        W99971  13.711  25.703   0.767
34745W        W99972  35.877  24.184   0.384
34746W        W99973  10.758  34.472  12.092
34747W        W99974  24.105   7.599   0.692
34748W        W99975  21.667  27.997   2.107
34749W        W99976  15.346  26.613  10.636
34750W        W99977  35.230  16.646   3.573
34751W        W99978  29.519  27.640  14.056
34752W        W99979   7.910  44.736  14.744
34753W        W99980   9.809   7.306  10.585
34754W        W99981  10.990  38.525   2.284
34755W        W99982  37.417  29.636  13.575
34756W        W99983  39.281  19.758  13.034
34757W        W99984  17.677  27.697  14.948
34758W        W99985  44.787  17.000  12.425
34759W        W99986  24.384  38.958  12.490
34760W        W99987  40.936  15.746  12.161
34761W        W99988   7.206   9.574  14.924
34762W        W99989   5.906  19.792   1.243
34763W        W99990  33.799  37.412  11.970
34764W        W99991  32.061   7.641  12.574
34765W        W99992  17.543  23.423  13.078
34766W        W99993  40.715  29.605  10.546
34767W        W99994   4.423  24.145   3.228
34768W        W99995  21.378  24.941  13.011
34769W        W99996  43.402  26.192   1.723
34770W        W99997  36.008  29.181   5.215
34771W        W99998  33.383  43.466  12.611
34772W        W99999  11.255  40.382   3.649
34773W        W    0  35.663  37.855  13.883
34774W        W    1  18.555  34.275  12.087
34775W        W    2  28.820   3.933   0.337
34776W        W    3  17.096   3.461  12.615
34777W        W    4  21.033  41.854   4.390
34778W        W    5  21.515   8.493  12.962
34779W        W    6  21.066  27.018   3.659
34780W        W    7  32.104  11.681   4.329
34781W        W    8  16.740  10.551   4.156
34782W        W    9   6.094  43.916   0.116
34783W        W   10  13.315  13.168   4.620
34784W        W   11  41.324   2.255   1.908
34785W        W   12  38.875  34.170  12.903
34786W        W   13  44.501  21.168  13.531
34787W        W   14  15.633  30.555   3.741
34788W        W   15  20.079  38.083   2.296
34789W        W   16  26.502  27.622  12.555
34790W        W   17  34.582  12.308  11.369
34791W        W   18  21.481  25.073   1.523
34792W        W   19   5.407  25.551   0.070
34793W        W   20  20.186  11.325  11.655
34794W        W   21   8.775  34.073   3.147
34795W        W   22  43.841  31.370  10.787
34796W        W   23  11.304  30.954  13.789
34797W        W   24  41.069  30.077   2.338
34798W        W   25  39.466  36.133  11.688
34799W        W   26  28.887  28.695  11.957
34800W        W   27  13.247  14.065  13.877
34801W        W   28  44.072  11.173   3.650
34802W        W   29   2.453   6.656   1.188
34803W        W   30   7.620  34.031  12.881
34804W        W   31  29.929  15.832   1.767
34805W        W   32  23.308  41.729   3.425
34806W        W   33  43.111  26.988   4.065
34807W        W   34   9.873  33.547  13.475
34808W        W   35  28.879   6.481   0.257
34809W        W   36   9.283  24.155  10.697
34810W        W   37  34.585  37.431  14.464
34811W        W   38  25.595  43.492  11.093
34812W        W   39   2.541  40.303   4.201
34813W        W   40  17.050   7.206   4.149
34814W        W   41  43.051  14.913  13.091
34815W        W   42  29.892  36.417   4.571
34816W        W   43  21.735  39.951   1.475
34817W        W   44  41.628  13.067  14.520
34818W        W   45  21.029  43.878   2.110
34819W        W   46  21.733  32.381   2.781
34820W        W   47   1.800   2.465   1.260
34821W        W   48  27.413  12.194  13.461
34822W        W   49  15.864  30.589  11.047
34823W        W   50  30.051  39.413   2.669
34824W        W   51  35.108   2.862   1.282
34825W        W   52  38.024  16.601  12.157
34826W        W   53  27.887  37.302   2.876
34827W        W   54  10.711   7.137  11.663
34828W        W   55  15.575  42.370  13.371
34829W        W   56  20.931  30.289  12.042
34830W        W   57  22.724  29.010  12.139
34831W        W   58  44.414  32.148  10.690
34832W        W   59  43.956  14.829  13.126
34833W        W   60  17.328  41.741   4.037
34834W        W   61  18.429  22.682   3.205
34835W        W   62  19.115  24.453   3.983
34836W        W   63  15.095   0.240  14.055
34837W        W   64   7.235  15.270   0.245
34838W        W   65  35.439  25.030   1.798
34839W        W   66   8.756   0.868  13.305
34840W        W   67  13.429  42.553  13.410
34841W        W   68  17.710  39.283   0.035
34842W        W   69   6.980   2.876  11.989
34843W        W   70  26.249   5.166   2.736
34844W        W   71  23.868  37.966   1.908
34845W        W   72  17.119  30.364   3.397
34846W        W   73   3.486  10.200   2.420
34847W        W   74  13.863  25.449   4.462
34848W        W   75  34.867  33.598  13.278
34849W        W   76  22.651  11.079  10.975
34850W        W   77  21.781  32.083  12.110
34851W        W   78  10.305  40.666  11.222
34852W        W   79  19.734  28.813  11.439
34853W        W   80  10.178   2.860  11.476
34854W        W   81  12.597   4.473  11.033
34855W        W   82  24.095  16.695   2.995
34856W        W   83  19.092  17.751   0.124
34857W        W   84   2.901  30.728   2.196
34858W        W   85   1.375  27.370   2.291
34859W        W   86  39.468   4.244  14.779
34860W        W   87   6.384  38.624   1.822
34861W        W   88  14.506  17.803   0.461
34862W        W   89  39.399  25.466  13.054
34863W        W   90  17.395  35.406   3.113
34864W        W   91  12.098  19.495  10.695
34865W        W   92  22.571  27.666  12.494
34866W        W   93  33.168  28.392  11.186
34867W        W   94  26.899   4.263  10.283
34868W        W   95  20.250  17.233   4.180
34869W        W   96  26.696  41.779   2.417
34870W        W   97  32.309  18.534  14.831
34871W        W   98  43.266   2.419  12.356
34872W        W   99  33.846  19.428   2.399
34873W        W  100  25.641  30.198   0.936
34874W        W  101  19.622  12.948  12.981
34875W        W  102   6.898   4.790   3.676
34876W        W  103   5.664  41.767  13.984
34877W        W  104   1.482   6.142   0.910
34878W        W  105   2.731  40.033   3.778
34879W        W  106  31.791  34.926   4.525
34880W        W  107  10.886  44.547  12.558
34881W        W  108  18.635  37.546  14.836
34882W        W  109  25.630  34.230  10.687
34883W        W  110  27.727  36.477   1.234
34884W        W  111  18.276  25.225   4.251
34885W        W  112  28.307  32.531  13.272
34886W        W  113  34.698  36.686  11.832
34887W        W  114  31.109   3.804  11.261
34888W        W  115  44.264  35.514  14.788
34889W        W  116   1.418  12.272  13.509
34890W        W  117   3.223  44.831   1.887
34891W        W  118  35.036  26.295  12.607
34892W        W  119   5.397  42.093   2.392
34893W        W  120   4.352  37.600   1.225
34894W        W  121  37.349  26.621   3.182
34895W        W  122  13.676  42.506   0.785
34896W        W  123  17.316  13.359   0.505
34897W        W  124  27.930  18.681   0.953
34898W        W  125   7.218  36.569  13.551
34899W        W  126  33.663   2.429  12.986
34900W        W  127  32.992  28.880  14.248
34901W        W  128  44.018  40.201   0.346
34902W        W  129  19.281  17.654   0.954
34903W        W  130   5.719  32.169  12.533
34904W        W  131  41.282  33.011   1.049
34905W        W  132  35.117  13.620   3.302
34906W        W  133  19.798  21.387  14.916
34907W        W  134   1.195   1.570   4.439
34908W        W  135  34.614  36.362   3.206
34909W        W  136  15.345  26.116  11.633
34910W        W  137  40.795  18.768   3.364
34911W        W  138  43.424  17.511   4.513
34912W        W  139   4.830  37.234  13.113
34913W        W  140  39.664   7.725   0.392
34914W        W  141  22.226  13.084  10.750
34915W        W  142   1.860  35.337   0.078
34916W        W  143  37.537  21.425  14.858
34917W        W  144  28.851  29.913  13.505
34918W        W  145   9.160  12.156  11.415
34919W        W  146  27.756  19.118  14.431
34920W        W  147  39.481   8.637   5.110
34921W        W  148  22.628   7.283  13.544
34922W        W  149  15.712  40.051  11.674
34923W        W  150  42.008  38.937   0.439
34924W        W  151  44.478   1.379   1.549
34925W        W  152  32.377  24.718   0.349
34926W        W  153  43.467  18.289  11.527
34927W        W  154   6.738  31.955   3.692
34928W        W  155  28.979  22.480   3.140
34929W        W  156  19.628  40.794   4.674
34930W        W  157  42.252  21.089   2.718
34931W        W  158   2.754  18.734   0.330
34932W        W  159  32.951  26.560  14.769
34933W        W  160   1.420   1.986  14.052
34934W        W  161  11.420   1.436  12.732
34935W        W  162  25.684  17.282  14.830
34936W        W  163  18.354  21.107   2.736
34937W        W  164  39.517  23.294  11.506
34938W        W  165  29.442  10.972  12.715
34939W        W  166  19.179  13.616   1.556
34940W        W  167   0.046  37.249   0.041
34941W        W  168  23.230  38.111  13.938
34942W        W  169   2.157  10.240  14.053
34943W        W  170  14.055   1.483   0.828
34944W        W  171  10.385  35.712  14.725
34945W        W  172  17.449  41.358  10.399
34946W        W  173  10.648  36.593  14.721
34947W        W  174  25.701  15.020   0.419
34948W        W  175   5.862   0.258   4.570
34949W        W  176  19.023  21.756   2.865
34950W        W  177  34.022  38.819  11.009
34951W        W  178  20.310  17.502   0.719
34952W        W  179  12.153   8.672   4.794
34953W        W  180   8.051  44.273  14.996
34954W        W  181   6.178  11.896   2.341
34955W        W  182  10.944  37.628  13.433
34956W        W  183  19.976  24.467   4.418
34957W        W  184  21.966  13.161   4.177
34958W        W  185   5.471  18.194   1.465
34959W        W  186  41.317  15.351   2.712
34960W        W  187  41.833  22.211  13.096
34961W        W  188   4.377  26.985  13.457
34962W        W  189  15.126  20.425  11.467
34963W        W  190  36.631  18.666   4.303
34964W        W  191  23.965  32.088  12.232
34965W        W  192  18.464  28.991  13.094
34966W        W  193  43.559  30.643  11.921
34967W        W  194  41.746  25.146  12.065
34968W        W  195   4.692  33.651   1.935
34969W        W  196   4.445  14.161  13.010
34970W        W  197  21.322  36.485   2.277
34971W        W  198  38.882  24.746  13.013
34972W        W  199   4.949  30.435   9.840
34973W        W  200  11.559  36.054   0.809
34974W        W  201  17.142  35.927  13.042
34975W        W  202  16.491  16.227  14.423
34976W        W  203  25.260   5.280  11.634
34977W        W  204  16.694  14.308   5.005
34978W        W  205  23.900  40.285  13.925
34979W        W  206  21.151  37.923  14.959
34980W        W  207  41.101   3.334  14.665
34981W        W  208  39.237  30.636   4.346
34982W        W  209  38.857  28.086   3.812
34983W        W  210  23.936   8.634  13.349
34984W        W  211  43.989  15.671  13.230
34985W        W  212  28.449  12.735  11.560
34986W        W  213   1.415  33.130   2.823
34987W        W  214  35.064   5.664   1.434
34988W        W  215  28.427   2.442  13.459
34989W        W  216  16.532  28.926   3.695
34990W        W  217  34.307  42.242   4.284
34991W        W  218  30.348  29.434  11.027
34992W        W  219  43.522  18.905  12.088
34993W        W  220  39.432  13.083   0.113
34994W        W  221  12.958  30.986  13.709
34995W        W  222  41.010  15.772  11.062
34996W        W  223  29.395  21.304   0.270
34997W        W  224  39.840  38.511   3.312
34998W        W  225  32.460  37.775  13.485
34999W        W  226  37.444  26.316  14.837
35000W        W  227  21.686  13.591   3.266
35001W        W  228   5.732   1.437   3.238
35002W        W  229  28.068  23.461  10.374
35003W        W  230  26.943  44.498   4.496
35004W        W  231  30.930   2.202  14.443
35005W        W  232  40.358  20.277   1.386
35006W        W  233  12.186   2.900  14.669
35007W        W  234  27.690   2.291  12.847
35008W        W  235   9.150   7.652   0.347
35009W        W  236  30.056  32.065   1.060
35010W        W  237   5.274  11.822  14.496
35011W        W  238  28.604  24.457   0.910
35012W        W  239  10.106  29.077   2.367
35013W        W  240  30.123   7.862   3.014
35014W        W  241  12.040   3.250   1.330
35015W        W  242  21.659  23.810   0.619
35016W        W  243  14.164  24.094   3.601
35017W        W  244  38.065  14.960   0.369
35018W        W  245   0.269  11.976   1.346
35019W        W  246  29.236  41.021  14.896
35020W        W  247  29.715  10.713   1.696
35021W        W  248  27.216  10.736  14.459
35022W        W  249  36.633  15.708   2.815
35023W        W  250   4.049   9.435  14.358
35024W        W  251  30.110  32.868  12.048
35025W        W  252   5.234  21.637   4.115
35026W        W  253  44.416   1.399  11.456
35027W        W  254  22.505  33.524  12.988
35028W        W  255  29.207  34.587  10.269
35029W        W  256  23.509  43.023  10.486
35030W        W  257   0.715  44.101  12.855
35031W        W  258  16.790  15.806   4.260
35032W        W  259  18.022  14.953  14.478
35033W        W  260  21.874  21.873  11.667
35034W        W  261  12.099   1.789  14.918
35035W        W  262  30.322   7.285   3.847
35036W        W  263  12.742  30.687   1.787
35037W        W  264  22.104  43.832   1.164
35038W        W  265  21.646  23.041  10.759
35039W        W  266  34.930  22.206   4.710
35040W        W  267  10.064  33.820   1.630
35041W        W  268  27.246  33.978   2.335
35042W        W  269  29.017   0.151   2.768
35043W        W  270  14.780  29.410  14.963
35044W        W  271  34.226  35.337  14.752
35045W        W  272  25.635  29.438   4.693
35046W        W  273  26.266   7.426   2.799
35047W        W  274  23.047   0.723  14.366
35048W        W  275  20.101  34.752  11.320
35049W        W  276  21.214  29.859   4.247
35050W        W  277   8.780  10.415   2.681
35051W        W  278   3.619   5.375  12.135
35052W        W  279  22.715   4.515   1.540
35053W        W  280  17.549  29.610   3.729
35054W        W  281  24.486  13.456   4.816
35055W        W  282   5.419   7.788  14.901
35056W        W  283  23.717  26.067   2.594
35057W        W  284  42.918  44.033   1.847
35058W        W  285  20.563  40.436  12.081
35059W        W  286  14.705  35.116   4.200
35060W        W  287  43.844  39.067   1.262
35061W        W  288  35.563  42.180  12.942
35062W        W  289  41.827  32.817   3.763
35063W        W  290  26.484  15.210   3.270
35064W        W  291  25.323  23.843   3.664
35065W        W  292  10.293  20.402  13.266
35066W        W  293  43.299   3.009   0.570
35067W        W  294  33.223   0.748  10.723
35068W        W  295  35.229  40.492   0.649
35069W        W  296  36.967  38.329   2.022
35070W        W  297  24.259  39.379   0.784
35071W        W  298  22.913  25.740   2.014
35072W        W  299  44.363  17.989   2.714
35073W        W  300  32.025  31.639   3.700
35074W        W  301  38.140  12.800  10.837
35075W        W  302   3.281  38.495   1.553
35076W        W  303  37.543   1.991   3.783
35077W        W  304   0.192  17.225   3.298
35078W        W  305   8.470  14.128  13.073
35079W        W  306   6.800  15.266   1.306
35080W        W  307   1.496  34.982  11.157
35081W        W  308   9.691  33.812   0.769
35082W        W  309  31.733  25.448  11.677
35083W        W  310  24.913   7.959   2.268
35084W        W  311  35.988  35.350  11.137
35085W        W  312  15.316   8.263   4.084
35086W        W  313  33.590   3.413   3.312
35087W        W  314  27.806  27.167  10.988
35088W        W  315   7.269  18.995  11.027
35089W        W  316   2.133  24.790   0.950
35090W        W  317  27.226  26.754  10.563
35091W        W  318   7.114   9.145  14.058
35092W        W  319  15.078  30.564   1.223
35093W        W  320   7.086  35.251   4.098
35094W        W  321  12.423  28.984  13.016
35095W        W  322  14.836  10.895  12.501
35096W        W  323  44.903   5.647  13.297
35097W        W  324  41.899  15.100  13.929
35098W        W  325   5.129  33.593  11.539
35099W        W  326  41.551  39.834   0.131
35100W        W  327  41.141   4.461  11.177
35101W        W  328  11.603  34.565  13.053
35102W        W  329  39.194   7.232   0.890
35103W        W  330  10.786  23.494   3.070
35104W        W  331  31.120   3.663  14.429
35105W        W  332  34.063  23.897   0.914
35106W        W  333  19.264  10.384  13.454
35107W        W  334  13.647  29.124   1.222
35108W        W  335  11.030  12.624  10.387
35109W        W  336   6.417  41.415  13.445
35110W        W  337  13.327   6.793   3.436
35111W        W  338  44.761  25.642   4.180
35112W        W  339   5.856  13.238   0.044
35113W        W  340   2.347  25.157  10.739
35114W        W  341  16.315  41.916   2.515
35115W        W  342  31.923  43.715  12.596
35116W        W  343  27.301  15.340  10.310
35117W        W  344  16.891   7.186   2.529
35118W        W  345  21.272  19.643  14.516
35119W        W  346  10.342  21.808   3.257
35120W        W  347  18.136  29.495   4.522
35121W        W  348   4.439  19.047  13.427
35122W        W  349  19.775  33.695   1.954
35123W        W  350  10.769   4.092  14.552
35124W        W  351  20.251   2.197   4.840
35125W        W  352  37.565   3.166  10.762
35126W        W  353  29.153  16.842  14.055
35127W        W  354  23.242  34.153   0.075
35128W        W  355   2.811   4.436   4.108
35129W        W  356  17.030  28.172   0.396
35130W        W  357  43.984  33.201   0.738
35131W        W  358  29.958   1.301  13.139
35132W        W  359   0.408  33.867   1.039
35133W        W  360  28.660  15.288  14.015
35134W        W  361   6.297   9.747  11.116
35135W        W  362   9.046  30.601   4.099
35136W        W  363   6.299  39.203   0.533
35137W        W  364  30.252   7.771   2.121
35138W        W  365   2.257   9.661  11.556
35139W        W  366  31.910   0.488  12.881
35140W        W  367  17.717  33.365  13.730
35141W        W  368  40.652  41.343   4.492
35142W        W  369  23.699  17.733  12.439
35143W        W  370  13.304  43.272  12.386
35144W        W  371  22.683  40.677  12.555
35145W        W  372   0.415  40.684   1.471
35146W        W  373  28.686   4.402   2.428
35147W        W  374  36.593   0.994  12.514
35148W        W  375   5.920   6.846   0.782
35149W        W  376  38.298  25.734   1.582
35150W        W  377   3.547  15.907  11.115
35151W        W  378  18.758   4.388   3.154
35152W        W  379  38.974  33.847   3.575
35153W        W  380  10.697   5.848   2.777
35154W        W  381  30.397  23.215  13.115
35155W        W  382  38.264  30.935   0.666
35156W        W  383  22.501  33.556   3.678
35157W        W  384  19.063  13.497   3.403
35158W        W  385  23.701  38.568   1.030
35159W        W  386  31.047  32.039   4.041
35160W        W  387  39.340  23.510   1.057
35161W        W  388  43.874  18.538  10.294
35162W        W  389   2.096  11.822   2.757
35163W        W  390  29.427  36.387  13.703
35164W        W  391  24.924  26.194   3.143
35165W        W  392  11.172  34.055  13.762
35166W        W  393  41.613  20.826  13.918
35167W        W  394  21.491   3.006   3.059
35168W        W  395  18.506  28.675   3.877
35169W        W  396  38.865  22.220  12.488
35170W        W  397  12.192   6.737  12.991
35171W        W  398  31.372  37.982  12.944
35172W        W  399   1.798  18.520   0.774
35173W        W  400   3.201   3.221  14.505
35174W        W  401  23.732  15.884   3.470
35175W        W  402   6.634  19.811   2.343
35176W        W  403   3.969  43.480   2.689
35177W        W  404   5.686  16.632   2.785
35178W        W  405  19.575   2.691   2.736
35179W        W  406  22.575  17.879   4.074
35180W        W  407  18.029   2.260   0.806
35181W        W  408  12.319  24.969   1.315
35182W        W  409  33.102  39.442  13.313
35183W        W  410  31.130   8.276   0.457
35184W        W  411  42.311   2.002  13.435
35185W        W  412  34.235  32.124   4.035
35186W        W  413  22.477  22.426  12.077
35187W        W  414  21.082  44.335  11.750
35188W        W  415   9.105  22.140  11.576
35189W        W  416  31.782  31.791  11.004
35190W        W  417  33.916  32.347   2.124
35191W        W  418  38.281  19.417   0.149
35192W        W  419  17.859   9.771  12.549
35193W        W  420  38.846  41.870   3.704
35194W        W  421  41.459   3.776   4.286
35195W        W  422   2.246  11.930  14.324
35196W        W  423  13.691  20.403  13.400
35197W        W  424  26.922   5.239   4.018
35198W        W  425   4.803  34.187   1.950
35199W        W  426  37.308  24.630  11.232
35200W        W  427   6.016  12.874   2.427
35201W        W  428  15.631  28.541   1.257
35202W        W  429  42.701  32.095  14.360
35203W        W  430  41.632  27.435   0.969
35204W        W  431  31.574  10.655  12.135
35205W        W  432   8.900  12.324   3.227
35206W        W  433  44.288  27.781   3.147
35207W        W  434  44.919  38.920   1.824
35208W        W  435  23.050  38.210   3.130
35209W        W  436  36.070  42.077  12.993
35210W        W  437  12.566  33.919   1.758
35211W        W  438   9.950   7.614   3.574
35212W        W  439   8.881   0.175   0.445
35213W        W  440  33.593  39.047  13.954
35214W        W  441  20.068  13.555  13.592
35215W        W  442   2.634  23.188  14.749
35216W        W  443  20.867  35.020  11.062
35217W        W  444  15.777  37.752   4.642
35218W        W  445   8.393   3.876  14.318
35219W        W  446  18.053  26.339  13.399
35220W        W  447  29.579   9.786   0.405
35221W        W  448  13.720  14.562   4.717
35222W        W  449  12.583  26.935   4.363
35223W        W  450  38.660  43.212   3.693
35224W        W  451  25.311  36.599   2.337
35225W        W  452  13.156  10.681  13.040
35226W        W  453  38.348   0.613  10.798
35227W        W  454  42.315  26.983   3.622
35228W        W  455  38.264  20.648   3.269
35229W        W  456  23.585  11.663  14.239
35230W        W  457  41.195   5.491  11.183
35231W        W  458  13.691  22.697  14.173
35232W        W  459  25.160  12.921   0.719
35233W        W  460   8.882  17.665   4.143
35234W        W  461   7.526  29.146   3.275
35235W        W  462   5.761   8.672  12.451
35236W        W  463   8.905  21.445   1.792
35237W        W  464  42.234   2.116   4.594
35238W        W  465   8.889  20.698   0.394
35239W        W  466  28.873  11.319   1.833
35240W        W  467   0.921  40.625  14.857
35241W        W  468  17.177  11.115   2.153
35242W        W  469  15.763  10.840  10.700
35243W        W  470  24.141  44.354  11.012
35244W        W  471  32.951  30.393  14.256
35245W        W  472  28.042  11.953  12.989
35246W        W  473  25.148  21.210   2.802
35247W        W  474  13.233  40.796  12.392
35248W        W  475  24.287  23.210  12.842
35249W        W  476  21.229  38.469   3.166
35250W        W  477  11.883  42.020   0.019
35251W        W  478  34.442  41.632   2.245
35252W        W  479   2.432   9.898   4.642
35253W        W  480   4.474   1.472  13.595
35254W        W  481  23.747   7.367  11.954
35255W        W  482  23.550  28.688  10.628
35256W        W  483  28.640  20.526   4.184
35257W        W  484  38.562  26.485  14.154
35258W        W  485  25.572   2.420  12.132
35259W        W  486  39.049  34.458   3.425
35260W        W  487  32.562   3.566   4.417
35261W        W  488  22.631  41.432   4.690
35262W        W  489  18.332  28.688   1.002
35263W        W  490  33.068   1.806   2.197
35264W        W  491  31.463  10.244   2.974
35265W        W  492  18.320   2.167   3.114
35266W        W  493  34.566  16.204  10.521
35267W        W  494  44.823  20.488   0.091
35268W        W  495   3.588   2.919   4.696
35269W        W  496  32.855  11.155   0.935
35270W        W  497   3.466   1.035  10.945
35271W        W  498   7.322  28.143  13.954
35272W        W  499  38.806  29.158   1.399
35273W        W  500   0.426   8.689  11.580
35274W        W  501  21.702  28.097   2.621
35275W        W  502   2.821  19.506   0.766
35276W        W  503   6.150  11.325  14.773
35277W        W  504   0.759   4.480   4.546
35278W        W  505  24.694  15.635   3.374
35279W        W  506  10.697  37.402   4.656
35280W        W  507  36.624  17.702   4.243
35281W        W  508  38.340  30.856  13.831
35282W        W  509  13.153  39.374  13.311
35283W        W  510  11.881  35.526   3.965
35284W        W  511  27.523  40.335   3.541
35285W        W  512  19.162  37.506  11.955
35286W        W  513  33.047   1.453  12.943
35287W        W  514  43.226  10.169  14.778
35288W        W  515  30.110  25.558  11.244
35289W        W  516  38.348  14.280  10.853
35290W        W  517   6.716  24.531  13.435
35291W        W  518  42.769   2.737   2.969
35292W        W  519  24.049  40.060  14.731
35293W        W  520  21.387  25.727  12.020
35294W        W  521  25.797   4.267   4.026
35295W        W  522  31.314  16.396   1.921
35296W        W  523  11.768  10.744  14.360
35297W        W  524  34.685  18.058  12.632
35298W        W  525  15.986  35.987  10.801
35299W        W  526  21.104  12.688  11.177
35300W        W  527   6.817  23.191   0.978
35301W        W  528  27.080  32.841  11.766
35302W        W  529  42.817  44.550  10.505
35303W        W  530   3.587  34.919   2.200
35304W        W  531  14.146  36.350   0.199
35305W        W  532  41.903  34.184   1.288
35306W        W  533   0.796  40.113  14.875
35307W        W  534   8.187  13.795  14.852
35308W        W  535  36.203  16.516  12.915
35309W        W  536  25.250  14.703  13.957
35310W        W  537  24.643   5.406   0.937
35311W        W  538  15.401  30.301   1.947
35312W        W  539   1.023  27.494  13.582
35313W        W  540  20.102   4.731  14.955
35314W        W  541  15.165  12.657   1.755
35315W        W  542   4.245  33.128  14.425
35316W        W  543  27.016   0.257  12.894
35317W        W  544  25.622  43.289   1.221
35318W        W  545  14.750  11.168   4.502
35319W        W  546  32.457   5.196  11.777
35320W        W  547  30.315  43.034  11.218
35321W        W  548   4.407  44.323   2.569
35322W        W  549  38.000  15.472   0.393
35323W        W  550  26.440  17.557   0.326
35324W        W  551  44.072  19.051  11.561
35325W        W  552  43.029  43.318  12.276
35326W        W  553  10.977   9.198  11.669
35327W        W  554  30.687  30.221   5.045
35328W        W  555  32.907  20.045  11.293
35329W        W  556  31.687  23.726   2.149
35330W        W  557  10.397   1.970  14.427
35331W        W  558   4.359  17.493  12.821
35332W        W  559  29.433  29.064  13.097
35333W        W  560  15.289  22.252  14.777
35334W        W  561  21.300  14.761  11.227
35335W        W  562  21.439  24.211  13.477
35336W        W  563  10.143   7.308  13.476
35337W        W  564   2.969  34.036  10.733
35338W        W  565  19.578  36.740  13.561
35339W        W  566  25.598  18.624   1.424
35340W        W  567  23.785  14.101   0.365
35341W        W  568  20.894  34.574   4.079
35342W        W  569  10.042  14.498   3.680
35343W        W  570  31.522  14.741  12.589
35344W        W  571   0.325  38.939   1.420
35345W        W  572  10.546  24.206   0.127
35346W        W  573  21.275   4.527   2.203
35347W        W  574  30.091  17.587  10.732
35348W        W  575  31.519  35.298   9.850
35349W        W  576  27.359   8.098   2.237
35350W        W  577   6.400  37.960  12.107
35351W        W  578  40.800  31.891   0.253
35352W        W  579  43.572  28.134   0.258
35353W        W  580  22.562  32.712  14.443
35354W        W  581  15.692  35.505  13.414
35355W        W  582  26.142   8.028  13.797
35356W        W  583   2.673   0.620   0.396
35357W        W  584  39.026  21.783   3.733
35358W        W  585   5.299  29.519   0.002
35359W        W  586  29.869   1.313   2.837
35360W        W  587  12.640  12.078   1.232
35361W        W  588  15.538  13.608   1.488
35362W        W  589  23.037  17.624   3.250
35363W        W  590  14.950   1.380   3.297
35364W        W  591  30.651   7.910   0.272
35365W        W  592  44.455   2.223  13.845
35366W        W  593  40.955   1.196   0.042
35367W        W  594  31.652  25.743  12.441
35368W        W  595  37.534  27.005  13.408
35369W        W  596  35.310  11.476   0.352
35370W        W  597   7.361  26.447   4.650
35371W        W  598   5.763   2.915   4.398
35372W        W  599   4.980  16.229  13.048
35373W        W  600  43.027  30.712   2.119
35374W        W  601  31.169  10.356   0.376
35375W        W  602  32.110  38.612  14.861
35376W        W  603  42.499  21.375  13.082
35377W        W  604   2.527  41.592  12.632
35378W        W  605  37.514  42.199   4.102
35379W        W  606  40.968   4.623   2.393
35380W        W  607  13.637  19.055   2.143
35381W        W  608  28.783  18.964   4.526
35382W        W  609  39.042  32.518  13.521
35383W        W  610  19.082  28.457  11.759
35384W        W  611  40.562  11.124  14.894
35385W        W  612   8.312  31.396   2.865
35386W        W  613   3.701   3.747   3.100
35387W        W  614  16.024   8.740  13.465
35388W        W  615  16.879   8.244  13.386
35389W        W  616  41.739  14.329  13.511
35390W        W  617  16.338  14.897  11.618
35391W        W  618   8.194  32.579  14.404
35392W        W  619  34.105  32.052  12.534
35393W        W  620  31.981   5.777   2.036
35394W        W  621  31.154  42.612  14.767
35395W        W  622   5.977  17.302  13.512
35396W        W  623  39.782  22.233  12.527
35397W        W  624  23.707  34.488   0.811
35398W        W  625  28.185   8.786   3.317
35399W        W  626   4.760   6.538   4.247
35400W        W  627   1.040  42.701  12.050
35401W        W  628  42.395   7.417   4.356
35402W        W  629   6.121  26.933  10.191
35403W        W  630  11.166   4.666   4.049
35404W        W  631  19.757   8.062  14.087
35405W        W  632  44.468  38.965  14.351
35406W        W  633  34.503  21.191  14.055
35407W        W  634   7.814  38.772  13.359
35408W        W  635  36.441  31.618  11.531
35409W        W  636  17.348  37.205  10.302
35410W        W  637  31.736   7.263  10.752
35411W        W  638   7.204  12.056  12.926
35412W        W  639  28.412  31.896  14.986
35413W        W  640  38.624  13.414  10.909
35414W        W  641  17.334   7.368   4.549
35415W        W  642   9.368  18.002  14.012
35416W        W  643  33.065  39.743   3.874
35417W        W  644  11.897  24.655   1.298
35418W        W  645   9.776   7.628   3.069
35419W        W  646  25.501  12.925   3.066
35420W        W  647  22.960  11.268   0.948
35421W        W  648  21.009  15.162  12.011
35422W        W  649  12.836   8.433   4.648
35423W        W  650   6.851  12.317   1.905
35424W        W  651  26.797  39.074   3.171
35425W        W  652  26.451  44.845  12.664
35426W        W  653  21.001  24.135  11.527
35427W        W  654  35.181  37.773  11.590
35428W        W  655  28.170  34.437  14.336
35429W        W  656   6.779  30.893  11.128
35430W        W  657   7.222  19.740   3.292
35431W        W  658  35.583  36.572   0.514
35432W        W  659   3.993  30.882  11.616
35433W        W  660   8.179  18.637   4.583
35434W        W  661  35.903  26.779  11.219
35435W        W  662  21.884   5.352   0.360
35436W        W  663  33.838  27.427   0.821
35437W        W  664   7.880  19.199  12.999
35438W        W  665   0.964  14.198   0.455
35439W        W  666  21.885  11.724   0.756
35440W        W  667  14.620  11.242   1.980
35441W        W  668   7.807   1.994   3.345
35442W        W  669   7.201  33.700  14.582
35443W        W  670  14.696   1.939   3.674
35444W        W  671  33.506   2.580   0.230
35445W        W  672  25.470  39.798   2.345
35446W        W  673  28.155  37.190   4.213
35447W        W  674  35.786  33.467  13.693
35448W        W  675  11.422  32.962  13.106
35449W        W  676  43.804   2.264   0.766
35450W        W  677  25.386  26.001  14.244
35451W        W  678  39.563  40.504   0.309
35452W        W  679  36.135  39.047   3.835
35453W        W  680  12.260   3.725  13.380
35454W        W  681  17.320  37.019  14.475
35455W        W  682  44.070  34.616  12.062
35456W        W  683  42.733  24.790   0.305
35457W        W  684   2.893  35.603   3.662
35458W        W  685  43.846  19.173  13.362
35459W        W  686  27.688  37.699   3.314
35460W        W  687   5.885  39.490   3.991
35461W        W  688   1.955  41.101   1.726
35462W        W  689   4.920  39.374   2.277
35463W        W  690  32.834  10.558  12.542
35464W        W  691  31.964  30.914  14.888
35465W        W  692  26.221  35.546   4.750
35466W        W  693  31.521  37.364  12.039
35467W        W  694   6.782   0.256   5.605
35468W        W  695   9.894   0.023   3.435
35469W        W  696  26.501  20.515   3.270
35470W        W  697  44.922   6.199  14.129
35471W        W  698  12.075  44.495  13.154
35472W        W  699  33.232  27.947   4.096
35473W        W  700   0.553  16.955  11.652
35474W        W  701  26.613   8.386  13.860
35475W        W  702  32.635  17.207  14.426
35476W        W  703  23.059  43.008   2.265
35477W        W  704  32.654  19.687   4.672
35478W        W  705  28.729   8.935   0.128
35479W        W  706   5.501   7.455  13.501
35480W        W  707  35.642  34.924   0.015
35481W        W  708  34.349  43.541   2.306
35482W        W  709  36.507  35.092  13.905
35483W        W  710  33.598  12.088  11.704
35484W        W  711  22.793  28.571   4.040
35485W        W  712  12.199  19.035  10.398
35486W        W  713   4.758  17.177  14.677
35487W        W  714  10.112  32.578  12.156
35488W        W  715  11.354  35.282  13.031
35489W        W  716  18.139  37.427  13.049
35490W        W  717  36.133  23.565  13.728
35491W        W  718  21.291  18.980   1.520
35492W        W  719  23.526  43.454   4.070
35493W        W  720  44.588  43.409  12.633
35494W        W  721   6.695  13.999   0.011
35495W        W  722  21.728  20.049  13.434
35496W        W  723  41.281  20.764   2.900
35497W        W  724   5.383  17.726   4.072
35498W        W  725  15.941  39.118   3.664
35499W        W  726   0.230   3.242  13.460
35500W        W  727  42.905  20.645   1.570
35501W        W  728  44.859  41.297   4.829
35502W        W  729  33.410  19.579   1.363
35503W        W  730   7.180  37.557  14.871
35504W        W  731  23.742   2.647  13.552
35505W        W  732   2.568  31.506   1.749
35506W        W  733   7.727  28.504  13.844
35507W        W  734   0.969   6.664  10.706
35508W        W  735  36.862  40.696  13.583
35509W        W  736  32.456   9.713  12.184
35510W        W  737  35.318  37.375   0.850
35511W        W  738  18.622  30.607  14.263
35512W        W  739  12.374  17.320   2.673
35513W        W  740  29.640  32.489   0.788
35514W        W  741  44.535  15.000   0.324
35515W        W  742  38.618  12.078   1.615
35516W        W  743  38.325  35.383  12.567
35517W        W  744  25.800  30.818  10.441
35518W        W  745   1.262  30.449  11.991
35519W        W  746  37.640  32.602   0.454
35520W        W  747   3.340   6.631   2.301
35521W        W  748   5.740  20.121   3.250
35522W        W  749   9.821  42.444   4.060
35523W        W  750   3.899  16.587   0.107
35524W        W  751  17.875  31.566   0.960
35525W        W  752  44.308  36.027   3.221
35526W        W  753  38.020  39.609  10.807
35527W        W  754  12.930  12.197  11.619
35528W        W  755  12.225  31.425  10.663
35529W        W  756  12.594   6.351   1.778
35530W        W  757   6.219  42.462  13.621
35531W        W  758  29.628  23.575  13.796
35532W        W  759  28.194   8.092   0.749
35533W        W  760   4.683   2.012   1.117
35534W        W  761  15.598  18.391  14.564
35535W        W  762   6.275   4.781   4.479
35536W        W  763  17.059   9.028   1.512
35537W        W  764   8.346   9.447  14.437
35538W        W  765  24.383  33.574   3.296
35539W        W  766  39.408  19.654  12.539
35540W        W  767  37.581  37.448   2.789
35541W        W  768  27.710  44.058   4.041
35542W        W  769  35.535  28.043  12.169
35543W        W  770   3.888  15.885   3.884
35544W        W  771  20.611  31.919   1.797
35545W        W  772  13.719  43.596   0.363
35546W        W  773  37.406  42.206  10.859
35547W        W  774  28.181  24.537  14.977
35548W        W  775  11.256  18.326  14.456
35549W        W  776  11.789  10.805   3.990
35550W        W  777  43.736  38.242   1.827
35551W        W  778  26.534  10.197   1.419
35552W        W  779  20.596  22.110  13.573
35553W        W  780   3.873  33.965  10.944
35554W        W  781  31.795   9.787   0.910
35555W        W  782  35.581   5.328   9.769
35556W        W  783   4.241   1.621  10.548
35557W        W  784  11.144  41.090  11.189
35558W        W  785   6.848  20.468  13.401
35559W        W  786  40.604   0.960   0.357
35560W        W  787  22.411  11.069  12.440
35561W        W  788  20.554  19.889  13.131
35562W        W  789   0.340  25.043   5.146
35563W        W  790  28.966  23.310   4.434
35564W        W  791  21.551  41.887   1.705
35565W        W  792  31.368  15.430  13.945
35566W        W  793  38.187  27.944   2.739
35567W        W  794  20.668  41.317  10.679
35568W        W  795  42.591  26.567   3.744
35569W        W  796  44.978  13.809   4.960
35570W        W  797   9.375  40.179   2.399
35571W        W  798  19.705  32.868   2.348
35572W        W  799  18.312  24.902   3.849
35573W        W  800   7.358  21.637  13.138
35574W        W  801   1.743  13.719   0.271
35575W        W  802   7.228   0.374   1.081
35576W        W  803  21.318  18.325   4.164
35577W        W  804  43.199  10.305   3.188
35578W        W  805  30.849  43.683   0.016
35579W        W  806  16.864   0.568  13.889
35580W        W  807   0.969   3.978   3.237
35581W        W  808  13.933   5.253   0.539
35582W        W  809  23.548   1.501  12.055
35583W        W  810  12.429  35.200   9.861
35584W        W  811  34.626  23.659  10.590
35585W        W  812  18.161  41.265   0.034
35586W        W  813   4.357   6.121  14.712
35587W        W  814  38.070  23.408  14.019
35588W        W  815  11.909   4.565  11.792
35589W        W  816  39.940  24.594  11.167
35590W        W  817  43.711   5.779  12.452
35591W        W  818  13.185  29.985   3.111
35592W        W  819   8.525   0.310   3.399
35593W        W  820  12.010   2.530  11.003
35594W        W  821  23.051  25.235  11.610
35595W        W  822  38.125  21.284  11.761
35596W        W  823  18.574  36.843  11.616
35597W        W  824   7.417  21.072  12.553
35598W        W  825  27.477  30.026  13.379
35599W        W  826  17.734  29.046  11.906
35600W        W  827  38.021  12.360   3.761
35601W        W  828   0.237  36.862   0.949
35602W        W  829  39.068  37.629   2.756
35603W        W  830  43.354  26.997   2.232
35604W        W  831  21.244  17.051  10.557
35605W        W  832  30.568  31.186  14.343
35606W        W  833  25.056   5.347   2.195
35607W        W  834  34.934   9.143   2.309
35608W        W  835  36.894   9.330  14.048
35609W        W  836  17.583  26.350   0.379
35610W        W  837  22.391  39.395  12.860
35611W        W  838   0.129  28.142   3.237
35612W        W  839  15.203  29.398  14.519
35613W        W  840   6.823  35.999  11.681
35614W        W  841   4.732   3.621  12.972
35615W        W  842  10.325   9.335  12.954
35616W        W  843  30.062   2.739   0.758
35617W        W  844   2.176  30.018  11.028
35618W        W  845  19.515  41.300  11.662
35619W        W  846  24.632  26.742  14.111
35620W        W  847  30.666  10.341   0.293
35621W        W  848  38.521  27.035  14.905
35622W        W  849  23.763  39.861   4.463
35623W        W  850  13.563  11.380   3.175
35624W        W  851  18.118  24.689  12.967
35625W        W  852  38.535  43.444   2.233
35626W        W  853  20.541  18.311  11.574
35627W        W  854  19.259  30.023   4.590
35628W        W  855  42.008  37.571   4.983
35629W        W  856   9.433  38.073   4.921
35630W        W  857   0.947  14.629  12.502
35631W        W  858  10.642  30.382   1.668
35632W        W  859  15.828   0.182  10.762
35633W        W  860  43.894  32.400   1.783
35634W        W  861  20.609  18.359   2.324
35635W        W  862   8.270  37.115   1.014
35636W        W  863   7.320  41.871   0.896
35637W        W  864  38.022  20.191   2.588
35638W        W  865  28.261   2.473  12.065
35639W        W  866  43.288  18.296   0.960
35640W        W  867  43.787  24.708   3.086
35641W        W  868  39.277   0.798   0.724
35642W        W  869  35.341  44.358  14.958
35643W        W  870  21.640  38.159   3.324
35644W        W  871  30.964  11.690   3.667
35645W        W  872  28.412  12.274  13.128
35646W        W  873  17.646  32.930   1.167
35647W        W  874  42.364   5.818  10.318
35648W        W  875  40.287  32.249   2.368
35649W        W  876   2.818  42.909  12.144
35650W        W  877   0.392  25.655   2.401
35651W        W  878  41.199  39.241  11.440
35652W        W  879  43.804  23.364   0.657
35653W        W  880  32.400  17.319   1.276
35654W        W  881  29.891  39.967   4.344
35655W        W  882  40.236  36.330   3.797
35656W        W  883  12.197  15.702   0.520
35657W        W  884  39.503  20.717   4.554
35658W        W  885  22.638  15.340   1.737
35659W        W  886  39.556  10.379   0.762
35660W        W  887  14.616   1.449   2.239
35661W        W  888  17.222   5.946   3.315
35662W        W  889  12.142  36.903   0.891
35663W        W  890  12.563  40.585  11.953
35664W        W  891  12.280  35.452  12.024
35665W        W  892  25.297  15.103  10.769
35666W        W  893  26.211  16.698   4.151
35667W        W  894  29.442  16.711  10.249
35668W        W  895  38.169  25.136   3.749
35669W        W  896  40.366  19.700   1.659
35670W        W  897  30.648  16.732  14.991
35671W        W  898  24.144   0.171   2.134
35672W        W  899  13.107  24.860   3.619
35673W        W  900   0.979  12.141   2.337
35674W        W  901  44.791  33.931  12.334
35675W        W  902  36.935  32.214   4.948
35676W        W  903  16.195  38.230   1.691
35677W        W  904  18.030  21.538   0.781
35678W        W  905  21.284   9.791  13.928
35679W        W  906  44.883  28.911   3.474
35680W        W  907  19.663  11.962  10.523
35681W        W  908  20.531  35.977   3.133
35682W        W  909  31.164  26.730   3.207
35683W        W  910  35.100  31.637   0.383
35684W        W  911   1.404  27.674   0.432
35685W        W  912  36.968  41.758   5.121
35686W        W  913  42.262   5.275   3.097
35687W        W  914  13.080  41.586   1.571
35688W        W  915  30.859   4.192  13.005
35689W        W  916   1.655  38.089  12.402
35690W        W  917  16.656   2.305   0.636
35691W        W  918   3.833  22.632   3.787
35692W        W  919   2.166  36.448   0.872
35693W        W  920  32.784  14.663  11.646
35694W        W  921  28.306  33.286   3.819
35695W        W  922  44.470   2.235   1.693
35696W        W  923  19.053  14.042  11.679
35697W        W  924  33.999   2.500  10.737
35698W        W  925  29.147  25.699   3.841
35699W        W  926   3.032  14.804  14.804
35700W        W  927  32.081   4.284  12.477
35701W        W  928  11.874  42.922  13.073
35702W        W  929   4.635  32.571   1.830
35703W        W  930  20.497  19.451   1.267
35704W        W  931  19.749  11.119   1.239
35705W        W  932   7.274  14.410   2.320
35706W        W  933  11.111  19.175  14.102
35707W        W  934  17.365  39.065  12.901
35708W        W  935  18.562  39.345  11.479
35709W        W  936  15.047   6.444   2.111
35710W        W  937   7.173  14.745  12.085
35711W        W  938   9.853  26.550   2.847
35712W        W  939  21.921  39.553   1.219
35713W        W  940  10.527  13.926  10.736
35714W        W  941   7.407  22.019  11.520
35715W        W  942  39.810  40.772   4.504
35716W        W  943  37.049  27.904  12.140
35717W        W  944   1.586  12.235  14.009
35718W        W  945  11.415   0.952   3.476
35719W        W  946  29.669   7.990   0.251
35720W        W  947   3.961   7.188  14.423
35721W        W  948  18.296  32.180  13.422
35722W        W  949  32.628  42.524  11.453
35723W        W  950  10.148   4.668  11.962
35724W        W  951   2.459   5.933  13.117
35725W        W  952   9.465  36.259  12.010
35726W        W  953   3.363  12.513  10.746
35727W        W  954   9.937   0.776  14.354
35728W        W  955  40.723  15.125   3.835
35729W        W  956  10.543  40.990   3.289
35730W        W  957  41.411  22.950  10.723
35731W        W  958   0.006  39.231   0.367
35732W        W  959  27.781  12.025   1.903
35733W        W  960  43.498  23.126  13.921
35734W        W  961  29.578  42.900  12.840
35735W        W  962  29.695  43.908  14.318
35736W        W  963  12.581  10.903  11.695
35737W        W  964  24.527   4.754   4.144
35738W        W  965   2.188  28.076   3.240
35739W        W  966  40.355   1.500   4.813
35740W        W  967  40.719  31.336  11.181
35741W        W  968  17.224  37.448   4.292
35742W        W  969  18.280   3.530   0.415
35743W        W  970  40.986  14.625   1.373
35744W        W  971   1.318  38.588   1.844
35745W        W  972  37.585  39.018  11.800
35746W        W  973   0.372   1.652   4.942
35747W        W  974  25.143  41.066  12.940
35748W        W  975  11.592  39.628  11.432
35749W        W  976  12.213  12.815  11.355
35750W        W  977   5.387  13.814  13.332
35751W        W  978  16.443  20.629  10.410
35752W        W  979  37.006  41.720   1.585
35753W        W  980  18.364  41.945   2.770
35754W        W  981  40.464  32.053  12.431
35755W        W  982  14.783  12.779  13.446
35756W        W  983  25.537  34.812   4.813
35757W        W  984   6.165  38.523   3.272
35758W        W  985   1.298   7.291   0.384
35759W        W  986  35.595  11.803   1.709
35760W        W  987  15.862  17.810   3.230
35761W        W  988  21.141  33.773   0.239
35762W        W  989   3.751  38.452   1.339
35763W        W  990  33.721  30.100  14.891
35764W        W  991  22.592  29.580  10.711
35765W        W  992  32.608  38.601  14.479
35766W        W  993  34.087  34.438  11.955
35767W        W  994  41.295  14.068  13.504
35768W        W  995  13.317  44.737  14.349
35769W        W  996  16.576  24.960   1.034
35770W        W  997  40.595  35.053   2.245
35771W        W  998  17.128  34.279   0.933
35772W        W  999  40.140  20.953   4.868
35773W        W 1000  44.424  10.274  10.801
35774W        W 1001  42.194  15.728  12.636
35775W        W 1002  39.925  23.694   4.143
35776W        W 1003  28.982  14.645   2.425
35777W        W 1004  28.976   3.235   5.156
35778W        W 1005  18.626  32.017   1.958
35779W        W 1006  41.322   8.280  12.001
35780W        W 1007  21.418  13.192  14.335
35781W        W 1008  31.407  25.808   3.018
35782W        W 1009  12.785  22.349   4.162
35783W        W 1010  17.307   0.578   2.085
35784W        W 1011  18.732  26.110   0.739
35785W        W 1012  38.029  42.779   3.222
35786W        W 1013  22.194  32.524  12.826
35787W        W 1014  32.502  42.848   0.507
35788W        W 1015  20.547  16.830  11.541
35789W        W 1016  29.663   8.360  14.833
35790W        W 1017  11.912   2.303  13.815
35791W        W 1018   5.232   8.894   0.261
35792W        W 1019   7.768  10.242   4.471
35793W        W 1020  16.160  17.582  14.516
35794W        W 1021   1.269  33.810  14.287
35795W        W 1022  19.093  33.098  12.961
35796W        W 1023   9.165  22.652  10.342
35797W        W 1024   6.695  10.589   4.643
35798W        W 1025  31.515   2.195  12.045
35799W        W 1026  17.195   0.598   3.093
35800W        W 1027  26.428  32.513   1.448
35801W        W 1028  37.719  20.381   1.285
35802W        W 1029   1.973  25.665   2.760
35803W        W 1030  40.918  16.195  14.662
35804W        W 1031   8.673   4.259   0.855
35805W        W 1032  39.629   4.220   1.989
35806W        W 1033   8.681  17.331   0.329
35807W        W 1034  28.538   9.272   3.780
35808W        W 1035  16.568  27.115  10.764
35809W        W 1036  39.798  35.137   0.715
35810W        W 1037  30.957  39.457  14.802
35811W        W 1038  33.004  37.911  14.276
35812W        W 1039  23.220  38.907   9.632
35813W        W 1040  39.581  34.841  10.628
35814W        W 1041  35.020   4.854   0.310
35815W        W 1042  36.342  41.639  13.059
35816W        W 1043   6.174  10.292  13.004
35817W        W 1044   6.007  20.442  13.674
35818W        W 1045  37.556  10.734   0.392
35819W        W 1046  36.591   9.872   0.957
35820W        W 1047  24.602  21.099   0.306
35821W        W 1048  17.198   0.950  11.232
35822W        W 1049   4.854  31.594  13.909
35823W        W 1050  30.095  17.101   2.408
35824W        W 1051  27.708  38.063  11.951
35825W        W 1052  24.216  41.913  11.598
35826W        W 1053  28.682  29.408  13.469
35827W        W 1054  14.174  21.139   2.909
35828W        W 1055  43.943  25.687   4.619
35829W        W 1056  24.546  35.001   4.558
35830W        W 1057  26.988  32.646  11.301
35831W        W 1058   4.461   2.767   2.513
35832W        W 1059  28.179   5.237   0.441
35833W        W 1060  35.397   9.246   0.929
35834W        W 1061  41.006  35.575   2.807
35835W        W 1062  13.419  17.708  12.960
35836W        W 1063  32.874  39.574  14.725
35837W        W 1064  28.052  22.746  13.329
35838W        W 1065  31.502  25.337   0.750
35839W        W 1066   1.783   3.187   5.089
35840W        W 1067   8.875  19.280   2.961
35841W        W 1068  23.487  36.018   3.163
35842W        W 1069  38.563  14.834  13.983
35843W        W 1070  38.120  12.348  14.861
35844W        W 1071   0.299  42.544   0.551
35845W        W 1072  35.428  25.719  11.894
35846W        W 1073  17.788  44.215  13.504
35847W        W 1074  21.110  41.979  13.520
35848W        W 1075  25.622  19.569  13.852
35849W        W 1076  11.751  41.711   0.830
35850W        W 1077  12.176  38.836   4.300
35851W        W 1078  38.064  33.481  11.573
35852W        W 1079   3.205   0.607  11.054
35853W        W 1080  10.810  36.825   2.905
35854W        W 1081  15.837  21.703   0.324
35855W        W 1082  40.050  38.895   3.604
35856W        W 1083  14.762   5.199   2.495
35857W        W 1084  25.599  42.439   1.884
35858W        W 1085  37.954  15.110   3.887
35859W        W 1086  22.733   4.812  10.417
35860W        W 1087  37.006  30.795   4.713
35861W        W 1088  40.738  29.983  11.328
35862W        W 1089  10.880   2.915  13.238
35863W        W 1090  23.090  41.943  14.640
35864W        W 1091   5.184   0.328   0.796
35865W        W 1092  22.423  39.639   2.695
35866W        W 1093  11.104  34.929   0.514
35867W        W 1094  14.477  39.553   4.744
35868W        W 1095  19.179  33.463   4.309
35869W        W 1096   4.340  34.188  11.067
35870W        W 1097   5.968  27.151  11.126
35871W        W 1098  29.737  35.519   4.090
35872W        W 1099   2.012   2.878   2.144
35873W        W 1100  36.974  34.570  11.630
35874W        W 1101  33.161  10.857   1.693
35875W        W 1102  12.609   2.675   1.408
35876W        W 1103  33.418   4.715   3.594
35877W        W 1104  22.185   5.870   1.775
35878W        W 1105  40.275  17.426   1.901
35879W        W 1106  40.391   8.803   4.618
35880W        W 1107  26.469  27.212   0.791
35881W        W 1108   8.347  11.223   2.850
35882W        W 1109  11.147   8.347  11.252
35883W        W 1110  26.158   3.002  13.347
35884W        W 1111  34.109   1.742   0.583
35885W        W 1112  23.250  33.632   4.717
35886W        W 1113  32.642  13.426  13.991
35887W        W 1114  41.719  33.326  12.346
35888W        W 1115  23.565  15.105   2.648
35889W        W 1116  23.935  44.193  14.992
35890W        W 1117  44.487  13.296  11.708
35891W        W 1118  39.016  11.900   2.228
35892W        W 1119  24.030  24.912   4.287
35893W        W 1120   8.247  22.975   2.720
35894W        W 1121  16.464  40.872   0.326
35895W        W 1122   3.051  30.865  11.245
35896W        W 1123  33.545  17.762   1.427
35897W        W 1124  33.865  42.948   0.792
35898W        W 1125  10.960  44.298   2.758
35899W        W 1126  44.024  33.406   3.743
35900W        W 1127  23.997  16.863  10.714
35901W        W 1128  31.535  38.454  13.058
35902W        W 1129   6.049  29.043  10.753
35903W        W 1130  17.931  43.746   0.214
35904W        W 1131   8.130  35.022  11.138
35905W        W 1132  42.634  16.556   2.273
35906W        W 1133  41.216  24.502   0.324
35907W        W 1134   9.190   7.878   1.689
35908W        W 1135  33.191  18.616  10.696
35909W        W 1136  44.076   5.380  14.450
35910W        W 1137   5.404  32.144   1.646
35911W        W 1138  16.256   9.643  14.619
35912W        W 1139   9.757  30.058  14.619
35913W        W 1140   7.115  40.463  11.201
35914W        W 1141  32.852   4.556   2.241
35915W        W 1142  38.373  21.993  14.326
35916W        W 1143  19.308  44.705  12.322
35917W        W 1144  23.794  20.062  13.640
35918W        W 1145  39.607  43.887  14.048
35919W        W 1146  29.993  17.113  14.564
35920W        W 1147  20.107   9.467  13.984
35921W        W 1148  16.048  22.486   1.943
35922W        W 1149  26.079  14.934   3.201
35923W        W 1150  25.095  22.144   4.613
35924W        W 1151   6.815   9.282   3.813
35925W        W 1152  30.185  19.657   2.688
35926W        W 1153   0.531  11.373  13.808
35927W        W 1154   2.321  33.604  14.998
35928W        W 1155  10.679  21.616   3.595
35929W        W 1156  27.083  32.522  13.968
35930W        W 1157  39.584  36.059   3.344
35931W        W 1158   7.883   7.180  12.376
35932W        W 1159   2.296  40.292  13.938
35933W        W 1160  43.738  19.202   0.488
35934W        W 1161  29.095  22.817  11.981
35935W        W 1162  38.809  38.506   3.255
35936W        W 1163  31.399  43.060  14.815
35937W        W 1164  24.726  23.685   1.377
35938W        W 1165   1.596  16.350   1.378
35939W        W 1166  32.603  16.031  12.126
35940W        W 1167  12.217  43.227  11.922
35941W        W 1168  36.127  25.509   4.609
35942W        W 1169  33.720  38.444  11.221
35943W        W 1170  25.029  14.998   2.925
35944W        W 1171  13.524  11.751  14.215
35945W        W 1172  43.798  42.101  12.346
35946W        W 1173  23.539  20.852  14.742
35947W        W 1174  12.802   7.908   0.300
35948W        W 1175  12.199  27.204  13.350
35949W        W 1176   6.623  33.868   2.898
35950W        W 1177  34.855  27.133  13.376
35951W        W 1178  19.994   8.822   2.870
35952W        W 1179  38.373  20.313  11.098
35953W        W 1180  25.219   5.844   1.461
35954W        W 1181  12.501  41.384  12.473
35955W        W 1182   8.780   9.348   0.776
35956W        W 1183  38.454   2.399   4.121
35957W        W 1184  31.883  10.729   3.290
35958W        W 1185  37.551  30.521  12.986
35959W        W 1186  40.695  37.157   2.370
35960W        W 1187  12.956  32.768   2.762
35961W        W 1188  31.388  19.650   4.115
35962W        W 1189  19.856  26.045   2.590
35963W        W 1190  39.833   9.165   2.134
35964W        W 1191  13.447  34.491   0.003
35965W        W 1192  27.644  44.314   2.769
35966W        W 1193  31.641  35.585   2.798
35967W        W 1194  19.083  20.069  13.288
35968W        W 1195   8.945  33.205  14.444
35969W        W 1196  24.556  37.857   1.222
35970W        W 1197  18.955  22.987   1.298
35971W        W 1198   4.428  13.125   2.202
35972W        W 1199  27.021  12.685   0.480
35973W        W 1200  38.982  11.777   2.735
35974W        W 1201  11.162   1.314   2.162
35975W        W 1202  15.570  44.990  11.150
35976W        W 1203  35.812   4.347  14.276
35977W        W 1204  34.084  20.000   1.316
35978W        W 1205  43.389  23.635   1.257
35979W        W 1206  44.024  42.347   0.325
35980W        W 1207  19.816   0.135   1.259
35981W        W 1208   3.725  43.934  10.341
35982W        W 1209   3.079   9.357  14.094
35983W        W 1210  15.728  43.274   4.704
35984W        W 1211  12.721  36.309   0.279
35985W        W 1212  32.594  17.694   0.252
35986W        W 1213  14.245   0.691  11.843
35987W        W 1214  11.278  21.110  12.548
35988W        W 1215  21.514  13.460  11.227
35989W        W 1216  12.166  15.056  14.906
35990W        W 1217   3.852  37.252  10.714
35991W        W 1218  23.795   3.017   2.816
35992W        W 1219  38.970  26.628   3.778
35993W        W 1220  21.768  43.345   2.752
35994W        W 1221   8.355  25.174   2.762
35995W        W 1222  42.291  35.582  13.564
35996W        W 1223   7.249  17.707   2.684
35997W        W 1224  10.458  42.255   4.673
35998W        W 1225  27.254   2.273  11.877
35999W        W 1226  23.971  35.443   3.559
36000W        W 1227  12.107  29.109  11.312
36001W        W 1228  38.323   9.183   4.410
36002W        W 1229  40.426  20.588   4.527
36003W        W 1230  36.693   5.702  13.478
36004W        W 1231  42.056   9.378   4.099
36005W        W 1232  23.234  38.395  12.923
36006W        W 1233   3.276  26.242  13.020
36007W        W 1234  11.051  29.046   3.277
36008W        W 1235  20.756  31.555   4.771
36009W        W 1236  20.299  22.059  14.511
36010W        W 1237  36.306   8.626   2.676
36011W        W 1238  41.023   1.880  11.353
36012W        W 1239  11.598  27.602   0.189
36013W        W 1240  44.330  29.247   0.757
36014W        W 1241  34.103  17.639  12.569
36015W        W 1242  44.892  15.985  11.043
36016W        W 1243  43.961  19.200  12.085
36017W        W 1244  41.079  17.287  13.042
36018W        W 1245  20.197  26.046  10.907
36019W        W 1246  35.495   9.612  13.999
36020W        W 1247  25.526  23.095  10.696
36021W        W 1248  17.208  19.660  10.562
36022W        W 1249  21.503  29.739   0.756
36023W        W 1250  15.386   9.204  12.617
36024W        W 1251  28.464  13.613  14.541
36025W        W 1252  42.790  44.472   4.094
36026W        W 1253   4.295  13.414   1.715
36027W        W 1254  24.492  43.226   4.774
36028W        W 1255  37.986   6.864  14.957
36029W        W 1256  30.683  18.492  11.609
36030W        W 1257   8.590   0.539  10.758
36031W        W 1258   2.033  40.435   4.211
36032W        W 1259  43.884  16.834  10.825
36033W        W 1260  32.907  42.566   4.113
36034W        W 1261   1.995  24.395  11.223
36035W        W 1262  41.568  21.753  13.018
36036W        W 1263  20.382  10.312  14.350
36037W        W 1264  32.265  35.007  10.996
36038W        W 1265  17.693   1.735  14.138
36039W        W 1266   5.388  32.987   2.875
36040W        W 1267  44.841  29.402  13.972
36041W        W 1268  19.672  36.339   4.173
36042W        W 1269  20.592   8.374   1.680
36043W        W 1270   7.903  35.417   1.483
36044W        W 1271  30.623  32.191  14.049
36045W        W 1272  19.697  44.379  12.431
36046W        W 1273   8.174  30.783  13.137
36047W        W 1274  29.610  24.153   0.302
36048W        W 1275   7.731  22.732  14.317
36049W        W 1276  19.343  44.370  11.075
36050W        W 1277  41.954  34.958   0.006
36051W        W 1278  40.486  39.457  14.363
36052W        W 1279   1.183  26.375  10.558
36053W        W 1280   9.427  26.396   0.377
36054W        W 1281  23.968  19.031  13.013
36055W        W 1282   5.720  42.652  14.497
36056W        W 1283   3.461   0.431   0.246
36057W        W 1284  30.506  30.144  13.099
36058W        W 1285  36.739  30.846   0.733
36059W        W 1286  28.544   2.630   3.137
36060W        W 1287  22.548  41.849   1.382
36061W        W 1288  20.153  15.901   4.581
36062W        W 1289   5.625   9.963  11.980
36063W        W 1290  42.286  42.013   2.688
36064W        W 1291  19.626  12.686   4.111
36065W        W 1292  27.968  39.948  11.085
36066W        W 1293  21.757  12.271  10.695
36067W        W 1294  38.417  39.952  12.928
36068W        W 1295  20.719  31.011  13.967
36069W        W 1296  17.269   2.782   5.000
36070W        W 1297  28.444  12.877  14.797
36071W        W 1298  43.535  22.203  14.323
36072W        W 1299  33.978  13.733   5.287
36073W        W 1300  12.633  30.526  13.547
36074W        W 1301  11.446   9.361  11.138
36075W        W 1302   9.245  32.162   4.648
36076W        W 1303  12.249  15.993   2.273
36077W        W 1304  38.053  25.643   3.572
36078W        W 1305  28.135  21.556   0.186
36079W        W 1306  15.961   1.421   3.178
36080W        W 1307   2.127   4.449  12.159
36081W        W 1308   7.239   3.989  14.997
36082W        W 1309  19.497  35.729   0.899
36083W        W 1310   1.741  22.684   0.478
36084W        W 1311  22.689  19.484   1.294
36085W        W 1312  40.376  21.582  13.837
36086W        W 1313  32.182  26.984   3.045
36087W        W 1314   0.426   1.655   0.383
36088W        W 1315   7.445  19.863  13.392
36089W        W 1316  26.195  11.534  13.386
36090W        W 1317  26.659  14.360  10.843
36091W        W 1318  29.409  31.931   4.919
36092W        W 1319   8.873  31.240  13.486
36093W        W 1320  44.486   3.326   1.156
36094W        W 1321  27.723  10.359  10.686
36095W        W 1322  41.777  39.511  11.426
36096W        W 1323  18.023  18.952  14.203
36097W        W 1324   2.267  40.055   0.638
36098W        W 1325  14.670  34.581   4.248
36099W        W 1326   0.818  30.630   0.749
36100W        W 1327  39.799  26.682   3.264
36101W        W 1328   5.811  18.695  13.577
36102W        W 1329   8.731  25.200   1.671
36103W        W 1330  22.536  31.340   3.391
36104W        W 1331  26.577  27.672  13.068
36105W        W 1332  36.318  26.743   9.982
36106W        W 1333  39.892   5.744   0.596
36107W        W 1334   0.678  43.335   3.128
36108W        W 1335  28.189  42.536  12.872
36109W        W 1336   1.412  21.717   4.043
36110W        W 1337  30.404  31.411  11.004
36111W        W 1338   0.780  25.554   0.722
36112W        W 1339  32.241   7.074  11.259
36113W        W 1340  36.094   5.536   1.133
36114W        W 1341   3.378   8.825   2.870
36115W        W 1342  35.056  38.030   5.069
36116W        W 1343  23.796  37.607   3.594
36117W        W 1344  20.466  35.106   2.145
36118W        W 1345  26.689  35.721   3.237
36119W        W 1346  21.062  36.633   3.633
36120W        W 1347  44.412  34.969  14.794
36121W        W 1348  26.008  21.757  10.794
36122W        W 1349  28.917  26.181  13.362
36123W        W 1350  10.913  39.496  12.617
36124W        W 1351  30.603  11.933  13.834
36125W        W 1352  36.404  15.880   4.103
36126W        W 1353   7.953  11.252  10.627
36127W        W 1354   2.740   1.681   1.729
36128W        W 1355   4.641  16.139   4.934
36129W        W 1356  26.082  40.931   4.054
36130W        W 1357  11.853  17.294  11.114
36131W        W 1358  29.861  16.782   1.386
36132W        W 1359  36.133  30.617   3.676
36133W        W 1360  29.143   9.037   4.186
36134W        W 1361  37.416  37.811  11.529
36135W        W 1362  19.986   9.295   4.594
36136W        W 1363  32.497  33.139  14.437
36137W        W 1364  24.596  34.640  12.014
36138W        W 1365  20.026   3.038   3.332
36139W        W 1366  17.191  15.797  14.773
36140W        W 1367  25.923  39.861  11.991
36141W        W 1368  39.273  41.611  14.872
36142W        W 1369  11.924   9.310  13.506
36143W        W 1370  10.396  22.882  12.346
36144W        W 1371  16.207  39.942  13.274
36145W        W 1372  28.465   8.053   2.963
36146W        W 1373  40.829  23.109  10.831
36147W        W 1374  26.275  14.248  10.519
36148W        W 1375  18.403  41.928  11.160
36149W        W 1376   4.278  29.919   0.797
36150W        W 1377  18.873   7.496   1.820
36151W        W 1378   8.753  42.756  14.365
36152W        W 1379  37.921  36.637   1.688
36153W        W 1380   2.980  44.327   0.940
36154W        W 1381  10.856  42.381  10.908
36155W        W 1382  19.177  31.496   3.603
36156W        W 1383  42.311  40.048   0.814
36157W        W 1384   8.121  14.406   1.209
36158W        W 1385   3.654  14.680   4.942
36159W        W 1386   8.361  14.721   1.889
36160W        W 1387  41.244  41.563   1.654
36161W        W 1388   3.775  14.698   0.783
36162W        W 1389  24.956  38.007  11.647
36163W        W 1390  11.296  42.262   1.269
36164W        W 1391  44.461  37.447   4.895
36165W        W 1392   7.595  41.488   1.180
36166W        W 1393  16.782  35.496  10.484
36167W        W 1394  20.690  21.704  10.996
36168W        W 1395  22.492  37.482   1.897
36169W        W 1396   2.528  16.817   0.806
36170W        W 1397  40.049  31.104  11.595
36171W        W 1398   1.428  10.672  12.677
36172W        W 1399   7.793  37.845   4.659
36173W        W 1400  14.000  24.136  11.490
36174W        W 1401  10.804  11.478   1.226
36175W        W 1402  37.539   1.539   1.067
36176W        W 1403  30.163   5.226   2.551
36177W        W 1404  26.052  29.397   1.789
36178W        W 1405  19.705  12.346   1.689
36179W        W 1406   9.684  16.570   2.654
36180W        W 1407  25.563  22.673   3.231
36181W        W 1408  35.393  17.189  10.780
36182W        W 1409  27.021  30.689  10.617
36183W        W 1410   1.338   4.908  12.121
36184W        W 1411  24.104  33.905   1.689
36185W        W 1412   5.734  36.294  13.013
36186W        W 1413   8.576  21.060  11.578
36187W        W 1414  21.155  39.998   4.534
36188W        W 1415  26.737  26.450  12.127
36189W        W 1416  22.690  17.716  10.357
36190W        W 1417  43.251  26.006   3.150
36191W        W 1418  34.587  21.006   1.608
36192W        W 1419  30.634  42.689  12.470
36193W        W 1420  22.591   2.466   3.650
36194W        W 1421  37.813   8.178  14.473
36195W        W 1422  30.589  10.269  14.540
36196W        W 1423   5.319   9.067   1.232
36197W        W 1424   8.865  31.516   3.455
36198W        W 1425  13.103  14.263  13.402
36199W        W 1426  36.295   2.537  14.447
36200W        W 1427   1.599  24.550   4.109
36201W        W 1428   3.579   6.606  14.006
36202W        W 1429   0.583  35.869   1.726
36203W        W 1430  23.176  13.766   0.365
36204W        W 1431   7.229  32.185   3.785
36205W        W 1432  24.446   7.178   0.767
36206W        W 1433  15.400   0.657   3.670
36207W        W 1434  32.265  17.664   2.772
36208W        W 1435  25.849  27.666   0.566
36209W        W 1436   3.689   2.844   1.289
36210W        W 1437   6.631  33.895   3.884
36211W        W 1438  24.562  24.795  13.955
36212W        W 1439  10.719  13.595   2.985
36213W        W 1440  29.104  13.613  13.422
36214W        W 1441   0.505  11.310  11.376
36215W        W 1442  37.992   5.121   1.227
36216W        W 1443  21.795   5.832  11.231
36217W        W 1444  35.321  22.582  10.251
36218W        W 1445  31.509  29.700   0.862
36219W        W 1446  16.335   9.633  12.530
36220W        W 1447   7.127  18.834   1.833
36221W        W 1448  12.813  28.663   2.453
36222W        W 1449  37.064  36.748   1.862
36223W        W 1450   1.428   8.608  14.707
36224W        W 1451  27.996  26.153  10.921
36225W        W 1452  43.656  32.826   0.914
36226W        W 1453  10.231  38.730  14.275
36227W        W 1454  25.948  35.377   0.901
36228W        W 1455  43.598  16.510  12.605
36229W        W 1456  26.533  29.845  10.805
36230W        W 1457  38.617  15.597   1.946
36231W        W 1458  16.475  24.079  13.761
36232W        W 1459  27.098  23.860   4.859
36233W        W 1460  17.791  18.083   3.306
36234W        W 1461  23.564  15.851  13.046
36235W        W 1462  35.364  27.011  11.416
36236W        W 1463   0.250  39.577   3.968
36237W        W 1464   2.434  33.336   1.935
36238W        W 1465  29.942  12.660  12.951
36239W        W 1466  37.097  27.035   2.464
36240W        W 1467   3.406  21.814   4.746
36241W        W 1468  16.483  30.561   3.996
36242W        W 1469   9.850  11.716  13.905
36243W        W 1470  23.730  19.260  13.924
36244W        W 1471  40.076   2.808   2.248
36245W        W 1472  20.747   2.398   2.056
36246W        W 1473   2.013  23.689  10.693
36247W        W 1474  41.254  38.358  11.039
36248W        W 1475   1.914  42.329   5.243
36249W        W 1476  28.863  11.862  11.395
36250W        W 1477  11.506  33.044   3.260
36251W        W 1478  12.228  39.006   2.778
36252W        W 1479  37.049  21.903   1.477
36253W        W 1480   8.666  42.405  13.378
36254W        W 1481  22.764  38.043   4.091
36255W        W 1482   2.985   9.005  13.080
36256W        W 1483  16.195  11.900  13.769
36257W        W 1484  30.932   3.872  13.453
36258W        W 1485  42.376  31.489  13.534
36259W        W 1486  13.237  14.026   0.141
36260W        W 1487  15.999  33.806  13.521
36261W        W 1488  28.543   1.859  13.817
36262W        W 1489  13.206   6.333   2.397
36263W        W 1490  15.797   8.875   1.897
36264W        W 1491  33.582  42.632  11.595
36265W        W 1492  35.651   9.368   2.751
36266W        W 1493  24.550  26.379   3.482
36267W        W 1494  13.101  35.952  13.020
36268W        W 1495  20.669   9.895  11.037
36269W        W 1496  13.650  27.600   0.719
36270W        W 1497  36.548   5.363  10.711
36271W        W 1498  29.786  41.679   1.379
36272W        W 1499  40.254  38.859   0.863
36273W        W 1500   7.225  19.620  12.550
36274W        W 1501   8.856  24.462  10.715
36275W        W 1502  43.580  15.119  14.494
36276W        W 1503   7.371  33.420  14.004
36277W        W 1504  14.385  42.947  11.368
36278W        W 1505  39.320  25.586   1.840
36279W        W 1506  13.892   8.401  14.851
36280W        W 1507  15.455  34.465   2.489
36281W        W 1508  30.435  25.840   4.363
36282W        W 1509  31.854  21.532   2.933
36283W        W 1510   8.121  28.474  11.143
36284W        W 1511  33.170  24.639  14.982
36285W        W 1512  11.778  33.023   2.327
36286W        W 1513  29.747   3.618   0.407
36287W        W 1514  15.883   3.206   5.042
36288W        W 1515  13.244   0.253  14.294
36289W        W 1516  27.966  16.547  14.142
36290W        W 1517  32.603  28.018  13.412
36291W        W 1518  28.735  44.403   1.854
36292W        W 1519  23.351  21.877  13.473
36293W        W 1520  15.664  21.271  10.453
36294W        W 1521  14.094  31.887  14.447
36295W        W 1522  32.030  12.482  12.029
36296W        W 1523   7.708   1.315  13.606
36297W        W 1524  36.248  24.538  11.152
36298W        W 1525   3.857   6.470  11.481
36299W        W 1526  15.162   5.452  11.573
36300W        W 1527  12.461   4.223  10.594
36301W        W 1528  23.978  25.080  12.482
36302W        W 1529  38.125  35.571  11.409
36303W        W 1530  12.719  34.784  13.562
36304W        W 1531  40.056  18.022   3.160
36305W        W 1532  36.591  28.460  11.493
36306W        W 1533  25.385   4.784   1.854
36307W        W 1534  39.915  37.255   1.950
36308W        W 1535  27.638  13.299   3.163
36309W        W 1536  20.732  22.004   0.455
36310W        W 1537   8.794  27.270   1.423
36311W        W 1538  12.329   0.125  14.554
36312W        W 1539  11.004  16.758  11.226
36313W        W 1540  26.650  25.085   4.580
36314W        W 1541  22.222   3.800  12.448
36315W        W 1542  41.494  24.344   3.588
36316W        W 1543   7.331   8.197  14.532
36317W        W 1544  31.682  13.801  12.570
36318W        W 1545  36.956  34.806  12.076
36319W        W 1546  18.681  37.230  11.979
36320W        W 1547  30.625   9.144   0.715
36321W        W 1548  16.030  39.495   2.324
36322W        W 1549   0.965  15.806  12.476
36323W        W 1550   8.900  39.741  12.730
36324W        W 1551  41.530  19.780   4.250
36325W        W 1552  44.580  34.927   2.773
36326W        W 1553  20.065  20.354  11.162
36327W        W 1554  26.274  22.580   4.210
36328W        W 1555  14.620   4.395  10.749
36329W        W 1556  27.944  27.437  12.906
36330W        W 1557  33.580  22.449   2.763
36331W        W 1558  18.045  17.662  13.313
36332W        W 1559  10.134   6.698   3.872
36333W        W 1560  27.190   8.757  13.157
36334W        W 1561  21.505   2.012   9.790
36335W        W 1562   8.154  34.551   2.929
36336W        W 1563   3.507   4.150   4.075
36337W        W 1564   3.538  22.166  11.555
36338W        W 1565  41.503  36.125   2.243
36339W        W 1566  12.679  31.657  10.629
36340W        W 1567  44.230  21.697  10.683
36341W        W 1568  14.675  27.039   4.351
36342W        W 1569   6.889  43.448   5.566
36343W        W 1570  33.040   1.533  10.594
36344W        W 1571  27.838  32.379   0.218
36345W        W 1572   5.694  20.428  11.516
36346W        W 1573   5.042  21.730   3.626
36347W        W 1574   8.436   7.944  12.470
36348W        W 1575  40.825  16.433   4.032
36349W        W 1576   8.450  40.351   4.838
36350W        W 1577   2.765  37.011  10.726
36351W        W 1578   8.345  20.097   4.109
36352W        W 1579   0.541  12.230  12.386
36353W        W 1580  22.259  23.129  12.816
36354W        W 1581  15.623  23.796  12.917
36355W        W 1582  10.683  30.139   0.194
36356W        W 1583  18.702   9.260  12.949
36357W        W 1584  29.502  20.729  13.865
36358W        W 1585  30.062  42.925   4.013
36359W        W 1586  32.414  18.967  13.059
36360W        W 1587   9.751  24.916   2.162
36361W        W 1588  22.977  10.029   3.760
36362W        W 1589  40.937   2.490   1.113
36363W        W 1590   0.962  30.985   1.291
36364W        W 1591  44.237  41.931  13.363
36365W        W 1592  19.825  33.327  11.084
36366W        W 1593  13.170  23.817   3.688
36367W        W 1594  10.964  23.033   1.830
36368W        W 1595   2.423  30.546  13.554
36369W        W 1596  41.804  42.954   3.737
36370W        W 1597  38.982  28.882   0.986
36371W        W 1598  43.117  33.545  12.196
36372W        W 1599  35.982   7.912  12.019
36373W        W 1600   8.831  10.266  14.272
36374W        W 1601  15.348  18.506   2.654
36375W        W 1602  10.853  34.588   0.179
36376W        W 1603  25.576  15.570  10.466
36377W        W 1604  44.240  13.297   0.921
36378W        W 1605  23.717   9.412  11.619
36379W        W 1606  40.347  35.054   4.203
36380W        W 1607   8.210   5.189   4.557
36381W        W 1608  31.324  24.077   1.970
36382W        W 1609  35.774  30.566  14.271
36383W        W 1610  30.427   6.669   0.793
36384W        W 1611  44.221   3.663  13.361
36385W        W 1612   6.430  35.787  13.269
36386W        W 1613   6.262  26.549  13.356
36387W        W 1614  25.141  38.016  14.471
36388W        W 1615   6.971  28.803   3.876
36389W        W 1616  33.912  32.158   0.928
36390W        W 1617   0.844  35.446  12.191
36391W        W 1618   4.655   3.946   1.306
36392W        W 1619  36.337   3.718   1.374
36393W        W 1620  29.099  32.907  11.843
36394W        W 1621  35.152  38.981   3.775
36395W        W 1622   7.937  24.068  11.481
36396W        W 1623   0.369  14.515   3.341
36397W        W 1624  29.554  39.927   0.288
36398W        W 1625  38.049   9.461   1.312
36399W        W 1626  41.876  23.352   2.798
36400W        W 1627  27.688   6.313   3.831
36401W        W 1628   2.945  28.052  12.711
36402W        W 1629  16.979  30.885  12.883
36403W        W 1630  15.836  30.977  13.772
36404W        W 1631  24.566   7.269   2.230
36405W        W 1632  22.706  32.856  12.377
36406W        W 1633  19.646   1.055   0.191
36407W        W 1634  34.823  31.504   0.809
36408W        W 1635  43.244  25.130  13.575
36409W        W 1636  15.786  27.560   2.355
36410W        W 1637  34.503  36.654  13.555
36411W        W 1638  27.674  24.739  12.044
36412W        W 1639  36.284  16.159  12.506
36413W        W 1640  38.760  18.122   3.658
36414W        W 1641   5.414  37.112   2.273
36415W        W 1642   7.735  24.516  14.296
36416W        W 1643  38.500  36.151  12.140
36417W        W 1644  14.700   2.768   0.355
36418W        W 1645  29.098  10.207  11.561
36419W        W 1646  21.914   1.419  13.735
36420W        W 1647  27.043  26.412   1.918
36421W        W 1648  10.916  21.129   2.828
36422W        W 1649  41.285  19.717  12.033
36423W        W 1650   4.071  29.332   2.524
36424W        W 1651  11.402  22.507   0.806
36425W        W 1652   7.369  17.830  14.889
36426W        W 1653  27.587  39.825   3.680
36427W        W 1654  20.277  12.693   0.029
36428W        W 1655  44.198  23.490   2.344
36429W        W 1656  25.174  12.477   0.987
36430W        W 1657  40.411  21.575  11.839
36431W        W 1658  40.032   4.134   4.904
36432W        W 1659  14.614  23.115   4.623
36433W        W 1660  10.759  27.312  13.316
36434W        W 1661   5.456  25.838  12.656
36435W        W 1662  15.674  42.569  12.925
36436W        W 1663  35.230  16.445   2.813
36437W        W 1664  19.597  17.174  14.763
36438W        W 1665   7.388  11.270   0.569
36439W        W 1666  10.050  14.186  14.784
36440W        W 1667  14.779  25.133   1.289
36441W        W 1668   2.119  18.673   1.981
36442W        W 1669  40.541   9.846   1.273
36443W        W 1670  35.418  21.655   2.720
36444W        W 1671  12.789  13.270  14.860
36445W        W 1672  34.656   6.325  10.719
36446W        W 1673  38.649  28.694   2.288
36447W        W 1674  13.916   8.426   0.918
36448W        W 1675  10.657  26.203   3.289
36449W        W 1676  17.630  44.315   2.365
36450W        W 1677   4.122  33.555   3.773
36451W        W 1678  36.286   6.806   1.854
36452W        W 1679  28.528  40.952   1.615
36453W        W 1680   6.087  37.018   1.769
36454W        W 1681  21.263  34.349  14.342
36455W        W 1682  32.598  34.000   0.404
36456W        W 1683  20.542  40.295   2.435
36457W        W 1684  43.750  16.654  14.411
36458W        W 1685  13.817  12.394   1.755
36459W        W 1686  29.088  23.024   2.346
36460W        W 1687  40.784   9.359  14.570
36461W        W 1688  29.791  11.868  12.541
36462W        W 1689  14.270  22.154  11.710
36463W        W 1690  14.623  31.125  14.292
36464W        W 1691  19.907  16.589   2.982
36465W        W 1692  15.186  43.267  11.518
36466W        W 1693  14.322  19.923   2.327
36467W        W 1694  22.048  35.507   4.560
36468W        W 1695  16.079   7.400   4.106
36469W        W 1696  27.567  26.733   1.390
36470W        W 1697  33.808  19.545  11.591
36471W        W 1698  31.609   5.808  10.725
36472W        W 1699   7.712  13.886   1.004
36473W        W 1700  28.392  40.641   2.423
36474W        W 1701  39.709  37.850  11.028
36475W        W 1702  13.827   3.254  11.172
36476W        W 1703   0.445  27.505  12.493
36477W        W 1704  26.529  32.884   3.699
36478W        W 1705  11.554   8.094  11.092
36479W        W 1706  22.234  15.751  13.779
36480W        W 1707   4.653  39.879   2.795
36481W        W 1708  43.690  44.638  10.214
36482W        W 1709   1.258  40.430   1.939
36483W        W 1710  25.476   5.789   1.898
36484W        W 1711  29.702  36.375   2.537
36485W        W 1712  31.742  35.208   2.423
36486W        W 1713   9.423  35.693   2.930
36487W        W 1714  36.278  33.962   3.873
36488W        W 1715  21.135  23.005  11.461
36489W        W 1716  22.749  24.482   1.929
36490W        W 1717  40.875   0.513   0.436
36491W        W 1718  14.305  14.731  14.704
36492W        W 1719  25.027  31.410  12.770
36493W        W 1720  20.030   8.141   4.037
36494W        W 1721   6.761  36.146  13.525
36495W        W 1722  40.572  17.730   4.164
36496W        W 1723  40.588   8.304   2.717
36497W        W 1724   2.756  44.506  14.296
36498W        W 1725  29.938  20.288  12.906
36499W        W 1726  14.659  39.000   2.121
36500W        W 1727   5.461  29.090   4.588
36501W        W 1728   1.350  40.855  14.158
36502W        W 1729  41.439  43.720  11.115
36503W        W 1730  21.249   6.450   4.152
36504W        W 1731  35.983   3.888  10.687
36505W        W 1732   5.770   1.831  12.696
36506W        W 1733  17.308  36.236  10.961
36507W        W 1734  44.115  16.069   1.902
36508W        W 1735  13.715  29.373  14.792
36509W        W 1736  13.757  21.993  13.082
36510W        W 1737  19.174  34.917   0.277
36511W        W 1738   6.082  22.984   4.325
36512W        W 1739  42.143  21.106  14.110
36513W        W 1740   7.457  43.964  10.895
36514W        W 1741  34.613  25.261   1.930
36515W        W 1742  10.559  32.936  11.763
36516W        W 1743   1.228   8.779   2.158
36517W        W 1744  17.589  12.335  12.452
36518W        W 1745   1.673  41.473   2.668
36519W        W 1746  41.558  28.558  12.397
36520W        W 1747   3.248  30.963   2.498
36521W        W 1748   3.192  13.409  14.936
36522W        W 1749  12.818  17.919   4.878
36523W        W 1750  33.711  30.982   3.735
36524W        W 1751   3.080  13.716   1.775
36525W        W 1752  31.957  29.963  13.916
36526W        W 1753   2.867  31.645   4.129
36527W        W 1754  11.200  16.701   0.894
36528W        W 1755  39.371  12.385  12.126
36529W        W 1756  16.659   3.182   1.372
36530W        W 1757  34.483  16.428   0.420
36531W        W 1758  41.977  33.230   1.836
36532W        W 1759  23.140   5.802  12.118
36533W        W 1760  44.324  24.559   4.893
36534W        W 1761  27.873  22.262  13.337
36535W        W 1762   1.243  42.387   1.409
36536W        W 1763  31.079  35.822   0.552
36537W        W 1764  33.603  14.754  13.367
36538W        W 1765  11.834  18.653   2.792
36539W        W 1766   6.930   1.552   3.834
36540W        W 1767  23.476   5.769   1.408
36541W        W 1768   6.347  26.666   1.354
36542W        W 1769  13.979  15.286  12.521
36543W        W 1770  42.378  40.544   2.397
36544W        W 1771   4.421   0.547   2.991
36545W        W 1772  20.996   5.427  11.455
36546W        W 1773  38.000  28.114  10.114
36547W        W 1774  35.378   7.773  11.406
36548W        W 1775  14.133  32.958   1.249
36549W        W 1776  34.147   2.835  12.414
36550W        W 1777  43.417  35.485   1.731
36551W        W 1778  26.071  34.930   4.240
36552W        W 1779  44.305  10.177  14.947
36553W        W 1780  26.621   3.201   3.320
36554W        W 1781  19.601   5.910   2.889
36555W        W 1782  28.557  12.408   2.232
36556W        W 1783   6.291  29.437   1.851
36557W        W 1784   9.846  33.580   1.201
36558W        W 1785   8.277  25.188   0.686
36559W        W 1786  38.533  25.139  11.222
36560W        W 1787   0.326  21.263  12.771
36561W        W 1788   3.701  24.354   5.068
36562W        W 1789  25.272  10.692   0.398
36563W        W 1790  39.846  29.018   0.530
36564W        W 1791  26.515  37.586   1.003
36565W        W 1792  33.076  24.960   3.128
36566W        W 1793  28.096   1.466  12.120
36567W        W 1794  30.667  25.402   1.780
36568W        W 1795  13.078  44.453   0.883
36569W        W 1796  29.913  12.329   2.732
36570W        W 1797  32.539   7.045   2.326
36571W        W 1798  16.659  30.068   3.961
36572W        W 1799  11.755  20.598   1.862
36573W        W 1800  25.170   7.888   4.167
36574W        W 1801  30.359  41.504  10.894
36575W        W 1802  11.664  21.474   3.777
36576W        W 1803  30.066  36.618  13.266
36577W        W 1804  25.217  38.276   0.266
36578W        W 1805  43.570  43.918   0.998
36579W        W 1806  23.156  33.163  14.954
36580W        W 1807  17.848  26.352  14.024
36581W        W 1808  19.569  30.865  14.920
36582W        W 1809  34.941  22.557  13.873
36583W        W 1810  31.071  41.972  10.859
36584W        W 1811  18.272  26.685  13.954
36585W        W 1812   8.401   4.225   3.115
36586W        W 1813  25.862  33.960   4.205
36587W        W 1814  43.494  35.915   4.495
36588W        W 1815  26.678   2.583   4.222
36589W        W 1816  22.114  11.898  10.758
36590W        W 1817   6.438   4.741   0.158
36591W        W 1818  43.419  43.993  13.555
36592W        W 1819   7.593  27.169  13.081
36593W        W 1820   7.367  22.253  11.991
36594W        W 1821   3.066  44.099  11.787
36595W        W 1822  42.266  41.983  14.828
36596W        W 1823  11.253  17.512   3.095
36597W        W 1824   9.863  26.989   2.583
36598W        W 1825  39.907  29.944  13.151
36599W        W 1826   8.141  29.919  11.187
36600W        W 1827   2.988  19.144   2.830
36601W        W 1828   2.272  31.065   1.715
36602W        W 1829  17.118   8.132  14.883
36603W        W 1830  31.146   3.227  10.681
36604W        W 1831   0.010  14.738   0.381
36605W        W 1832  19.513   4.374  11.522
36606W        W 1833  30.656   1.492   2.462
36607W        W 1834  32.132  41.753  14.425
36608W        W 1835  31.291  36.961  13.993
36609W        W 1836   0.997  20.750   3.751
36610W        W 1837  20.681  30.626   4.068
36611W        W 1838  23.964  37.116  11.162
36612W        W 1839  16.873  33.022   1.588
36613W        W 1840   2.321  22.661   3.899
36614W        W 1841  14.105   7.770  12.825
36615W        W 1842  16.502  22.077   4.588
36616W        W 1843  24.091  24.758   1.841
36617W        W 1844   8.104   6.527   4.097
36618W        W 1845  34.736  39.859  13.587
36619W        W 1846   8.287  33.860   2.729
36620W        W 1847  43.880  12.075   3.543
36621W        W 1848  37.975  32.794   0.898
36622W        W 1849  39.400   0.209   1.320
36623W        W 1850  18.500  23.338   2.580
36624W        W 1851  33.198  34.369  12.458
36625W        W 1852   8.384   7.944  13.426
36626W        W 1853  34.126  31.432  14.394
36627W        W 1854  39.263  36.745   2.829
36628W        W 1855  40.090   1.495  14.337
36629W        W 1856   4.941   9.801   1.286
36630W        W 1857   1.848   8.839   4.282
36631W        W 1858  27.053  36.002  14.667
36632W        W 1859  19.874  37.114   4.269
36633W        W 1860  24.655  39.873   1.845
36634W        W 1861   5.040  17.710   2.728
36635W        W 1862  27.570  36.427   3.290
36636W        W 1863  26.043  18.824   3.198
36637W        W 1864  40.535   6.186  14.784
36638W        W 1865   9.285  22.686  11.604
36639W        W 1866  20.593  19.698  14.921
36640W        W 1867   0.619  25.233   2.659
36641W        W 1868  44.723  36.383   3.173
36642W        W 1869  28.707  14.178  12.617
36643W        W 1870   0.507  11.663  14.893
36644W        W 1871  43.537  39.915   1.556
36645W        W 1872  34.452   2.507   4.609
36646W        W 1873  31.878   2.662  11.142
36647W        W 1874  29.579  35.024  14.667
36648W        W 1875  42.224  27.622   4.157
36649W        W 1876  25.515  10.111  10.677
36650W        W 1877  28.619   0.868  10.098
36651W        W 1878  26.615  19.945  12.564
36652W        W 1879   0.634  40.391  10.685
36653W        W 1880   2.428   8.855   3.356
36654W        W 1881  34.050  27.977   9.809
36655W        W 1882  20.081  41.542   0.203
36656W        W 1883  14.332  38.495  11.770
36657W        W 1884  15.387  11.655  14.817
36658W        W 1885  25.151  38.560  14.441
36659W        W 1886  43.934  22.634  13.519
36660W        W 1887   0.301  43.976   5.038
36661W        W 1888  10.819  38.939   3.664
36662W        W 1889  34.071  25.942   3.620
36663W        W 1890  44.101  25.431  10.769
36664W        W 1891  25.554   3.331   4.079
36665W        W 1892  36.876   2.250   0.250
36666W        W 1893  30.395   3.637  10.745
36667W        W 1894  37.711  43.151  10.926
36668W        W 1895  17.802  24.669  12.535
36669W        W 1896  41.436   5.367  12.073
36670W        W 1897  41.818  11.654   4.529
36671W        W 1898  26.130  15.225   2.234
36672W        W 1899  44.877  28.001   3.684
36673W        W 1900  28.654  37.400  13.946
36674W        W 1901  37.169  19.982   3.654
36675W        W 1902  24.506  44.316  14.088
36676W        W 1903  43.123  10.270   1.143
36677W        W 1904  10.137  30.386  14.725
36678W        W 1905  42.854  10.979  10.992
36679W        W 1906  29.302  33.352  13.978
36680W        W 1907  12.295   3.810  12.858
36681W        W 1908  25.146   6.644  13.518
36682W        W 1909  21.555  40.455   4.632
36683W        W 1910  24.130  30.359  14.214
36684W        W 1911  18.048  14.863   2.661
36685W        W 1912  10.681  44.813  11.345
36686W        W 1913   3.165   4.415   1.228
36687W        W 1914  14.247  17.752   4.626
36688W        W 1915  36.121  31.660  12.372
36689W        W 1916  14.820  43.834  14.064
36690W        W 1917   9.608  14.090   0.053
36691W        W 1918   5.349  32.861  14.044
36692W        W 1919   3.194  11.363   3.250
36693W        W 1920  30.507  35.264   4.661
36694W        W 1921  20.358  43.076  12.541
36695W        W 1922   5.307  25.266   3.703
36696W        W 1923  35.414  37.366  12.828
36697W        W 1924  34.601  30.272   4.509
36698W        W 1925  16.761  38.954   2.668
36699W        W 1926  27.661   5.673  13.742
36700W        W 1927  38.535  10.336   3.245
36701W        W 1928  44.816   2.753   0.501
36702W        W 1929  39.903  30.017   4.296
36703W        W 1930  27.560  37.480  13.607
36704W        W 1931  12.671  38.338   0.298
36705W        W 1932  26.783  24.703   3.796
36706W        W 1933  23.300  33.268   1.948
36707W        W 1934  37.956   4.415   3.627
36708W        W 1935  25.487  35.195  14.507
36709W        W 1936  36.435  19.556  14.891
36710W        W 1937  30.462  28.567   2.393
36711W        W 1938   3.571  36.537   1.978
36712W        W 1939  35.528   2.727   2.155
36713W        W 1940  34.126  40.288  12.045
36714W        W 1941   4.811   5.988   3.012
36715W        W 1942  39.287  21.061  13.122
36716W        W 1943  36.032  31.023  11.577
36717W        W 1944   8.212  44.667   2.138
36718W        W 1945  16.547   4.609  11.073
36719W        W 1946  43.701  29.084  14.397
36720W        W 1947   1.231  36.310   4.101
36721W        W 1948  30.837  35.844  14.685
36722W        W 1949   3.018  31.506   0.840
36723W        W 1950  30.101  38.671  12.121
36724W        W 1951  33.464   1.255  13.546
36725W        W 1952  12.682  33.233   2.750
36726W        W 1953  37.923  39.503   3.800
36727W        W 1954  18.523  38.236  11.618
36728W        W 1955  26.422  16.642  10.550
36729W        W 1956  34.812  21.952  12.124
36730W        W 1957  35.912  39.996  14.421
36731W        W 1958  22.266  32.392   4.352
36732W        W 1959  35.787   5.696   4.653
36733W        W 1960  29.535  29.299   0.937
36734W        W 1961  11.297  21.073   0.973
36735W        W 1962  42.305  33.844   4.058
36736W        W 1963  11.157  39.873   3.597
36737W        W 1964  20.295  36.513  11.666
36738W        W 1965  22.686  31.601  14.312
36739W        W 1966  12.561  16.128  12.133
36740W        W 1967  26.850  33.444  10.448
36741W        W 1968   2.543   6.264  13.734
36742W        W 1969  37.342  15.157   0.868
36743W        W 1970  12.167  42.403   0.217
36744W        W 1971  31.425  37.958   2.136
36745W        W 1972  43.488  19.200   0.954
36746W        W 1973  10.138  29.841   2.386
36747W        W 1974  29.432  32.415  12.521
36748W        W 1975  16.911  16.514  11.113
36749W        W 1976   0.595   7.639  10.408
36750W        W 1977   2.564  33.870   2.150
36751W        W 1978  17.076   8.739  12.460
36752W        W 1979   8.646   9.984   1.831
36753W        W 1980   4.292  11.892  12.445
36754W        W 1981  28.676  18.806   1.633
36755W        W 1982  20.084  35.309   3.345
36756W        W 1983  44.875  40.647   3.095
36757W        W 1984  26.231  31.639   3.231
36758W        W 1985   4.657  12.554   4.490
36759W        W 1986  12.162  37.827   1.301
36760W        W 1987   3.502   1.855  11.484
36761W        W 1988  31.622  16.072   0.440
36762W        W 1989   1.947  13.159  14.404
36763W        W 1990  34.167   5.522   2.706
36764W        W 1991  23.497   5.438   2.519
36765W        W 1992  35.636  41.221  12.620
36766W        W 1993  12.795  12.575  10.649
36767W        W 1994  44.971  15.716  10.599
36768W        W 1995  36.913  30.694   1.573
36769W        W 1996  11.369  40.557   2.265
36770W        W 1997  22.139   9.379   1.787
36771W        W 1998  41.083  30.016  14.767
36772W        W 1999  34.895  12.555  10.823
36773W        W 2000   1.448  33.194   4.780
36774W        W 2001  28.489  43.474  13.547
36775W        W 2002   6.369  35.902  10.375
36776W        W 2003  18.613  44.266   4.519
36777W        W 2004  33.412  37.873  12.041
36778W        W 2005  37.269   8.936   4.920
36779W        W 2006  30.467   6.885   0.327
36780W        W 2007  11.926  28.242  13.020
36781W        W 2008   4.639  23.930   1.632
36782W        W 2009  28.226  35.466  13.059
36783W        W 2010  30.022  44.233   4.734
36784W        W 2011  15.414  26.151   4.156
36785W        W 2012  29.030  24.441   4.501
36786W        W 2013  42.380  12.884  14.353
36787W        W 2014   1.578  13.682   4.669
36788W        W 2015  20.677  13.751  12.972
36789W        W 2016  39.621  42.523  11.423
36790W        W 2017  20.883   4.874   2.925
36791W        W 2018  22.250  26.176   3.660
36792W        W 2019  29.666   0.717  12.589
36793W        W 2020  19.282  11.405  13.620
36794W        W 2021  39.522   3.281  14.312
36795W        W 2022  21.259  22.864  10.450
36796W        W 2023   4.862  20.703   4.337
36797W        W 2024  43.091  43.601   2.642
36798W        W 2025  29.054   3.224  12.112
36799W        W 2026  28.608   8.900  12.406
36800W        W 2027  41.139  43.321  13.476
36801W        W 2028  13.122  10.250  12.434
36802W        W 2029  26.756   3.795   1.613
36803W        W 2030   6.140  43.508  13.956
36804W        W 2031  13.581  15.270  10.940
36805W        W 2032  39.016   1.239   0.869
36806W        W 2033  16.336  44.241   1.335
36807W        W 2034  30.413  34.612  14.020
36808W        W 2035  15.531  22.061  13.884
36809W        W 2036  17.616  34.110  11.256
36810W        W 2037  29.796  19.836   1.309
36811W        W 2038  34.661  26.094   4.046
36812W        W 2039   8.393  43.312   4.146
36813W        W 2040   5.870  27.215   4.706
36814W        W 2041  24.236  40.522  14.961
36815W        W 2042   8.896  16.315   3.314
36816W        W 2043  31.463  28.423   2.377
36817W        W 2044   7.440  28.985   3.772
36818W        W 2045   2.766  20.483   3.181
36819W        W 2046  12.449  12.315   2.523
36820W        W 2047   9.415  32.567   2.439
36821W        W 2048  20.666  36.423   3.380
36822W        W 2049  36.265  32.679   1.493
36823W        W 2050  27.154  12.300   4.148
36824W        W 2051   3.827   3.924   4.423
36825W        W 2052  42.025  32.130  14.771
36826W        W 2053   7.699  13.063  11.075
36827W        W 2054  38.318   9.758  10.963
36828W        W 2055   7.095  18.901  13.151
36829W        W 2056   6.706   1.417  12.931
36830W        W 2057   5.460  36.169   0.531
36831W        W 2058  20.487   0.734   3.131
36832W        W 2059  41.984  41.887   4.444
36833W        W 2060  34.063  23.239  14.451
36834W        W 2061   8.398   8.883   4.031
36835W        W 2062   6.477   0.912   3.122
36836W        W 2063  29.657  34.551  14.485
36837W        W 2064  28.525  38.034  13.904
36838W        W 2065  17.607  44.055  14.898
36839W        W 2066   8.727  28.453  12.099
36840W        W 2067  27.541  41.590   1.257
36841W        W 2068   9.281  12.391  10.985
36842W        W 2069  22.259  40.760   3.669
36843W        W 2070  37.315  10.813  12.498
36844W        W 2071  26.585   7.624  14.362
36845W        W 2072  33.009  41.210   1.021
36846W        W 2073  43.248  26.658  13.022
36847W        W 2074   7.064  18.936  11.987
36848W        W 2075  26.182   0.225  14.361
36849W        W 2076  41.210   7.957  12.422
36850W        W 2077  14.046  11.898   3.646
36851W        W 2078  22.500  35.663  10.769
36852W        W 2079  29.091  35.127   2.309
36853W        W 2080  18.660  42.072   4.052
36854W        W 2081  21.619  40.078   4.281
36855W        W 2082  37.444  12.346   0.886
36856W        W 2083  30.396  26.220  12.603
36857W        W 2084   5.838  11.805  11.009
36858W        W 2085   4.863  35.012  13.643
36859W        W 2086   8.419  22.282  14.348
36860W        W 2087   9.409  21.182  10.290
36861W        W 2088   4.755   7.082   2.293
36862W        W 2089  42.141  35.274  14.511
36863W        W 2090   4.858  16.042  11.210
36864W        W 2091  13.264  33.586  11.942
36865W        W 2092  43.306   8.583  12.628
36866W        W 2093  11.303  27.823   1.358
36867W        W 2094  42.223  24.120  11.174
36868W        W 2095   5.788  20.321  12.006
36869W        W 2096  27.937  14.820  10.372
36870W        W 2097  13.108  25.903  12.074
36871W        W 2098  24.950   0.957   1.935
36872W        W 2099  33.623  22.440   0.318
36873W        W 2100  31.851  38.148  14.027
36874W        W 2101  20.103  42.440   2.325
36875W        W 2102  13.749  21.470   1.900
36876W        W 2103   7.370  23.041  12.281
36877W        W 2104  37.496  35.487   4.520
36878W        W 2105  17.244  27.984  14.949
36879W        W 2106   2.179  35.096   2.295
36880W        W 2107  32.450  29.062   2.078
36881W        W 2108  22.236   4.749  12.585
36882W        W 2109  17.491  29.575  10.827
36883W        W 2110  44.980   8.643  11.826
36884W        W 2111  26.400  40.083   4.054
36885W        W 2112  19.987  43.385   0.484
36886W        W 2113  35.348  11.727  12.387
36887W        W 2114  18.980  21.239  11.208
36888W        W 2115  34.848   8.698  13.534
36889W        W 2116  19.090  16.723   0.902
36890W        W 2117  12.771  12.046  12.593
36891W        W 2118  19.564  24.657   4.143
36892W        W 2119  11.064  44.990   2.226
36893W        W 2120  31.503  23.722   4.610
36894W        W 2121  27.715  41.599  10.642
36895W        W 2122   3.823  15.753  13.367
36896W        W 2123  43.589  17.713   4.955
36897W        W 2124  36.508   8.579   3.158
36898W        W 2125   6.904  39.599   1.934
36899W        W 2126  23.926  28.997  10.332
36900W        W 2127   0.674  30.953  12.316
36901W        W 2128  34.807  29.239  11.659
36902W        W 2129  22.212  33.972  14.855
36903W        W 2130  23.606  12.068  13.930
36904W        W 2131  30.070  11.377  10.881
36905W        W 2132  36.014  30.901   4.083
36906W        W 2133  37.600  23.223  13.239
36907W        W 2134  29.595  35.592   3.589
36908W        W 2135  21.988  43.409  11.655
36909W        W 2136  10.977  11.381  14.714
36910W        W 2137  40.488  31.583   3.668
36911W        W 2138   8.678  40.126  14.002
36912W        W 2139  23.298  14.848  14.081
36913W        W 2140  23.224   6.212   2.898
36914W        W 2141  17.146   1.865   2.728
36915W        W 2142  19.264  14.790   2.478
36916W        W 2143  38.579  11.194  14.541
36917W        W 2144  41.364  38.483   0.262
36918W        W 2145  32.894  33.718  11.145
36919W        W 2146   1.677  13.221   0.765
36920W        W 2147  19.610  32.360   3.269
36921W        W 2148  40.698   9.665  11.021
36922W        W 2149  27.882   8.268   2.582
36923W        W 2150  20.587  44.465   2.698
36924W        W 2151  14.307  32.231  11.232
36925W        W 2152   6.222   7.196  14.935
36926W        W 2153  41.411  34.107   1.839
36927W        W 2154  37.300  44.325  10.917
36928W        W 2155  37.962  27.912  14.269
36929W        W 2156  28.640  13.728   2.466
36930W        W 2157   5.694  22.575   4.410
36931W        W 2158  31.851  10.201  11.155
36932W        W 2159  18.461   8.736   2.811
36933W        W 2160  25.684  30.347  14.062
36934W        W 2161   7.573  21.209  14.500
36935W        W 2162  16.625  24.673   3.406
36936W        W 2163   4.400  16.705  10.222
36937W        W 2164  25.648  26.414  14.977
36938W        W 2165  10.280  43.397   0.195
36939W        W 2166  22.178   4.249  12.127
36940W        W 2167  26.482  20.865  13.556
36941W        W 2168  19.697  44.038   3.032
36942W        W 2169   4.735   8.732   2.109
36943W        W 2170  18.465  37.391  13.466
36944W        W 2171  35.922  32.820  11.893
36945W        W 2172   1.822  18.252   4.279
36946W        W 2173   5.692  33.901   0.434
36947W        W 2174   7.468  15.634   2.286
36948W        W 2175  37.772  38.000  10.737
36949W        W 2176  43.574  17.233   2.907
36950W        W 2177  38.958  10.948   2.314
36951W        W 2178   2.860  15.991  14.555
36952W        W 2179   8.131  19.382  11.179
36953W        W 2180   6.189   0.312   1.938
36954W        W 2181  13.731  39.883   1.524
36955W        W 2182  38.154  32.479   0.530
36956W        W 2183   7.721  18.530  14.503
36957W        W 2184  39.259  28.515  11.579
36958W        W 2185  25.564  44.969   0.771
36959W        W 2186  44.352  20.127   1.538
36960W        W 2187   9.377  31.569  12.427
36961W        W 2188  25.194  19.318  13.794
36962W        W 2189  14.026  10.169  11.502
36963W        W 2190   3.224  31.188  12.463
36964W        W 2191   0.206  37.637   3.657
36965W        W 2192  43.908  41.492   4.839
36966W        W 2193  33.336  17.597  11.686
36967W        W 2194  10.037  25.235  13.983
36968W        W 2195  16.536  42.273  12.110
36969W        W 2196  10.376  20.940   2.160
36970W        W 2197  19.168  25.882  14.815
36971W        W 2198   6.822  19.214  11.140
36972W        W 2199  21.728  33.087   4.272
36973W        W 2200  13.808  43.456  13.046
36974W        W 2201   6.429  14.838   2.775
36975W        W 2202  16.249  36.994   1.951
36976W        W 2203  28.062  19.737   0.820
36977W        W 2204  26.531  24.215  13.853
36978W        W 2205   5.325  24.630   3.118
36979W        W 2206   1.693  38.782   0.210
36980W        W 2207  21.370  16.149   0.813
36981W        W 2208  32.536  34.095  11.284
36982W        W 2209  26.073  16.262   0.694
36983W        W 2210  26.575  22.460  14.514
36984W        W 2211   2.891  41.408   1.704
36985W        W 2212  32.176  40.128  14.902
36986W        W 2213  34.758  31.606  11.983
36987W        W 2214   5.388  13.585   0.762
36988W        W 2215  19.121  18.246   1.740
36989W        W 2216   7.629  36.995   3.289
36990W        W 2217  33.623  12.867   2.569
36991W        W 2218  20.180  25.415  13.053
36992W        W 2219  39.509  10.942  12.084
36993W        W 2220  15.822  33.138  14.898
36994W        W 2221  40.883  40.813   0.358
36995W        W 2222  23.371   6.117  10.519
36996W        W 2223   2.770  35.408  11.198
36997W        W 2224   0.657   7.877  14.051
36998W        W 2225  12.873  43.011  11.135
36999W        W 2226  37.990  32.510   1.348
37000W        W 2227  39.201  34.384   2.304
37001W        W 2228  36.818  38.762   2.290
37002W        W 2229  23.537   7.624   4.626
37003W        W 2230  43.242   2.817  14.438
37004W        W 2231  32.841   8.922   1.309
37005W        W 2232  27.503   1.048  14.567
37006W        W 2233  21.107  13.123   4.539
37007W        W 2234  17.917  41.110   2.703
37008W        W 2235  38.585  43.577  12.121
37009W        W 2236  38.851  43.671   3.657
37010W        W 2237  12.809  33.443  13.183
37011W        W 2238  14.969   3.990  13.346
37012W        W 2239   3.384  14.552  13.533
37013W        W 2240  21.102  21.726  14.252
37014W        W 2241  38.875  15.641   1.489
37015W        W 2242  16.753  31.062  13.318
37016W        W 2243  16.569  43.483  13.118
37017W        W 2244  39.564  18.425   1.920
37018W        W 2245  20.246  39.414   2.688
37019W        W 2246  39.159  17.169   5.456
37020W        W 2247  29.870  43.278   3.641
37021W        W 2248  22.209  32.918  11.041
37022W        W 2249   4.876  11.815  10.774
37023W        W 2250  42.284  12.077   2.410
37024W        W 2251  17.773  41.400   0.331
37025W        W 2252  13.478  39.866   4.514
37026W        W 2253  43.827  44.728  14.602
37027W        W 2254  16.039  35.946   1.474
37028W        W 2255   1.496   3.058   4.225
37029W        W 2256  26.000  10.242   4.427
37030W        W 2257  27.609  18.204  12.640
37031W        W 2258  33.375  16.223  11.163
37032W        W 2259   2.600  11.416   9.857
37033W        W 2260  29.915   6.000  11.449
37034W        W 2261  12.133  12.019   3.875
37035W        W 2262   6.236  28.528   3.752
37036W        W 2263  30.461  39.279  14.897
37037W        W 2264  36.898  35.278   1.480
37038W        W 2265   0.702  15.106   0.750
37039W        W 2266  15.132   7.118  14.945
37040W        W 2267  23.221  30.082   1.866
37041W        W 2268  16.110  32.654   4.082
37042W        W 2269  11.421   9.888  11.167
37043W        W 2270  15.598  19.611  10.358
37044W        W 2271  11.933  30.082  12.576
37045W        W 2272  26.594  15.613   4.578
37046W        W 2273   6.661   8.840  12.636
37047W        W 2274  30.637  32.635   1.051
37048W        W 2275   9.179  42.053  14.584
37049W        W 2276   8.445   0.520   1.231
37050W        W 2277  36.093  41.328   2.306
37051W        W 2278  35.524  34.379   2.939
37052W        W 2279   5.409  23.669   4.125
37053W        W 2280  28.245  32.676  11.491
37054W        W 2281   4.633  42.466   2.744
37055W        W 2282  22.586  21.267  14.209
37056W        W 2283  24.868  19.103  13.480
37057W        W 2284   1.848  24.980  13.292
37058W        W 2285  27.244  18.215  11.184
37059W        W 2286  13.563   5.020   2.256
37060W        W 2287   9.748   1.248  12.517
37061W        W 2288  40.070  27.729  11.506
37062W        W 2289  22.521   0.383  13.917
37063W        W 2290  17.597  36.918   3.820
37064W        W 2291   9.340  24.182  13.473
37065W        W 2292   3.286  42.380  14.211
37066W        W 2293   5.934   0.747   1.814
37067W        W 2294  39.947  24.032  12.857
37068W        W 2295  27.064  29.930  11.917
37069W        W 2296  37.230   4.013  10.467
37070W        W 2297  20.060   2.670  13.462
37071W        W 2298  43.396  37.859   4.160
37072W        W 2299   0.650   2.610  14.196
37073W        W 2300  24.910  39.384   3.295
37074W        W 2301   7.112  26.635   1.941
37075W        W 2302  18.959  26.441   4.369
37076W        W 2303  35.293  44.905  11.393
37077W        W 2304  44.088  33.678  11.092
37078W        W 2305  16.642  27.659  11.579
37079W        W 2306  13.319  11.197   3.630
37080W        W 2307  21.158  23.379  10.600
37081W        W 2308   3.727  36.341  12.465
37082W        W 2309   1.003  31.569   2.819
37083W        W 2310  11.517  37.954   2.935
37084W        W 2311  26.644  41.802  12.030
37085W        W 2312  35.518   4.982  13.027
37086W        W 2313  26.909  18.215   4.929
37087W        W 2314  11.773  25.048   2.125
37088W        W 2315  38.564   0.276   2.033
37089W        W 2316  42.569  11.359   3.729
37090W        W 2317  18.335   5.444  11.224
37091W        W 2318  40.888  19.239   3.210
37092W        W 2319  25.085  37.354   3.189
37093W        W 2320  27.425   5.838  11.619
37094W        W 2321  18.153  30.994   2.322
37095W        W 2322  17.188  28.386  10.799
37096W        W 2323  43.769  10.724  13.627
37097W        W 2324  24.078   1.528  14.093
37098W        W 2325  44.309  13.710   3.718
37099W        W 2326   3.004  44.482  12.284
37100W        W 2327   3.042  34.377   3.770
37101W        W 2328  33.772  18.659   0.381
37102W        W 2329  11.794  13.037   4.641
37103W        W 2330  18.642  13.741  11.544
37104W        W 2331   3.876  38.011   3.004
37105W        W 2332  10.401  25.247   2.295
37106W        W 2333   3.611   2.222  14.825
37107W        W 2334  26.471  29.198  12.087
37108W        W 2335  35.843  19.527   4.795
37109W        W 2336  25.089  44.213   2.219
37110W        W 2337  40.995  18.311   3.526
37111W        W 2338  40.716  24.973   1.695
37112W        W 2339  27.024  43.801   3.144
37113W        W 2340  18.185  14.311  13.596
37114W        W 2341  11.472   7.358  13.057
37115W        W 2342  43.914  27.438   0.922
37116W        W 2343   6.851  14.951  13.869
37117W        W 2344  44.477  35.888   4.166
37118W        W 2345   0.866   5.778  11.218
37119W        W 2346   8.368   0.735   2.177
37120W        W 2347  24.676  38.818  10.718
37121W        W 2348   2.284  36.305   3.241
37122W        W 2349  11.938  44.554   4.518
37123W        W 2350  28.810  42.745  11.457
37124W        W 2351  26.054  19.146  14.794
37125W        W 2352  38.404  34.331   0.378
37126W        W 2353   8.259  40.876  12.474
37127W        W 2354  24.412  16.743   1.817
37128W        W 2355  26.528  16.218  10.816
37129W        W 2356  28.990  44.621  11.498
37130W        W 2357   2.874  14.018  14.426
37131W        W 2358   0.907  40.420  12.002
37132W        W 2359  29.136  43.335   4.390
37133W        W 2360  24.049  14.333  10.649
37134W        W 2361   1.208  39.083  12.175
37135W        W 2362   2.530  15.505  11.172
37136W        W 2363  13.242  44.438  12.467
37137W        W 2364  35.054  25.737   1.495
37138W        W 2365  27.646  36.303   2.330
37139W        W 2366  16.946  41.488  13.180
37140W        W 2367  36.004  25.585  13.483
37141W        W 2368   9.263  43.921   4.387
37142W        W 2369  43.990  10.440   0.322
37143W        W 2370  17.736  39.852  12.403
37144W        W 2371   0.012  38.982  12.601
37145W        W 2372  11.190  18.739  11.941
37146W        W 2373  34.373   5.281   3.668
37147W        W 2374  10.751  19.917   1.467
37148W        W 2375   1.308  28.682  12.660
37149W        W 2376  36.178   1.558  12.136
37150W        W 2377  12.302  18.776   3.713
37151W        W 2378  13.417  33.012  12.098
37152W        W 2379  40.077   2.915  12.942
37153W        W 2380  25.959  18.051  11.614
37154W        W 2381  15.348  28.509   0.781
37155W        W 2382  11.335  10.904  12.076
37156W        W 2383  19.128  42.715  12.405
37157W        W 2384  26.591  28.234   0.294
37158W        W 2385  36.044   4.308   3.177
37159W        W 2386  17.971  21.274   1.376
37160W        W 2387  12.893  17.667  13.033
37161W        W 2388  12.805   9.784   1.804
37162W        W 2389  24.787  13.370  14.876
37163W        W 2390   0.554  23.866  12.560
37164W        W 2391  20.379  15.639   4.106
37165W        W 2392  15.292  42.441   1.459
37166W        W 2393   6.616   3.354   3.675
37167W        W 2394   7.825  26.637   2.349
37168W        W 2395   8.382  35.562  11.724
37169W        W 2396  13.046   6.376  13.592
37170W        W 2397  40.633   8.474  13.022
37171W        W 2398   4.824  23.662  14.548
37172W        W 2399  39.235  33.021  10.603
37173W        W 2400  37.449   9.056   4.045
37174W        W 2401   5.489   7.976   3.657
37175W        W 2402   6.445  23.079   3.916
37176W        W 2403   9.767  37.121  14.276
37177W        W 2404  30.180   8.384  12.102
37178W        W 2405   7.712  29.537  11.924
37179W        W 2406  31.867  32.633   1.658
37180W        W 2407  24.466  37.893  13.399
37181W        W 2408  19.354  27.749   4.649
37182W        W 2409  43.432  22.018  10.430
37183W        W 2410  12.735   4.191   2.697
37184W        W 2411  42.847   4.807  12.989
37185W        W 2412  40.751  14.186  11.957
37186W        W 2413  19.722  11.959   0.810
37187W        W 2414  42.634   5.344  12.862
37188W        W 2415   0.312  43.914  13.888
37189W        W 2416  10.627  39.306   0.288
37190W        W 2417  39.614   6.456  14.349
37191W        W 2418  14.254  42.247  11.943
37192W        W 2419  17.519   1.197  12.527
37193W        W 2420   3.808  34.015  14.332
37194W        W 2421  40.472   5.011  11.615
37195W        W 2422  33.074  24.516  13.663
37196W        W 2423  20.371  23.434   3.728
37197W        W 2424  44.258  12.129  11.967
37198W        W 2425  42.159  29.020  14.416
37199W        W 2426   1.879  12.687   2.348
37200W        W 2427  33.495  31.199   3.330
37201W        W 2428  14.698  10.108   0.562
37202W        W 2429  34.639  12.712   2.838
37203W        W 2430  20.068  44.506  10.622
37204W        W 2431   7.798  25.027  14.347
37205W        W 2432  35.272  28.078   2.590
37206W        W 2433   9.237  38.437   1.615
37207W        W 2434   9.423  13.362  11.560
37208W        W 2435   6.444  43.750   3.767
37209W        W 2436  35.941  43.285  11.710
37210W        W 2437  30.522  30.918  10.740
37211W        W 2438  40.303  10.633  13.390
37212W        W 2439  44.265   4.816  10.540
37213W        W 2440  18.302  33.811  10.559
37214W        W 2441  36.982  33.859   4.333
37215W        W 2442  37.895  16.238   2.297
37216W        W 2443  20.707  40.928   1.709
37217W        W 2444  22.048  18.571  12.542
37218W        W 2445  33.643  34.553  11.697
37219W        W 2446  34.919  18.550  13.967
37220W        W 2447  17.167  33.996   3.817
37221W        W 2448  20.806  37.769   1.837
37222W        W 2449  17.050  12.989   3.046
37223W        W 2450  10.289  37.101   4.653
37224W        W 2451  28.043   3.895  12.373
37225W        W 2452  44.263  25.915   3.267
37226W        W 2453   8.687  20.353   3.158
37227W        W 2454  37.604  16.022   4.178
37228W        W 2455   1.913  11.136  13.356
37229W        W 2456  26.531  31.536  12.870
37230W        W 2457  10.884  13.922   2.091
37231W        W 2458  21.303  25.893   4.168
37232W        W 2459  21.693  41.061  12.220
37233W        W 2460  10.141  26.439  10.808
37234W        W 2461  10.830   2.237  14.503
37235W        W 2462  23.587  12.020   2.858
37236W        W 2463  23.556  27.238  12.664
37237W        W 2464   3.987  38.419   2.714
37238W        W 2465  15.153  26.125   2.883
37239W        W 2466  23.006  43.072  10.333
37240W        W 2467  23.691  33.857  14.980
37241W        W 2468  25.704   2.305   0.727
37242W        W 2469   6.911  12.190  12.520
37243W        W 2470  12.784  38.488  10.770
37244W        W 2471   8.981  10.588   0.936
37245W        W 2472  26.213  37.974   1.758
37246W        W 2473  34.840   0.107  10.727
37247W        W 2474  24.163  17.018  11.836
37248W        W 2475  38.379  24.614   2.940
37249W        W 2476  21.927  13.447   2.551
37250W        W 2477  34.699  22.566   4.274
37251W        W 2478  30.249  19.237  12.912
37252W        W 2479  14.023  13.850  12.608
37253W        W 2480  15.745  39.205   0.377
37254W        W 2481  36.524  37.387  13.941
37255W        W 2482  36.918  34.997   4.747
37256W        W 2483  20.958  36.890  12.371
37257W        W 2484  23.793   0.352  13.317
37258W        W 2485  38.641  20.993   3.126
37259W        W 2486  36.035  22.537   3.770
37260W        W 2487  27.221  13.130  11.904
37261W        W 2488  33.548   1.892  14.790
37262W        W 2489  22.453  11.203   2.423
37263W        W 2490  10.840   8.243  14.720
37264W        W 2491   9.363   3.474   3.655
37265W        W 2492  11.840  28.511  13.461
37266W        W 2493  21.651   1.449   0.286
37267W        W 2494   5.713   5.135  12.300
37268W        W 2495  27.715   0.511   1.141
37269W        W 2496   7.911  32.374   3.639
37270W        W 2497  28.215  34.026   1.272
37271W        W 2498   7.793  23.584  11.595
37272W        W 2499  12.763  44.996   2.670
37273W        W 2500  35.627   4.336  13.778
37274W        W 2501  16.709  43.969  13.107
37275W        W 2502  44.562  34.194  10.557
37276W        W 2503  27.514  22.078   4.893
37277W        W 2504  16.762   6.340  11.520
37278W        W 2505  31.408  44.777   1.282
37279W        W 2506   0.791  22.509   3.180
37280W        W 2507  22.216  22.564   1.358
37281W        W 2508   1.943  18.752  12.105
37282W        W 2509  30.631   6.693   4.588
37283W        W 2510  28.618  22.176   0.801
37284W        W 2511  43.177   1.922  12.586
37285W        W 2512  25.686  29.102  11.720
37286W        W 2513   3.739   4.494   1.920
37287W        W 2514   9.024  12.135   1.438
37288W        W 2515   4.970  21.741   0.781
37289W        W 2516  26.361  19.605   1.346
37290W        W 2517  17.005  16.283   4.179
37291W        W 2518   4.372  38.902   3.329
37292W        W 2519  16.315  24.941  12.851
37293W        W 2520  40.165   8.488   3.648
37294W        W 2521  11.831   3.420  14.524
37295W        W 2522  30.847  19.890   4.933
37296W        W 2523  31.011  21.613  12.440
37297W        W 2524  38.531  35.753   2.795
37298W        W 2525  15.043   4.422   4.537
37299W        W 2526   1.148   5.119  11.693
37300W        W 2527  23.205  11.998   1.350
37301W        W 2528  16.371  37.430   0.311
37302W        W 2529  22.582  43.391   4.151
37303W        W 2530  29.446  10.920  14.004
37304W        W 2531  16.144  22.632   2.453
37305W        W 2532   4.238  23.084  12.178
37306W        W 2533  41.914  29.670   3.103
37307W        W 2534   8.345  19.234   2.127
37308W        W 2535  25.053   3.544  14.450
37309W        W 2536  20.210  31.970   3.331
37310W        W 2537  43.962  24.898   0.968
37311W        W 2538  40.793   0.751   3.351
37312W        W 2539   7.346  38.325  14.354
37313W        W 2540  35.894  28.983  12.879
37314W        W 2541  24.365  37.061  13.880
37315W        W 2542  28.195   4.160  13.450
37316W        W 2543  18.720   8.656  14.420
37317W        W 2544  15.152  43.966  13.305
37318W        W 2545  15.830   1.787   4.270
37319W        W 2546  40.299  23.186  13.331
37320W        W 2547  13.579  22.097   1.381
37321W        W 2548  43.444  25.972  12.415
37322W        W 2549  24.449   8.789  10.571
37323W        W 2550  10.863  38.331   1.273
37324W        W 2551   0.798  11.132  12.024
37325W        W 2552   4.196  34.999  12.237
37326W        W 2553  26.139  15.312   0.333
37327W        W 2554  38.011  12.118  14.405
37328W        W 2555   4.266  33.187   0.910
37329W        W 2556  18.189  15.911  12.570
37330W        W 2557   2.451  10.779  10.299
37331W        W 2558  28.996   7.735  13.994
37332W        W 2559   5.662   7.712   2.718
37333W        W 2560  33.643  27.186   1.767
37334W        W 2561  19.907  30.435  13.395
37335W        W 2562  41.978  17.840  11.421
37336W        W 2563   7.877  20.886   4.074
37337W        W 2564  36.799  44.426   0.791
37338W        W 2565  16.148  28.130  13.377
37339W        W 2566   4.344   1.836   3.817
37340W        W 2567   7.755  11.305  12.679
37341W        W 2568  30.700  26.941  12.989
37342W        W 2569  14.072  22.972  13.278
37343W        W 2570   6.038   2.586   3.571
37344W        W 2571  16.260  42.397  13.859
37345W        W 2572  17.172  25.449   4.545
37346W        W 2573  36.353   6.852  11.537
37347W        W 2574  31.412  31.900   2.000
37348W        W 2575  25.392  25.982   3.047
37349W        W 2576  15.742  29.319   1.887
37350W        W 2577  38.962  16.540  12.608
37351W        W 2578  12.805  39.871   1.373
37352W        W 2579  31.203  11.389  14.300
37353W        W 2580  14.820  29.046   2.759
37354W        W 2581  23.170  35.374   1.945
37355W        W 2582   9.293  32.964   2.132
37356W        W 2583   5.324  14.124   3.174
37357W        W 2584  35.846  22.051   3.716
37358W        W 2585  13.074  19.445  10.985
37359W        W 2586  17.783   8.443   0.324
37360W        W 2587  30.131  35.092  13.987
37361W        W 2588   4.897   3.179   1.883
37362W        W 2589  37.104  43.853   4.447
37363W        W 2590  21.798   1.171   2.771
37364W        W 2591   5.284   9.510  13.318
37365W        W 2592  11.148   1.408   1.661
37366W        W 2593  41.762  38.753  14.129
37367W        W 2594  33.864   5.433   3.758
37368W        W 2595  21.309  11.631   3.055
37369W        W 2596  40.984  32.701  12.414
37370W        W 2597  14.601   6.183  11.175
37371W        W 2598  18.554  25.280  11.163
37372W        W 2599  29.083  16.087   1.461
37373W        W 2600  38.251  31.565  12.559
37374W        W 2601  22.791  23.478   0.192
37375W        W 2602  34.501  12.363   3.632
37376W        W 2603  34.899  19.360   0.432
37377W        W 2604  13.263  35.514  13.280
37378W        W 2605  38.078  17.903   4.887
37379W        W 2606  42.947  25.818  12.426
37380W        W 2607   1.225   9.542   3.936
37381W        W 2608   4.099  21.742   4.133
37382W        W 2609  40.117  19.987  10.472
37383W        W 2610   0.357  43.393  13.955
37384W        W 2611  17.205  18.338  12.573
37385W        W 2612  21.264   8.905  11.568
37386W        W 2613  18.637  19.505   0.232
37387W        W 2614   7.250  43.722   1.335
37388W        W 2615   7.012  39.427  13.495
37389W        W 2616  17.275  33.088   1.985
37390W        W 2617  13.791  20.491   2.886
37391W        W 2618  21.979  32.136  13.250
37392W        W 2619   4.791  33.617  10.486
37393W        W 2620  26.491  39.766   2.356
37394W        W 2621  20.774  32.036   3.657
37395W        W 2622  10.729  23.661  12.714
37396W        W 2623  21.016  37.059  13.864
37397W        W 2624  15.643   7.958   1.724
37398W        W 2625  11.315  40.687   0.195
37399W        W 2626  15.113  20.833   2.560
37400W        W 2627   0.472   5.924   2.338
37401W        W 2628  14.339  31.101  11.098
37402W        W 2629  16.858  32.600  14.354
37403W        W 2630  41.586  41.355  14.292
37404W        W 2631   3.041   6.905   0.316
37405W        W 2632  18.220  43.545   0.589
37406W        W 2633   4.285  24.211  10.697
37407W        W 2634  15.847  29.186  12.239
37408W        W 2635  41.398  41.285  11.049
37409W        W 2636  21.331  30.218   3.556
37410W        W 2637  19.650  13.738  14.951
37411W        W 2638   5.661   5.957   0.164
37412W        W 2639   7.772  34.147   4.309
37413W        W 2640  44.395   9.840  14.275
37414W        W 2641  27.977  30.483   2.934
37415W        W 2642   9.644  40.418   4.550
37416W        W 2643  24.488  41.512   2.250
37417W        W 2644  25.470   3.735   1.950
37418W        W 2645  26.801  37.028  11.744
37419W        W 2646   7.540  32.659   2.697
37420W        W 2647  42.719  44.756   3.650
37421W        W 2648  34.466  36.773   2.924
37422W        W 2649  41.942  13.822  14.357
37423W        W 2650  41.981  32.657  14.758
37424W        W 2651  36.394  35.007   4.636
37425W        W 2652  14.881  32.352   5.013
37426W        W 2653   9.328  34.663  13.909
37427W        W 2654  31.457  13.682   4.123
37428W        W 2655  19.481  38.808   1.727
37429W        W 2656  35.398  37.833  13.387
37430W        W 2657  33.451  31.933   0.837
37431W        W 2658  22.134  25.895  14.248
37432W        W 2659  15.276   8.345  12.450
37433W        W 2660  26.647   0.451  14.310
37434W        W 2661  28.986  28.966   3.271
37435W        W 2662  27.693   8.305   1.910
37436W        W 2663  11.900  38.388  14.948
37437W        W 2664  11.625   9.944  11.626
37438W        W 2665   7.730   6.728   0.432
37439W        W 2666  29.732   4.666  11.193
37440W        W 2667  20.919  19.167  13.374
37441W        W 2668  35.555  41.873   0.232
37442W        W 2669  34.111   9.739  12.421
37443W        W 2670  10.821  29.680  14.931
37444W        W 2671  20.047   7.207  13.638
37445W        W 2672  13.216  10.218  10.705
37446W        W 2673   7.305  23.877   2.601
37447W        W 2674  26.457  40.597   1.889
37448W        W 2675  39.366  33.365   4.677
37449W        W 2676  14.106  19.560  13.442
37450W        W 2677   7.799   9.821   2.655
37451W        W 2678   2.210  41.911  12.921
37452W        W 2679   0.957  11.141  11.537
37453W        W 2680  17.691  31.991   0.734
37454W        W 2681  19.067  28.672  10.666
37455W        W 2682  36.823  16.198  12.671
37456W        W 2683  34.916  24.853   1.209
37457W        W 2684  30.480  36.999   1.206
37458W        W 2685  28.202  38.941   3.609
37459W        W 2686   8.737  27.482  10.557
37460W        W 2687  25.707  19.740  11.864
37461W        W 2688   9.086  15.946  11.311
37462W        W 2689  27.044  18.535  13.087
37463W        W 2690  30.376  18.587   0.342
37464W        W 2691   9.319   8.614  11.368
37465W        W 2692  22.670  37.169   0.738
37466W        W 2693  14.310  17.167   2.703
37467W        W 2694   3.034  23.778   4.697
37468W        W 2695  39.763  41.068   2.830
37469W        W 2696  24.827   8.791  12.013
37470W        W 2697  41.933  22.734  13.994
37471W        W 2698   8.277  32.594  12.116
37472W        W 2699  39.986  36.516   0.537
37473W        W 2700  18.802  17.994  11.699
37474W        W 2701  36.835  17.506   2.661
37475W        W 2702   9.254  10.926  11.171
37476W        W 2703  10.166  27.716  14.040
37477W        W 2704  15.765  12.258   4.419
37478W        W 2705  32.171  36.372  14.906
37479W        W 2706  24.004  29.314   4.298
37480W        W 2707  19.606  16.753   0.945
37481W        W 2708   6.274  23.752  13.254
37482W        W 2709  28.282  37.007  13.069
37483W        W 2710  27.479  38.951  13.987
37484W        W 2711  29.009  13.338   1.262
37485W        W 2712   1.241  10.567   2.639
37486W        W 2713  36.994   0.727  13.447
37487W        W 2714  23.075   7.363   1.943
37488W        W 2715  31.068  16.707  14.578
37489W        W 2716  18.128  34.079   3.339
37490W        W 2717  27.607  35.899   3.353
37491W        W 2718   5.741  15.118   2.327
37492W        W 2719  26.516  30.391  13.760
37493W        W 2720  24.192  43.489   3.915
37494W        W 2721  41.054  29.390  12.955
37495W        W 2722  17.039  42.279   3.135
37496W        W 2723  12.584  14.260  14.894
37497W        W 2724   4.249  38.126   2.138
37498W        W 2725  37.102  33.512  11.879
37499W        W 2726  20.209  15.340   3.719
37500W        W 2727   5.418  40.628  10.643
37501W        W 2728  17.697  30.473   0.228
37502W        W 2729  35.856  16.579   0.438
37503W        W 2730  38.488  27.015  14.389
37504W        W 2731   2.427  16.339   1.686
37505W        W 2732  38.565  23.291  11.188
37506W        W 2733   6.399   3.811  10.443
37507W        W 2734  14.796  15.608   0.383
37508W        W 2735  16.112  14.061   0.157
37509W        W 2736  31.077   4.443  13.977
37510W        W 2737  17.069  35.794   3.267
37511W        W 2738   8.739  42.060  13.020
37512W        W 2739  27.670  36.405  13.804
37513W        W 2740   8.589  32.835   0.068
37514W        W 2741  14.037  17.836  11.649
37515W        W 2742  15.651  33.357   4.540
37516W        W 2743   9.034  18.300  11.277
37517W        W 2744  27.451  33.854   0.894
37518W        W 2745  35.643   1.709  13.428
37519W        W 2746  22.306  24.272   0.228
37520W        W 2747  17.031  22.669  14.709
37521W        W 2748  13.338  40.545   2.343
37522W        W 2749   0.936  14.690  10.603
37523W        W 2750   3.686   3.920  14.101
37524W        W 2751  17.394  41.286   3.143
37525W        W 2752  28.899  28.808  11.172
37526W        W 2753  31.253  35.317  10.287
37527W        W 2754  13.093   1.740  13.851
37528W        W 2755  33.171  32.381   1.454
37529W        W 2756  18.089  42.208  14.230
37530W        W 2757  37.736  18.976  14.780
37531W        W 2758  13.161  30.939  11.566
37532W        W 2759  21.117  19.099  12.096
37533W        W 2760  20.193  21.185   3.518
37534W        W 2761  41.017  34.892  12.052
37535W        W 2762  32.923  27.895  12.052
37536W        W 2763  16.378   3.906  13.824
37537W        W 2764   0.260  36.555   1.379
37538W        W 2765   8.440  34.455   2.105
37539W        W 2766  35.451  15.855   2.124
37540W        W 2767   4.589  37.140   1.269
37541W        W 2768   2.545  26.754   2.253
37542W        W 2769  33.481   0.798  11.658
37543W        W 2770  32.884  11.976  10.727
37544W        W 2771   1.670  10.815  10.987
37545W        W 2772  29.974  25.559   4.891
37546W        W 2773  39.025  29.461   0.904
37547W        W 2774  37.388  14.235  12.479
37548W        W 2775  43.355  29.992  13.757
37549W        W 2776  24.663  39.603   3.911
37550W        W 2777  25.723   5.030  10.547
37551W        W 2778  40.310   3.620  14.912
37552W        W 2779  17.537  12.113  14.438
37553W        W 2780  35.523  10.209   3.584
37554W        W 2781  12.252  44.990   3.054
37555W        W 2782  44.753  39.027  13.918
37556W        W 2783  26.735   8.917   0.363
37557W        W 2784  36.273   9.140  10.225
37558W        W 2785  40.991  33.045  13.108
37559W        W 2786  20.727  33.839  14.937
37560W        W 2787   6.952   2.378  12.387
37561W        W 2788  15.391  12.205   1.760
37562W        W 2789   4.145  43.399  14.320
37563W        W 2790  14.645  32.848   4.082
37564W        W 2791   6.036  33.551   3.228
37565W        W 2792   3.403  28.204   0.670
37566W        W 2793  40.375   4.611  10.298
37567W        W 2794  22.704  43.928   3.856
37568W        W 2795   7.847  29.606  12.551
37569W        W 2796  27.157  27.757  11.538
37570W        W 2797  38.499  31.417   3.720
37571W        W 2798  14.313  13.404  14.374
37572W        W 2799  43.624  18.518   3.892
37573W        W 2800   7.907  16.601  14.747
37574W        W 2801   6.744  12.095   3.854
37575W        W 2802  13.562  17.597  11.680
37576W        W 2803  29.537  42.285   0.114
37577W        W 2804   1.235  43.481  14.042
37578W        W 2805  16.749  31.632   3.329
37579W        W 2806  31.036   0.837   4.821
37580W        W 2807  40.483  40.792   2.424
37581W        W 2808   3.762   0.583  12.989
37582W        W 2809  20.050  30.391   1.625
37583W        W 2810  38.557  44.006  14.917
37584W        W 2811  20.758  27.981   1.953
37585W        W 2812  11.413  35.538   1.864
37586W        W 2813  17.039   7.366  10.590
37587W        W 2814  44.661  26.625  10.343
37588W        W 2815  42.904  22.986   0.044
37589W        W 2816  24.355  35.591  11.144
37590W        W 2817  30.030  19.259   4.185
37591W        W 2818   6.283  16.178   2.244
37592W        W 2819  34.373   9.027  12.130
37593W        W 2820  23.065  24.057  11.654
37594W        W 2821   8.745  19.292   4.353
37595W        W 2822  21.022  43.560   3.303
37596W        W 2823   0.841  40.880  14.369
37597W        W 2824   5.271  43.453  14.932
37598W        W 2825   1.993  21.632  11.290
37599W        W 2826  14.660  25.107   4.188
37600W        W 2827  33.308  21.545  11.100
37601W        W 2828  27.169   5.316  13.795
37602W        W 2829  29.693  12.353  12.623
37603W        W 2830  30.259  29.789   0.423
37604W        W 2831  38.585  34.394  12.376
37605W        W 2832  13.945  34.101  13.721
37606W        W 2833  23.890   7.735  12.380
37607W        W 2834  28.592   5.286   2.656
37608W        W 2835  15.166   7.202   1.752
37609W        W 2836  11.341   5.354   4.678
37610W        W 2837  37.664  40.057   1.318
37611W        W 2838  35.927  41.281  10.756
37612W        W 2839  11.769  15.965   3.148
37613W        W 2840   0.792  35.908  13.476
37614W        W 2841   7.778  12.202   2.307
37615W        W 2842  23.678  44.634   1.398
37616W        W 2843   2.128  14.125   0.632
37617W        W 2844  43.986  27.083   4.384
37618W        W 2845  38.519   4.728   4.635
37619W        W 2846  16.675  32.054  12.666
37620W        W 2847  25.544  10.340   4.228
37621W        W 2848  28.511  16.417   0.437
37622W        W 2849  13.093  41.006   3.265
37623W        W 2850  29.942  15.735   0.805
37624W        W 2851  44.319  28.364   2.298
37625W        W 2852  36.487  35.407  12.017
37626W        W 2853  28.576   3.018   3.462
37627W        W 2854  28.060  11.212  12.478
37628W        W 2855  24.039  25.543   1.486
37629W        W 2856  27.312  39.350  12.435
37630W        W 2857   5.362  23.534  12.992
37631W        W 2858  19.170   8.167  13.328
37632W        W 2859   6.698  25.316  12.984
37633W        W 2860  16.768  41.289  14.408
37634W        W 2861  21.332  35.918  11.208
37635W        W 2862   3.655   0.169   4.590
37636W        W 2863  27.215  32.900   3.102
37637W        W 2864  32.533  44.502  13.867
37638W        W 2865  17.212  17.396   0.897
37639W        W 2866  14.837  19.176  12.156
37640W        W 2867  26.438  39.590  14.441
37641W        W 2868  32.407  26.446  12.086
37642W        W 2869  33.117   8.997   1.738
37643W        W 2870  23.060   9.884  11.064
37644W        W 2871  28.934   4.152  12.959
37645W        W 2872  25.198  31.762   0.403
37646W        W 2873   8.612   1.964   2.182
37647W        W 2874   5.690  37.336  10.493
37648W        W 2875  25.023   4.478   1.637
37649W        W 2876  23.964   4.839   0.860
37650W        W 2877  25.782  23.190   2.641
37651W        W 2878  24.575  24.554  11.071
37652W        W 2879  31.943  18.748   0.525
37653W        W 2880  14.605  32.218   0.905
37654W        W 2881   9.140  33.921  11.331
37655W        W 2882  16.824  17.090   4.886
37656W        W 2883  31.385  15.206   2.262
37657W        W 2884  35.860   4.119  11.127
37658W        W 2885   7.772  20.259  13.506
37659W        W 2886  16.119  14.651  14.793
37660W        W 2887   4.884  14.606   1.322
37661W        W 2888   0.821  13.303   2.902
37662W        W 2889  12.969  24.691  10.616
37663W        W 2890  12.185  39.411   3.764
37664W        W 2891  18.330   2.392   3.621
37665W        W 2892   8.150  33.089   0.291
37666W        W 2893  25.763  33.010  12.614
37667W        W 2894   4.808   9.586  10.707
37668W        W 2895  15.097  42.284   1.928
37669W        W 2896  39.834  25.214  11.980
37670W        W 2897  16.141   1.467   2.698
37671W        W 2898  43.748  20.537  12.509
37672W        W 2899  12.138   4.867  14.743
37673W        W 2900  40.358  18.002  13.927
37674W        W 2901  12.327  31.599   5.429
37675W        W 2902  20.757   2.326   4.849
37676W        W 2903  28.901  18.184   3.743
37677W        W 2904  31.038  31.989  14.463
37678W        W 2905  15.199   1.881  11.662
37679W        W 2906  44.031  24.454  10.737
37680W        W 2907  10.568  17.321   3.140
37681W        W 2908  17.611  36.423   1.159
37682W        W 2909  22.130   1.205  14.536
37683W        W 2910  23.556  31.308   3.079
37684W        W 2911  13.127  17.020   3.210
37685W        W 2912  17.872  34.239   0.910
37686W        W 2913  42.164  21.477  13.517
37687W        W 2914  42.067  29.072  12.207
37688W        W 2915  24.280  41.181  12.796
37689W        W 2916  22.155  37.535  11.108
37690W        W 2917  21.984  31.481   1.179
37691W        W 2918  25.930   4.304  11.589
37692W        W 2919  23.038  14.595   4.470
37693W        W 2920   0.400  25.025   1.671
37694W        W 2921  35.585  13.122   2.103
37695W        W 2922  10.774  14.488  11.653
37696W        W 2923  41.411  29.658   3.300
37697W        W 2924  13.590  26.051  11.220
37698W        W 2925  21.730   4.108   2.192
37699W        W 2926  34.314  23.033   4.648
37700W        W 2927  19.909  42.031   3.753
37701W        W 2928  39.482  27.138   3.245
37702W        W 2929  36.925  24.824  13.897
37703W        W 2930   4.600  33.595   3.599
37704W        W 2931  34.605  34.819  11.797
37705W        W 2932  26.830   3.217   4.177
37706W        W 2933  38.095  29.566  12.811
37707W        W 2934   1.975  29.166   1.232
37708W        W 2935   2.256  41.904   4.562
37709W        W 2936  31.988   0.744  11.151
37710W        W 2937  29.901  41.340   0.335
37711W        W 2938  37.396  36.881   4.622
37712W        W 2939  18.611   8.272   2.004
37713W        W 2940  40.554  10.390  12.097
37714W        W 2941  41.447  43.076   2.115
37715W        W 2942   6.138  28.425   1.786
37716W        W 2943  13.864   1.202  13.864
37717W        W 2944  38.371   1.687   3.905
37718W        W 2945  25.823  35.279  13.493
37719W        W 2946   3.745  18.694  13.984
37720W        W 2947  41.645   1.456   3.230
37721W        W 2948  14.289  30.558   0.314
37722W        W 2949  36.982  11.357  13.086
37723W        W 2950   9.174  21.751  12.906
37724W        W 2951  27.570  17.410  12.071
37725W        W 2952  19.819  26.185   4.083
37726W        W 2953  15.587  38.062  10.140
37727W        W 2954   7.689  23.487   4.191
37728W        W 2955  19.472  29.634  14.420
37729W        W 2956   4.018  29.533  13.918
37730W        W 2957  23.073  27.889   2.052
37731W        W 2958  15.746  40.025  10.601
37732W        W 2959  32.601   8.791   4.050
37733W        W 2960  24.973  41.721  13.591
37734W        W 2961  14.783  29.110  14.509
37735W        W 2962  30.846   0.266   4.255
37736W        W 2963  23.922  24.767  11.827
37737W        W 2964  35.081  17.021   2.139
37738W        W 2965   3.457  11.379   4.526
37739W        W 2966   1.238   1.020   3.724
37740W        W 2967  30.253   9.220  11.564
37741W        W 2968   4.350  29.050   3.237
37742W        W 2969  27.013  13.359  11.467
37743W        W 2970  34.001   8.600   0.847
37744W        W 2971  15.759  18.123   0.875
37745W        W 2972   7.710   0.934  11.157
37746W        W 2973  11.389   7.866  14.824
37747W        W 2974   7.050  24.968  11.707
37748W        W 2975  35.475   3.794   1.197
37749W        W 2976  11.049  25.819   3.681
37750W        W 2977  25.333  41.369  13.582
37751W        W 2978  22.265  28.503   0.982
37752W        W 2979  33.126  32.864  14.864
37753W        W 2980  18.382   0.538  11.631
37754W        W 2981   8.702  25.272  11.165
37755W        W 2982  25.358   3.738   3.201
37756W        W 2983  39.679  28.745  11.759
37757W        W 2984  11.613   4.663  13.410
37758W        W 2985  40.980  33.314   0.745
37759W        W 2986  17.663  24.860   0.219
37760W        W 2987  41.185  14.764  12.914
37761W        W 2988  36.765  43.850   1.514
37762W        W 2989  26.573  29.455  14.128
37763W        W 2990  24.553  42.005  14.466
37764W        W 2991  29.486  10.478  12.590
37765W        W 2992   6.984   0.867   3.154
37766W        W 2993  37.569  16.040  11.805
37767W        W 2994  25.954  18.744  12.093
37768W        W 2995  26.788  37.829   2.359
37769W        W 2996  41.812  33.622   4.165
37770W        W 2997   1.810   5.799   0.728
37771W        W 2998   9.312   2.825  11.348
37772W        W 2999  44.795  39.728  10.656
37773W        W 3000   2.686  10.910   0.397
37774W        W 3001  38.802  28.456   5.132
37775W        W 3002  16.467   5.709   0.288
37776W        W 3003  35.831  38.093  13.418
37777W        W 3004   9.476  10.773  12.058
37778W        W 3005   6.085  22.516   0.753
37779W        W 3006  20.249  20.292  11.650
37780W        W 3007   5.216   3.498   0.123
37781W        W 3008   8.463  23.937  13.073
37782W        W 3009   2.700  21.309   1.331
37783W        W 3010  10.520  24.435  10.408
37784W        W 3011  13.034  10.604  11.629
37785W        W 3012   3.771  11.665  13.406
37786W        W 3013  39.579  25.533  13.541
37787W        W 3014  29.930  42.936  10.816
37788W        W 3015  38.405  15.531  12.831
37789W        W 3016  19.764  25.709  10.493
37790W        W 3017   2.318  19.011   2.987
37791W        W 3018  32.092  27.084   1.274
37792W        W 3019  20.546   3.582  10.706
37793W        W 3020  44.477  31.617   3.409
37794W        W 3021  22.270   4.942  13.516
37795W        W 3022  11.700   3.936   0.435
37796W        W 3023  38.864  17.184   3.042
37797W        W 3024  23.135  12.164   2.646
37798W        W 3025  43.728  29.454  12.963
37799W        W 3026  36.006   8.783   3.083
37800W        W 3027  43.377  10.633  12.814
37801W        W 3028  12.204  21.523   4.355
37802W        W 3029  26.986  18.726   2.302
37803W        W 3030  16.920  29.022  11.229
37804W        W 3031  11.238  39.297  11.631
37805W        W 3032  43.347  35.629  10.532
37806W        W 3033  19.044   1.803  14.165
37807W        W 3034  15.224  24.897   1.191
37808W        W 3035  40.690  27.430  10.712
37809W        W 3036  31.435   9.141   1.362
37810W        W 3037   7.655  12.758   4.543
37811W        W 3038  39.977  31.871  12.475
37812W        W 3039  25.006   8.754  14.363
37813W        W 3040   2.742  36.785   1.649
37814W        W 3041   6.212  37.521  11.876
37815W        W 3042  23.569  39.946  13.663
37816W        W 3043   2.862   6.825   2.166
37817W        W 3044  20.589  39.492   1.312
37818W        W 3045  16.637  29.870  12.335
37819W        W 3046  42.526  36.494   2.934
37820W        W 3047  14.112  32.684  11.464
37821W        W 3048  42.032  36.139  14.831
37822W        W 3049  18.552  21.107   4.451
37823W        W 3050  34.929   5.657  11.122
37824W        W 3051   0.895  26.982  14.299
37825W        W 3052  42.727   5.287   5.042
37826W        W 3053   4.687   4.905  12.541
37827W        W 3054  33.851  15.064   1.334
37828W        W 3055  11.328   6.448  11.533
37829W        W 3056  17.035   8.218   1.932
37830W        W 3057  42.997  19.557   2.478
37831W        W 3058   1.078  34.858  10.888
37832W        W 3059  29.356  13.853  12.015
37833W        W 3060   9.440  25.734  10.753
37834W        W 3061  12.097  36.378   4.623
37835W        W 3062  12.728  23.971   2.099
37836W        W 3063   2.045   6.395   3.739
37837W        W 3064  11.908   5.441  13.021
37838W        W 3065   5.738  11.372   4.538
37839W        W 3066  21.435  32.589  13.953
37840W        W 3067  29.821  24.982  14.178
37841W        W 3068  22.305  35.048   4.487
37842W        W 3069   7.901  33.970   3.572
37843W        W 3070  28.411  20.857  11.171
37844W        W 3071   7.221  14.974   1.136
37845W        W 3072  43.428   9.889  10.495
37846W        W 3073   4.287  36.047   3.277
37847W        W 3074  17.863  10.610   2.941
37848W        W 3075   3.396  22.037   2.843
37849W        W 3076  14.332  18.413   3.777
37850W        W 3077  29.038  24.178   4.061
37851W        W 3078  32.221   4.576  11.096
37852W        W 3079  24.961  28.540  11.557
37853W        W 3080  12.636  35.516   4.593
37854W        W 3081  12.566  16.214  13.119
37855W        W 3082  26.906  12.682  12.596
37856W        W 3083  35.197  35.160  10.687
37857W        W 3084  32.535  39.367  12.425
37858W        W 3085   2.182  38.835  14.758
37859W        W 3086  19.191  19.614  12.005
37860W        W 3087  11.266  31.526   9.794
37861W        W 3088  14.364  16.518   1.823
37862W        W 3089  37.731  25.102  10.593
37863W        W 3090  40.988  33.524  14.863
37864W        W 3091  32.508  36.864  13.848
37865W        W 3092   9.164  27.658  12.177
37866W        W 3093  21.456  33.519   3.503
37867W        W 3094   6.948  15.757   1.484
37868W        W 3095   6.388   6.812   2.947
37869W        W 3096  37.308  27.441  12.497
37870W        W 3097   8.122  21.280   4.316
37871W        W 3098  39.471  23.643   1.533
37872W        W 3099  35.152  23.490   0.679
37873W        W 3100  12.212  25.948  11.031
37874W        W 3101  16.987  28.179  12.066
37875W        W 3102   9.882  43.042   0.026
37876W        W 3103   2.222  27.180  14.148
37877W        W 3104  40.002  22.092  13.018
37878W        W 3105  37.111  42.070  11.245
37879W        W 3106  42.068  23.692  10.549
37880W        W 3107  11.065  18.284   1.797
37881W        W 3108   5.247  15.809   2.313
37882W        W 3109  18.601  42.316  14.105
37883W        W 3110  39.788  26.773   0.686
37884W        W 3111  13.417  22.955  14.956
37885W        W 3112  28.068  41.477   3.861
37886W        W 3113  38.495  22.262   4.689
37887W        W 3114  34.439   6.228   0.946
37888W        W 3115  40.129  43.495  13.685
37889W        W 3116  29.697   8.800  10.899
37890W        W 3117  17.059  43.874   4.121
37891W        W 3118  14.052  43.084   0.809
37892W        W 3119   7.233  31.439   2.619
37893W        W 3120  35.929  31.458  14.949
37894W        W 3121  32.574  13.148  13.132
37895W        W 3122  36.311  21.491   2.443
37896W        W 3123  23.938  27.560   1.552
37897W        W 3124  40.602  33.176   0.386
37898W        W 3125  38.678   0.694   4.227
37899W        W 3126  43.396  16.754   2.807
37900W        W 3127  42.816  41.906  12.147
37901W        W 3128   1.744  35.800  14.746
37902W        W 3129  36.915  19.057  11.522
37903W        W 3130  14.728  18.264   0.510
37904W        W 3131  32.184  12.165  11.637
37905W        W 3132  30.385  10.671  12.435
37906W        W 3133  22.246  12.160   3.670
37907W        W 3134  19.908  37.066  13.333
37908W        W 3135  11.328  30.915   4.121
37909W        W 3136   2.286  17.811   3.597
37910W        W 3137   6.043  41.033   4.975
37911W        W 3138  18.160  16.743  10.759
37912W        W 3139  42.514  15.132  11.691
37913W        W 3140  31.019  41.087  12.325
37914W        W 3141  26.880  18.735  10.484
37915W        W 3142  34.276  43.962  14.499
37916W        W 3143   5.200  20.764   0.842
37917W        W 3144  21.739  10.685   1.535
37918W        W 3145   7.987  16.786   2.149
37919W        W 3146  43.490   0.000  12.393
37920W        W 3147   9.379  10.013  11.957
37921W        W 3148   0.183  39.308  13.520
37922W        W 3149  20.272  39.785  13.401
37923W        W 3150  38.307  39.306   2.335
37924W        W 3151  35.234  19.820   0.412
37925W        W 3152   1.965  26.807   1.590
37926W        W 3153   4.498  39.679   2.314
37927W        W 3154   0.899  27.871  13.223
37928W        W 3155  30.590   7.665   1.277
37929W        W 3156  16.200  15.659   1.425
37930W        W 3157  24.160  31.396  13.808
37931W        W 3158  15.326  12.712  10.931
37932W        W 3159   3.958  27.939   1.214
37933W        W 3160  31.939  32.889  13.415
37934W        W 3161   6.659   1.991   4.662
37935W        W 3162  16.928   1.848  12.623
37936W        W 3163  12.086   5.967  14.726
37937W        W 3164  25.584  20.072   4.144
37938W        W 3165  22.240  30.002   0.887
37939W        W 3166  22.784  23.520   4.523
37940W        W 3167  32.610  34.658  10.172
37941W        W 3168  36.582  16.629  12.550
37942W        W 3169   1.346  13.322   2.074
37943W        W 3170   2.038   7.709  11.779
37944W        W 3171  36.053   0.491   4.106
37945W        W 3172  27.082  29.401  14.085
37946W        W 3173  35.273  37.032  10.974
37947W        W 3174  13.810  11.369  13.065
37948W        W 3175   1.760  15.588   3.512
37949W        W 3176   7.240  22.516   1.364
37950W        W 3177  13.141  27.138   0.085
37951W        W 3178   3.266  33.841  11.149
37952W        W 3179  31.039  11.371  12.750
37953W        W 3180   1.390   1.588  12.079
37954W        W 3181   5.673  39.831   0.443
37955W        W 3182  19.084   4.990   3.444
37956W        W 3183  24.713  23.970   0.941
37957W        W 3184  29.232  30.399  13.210
37958W        W 3185  28.115  24.182   2.728
37959W        W 3186   8.828  40.422   1.205
37960W        W 3187  30.021  32.926   2.223
37961W        W 3188  26.922  15.113  11.702
37962W        W 3189  13.234  22.178  13.166
37963W        W 3190   1.694  22.187  14.512
37964W        W 3191  43.624  28.593  13.193
37965W        W 3192  39.534  18.180   3.231
37966W        W 3193  43.661  17.897   1.908
37967W        W 3194  32.837  23.402  12.413
37968W        W 3195  21.680  33.615   3.046
37969W        W 3196  29.986  35.622   1.504
37970W        W 3197  30.674   1.519  10.752
37971W        W 3198  20.311   7.288  10.115
37972W        W 3199  29.230   7.022  11.063
37973W        W 3200  40.489  37.658  11.437
37974W        W 3201  37.997  31.692   4.528
37975W        W 3202  24.589   1.454   0.783
37976W        W 3203  34.830   1.196   0.781
37977W        W 3204   3.920   3.511   4.037
37978W        W 3205  32.605   3.708   2.104
37979W        W 3206  44.415  17.650   4.538
37980W        W 3207  12.266   3.516   2.468
37981W        W 3208  39.950  31.196   1.363
37982W        W 3209   0.491  11.213  10.868
37983W        W 3210  35.644   3.545   4.384
37984W        W 3211  25.230  44.902   3.417
37985W        W 3212  12.575   6.787  14.534
37986W        W 3213  39.006   6.418   1.326
37987W        W 3214  16.718   6.078  14.353
37988W        W 3215  42.558   5.877  14.981
37989W        W 3216   1.170   5.675  10.276
37990W        W 3217  34.065  27.648   3.855
37991W        W 3218   7.662  39.470  12.810
37992W        W 3219  28.181   7.545   3.247
37993W        W 3220  13.408  37.081  11.151
37994W        W 3221  32.890   3.742   2.801
37995W        W 3222  10.503  28.185   2.910
37996W        W 3223  30.910  43.869   0.510
37997W        W 3224   1.227  42.461   0.904
37998W        W 3225  17.849  13.835  12.958
37999W        W 3226  29.835  25.060   4.128
38000W        W 3227  19.555  32.969  14.995
38001W        W 3228  37.560  16.558   1.903
38002W        W 3229  28.810  20.657   3.210
38003W        W 3230  30.012  37.631   3.150
38004W        W 3231  36.057   4.506  13.550
38005W        W 3232   6.274  30.259   3.566
38006W        W 3233  43.791  31.848   2.843
38007W        W 3234  23.932  31.936  14.784
38008W        W 3235  23.065  19.792  11.992
38009W        W 3236  22.172  41.364   0.298
38010W        W 3237  26.233  29.004  13.456
38011W        W 3238  11.815  34.672   0.847
38012W        W 3239  28.130   1.211  12.582
38013W        W 3240  10.678  18.732  14.041
38014W        W 3241  34.909   7.428  13.404
38015W        W 3242   2.351  23.274   4.264
38016W        W 3243  27.418   7.595  11.048
38017W        W 3244  26.985   9.577   3.312
38018W        W 3245  16.333  14.134  14.264
38019W        W 3246   4.827  21.309  10.288
38020W        W 3247  10.227  10.339  14.963
38021W        W 3248  40.503  24.056   0.964
38022W        W 3249  25.439  17.072  14.390
38023W        W 3250  36.602  22.291   2.185
38024W        W 3251  14.044  41.355  13.576
38025W        W 3252  21.267  10.636   0.419
38026W        W 3253  36.980  27.769  11.227
38027W        W 3254  11.855  40.340  12.652
38028W        W 3255  30.626  11.466  11.597
38029W        W 3256  19.043  16.788  13.340
38030W        W 3257  21.965  24.709   4.723
38031W        W 3258  19.168  22.553   1.049
38032W        W 3259  18.618  26.184   2.761
38033W        W 3260  40.084  13.815   2.695
38034W        W 3261  16.903  23.120  14.435
38035W        W 3262   1.150  31.278  10.058
38036W        W 3263  40.011  14.544   4.559
38037W        W 3264  16.360  17.005   3.700
38038W        W 3265  26.931   6.910   4.868
38039W        W 3266  41.997  21.002  13.609
38040W        W 3267  35.361  23.975  14.334
38041W        W 3268  40.439  43.378  11.621
38042W        W 3269   3.690  35.345   2.860
38043W        W 3270  11.528  26.001  12.022
38044W        W 3271   7.343   3.337   1.482
38045W        W 3272  36.509  30.431   1.825
38046W        W 3273   1.021  33.383  12.470
38047W        W 3274   8.369  16.853  14.896
38048W        W 3275   9.304  24.930  12.053
38049W        W 3276  34.949   8.383   1.687
38050W        W 3277  24.341   5.079  11.985
38051W        W 3278  42.095   6.032  12.083
38052W        W 3279  10.308  32.266   3.099
38053W        W 3280  13.556   8.716  10.420
38054W        W 3281  22.459   4.639  10.829
38055W        W 3282   8.337  40.569   1.272
38056W        W 3283  11.319  13.225  11.655
38057W        W 3284  32.779  34.204   9.831
38058W        W 3285  42.010  43.434  11.601
38059W        W 3286  37.550  25.345  12.481
38060W        W 3287  44.202  35.523   1.284
38061W        W 3288  20.440  26.538   0.466
38062W        W 3289  35.038  39.016   0.796
38063W        W 3290   7.805  24.187  14.679
38064W        W 3291  27.192  31.180   0.774
38065W        W 3292   6.264  35.022   4.122
38066W        W 3293  44.826  14.060  10.492
38067W        W 3294  32.860  43.149   4.646
38068W        W 3295  11.354   2.473   0.864
38069W        W 3296  24.963  44.235   4.115
38070W        W 3297  40.984  38.513  12.443
38071W        W 3298  35.953  33.943  12.602
38072W        W 3299   6.182  33.975  12.485
38073W        W 3300  21.078   5.197  14.285
38074W        W 3301  38.243  32.326  12.115
38075W        W 3302   3.989  32.455  11.474
38076W        W 3303  24.305  14.583   4.069
38077W        W 3304  42.766  26.503  13.000
38078W        W 3305   1.432   6.993  13.812
38079W        W 3306  30.064  43.193   4.869
38080W        W 3307  22.515  38.832  11.533
38081W        W 3308  13.170  35.013   3.686
38082W        W 3309  44.404  33.092  14.965
38083W        W 3310  13.888  10.381  11.962
38084W        W 3311   1.131   8.934  13.329
38085W        W 3312  39.570  40.653   2.099
38086W        W 3313  44.030  14.649   4.386
38087W        W 3314  38.202   9.791  12.933
38088W        W 3315  26.108   9.150   3.545
38089W        W 3316  29.116  40.268  10.654
38090W        W 3317  19.844  12.760  11.560
38091W        W 3318  26.484  29.229  13.003
38092W        W 3319  14.536   9.360  13.295
38093W        W 3320   8.216   3.281  10.626
38094W        W 3321  13.618  31.671   2.128
38095W        W 3322  15.127  43.915   2.696
38096W        W 3323  32.397   8.655  14.428
38097W        W 3324   9.774   3.981   1.293
38098W        W 3325  26.008  33.460  14.095
38099W        W 3326  11.657   2.331   3.725
38100W        W 3327  17.550  33.873  10.196
38101W        W 3328  36.867  22.998  12.015
38102W        W 3329  15.277  31.203   4.386
38103W        W 3330  38.407  23.007  11.607
38104W        W 3331  44.591  36.069   3.686
38105W        W 3332  44.619  30.254   2.780
38106W        W 3333  25.881  30.592  13.621
38107W        W 3334   2.744  34.320   1.389
38108W        W 3335  20.518  13.387   4.937
38109W        W 3336  15.284  11.157  12.507
38110W        W 3337  25.082   4.463   2.150
38111W        W 3338  43.269  31.866   3.619
38112W        W 3339  41.251  32.537   0.866
38113W        W 3340   1.273  12.870  11.936
38114W        W 3341  41.794  36.065   3.096
38115W        W 3342  23.527  26.606  13.905
38116W        W 3343  36.580  26.464   4.836
38117W        W 3344  26.897  42.515  13.603
38118W        W 3345  21.571  32.205   3.964
38119W        W 3346   9.632  43.770   0.377
38120W        W 3347  37.051  17.269   0.780
38121W        W 3348  19.147   5.668  11.472
38122W        W 3349  20.736  29.882   0.695
38123W        W 3350  17.162   7.570  11.076
38124W        W 3351  26.672  27.604   0.043
38125W        W 3352  44.209   1.614  14.764
38126W        W 3353  20.826  38.952   4.930
38127W        W 3354  38.370  41.266  12.589
38128W        W 3355  14.870  25.675   1.850
38129W        W 3356  44.048  41.997   2.248
38130W        W 3357  20.116  25.027   2.684
38131W        W 3358   1.008  16.677  11.700
38132W        W 3359   3.865  37.124  14.573
38133W        W 3360  21.041  13.177  14.740
38134W        W 3361  13.484   9.161  10.686
38135W        W 3362  21.017  18.765  13.694
38136W        W 3363  26.587  41.562  14.405
38137W        W 3364  27.943  27.692   4.110
38138W        W 3365  35.711  40.329   0.776
38139W        W 3366  31.392  23.041   3.148
38140W        W 3367   9.007  33.034  10.985
38141W        W 3368  20.693  20.757  13.427
38142W        W 3369  10.869  38.464  11.680
38143W        W 3370  17.732  35.549   3.872
38144W        W 3371   4.782  32.999  10.190
38145W        W 3372  14.595  33.114   0.337
38146W        W 3373  37.352  30.027  11.309
38147W        W 3374   9.520  19.341  11.969
38148W        W 3375  10.126  32.064   1.416
38149W        W 3376  43.370  36.092  13.882
38150W        W 3377  22.474  13.860  12.832
38151W        W 3378  32.530  16.673  14.412
38152W        W 3379  31.421   3.923   2.704
38153W        W 3380  16.750  21.855  13.321
38154W        W 3381   0.580  38.350  13.968
38155W        W 3382  38.862  43.547   1.823
38156W        W 3383  39.827  27.540   3.128
38157W        W 3384  40.259  40.976   3.629
38158W        W 3385  11.127  24.271   2.250
38159W        W 3386  23.123  29.546   0.003
38160W        W 3387  32.990  29.884  14.298
38161W        W 3388  11.762   8.174  13.445
38162W        W 3389  25.129  30.344  10.765
38163W        W 3390  39.719  31.714  11.040
38164W        W 3391   9.304   1.354  10.825
38165W        W 3392  40.596  30.144   4.480
38166W        W 3393  13.906  34.613  10.681
38167W        W 3394  30.033  34.948  14.462
38168W        W 3395  36.801  14.185   2.854
38169W        W 3396  19.993   2.756   0.899
38170W        W 3397  18.898  21.562   0.307
38171W        W 3398   9.423  30.060   3.216
38172W        W 3399   8.419  44.879  10.866
38173W        W 3400  22.721  27.317  12.874
38174W        W 3401  15.414  27.790  11.964
38175W        W 3402  14.715   2.033   5.208
38176W        W 3403  17.142   1.615   1.290
38177W        W 3404  32.859  35.495   2.245
38178W        W 3405  18.030  16.219   4.138
38179W        W 3406   0.027  26.228   0.373
38180W        W 3407   0.963  44.806   2.420
38181W        W 3408  32.044  29.480   5.537
38182W        W 3409  11.338  15.181  12.476
38183W        W 3410  23.224   6.266   1.309
38184W        W 3411  39.495  14.753   4.666
38185W        W 3412  42.022   8.533   3.740
38186W        W 3413   1.717  32.984  13.830
38187W        W 3414  13.791  12.302   3.831
38188W        W 3415  33.923   2.672  13.347
38189W        W 3416  15.530  28.520   2.608
38190W        W 3417  44.295  19.781  14.200
38191W        W 3418  17.625  26.550  13.594
38192W        W 3419   1.458  41.096   2.387
38193W        W 3420   5.835   8.918   1.229
38194W        W 3421  13.076  43.926   1.430
38195W        W 3422  42.314   9.177   0.426
38196W        W 3423  22.933  21.225   4.099
38197W        W 3424  21.236   6.869   4.468
38198W        W 3425   2.859   4.482   0.770
38199W        W 3426  14.786  32.967  14.888
38200W        W 3427  35.384  13.634  12.113
38201W        W 3428  25.314   2.338   1.554
38202W        W 3429  23.775  36.484  11.266
38203W        W 3430  17.138  43.573  13.305
38204W        W 3431  44.068  23.622   0.270
38205W        W 3432  36.585   8.860  11.479
38206W        W 3433  11.771  26.665   0.276
38207W        W 3434  16.228  16.877  11.312
38208W        W 3435  25.960  37.064  10.828
38209W        W 3436  39.046  38.772   3.624
38210W        W 3437  31.412   6.474   3.683
38211W        W 3438  12.379  20.698  10.338
38212W        W 3439  40.047  26.452   1.173
38213W        W 3440   8.645  18.010  14.484
38214W        W 3441  23.490  27.441   4.886
38215W        W 3442  34.071  15.547  13.369
38216W        W 3443  43.492  23.425  14.435
38217W        W 3444  12.169  23.164  14.816
38218W        W 3445  29.925  29.746   0.029
38219W        W 3446   3.024   4.384  14.873
38220W        W 3447   5.416   9.769  11.510
38221W        W 3448   6.920  38.039  14.865
38222W        W 3449  18.875  19.663   4.081
38223W        W 3450  22.078  10.559   0.700
38224W        W 3451  15.182  32.299   0.507
38225W        W 3452  28.743  33.455   1.704
38226W        W 3453  24.748  33.006   4.542
38227W        W 3454  16.830  18.222  12.122
38228W        W 3455  35.186  42.298   0.877
38229W        W 3456  13.653  18.827  13.570
38230W        W 3457  20.121  16.417   4.570
38231W        W 3458  37.035   2.793  11.687
38232W        W 3459   3.273   3.668   5.366
38233W        W 3460  16.359  24.085  12.442
38234W        W 3461  29.452  42.493  14.165
38235W        W 3462  30.416  16.723  10.660
38236W        W 3463  35.857  18.288   1.820
38237W        W 3464   6.414   4.845  14.633
38238W        W 3465  37.295   2.708   1.769
38239W        W 3466   0.069  13.926   1.341
38240W        W 3467   0.267  29.696  13.044
38241W        W 3468  10.853  25.419  13.909
38242W        W 3469   1.848   3.958  12.111
38243W        W 3470  31.512  44.079  11.081
38244W        W 3471  24.928  29.023   2.372
38245W        W 3472  27.700  11.250  10.987
38246W        W 3473  25.007  33.766   1.196
38247W        W 3474  34.265  10.496  14.385
38248W        W 3475  19.395  40.167  12.606
38249W        W 3476   4.668  30.413  12.018
38250W        W 3477  27.788  13.890   4.798
38251W        W 3478  20.135   3.838  12.561
38252W        W 3479  43.078  41.298   4.090
38253W        W 3480  24.182  33.940  11.554
38254W        W 3481  24.542  24.003  12.543
38255W        W 3482   8.928  35.049  10.133
38256W        W 3483   5.140  37.707  14.940
38257W        W 3484  38.437   2.100   2.367
38258W        W 3485  33.814  41.539  13.025
38259W        W 3486  26.262  43.991   4.253
38260W        W 3487   7.224   4.473  14.715
38261W        W 3488   2.404  42.573   2.870
38262W        W 3489  37.534  40.390   2.404
38263W        W 3490  37.646  37.386   1.916
38264W        W 3491   3.315  15.570  13.252
38265W        W 3492  37.309   7.726  10.789
38266W        W 3493  25.498   9.115   2.698
38267W        W 3494  43.445  17.840  10.895
38268W        W 3495   5.444  28.200  13.367
38269W        W 3496  23.695  38.428   3.385
38270W        W 3497  34.256   5.097   2.369
38271W        W 3498   1.871  32.958  14.794
38272W        W 3499  15.778  16.942  11.966
38273W        W 3500  13.920   9.592  14.431
38274W        W 3501  14.802   5.555  12.578
38275W        W 3502  13.100  12.187   4.668
38276W        W 3503  37.332  25.451  11.073
38277W        W 3504  39.426  26.788  12.626
38278W        W 3505   4.797  40.347   4.735
38279W        W 3506  36.511  10.033  10.825
38280W        W 3507  21.697  35.389  14.684
38281W        W 3508  15.053  23.099   2.662
38282W        W 3509  11.522  25.602  13.375
38283W        W 3510  21.259  19.331  11.237
38284W        W 3511   9.700  11.661  12.439
38285W        W 3512  15.571  34.982   2.803
38286W        W 3513   5.092  22.346  12.875
38287W        W 3514  36.790  29.152   1.683
38288W        W 3515  29.025  21.752   4.413
38289W        W 3516  40.919  12.033   3.275
38290W        W 3517  19.721  16.731   1.434
38291W        W 3518  12.265  42.772  12.153
38292W        W 3519  42.361  39.978  13.499
38293W        W 3520  17.586  13.767  13.409
38294W        W 3521  33.389  39.084  12.604
38295W        W 3522   3.628  31.619  11.194
38296W        W 3523  44.054  39.853  14.506
38297W        W 3524  20.127   0.276   5.354
38298W        W 3525  34.066   9.346   1.541
38299W        W 3526  33.966  37.059   2.631
38300W        W 3527  36.013  18.804  11.069
38301W        W 3528   0.870  25.157  10.332
38302W        W 3529  14.423   2.611  12.925
38303W        W 3530  20.864  41.514  13.521
38304W        W 3531  13.594   0.165   2.816
38305W        W 3532  19.783  26.330  13.874
38306W        W 3533  11.886  18.902  14.367
38307W        W 3534  30.923  27.768  10.758
38308W        W 3535  19.001  11.150   0.348
38309W        W 3536  34.143  38.860  13.019
38310W        W 3537  27.412  30.901   1.343
38311W        W 3538   9.902  19.104  12.920
38312W        W 3539  38.364  20.137  13.909
38313W        W 3540  23.666  14.061   1.273
38314W        W 3541  38.306  38.466   3.245
38315W        W 3542  35.066   4.407   3.584
38316W        W 3543  20.137  25.107   1.707
38317W        W 3544  26.128  27.873  12.893
38318W        W 3545  17.202  31.396  12.213
38319W        W 3546  14.596  13.211  12.330
38320W        W 3547  44.353  39.844  11.553
38321W        W 3548  16.088  12.461   1.329
38322W        W 3549  38.827  29.819  10.912
38323W        W 3550  14.099  31.040  11.998
38324W        W 3551  26.665  35.396  11.213
38325W        W 3552  35.286  34.140   3.835
38326W        W 3553   8.352  31.500   3.378
38327W        W 3554  31.962  20.268  12.002
38328W        W 3555  38.446  35.984   1.362
38329W        W 3556  36.372  36.619   3.358
38330W        W 3557  26.429  34.311   1.259
38331W        W 3558   6.423   7.848  12.385
38332W        W 3559  39.040  39.331  12.781
38333W        W 3560  16.614  33.938   2.567
38334W        W 3561  41.080  23.030  12.214
38335W        W 3562  25.536  43.906  13.416
38336W        W 3563  34.175   2.489  12.918
38337W        W 3564  30.808  36.773  14.846
38338W        W 3565  39.935  16.672   4.606
38339W        W 3566  44.885  37.848   0.997
38340W        W 3567  39.790   7.933   1.110
38341W        W 3568  28.139  31.613  12.871
38342W        W 3569  12.008  26.746   3.431
38343W        W 3570  28.778  12.660   5.386
38344W        W 3571   6.026  13.737   4.596
38345W        W 3572  41.020  38.847   3.065
38346W        W 3573  22.295  42.612   2.603
38347W        W 3574  24.476  17.592  11.656
38348W        W 3575   8.665  20.502   2.561
38349W        W 3576   1.348  37.908   3.149
38350W        W 3577  12.677  25.998  13.778
38351W        W 3578  40.799  11.570  12.522
38352W        W 3579  36.950  27.115  14.593
38353W        W 3580  39.014  41.087  10.800
38354W        W 3581  11.856  31.390   2.840
38355W        W 3582  28.170   7.531   2.292
38356W        W 3583  41.099  39.418  14.926
38357W        W 3584  28.867  37.490  11.284
38358W        W 3585  18.633  18.409   4.485
38359W        W 3586   8.825  22.982   1.758
38360W        W 3587  36.358  44.524  14.824
38361W        W 3588  23.108  25.470  14.471
38362W        W 3589  23.000  44.103   2.966
38363W        W 3590  13.332  17.556  14.434
38364W        W 3591  42.011   1.743   1.653
38365W        W 3592  28.320  43.646   0.720
38366W        W 3593   3.408  40.102   1.929
38367W        W 3594  27.247  35.321   2.624
38368W        W 3595  40.029  33.511  10.661
38369W        W 3596  36.697  24.666  14.903
38370W        W 3597  20.555  25.534   2.712
38371W        W 3598   4.752   6.881   4.628
38372W        W 3599  30.585   5.679  13.891
38373W        W 3600   3.352  24.526  14.320
38374W        W 3601   1.369   8.429   1.247
38375W        W 3602  37.492  39.723  12.536
38376W        W 3603   0.954  18.556   4.090
38377W        W 3604  15.158  40.946  11.545
38378W        W 3605  28.537  40.317  12.660
38379W        W 3606  26.720  37.878  12.124
38380W        W 3607  28.680  19.216   2.754
38381W        W 3608  43.910  29.243  13.930
38382W        W 3609  11.877  36.788   3.686
38383W        W 3610  22.715  42.875  12.115
38384W        W 3611  11.780  20.023   4.855
38385W        W 3612  18.274  43.512  14.493
38386W        W 3613  23.554   3.336  12.689
38387W        W 3614  43.813  16.557   4.125
38388W        W 3615  43.303  37.603   2.353
38389W        W 3616  17.596  44.918   0.184
38390W        W 3617  36.067  43.411  10.741
38391W        W 3618  19.054   2.475  12.594
38392W        W 3619  13.539  36.816  11.566
38393W        W 3620  28.667   3.163  11.437
38394W        W 3621  21.815  32.899  14.268
38395W        W 3622  35.967  35.531   0.027
38396W        W 3623  41.050  12.369  11.587
38397W        W 3624  21.693   8.747   3.708
38398W        W 3625  10.278  12.665  13.307
38399W        W 3626  14.374  35.070  11.609
38400W        W 3627  27.966  16.538   3.705
38401W        W 3628  14.492  37.082  13.517
38402W        W 3629   0.284  23.801  11.128
38403W        W 3630  26.552  32.858   5.105
38404W        W 3631  22.425  44.853   0.576
38405W        W 3632   3.672  37.853  14.873
38406W        W 3633   6.290  44.511   3.264
38407W        W 3634  17.325  24.877   1.848
38408W        W 3635  28.943  34.041   4.742
38409W        W 3636  16.880  23.704   4.121
38410W        W 3637  37.236   6.016   9.930
38411W        W 3638  37.791  18.659   0.501
38412W        W 3639   9.228  24.430   0.279
38413W        W 3640  27.173  11.843  13.036
38414W        W 3641  17.568  40.913  13.943
38415W        W 3642   2.257  35.598  14.835
38416W        W 3643  10.664  44.838   4.005
38417W        W 3644   6.334   1.923  10.643
38418W        W 3645  33.589  11.663   2.168
38419W        W 3646  38.962  12.795   3.210
38420W        W 3647  10.057  24.645   3.668
38421W        W 3648  30.472   1.659  12.892
38422W        W 3649  11.628  30.197  14.866
38423W        W 3650  35.585   6.805  12.912
38424W        W 3651  25.094  35.739  12.144
38425W        W 3652  36.056  31.657   4.574
38426W        W 3653   9.923  38.664  11.067
38427W        W 3654  12.745   5.655   3.722
38428W        W 3655  39.918  18.587  11.600
38429W        W 3656  11.337   4.350  14.733
38430W        W 3657   4.762  28.679  13.039
38431W        W 3658  43.903   3.205  12.498
38432W        W 3659   6.851  35.947   0.052
38433W        W 3660  40.473   1.438  10.754
38434W        W 3661  29.925   9.883  13.396
38435W        W 3662  31.616  14.684   1.455
38436W        W 3663  35.305  42.171   1.367
38437W        W 3664  38.050  43.895  14.907
38438W        W 3665   0.240  24.755   1.241
38439W        W 3666  38.364   8.284   0.314
38440W        W 3667   8.745  43.113   5.023
38441W        W 3668  28.673   0.518  10.990
38442W        W 3669  12.555  44.947  13.880
38443W        W 3670  38.724  15.842   3.338
38444W        W 3671  25.511  12.875  14.404
38445W        W 3672   3.826  39.890  14.964
38446W        W 3673  33.872  25.594  13.941
38447W        W 3674  44.416  20.292   3.841
38448W        W 3675  23.850   9.146   3.645
38449W        W 3676  11.464  42.015  13.927
38450W        W 3677  12.784  17.578  14.812
38451W        W 3678  14.070  32.915  14.477
38452W        W 3679  17.470  31.004  13.021
38453W        W 3680  32.988  11.479  12.937
38454W        W 3681  17.175  32.282   5.052
38455W        W 3682   6.465  44.994  14.330
38456W        W 3683  30.117  25.304   4.468
38457W        W 3684  15.418   7.781   3.021
38458W        W 3685   2.672  36.560  13.996
38459W        W 3686  31.404  34.430  14.889
38460W        W 3687   4.141  21.016   2.784
38461W        W 3688  37.328  27.560   3.389
38462W        W 3689  24.136  38.300  11.918
38463W        W 3690  34.968  13.703   1.679
38464W        W 3691   7.907   1.725   0.391
38465W        W 3692   8.232  32.756   9.708
38466W        W 3693   2.191  43.028   3.636
38467W        W 3694  43.966  38.376  13.432
38468W        W 3695   3.346  40.069  11.015
38469W        W 3696  16.232   0.571   0.945
38470W        W 3697  19.700  11.347   4.383
38471W        W 3698   5.868  33.209   4.131
38472W        W 3699   7.936  20.620   4.757
38473W        W 3700  17.100   4.757   3.092
38474W        W 3701  40.471  35.527   0.391
38475W        W 3702  30.099  29.864  12.189
38476W        W 3703  31.506  22.070   0.562
38477W        W 3704   9.899  35.655  14.577
38478W        W 3705  17.747  44.708  12.501
38479W        W 3706  21.573  11.255   4.341
38480W        W 3707  42.087  23.968   0.164
38481W        W 3708  19.931  20.309  14.785
38482W        W 3709  15.662  15.855   0.821
38483W        W 3710   8.782  20.805   3.545
38484W        W 3711   8.278  38.445   3.196
38485W        W 3712  18.773   3.415   3.282
38486W        W 3713  41.818   9.830   4.149
38487W        W 3714  36.551  19.365   3.249
38488W        W 3715  26.667  37.693  10.593
38489W        W 3716  13.656  24.888   2.435
38490W        W 3717  10.164  33.153  13.706
38491W        W 3718  24.569   4.249   0.330
38492W        W 3719  40.284  29.050  13.015
38493W        W 3720  35.405   1.969  13.845
38494W        W 3721  16.360  36.587  14.480
38495W        W 3722  19.120  37.848   1.167
38496W        W 3723  14.735  30.482   4.490
38497W        W 3724   7.450  19.547  14.213
38498W        W 3725  44.825  26.277   2.582
38499W        W 3726   8.855  23.118  14.105
38500W        W 3727  41.050  11.747  12.959
38501W        W 3728  37.468  22.802   0.903
38502W        W 3729  17.671   5.694  12.311
38503W        W 3730  19.580   3.664   4.199
38504W        W 3731  26.586  33.740  14.799
38505W        W 3732  16.774   0.321  10.801
38506W        W 3733  28.425  34.934  11.228
38507W        W 3734  26.151   4.472  13.121
38508W        W 3735  18.467  22.942   1.430
38509W        W 3736  28.036  22.028   1.545
38510W        W 3737  37.914  33.592  12.631
38511W        W 3738  22.092  21.556  12.029
38512W        W 3739  36.068  26.985  14.966
38513W        W 3740   9.213  27.364  13.082
38514W        W 3741  15.486  39.588  14.943
38515W        W 3742  29.315   2.085   2.625
38516W        W 3743  26.782   0.164   2.277
38517W        W 3744   2.839  37.556  13.834
38518W        W 3745  42.513  42.257   1.774
38519W        W 3746  27.694  24.506  13.368
38520W        W 3747   9.456  33.034   9.668
38521W        W 3748  14.239  34.007   0.262
38522W        W 3749  33.530   6.338  13.012
38523W        W 3750  22.206   9.131  12.513
38524W        W 3751  28.158  30.229  10.310
38525W        W 3752  30.253  22.170   1.214
38526W        W 3753  24.427  15.575   3.820
38527W        W 3754  26.061  28.498   4.022
38528W        W 3755  27.216  41.598   4.435
38529W        W 3756   0.224   0.566  11.208
38530W        W 3757   5.329  27.749   2.893
38531W        W 3758   3.557  35.234   4.183
38532W        W 3759  26.067  36.927   1.699
38533W        W 3760  32.067  41.961   2.116
38534W        W 3761  20.810  17.714   0.039
38535W        W 3762  42.301  42.919   1.591
38536W        W 3763  34.240  10.910  12.095
38537W        W 3764   4.782  38.749   0.063
38538W        W 3765  19.618  26.089   0.901
38539W        W 3766  31.119   6.369   0.030
38540W        W 3767  32.378   8.902  13.092
38541W        W 3768   8.562  17.697   3.755
38542W        W 3769  39.351  30.107   1.707
38543W        W 3770   8.554  29.607   1.934
38544W        W 3771   1.189  25.507   3.262
38545W        W 3772  26.003  14.713  13.336
38546W        W 3773  28.691  24.609   2.353
38547W        W 3774  18.614  25.228  12.325
38548W        W 3775  19.058  39.027  14.768
38549W        W 3776  18.238  23.787   2.615
38550W        W 3777  39.999  36.505   2.356
38551W        W 3778  29.970  30.025  13.014
38552W        W 3779  31.874  37.106  13.079
38553W        W 3780  31.509   4.415   0.258
38554W        W 3781   1.682  17.142   0.754
38555W        W 3782  17.351  33.500  14.499
38556W        W 3783  11.511   5.288  14.377
38557W        W 3784   8.294  41.800   3.210
38558W        W 3785   4.562  33.421   1.462
38559W        W 3786  37.383   7.626   3.423
38560W        W 3787  38.217  18.905   3.781
38561W        W 3788  42.367  35.590   3.175
38562W        W 3789   5.754  10.997  12.214
38563W        W 3790  21.302  28.650   0.895
38564W        W 3791  18.696  22.626  12.514
38565W        W 3792  23.137  43.815   4.134
38566W        W 3793  33.540  11.594  14.004
38567W        W 3794  41.788  15.559  14.535
38568W        W 3795  13.577  44.346   0.892
38569W        W 3796  39.249  14.727  10.513
38570W        W 3797  10.756  37.303  13.963
38571W        W 3798  37.200  21.173   0.202
38572W        W 3799  10.740   0.079  13.433
38573W        W 3800  25.168  24.916   0.354
38574W        W 3801  14.235  38.876  13.411
38575W        W 3802  20.107  35.602   4.668
38576W        W 3803  36.901  21.581  10.811
38577W        W 3804  40.102  12.796  13.262
38578W        W 3805  24.659  24.457  14.572
38579W        W 3806   7.744  12.233   4.661
38580W        W 3807  13.325  29.196  14.464
38581W        W 3808  21.403  38.868   5.001
38582W        W 3809   9.144  27.655  10.282
38583W        W 3810  32.246   9.656   4.270
38584W        W 3811  43.939  10.031  12.015
38585W        W 3812   8.204  38.123  11.544
38586W        W 3813  35.483   6.300  11.618
38587W        W 3814  12.695  18.273   2.892
38588W        W 3815  34.171  37.638   3.549
38589W        W 3816  34.587   1.001  14.471
38590W        W 3817  43.818  22.066   2.398
38591W        W 3818  27.091  13.837  10.585
38592W        W 3819  11.710  14.846   1.872
38593W        W 3820  36.572  13.992   5.073
38594W        W 3821  36.060  40.295  14.821
38595W        W 3822   6.154  44.263  10.668
38596W        W 3823   4.154  18.298   4.231
38597W        W 3824  26.953  38.750   4.021
38598W        W 3825   6.760   3.148  14.668
38599W        W 3826  16.338  32.624   2.170
38600W        W 3827  11.673   2.426  12.836
38601W        W 3828  19.622  19.033   3.262
38602W        W 3829  23.553  20.562  14.328
38603W        W 3830  14.537  44.275   2.213
38604W        W 3831  21.079  31.064   5.046
38605W        W 3832  14.234  20.659   3.087
38606W        W 3833   7.860  34.142  13.941
38607W        W 3834  10.808  26.179   3.986
38608W        W 3835  27.442  35.132   4.649
38609W        W 3836   6.660  16.072  11.645
38610W        W 3837   5.233  35.770   3.670
38611W        W 3838  17.110  22.291   0.453
38612W        W 3839  40.951  14.611  11.126
38613W        W 3840   3.267  25.661   2.269
38614W        W 3841  10.323  10.966   4.575
38615W        W 3842   8.258  42.823  14.037
38616W        W 3843  11.324  31.175  12.385
38617W        W 3844   8.866  26.267  13.890
38618W        W 3845  36.790  26.081   2.085
38619W        W 3846  26.564  21.011   4.196
38620W        W 3847  36.662  39.549  11.089
38621W        W 3848  15.537  43.961  14.467
38622W        W 3849   9.201  33.286   0.418
38623W        W 3850  24.941  22.571   0.953
38624W        W 3851  21.772   4.263   1.575
38625W        W 3852  13.889  12.725  13.810
38626W        W 3853  39.355   1.877   3.335
38627W        W 3854   8.937  12.379   4.120
38628W        W 3855  44.724  13.109   0.791
38629W        W 3856   7.818  26.745   1.376
38630W        W 3857   6.676  39.124   2.848
38631W        W 3858  11.335  28.449  13.416
38632W        W 3859   6.277  10.377   0.255
38633W        W 3860   0.854   6.191  13.921
38634W        W 3861  11.747  19.151  11.715
38635W        W 3862  20.237   2.333   0.205
38636W        W 3863   9.624  16.058   2.595
38637W        W 3864  34.372  40.968   4.743
38638W        W 3865  29.385  41.489   1.109
38639W        W 3866  41.101  41.559   0.649
38640W        W 3867  24.353   3.199  10.278
38641W        W 3868   2.363  35.987   3.983
38642W        W 3869  44.960  19.075   2.418
38643W        W 3870   1.201  37.010  14.236
38644W        W 3871  25.619  19.783  10.864
38645W        W 3872  14.275  10.257  10.928
38646W        W 3873  30.437  38.521   3.437
38647W        W 3874  40.548  11.970  12.989
38648W        W 3875  18.778   1.788   2.465
38649W        W 3876   1.482   4.677  12.983
38650W        W 3877  33.199  34.500   3.687
38651W        W 3878  18.434   1.114  10.385
38652W        W 3879  43.044  30.878   1.231
38653W        W 3880  19.274  13.977   4.078
38654W        W 3881  17.317  12.783   1.108
38655W        W 3882  38.737  18.780   3.655
38656W        W 3883  29.940   7.873  11.152
38657W        W 3884  30.969  11.793  12.454
38658W        W 3885  14.715   3.321   3.542
38659W        W 3886  19.762  31.591  12.528
38660W        W 3887   2.975  28.487  13.054
38661W        W 3888  19.748  35.977   4.528
38662W        W 3889  14.128  42.748   2.211
38663W        W 3890  27.645   2.264   3.646
38664W        W 3891  40.927   2.643   3.856
38665W        W 3892  22.448   5.721   1.296
38666W        W 3893  34.334   0.502   0.344
38667W        W 3894  41.946   4.922  13.202
38668W        W 3895  29.448   6.065  11.128
38669W        W 3896  21.968  21.764   1.380
38670W        W 3897   9.439  14.458  13.160
38671W        W 3898   1.244  24.082   3.211
38672W        W 3899  42.353   5.705   3.332
38673W        W 3900  14.425   0.294   1.222
38674W        W 3901  30.341  32.698  14.069
38675W        W 3902  39.989  37.996  13.452
38676W        W 3903  32.201  43.939   0.111
38677W        W 3904  13.801  32.278   2.306
38678W        W 3905   5.448   0.878   1.864
38679W        W 3906  12.243  38.538   1.852
38680W        W 3907   9.567  17.762  11.928
38681W        W 3908  29.184  12.606   0.316
38682W        W 3909   5.923  15.278   0.476
38683W        W 3910  17.730  21.787   1.294
38684W        W 3911  28.428   9.180  14.615
38685W        W 3912  16.415  32.964   4.376
38686W        W 3913  39.160  15.413  11.103
38687W        W 3914   3.858  20.824  14.716
38688W        W 3915  15.955  18.413  13.366
38689W        W 3916   0.381   3.632   0.314
38690W        W 3917  24.406  17.857  10.777
38691W        W 3918  17.327  23.612  10.206
38692W        W 3919  12.691  15.477   4.650
38693W        W 3920  39.598   6.596  11.085
38694W        W 3921  36.360  25.700   4.166
38695W        W 3922   6.525  29.016   3.691
38696W        W 3923  18.276  24.578   1.448
38697W        W 3924   1.390  31.248  14.879
38698W        W 3925   2.676  22.996  12.872
38699W        W 3926   2.898   9.899   0.489
38700W        W 3927  43.436  34.703   3.109
38701W        W 3928  22.570  24.862   0.402
38702W        W 3929  42.322   7.473   0.793
38703W        W 3930  17.059  11.259   4.378
38704W        W 3931  18.579  20.274   2.448
38705W        W 3932  28.014  37.916   2.244
38706W        W 3933   8.155  36.089  13.602
38707W        W 3934  16.816  22.785  13.125
38708W        W 3935  14.954  14.144   5.040
38709W        W 3936   0.795  40.286   1.747
38710W        W 3937  15.951  24.233   1.331
38711W        W 3938  18.162  30.728  11.573
38712W        W 3939   5.717  32.050   3.280
38713W        W 3940  11.738  30.307   5.074
38714W        W 3941  26.010  11.397  12.929
38715W        W 3942  24.612  14.740   3.651
38716W        W 3943   2.694  23.847   5.367
38717W        W 3944   5.316  22.615   2.655
38718W        W 3945   2.680  27.643   0.784
38719W        W 3946   9.329   3.939  12.614
38720W        W 3947  18.642   9.626   1.734
38721W        W 3948  41.396  44.391  12.101
38722W        W 3949  11.946  12.737  13.851
38723W        W 3950  42.924  35.648   1.891
38724W        W 3951   9.354  27.063   3.448
38725W        W 3952  37.954   8.253   3.117
38726W        W 3953  39.487  12.279  10.686
38727W        W 3954  39.987  27.027  12.509
38728W        W 3955  11.071   7.429   3.064
38729W        W 3956  27.098  19.791   3.235
38730W        W 3957  32.191  38.046   4.560
38731W        W 3958  26.027  11.707   3.090
38732W        W 3959  14.600  37.104   4.152
38733W        W 3960  23.595  13.855   3.537
38734W        W 3961  22.536  33.300  13.795
38735W        W 3962  11.430  14.212   2.624
38736W        W 3963  26.095   0.006  13.886
38737W        W 3964  39.572  18.797  11.963
38738W        W 3965  19.074   3.460   1.110
38739W        W 3966  38.850   5.227  13.454
38740W        W 3967  25.054  29.165   0.289
38741W        W 3968  37.634  13.670  13.490
38742W        W 3969   3.187  41.572  13.143
38743W        W 3970   4.787  41.369   3.235
38744W        W 3971   6.231  25.448   0.455
38745W        W 3972  13.517   3.914   3.078
38746W        W 3973   7.585  42.914   0.315
38747W        W 3974  29.549  27.509   2.563
38748W        W 3975  40.713  15.567   5.023
38749W        W 3976  38.000  42.253   2.369
38750W        W 3977  35.410   8.261   4.788
38751W        W 3978  15.160  19.867   4.035
38752W        W 3979  26.996  36.620  12.457
38753W        W 3980  36.436  43.740  12.912
38754W        W 3981  28.606  22.014   2.206
38755W        W 3982   4.260   4.962   0.702
38756W        W 3983   1.134  39.111  11.650
38757W        W 3984  11.444  39.904   1.712
38758W        W 3985   2.569   8.395   0.962
38759W        W 3986  21.250   5.426  13.807
38760W        W 3987  31.367  39.340  14.436
38761W        W 3988  32.465  42.003   3.826
38762W        W 3989  29.076  44.054  14.043
38763W        W 3990  23.485  35.028  13.505
38764W        W 3991   4.829  17.008   4.043
38765W        W 3992  30.002  21.277  10.752
38766W        W 3993  19.623   7.367   4.487
38767W        W 3994  31.210  36.340   3.448
38768W        W 3995   9.340  26.169   3.969
38769W        W 3996   0.548   2.994  13.843
38770W        W 3997  26.294  27.254  11.615
38771W        W 3998   3.037  38.603   0.006
38772W        W 3999  24.132  26.262   2.842
38773W        W 4000  12.117   4.244  11.007
38774W        W 4001  14.176  14.478  13.429
38775W        W 4002  27.114  21.786  11.564
38776W        W 4003   5.032  36.852  14.047
38777W        W 4004  31.384  40.820   3.680
38778W        W 4005  41.828  18.892   1.570
38779W        W 4006  30.600  38.035  14.318
38780W        W 4007  28.630  32.688   2.285
38781W        W 4008  42.785  10.135   1.527
38782W        W 4009  25.552  33.831  14.977
38783W        W 4010  18.253  18.514  12.120
38784W        W 4011   9.420   1.459   3.656
38785W        W 4012  14.795  33.174  10.146
38786W        W 4013  11.290   6.560   2.094
38787W        W 4014  21.882  39.644   3.370
38788W        W 4015   5.268   0.335  14.850
38789W        W 4016  21.569  31.730   0.981
38790W        W 4017  17.637  28.154  10.600
38791W        W 4018   1.374  18.136  12.380
38792W        W 4019  35.960   4.159   2.238
38793W        W 4020  17.076  26.626  13.089
38794W        W 4021  31.464  31.483  14.375
38795W        W 4022  37.448   0.943  13.535
38796W        W 4023  38.567  16.017  12.891
38797W        W 4024  16.842  24.211  13.344
38798W        W 4025  26.033  10.845  10.819
38799W        W 4026   2.135  24.260   2.727
38800W        W 4027  28.173  23.418  12.006
38801W        W 4028   1.421  35.275  11.557
38802W        W 4029  16.687   2.660  13.829
38803W        W 4030  25.016  38.968   1.412
38804W        W 4031  33.590  25.897  10.615
38805W        W 4032  33.994  12.320  12.070
38806W        W 4033  40.919  38.502  13.605
38807W        W 4034  32.003  33.293  11.626
38808W        W 4035  22.062  25.220   3.470
38809W        W 4036  18.954   1.715   1.505
38810W        W 4037   5.087   9.059  13.464
38811W        W 4038  35.618  31.440   1.489
38812W        W 4039  29.669  34.434   1.351
38813W        W 4040  12.357  39.170   0.246
38814W        W 4041   6.481  44.551   0.477
38815W        W 4042  25.590  43.496  14.301
38816W        W 4043   2.970  30.381  14.424
38817W        W 4044   3.418  37.096   2.765
38818W        W 4045  13.720  41.618   4.199
38819W        W 4046  17.594  32.826  11.117
38820W        W 4047  15.280  23.229   4.092
38821W        W 4048   7.095  23.065  11.628
38822W        W 4049  14.740  27.275  13.225
38823W        W 4050  44.920  21.777   4.747
38824W        W 4051  27.052  29.850  14.926
38825W        W 4052  20.053  19.455  11.648
38826W        W 4053  19.447  20.807  11.373
38827W        W 4054  31.913  34.316  10.752
38828W        W 4055  28.754  34.478   4.226
38829W        W 4056   5.724  29.469  10.697
38830W        W 4057  10.828  39.359   1.130
38831W        W 4058  42.711  17.683  14.382
38832W        W 4059  41.472  18.695  11.082
38833W        W 4060  32.505  34.076   1.870
38834W        W 4061  30.608  25.380   4.565
38835W        W 4062   5.899  43.148   9.631
38836W        W 4063   2.418  20.546  12.296
38837W        W 4064  13.312  43.783  11.098
38838W        W 4065  38.271  40.362   0.673
38839W        W 4066  23.550  21.517  12.019
38840W        W 4067  24.627  38.274   0.364
38841W        W 4068  19.616   4.203  13.929
38842W        W 4069  30.501  32.196   4.601
38843W        W 4070  12.227  29.287   0.841
38844W        W 4071   3.196  25.596  12.338
38845W        W 4072   2.496   7.096  13.416
38846W        W 4073  43.581   9.589   1.309
38847W        W 4074   7.236  40.788  12.377
38848W        W 4075  22.769  13.071  10.355
38849W        W 4076  37.465   0.472  12.604
38850W        W 4077  24.743  11.809   0.364
38851W        W 4078  26.666   0.831   3.099
38852W        W 4079  22.103  11.681  12.944
38853W        W 4080  13.207  26.118  13.579
38854W        W 4081  17.603  15.124   0.763
38855W        W 4082  42.715  29.443  10.500
38856W        W 4083   4.158   8.095  11.129
38857W        W 4084  40.874  27.148  12.869
38858W        W 4085  39.523   8.687  11.601
38859W        W 4086  19.302  33.908  10.810
38860W        W 4087   9.650  18.649   2.210
38861W        W 4088  41.987  29.908  14.056
38862W        W 4089  20.163  23.978  14.271
38863W        W 4090  28.609  24.795  10.841
38864W        W 4091   1.839  37.084   3.244
38865W        W 4092  29.192  29.393   2.072
38866W        W 4093  36.420   6.798  12.446
38867W        W 4094  32.350  27.530  14.350
38868W        W 4095   6.040   3.641  11.251
38869W        W 4096   6.043  28.489   0.511
38870W        W 4097  37.135  33.588   1.282
38871W        W 4098  16.035  32.442  11.126
38872W        W 4099  30.475  34.606   3.235
38873W        W 4100  25.253  18.180  12.878
38874W        W 4101   2.246  16.155   3.500
38875W        W 4102   4.941  41.651  14.372
38876W        W 4103   2.863   4.695   5.085
38877W        W 4104   1.179  42.857   2.644
38878W        W 4105  42.365  43.009  11.623
38879W        W 4106  32.119  30.940  10.888
38880W        W 4107   1.206  28.190  12.871
38881W        W 4108  39.943   0.536  10.762
38882W        W 4109  22.940  34.839  13.056
38883W        W 4110  22.541  41.437  12.158
38884W        W 4111  34.666  22.172   2.288
38885W        W 4112  31.593   2.379   4.577
38886W        W 4113  41.494  37.607  12.886
38887W        W 4114  36.050  18.532  11.661
38888W        W 4115  16.469  28.543   2.967
38889W        W 4116  31.490  11.399  10.622
38890W        W 4117   3.175  14.795  13.972
38891W        W 4118  28.174  44.460   4.194
38892W        W 4119  11.337  30.570   4.662
38893W        W 4120  15.049  22.744  13.422
38894W        W 4121  23.270  41.542   1.280
38895W        W 4122  32.087  31.201   1.633
38896W        W 4123  24.684   3.479  14.856
38897W        W 4124   9.324  28.015   0.500
38898W        W 4125   3.373  22.548   0.274
38899W        W 4126  13.215  23.340  13.566
38900W        W 4127  18.224  22.051  10.735
38901W        W 4128  26.069  15.163  12.470
38902W        W 4129  23.543  13.227  14.457
38903W        W 4130   3.633  16.296   1.334
38904W        W 4131  19.670  20.112   4.096
38905W        W 4132  26.887  27.127  14.875
38906W        W 4133   3.084  27.472  13.269
38907W        W 4134  37.910  17.102   1.244
38908W        W 4135   2.507  17.631  13.994
38909W        W 4136  34.876  30.940   0.879
38910W        W 4137  39.390   6.798   0.193
38911W        W 4138  32.855  13.307  14.876
38912W        W 4139   6.871  32.536   0.450
38913W        W 4140  20.056  34.271  11.177
38914W        W 4141   2.326  11.661  12.543
38915W        W 4142   8.700  24.204  11.151
38916W        W 4143  30.082  36.240  12.934
38917W        W 4144   8.509  12.718   0.668
38918W        W 4145  12.917  21.539  14.538
38919W        W 4146  34.915   7.961  11.535
38920W        W 4147  18.103  43.425   1.905
38921W        W 4148   1.304  23.230  10.719
38922W        W 4149   3.399  23.934  11.552
38923W        W 4150  15.901  32.902  14.446
38924W        W 4151  26.958  26.920   2.789
38925W        W 4152   8.137  31.877   1.117
38926W        W 4153   2.305  27.720  14.836
38927W        W 4154  39.083  40.043  14.749
38928W        W 4155  15.814  39.902   1.679
38929W        W 4156  27.552  25.140   4.544
38930W        W 4157  40.214  26.185  13.503
38931W        W 4158  31.506  16.610  14.293
38932W        W 4159   3.750   5.760  14.064
38933W        W 4160  16.258  36.065  14.501
38934W        W 4161  17.129  34.550  10.765
38935W        W 4162  44.174   7.831  10.376
38936W        W 4163  35.382  15.462   4.584
38937W        W 4164   8.793   9.778   0.000
38938W        W 4165  20.251  28.476   4.524
38939W        W 4166  17.029  41.239   1.175
38940W        W 4167   9.525  10.624   1.800
38941W        W 4168  42.774  16.925  12.889
38942W        W 4169  39.816  31.517  14.811
38943W        W 4170  29.187  24.519  10.955
38944W        W 4171  30.142  22.242   3.666
38945W        W 4172  23.467  26.739  14.853
38946W        W 4173   9.267  18.640  12.886
38947W        W 4174  29.284  15.044   4.760
38948W        W 4175  26.603  13.789   4.154
38949W        W 4176   3.081   1.861  13.022
38950W        W 4177  14.413  44.383   1.359
38951W        W 4178  18.273   3.211   4.526
38952W        W 4179  41.028  30.352   4.670
38953W        W 4180   8.348  17.576  14.436
38954W        W 4181  21.884  34.090  11.209
38955W        W 4182  18.967  21.291  13.406
38956W        W 4183   5.292  15.615  12.465
38957W        W 4184   0.808   4.021  14.081
38958W        W 4185  10.758   3.637   2.734
38959W        W 4186  13.016  41.039  14.467
38960W        W 4187  34.011  21.210  13.242
38961W        W 4188  36.598  42.412   0.847
38962W        W 4189  33.485  29.490  12.515
38963W        W 4190  20.547  12.136  10.661
38964W        W 4191   9.918  39.622   0.626
38965W        W 4192  17.005   1.855  13.506
38966W        W 4193   5.380  10.276  11.526
38967W        W 4194  37.359  19.287   0.494
38968W        W 4195  22.725  44.286  12.072
38969W        W 4196  14.320  43.111   1.683
38970W        W 4197   0.757   7.215  10.655
38971W        W 4198  34.552   6.764  14.304
38972W        W 4199  23.471  39.380   2.846
38973W        W 4200  39.621  41.315  12.138
38974W        W 4201  24.180  30.421  10.382
38975W        W 4202  11.346  43.830  13.346
38976W        W 4203  24.613   2.492  11.569
38977W        W 4204  20.272  43.457   4.243
38978W        W 4205   0.807  24.191  10.508
38979W        W 4206  43.052  32.337   3.575
38980W        W 4207  31.604  42.464   3.249
38981W        W 4208  35.135  21.560  12.868
38982W        W 4209  39.249  39.586   2.251
38983W        W 4210   1.882  41.777  14.363
38984W        W 4211  34.848  31.919   2.283
38985W        W 4212  34.385  10.726  11.635
38986W        W 4213  22.781  42.304   1.458
38987W        W 4214   4.094   4.174  14.456
38988W        W 4215  27.504  31.662   0.835
38989W        W 4216  33.186   6.224  10.276
38990W        W 4217  31.078   0.295  11.066
38991W        W 4218  26.259  20.291  12.759
38992W        W 4219  15.244  28.225   3.741
38993W        W 4220  24.926  17.604  12.915
38994W        W 4221  12.663  26.550  11.590
38995W        W 4222  21.482  23.016  14.498
38996W        W 4223  21.184  36.775   4.919
38997W        W 4224   2.255  16.798   0.365
38998W        W 4225  17.182  33.015  12.224
38999W        W 4226  26.421  38.573   0.975
39000W        W 4227  25.766  38.119  12.054
39001W        W 4228   2.896   0.913   0.755
39002W        W 4229  16.007  14.279   1.921
39003W        W 4230  21.482   5.837  12.935
39004W        W 4231  27.482  13.844  12.087
39005W        W 4232  15.285  24.183  14.854
39006W        W 4233  10.731  44.801   3.119
39007W        W 4234  18.941  18.949  13.471
39008W        W 4235  43.839  43.965   4.130
39009W        W 4236  41.475  30.900  14.464
39010W        W 4237  26.945  39.455  10.329
39011W        W 4238  35.733   1.122   3.653
39012W        W 4239   9.315  35.538   1.120
39013W        W 4240  12.258   8.226  13.759
39014W        W 4241  34.099  33.826  10.702
39015W        W 4242  21.206  39.162   4.607
39016W        W 4243  32.009  24.558   0.047
39017W        W 4244  30.681   1.133   1.667
39018W        W 4245  41.330  21.527  12.063
39019W        W 4246  23.820   4.377   4.004
39020W        W 4247   6.887  44.450  11.206
39021W        W 4248  21.502  36.441  14.778
39022W        W 4249  27.527  22.661  13.335
39023W        W 4250  41.649  18.565   4.019
39024W        W 4251  22.301  24.475  14.397
39025W        W 4252  13.229   9.775  13.127
39026W        W 4253  38.392   8.277  12.011
39027W        W 4254  39.046  15.617  14.888
39028W        W 4255  27.089  26.951   0.354
39029W        W 4256  36.452  17.300   4.545
39030W        W 4257  28.258  10.047   3.605
39031W        W 4258   3.421  27.255   0.775
39032W        W 4259  25.304  11.741   0.595
39033W        W 4260  43.441  38.323   4.381
39034W        W 4261  12.598   7.395   3.277
39035W        W 4262  24.576  35.816  11.550
39036W        W 4263  35.400  23.542  11.196
39037W        W 4264  30.900  16.109  10.982
39038W        W 4265  32.062  24.546  10.754
39039W        W 4266  40.469  43.511  14.070
39040W        W 4267   8.712   8.772   3.085
39041W        W 4268  42.997   6.627   9.676
39042W        W 4269  33.090   8.271   2.674
39043W        W 4270   0.141  20.262  10.712
39044W        W 4271   0.182  18.222   3.168
39045W        W 4272  41.045  33.008   2.538
39046W        W 4273  20.648   7.582  10.384
39047W        W 4274  14.640  23.758   1.928
39048W        W 4275  43.100  22.445  12.636
39049W        W 4276  40.364   8.593  14.833
39050W        W 4277  24.241   8.085  12.122
39051W        W 4278   5.089  39.697  11.004
39052W        W 4279  31.789  35.316   3.243
39053W        W 4280  15.579  13.182  10.734
39054W        W 4281   5.962  23.723   0.562
39055W        W 4282  44.791  34.424   2.149
39056W        W 4283   1.335   1.394  14.416
39057W        W 4284  10.742   7.949   4.720
39058W        W 4285  17.041   9.819   0.739
39059W        W 4286   0.338  24.764  11.520
39060W        W 4287  14.520  21.956  12.548
39061W        W 4288  26.676  35.324  13.839
39062W        W 4289  40.561   5.647   3.361
39063W        W 4290  24.537   7.815  10.788
39064W        W 4291  21.886  32.048  12.741
39065W        W 4292  21.240  28.209   2.363
39066W        W 4293   9.492  31.723   4.981
39067W        W 4294  33.470  36.148  11.459
39068W        W 4295  27.502   0.064   4.252
39069W        W 4296  32.688  21.395  13.901
39070W        W 4297  39.936  11.148   4.234
39071W        W 4298  26.367  14.294   4.209
39072W        W 4299  20.070  43.844   4.530
39073W        W 4300  18.064  37.064   3.608
39074W        W 4301  37.880  39.483   0.935
39075W        W 4302   2.984  41.386   4.639
39076W        W 4303  19.613   5.533   4.693
39077W        W 4304  14.301  33.587  14.921
39078W        W 4305  25.216   8.367  13.395
39079W        W 4306   2.194   0.537  14.852
39080W        W 4307  35.058  42.260  12.925
39081W        W 4308  33.783  18.986  14.924
39082W        W 4309  23.177  34.131  11.348
39083W        W 4310   4.063  32.151  14.364
39084W        W 4311  36.465  10.298  11.276
39085W        W 4312  17.045  35.567   2.097
39086W        W 4313  40.454  40.966   0.593
39087W        W 4314   5.705  34.390  14.330
39088W        W 4315  44.927  18.867   0.750
39089W        W 4316  38.098  28.419  14.385
39090W        W 4317  24.287  20.223  14.320
39091W        W 4318   4.073  13.779   3.845
39092W        W 4319   7.163  18.941  14.166
39093W        W 4320  29.227   0.762   0.800
39094W        W 4321  11.180  20.036   4.064
39095W        W 4322  15.882  25.591   1.759
39096W        W 4323  33.852  29.143   2.648
39097W        W 4324  29.116  29.538   0.630
39098W        W 4325  38.290   3.278   1.315
39099W        W 4326  27.258  40.404  12.879
39100W        W 4327  12.434  34.686   9.917
39101W        W 4328  18.557   4.697   2.780
39102W        W 4329   2.209  36.809  14.113
39103W        W 4330   8.178   8.618   2.355
39104W        W 4331  24.296  35.050  10.426
39105W        W 4332  16.360   8.401   4.131
39106W        W 4333  37.996  15.798  14.047
39107W        W 4334  12.038  10.580   1.726
39108W        W 4335  12.627  36.971   4.118
39109W        W 4336  38.516  29.874  12.924
39110W        W 4337  18.006  27.783   3.655
39111W        W 4338  38.755   6.287   0.361
39112W        W 4339  29.372  43.845  12.393
39113W        W 4340  40.809  15.831   0.363
39114W        W 4341  23.513   8.849  13.569
39115W        W 4342  12.412  13.314   0.260
39116W        W 4343  44.920  33.095  14.856
39117W        W 4344   5.162  16.807   0.489
39118W        W 4345  29.552   5.141   4.805
39119W        W 4346  38.864   8.456  13.993
39120W        W 4347  17.075   8.601  11.200
39121W        W 4348   3.243  38.926  11.712
39122W        W 4349  16.563  12.752  12.990
39123W        W 4350  44.362   7.418  14.666
39124W        W 4351  24.881  28.680   2.771
39125W        W 4352  37.664  38.663   1.912
39126W        W 4353   1.216  19.586   1.410
39127W        W 4354  26.314  27.135  10.603
39128W        W 4355  35.806  33.830   4.239
39129W        W 4356  26.776  44.019   4.238
39130W        W 4357  44.221  23.330   1.828
39131W        W 4358  16.729  43.053  12.874
39132W        W 4359   6.003  22.673   4.827
39133W        W 4360   3.103  24.571   0.718
39134W        W 4361  40.440  11.605  11.144
39135W        W 4362  41.153  14.714  12.012
39136W        W 4363   2.824  16.035  12.419
39137W        W 4364  15.397   4.998  11.593
39138W        W 4365  10.989  14.793   5.573
39139W        W 4366  25.765  43.396   0.362
39140W        W 4367  29.998  16.635   0.882
39141W        W 4368  36.683  35.631   1.799
39142W        W 4369  34.135  16.816  13.937
39143W        W 4370  13.423  20.531  12.147
39144W        W 4371  37.363  33.929   4.691
39145W        W 4372  30.949  33.046  13.534
39146W        W 4373  26.964   1.255   2.969
39147W        W 4374  36.530  15.345   4.057
39148W        W 4375  37.720  34.576  12.838
39149W        W 4376  42.673  25.129   5.184
39150W        W 4377   0.491   6.757   1.389
39151W        W 4378  43.877  28.472   0.812
39152W        W 4379  32.354  25.800  14.548
39153W        W 4380  31.959  11.736  12.459
39154W        W 4381  19.166  30.430   0.328
39155W        W 4382   4.321  31.891  11.672
39156W        W 4383  28.167  41.576  13.916
39157W        W 4384  25.669  39.432   1.340
39158W        W 4385  19.418  10.623  11.593
39159W        W 4386  18.030  23.200  12.923
39160W        W 4387   0.849  13.771   3.534
39161W        W 4388  20.476   3.604   1.231
39162W        W 4389   7.606  20.193  10.772
39163W        W 4390  21.628  12.566   1.749
39164W        W 4391   1.744  38.008  14.860
39165W        W 4392  33.220  29.492   0.244
39166W        W 4393  29.310   3.856   0.290
39167W        W 4394  31.876   8.490  12.399
39168W        W 4395  38.941  25.772  13.034
39169W        W 4396   7.030  25.853   1.763
39170W        W 4397  18.143  13.193  14.336
39171W        W 4398  26.413  24.627  12.358
39172W        W 4399  24.898   8.623   1.270
39173W        W 4400   8.337  20.111   1.914
39174W        W 4401   7.424  44.458   3.253
39175W        W 4402  35.636   0.867  11.151
39176W        W 4403  26.032  18.302  10.736
39177W        W 4404  11.812  38.598  11.578
39178W        W 4405   1.945   5.000  12.924
39179W        W 4406   4.823  44.255   2.250
39180W        W 4407  26.056  32.147  12.032
39181W        W 4408  22.302  15.694   1.183
39182W        W 4409  10.121  39.774   2.800
39183W        W 4410  13.364  28.779  14.159
39184W        W 4411  27.638  12.361  11.113
39185W        W 4412  33.851  23.012   4.436
39186W        W 4413  15.675  36.698   2.636
39187W        W 4414   4.455  27.384  11.121
39188W        W 4415  20.485  28.123   3.281
39189W        W 4416  41.930   7.753  14.372
39190W        W 4417  32.211  20.715  13.384
39191W        W 4418   4.997  29.963  12.137
39192W        W 4419  26.781  12.114   2.226
39193W        W 4420   0.942  21.886   0.226
39194W        W 4421  19.984   8.662   3.381
39195W        W 4422  19.170   2.825   0.304
39196W        W 4423  38.404  20.774  14.923
39197W        W 4424  12.404  31.023   1.981
39198W        W 4425  41.442  14.641  12.427
39199W        W 4426  12.630  32.656  14.950
39200W        W 4427  19.649   9.120   0.111
39201W        W 4428   2.715  19.812  12.535
39202W        W 4429  33.404   7.495  14.019
39203W        W 4430  24.277  15.011  14.046
39204W        W 4431  34.360  29.264  14.007
39205W        W 4432  34.656   1.339  11.996
39206W        W 4433  38.862  34.923   3.266
39207W        W 4434  35.622  32.179   0.863
39208W        W 4435  20.231  19.526   5.195
39209W        W 4436   2.229  17.338   3.366
39210W        W 4437   6.411  31.853   2.117
39211W        W 4438   7.338   1.683  13.545
39212W        W 4439  16.457   8.325  10.649
39213W        W 4440   5.121  23.283  11.746
39214W        W 4441   5.042  42.674  12.525
39215W        W 4442  27.722   6.879   0.240
39216W        W 4443   9.581  14.183  14.538
39217W        W 4444  39.782   5.417   0.965
39218W        W 4445  10.479  40.378   4.956
39219W        W 4446  43.460   3.341   3.417
39220W        W 4447  29.428  19.740  13.897
39221W        W 4448  44.643   0.373   4.135
39222W        W 4449   2.289  34.591  12.103
39223W        W 4450  30.071  38.169   3.144
39224W        W 4451   9.802  21.524   2.177
39225W        W 4452  35.496   1.163   2.018
39226W        W 4453   7.488  10.372  13.554
39227W        W 4454  30.569   7.816  12.890
39228W        W 4455  30.881  35.895  10.956
39229W        W 4456  31.476  23.670   1.659
39230W        W 4457   1.758  32.928  10.657
39231W        W 4458  18.265  27.457  12.601
39232W        W 4459  30.064  41.348   4.427
39233W        W 4460  11.238  37.427  11.222
39234W        W 4461  14.133   6.874   1.198
39235W        W 4462   3.901   8.748  12.030
39236W        W 4463  22.647   3.516  11.128
39237W        W 4464   1.268   7.086  10.691
39238W        W 4465  10.343  19.605  13.945
39239W        W 4466  36.353  24.120   2.479
39240W        W 4467   5.255  36.003   3.192
39241W        W 4468   4.847   4.372   4.071
39242W        W 4469  17.182  24.239   1.225
39243W        W 4470  39.988  37.854   1.826
39244W        W 4471  32.893  14.938  11.220
39245W        W 4472  35.370  10.980  11.430
39246W        W 4473  32.345  44.841   2.181
39247W        W 4474  21.057  19.363   2.719
39248W        W 4475  13.885  44.302   2.921
39249W        W 4476  26.138  17.717   4.676
39250W        W 4477  25.263  30.135  13.833
39251W        W 4478  41.702  16.543  14.274
39252W        W 4479  11.222  17.217   0.917
39253W        W 4480  41.002  37.439  12.723
39254W        W 4481   8.728  31.144   0.740
39255W        W 4482  16.363   2.518  10.682
39256W        W 4483  37.960  24.568   0.412
39257W        W 4484   3.250  21.537  13.095
39258W        W 4485  29.297   5.258  14.393
39259W        W 4486   7.983  40.829  10.362
39260W        W 4487  42.830   6.811   5.388
39261W        W 4488  41.335  11.086   1.371
39262W        W 4489   0.383   1.890  14.477
39263W        W 4490  31.598  43.317  12.373
39264W        W 4491  34.645  28.462  14.064
39265W        W 4492  44.824  42.015  14.464
39266W        W 4493  21.312  35.754   2.802
39267W        W 4494  42.343  40.815   3.888
39268W        W 4495  32.873  25.167  10.165
39269W        W 4496  13.693  20.789  10.428
39270W        W 4497   0.771   3.934   4.587
39271W        W 4498  31.394   3.989   0.552
39272W        W 4499  31.600   8.168   2.302
39273W        W 4500  28.648  17.327   3.710
39274W        W 4501  34.216  33.602  11.336
39275W        W 4502  13.639  27.167  12.979
39276W        W 4503  36.396  11.928   0.176
39277W        W 4504  35.351  26.667   4.217
39278W        W 4505  26.738  14.262   0.772
39279W        W 4506   9.506  19.162   9.986
39280W        W 4507  13.807   1.609   2.709
39281W        W 4508  22.025  33.531   3.895
39282W        W 4509   3.654  37.937  13.750
39283W        W 4510  18.724  13.662   1.303
39284W        W 4511   3.437  37.361  10.417
39285W        W 4512  44.391  23.939  13.247
39286W        W 4513  18.231  36.131  12.533
39287W        W 4514  39.754   5.916   2.741
39288W        W 4515  44.832  14.680  13.444
39289W        W 4516  15.176   1.680  11.196
39290W        W 4517  26.009   5.992   4.165
39291W        W 4518  31.473  12.163   3.133
39292W        W 4519  20.822   0.739   0.767
39293W        W 4520  28.005  26.467   1.324
39294W        W 4521  13.312   9.958  14.444
39295W        W 4522   3.450  44.749  13.854
39296W        W 4523   5.799  13.011  14.076
39297W        W 4524   0.983   8.597   0.947
39298W        W 4525  40.066  40.525  14.079
39299W        W 4526  14.196  16.914   3.565
39300W        W 4527   7.674  22.485  10.447
39301W        W 4528  15.716  27.403   2.847
39302W        W 4529  24.003   3.983  10.404
39303W        W 4530  42.330  32.016  13.337
39304W        W 4531  40.433   5.217  14.256
39305W        W 4532   6.627   7.870  11.886
39306W        W 4533  28.952  32.058  12.019
39307W        W 4534  31.538  13.683  10.315
39308W        W 4535   2.682  24.166  14.872
39309W        W 4536   6.945  14.146  13.041
39310W        W 4537  22.215  27.532   4.127
39311W        W 4538  19.254  19.236   0.781
39312W        W 4539   5.232  29.996  13.080
39313W        W 4540  16.217  33.924  10.592
39314W        W 4541  28.588  26.588  10.499
39315W        W 4542  36.166  35.610   1.829
39316W        W 4543   2.714   0.340  12.210
39317W        W 4544  15.785  14.972   1.229
39318W        W 4545   2.650  26.475  14.837
39319W        W 4546  37.657  38.445   4.174
39320W        W 4547  42.699  31.699   4.278
39321W        W 4548   9.874  38.443  14.553
39322W        W 4549   9.848  23.815   0.539
39323W        W 4550  37.916   1.664   2.206
39324W        W 4551   1.542  25.781   5.356
39325W        W 4552   2.513   9.149   2.381
39326W        W 4553   2.217  36.484   2.383
39327W        W 4554   5.105   5.850   2.229
39328W        W 4555  38.525  40.289   4.327
39329W        W 4556  37.075   5.597  11.973
39330W        W 4557  36.359   3.779   3.130
39331W        W 4558  15.912  18.639   0.159
39332W        W 4559  22.103   0.030  13.324
39333W        W 4560  31.255  22.267  10.369
39334W        W 4561  40.928  15.688   2.145
39335W        W 4562  34.421  42.650   0.368
39336W        W 4563   9.590  44.767   3.776
39337W        W 4564  44.909  16.657   3.163
39338W        W 4565  33.239  40.510   3.307
39339W        W 4566  38.785  15.149  14.841
39340W        W 4567  15.692  18.689   3.382
39341W        W 4568  26.532  18.466  10.793
39342W        W 4569  31.988   9.701  11.014
39343W        W 4570  16.514  41.177   1.163
39344W        W 4571  23.939   4.485   3.117
39345W        W 4572  30.534  29.545  13.617
39346W        W 4573  44.715  10.262   4.315
39347W        W 4574  21.962  24.627   2.672
39348W        W 4575  30.062   0.922   3.126
39349W        W 4576   0.373   7.010   0.031
39350W        W 4577  10.812   4.496   9.945
39351W        W 4578   6.988   8.494   2.786
39352W        W 4579  13.640  31.016  14.386
39353W        W 4580  13.125  13.400  10.656
39354W        W 4581  25.528  23.270   0.768
39355W        W 4582  27.752  16.765  13.737
39356W        W 4583   5.768  29.500  14.219
39357W        W 4584  43.965  16.201  12.407
39358W        W 4585  27.619   2.144   2.267
39359W        W 4586  39.356   8.333   3.999
39360W        W 4587  12.538  18.554   1.828
39361W        W 4588   4.725  12.416   3.967
39362W        W 4589  38.075  29.003   2.982
39363W        W 4590   6.571  22.514   0.019
39364W        W 4591  32.092  15.776   2.353
39365W        W 4592   3.372  44.125  10.666
39366W        W 4593  33.483  36.387  14.445
39367W        W 4594  28.912  21.393   4.054
39368W        W 4595  18.332  34.512   1.669
39369W        W 4596  23.432  21.400   0.952
39370W        W 4597  39.503  39.549  13.109
39371W        W 4598   6.293   3.415  11.616
39372W        W 4599  37.820  19.661  11.502
39373W        W 4600  37.913   1.279   3.294
39374W        W 4601   4.870  44.980  10.646
39375W        W 4602   1.835   7.628   0.759
39376W        W 4603  18.845  37.834   0.306
39377W        W 4604  16.765   1.314  10.746
39378W        W 4605  12.111   1.537   2.316
39379W        W 4606   0.976  28.407   3.061
39380W        W 4607  20.618  13.692   0.967
39381W        W 4608  10.278  12.504   4.659
39382W        W 4609  20.207   1.361  13.602
39383W        W 4610   9.667  18.845   0.804
39384W        W 4611  30.381  11.466  14.065
39385W        W 4612  17.204  40.428   4.019
39386W        W 4613  13.839  30.586  12.023
39387W        W 4614   0.972   6.919   2.344
39388W        W 4615  39.824   9.673  14.317
39389W        W 4616  35.159  35.703   3.370
39390W        W 4617  14.222  29.394  11.524
39391W        W 4618  28.346  37.312  12.647
39392W        W 4619  44.080  35.065   3.547
39393W        W 4620  10.404  23.958   1.820
39394W        W 4621  18.706  23.661  10.618
39395W        W 4622  37.838  42.339  14.574
39396W        W 4623  23.630  21.285   1.403
39397W        W 4624   9.694  37.459   0.809
39398W        W 4625   3.169  43.963   1.279
39399W        W 4626  41.451  36.335  11.419
39400W        W 4627  34.061  44.268   2.685
39401W        W 4628   4.211  37.317   0.392
39402W        W 4629   5.843  32.493  13.369
39403W        W 4630  22.276  14.298   2.812
39404W        W 4631  40.871  35.895   3.795
39405W        W 4632  26.288  12.277   2.330
39406W        W 4633  10.243  13.855  11.998
39407W        W 4634   1.248  32.153  10.682
39408W        W 4635  15.512   1.513  14.716
39409W        W 4636  14.740   7.925   1.808
39410W        W 4637  30.177  41.512   3.609
39411W        W 4638  37.780   6.386   3.491
39412W        W 4639  19.655  37.268   0.833
39413W        W 4640   9.359  28.495  12.520
39414W        W 4641  21.509  24.679   0.333
39415W        W 4642   0.078  14.333  12.359
39416W        W 4643  36.365  24.257  13.532
39417W        W 4644  25.567  24.444  13.146
39418W        W 4645  27.851   9.442  10.761
39419W        W 4646  15.049  26.492   3.232
39420W        W 4647  38.987  41.783  12.975
39421W        W 4648  28.230   3.520  11.495
39422W        W 4649  13.467  35.123   3.288
39423W        W 4650  36.506   1.015   0.702
39424W        W 4651  32.566  40.257  12.349
39425W        W 4652  22.819  22.934   3.856
39426W        W 4653   2.174  28.573  12.439
39427W        W 4654  44.478  38.030  11.148
39428W        W 4655  36.163  40.812   4.046
39429W        W 4656   6.743  42.803   5.114
39430W        W 4657   9.858  19.055   3.095
39431W        W 4658  17.143  29.817   4.675
39432W        W 4659  15.256   0.331  12.472
39433W        W 4660   7.932  20.122   1.166
39434W        W 4661  15.569  10.798   2.788
39435W        W 4662  42.194  38.461   4.527
39436W        W 4663  15.386  17.724  11.477
39437W        W 4664  33.470  32.453  13.866
39438W        W 4665   6.222  26.285  12.425
39439W        W 4666  38.282   6.142   0.193
39440W        W 4667  28.665  11.388   2.355
39441W        W 4668  25.515   6.384  13.254
39442W        W 4669  29.769  21.242   3.718
39443W        W 4670  38.306  24.195   0.248
39444W        W 4671   2.874  28.112  14.098
39445W        W 4672  17.319   6.125   2.809
39446W        W 4673   5.466  23.426  13.479
39447W        W 4674  30.554  20.020  11.170
39448W        W 4675  16.760  21.024  12.012
39449W        W 4676  41.582  27.018  11.916
39450W        W 4677  36.521  13.043   0.339
39451W        W 4678  15.611   5.512   4.416
39452W        W 4679  42.453  13.012  13.308
39453W        W 4680  41.025  44.850  12.431
39454W        W 4681   5.571  30.598  13.312
39455W        W 4682  39.645   8.414   3.574
39456W        W 4683   7.392  41.391  13.761
39457W        W 4684  40.160  15.684   2.762
39458W        W 4685  24.760   7.290   0.299
39459W        W 4686  29.117  40.027   1.103
39460W        W 4687  37.584  37.128   3.190
39461W        W 4688  30.925  34.809   4.028
39462W        W 4689  15.891  27.659   4.209
39463W        W 4690  18.516   0.683  12.948
39464W        W 4691  43.660  30.090   1.572
39465W        W 4692   9.664   9.425  11.631
39466W        W 4693   9.347  34.406  11.193
39467W        W 4694  40.058  20.527  11.200
39468W        W 4695  12.385  16.301   2.660
39469W        W 4696   4.762  20.840  14.936
39470W        W 4697  19.354  28.058  14.008
39471W        W 4698   5.967  31.602   2.273
39472W        W 4699   1.143  18.856   4.487
39473W        W 4700  17.611  26.818   3.580
39474W        W 4701  25.724   9.896   0.394
39475W        W 4702   2.823  38.746  11.389
39476W        W 4703  16.515   1.392   3.353
39477W        W 4704  20.166  11.741   2.780
39478W        W 4705  43.845   9.411  12.582
39479W        W 4706  12.731  42.267  10.686
39480W        W 4707  18.807  26.475   1.331
39481W        W 4708  28.023  38.094   3.165
39482W        W 4709  16.128  21.117   1.622
39483W        W 4710  13.532  42.871   1.512
39484W        W 4711  40.326  27.635  14.570
39485W        W 4712   7.773   3.722  14.877
39486W        W 4713  31.743   6.335   2.766
39487W        W 4714  23.690  17.111   2.251
39488W        W 4715  21.046  36.492   4.520
39489W        W 4716  25.604  21.611   4.098
39490W        W 4717  36.614  30.373   3.682
39491W        W 4718   5.327  13.087   2.424
39492W        W 4719  27.066  39.785  12.287
39493W        W 4720  30.952  18.720  14.068
39494W        W 4721   4.881   1.874   4.157
39495W        W 4722  39.771  20.362   3.699
39496W        W 4723  28.121  40.806  10.727
39497W        W 4724  27.082   7.213  10.468
39498W        W 4725   8.541  15.679  14.005
39499W        W 4726  37.444  32.086  11.565
39500W        W 4727  10.287  38.726   9.931
39501W        W 4728  31.557  19.250   2.678
39502W        W 4729  21.468   0.484  12.861
39503W        W 4730   6.244  43.730   1.965
39504W        W 4731   4.236  32.458   0.456
39505W        W 4732  22.626  37.375   9.963
39506W        W 4733   2.396  33.083   1.036
39507W        W 4734   9.117  23.382  11.144
39508W        W 4735   6.267  31.940  10.308
39509W        W 4736  18.150  12.313   2.957
39510W        W 4737  43.023   8.226   3.072
39511W        W 4738  25.459  32.382  12.037
39512W        W 4739  23.609   8.060   1.842
39513W        W 4740  15.701  22.989  11.233
39514W        W 4741  16.554  27.198   4.138
39515W        W 4742  40.395   2.707   0.347
39516W        W 4743  44.379   6.339   1.732
39517W        W 4744  30.722  20.708   2.355
39518W        W 4745  15.287  14.648   2.371
39519W        W 4746   5.053  40.150   1.388
39520W        W 4747   6.994   0.300  12.393
39521W        W 4748  11.855  42.098   3.115
39522W        W 4749  18.531   8.442  10.825
39523W        W 4750  15.348  33.077   0.833
39524W        W 4751   0.458   6.842   2.241
39525W        W 4752  29.390  37.438  11.208
39526W        W 4753  30.231  20.187   4.393
39527W        W 4754   6.014  41.334   0.813
39528W        W 4755   7.707   9.414   1.732
39529W        W 4756  33.921  27.945  13.963
39530W        W 4757  14.457   8.383   2.766
39531W        W 4758   8.442  13.958   1.213
39532W        W 4759  36.585  28.080  12.600
39533W        W 4760  35.973  30.888   1.189
39534W        W 4761   5.877  31.034   1.499
39535W        W 4762  37.742  14.630   1.354
39536W        W 4763   0.701  10.268   1.766
39537W        W 4764  25.394  20.799   4.837
39538W        W 4765  32.129  40.232  12.661
39539W        W 4766  13.674  10.268   2.679
39540W        W 4767  27.737  26.525  12.023
39541W        W 4768  22.799   7.247  11.064
39542W        W 4769  31.401  17.060   2.169
39543W        W 4770   9.191  10.861   4.403
39544W        W 4771   5.363  34.113   2.603
39545W        W 4772   5.185   3.206   3.382
39546W        W 4773  18.212  30.648  13.439
39547W        W 4774  42.377  31.939   2.726
39548W        W 4775   8.074  23.728  13.987
39549W        W 4776   3.415  35.401  13.696
39550W        W 4777  12.145   2.607   0.560
39551W        W 4778  24.382  10.976   2.802
39552W        W 4779  37.048   1.535   2.264
39553W        W 4780  27.628  22.134   3.338
39554W        W 4781  13.936  33.454  11.164
39555W        W 4782  17.569  20.872   1.257
39556W        W 4783  44.952  15.489  11.144
39557W        W 4784   3.749  12.138  14.126
39558W        W 4785  12.171  26.036  11.675
39559W        W 4786  33.513  24.622  12.031
39560W        W 4787  19.513  33.153   1.939
39561W        W 4788   4.849  12.294  10.984
39562W        W 4789   2.247   6.209   1.395
39563W        W 4790  13.154  21.474  11.262
39564W        W 4791  23.777   4.788  13.432
39565W        W 4792  17.262  20.029   0.627
39566W        W 4793  32.087   0.202  13.543
39567W        W 4794  44.988  40.386   1.404
39568W        W 4795   6.738  13.672   3.794
39569W        W 4796  44.333   3.754   2.737
39570W        W 4797  31.934   4.926   4.286
39571W        W 4798  26.373  20.200   4.530
39572W        W 4799   6.005  32.120   2.302
39573W        W 4800  31.578   9.296  11.538
39574W        W 4801  14.846  19.649  10.836
39575W        W 4802  29.013  17.966   1.495
39576W        W 4803  15.266  39.021  12.932
39577W        W 4804  38.806  17.860  13.156
39578W        W 4805  14.027   5.421   1.415
39579W        W 4806   5.320  13.458  12.026
39580W        W 4807  42.349  42.293   0.311
39581W        W 4808   8.739   5.352   4.523
39582W        W 4809  36.115  15.766  11.680
39583W        W 4810   7.645   5.239   5.040
39584W        W 4811  34.934  12.311  12.115
39585W        W 4812   5.920  28.560   2.863
39586W        W 4813  26.302  36.841   4.093
39587W        W 4814  32.812  37.636  11.722
39588W        W 4815   8.737  39.351   1.821
39589W        W 4816  19.074  26.924  10.744
39590W        W 4817  15.908  17.294   4.275
39591W        W 4818  26.370   2.733   3.349
39592W        W 4819   6.273  26.140   3.322
39593W        W 4820  21.611  22.766   1.393
39594W        W 4821  13.699  17.700   4.541
39595W        W 4822  19.218  24.468   2.691
39596W        W 4823   9.209  13.398  12.959
39597W        W 4824  10.265   4.951  11.517
39598W        W 4825  32.014  43.777  11.485
39599W        W 4826   9.943  18.998  13.433
39600W        W 4827  16.860  11.628  14.118
39601W        W 4828  25.535  16.201   3.266
39602W        W 4829  36.116  21.582  14.861
39603W        W 4830  38.820  35.455   3.129
39604W        W 4831  39.377  41.005  13.624
39605W        W 4832  40.126  37.618   3.676
39606W        W 4833  12.617   1.392  12.549
39607W        W 4834  41.545  19.318  12.770
39608W        W 4835  10.613  43.986   3.870
39609W        W 4836   8.655  30.231   4.020
39610W        W 4837  33.096  40.739  12.853
39611W        W 4838  38.311   4.850  12.112
39612W        W 4839  26.178  13.365  12.920
39613W        W 4840  39.803  44.356  10.712
39614W        W 4841  40.456  44.794   4.570
39615W        W 4842   5.246  17.127   2.180
39616W        W 4843  28.151  42.023   4.546
39617W        W 4844  30.713  43.921  14.530
39618W        W 4845  41.926  14.440   2.206
39619W        W 4846  40.849  24.683   4.106
39620W        W 4847  38.932   6.257  14.278
39621W        W 4848  31.671   7.673   2.287
39622W        W 4849  29.632  10.631   4.427
39623W        W 4850  40.212  39.151  12.430
39624W        W 4851   1.984  27.612   3.119
39625W        W 4852  26.566  12.533  12.947
39626W        W 4853  41.724  26.098  13.954
39627W        W 4854  29.315  14.458  10.679
39628W        W 4855  29.071   4.506   4.487
39629W        W 4856   8.972  22.804   3.675
39630W        W 4857  37.580  30.994  12.597
39631W        W 4858  14.008  40.719   1.846
39632W        W 4859   2.686  44.694   1.871
39633W        W 4860  37.699  35.595  11.122
39634W        W 4861  30.384  22.182  11.571
39635W        W 4862  20.393  22.631  10.315
39636W        W 4863  14.258   6.405  12.396
39637W        W 4864  12.144  30.923   2.432
39638W        W 4865  16.618  37.022  10.575
39639W        W 4866  10.588  24.931   1.794
39640W        W 4867  16.588  38.927   4.037
39641W        W 4868  26.753  15.795  14.026
39642W        W 4869  11.745  31.057  13.229
39643W        W 4870  39.891   7.083   4.167
39644W        W 4871  34.823  16.249  10.017
39645W        W 4872   4.971   5.322   2.267
39646W        W 4873  11.627  28.944  12.552
39647W        W 4874   6.094   4.773  10.456
39648W        W 4875  19.829  33.060  12.944
39649W        W 4876  33.830  22.048   0.551
39650W        W 4877  27.887  42.028   0.437
39651W        W 4878  27.147  16.869   1.499
39652W        W 4879  20.256  20.532   2.815
39653W        W 4880  40.697  22.979  12.559
39654W        W 4881   8.638  36.341   4.645
39655W        W 4882  29.603  31.062   4.318
39656W        W 4883  42.262  25.086   1.681
39657W        W 4884  24.083  13.342  10.766
39658W        W 4885   0.434  18.243  12.509
39659W        W 4886  17.561   7.844  12.543
39660W        W 4887  11.231  32.989   0.000
39661W        W 4888   0.470   7.701   0.339
39662W        W 4889  42.248  22.833   3.138
39663W        W 4890  42.342  11.202   0.150
39664W        W 4891  24.143  37.906   3.833
39665W        W 4892  28.107  39.687  11.529
39666W        W 4893  18.020  23.766  14.811
39667W        W 4894  39.272  43.853   1.345
39668W        W 4895  43.552  30.900  14.205
39669W        W 4896  26.115  18.253  14.292
39670W        W 4897  38.852  24.752   4.056
39671W        W 4898  44.903  41.744  11.182
39672W        W 4899   6.292  10.875   0.005
39673W        W 4900  32.462   6.626  11.315
39674W        W 4901  41.638  17.007  11.872
39675W        W 4902  15.816  25.179  12.480
39676W        W 4903  37.560  18.178   0.988
39677W        W 4904  39.916  34.276   2.316
39678W        W 4905  40.418  22.467  14.790
39679W        W 4906  28.103   9.053  11.671
39680W        W 4907  26.403  17.592  12.394
39681W        W 4908   5.639  24.061  14.866
39682W        W 4909  28.972  10.818  10.659
39683W        W 4910   4.339  26.086  13.162
39684W        W 4911  25.977  31.962   4.446
39685W        W 4912  37.045  17.827  12.883
39686W        W 4913  42.305   5.328   4.107
39687W        W 4914  20.813  10.110   3.065
39688W        W 4915  10.138  39.833   1.437
39689W        W 4916  44.716  12.487  13.984
39690W        W 4917  33.789  16.830   3.533
39691W        W 4918  30.925  38.896   0.965
39692W        W 4919  31.338  10.548   4.860
39693W        W 4920  43.482  24.216  12.309
39694W        W 4921  33.497  15.718  11.300
39695W        W 4922   9.512  20.314  14.364
39696W        W 4923  34.674  23.685   0.734
39697W        W 4924  33.496  13.519   5.257
39698W        W 4925  12.566  44.542   2.000
39699W        W 4926  29.497  38.672   2.642
39700W        W 4927  11.381  37.540   1.657
39701W        W 4928   7.832  34.437  12.577
39702W        W 4929  25.890  25.407  12.865
39703W        W 4930  43.093  15.543   0.251
39704W        W 4931  22.358  16.542   0.416
39705W        W 4932  27.924   3.573   0.128
39706W        W 4933  10.694  27.790   0.339
39707W        W 4934   8.709  33.436   4.661
39708W        W 4935  12.289  34.105   0.247
39709W        W 4936  18.015  14.578   0.045
39710W        W 4937  36.305  16.610   2.807
39711W        W 4938   2.325   0.505   4.479
39712W        W 4939  14.751  30.015   4.236
39713W        W 4940  18.787  11.456  10.771
39714W        W 4941   0.741  23.741   3.671
39715W        W 4942  13.890  11.121  14.935
39716W        W 4943   7.901  34.155  10.653
39717W        W 4944  30.801  18.821   4.164
39718W        W 4945  39.072  10.697   1.885
39719W        W 4946  38.150  10.752  14.861
39720W        W 4947  18.705  44.661   0.318
39721W        W 4948  35.622   5.337   1.220
39722W        W 4949  28.118  25.631   0.634
39723W        W 4950  15.348  44.929  14.432
39724W        W 4951  22.622  36.676  10.644
39725W        W 4952  42.106  11.098  11.690
39726W        W 4953  12.052  17.514  11.565
39727W        W 4954  33.792  25.677   1.294
39728W        W 4955  40.283  34.951  13.631
39729W        W 4956  27.111  16.297  13.400
39730W        W 4957  19.350  18.741  14.539
39731W        W 4958  15.890  26.758   0.560
39732W        W 4959  26.003  18.190  12.378
39733W        W 4960   4.467   4.325   2.926
39734W        W 4961  32.762   3.823  10.999
39735W        W 4962  36.288   5.805  10.804
39736W        W 4963  29.548  16.948  14.365
39737W        W 4964  18.930   0.959  11.208
39738W        W 4965  29.771  24.078  14.768
39739W        W 4966  37.980   9.371  12.661
39740W        W 4967   1.373  11.620  14.905
39741W        W 4968  13.236  20.126   1.376
39742W        W 4969  23.176   9.329  10.719
39743W        W 4970  13.564   6.053  11.208
39744W        W 4971  15.794  15.501   2.111
39745W        W 4972  41.920  26.851  11.535
39746W        W 4973  36.702  14.369   9.869
39747W        W 4974  23.098   4.460  14.462
39748W        W 4975   4.242  33.890  14.055
39749W        W 4976  17.588  29.053   3.658
39750W        W 4977  44.011  22.026  14.365
39751W        W 4978  31.261   0.481   3.681
39752W        W 4979  32.668  11.283  13.341
39753W        W 4980  39.978  29.944  13.646
39754W        W 4981  39.383  43.456   2.842
39755W        W 4982  37.007  37.506  10.888
39756W        W 4983  29.185  36.807   4.083
39757W        W 4984  25.324  20.700   1.789
39758W        W 4985   2.898  44.822  13.366
39759W        W 4986  38.458   6.881   0.700
39760W        W 4987   0.058  11.185  13.962
39761W        W 4988  28.455  12.660   4.969
39762W        W 4989  26.574  10.449   1.896
39763W        W 4990  10.872  22.907  14.052
39764W        W 4991  10.850  14.104   0.375
39765W        W 4992  35.165   3.011   5.058
39766W        W 4993  12.305   8.927   3.834
39767W        W 4994  14.614  35.158  12.065
39768W        W 4995  25.432  17.676  13.025
39769W        W 4996  33.345  40.865  13.766
39770W        W 4997  33.525   7.887  10.714
39771W        W 4998  16.552  42.208   4.389
39772W        W 4999  24.068  44.772   9.839
39773W        W 5000  34.848  42.963   1.847
39774W        W 5001  28.139  31.121   2.344
39775W        W 5002   8.769  38.314   1.815
39776W        W 5003  16.773  17.277  12.883
39777W        W 5004  28.175  32.872  11.953
39778W        W 5005  41.857  22.151   4.293
39779W        W 5006   8.854  36.027  12.906
39780W        W 5007  22.768  17.670   4.537
39781W        W 5008  35.792  26.634  14.602
39782W        W 5009  22.237  41.544  11.092
39783W        W 5010  43.183  37.744  11.575
39784W        W 5011  19.371  10.134  10.595
39785W        W 5012  23.096  44.505  13.704
39786W        W 5013  16.803  13.149   4.041
39787W        W 5014   6.413   1.009   0.876
39788W        W 5015  16.884   4.531   1.211
39789W        W 5016  23.051  15.219  11.468
39790W        W 5017  32.416  44.522  12.935
39791W        W 5018  31.165   8.901  10.762
39792W        W 5019  15.875  13.271  13.030
39793W        W 5020  21.587  11.715   4.595
39794W        W 5021  11.088  27.149   3.168
39795W        W 5022  18.197   9.609  13.822
39796W        W 5023  38.753   4.513   5.397
39797W        W 5024  29.539   9.605   4.565
39798W        W 5025   8.079  26.906  11.757
39799W        W 5026  15.609  36.766  14.417
39800W        W 5027   1.823  35.846   0.727
39801W        W 5028  10.149  40.781  12.509
39802W        W 5029  44.649   9.855  14.721
39803W        W 5030  16.393  35.160   4.108
39804W        W 5031  12.227  15.349  13.621
39805W        W 5032  40.878  33.323  14.038
39806W        W 5033  18.736  39.254   0.484
39807W        W 5034  29.160   7.906  11.229
39808W        W 5035  39.564  29.136   3.672
39809W        W 5036   8.759   4.215  10.613
39810W        W 5037  21.018  14.581  12.007
39811W        W 5038  19.468  34.959  13.383
39812W        W 5039   8.419  26.008   1.697
39813W        W 5040  13.806  19.949   4.189
39814W        W 5041  29.121  42.864   3.654
39815W        W 5042   1.972  30.608   2.351
39816W        W 5043  23.601  11.173  11.718
39817W        W 5044  18.440   1.506   2.726
39818W        W 5045  31.310  14.817   4.949
39819W        W 5046  21.898  31.930   2.587
39820W        W 5047  38.327  34.872   4.640
39821W        W 5048  13.846  30.428   0.071
39822W        W 5049  41.248  16.176   3.764
39823W        W 5050  37.774  41.527   2.871
39824W        W 5051  38.378  26.665   4.438
39825W        W 5052   7.186  40.088   0.762
39826W        W 5053  11.145  25.825  12.990
39827W        W 5054  11.176  30.516  13.537
39828W        W 5055  30.558  13.826   1.518
39829W        W 5056   1.243  26.439  11.068
39830W        W 5057  25.103  30.739   0.366
39831W        W 5058   0.481  42.563   1.741
39832W        W 5059  44.245  34.775   4.538
39833W        W 5060  28.875  22.151  13.051
39834W        W 5061  19.725  42.665  11.019
39835W        W 5062  39.298  26.552   1.391
39836W        W 5063  18.212  36.118   4.617
39837W        W 5064  31.120  22.708   4.013
39838W        W 5065  43.415  40.637   0.726
39839W        W 5066  30.594  42.858   0.291
39840W        W 5067  17.813  24.204  14.695
39841W        W 5068  10.041   0.390   1.890
39842W        W 5069  31.001  25.684  10.154
39843W        W 5070  19.804  39.576  14.289
39844W        W 5071  25.024   4.524  14.189
39845W        W 5072   0.324  44.081  11.137
39846W        W 5073   5.160  15.153  11.622
39847W        W 5074  33.115   8.583  10.528
39848W        W 5075  19.608   1.370   1.900
39849W        W 5076   3.457  36.747   0.961
39850W        W 5077  15.964   5.398   1.141
39851W        W 5078   6.942  21.498  13.882
39852W        W 5079  42.414   3.250  14.812
39853W        W 5080   4.068   3.134  10.730
39854W        W 5081  27.657   1.750   3.773
39855W        W 5082   2.638  35.917  13.522
39856W        W 5083  11.900  19.377  13.159
39857W        W 5084  10.335  20.569   1.805
39858W        W 5085  26.944  33.587   2.182
39859W        W 5086  20.247  29.876  12.589
39860W        W 5087  25.133   7.010   4.108
39861W        W 5088  34.778  36.272  10.060
39862W        W 5089  25.485  38.048  11.606
39863W        W 5090  28.552  19.650   0.663
39864W        W 5091  12.103  43.488   3.800
39865W        W 5092   3.653  33.336  11.679
39866W        W 5093   5.919  35.525  11.166
39867W        W 5094  12.664   5.198  11.480
39868W        W 5095  13.242  13.360  14.562
39869W        W 5096   3.756  29.529  11.620
39870W        W 5097  37.996   8.289   2.195
39871W        W 5098  11.617  13.291  12.348
39872W        W 5099   8.668   5.974   0.281
39873W        W 5100   4.977  43.886   9.985
39874W        W 5101  39.052  20.571  10.895
39875W        W 5102  24.584  11.154   0.914
39876W        W 5103  25.593  17.796   4.587
39877W        W 5104  16.198  21.593   3.069
39878W        W 5105   7.281   0.497   4.031
39879W        W 5106  39.562  27.945  13.472
39880W        W 5107   1.783   6.267   0.454
39881W        W 5108   4.376   7.261   4.605
39882W        W 5109  34.634   0.470   1.185
39883W        W 5110  13.625  14.335   4.149
39884W        W 5111   6.961   9.005   2.883
39885W        W 5112  29.387  33.154   0.010
39886W        W 5113   3.300  43.418  14.527
39887W        W 5114  42.859  18.039  11.126
39888W        W 5115   1.390  28.349   4.332
39889W        W 5116  29.863  22.134  14.100
39890W        W 5117  35.042  24.282  14.604
39891W        W 5118  33.404  10.650   3.213
39892W        W 5119  21.664  13.716  14.419
39893W        W 5120  16.033   9.443  13.315
39894W        W 5121   6.802  32.886  13.423
39895W        W 5122  38.976  31.618   4.588
39896W        W 5123  40.905  37.314   4.991
39897W        W 5124  29.953  19.564   0.039
39898W        W 5125  20.366  23.613  13.881
39899W        W 5126  31.389  38.837  13.612
39900W        W 5127  25.910   0.348   2.777
39901W        W 5128  10.991   2.222  11.325
39902W        W 5129  16.031  12.917   0.774
39903W        W 5130   0.425   2.993   3.914
39904W        W 5131  33.390  14.179   0.027
39905W        W 5132   9.436  30.543  12.498
39906W        W 5133   6.531  18.453   4.029
39907W        W 5134  40.569  30.338   0.894
39908W        W 5135   2.364  11.404  13.484
39909W        W 5136  16.239  22.806  11.210
39910W        W 5137  40.418  33.846  12.565
39911W        W 5138   8.852  33.500  11.182
39912W        W 5139  21.415  32.096  12.562
39913W        W 5140  33.335  21.520   4.295
39914W        W 5141   5.327  12.016   1.802
39915W        W 5142  35.442  28.957  13.140
39916W        W 5143  12.130  35.538   1.406
39917W        W 5144  19.318   0.754  12.516
39918W        W 5145  26.972   3.654   4.497
39919W        W 5146  30.054  30.762   0.295
39920W        W 5147  44.005  21.510   1.238
39921W        W 5148   3.154   3.665  12.328
39922W        W 5149  39.584  28.573   2.019
39923W        W 5150  19.642   1.392   4.731
39924W        W 5151  30.148  33.954   2.242
39925W        W 5152  36.267  25.211  14.536
39926W        W 5153   4.166  24.140   1.436
39927W        W 5154  32.059  27.013  14.944
39928W        W 5155  11.359  17.267  13.928
39929W        W 5156   6.240  32.277   1.259
39930W        W 5157  33.477  20.716  11.047
39931W        W 5158  13.624   3.185  12.561
39932W        W 5159  40.778  10.769   3.139
39933W        W 5160  42.980   6.916   2.332
39934W        W 5161   6.468  25.921  12.675
39935W        W 5162  37.298  12.414   2.297
39936W        W 5163  21.580  22.303  12.911
39937W        W 5164  38.263  41.292   0.676
39938W        W 5165  41.747   7.761  10.782
39939W        W 5166   2.382  18.293   3.755
39940W        W 5167   9.787  22.615  11.560
39941W        W 5168  25.710  42.832  13.623
39942W        W 5169  29.833  14.602  12.114
39943W        W 5170  13.136  44.244   4.808
39944W        W 5171   5.124   5.979   3.429
39945W        W 5172  23.965  38.471   4.423
39946W        W 5173  10.693   2.496   1.259
39947W        W 5174   2.988  22.585   1.787
39948W        W 5175   6.917  26.907   1.484
39949W        W 5176  19.661  24.149  14.242
39950W        W 5177   8.350  29.131   0.292
39951W        W 5178  10.103  15.592   0.868
39952W        W 5179   4.996  35.818   1.835
39953W        W 5180  26.797  39.361  12.159
39954W        W 5181  12.016  30.759   1.383
39955W        W 5182  22.219  43.526  13.471
39956W        W 5183  20.275  35.379  13.354
39957W        W 5184   0.470  41.563  14.781
39958W        W 5185  35.690  10.580  11.167
39959W        W 5186   3.033  24.363  13.072
39960W        W 5187  32.432  44.812   1.312
39961W        W 5188  18.901  17.526  11.522
39962W        W 5189  15.149  41.720  11.937
39963W        W 5190  29.651  28.944   0.358
39964W        W 5191  39.113  41.676   0.699
39965W        W 5192  37.600  12.682   1.996
39966W        W 5193   7.166  21.761   0.301
39967W        W 5194  11.733  12.351  11.952
39968W        W 5195  17.665  41.869   1.369
39969W        W 5196  24.064  17.237   3.729
39970W        W 5197  10.609  14.307  14.826
39971W        W 5198   1.910   0.737   3.575
39972W        W 5199  27.429  17.714   0.833
39973W        W 5200   3.233   8.405   0.013
39974W        W 5201  36.790   1.290  11.260
39975W        W 5202  25.767  22.594   4.284
39976W        W 5203  35.958  16.529   2.282
39977W        W 5204  43.451  42.560  12.180
39978W        W 5205  15.612  16.376   0.797
39979W        W 5206   1.990  18.341   0.333
39980W        W 5207   4.765   5.758   1.838
39981W        W 5208   1.950  13.402  10.718
39982W        W 5209  25.998   6.809  11.994
39983W        W 5210  27.183  32.220   3.731
39984W        W 5211  32.806  11.211   1.837
39985W        W 5212   0.958  38.682  13.881
39986W        W 5213  12.471  11.639   0.808
39987W        W 5214   8.600  37.433  13.119
39988W        W 5215  33.053  16.249   1.273
39989W        W 5216  14.681   1.063   2.636
39990W        W 5217   4.822  19.817  13.390
39991W        W 5218  14.430  29.598   4.194
39992W        W 5219  38.547  36.013  11.643
39993W        W 5220  10.994  32.105   0.085
39994W        W 5221  11.297  24.814  12.915
39995W        W 5222   5.063  12.995   0.265
39996W        W 5223  26.958  20.868  12.918
39997W        W 5224  25.224  30.144   0.296
39998W        W 5225   5.931   3.768   0.842
39999W        W 5226  41.239   1.950   3.333
40000W        W 5227  30.670   7.376   4.228
40001W        W 5228  15.763  31.232  11.636
40002W        W 5229  15.553  41.520  13.816
40003W        W 5230  11.865  24.531   2.227
40004W        W 5231  38.011   9.822  12.446
40005W        W 5232  15.746   6.270  11.503
40006W        W 5233  14.673  35.349   3.747
40007W        W 5234  11.104   5.160  11.869
40008W        W 5235  23.521  28.060   4.259
40009W        W 5236  40.110  19.970   0.787
40010W        W 5237   0.516   3.866   1.834
40011W        W 5238  24.454   2.836   1.829
40012W        W 5239  33.070  30.547   4.435
40013W        W 5240  28.646  25.990  11.589
40014W        W 5241  41.298  40.842  14.804
40015W        W 5242  11.768  43.570  13.547
40016W        W 5243   2.461  33.461   1.415
40017W        W 5244  10.090   1.387  12.932
40018W        W 5245  27.119  21.294   2.607
40019W        W 5246  31.625   5.778   2.392
40020W        W 5247  40.156  30.880  13.338
40021W        W 5248   0.744  30.880  11.487
40022W        W 5249  23.963  38.969   0.863
40023W        W 5250  23.224  10.172   1.291
40024W        W 5251   4.522  21.506  10.673
40025W        W 5252  17.316  10.269   0.807
40026W        W 5253   4.297   6.401  14.261
40027W        W 5254   7.147  30.356   3.110
40028W        W 5255  24.872  42.950   4.267
40029W        W 5256   1.483   3.627   1.695
40030W        W 5257  42.296  36.025  11.049
40031W        W 5258  12.782  19.893  14.449
40032W        W 5259  26.424  30.584   4.079
40033W        W 5260  41.815  43.829   1.502
40034W        W 5261  34.063  42.952  11.606
40035W        W 5262  34.842  11.371   3.864
40036W        W 5263  20.663   0.535  13.314
40037W        W 5264  41.805  32.153   0.310
40038W        W 5265  15.135  12.601   2.369
40039W        W 5266  33.904  39.458   0.192
40040W        W 5267  14.525   6.226  14.434
40041W        W 5268  29.438  39.407   3.359
40042W        W 5269  18.163  44.160  10.735
40043W        W 5270   7.319  17.795   1.934
40044W        W 5271   0.490  11.263   3.659
40045W        W 5272  41.551  41.485   2.727
40046W        W 5273  22.149   4.865   0.949
40047W        W 5274   9.754  36.596   3.725
40048W        W 5275  31.635  13.762   2.436
40049W        W 5276  33.403  15.587  14.512
40050W        W 5277   8.881  28.513  10.772
40051W        W 5278  31.915  16.800   4.005
40052W        W 5279  11.747   0.285   3.214
40053W        W 5280   9.540  16.452   1.731
40054W        W 5281  25.221  37.554  13.748
40055W        W 5282  15.871  32.957   1.804
40056W        W 5283  39.046   6.268   0.820
40057W        W 5284  34.337  13.526  11.100
40058W        W 5285  31.100  42.903  11.650
40059W        W 5286  11.284  41.913   4.212
40060W        W 5287  14.951   9.152   2.927
40061W        W 5288  34.380   5.365  14.019
40062W        W 5289   0.022  12.626  12.967
40063W        W 5290  12.104   5.925  12.621
40064W        W 5291  17.722  44.382  10.987
40065W        W 5292  24.002  27.932  14.908
40066W        W 5293  29.477  44.284  10.574
40067W        W 5294   9.609  27.589   4.603
40068W        W 5295   5.647  13.781  12.888
40069W        W 5296  29.912  28.903  13.742
40070W        W 5297  16.514  25.348  11.948
40071W        W 5298  27.644  12.825  11.952
40072W        W 5299  17.018  14.088  14.926
40073W        W 5300  30.136  29.990   2.430
40074W        W 5301   6.840   4.258   0.521
40075W        W 5302  12.582  21.264  12.935
40076W        W 5303  18.175  35.587   4.683
40077W        W 5304   9.792  27.213   1.175
40078W        W 5305  29.581  23.683   0.054
40079W        W 5306  40.531   3.869  13.981
40080W        W 5307  20.622   5.789  14.042
40081W        W 5308  32.357  28.851  11.463
40082W        W 5309   5.828  19.801  12.135
40083W        W 5310   9.063   1.386  13.077
40084W        W 5311  15.623  42.757   2.776
40085W        W 5312  14.391  23.608   4.590
40086W        W 5313   2.661   2.970  13.694
40087W        W 5314  27.445   4.018  14.562
40088W        W 5315  37.072  40.226  13.554
40089W        W 5316  39.827  26.256  12.957
40090W        W 5317  37.082  12.761  13.673
40091W        W 5318  28.794  18.138  14.202
40092W        W 5319   7.920   2.949   2.156
40093W        W 5320  31.549   9.192  12.051
40094W        W 5321  41.844   8.623  13.331
40095W        W 5322  19.491  20.702  13.286
40096W        W 5323  40.306  17.579   0.586
40097W        W 5324  14.534   0.631  14.944
40098W        W 5325  21.727  21.331  11.693
40099W        W 5326  31.086  15.921   4.519
40100W        W 5327  32.956  26.308   2.069
40101W        W 5328  14.587  33.078   2.276
40102W        W 5329   5.101  13.468  11.131
40103W        W 5330   7.211  41.687   4.610
40104W        W 5331  40.245  21.621  13.324
40105W        W 5332  24.983  18.475  13.692
40106W        W 5333   9.153   0.701   2.261
40107W        W 5334   5.807  42.438   2.439
40108W        W 5335  31.850  24.612   1.128
40109W        W 5336   7.684   1.242  11.830
40110W        W 5337  10.288  38.338  12.597
40111W        W 5338  43.248  25.068   2.576
40112W        W 5339  33.529  23.966  10.976
40113W        W 5340   1.318   6.096  11.545
40114W        W 5341  43.036  18.100   2.707
40115W        W 5342  41.203  44.398  12.615
40116W        W 5343   4.823   6.913  11.931
40117W        W 5344  34.445  12.239   2.708
40118W        W 5345  40.019  10.403   5.227
40119W        W 5346  19.470  43.852  11.954
40120W        W 5347  39.672  13.259   4.253
40121W        W 5348  19.270   8.280   4.801
40122W        W 5349  33.661   8.855  12.838
40123W        W 5350  17.499  30.156   0.787
40124W        W 5351  28.039  21.127   3.155
40125W        W 5352   4.635   0.907   3.879
40126W        W 5353  25.956  38.918  14.076
40127W        W 5354  35.139  37.820  10.683
40128W        W 5355  39.318  34.993  13.909
40129W        W 5356  20.125  38.666   3.895
40130W        W 5357  30.510   5.124  14.876
40131W        W 5358   9.668   2.259   4.224
40132W        W 5359  35.875  11.357   3.154
40133W        W 5360  38.751  44.761   0.646
40134W        W 5361  33.122  15.784   0.500
40135W        W 5362  23.318   6.289   3.408
40136W        W 5363  43.801  23.597   2.019
40137W        W 5364  10.998  12.706   3.727
40138W        W 5365  12.222  31.624  12.955
40139W        W 5366  26.017  33.482   0.079
40140W        W 5367   3.029  12.851  13.842
40141W        W 5368  20.694   4.344   0.899
40142W        W 5369  42.638  35.315  14.109
40143W        W 5370   7.637  22.003  14.030
40144W        W 5371  39.149  28.922   2.875
40145W        W 5372  23.031   2.554   0.739
40146W        W 5373   2.633   9.253   1.002
40147W        W 5374   6.020   2.074   3.722
40148W        W 5375   0.253   9.518  12.628
40149W        W 5376   4.496   5.304  14.007
40150W        W 5377  42.047   0.196   0.557
40151W        W 5378  35.169   9.655  11.587
40152W        W 5379  15.685  30.636  10.072
40153W        W 5380  23.100  28.577   3.590
40154W        W 5381  24.338   4.036  10.836
40155W        W 5382  28.276  24.747  11.224
40156W        W 5383  44.812  18.314   4.454
40157W        W 5384  41.442  38.107   0.629
40158W        W 5385  19.186  36.138  11.567
40159W        W 5386  35.103  23.079   2.928
40160W        W 5387  37.812   3.569  12.023
40161W        W 5388  13.194  18.362   3.613
40162W        W 5389  37.215  35.279  12.888
40163W        W 5390  18.257  30.412  11.134
40164W        W 5391  26.591  19.264   1.728
40165W        W 5392  11.334   7.924   2.358
40166W        W 5393  25.657  39.273   4.766
40167W        W 5394  17.998   4.156   3.506
40168W        W 5395  37.442  42.243   0.440
40169W        W 5396  13.639   9.822  11.353
40170W        W 5397  39.980  25.712  11.874
40171W        W 5398  29.045  15.807  13.742
40172W        W 5399  40.919  18.871  13.832
40173W        W 5400  11.675   8.453   4.192
40174W        W 5401  43.814  19.804   4.143
40175W        W 5402  36.055  20.713   0.852
40176W        W 5403  38.629   1.375  14.738
40177W        W 5404   3.295  20.214  13.468
40178W        W 5405  15.800   4.097  10.890
40179W        W 5406  40.235  31.383   0.102
40180W        W 5407  13.521  42.762   4.141
40181W        W 5408   5.311  43.713  11.653
40182W        W 5409  35.543  43.746  11.423
40183W        W 5410  42.475  33.058   1.799
40184W        W 5411   6.191  13.365  13.288
40185W        W 5412  30.855  28.314  14.924
40186W        W 5413  23.733   9.236   3.114
40187W        W 5414  16.613  23.767  13.381
40188W        W 5415  29.934  31.039   2.159
40189W        W 5416  20.155  35.558  10.849
40190W        W 5417  25.255  39.160   3.621
40191W        W 5418  28.059   2.514  11.562
40192W        W 5419  27.691  19.667  14.771
40193W        W 5420  11.615  12.342   0.262
40194W        W 5421  35.123  13.291  12.384
40195W        W 5422  34.041  23.901   2.711
40196W        W 5423  11.859  41.101   2.720
40197W        W 5424  20.726   6.188  11.501
40198W        W 5425  30.585  25.549  11.573
40199W        W 5426  34.651   1.714   2.307
40200W        W 5427  11.415  25.945   2.820
40201W        W 5428  39.525  37.824   2.682
40202W        W 5429  34.151  33.184  12.357
40203W        W 5430  13.230   2.977  11.031
40204W        W 5431  17.501  24.554   3.213
40205W        W 5432  12.832  14.225   4.843
40206W        W 5433  43.091  20.463   4.954
40207W        W 5434  31.651  41.441  13.786
40208W        W 5435  15.237   5.777   3.117
40209W        W 5436  32.203  33.445   5.063
40210W        W 5437  24.230  41.473  10.907
40211W        W 5438  27.018  34.218  11.739
40212W        W 5439  41.292  11.685   4.467
40213W        W 5440  12.879  27.128   3.935
40214W        W 5441  24.599  27.576   2.853
40215W        W 5442  10.549   5.765  11.453
40216W        W 5443  10.735  23.533   3.591
40217W        W 5444  25.068   1.139   0.228
40218W        W 5445  26.585   8.912  12.424
40219W        W 5446  22.988  14.672   0.394
40220W        W 5447   9.163  14.377  14.963
40221W        W 5448  16.100  19.351  12.635
40222W        W 5449  32.627  40.254   4.469
40223W        W 5450  24.886  41.003   4.603
40224W        W 5451  15.773  14.787   1.835
40225W        W 5452  36.923   9.903  13.889
40226W        W 5453  19.610   6.805   3.784
40227W        W 5454  10.783  21.610   3.022
40228W        W 5455   8.397  43.518  10.635
40229W        W 5456  29.461  21.531   3.094
40230W        W 5457  28.946  25.554   1.025
40231W        W 5458   8.880  40.188  12.431
40232W        W 5459  29.493   0.777   2.333
40233W        W 5460  29.510  15.678  12.991
40234W        W 5461  38.131  18.740  12.200
40235W        W 5462  34.129   2.807  14.815
40236W        W 5463  38.359   7.186   0.235
40237W        W 5464  18.728  18.862   3.384
40238W        W 5465   5.417  36.138  11.013
40239W        W 5466  36.313  19.668   4.962
40240W        W 5467  41.540  24.006   1.439
40241W        W 5468  18.713  40.756  12.502
40242W        W 5469  42.225  38.895  12.535
40243W        W 5470  44.237  10.031   4.322
40244W        W 5471  18.195  25.494   0.383
40245W        W 5472  25.840  10.045   2.204
40246W        W 5473  30.408  14.922  12.986
40247W        W 5474   4.977  13.303  11.681
40248W        W 5475  30.841  26.209  10.772
40249W        W 5476  29.178  32.605  14.847
40250W        W 5477  24.036  15.181  14.564
40251W        W 5478  16.341  32.540  13.320
40252W        W 5479   6.164  13.246   3.931
40253W        W 5480  40.799  43.416  13.098
40254W        W 5481  31.201   3.811   4.110
40255W        W 5482  20.134  21.677   3.656
40256W        W 5483  12.201   8.739  12.854
40257W        W 5484  40.218  35.434  14.805
40258W        W 5485   9.147  40.540  12.712
40259W        W 5486  38.856  31.421  14.233
40260W        W 5487  15.101  17.170   3.213
40261W        W 5488  40.725  14.080  14.785
40262W        W 5489  16.139   8.176   0.789
40263W        W 5490  23.695  11.015  12.547
40264W        W 5491  12.430  39.541  12.417
40265W        W 5492  32.653  21.100   1.001
40266W        W 5493  42.138  40.811   0.386
40267W        W 5494  23.271  20.943   1.973
40268W        W 5495  38.930  29.906  10.128
40269W        W 5496  36.598  36.582   1.787
40270W        W 5497  43.181  38.843  14.038
40271W        W 5498  35.856  29.687  12.509
40272W        W 5499  44.026  32.090   3.831
40273W        W 5500  12.371  25.069  13.996
40274W        W 5501   6.080  15.291  14.821
40275W        W 5502   8.368   9.253  10.965
40276W        W 5503  29.371  44.691   1.054
40277W        W 5504   7.369  30.447   2.263
40278W        W 5505  19.089  28.622   0.257
40279W        W 5506  39.040   7.229  14.370
40280W        W 5507  26.919  15.098  12.214
40281W        W 5508  15.230  35.473   1.741
40282W        W 5509  12.543  23.666  12.650
40283W        W 5510   2.826  38.180   0.276
40284W        W 5511  43.276  17.656   1.657
40285W        W 5512   0.723   1.019   3.655
40286W        W 5513   7.003  37.878  10.796
40287W        W 5514   7.968  25.444   1.045
40288W        W 5515  34.930  23.629  12.537
40289W        W 5516  36.924  25.176   4.523
40290W        W 5517   2.180  41.568   0.119
40291W        W 5518  19.660  22.563  11.623
40292W        W 5519  31.852   4.021  11.993
40293W        W 5520  29.735  17.136   3.726
40294W        W 5521  18.078  31.581  14.302
40295W        W 5522   3.112  36.891  12.910
40296W        W 5523  19.323  16.797   0.457
40297W        W 5524   1.673  13.864  10.782
40298W        W 5525   8.297  19.847   4.882
40299W        W 5526  39.259  10.331   4.583
40300W        W 5527  36.948  26.195   2.559
40301W        W 5528   7.887   3.169  12.099
40302W        W 5529  10.787   6.178  13.814
40303W        W 5530  32.323  21.013   4.567
40304W        W 5531  17.260  30.426   4.680
40305W        W 5532  33.601  36.020   2.084
40306W        W 5533   0.799   9.809   2.004
40307W        W 5534  43.702  27.359   2.809
40308W        W 5535  29.085   0.245  13.450
40309W        W 5536  34.406   6.955   4.652
40310W        W 5537  44.161  26.265   4.198
40311W        W 5538  23.563  11.140  13.961
40312W        W 5539  40.461  40.095   3.739
40313W        W 5540  15.663  28.332   3.257
40314W        W 5541   1.381  34.241   4.822
40315W        W 5542  27.626  24.728   2.601
40316W        W 5543  22.624  36.674  11.168
40317W        W 5544  23.038  41.879   1.618
40318W        W 5545  12.645  39.777  13.074
40319W        W 5546   2.308  19.223   0.696
40320W        W 5547  32.373  34.105  13.606
40321W        W 5548  21.506  25.168  13.448
40322W        W 5549  44.354   5.859   2.958
40323W        W 5550   9.827  30.460   3.682
40324W        W 5551  42.112   7.258  11.576
40325W        W 5552  22.905  26.529   1.744
40326W        W 5553  33.080   6.606  13.092
40327W        W 5554   7.872  19.179   9.748
40328W        W 5555  14.134   1.240   3.377
40329W        W 5556  16.175  31.835   4.408
40330W        W 5557  14.264   6.426  11.549
40331W        W 5558   9.776   7.274  12.524
40332W        W 5559  37.033  42.847  13.689
40333W        W 5560  26.437  12.456  10.359
40334W        W 5561   0.854  29.144  12.354
40335W        W 5562  36.304   1.384  13.698
40336W        W 5563  11.776  27.348   0.607
40337W        W 5564  23.287  10.694  12.357
40338W        W 5565  34.337   6.064   3.060
40339W        W 5566   9.846  21.576  12.021
40340W        W 5567   2.083  16.390   0.800
40341W        W 5568  13.400  13.693   0.524
40342W        W 5569  25.326  41.362   4.148
40343W        W 5570   0.903  16.825  13.443
40344W        W 5571  24.958  31.840   3.286
40345W        W 5572   6.313  41.942  12.391
40346W        W 5573  35.845  14.635  14.853
40347W        W 5574  14.132  31.357  14.497
40348W        W 5575   4.846  13.865   0.941
40349W        W 5576  44.828   2.218   3.612
40350W        W 5577  24.077  40.035   0.245
40351W        W 5578  41.423  32.591   2.806
40352W        W 5579  43.846  23.564   3.840
40353W        W 5580  42.906  36.673   3.743
40354W        W 5581  26.714  18.514  11.663
40355W        W 5582  33.457   0.722   4.946
40356W        W 5583   1.272   0.370  14.578
40357W        W 5584   9.432   4.082  11.132
40358W        W 5585  25.309  33.519  13.428
40359W        W 5586  40.301  33.743   1.768
40360W        W 5587  30.901  32.896   0.280
40361W        W 5588  18.029  11.643   0.979
40362W        W 5589   9.879  41.040  14.198
40363W        W 5590  39.363  15.626  11.604
40364W        W 5591  38.953  41.049  14.098
40365W        W 5592  44.038  30.059   0.755
40366W        W 5593  19.547  42.055   4.593
40367W        W 5594  21.268   1.468   2.837
40368W        W 5595  29.988  11.793  12.074
40369W        W 5596   0.857  16.238   0.225
40370W        W 5597  21.194  38.185   3.591
40371W        W 5598  39.706  30.338  12.568
40372W        W 5599  32.478  43.289   4.960
40373W        W 5600  13.865   7.857   4.610
40374W        W 5601  36.297  14.194   2.916
40375W        W 5602  16.502  15.364  12.152
40376W        W 5603  42.824  43.157   4.568
40377W        W 5604  22.435  20.632   0.320
40378W        W 5605  14.839  23.632   4.332
40379W        W 5606  27.570  11.437   0.808
40380W        W 5607  40.764  31.531   4.169
40381W        W 5608  42.374  28.021   2.130
40382W        W 5609  44.511  22.674  10.616
40383W        W 5610  39.312  30.077   0.786
40384W        W 5611  30.114  14.654   3.090
40385W        W 5612  36.786   0.073   2.760
40386W        W 5613  39.335  37.460   1.283
40387W        W 5614   8.164  21.493   1.183
40388W        W 5615   0.126  40.745  11.975
40389W        W 5616  36.284  17.613   3.801
40390W        W 5617   1.340  31.533  12.514
40391W        W 5618  30.301   3.673   1.377
40392W        W 5619  34.005  43.937  10.615
40393W        W 5620   1.425  41.769  11.634
40394W        W 5621  19.762  30.894  11.973
40395W        W 5622   1.920  41.246   3.090
40396W        W 5623  11.840   9.188  14.835
40397W        W 5624  18.806  16.208   4.820
40398W        W 5625   9.807  18.249  14.032
40399W        W 5626  35.284  18.017  11.259
40400W        W 5627   6.227  44.353  14.525
40401W        W 5628  41.942  44.461   2.697
40402W        W 5629  25.539  36.447   2.807
40403W        W 5630  27.423  28.954  10.230
40404W        W 5631  39.390  13.652  13.936
40405W        W 5632  33.917  29.459  14.472
40406W        W 5633  43.954  40.708  14.521
40407W        W 5634  25.029   1.230  12.956
40408W        W 5635  10.260  21.042   4.775
40409W        W 5636  41.237   4.028  14.984
40410W        W 5637  42.079  13.329   3.802
40411W        W 5638  14.632   2.464  10.745
40412W        W 5639   6.749  27.623  13.420
40413W        W 5640  19.046   9.387   4.452
40414W        W 5641  28.607  30.830   2.679
40415W        W 5642  36.392  41.299  14.326
40416W        W 5643  17.333  13.533   3.649
40417W        W 5644  42.826  19.688  14.079
40418W        W 5645  39.337  15.164  13.048
40419W        W 5646  35.916   4.898   9.839
40420W        W 5647   7.790  28.831  12.718
40421W        W 5648  44.859  32.173   0.873
40422W        W 5649   3.791   6.877  12.863
40423W        W 5650  27.104  34.803   0.870
40424W        W 5651  15.816  26.626  10.346
40425W        W 5652  26.196  38.267   0.189
40426W        W 5653  43.010  31.242   0.288
40427W        W 5654   7.736  34.480   0.917
40428W        W 5655  13.747  31.454  13.524
40429W        W 5656   6.219  25.964  14.066
40430W        W 5657   2.130  11.744   3.688
40431W        W 5658   0.905  34.460  12.461
40432W        W 5659  10.824  17.690  13.976
40433W        W 5660  24.776   3.328   2.558
40434W        W 5661  15.572   2.380   2.166
40435W        W 5662   0.478  38.722   0.960
40436W        W 5663  21.226   3.217  13.799
40437W        W 5664  21.161  22.381   4.979
40438W        W 5665  42.884  41.783  13.151
40439W        W 5666   7.939  20.698  14.304
40440W        W 5667  29.356  24.600  12.518
40441W        W 5668  38.435  42.434  13.512
40442W        W 5669  16.254  15.724   2.357
40443W        W 5670  24.411   4.239  11.452
40444W        W 5671  21.283  41.409   4.569
40445W        W 5672   6.202  41.612  11.436
40446W        W 5673   4.377  24.442  14.724
40447W        W 5674  14.814  42.941   0.406
40448W        W 5675  20.204  33.419   1.811
40449W        W 5676   9.453   9.735   1.710
40450W        W 5677  40.839  12.666  11.959
40451W        W 5678  26.620   4.791   3.003
40452W        W 5679  27.562  36.990   0.453
40453W        W 5680  17.167  25.633   1.124
40454W        W 5681  12.326  15.051   3.263
40455W        W 5682  44.752  22.153  11.268
40456W        W 5683  34.464  25.081   3.479
40457W        W 5684  29.438  32.594  10.928
40458W        W 5685  29.476  37.830   3.961
40459W        W 5686  12.948  32.054   1.908
40460W        W 5687  14.803  17.270   0.181
40461W        W 5688  25.531  11.293   4.680
40462W        W 5689  16.803  40.795   1.407
40463W        W 5690  31.697  38.934  10.784
40464W        W 5691   9.866   8.360   4.990
40465W        W 5692  40.690  16.915  12.992
40466W        W 5693  16.729  31.926  14.970
40467W        W 5694   5.150  32.457   4.941
40468W        W 5695  41.000   9.857  12.410
40469W        W 5696  39.194  31.931  12.085
40470W        W 5697  28.484   9.150   4.810
40471W        W 5698  24.551  21.861   2.718
40472W        W 5699  28.736  17.583  12.971
40473W        W 5700  19.585  20.149  12.424
40474W        W 5701   8.412  27.685  13.303
40475W        W 5702   3.547  28.711   1.607
40476W        W 5703   8.417  23.406  13.106
40477W        W 5704  44.505  38.880  12.535
40478W        W 5705  13.196   3.643   3.375
40479W        W 5706  22.306   0.876  13.878
40480W        W 5707  28.549  23.000   2.243
40481W        W 5708  31.839  25.823  11.983
40482W        W 5709  11.664  34.001  11.769
40483W        W 5710  27.684  34.967   3.701
40484W        W 5711  24.343  44.326   5.387
40485W        W 5712   6.025  12.671   4.218
40486W        W 5713   6.253  20.642   0.982
40487W        W 5714  22.459  13.719   0.753
40488W        W 5715  25.948  43.994   1.837
40489W        W 5716  19.215  26.381   1.880
40490W        W 5717  24.577   5.652  14.033
40491W        W 5718  25.966  27.409  14.338
40492W        W 5719  11.308  44.083  10.450
40493W        W 5720  30.680  21.325   2.943
40494W        W 5721  12.826  21.591   0.083
40495W        W 5722   0.950  19.412   1.014
40496W        W 5723  27.191  35.289  12.515
40497W        W 5724   1.013  25.840   5.379
40498W        W 5725  15.263   8.247   3.180
40499W        W 5726   9.235  24.939  14.312
40500W        W 5727   0.435  21.877   0.937
40501W        W 5728  44.798   1.975  14.503
40502W        W 5729  35.475  38.738   9.731
40503W        W 5730  22.996  33.275   0.439
40504W        W 5731  34.155   4.280   1.679
40505W        W 5732  12.251   8.402   2.935
40506W        W 5733   8.849  25.210  12.094
40507W        W 5734   0.889   2.149  12.858
40508W        W 5735  17.789   7.916   0.295
40509W        W 5736  42.398  27.211  14.677
40510W        W 5737  33.672  43.940   1.861
40511W        W 5738  11.697  13.829   4.112
40512W        W 5739  36.959   5.642   0.299
40513W        W 5740  16.162  38.066   1.172
40514W        W 5741  25.945  18.595   4.582
40515W        W 5742  23.078   8.655   0.464
40516W        W 5743   6.628  35.060  13.870
40517W        W 5744  42.807  19.538  13.178
40518W        W 5745  34.972  44.044   3.623
40519W        W 5746   7.115  24.535   0.305
40520W        W 5747  23.065  41.443   2.356
40521W        W 5748  36.529  35.538  14.195
40522W        W 5749  29.553  32.588   3.177
40523W        W 5750   2.897  28.198  12.215
40524W        W 5751  36.511  15.707  13.848
40525W        W 5752  34.612  15.134   2.674
40526W        W 5753  11.147  37.165   2.624
40527W        W 5754  14.117  13.272   4.047
40528W        W 5755  11.951  27.143   0.176
40529W        W 5756  41.657  38.845  13.133
40530W        W 5757   0.085   9.941   2.578
40531W        W 5758  37.694  13.618   4.177
40532W        W 5759  41.542   1.018  11.089
40533W        W 5760   7.676  11.684   0.379
40534W        W 5761  17.818  33.672  11.451
40535W        W 5762  34.977  39.952   1.752
40536W        W 5763  28.372  29.408   0.015
40537W        W 5764   6.453  14.717  11.774
40538W        W 5765  13.243   4.849  10.675
40539W        W 5766  24.027  43.457   1.940
40540W        W 5767  42.218   1.913   0.746
40541W        W 5768  42.349  41.980   0.782
40542W        W 5769  40.880  26.746   0.886
40543W        W 5770   9.293   3.430  10.173
40544W        W 5771   5.525  34.485   0.282
40545W        W 5772   8.876  31.113   4.321
40546W        W 5773  16.506  36.926   0.999
40547W        W 5774  14.855   3.633   3.933
40548W        W 5775  14.987  30.112   2.169
40549W        W 5776   7.666  40.451  11.176
40550W        W 5777  10.828  18.584   0.334
40551W        W 5778  39.543  27.299  12.569
40552W        W 5779  40.339   8.092  12.308
40553W        W 5780   4.651  18.306  14.091
40554W        W 5781  34.530  43.100  12.657
40555W        W 5782  29.419   8.191   1.661
40556W        W 5783  11.639  35.225  11.441
40557W        W 5784  32.517   7.085  11.677
40558W        W 5785  26.105  21.244  12.501
40559W        W 5786  17.301  20.726   2.207
40560W        W 5787   0.697   5.444   2.369
40561W        W 5788  27.932  26.228   4.483
40562W        W 5789  23.161  18.289   3.176
40563W        W 5790  20.732   2.105  14.563
40564W        W 5791  11.631  24.562   2.712
40565W        W 5792   5.037  18.165   1.775
40566W        W 5793  17.850   0.023   2.757
40567W        W 5794  22.189  15.655   0.687
40568W        W 5795  42.911  26.194   2.358
40569W        W 5796  20.276  43.330   2.838
40570W        W 5797  34.069   6.237   4.869
40571W        W 5798   7.393  27.920   0.399
40572W        W 5799  44.292  40.904  12.152
40573W        W 5800  14.222  17.382   1.355
40574W        W 5801  30.854  19.063   4.620
40575W        W 5802  20.532  16.258  12.446
40576W        W 5803  29.628  10.255   4.958
40577W        W 5804  23.744  20.168   3.745
40578W        W 5805  30.903   0.855   3.498
40579W        W 5806   2.819   6.788  14.844
40580W        W 5807   8.252  25.873   4.684
40581W        W 5808  25.464  28.940   4.637
40582W        W 5809  21.386  21.628   0.849
40583W        W 5810   2.965  20.334   0.371
40584W        W 5811  16.963  44.984  13.983
40585W        W 5812  15.381  30.120   2.500
40586W        W 5813  33.037  43.750  10.950
40587W        W 5814  40.518  23.087   4.565
40588W        W 5815  34.119  17.317   2.589
40589W        W 5816  32.789  26.018  12.101
40590W        W 5817   4.411  11.948  11.685
40591W        W 5818  16.066  18.146   2.183
40592W        W 5819  33.323   4.309   2.322
40593W        W 5820   7.775   0.539   4.217
40594W        W 5821  42.889   5.716  11.961
40595W        W 5822  40.805  26.851   2.474
40596W        W 5823  38.292  12.317   2.533
40597W        W 5824  33.907  36.089  14.327
40598W        W 5825  21.549  31.616  11.975
40599W        W 5826  33.648  21.635  11.502
40600W        W 5827  40.240  20.680   3.949
40601W        W 5828  18.119   6.698  14.868
40602W        W 5829  36.853   7.459  13.114
40603W        W 5830  42.874  35.431  13.573
40604W        W 5831  15.133  39.455  12.698
40605W        W 5832  42.605  26.917  14.233
40606W        W 5833  34.388  15.611  14.965
40607W        W 5834  35.165  37.222   4.081
40608W        W 5835  13.723   8.474  12.161
40609W        W 5836  22.132  13.628   0.311
40610W        W 5837  40.319  26.238  10.612
40611W        W 5838   6.019  33.994  12.974
40612W        W 5839  23.235  15.801   3.349
40613W        W 5840  42.110  11.320  13.374
40614W        W 5841  14.582  44.762  13.887
40615W        W 5842   8.637  37.678   0.224
40616W        W 5843   5.976  12.262  14.862
40617W        W 5844  44.529  36.210  13.824
40618W        W 5845  15.270  37.906  14.748
40619W        W 5846   7.265  32.686  12.752
40620W        W 5847  29.107  38.029  12.607
40621W        W 5848  23.967  19.358  11.533
40622W        W 5849  22.052  35.157  13.507
40623W        W 5850  21.096  44.794   1.912
40624W        W 5851  15.182  30.984   3.306
40625W        W 5852  20.435  15.511  11.026
40626W        W 5853  27.669  39.639  14.120
40627W        W 5854  40.544  10.082  11.266
40628W        W 5855   7.684  26.274   1.190
40629W        W 5856  13.649  41.948   4.616
40630W        W 5857  13.652  20.974   1.810
40631W        W 5858  43.222  13.755   3.912
40632W        W 5859  36.250  42.708  13.455
40633W        W 5860   9.412  42.783   0.025
40634W        W 5861  18.791  14.884   3.308
40635W        W 5862   5.667  43.571   2.808
40636W        W 5863  26.741  30.167   1.390
40637W        W 5864  26.490  36.537  12.506
40638W        W 5865  41.873  43.913   4.173
40639W        W 5866   9.788   9.217   2.385
40640W        W 5867  38.781  23.957   2.312
40641W        W 5868   2.233  34.558   2.292
40642W        W 5869   6.740   4.357   2.475
40643W        W 5870  42.701  12.581  13.104
40644W        W 5871  24.654  30.794  14.053
40645W        W 5872  38.605  15.500   2.473
40646W        W 5873  15.318  44.345   2.921
40647W        W 5874  19.073  18.529   2.162
40648W        W 5875  12.043  12.086  14.994
40649W        W 5876   4.856   4.656  12.115
40650W        W 5877   1.387  27.957   1.367
40651W        W 5878  13.689  12.690  10.598
40652W        W 5879  18.670   3.518  11.166
40653W        W 5880  42.345  38.602   0.664
40654W        W 5881  27.949  17.203  11.068
40655W        W 5882  32.759  30.213  13.536
40656W        W 5883  31.327   6.019   2.754
40657W        W 5884   5.442  19.230  10.728
40658W        W 5885  28.284  29.155   0.943
40659W        W 5886   7.010   5.760   2.244
40660W        W 5887  20.222  31.316   0.209
40661W        W 5888  22.468  16.308  12.075
40662W        W 5889  33.512  35.800   0.227
40663W        W 5890  28.929  13.289   2.693
40664W        W 5891  25.676  38.901   5.186
40665W        W 5892  40.606  19.674   3.124
40666W        W 5893  20.034  15.619  11.300
40667W        W 5894  28.614   7.842  10.617
40668W        W 5895  44.064  41.651  12.520
40669W        W 5896  37.536   5.315   9.979
40670W        W 5897  41.273  12.073   0.447
40671W        W 5898  12.146  37.264   4.837
40672W        W 5899  31.670  15.937  12.956
40673W        W 5900   9.566   5.841   3.636
40674W        W 5901  19.858  34.874   4.174
40675W        W 5902  10.623  16.652  10.320
40676W        W 5903  34.987  14.239   4.722
40677W        W 5904  40.389  40.802  14.782
40678W        W 5905   4.371   8.574  12.059
40679W        W 5906  10.284  13.152   0.845
40680W        W 5907  13.912  42.374   4.433
40681W        W 5908  20.823  18.234  12.457
40682W        W 5909  16.691   4.920   3.364
40683W        W 5910  26.105   9.438   0.794
40684W        W 5911  10.090   3.260  12.901
40685W        W 5912   7.489  43.145  13.177
40686W        W 5913  12.537  30.506   1.333
40687W        W 5914  20.267   0.762   4.581
40688W        W 5915  26.745  29.819   5.029
40689W        W 5916  18.735  13.222   2.149
40690W        W 5917  14.837  42.423   1.192
40691W        W 5918   1.821  40.906   4.071
40692W        W 5919  37.433  32.545   4.080
40693W        W 5920  25.102  15.365  11.219
40694W        W 5921  40.364   9.093  14.763
40695W        W 5922  31.054  24.173   3.315
40696W        W 5923  22.100  34.908   0.175
40697W        W 5924  23.216  26.878  12.447
40698W        W 5925  37.379  33.017  14.521
40699W        W 5926   7.430  33.899  10.729
40700W        W 5927   5.411  40.131   2.243
40701W        W 5928  27.649  36.467  10.231
40702W        W 5929   9.366  19.207   3.091
40703W        W 5930  32.650   5.032  12.801
40704W        W 5931  38.823  30.616  11.570
40705W        W 5932  36.940  21.016  12.876
40706W        W 5933  20.233   4.977   2.221
40707W        W 5934  12.281  22.224  11.594
40708W        W 5935  32.427   5.433   0.368
40709W        W 5936  31.437   1.947  11.578
40710W        W 5937  19.192  32.181   1.849
40711W        W 5938  38.244  20.239   1.345
40712W        W 5939   4.856  24.986   0.226
40713W        W 5940  37.045  14.601  12.280
40714W        W 5941  18.837   2.933  12.613
40715W        W 5942   4.237   7.853  13.860
40716W        W 5943  31.638  16.219  12.487
40717W        W 5944  30.565  16.200   4.198
40718W        W 5945  40.855  28.695   1.329
40719W        W 5946   5.953  22.154  12.605
40720W        W 5947  25.457  35.620  13.563
40721W        W 5948  44.201  41.684  11.586
40722W        W 5949   6.264   5.627   0.291
40723W        W 5950  16.613  14.238   0.318
40724W        W 5951   5.655  18.490   0.076
40725W        W 5952  10.058  38.801  11.706
40726W        W 5953  37.484  33.341  12.722
40727W        W 5954  22.237   9.258  11.584
40728W        W 5955   9.162  17.093  14.427
40729W        W 5956  37.779   5.165   5.057
40730W        W 5957   9.554  34.086  12.478
40731W        W 5958   9.560   5.378  13.246
40732W        W 5959  27.928   2.612  13.374
40733W        W 5960  27.687  20.792   0.400
40734W        W 5961  35.979   1.966  14.760
40735W        W 5962   7.374  41.002   1.946
40736W        W 5963  33.158   7.129  13.073
40737W        W 5964  11.285   4.346   4.492
40738W        W 5965   5.570  22.131  12.954
40739W        W 5966  14.654  32.220   5.452
40740W        W 5967  39.433  23.679  13.410
40741W        W 5968  34.951  10.447  13.565
40742W        W 5969   5.462   3.511   0.944
40743W        W 5970  14.446  27.097   3.165
40744W        W 5971  17.870  10.343  13.306
40745W        W 5972   5.805  43.213   4.334
40746W        W 5973  42.054  28.172   3.301
40747W        W 5974  30.593   1.121   0.720
40748W        W 5975  20.956  39.707  11.276
40749W        W 5976  40.162  32.844   4.794
40750W        W 5977  34.510   9.628   4.112
40751W        W 5978  42.298   8.877  13.379
40752W        W 5979   3.839  11.555   4.816
40753W        W 5980  11.354  39.881  13.442
40754W        W 5981   3.864  31.569   0.525
40755W        W 5982  22.995  27.002   0.977
40756W        W 5983  17.760  14.295  12.792
40757W        W 5984  26.612  42.643   0.343
40758W        W 5985   0.156  43.880   2.838
40759W        W 5986  34.923  28.452   4.273
40760W        W 5987  35.004  39.663   2.179
40761W        W 5988  20.188  22.349   2.788
40762W        W 5989  27.428  29.170   4.247
40763W        W 5990   8.266   0.421  14.475
40764W        W 5991  18.215  34.557  13.502
40765W        W 5992  44.437  41.834   3.670
40766W        W 5993  18.767  25.603   3.779
40767W        W 5994  28.307  16.555   2.735
40768W        W 5995  35.965   5.677  14.762
40769W        W 5996   1.706   7.753   4.220
40770W        W 5997  17.263  31.848   2.592
40771W        W 5998   9.147  38.806  12.903
40772W        W 5999  44.952  33.233  14.344
40773W        W 6000  30.407  23.566   4.632
40774W        W 6001  41.308  18.529  10.627
40775W        W 6002  22.773   6.326   3.173
40776W        W 6003   0.758  42.418  13.814
40777W        W 6004   2.607  37.267   1.820
40778W        W 6005   5.734  21.993  13.955
40779W        W 6006  18.724   5.390  11.544
40780W        W 6007  37.425   6.172  14.715
40781W        W 6008  23.927  13.434  13.683
40782W        W 6009  22.160  13.036   2.818
40783W        W 6010   4.665   5.923  11.685
40784W        W 6011  11.800  44.464   0.952
40785W        W 6012  21.200  11.847   3.771
40786W        W 6013   3.329  18.681   3.548
40787W        W 6014  19.178   4.869  12.319
40788W        W 6015  17.580  20.175  11.549
40789W        W 6016   7.627  20.310  14.459
40790W        W 6017   6.228   6.987  12.167
40791W        W 6018  22.134  43.811  11.349
40792W        W 6019  37.849  15.667   2.073
40793W        W 6020   4.669  35.132  12.292
40794W        W 6021  13.573  26.093   4.163
40795W        W 6022  38.495  22.634  14.960
40796W        W 6023  26.472  41.102   2.791
40797W        W 6024   0.819  25.995  10.570
40798W        W 6025  17.624  29.144  14.385
40799W        W 6026   3.813   8.130   4.974
40800W        W 6027  22.616  13.791   3.216
40801W        W 6028  40.095  43.375  12.003
40802W        W 6029  31.538  23.913  10.354
40803W        W 6030  11.438  43.005  14.985
40804W        W 6031  26.789  42.317  12.059
40805W        W 6032  17.300   9.918   3.876
40806W        W 6033   2.435  42.202   0.958
40807W        W 6034  15.660  24.501   4.325
40808W        W 6035  23.967  40.517   2.900
40809W        W 6036  27.480  29.106  11.050
40810W        W 6037  13.778  42.350  10.620
40811W        W 6038  14.829  40.860  14.999
40812W        W 6039  30.677  23.414  11.187
40813W        W 6040   8.101  17.515  11.649
40814W        W 6041  26.485  40.905  12.938
40815W        W 6042  42.787  42.560   0.209
40816W        W 6043  38.560  34.913   2.802
40817W        W 6044  13.825  36.625  13.774
40818W        W 6045  33.374   1.365  14.548
40819W        W 6046   2.921  20.880  10.306
40820W        W 6047  17.862  38.282   2.589
40821W        W 6048   6.410  18.037   3.056
40822W        W 6049  44.810  38.871   3.705
40823W        W 6050  44.496   5.226  12.849
40824W        W 6051   8.868  38.490   3.932
40825W        W 6052   5.900  13.125  11.896
40826W        W 6053  38.424  39.881   0.813
40827W        W 6054  14.265   3.506  11.564
40828W        W 6055  16.084   9.856  10.824
40829W        W 6056  22.991  35.528  10.761
40830W        W 6057  30.614   3.158  10.672
40831W        W 6058  36.918  36.108  14.331
40832W        W 6059  38.360  14.734  13.518
40833W        W 6060  14.342  11.411   2.369
40834W        W 6061  39.669  42.389   0.100
40835W        W 6062  11.223  14.624  14.845
40836W        W 6063  20.659   2.243   1.018
40837W        W 6064  26.119  21.447  11.183
40838W        W 6065  43.801  23.139  13.502
40839W        W 6066  22.561  16.059  14.023
40840W        W 6067  11.969  40.184  10.173
40841W        W 6068  43.557  43.316  10.474
40842W        W 6069  43.777  14.367  13.028
40843W        W 6070  38.177  30.085  12.560
40844W        W 6071   5.472   3.397  13.989
40845W        W 6072  25.299   1.548  12.124
40846W        W 6073  23.957   1.302  10.846
40847W        W 6074  13.935  37.646  11.534
40848W        W 6075  28.045  20.082   3.190
40849W        W 6076   5.347   1.688   3.999
40850W        W 6077  20.020  39.585   0.890
40851W        W 6078   7.906  10.620  12.297
40852W        W 6079  18.618  38.860   0.118
40853W        W 6080   1.841  30.922   4.568
40854W        W 6081   7.889  25.050   4.543
40855W        W 6082  12.154   7.778   1.807
40856W        W 6083  26.093  18.658  13.358
40857W        W 6084  11.246  43.066  11.535
40858W        W 6085  15.952  14.618   0.876
40859W        W 6086  31.857  30.479   4.393
40860W        W 6087  17.027   1.347  12.507
40861W        W 6088  10.283   3.544   2.326
40862W        W 6089   6.748  22.029   0.122
40863W        W 6090  32.513  31.556   3.541
40864W        W 6091  24.578   2.089   4.986
40865W        W 6092  30.984  44.065  12.446
40866W        W 6093  27.641  42.745  14.355
40867W        W 6094  18.228  26.352   0.770
40868W        W 6095   8.656  11.348   2.432
40869W        W 6096  20.398  21.984   0.866
40870W        W 6097  13.824  30.648   0.542
40871W        W 6098  23.365  11.780  11.112
40872W        W 6099  43.972  33.521  11.899
40873W        W 6100   6.879  27.698  14.792
40874W        W 6101  13.871  14.663  14.980
40875W        W 6102  12.591   0.392  13.054
40876W        W 6103  17.647  40.490  14.907
40877W        W 6104  38.952  11.483  10.726
40878W        W 6105  42.049  24.331  13.323
40879W        W 6106   8.811  15.207  13.897
40880W        W 6107   2.321  21.836   4.064
40881W        W 6108  37.921   0.240  14.615
40882W        W 6109  41.686   8.614   4.431
40883W        W 6110  32.485  11.661   0.021
40884W        W 6111  10.266   2.371  12.976
40885W        W 6112   8.718   7.824  11.233
40886W        W 6113   0.468   1.329  14.641
40887W        W 6114  38.134  20.081  10.685
40888W        W 6115  34.437  38.399   4.029
40889W        W 6116  24.635  17.000   4.352
40890W        W 6117   4.286  30.116  13.265
40891W        W 6118   2.110   5.853   4.445
40892W        W 6119  29.391  10.600   0.888
40893W        W 6120  22.096  16.008  10.758
40894W        W 6121  25.947  39.005   2.886
40895W        W 6122  22.081  27.673   2.157
40896W        W 6123  30.712  32.382   1.485
40897W        W 6124  17.525  42.941  11.618
40898W        W 6125  37.768  33.464  10.263
40899W        W 6126  23.076  32.649  14.962
40900W        W 6127  12.755  14.598   4.492
40901W        W 6128  26.963  16.766  11.997
40902W        W 6129  15.882  28.513  14.882
40903W        W 6130  36.435  34.631  10.482
40904W        W 6131  15.378  17.167  13.258
40905W        W 6132   3.922  11.655  14.356
40906W        W 6133  13.553   6.821  13.040
40907W        W 6134  21.683  16.924   3.718
40908W        W 6135   0.801  23.680  14.497
40909W        W 6136  37.397   3.904  14.886
40910W        W 6137  14.456  34.310  14.480
40911W        W 6138  18.592   8.205  12.970
40912W        W 6139   6.324  17.828   0.611
40913W        W 6140   0.418  17.533   3.828
40914W        W 6141   6.879  27.829  12.971
40915W        W 6142  39.782  12.342   1.703
40916W        W 6143  40.095  37.888  14.362
40917W        W 6144  12.777  38.803  13.574
40918W        W 6145  11.524   5.301   0.755
40919W        W 6146   5.196  26.455  14.069
40920W        W 6147  41.687  21.666  13.512
40921W        W 6148  23.067  28.128   1.050
40922W        W 6149  10.311  37.068  13.805
40923W        W 6150  15.690   8.063  11.263
40924W        W 6151  19.510  27.634   2.479
40925W        W 6152  42.447   7.517  11.186
40926W        W 6153  30.976  34.947   0.179
40927W        W 6154  34.758  44.548  13.506
40928W        W 6155  41.365   9.339  13.441
40929W        W 6156   5.952  19.330   1.838
40930W        W 6157  44.556  29.750   0.035
40931W        W 6158  15.197  28.649  11.378
40932W        W 6159  41.205  41.368   1.156
40933W        W 6160  30.276  11.799   4.207
40934W        W 6161   0.340  36.643  11.229
40935W        W 6162  11.285  29.646   0.737
40936W        W 6163  28.566   4.279   1.313
40937W        W 6164  18.505   7.748  14.862
40938W        W 6165  28.974   7.642  13.024
40939W        W 6166  32.416   4.448  12.938
40940W        W 6167  23.972  22.546  13.299
40941W        W 6168  43.555  21.704  11.542
40942W        W 6169  11.297   8.897  11.944
40943W        W 6170  35.475  23.010   4.559
40944W        W 6171   9.893   0.723  11.123
40945W        W 6172  13.647  34.528  12.109
40946W        W 6173   1.452  14.402   1.325
40947W        W 6174   5.700  19.583  10.417
40948W        W 6175  40.879  41.868   3.784
40949W        W 6176  15.215  38.867  14.348
40950W        W 6177  28.412  28.232   2.215
40951W        W 6178  19.329   3.905  11.625
40952W        W 6179  14.302  42.426  11.445
40953W        W 6180   8.365   2.312   1.452
40954W        W 6181   7.323   2.770  11.110
40955W        W 6182   5.506  31.534  13.896
40956W        W 6183  21.247  36.599  12.678
40957W        W 6184  28.204  34.059  13.949
40958W        W 6185   4.755   6.329   3.402
40959W        W 6186  36.838   3.232  14.413
40960W        W 6187  21.114  44.073   3.207
40961W        W 6188  23.777  18.788  12.595
40962W        W 6189  36.001   9.616  14.388
40963W        W 6190  43.765  10.992  12.800
40964W        W 6191   0.736  30.461  11.185
40965W        W 6192  37.155   0.692  14.455
40966W        W 6193  41.879  44.447   3.222
40967W        W 6194  34.127  38.990   1.553
40968W        W 6195   4.143  40.445   1.265
40969W        W 6196  21.673  36.608  13.798
40970W        W 6197   1.003  15.866   1.846
40971W        W 6198  25.118  17.277   0.062
40972W        W 6199  19.163  18.616  13.154
40973W        W 6200  23.012  16.460  10.690
40974W        W 6201   1.621  33.252  11.465
40975W        W 6202  33.836  44.317  12.543
40976W        W 6203  42.619   5.568   2.778
40977W        W 6204  10.295   7.388  10.750
40978W        W 6205  35.866  27.154  14.496
40979W        W 6206  21.955  42.253  13.497
40980W        W 6207  27.179  24.363  11.197
40981W        W 6208  24.437  19.057  14.955
40982W        W 6209  28.318  33.491   2.003
40983W        W 6210  18.692  13.819   3.303
40984W        W 6211   7.862  20.196  12.990
40985W        W 6212   3.168  35.055  14.544
40986W        W 6213  21.811  34.564  14.377
40987W        W 6214   9.551  18.648   5.652
40988W        W 6215   0.322  30.666   4.598
40989W        W 6216   2.827  40.405  14.444
40990W        W 6217   9.592  36.519   1.346
40991W        W 6218  19.300  17.846  11.602
40992W        W 6219  38.837   1.532  12.886
40993W        W 6220   3.339  17.397   1.867
40994W        W 6221   9.757  31.374  12.709
40995W        W 6222   5.920  12.071  13.141
40996W        W 6223  14.716  44.839  12.892
40997W        W 6224  27.613  11.236  13.099
40998W        W 6225  31.666  10.850  10.532
40999W        W 6226  20.954  25.273   0.244
41000W        W 6227   4.106   7.424  11.616
41001W        W 6228  39.057   0.265  14.864
41002W        W 6229   3.943  11.404  12.993
41003W        W 6230  35.779  10.296   4.052
41004W        W 6231  32.839  17.558  13.082
41005W        W 6232  17.282   4.911  12.098
41006W        W 6233  26.357  21.246   0.927
41007W        W 6234  14.003  21.074   0.198
41008W        W 6235  37.408  43.278   2.781
41009W        W 6236  44.423   5.467  14.903
41010W        W 6237  36.792  33.386  11.007
41011W        W 6238  12.054  23.343   2.264
41012W        W 6239  40.774  14.373  10.686
41013W        W 6240  17.837  32.660  11.520
41014W        W 6241  30.499  40.458  12.900
41015W        W 6242  31.729  42.585   2.632
41016W        W 6243  35.918  28.667  12.421
41017W        W 6244  25.096  14.164  13.877
41018W        W 6245   5.600  28.523  12.082
41019W        W 6246  28.518  13.574   2.926
41020W        W 6247   4.201  13.294  14.736
41021W        W 6248  44.929  23.151  11.084
41022W        W 6249   1.743  40.102   2.215
41023W        W 6250  23.038  36.652   0.465
41024W        W 6251  13.754  41.972  12.580
41025W        W 6252  38.519  11.106  12.475
41026W        W 6253  42.550   7.775   2.796
41027W        W 6254   0.720  20.118   0.359
41028W        W 6255  16.131  28.137  12.506
41029W        W 6256  34.821  17.546  12.941
41030W        W 6257  18.187  21.571   2.176
41031W        W 6258  11.160  21.041  11.628
41032W        W 6259  20.442  14.401  12.173
41033W        W 6260   8.192  21.642   0.308
41034W        W 6261  38.849  37.291   1.421
41035W        W 6262   1.707  27.136   1.235
41036W        W 6263  42.821  38.092   2.173
41037W        W 6264  24.587   6.236  12.052
41038W        W 6265  24.647  36.813   0.435
41039W        W 6266   6.190  40.314  14.138
41040W        W 6267  20.083   5.612  11.284
41041W        W 6268  15.862  24.060  13.565
41042W        W 6269  29.607   7.864  11.541
41043W        W 6270   0.693  20.259   3.138
41044W        W 6271   2.751   5.869  10.978
41045W        W 6272   6.120  27.592   0.677
41046W        W 6273  27.640  41.290   4.583
41047W        W 6274  40.888  39.805   0.339
41048W        W 6275   2.312  30.372   4.039
41049W        W 6276  42.092   3.143   4.566
41050W        W 6277   1.441  32.487   1.331
41051W        W 6278  14.275  32.492  13.110
41052W        W 6279   8.140  23.326   4.451
41053W        W 6280  19.589  15.554  13.422
41054W        W 6281  43.880  40.055  13.529
41055W        W 6282   0.720  18.885   1.877
41056W        W 6283  28.263   4.041   1.708
41057W        W 6284  10.341  36.927  10.940
41058W        W 6285  20.983  25.724   4.527
41059W        W 6286  37.791  14.695  10.688
41060W        W 6287  33.999  32.874  10.956
41061W        W 6288  44.354  26.113  14.985
41062W        W 6289  40.736   0.980  10.719
41063W        W 6290  17.542  26.963  10.712
41064W        W 6291  11.478  38.719   2.248
41065W        W 6292   2.939  36.364  13.595
41066W        W 6293   6.295  35.896   4.307
41067W        W 6294   0.898  40.145  13.973
41068W        W 6295  43.272  43.440   4.594
41069W        W 6296  27.704   3.628  12.031
41070W        W 6297  35.560  37.032   3.806
41071W        W 6298  13.317   0.105   4.558
41072W        W 6299   4.949  22.475   2.297
41073W        W 6300  30.446  18.537  12.053
41074W        W 6301  24.789   3.382  11.265
41075W        W 6302  11.227  43.876   2.641
41076W        W 6303  35.995  19.995   4.635
41077W        W 6304   3.818  36.621  14.396
41078W        W 6305   6.426  36.063  12.053
41079W        W 6306   5.566  40.818   4.892
41080W        W 6307  19.558  18.540   3.365
41081W        W 6308  26.090  14.747   0.106
41082W        W 6309  19.102   3.774   4.621
41083W        W 6310   8.338  27.553   0.587
41084W        W 6311  26.124  26.631  14.939
41085W        W 6312  31.877  43.553  10.719
41086W        W 6313  24.670  42.957   3.386
41087W        W 6314  41.015  35.545   0.329
41088W        W 6315  29.093  42.293   0.833
41089W        W 6316   4.000  26.571  12.733
41090W        W 6317   4.659  41.318   1.321
41091W        W 6318  35.325  24.169   4.619
41092W        W 6319  23.899  34.907   3.716
41093W        W 6320  43.905   9.064  12.180
41094W        W 6321   7.132  42.008  12.365
41095W        W 6322  23.698  26.464  12.047
41096W        W 6323   4.829  14.142   3.364
41097W        W 6324  36.525  24.096   1.692
41098W        W 6325  40.428   6.606   9.973
41099W        W 6326  10.858  10.140  11.178
41100W        W 6327  32.642   9.836  13.653
41101W        W 6328  18.255  30.200   1.860
41102W        W 6329   2.036  34.381  14.510
41103W        W 6330  20.895  26.706   4.043
41104W        W 6331  23.777  27.130  14.073
41105W        W 6332   4.445  10.375  12.597
41106W        W 6333  22.419  13.364   2.435
41107W        W 6334  28.248  29.597  11.061
41108W        W 6335  33.668  13.537   9.893
41109W        W 6336  35.461  43.908  13.614
41110W        W 6337  35.622  19.111  11.229
41111W        W 6338  21.675  28.400   1.743
41112W        W 6339  15.663  14.815  11.998
41113W        W 6340  17.537  17.996  11.605
41114W        W 6341  24.432  13.334  13.141
41115W        W 6342  17.714  37.657  13.961
41116W        W 6343   3.781  34.675  13.072
41117W        W 6344  35.337  11.198  14.836
41118W        W 6345  22.298  42.196  11.803
41119W        W 6346  21.609   8.953   1.198
41120W        W 6347   5.599  15.836   2.710
41121W        W 6348  34.581   7.480  12.064
41122W        W 6349  26.725  19.294   3.680
41123W        W 6350   7.828  20.550   2.110
41124W        W 6351   5.149  15.122  12.475
41125W        W 6352  16.820  19.226  14.834
41126W        W 6353  37.901  11.443  11.989
41127W        W 6354  12.599  12.574  11.583
41128W        W 6355  26.209  38.711   0.495
41129W        W 6356  26.744  43.395   4.899
41130W        W 6357  38.040  23.176   1.489
41131W        W 6358  38.411  17.259   4.448
41132W        W 6359  37.364  31.876   2.331
41133W        W 6360  40.390  19.239  11.587
41134W        W 6361  23.811   7.228   0.433
41135W        W 6362  38.985  31.503  10.347
41136W        W 6363  31.081  17.001   0.961
41137W        W 6364  30.931  44.004   1.522
41138W        W 6365  13.884  38.468  11.508
41139W        W 6366  23.330   4.216   4.048
41140W        W 6367  32.357   3.295  13.086
41141W        W 6368   4.735   3.451  13.475
41142W        W 6369  17.587  19.158  14.375
41143W        W 6370  39.564  26.565  13.891
41144W        W 6371  22.660   6.164  14.763
41145W        W 6372  36.368  30.409  12.972
41146W        W 6373  10.293  27.784   0.679
41147W        W 6374  11.188  22.483   2.677
41148W        W 6375   7.449  14.450   3.573
41149W        W 6376  18.345  28.360   1.445
41150W        W 6377  22.249  29.542   4.022
41151W        W 6378   9.131  35.461  14.931
41152W        W 6379  32.773  29.850  12.104
41153W        W 6380  41.745  37.083   0.836
41154W        W 6381  31.147  19.242   0.482
41155W        W 6382  39.327  37.379  10.036
41156W        W 6383  20.144  29.445  10.029
41157W        W 6384  25.084  15.620  12.999
41158W        W 6385  37.916   6.339   0.986
41159W        W 6386   6.466   8.680   4.265
41160W        W 6387  28.118  37.943   3.682
41161W        W 6388  41.542  10.091   0.485
41162W        W 6389  26.804  25.658   1.594
41163W        W 6390  30.822  26.922   3.553
41164W        W 6391  15.810  18.680  11.324
41165W        W 6392  42.038  19.352   1.466
41166W        W 6393  19.818  19.839   3.627
41167W        W 6394   4.838  33.538  11.052
41168W        W 6395  26.184  11.511   4.558
41169W        W 6396  30.103  30.122  10.629
41170W        W 6397  22.285  38.051   2.734
41171W        W 6398  22.088  18.512   3.702
41172W        W 6399   1.902  42.017  13.400
41173W        W 6400  32.746  13.571  13.479
41174W        W 6401  14.798  44.377   3.094
41175W        W 6402  40.666  34.628   4.111
41176W        W 6403  27.781  16.703  11.050
41177W        W 6404  30.226   5.656   3.256
41178W        W 6405   9.331  43.067  12.000
41179W        W 6406  14.722  10.420  10.736
41180W        W 6407  29.546  33.030   2.920
41181W        W 6408   8.770  20.075  13.958
41182W        W 6409  38.873   9.307  12.481
41183W        W 6410   0.329   9.307  13.075
41184W        W 6411  36.020  25.562  10.771
41185W        W 6412   5.160  22.224   3.553
41186W        W 6413  37.029  17.052   1.258
41187W        W 6414  14.353   8.863  11.602
41188W        W 6415  39.220  41.511   1.173
41189W        W 6416  35.329  30.720   0.758
41190W        W 6417  33.629  27.183  10.903
41191W        W 6418  31.848  39.594   3.207
41192W        W 6419  16.595  36.557   1.414
41193W        W 6420  20.658  32.808   2.328
41194W        W 6421  37.094  41.931   4.599
41195W        W 6422  18.597  19.388   4.467
41196W        W 6423  12.624  34.090   3.063
41197W        W 6424  43.273  37.633  14.322
41198W        W 6425  18.147   5.755  14.990
41199W        W 6426  40.324   1.937  10.657
41200W        W 6427  43.043   6.802  10.644
41201W        W 6428   4.293   4.176   4.373
41202W        W 6429  44.260   5.755  14.115
41203W        W 6430  41.336   0.608  12.947
41204W        W 6431   2.522   6.797   3.143
41205W        W 6432   4.450  27.944   2.654
41206W        W 6433  44.015  25.270   4.911
41207W        W 6434  32.773  17.690   2.783
41208W        W 6435   8.774  12.575  14.457
41209W        W 6436  26.408  42.366  13.582
41210W        W 6437   8.692  42.310  14.698
41211W        W 6438  42.251  12.612  12.870
41212W        W 6439  10.720  43.473   2.052
41213W        W 6440  13.180  22.578   3.914
41214W        W 6441  15.464  17.484  11.024
41215W        W 6442   1.551  28.533  13.600
41216W        W 6443   5.246   2.923  10.504
41217W        W 6444  10.707  18.674  12.151
41218W        W 6445  10.209  36.736  11.476
41219W        W 6446  21.148  28.443  11.140
41220W        W 6447   6.501  37.822   3.180
41221W        W 6448  20.858  43.007  12.654
41222W        W 6449  29.942  39.827   0.809
41223W        W 6450  20.586  44.948   1.840
41224W        W 6451  42.431  21.265   1.187
41225W        W 6452  32.133  43.816  14.625
41226W        W 6453  44.988  13.680  11.825
41227W        W 6454  37.289  12.695  12.080
41228W        W 6455  44.951  28.036  10.354
41229W        W 6456   6.808  26.425   1.372
41230W        W 6457  29.530  10.457   2.166
41231W        W 6458  43.579  34.515  13.910
41232W        W 6459  34.573  30.116  13.057
41233W        W 6460  19.577  44.221  14.945
41234W        W 6461  14.743  40.633  12.335
41235W        W 6462   2.759  26.991  14.149
41236W        W 6463   4.798   8.240   2.273
41237W        W 6464  24.564   0.123   1.848
41238W        W 6465   2.767  20.689   4.617
41239W        W 6466   4.640  34.287  13.288
41240W        W 6467  27.880   5.439  13.349
41241W        W 6468  22.181  40.895   1.449
41242W        W 6469   5.382  37.538   1.401
41243W        W 6470   3.018   5.897   2.212
41244W        W 6471   3.348   7.373   3.664
41245W        W 6472  42.724  15.234   3.211
41246W        W 6473  36.274  23.675   3.233
41247W        W 6474  29.216  28.924  11.581
41248W        W 6475   6.396   7.362   3.706
41249W        W 6476  35.269  32.482   4.553
41250W        W 6477   8.316  10.630   2.835
41251W        W 6478  42.444  32.977   4.590
41252W        W 6479  24.690  15.566  11.523
41253W        W 6480  33.976  23.067  10.748
41254W        W 6481  25.241   7.662  11.304
41255W        W 6482  13.031  34.840  12.041
41256W        W 6483  25.508  36.593  13.443
41257W        W 6484  26.004  39.533   0.729
41258W        W 6485   4.903  22.043   0.319
41259W        W 6486  11.202  26.743   2.373
41260W        W 6487  42.919   8.530  14.459
41261W        W 6488   3.468  17.385   2.777
41262W        W 6489  27.595   9.099   0.326
41263W        W 6490  10.113   4.510   2.058
41264W        W 6491  31.411   6.909   1.768
41265W        W 6492  22.988  40.894  10.583
41266W        W 6493  22.040  10.184  13.421
41267W        W 6494  14.257  26.993  11.995
41268W        W 6495  28.258   6.768  13.439
41269W        W 6496  28.960   5.951   0.204
41270W        W 6497  35.831   1.244  13.527
41271W        W 6498   2.345  41.761  13.426
41272W        W 6499   4.566  40.848  12.441
41273W        W 6500  22.153  10.455   2.301
41274W        W 6501  30.770   9.682  14.865
41275W        W 6502  28.051  24.101  10.719
41276W        W 6503   6.381  34.937   2.204
41277W        W 6504  20.464  11.086   2.194
41278W        W 6505  40.494  41.565  12.033
41279W        W 6506  10.244  11.044  12.890
41280W        W 6507  42.923  37.424   3.096
41281W        W 6508  22.461  23.953   4.566
41282W        W 6509  37.125   5.710   2.085
41283W        W 6510  23.482  41.887  14.984
41284W        W 6511  15.203  15.856  10.728
41285W        W 6512  44.355  18.344  10.296
41286W        W 6513  37.357  15.642  14.198
41287W        W 6514   7.258  34.240   4.173
41288W        W 6515  15.287  21.480  14.390
41289W        W 6516  33.121  22.771   1.942
41290W        W 6517  15.661  40.377   2.622
41291W        W 6518  21.514   5.024   5.062
41292W        W 6519  15.188  19.258  12.528
41293W        W 6520  41.336  16.860   4.515
41294W        W 6521  21.846  33.897   1.280
41295W        W 6522   8.228  14.225   4.104
41296W        W 6523  17.697  22.655   3.928
41297W        W 6524  13.864  37.810  14.351
41298W        W 6525  40.082  25.832  14.403
41299W        W 6526  42.927  18.728  12.846
41300W        W 6527  42.864  44.248   3.215
41301W        W 6528  10.113  37.365  12.761
41302W        W 6529   6.837   4.793  13.822
41303W        W 6530  41.306  18.190   0.223
41304W        W 6531  40.826  32.204  14.255
41305W        W 6532  21.256  31.137  13.363
41306W        W 6533  29.647  24.506  13.021
41307W        W 6534  35.469  30.348  12.147
41308W        W 6535  27.046  13.654  12.441
41309W        W 6536  40.723  42.210  10.721
41310W        W 6537  13.611  13.299   4.116
41311W        W 6538  24.530  41.238  12.358
41312W        W 6539   4.983   4.356   0.336
41313W        W 6540  15.538  12.139  13.413
41314W        W 6541  37.845  14.483  12.624
41315W        W 6542   3.144  10.310  14.442
41316W        W 6543  34.643  39.539  12.477
41317W        W 6544   9.723   9.100  11.119
41318W        W 6545   4.222   7.108   0.693
41319W        W 6546  22.545  31.927   3.197
41320W        W 6547   9.798  40.403  10.517
41321W        W 6548  21.479  43.305  13.016
41322W        W 6549  16.482   1.940   0.957
41323W        W 6550  31.897  11.239  14.976
41324W        W 6551   9.576  32.439  13.491
41325W        W 6552  41.205  26.038  13.314
41326W        W 6553  37.198  16.469   2.735
41327W        W 6554   8.747  40.288   4.091
41328W        W 6555   4.369  11.263   4.412
41329W        W 6556  13.259  22.603  14.630
41330W        W 6557  41.740  14.057  14.771
41331W        W 6558  20.048  44.227   3.355
41332W        W 6559   7.542   2.297   0.450
41333W        W 6560  12.833  26.133  14.433
41334W        W 6561  17.723  20.943  13.093
41335W        W 6562  16.920   1.042   3.181
41336W        W 6563   1.925  29.862  14.035
41337W        W 6564   2.239  17.085  11.154
41338W        W 6565  44.958  41.108   3.287
41339W        W 6566  17.089  12.040   0.300
41340W        W 6567   9.759  21.059  14.753
41341W        W 6568   6.648  36.232   2.223
41342W        W 6569  27.123   4.842  13.980
41343W        W 6570  31.599  30.348  12.573
41344W        W 6571  19.236  23.327   1.594
41345W        W 6572  17.520  19.266  11.115
41346W        W 6573   3.351  33.736  11.642
41347W        W 6574  36.441   1.294   4.640
41348W        W 6575  41.986  27.711   1.262
41349W        W 6576  41.736  19.584  13.173
41350W        W 6577  18.029  18.860  12.459
41351W        W 6578  29.606   7.957  14.498
41352W        W 6579   0.807  16.412  10.388
41353W        W 6580  15.691  30.625  12.118
41354W        W 6581  20.702  28.934  11.717
41355W        W 6582  17.742   9.367  12.261
41356W        W 6583  33.937  19.798   4.176
41357W        W 6584   8.665   0.713   3.748
41358W        W 6585   8.827   5.693  13.884
41359W        W 6586  33.458   3.204   2.322
41360W        W 6587  32.875  34.894  12.852
41361W        W 6588   7.845   9.369  14.368
41362W        W 6589  34.849  26.760  11.552
41363W        W 6590   1.461  18.563   4.098
41364W        W 6591  17.184  41.707  11.174
41365W        W 6592  40.973   6.504   1.131
41366W        W 6593   1.174  25.252   4.562
41367W        W 6594  10.064  32.210  11.546
41368W        W 6595  22.991  10.622   1.174
41369W        W 6596  24.740  30.778   2.666
41370W        W 6597  14.732  31.420  11.209
41371W        W 6598  28.245   1.878   4.184
41372W        W 6599  16.452  15.005   0.304
41373W        W 6600  22.371  37.185   1.193
41374W        W 6601  43.313  11.583   0.364
41375W        W 6602   6.800  16.071  14.337
41376W        W 6603  27.476  28.058   1.389
41377W        W 6604  31.577  19.756   2.634
41378W        W 6605  17.958  25.576  14.943
41379W        W 6606  42.502   8.321  10.574
41380W        W 6607  10.305  26.666  11.628
41381W        W 6608  37.340  16.611  13.822
41382W        W 6609  18.320   3.967   1.786
41383W        W 6610  16.505   0.777  13.540
41384W        W 6611  30.888   5.848  13.489
41385W        W 6612  32.021  19.481   2.814
41386W        W 6613   1.162  43.168   1.369
41387W        W 6614  37.790  39.391   3.279
41388W        W 6615  27.459  44.551  10.714
41389W        W 6616  31.404  28.631   5.631
41390W        W 6617  40.914  31.665  11.521
41391W        W 6618  22.278   5.648  12.483
41392W        W 6619  23.626  39.962  13.139
41393W        W 6620   2.188  39.368  12.210
41394W        W 6621  41.863   7.936  13.892
41395W        W 6622   2.614  24.313   5.029
41396W        W 6623   9.631   2.160  12.446
41397W        W 6624  30.392   8.238  12.592
41398W        W 6625  31.872   5.561  11.088
41399W        W 6626  41.331  28.424  11.106
41400W        W 6627   8.856   0.789   4.678
41401W        W 6628  15.459  13.112  11.236
41402W        W 6629  35.232   6.624   1.424
41403W        W 6630   5.513  18.644   4.925
41404W        W 6631  23.981  38.419  13.897
41405W        W 6632   0.275  32.082  11.611
41406W        W 6633  28.048  20.276   0.784
41407W        W 6634  30.405  22.205  12.089
41408W        W 6635   2.996  27.361  14.443
41409W        W 6636  26.499  25.106  12.137
41410W        W 6637  28.011  33.970  10.869
41411W        W 6638  21.227  28.169   1.840
41412W        W 6639  20.530  22.145   1.846
41413W        W 6640  39.525   5.099  10.441
41414W        W 6641   8.213  10.238   1.885
41415W        W 6642  40.421   7.900   2.413
41416W        W 6643   9.183   6.886  10.532
41417W        W 6644   1.864  32.961  13.351
41418W        W 6645  34.018  40.370  14.336
41419W        W 6646   2.305   4.191  13.304
41420W        W 6647  15.734   8.604  12.981
41421W        W 6648  25.617  23.704   3.268
41422W        W 6649  34.484  29.730  10.814
41423W        W 6650   2.160  13.709  11.076
41424W        W 6651   9.997  14.587   1.191
41425W        W 6652   6.316  40.693  11.960
41426W        W 6653  12.826   7.838   3.199
41427W        W 6654  24.698  42.978  11.134
41428W        W 6655   8.594  21.627  12.228
41429W        W 6656   2.947  36.592   3.742
41430W        W 6657   4.943  15.760   5.074
41431W        W 6658  27.976  34.918  12.007
41432W        W 6659   6.488   5.376  12.697
41433W        W 6660   2.357  39.139   4.832
41434W        W 6661  27.126  44.292   2.844
41435W        W 6662   1.842  33.449  14.999
41436W        W 6663  37.466   7.945  13.885
41437W        W 6664   5.222  12.863  11.910
41438W        W 6665  18.498  36.988   4.825
41439W        W 6666  27.005  18.694   0.823
41440W        W 6667  16.845  31.039   0.263
41441W        W 6668  21.599  37.918   4.710
41442W        W 6669  30.930   9.481   2.468
41443W        W 6670  21.187  19.635  13.197
41444W        W 6671  22.310  24.188  10.548
41445W        W 6672   4.525  33.122  12.097
41446W        W 6673  17.210  28.979  10.306
41447W        W 6674  39.854  16.725   2.044
41448W        W 6675   2.546   9.347  12.951
41449W        W 6676  16.774  27.173   0.042
41450W        W 6677  44.456  17.288  10.280
41451W        W 6678  21.932   3.908  12.875
41452W        W 6679  33.476   2.405   3.610
41453W        W 6680  30.572  37.457   1.479
41454W        W 6681  20.720  25.681   2.221
41455W        W 6682  21.763  10.724  12.486
41456W        W 6683  13.353  28.089   0.264
41457W        W 6684   1.764  14.211  13.884
41458W        W 6685   6.520  20.563  12.979
41459W        W 6686   1.890  35.324   2.778
41460W        W 6687  33.588  17.150  11.564
41461W        W 6688  12.194  23.439  11.881
41462W        W 6689  35.835  25.430   3.724
41463W        W 6690  29.913  16.819   1.921
41464W        W 6691  23.130  27.507  14.713
41465W        W 6692  34.576  25.564   3.252
41466W        W 6693  18.075  20.338  11.500
41467W        W 6694  29.393   0.056  11.223
41468W        W 6695  25.680  25.435  11.516
41469W        W 6696  23.545  11.154   0.441
41470W        W 6697  39.814  15.384  11.617
41471W        W 6698  42.451  28.353   4.824
41472W        W 6699  24.953  15.347   2.568
41473W        W 6700   4.223  27.644   2.300
41474W        W 6701  15.794  15.698   2.603
41475W        W 6702  41.971   0.035  13.274
41476W        W 6703  30.441  42.761  13.902
41477W        W 6704  36.324   3.832   0.854
41478W        W 6705  28.027  38.554   1.609
41479W        W 6706  23.758  23.097  11.468
41480W        W 6707  38.295  13.106  13.380
41481W        W 6708  29.613   0.195  13.366
41482W        W 6709   4.941   0.888   1.730
41483W        W 6710   2.706  22.111  11.105
41484W        W 6711  43.055  38.495   2.770
41485W        W 6712   9.162  38.892   4.848
41486W        W 6713  28.246  21.246   1.645
41487W        W 6714  27.518  21.319  11.114
41488W        W 6715  34.963  29.117  10.373
41489W        W 6716  42.911  35.879  13.816
41490W        W 6717  27.984  41.913   1.367
41491W        W 6718   7.705  44.111   2.306
41492W        W 6719  16.346  41.951   1.134
41493W        W 6720   6.659  44.101  10.850
41494W        W 6721  33.972   3.878  11.915
41495W        W 6722  30.168  34.172   0.984
41496W        W 6723  30.679  31.404  10.574
41497W        W 6724  28.428   6.189   2.247
41498W        W 6725   9.300   3.212   0.269
41499W        W 6726   8.035  12.803  11.444
41500W        W 6727  14.827  43.719   4.733
41501W        W 6728  27.526  29.350   3.771
41502W        W 6729  24.652  38.406  11.690
41503W        W 6730   3.849   8.799  13.443
41504W        W 6731  40.376  29.767   0.080
41505W        W 6732  13.693   4.972  13.841
41506W        W 6733   4.246   5.883  14.218
41507W        W 6734  33.101   4.831  11.928
41508W        W 6735   9.161  25.725   0.796
41509W        W 6736  22.276  21.056  12.003
41510W        W 6737  32.836  21.755  11.167
41511W        W 6738   9.066  29.490   1.827
41512W        W 6739  44.095  34.889   2.674
41513W        W 6740   5.384  31.878  14.276
41514W        W 6741  15.109  37.517  14.457
41515W        W 6742  17.635   8.397   0.833
41516W        W 6743  16.041   2.055   3.895
41517W        W 6744  25.166   4.686  12.456
41518W        W 6745  22.148  38.624   3.594
41519W        W 6746  19.248  21.782   3.774
41520W        W 6747  32.016  35.758   3.099
41521W        W 6748  36.602  34.283  13.795
41522W        W 6749  33.572   6.935  14.886
41523W        W 6750  21.326  32.596   0.564
41524W        W 6751  34.093  26.681  12.424
41525W        W 6752  15.195  26.413  13.095
41526W        W 6753  35.982  38.578   3.685
41527W        W 6754  11.336  20.037   2.215
41528W        W 6755   9.035  40.702   4.095
41529W        W 6756  14.718  36.203   1.790
41530W        W 6757   1.408   0.182   0.476
41531W        W 6758  16.613  21.885  14.877
41532W        W 6759  25.149   8.350   4.410
41533W        W 6760  41.445  43.496  10.662
41534W        W 6761  26.161  17.095   2.344
41535W        W 6762  35.813   3.753  14.900
41536W        W 6763  10.818   3.241   4.159
41537W        W 6764   2.406  13.044   4.031
41538W        W 6765   8.437  32.384   3.611
41539W        W 6766  18.846  37.541  10.985
41540W        W 6767  19.074  25.028  12.200
41541W        W 6768  42.230  39.850   4.593
41542W        W 6769  31.113  10.734   1.205
41543W        W 6770  36.681   2.020   2.908
41544W        W 6771  32.212  25.174  10.821
41545W        W 6772  34.542  36.683  10.314
41546W        W 6773  38.489   2.094  12.009
41547W        W 6774  16.774  33.861   1.588
41548W        W 6775   1.215  44.785  13.956
41549W        W 6776   1.476  44.826   2.321
41550W        W 6777  39.840  25.053   0.427
41551W        W 6778  20.692  41.828   1.178
41552W        W 6779   3.309  34.911   4.558
41553W        W 6780  40.199  14.793  12.300
41554W        W 6781  31.003  11.238  14.902
41555W        W 6782  44.718  44.503   2.339
41556W        W 6783  21.087  39.332   1.355
41557W        W 6784  26.167  33.511   1.814
41558W        W 6785  19.785  11.035  14.922
41559W        W 6786   5.421   7.444   3.617
41560W        W 6787  21.047  40.402   1.354
41561W        W 6788  20.815  24.040   1.327
41562W        W 6789  27.625  31.750   2.132
41563W        W 6790  16.281  33.403  14.895
41564W        W 6791  33.394   1.045  12.994
41565W        W 6792  25.552  11.090  12.971
41566W        W 6793  21.209  31.203  14.926
41567W        W 6794  32.534  40.167  11.094
41568W        W 6795  18.281  26.150  13.844
41569W        W 6796  43.517  32.691  13.045
41570W        W 6797  35.982  13.686   2.693
41571W        W 6798  24.996  37.999  13.954
41572W        W 6799  17.989  32.288   2.030
41573W        W 6800  18.225  26.427  14.900
41574W        W 6801   8.957  19.189  12.911
41575W        W 6802  44.924  36.914   2.364
41576W        W 6803  23.419  18.822   0.066
41577W        W 6804  11.666  42.075   4.518
41578W        W 6805  29.400   8.693   1.474
41579W        W 6806  12.083  34.963  14.839
41580W        W 6807  27.860  15.063   3.941
41581W        W 6808   1.207  17.082  12.422
41582W        W 6809  41.904  35.751   5.214
41583W        W 6810  40.820   0.638   0.961
41584W        W 6811  10.384  37.571   2.073
41585W        W 6812  26.069   7.841   0.250
41586W        W 6813  20.495  23.037   4.819
41587W        W 6814  16.902  40.434   2.629
41588W        W 6815  19.591  30.999  10.988
41589W        W 6816  22.001  31.836  14.941
41590W        W 6817  30.595  43.291   2.731
41591W        W 6818  23.238  32.991   2.830
41592W        W 6819  26.680  18.477   3.997
41593W        W 6820   9.748  38.093   3.606
41594W        W 6821  16.673  26.422   3.720
41595W        W 6822  37.887  44.096   2.137
41596W        W 6823  12.157  20.196   3.024
41597W        W 6824  27.442  28.216  12.921
41598W        W 6825  27.070  37.084   2.236
41599W        W 6826  14.278  27.727   2.369
41600W        W 6827   6.904  17.592  13.413
41601W        W 6828   0.923  33.647   3.236
41602W        W 6829  30.900   8.838  12.111
41603W        W 6830  34.426  11.903  13.402
41604W        W 6831   1.608  18.657   1.861
41605W        W 6832   8.706  41.980   0.093
41606W        W 6833  23.972  32.132   1.356
41607W        W 6834  19.300  20.496   3.314
41608W        W 6835   0.651  34.097  11.385
41609W        W 6836  41.040  29.867   4.433
41610W        W 6837   2.852  21.599  11.522
41611W        W 6838  44.735   3.662  11.574
41612W        W 6839  39.988  21.632   3.141
41613W        W 6840  12.253   6.222  11.194
41614W        W 6841   1.364  18.792  13.094
41615W        W 6842  21.535  19.690   0.941
41616W        W 6843  18.489   0.538   0.502
41617W        W 6844  23.730   9.076   1.670
41618W        W 6845  42.824  32.417  11.072
41619W        W 6846  28.097   6.558   4.053
41620W        W 6847  35.312   2.741  12.295
41621W        W 6848  13.377  38.498  13.844
41622W        W 6849  36.042  10.698   3.802
41623W        W 6850  11.938  12.489   3.798
41624W        W 6851  40.851  22.696   0.823
41625W        W 6852  16.200  19.132   4.984
41626W        W 6853  11.806   2.841   3.792
41627W        W 6854  11.532  15.661  12.535
41628W        W 6855   9.055  31.458   2.161
41629W        W 6856  18.603   0.156   0.168
41630W        W 6857   4.824  15.818  10.544
41631W        W 6858  31.717  27.797  10.283
41632W        W 6859   6.078  23.465  11.534
41633W        W 6860  16.165  19.951   4.615
41634W        W 6861  33.797   1.216  11.150
41635W        W 6862  29.996   2.805  14.930
41636W        W 6863   7.885   1.137   1.921
41637W        W 6864   7.984  27.843   1.734
41638W        W 6865  38.425   2.714  14.783
41639W        W 6866  11.042  38.088   4.259
41640W        W 6867  23.453  17.719   2.664
41641W        W 6868   4.721   8.980   0.415
41642W        W 6869  26.684  38.099  10.941
41643W        W 6870  39.449  39.941   3.914
41644W        W 6871  32.512  41.738   3.398
41645W        W 6872  26.139  10.079   4.893
41646W        W 6873  35.037  36.814  12.912
41647W        W 6874  18.891  15.043  11.758
41648W        W 6875  18.745   8.474  13.375
41649W        W 6876  21.058  32.161   2.835
41650W        W 6877  34.650  43.466   1.885
41651W        W 6878  37.751  31.539  12.774
41652W        W 6879  43.697  27.879  12.249
41653W        W 6880  41.182  32.561  14.348
41654W        W 6881  21.557   1.184  13.424
41655W        W 6882  31.911  39.470  13.886
41656W        W 6883  35.036  28.795  11.591
41657W        W 6884  39.155  21.916  11.385
41658W        W 6885   7.820   4.068  10.715
41659W        W 6886  28.450  10.636   2.910
41660W        W 6887  24.049  11.659   3.493
41661W        W 6888   1.238  29.678   2.790
41662W        W 6889  42.352  13.791  11.210
41663W        W 6890  41.027  31.463  10.750
41664W        W 6891  28.852  41.021   0.339
41665W        W 6892   3.463  14.393   4.550
41666W        W 6893  32.687   7.668   0.554
41667W        W 6894   4.230  30.982   4.277
41668W        W 6895   9.404  44.868  14.809
41669W        W 6896   3.665   5.649  12.565
41670W        W 6897   4.923  38.682  14.528
41671W        W 6898  15.097  19.100  11.691
41672W        W 6899   2.231  36.636  12.967
41673W        W 6900   4.438  24.990   1.830
41674W        W 6901   9.788  33.622  11.066
41675W        W 6902  27.934  25.135  13.849
41676W        W 6903  43.378  17.617  14.717
41677W        W 6904  26.513  43.279  13.323
41678W        W 6905  12.856   3.932   4.208
41679W        W 6906  16.123   6.197  11.162
41680W        W 6907   3.010  26.163  10.938
41681W        W 6908  25.915  40.825   3.566
41682W        W 6909  21.673   2.088  11.532
41683W        W 6910  33.972  39.346   2.641
41684W        W 6911  10.993  14.880  10.119
41685W        W 6912  33.416   8.239   0.495
41686W        W 6913  19.281   2.413   0.714
41687W        W 6914  25.257  25.503  12.183
41688W        W 6915  27.381   9.918  14.948
41689W        W 6916  25.948  32.823   0.749
41690W        W 6917  10.220   6.917  11.677
41691W        W 6918   4.662   9.382   2.975
41692W        W 6919   4.941  31.581   4.390
41693W        W 6920  42.339  44.421  10.725
41694W        W 6921  27.120  28.367   1.771
41695W        W 6922  35.971   9.371   4.173
41696W        W 6923  35.429   3.868  10.512
41697W        W 6924  12.528  44.409   3.739
41698W        W 6925  41.078  35.073  10.740
41699W        W 6926  28.301  43.038   0.022
41700W        W 6927  32.424  38.398   2.756
41701W        W 6928  14.979   2.751  11.673
41702W        W 6929  25.986  16.067   2.384
41703W        W 6930  31.765   1.385   2.277
41704W        W 6931  11.232  41.029  14.806
41705W        W 6932  12.899  31.080  12.438
41706W        W 6933  36.011  37.854  14.671
41707W        W 6934  27.678  17.904  12.004
41708W        W 6935  37.502  41.334  11.137
41709W        W 6936   4.812  37.285  14.943
41710W        W 6937   8.718  19.835   3.163
41711W        W 6938  36.736   5.181  11.138
41712W        W 6939  44.511  12.173  12.407
41713W        W 6940  19.675  28.150   3.688
41714W        W 6941  44.560  24.703  13.916
41715W        W 6942   1.736   5.885  13.576
41716W        W 6943  34.426  44.298  12.166
41717W        W 6944  34.580  35.055   3.741
41718W        W 6945  35.704  26.181   1.165
41719W        W 6946  22.084  14.055   1.719
41720W        W 6947  17.119  30.135   4.251
41721W        W 6948  44.441  41.034  13.518
41722W        W 6949  19.101  22.582   0.489
41723W        W 6950  24.699  24.992   3.489
41724W        W 6951   3.470  33.659   0.561
41725W        W 6952  30.423  18.288  14.902
41726W        W 6953  33.940  15.219  12.988
41727W        W 6954  26.554  44.340   3.311
41728W        W 6955  11.263  27.931  13.810
41729W        W 6956  42.296  21.474   4.115
41730W        W 6957   8.437   9.671  11.263
41731W        W 6958  18.667  23.125  12.414
41732W        W 6959   9.328  23.079  13.846
41733W        W 6960   8.803  25.826   3.357
41734W        W 6961  10.934  18.109   0.654
41735W        W 6962  26.246  17.233   4.448
41736W        W 6963  11.590  20.828  14.409
41737W        W 6964  13.392   6.352  13.950
41738W        W 6965  21.289  11.923   1.271
41739W        W 6966  36.535   3.338  12.895
41740W        W 6967  30.646  22.588  12.364
41741W        W 6968   5.655  23.153  14.256
41742W        W 6969  40.492  10.082  12.505
41743W        W 6970   1.828  16.117   4.666
41744W        W 6971   7.922  43.623   3.171
41745W        W 6972   9.912  20.367   0.841
41746W        W 6973   5.375   4.465   1.801
41747W        W 6974  23.626   5.344   1.660
41748W        W 6975  41.550  26.474   2.220
41749W        W 6976   7.745  41.479  14.335
41750W        W 6977  19.409  29.619  10.441
41751W        W 6978  19.425  22.661  12.057
41752W        W 6979   0.485  23.371   4.151
41753W        W 6980  37.581  30.988   2.423
41754W        W 6981   1.451  14.864  11.449
41755W        W 6982   8.445  18.861  12.553
41756W        W 6983   2.397  17.004   2.976
41757W        W 6984   5.170  15.083   3.097
41758W        W 6985  20.006   4.831   4.196
41759W        W 6986  10.119  25.138   1.856
41760W        W 6987  18.687  29.569   0.141
41761W        W 6988  20.666  33.872   0.854
41762W        W 6989  12.253  21.043  13.948
41763W        W 6990  37.307   1.131  14.695
41764W        W 6991  22.485   9.504   3.025
41765W        W 6992  13.824   7.028  14.480
41766W        W 6993  16.876  21.820   0.320
41767W        W 6994  37.001  27.877  13.485
41768W        W 6995  25.604  11.943   3.368
41769W        W 6996  36.021   6.438  11.569
41770W        W 6997  34.899  30.422   0.725
41771W        W 6998   0.035   0.438   0.481
41772W        W 6999   3.443  15.320   2.702
41773W        W 7000  42.107   6.506  14.873
41774W        W 7001   6.382  13.145  14.905
41775W        W 7002  38.796   1.405   3.267
41776W        W 7003  19.754  10.959  10.697
41777W        W 7004   2.967   5.453   1.939
41778W        W 7005  14.841  25.687   1.328
41779W        W 7006  17.246   7.258   5.041
41780W        W 7007  40.874  10.729  12.927
41781W        W 7008  19.841   0.018   3.380
41782W        W 7009  26.562  40.353   1.451
41783W        W 7010   7.554  30.515   4.138
41784W        W 7011  28.222   4.279  14.375
41785W        W 7012  38.755  26.103  13.372
41786W        W 7013   9.319  42.245   3.181
41787W        W 7014   3.027   7.485  12.648
41788W        W 7015  32.330  23.103  14.933
41789W        W 7016  24.711  39.869   4.357
41790W        W 7017  43.307  17.856   0.665
41791W        W 7018  12.038  36.214   1.981
41792W        W 7019  27.645   6.879  11.606
41793W        W 7020  42.440  26.245   0.754
41794W        W 7021   8.673   1.831  13.705
41795W        W 7022  21.354  35.158   4.593
41796W        W 7023   6.687  18.052  13.350
41797W        W 7024  36.256  11.575  10.569
41798W        W 7025  28.385   2.136   3.070
41799W        W 7026  10.807  42.086   4.171
41800W        W 7027  35.999  22.819  12.439
41801W        W 7028   0.454  25.911   5.421
41802W        W 7029  22.491   6.820   3.835
41803W        W 7030  25.955  14.101   2.883
41804W        W 7031  25.723  13.566   4.180
41805W        W 7032   8.331  11.338  10.964
41806W        W 7033  12.748  27.111  12.376
41807W        W 7034  25.453  43.622   4.653
41808W        W 7035  34.483  15.547   3.513
41809W        W 7036  24.896   3.198  12.907
41810W        W 7037  12.650  37.615  14.432
41811W        W 7038  24.260  25.148  13.008
41812W        W 7039   5.687  37.080   4.587
41813W        W 7040  35.581  12.155  13.896
41814W        W 7041  13.380  29.528   3.284
41815W        W 7042  19.020  36.260   2.336
41816W        W 7043  11.540   3.770   4.945
41817W        W 7044  15.294  43.067   3.697
41818W        W 7045  25.985   9.167  14.016
41819W        W 7046  39.188  40.365   3.743
41820W        W 7047  22.732  19.725  14.343
41821W        W 7048  39.914   3.586  10.485
41822W        W 7049   0.010   4.764  14.991
41823W        W 7050  41.746  32.903  12.634
41824W        W 7051   3.566   7.494  14.343
41825W        W 7052  23.659  20.741  12.920
41826W        W 7053  38.905  20.628  11.872
41827W        W 7054  31.219  29.349  13.981
41828W        W 7055   6.167   1.333   1.222
41829W        W 7056  44.471   2.870   1.438
41830W        W 7057  42.798   9.483   0.524
41831W        W 7058  13.324   2.045  10.821
41832W        W 7059   1.651  16.576   4.567
41833W        W 7060   8.641   2.938   1.309
41834W        W 7061  27.253  34.093   3.297
41835W        W 7062  19.049  14.383  13.400
41836W        W 7063  35.008  40.220  10.428
41837W        W 7064  28.556  38.416   2.315
41838W        W 7065  42.338  11.080   3.225
41839W        W 7066  15.904   7.931   3.786
41840W        W 7067  35.618   9.859  13.543
41841W        W 7068  28.475  10.048  14.914
41842W        W 7069  34.085  44.071   0.451
41843W        W 7070  17.105  21.038   1.435
41844W        W 7071  16.124  25.190  13.545
41845W        W 7072   3.282  22.210   1.644
41846W        W 7073  36.823  23.640  12.662
41847W        W 7074  34.984  42.782  10.465
41848W        W 7075   8.280  30.946  12.270
41849W        W 7076  19.306  26.375  14.071
41850W        W 7077  12.847  24.117   4.073
41851W        W 7078  24.991  34.476   4.741
41852W        W 7079  37.965  33.787  13.133
41853W        W 7080  38.999  30.636   3.117
41854W        W 7081  37.198  17.246  13.386
41855W        W 7082  14.532  40.766   9.817
41856W        W 7083  35.211   9.161  12.323
41857W        W 7084  44.002  26.499   2.679
41858W        W 7085  20.122  14.387   2.670
41859W        W 7086  21.134  38.994  14.075
41860W        W 7087  16.151  43.332   4.066
41861W        W 7088  22.663  19.075   0.457
41862W        W 7089   9.241  32.848  11.433
41863W        W 7090  21.642  14.320  10.668
41864W        W 7091  44.633  17.325   0.194
41865W        W 7092  14.252  30.963   1.860
41866W        W 7093  22.498  26.740  14.888
41867W        W 7094  27.138  16.734   4.305
41868W        W 7095  33.069   6.657  13.901
41869W        W 7096  37.987  37.583  10.503
41870W        W 7097  28.978  40.075   3.686
41871W        W 7098  40.134  30.406   4.542
41872W        W 7099  20.559  36.412  11.243
41873W        W 7100  12.410  33.861  11.178
41874W        W 7101  40.576  20.151  12.948
41875W        W 7102  42.869  24.303   2.713
41876W        W 7103  35.935   9.435   0.185
41877W        W 7104  11.072  37.375   3.590
41878W        W 7105  17.084  25.840   4.931
41879W        W 7106  36.391  27.310  10.713
41880W        W 7107  30.426  30.494   1.762
41881W        W 7108  21.102  31.355   3.312
41882W        W 7109  21.215   2.762   3.422
41883W        W 7110  28.448  19.727  13.827
41884W        W 7111  36.409  10.160   0.008
41885W        W 7112   0.289  30.677   0.846
41886W        W 7113  42.076  25.172  13.016
41887W        W 7114  20.246  12.344  13.957
41888W        W 7115  38.084   9.178  13.627
41889W        W 7116  25.123   4.720   5.115
41890W        W 7117   5.699   8.256   1.845
41891W        W 7118   5.743  20.230   4.266
41892W        W 7119  25.236  17.345   0.589
41893W        W 7120  20.626  26.760   1.397
41894W        W 7121  25.759   6.722   1.294
41895W        W 7122  20.179  15.220  12.712
41896W        W 7123  44.479  30.853   3.851
41897W        W 7124  37.938  13.569  14.397
41898W        W 7125  10.620  12.261   3.742
41899W        W 7126  14.886  17.338   1.796
41900W        W 7127  39.574  32.997  14.049
41901W        W 7128  30.675  44.562   2.166
41902W        W 7129  33.535  27.459  10.354
41903W        W 7130  43.273  34.557  11.616
41904W        W 7131   5.925  24.791  12.304
41905W        W 7132  30.630  35.334  10.923
41906W        W 7133  20.025   0.712   5.045
41907W        W 7134  15.092  33.066   2.231
41908W        W 7135  36.987  38.479  10.675
41909W        W 7136  39.837  32.564   0.751
41910W        W 7137  42.416  31.386  13.020
41911W        W 7138   2.380  16.273  10.610
41912W        W 7139  31.450  22.723  13.895
41913W        W 7140  17.686   5.253   4.171
41914W        W 7141  18.972  11.411  14.397
41915W        W 7142  22.362  10.977   0.538
41916W        W 7143   3.919  21.123   1.033
41917W        W 7144  13.625   9.809  14.829
41918W        W 7145   4.941   4.696   4.556
41919W        W 7146  44.100  26.127   0.477
41920W        W 7147  14.979   5.082   1.518
41921W        W 7148  43.852  16.759  12.107
41922W        W 7149   2.495  37.611   3.700
41923W        W 7150   6.154  13.679   3.598
41924W        W 7151  44.148  34.010   0.328
41925W        W 7152  13.300  23.187  10.867
41926W        W 7153  25.681  10.638   4.647
41927W        W 7154   3.422  25.939   2.701
41928W        W 7155  20.973  32.161   0.380
41929W        W 7156  39.875  35.535  11.351
41930W        W 7157   9.691  21.302  13.695
41931W        W 7158  12.220  20.640  13.617
41932W        W 7159   5.597  38.919   0.345
41933W        W 7160  13.654  42.735   1.985
41934W        W 7161  41.627  14.427  10.338
41935W        W 7162  29.714  40.393   2.535
41936W        W 7163  42.287  11.086   2.310
41937W        W 7164  15.947  19.538   0.450
41938W        W 7165  30.506   6.610  10.801
41939W        W 7166  14.262   1.310   1.366
41940W        W 7167   7.399  13.610  14.380
41941W        W 7168  19.985  44.695   0.295
41942W        W 7169  20.602  22.984  14.534
41943W        W 7170  30.444  18.804  14.889
41944W        W 7171   8.312   7.709   4.642
41945W        W 7172   8.697  11.612   0.737
41946W        W 7173  14.531  23.180   2.659
41947W        W 7174  28.237   6.428   4.542
41948W        W 7175  21.024  10.192   1.738
41949W        W 7176  38.343  14.785  12.650
41950W        W 7177   9.432  28.856  13.413
41951W        W 7178  13.541  23.861   1.149
41952W        W 7179  37.009  18.645   3.404
41953W        W 7180   8.438  37.800  13.993
41954W        W 7181  21.776  22.709  14.945
41955W        W 7182   5.267   6.154  14.926
41956W        W 7183  29.785   3.637  12.643
41957W        W 7184  26.936  25.153   3.149
41958W        W 7185  41.350  15.850   2.681
41959W        W 7186  28.497  20.581  10.738
41960W        W 7187  42.798  42.944   3.545
41961W        W 7188  29.610  12.159   4.094
41962W        W 7189  10.455   2.924   0.958
41963W        W 7190   0.742  24.048  12.079
41964W        W 7191   4.062  39.037   0.512
41965W        W 7192  37.611  26.534  10.747
41966W        W 7193  25.130  23.156   4.038
41967W        W 7194  37.374  40.465  11.197
41968W        W 7195  28.486  40.233   0.439
41969W        W 7196   1.184  19.144   1.894
41970W        W 7197  21.625  36.514   1.263
41971W        W 7198  31.617  40.887  14.537
41972W        W 7199  44.404  23.292  14.028
41973W        W 7200  39.915   9.288   3.525
41974W        W 7201  19.257  41.331   1.808
41975W        W 7202   0.440  27.276  12.951
41976W        W 7203  34.985  37.979   5.570
41977W        W 7204  43.290  36.068   2.537
41978W        W 7205  39.008  29.515  13.014
41979W        W 7206  13.922  30.813  12.902
41980W        W 7207  24.516  22.631  11.099
41981W        W 7208   2.424  40.402  12.025
41982W        W 7209  44.752  36.673  13.887
41983W        W 7210   0.412  17.703   2.234
41984W        W 7211  28.096  37.144  10.676
41985W        W 7212  18.690  26.981  13.103
41986W        W 7213  22.436  42.119   4.636
41987W        W 7214  10.621   6.519   1.787
41988W        W 7215  18.421   5.438   0.364
41989W        W 7216  30.129  16.715   5.021
41990W        W 7217  32.304  28.569   2.712
41991W        W 7218  20.030   3.555   4.523
41992W        W 7219  21.110   5.281   3.210
41993W        W 7220   6.956  39.459  14.980
41994W        W 7221  28.988  37.746   4.089
41995W        W 7222  27.497  33.407  12.991
41996W        W 7223   0.243  23.092   1.904
41997W        W 7224  40.764  31.498  11.976
41998W        W 7225  12.438   4.954   0.691
41999W        W 7226  41.676   7.701   4.067
42000W        W 7227  44.552  24.139  14.439
42001W        W 7228  33.521  16.603   3.169
42002W        W 7229  42.895  42.625   4.534
42003W        W 7230   0.208  20.089   9.806
42004W        W 7231  19.796  44.754  12.069
42005W        W 7232  26.198  41.030  12.529
42006W        W 7233   1.428  26.082  13.134
42007W        W 7234  42.048   9.258   4.948
42008W        W 7235  30.483  32.402  13.416
42009W        W 7236  20.536  39.254  14.785
42010W        W 7237  32.535  30.041  13.981
42011W        W 7238  41.924  40.991   4.283
42012W        W 7239   9.183  31.921  12.911
42013W        W 7240  12.830  36.620  12.041
42014W        W 7241  18.786  32.446  10.762
42015W        W 7242  16.180   8.127  14.878
42016W        W 7243  27.300  39.972   3.204
42017W        W 7244  39.316  29.257  13.334
42018W        W 7245  35.861  34.064  14.859
42019W        W 7246   9.616  11.263   2.813
42020W        W 7247  16.735   6.688   2.571
42021W        W 7248   3.810  37.531   4.259
42022W        W 7249  20.683   8.911  13.181
42023W        W 7250  12.294  40.506  12.446
42024W        W 7251  43.681  32.212  14.545
42025W        W 7252  13.350  28.015   3.013
42026W        W 7253  42.851  11.776   3.016
42027W        W 7254   9.834   5.895   3.189
42028W        W 7255  32.734  42.409  10.956
42029W        W 7256  37.012  38.570   4.730
42030W        W 7257  30.068  43.534  14.359
42031W        W 7258   8.337  11.741   2.607
42032W        W 7259  22.688  25.911   0.272
42033W        W 7260  39.260  41.429  13.953
42034W        W 7261  36.100   4.782   3.559
42035W        W 7262  38.931   2.412   0.798
42036W        W 7263   6.216  29.965   1.831
42037W        W 7264  17.996  44.343  13.983
42038W        W 7265   4.187  10.937  13.760
42039W        W 7266  42.162  15.697   3.726
42040W        W 7267  15.600  29.322  11.177
42041W        W 7268  44.616  41.587  13.455
42042W        W 7269   6.302  30.128   4.617
42043W        W 7270  38.918  38.833   0.250
42044W        W 7271  12.720  21.001   1.407
42045W        W 7272  13.119   9.115   3.258
42046W        W 7273  23.985  10.618   3.666
42047W        W 7274  13.986  25.675  13.019
42048W        W 7275  19.921   2.277   4.459
42049W        W 7276  32.588  15.866  11.228
42050W        W 7277   9.091   4.762  14.983
42051W        W 7278  23.188  36.517   3.863
42052W        W 7279  36.557   0.466   4.303
42053W        W 7280  11.399  37.369   0.753
42054W        W 7281  14.779  37.223   2.769
42055W        W 7282  30.562   6.469  12.102
42056W        W 7283  43.087  11.337   3.722
42057W        W 7284  23.753  35.969   0.422
42058W        W 7285  36.022  38.026  12.162
42059W        W 7286  16.044  36.324   3.475
42060W        W 7287   2.802  19.104   5.134
42061W        W 7288  29.841   6.457  11.160
42062W        W 7289  30.197  28.013   0.842
42063W        W 7290   6.827  13.252   1.180
42064W        W 7291   0.805  41.952  12.799
42065W        W 7292  38.805  39.965  12.460
42066W        W 7293  18.480  16.987   1.007
42067W        W 7294  18.813  38.430   4.566
42068W        W 7295  22.518   2.363   0.435
42069W        W 7296  15.426  36.500   1.005
42070W        W 7297  41.918  29.478   3.576
42071W        W 7298  41.870  22.061  11.184
42072W        W 7299   4.839  18.121  14.762
42073W        W 7300  23.729  10.103   4.105
42074W        W 7301  43.436  16.347   3.797
42075W        W 7302  14.152   5.323  10.825
42076W        W 7303  21.972  40.784  14.945
42077W        W 7304  10.552  41.389  10.718
42078W        W 7305  23.154  42.350   1.842
42079W        W 7306  42.419   2.878   0.173
42080W        W 7307   2.210   7.903   1.023
42081W        W 7308  36.655  33.348  12.171
42082W        W 7309  17.319   8.932  13.864
42083W        W 7310  24.005  41.552   4.233
42084W        W 7311  11.456   3.255   3.877
42085W        W 7312   9.279  19.442  12.433
42086W        W 7313  42.366   8.385  12.020
42087W        W 7314  20.976  42.482  13.507
42088W        W 7315  28.454  12.274   3.173
42089W        W 7316   4.388   2.681  11.907
42090W        W 7317  23.573  34.047   4.296
42091W        W 7318  39.323  43.332  14.844
42092W        W 7319  34.146  15.402  10.531
42093W        W 7320  10.122  28.776  10.298
42094W        W 7321  14.170  12.761   1.814
42095W        W 7322  21.116  13.320   2.747
42096W        W 7323  10.296  38.071   1.933
42097W        W 7324  19.561  26.594   0.771
42098W        W 7325  15.113  31.350  10.424
42099W        W 7326  16.673  37.992  13.086
42100W        W 7327  28.194   5.681   0.160
42101W        W 7328  25.947  12.708   1.825
42102W        W 7329  36.149  24.481   0.754
42103W        W 7330  22.441  44.014   1.870
42104W        W 7331  13.808   1.969   0.336
42105W        W 7332  44.337  26.453   5.027
42106W        W 7333   9.797   6.487  12.015
42107W        W 7334   2.483  37.580  14.546
42108W        W 7335  15.165   1.749  13.890
42109W        W 7336  12.474  11.862   1.661
42110W        W 7337  43.497  25.254  10.749
42111W        W 7338  18.776  24.586   3.094
42112W        W 7339  12.078  14.239   4.070
42113W        W 7340  23.712  26.532  11.169
42114W        W 7341  42.316  19.805   1.387
42115W        W 7342  31.050  17.363   1.926
42116W        W 7343  18.015  39.503  11.981
42117W        W 7344   4.216  22.560  14.169
42118W        W 7345  18.171  39.809  12.663
42119W        W 7346  24.100  44.946   1.234
42120W        W 7347   4.662  14.485   1.777
42121W        W 7348   2.980   6.714   1.239
42122W        W 7349  12.073  32.062  12.042
42123W        W 7350  26.421  14.820   1.899
42124W        W 7351   9.306  23.806   1.498
42125W        W 7352  31.093  10.417  14.465
42126W        W 7353  35.879  22.649  11.126
42127W        W 7354   0.420  22.773   2.297
42128W        W 7355  17.167  32.440  12.045
42129W        W 7356  22.796  13.588  12.537
42130W        W 7357  37.688  38.846  12.260
42131W        W 7358   5.371   7.802  11.248
42132W        W 7359  15.121  21.174  12.008
42133W        W 7360  32.894   1.668  12.185
42134W        W 7361  23.035   1.463  12.588
42135W        W 7362  30.436  33.341   2.411
42136W        W 7363  38.797  37.811  14.811
42137W        W 7364  39.365  17.544   2.425
42138W        W 7365  41.279  44.121  11.641
42139W        W 7366  17.475   5.103   3.175
42140W        W 7367  12.190   2.691  11.451
42141W        W 7368  13.659  41.033  11.501
42142W        W 7369  20.460   0.206   4.528
42143W        W 7370  44.359   4.496  12.358
42144W        W 7371  12.834   5.362  13.889
42145W        W 7372  21.508   2.106   0.880
42146W        W 7373  20.836   8.304   2.586
42147W        W 7374  10.232   0.511  11.444
42148W        W 7375  41.724  21.376   4.537
42149W        W 7376  27.161  27.922   4.127
42150W        W 7377  33.567  30.541   1.706
42151W        W 7378  21.073  18.418   0.750
42152W        W 7379  17.615  13.105   3.617
42153W        W 7380  30.860  22.190   4.578
42154W        W 7381  31.953  25.511  14.743
42155W        W 7382  23.215  39.648   3.230
42156W        W 7383  28.106  36.280  11.063
42157W        W 7384  10.434  39.193   4.932
42158W        W 7385  21.622  38.380   2.381
42159W        W 7386   8.815   0.723  10.318
42160W        W 7387  13.733  26.375  13.596
42161W        W 7388  41.238  39.842   2.298
42162W        W 7389   6.626  26.960   4.148
42163W        W 7390   7.273  13.104  14.522
42164W        W 7391   6.697  17.082   1.069
42165W        W 7392  38.550  35.928   4.372
42166W        W 7393  30.060   8.456  13.860
42167W        W 7394  36.644  21.170  11.361
42168W        W 7395  43.306  16.353  14.043
42169W        W 7396  27.963   5.567   3.478
42170W        W 7397   0.642   1.789   0.828
42171W        W 7398  21.658   3.283   2.657
42172W        W 7399  32.501  42.293   4.302
42173W        W 7400  19.617  31.390   4.998
42174W        W 7401  28.964   4.209   3.547
42175W        W 7402   9.746   5.767  10.752
42176W        W 7403   0.365  41.027  10.878
42177W        W 7404  43.283  22.180   3.993
42178W        W 7405  35.046  35.469  12.019
42179W        W 7406  24.596  44.066   1.968
42180W        W 7407   1.736   1.435   4.299
42181W        W 7408  40.772  43.222  12.602
42182W        W 7409   4.343  19.598   0.010
42183W        W 7410  28.197  25.573  13.700
42184W        W 7411  30.879   8.467  10.565
42185W        W 7412  20.991  10.241   3.624
42186W        W 7413  10.232  15.054  11.086
42187W        W 7414   8.404  37.000  12.864
42188W        W 7415  25.775  19.172  14.362
42189W        W 7416  30.936  31.356   0.029
42190W        W 7417  26.563  35.011   4.141
42191W        W 7418  13.587  18.620  11.160
42192W        W 7419  21.793  19.609  14.507
42193W        W 7420   4.917  10.603  13.343
42194W        W 7421  39.615  10.645  14.761
42195W        W 7422  37.492   5.125  12.426
42196W        W 7423  14.659  22.199   1.914
42197W        W 7424  39.503  37.823  13.512
42198W        W 7425  44.884  44.224   1.945
42199W        W 7426  11.141  27.007  12.459
42200W        W 7427  30.665  38.127  12.547
42201W        W 7428  23.541  18.070  10.701
42202W        W 7429   2.909  35.342  13.498
42203W        W 7430  33.386   2.473   4.114
42204W        W 7431   8.190  42.074   3.797
42205W        W 7432   0.871   0.828   4.106
42206W        W 7433   3.843   4.323   2.392
42207W        W 7434   6.535  34.510   4.528
42208W        W 7435  27.401  20.088  10.688
42209W        W 7436  19.771  16.225   2.595
42210W        W 7437   9.078  15.885  10.785
42211W        W 7438  41.908  30.412   3.553
42212W        W 7439   5.740  17.055   3.058
42213W        W 7440  17.594   2.786   3.923
42214W        W 7441  27.030  42.092  11.655
42215W        W 7442   6.698  36.362   1.300
42216W        W 7443  44.926  24.477  10.671
42217W        W 7444  33.694   9.752   2.807
42218W        W 7445  11.630  11.659  14.490
42219W        W 7446  33.821  35.047  11.599
42220W        W 7447  43.266  32.017   1.273
42221W        W 7448   5.866  18.268  14.374
42222W        W 7449  19.203  20.033  14.169
42223W        W 7450  35.821  32.079  14.490
42224W        W 7451  26.978  35.301   1.795
42225W        W 7452   9.630  27.920  14.706
42226W        W 7453  30.860  41.919  12.789
42227W        W 7454  29.103  33.320   2.994
42228W        W 7455   9.419  43.935  10.984
42229W        W 7456  11.315  27.949  13.303
42230W        W 7457  37.072  16.753   0.768
42231W        W 7458  27.945  12.866  10.526
42232W        W 7459  43.207  11.095   1.331
42233W        W 7460   7.869   5.756  12.024
42234W        W 7461  10.899  16.242  10.587
42235W        W 7462   1.937  34.560   0.967
42236W        W 7463  29.550  36.396   4.099
42237W        W 7464  43.869  30.369   1.187
42238W        W 7465  14.797  36.792  11.117
42239W        W 7466  29.083  31.327  10.824
42240W        W 7467  38.970  17.965   4.133
42241W        W 7468  25.056  15.489   4.982
42242W        W 7469  28.096  22.657   4.483
42243W        W 7470  31.035  29.993   4.359
42244W        W 7471  32.790   7.342  13.363
42245W        W 7472   6.146  27.489   3.767
42246W        W 7473  35.938   2.388   2.037
42247W        W 7474  13.879  15.477  13.052
42248W        W 7475  41.800   4.282  12.447
42249W        W 7476  34.668   8.358   3.564
42250W        W 7477   3.356  17.639   1.363
42251W        W 7478  10.283   6.269  13.970
42252W        W 7479   0.745  38.268   0.827
42253W        W 7480  17.249   0.297  12.567
42254W        W 7481  22.581   3.045   1.201
42255W        W 7482   5.899   0.939  13.390
42256W        W 7483  13.203  43.679   2.930
42257W        W 7484  33.032  35.456  11.085
42258W        W 7485  15.076   6.853  11.638
42259W        W 7486  27.058  34.813  13.892
42260W        W 7487  14.219  14.569  11.227
42261W        W 7488   5.281   4.502   3.302
42262W        W 7489  25.048  23.506  12.057
42263W        W 7490  18.092  35.914  14.652
42264W        W 7491  21.552  29.204  11.435
42265W        W 7492  22.179   3.305   2.836
42266W        W 7493  41.010  15.322  14.470
42267W        W 7494  25.787  39.967   0.493
42268W        W 7495  31.325  23.338   2.247
42269W        W 7496  13.071  17.551  10.756
42270W        W 7497  17.170  15.064   2.234
42271W        W 7498  14.111   6.598  14.306
42272W        W 7499  11.233  28.308  14.812
42273W        W 7500  15.899  34.567   2.777
42274W        W 7501  14.603  19.576  14.361
42275W        W 7502  24.104  11.270  14.315
42276W        W 7503  12.740  37.569  13.016
42277W        W 7504  19.462  22.953   1.285
42278W        W 7505  24.040  41.613  13.556
42279W        W 7506  26.936   6.801  14.795
42280W        W 7507  29.490  29.374  12.409
42281W        W 7508  35.106  38.295   0.546
42282W        W 7509   3.388  30.713  12.621
42283W        W 7510   4.846  39.554  14.416
42284W        W 7511  42.353  26.089   3.702
42285W        W 7512  25.947  31.696   1.899
42286W        W 7513  30.439  36.340   2.191
42287W        W 7514   9.121  41.841   0.399
42288W        W 7515   4.907  29.934  10.000
42289W        W 7516  12.074  18.195   1.712
42290W        W 7517  42.680  16.160  14.333
42291W        W 7518   3.329  28.669   4.590
42292W        W 7519  20.632  10.093   0.915
42293W        W 7520  35.150  37.843  12.904
42294W        W 7521  14.178  23.173  10.650
42295W        W 7522  32.467  16.572   3.189
42296W        W 7523   8.480  14.496  12.367
42297W        W 7524  37.538   9.749   0.875
42298W        W 7525  35.526   7.566  10.424
42299W        W 7526  11.886  33.126   3.648
42300W        W 7527  20.753  28.393  10.766
42301W        W 7528  19.617  21.123   4.178
42302W        W 7529  14.034   0.982   0.712
42303W        W 7530   2.649   0.326  11.713
42304W        W 7531  16.765  12.589  11.939
42305W        W 7532   5.141  15.743  11.994
42306W        W 7533  26.484  37.406  14.513
42307W        W 7534   8.684  33.054  14.018
42308W        W 7535   8.375   6.317  11.855
42309W        W 7536   4.667  25.792   2.155
42310W        W 7537  17.016   3.008  10.413
42311W        W 7538  36.070  20.254  12.065
42312W        W 7539  42.773  35.958  10.901
42313W        W 7540   2.326  19.620   4.341
42314W        W 7541  15.704  41.600  12.904
42315W        W 7542   6.181  30.363  12.822
42316W        W 7543  32.634  39.667   2.312
42317W        W 7544  32.851  21.045   4.565
42318W        W 7545  40.048  24.090   0.235
42319W        W 7546  35.954  23.727  14.575
42320W        W 7547  39.743  32.610   4.226
42321W        W 7548  20.592  24.935   1.932
42322W        W 7549  24.701  23.596  10.791
42323W        W 7550  35.140  35.954  11.856
42324W        W 7551   2.956  37.540   2.147
42325W        W 7552  20.473  34.978  12.485
42326W        W 7553  25.773  39.120   3.569
42327W        W 7554  23.960  11.574  11.141
42328W        W 7555  37.991  22.469  14.915
42329W        W 7556  20.696   0.399  10.223
42330W        W 7557  32.135  28.762   1.198
42331W        W 7558  40.011  10.839  13.800
42332W        W 7559   3.685  14.583   4.053
42333W        W 7560  21.878  14.173  14.189
42334W        W 7561  18.907  18.670  11.629
42335W        W 7562   4.149  25.865   2.367
42336W        W 7563  10.807  30.928  13.591
42337W        W 7564  30.016   1.753  13.947
42338W        W 7565  44.756  16.629   0.844
42339W        W 7566  24.549  30.174  13.389
42340W        W 7567  16.223  27.027  13.816
42341W        W 7568  31.366  33.953   1.795
42342W        W 7569  22.554  18.269   2.807
42343W        W 7570  30.519  10.987   0.870
42344W        W 7571  34.102   1.235   2.642
42345W        W 7572   0.361  32.419   3.625
42346W        W 7573  30.202  12.108   0.880
42347W        W 7574  34.052  37.076  11.598
42348W        W 7575  11.281  15.973  11.800
42349W        W 7576   5.161  20.598   3.110
42350W        W 7577   5.931  14.154   2.200
42351W        W 7578  29.367  31.891   4.204
42352W        W 7579  36.773  10.729  14.197
42353W        W 7580  32.649  35.686  14.340
42354W        W 7581   9.969  33.528   4.730
42355W        W 7582  12.667   8.556   1.382
42356W        W 7583  11.359   1.761   2.832
42357W        W 7584  33.608  13.991   3.288
42358W        W 7585  20.152  13.128  11.942
42359W        W 7586  10.288  31.093   1.197
42360W        W 7587   2.979  26.581  13.303
42361W        W 7588  21.541   6.148  10.291
42362W        W 7589   0.077   1.479   2.733
42363W        W 7590  33.691  19.623   2.830
42364W        W 7591  38.501  10.586   3.688
42365W        W 7592  38.941  10.210   1.826
42366W        W 7593  44.018  14.193   4.110
42367W        W 7594  31.158  13.318  11.721
42368W        W 7595  44.862  15.087   3.680
42369W        W 7596  10.194  26.037  12.248
42370W        W 7597   8.044  24.095  13.364
42371W        W 7598  26.080  19.238   2.272
42372W        W 7599   5.817   9.629   3.697
42373W        W 7600  32.381  16.568  14.910
42374W        W 7601  36.325  12.142   2.813
42375W        W 7602   9.330  43.226  10.781
42376W        W 7603  19.618  22.033   4.699
42377W        W 7604  33.636  28.110   4.502
42378W        W 7605   8.632   2.999   3.190
42379W        W 7606  28.178  33.161  12.368
42380W        W 7607  37.741   0.862   5.139
42381W        W 7608   2.042  30.418   1.869
42382W        W 7609  25.191  25.314  13.041
42383W        W 7610   7.425  19.153  10.536
42384W        W 7611  10.338  29.484  14.832
42385W        W 7612  11.704  14.402   3.265
42386W        W 7613   2.198  21.532  12.577
42387W        W 7614  11.909  13.117   0.143
42388W        W 7615   8.356   5.701   4.489
42389W        W 7616   8.450  11.328  11.455
42390W        W 7617  28.119  21.063   0.332
42391W        W 7618  10.842  28.267  13.654
42392W        W 7619  41.614   5.507  12.883
42393W        W 7620  26.732  34.063   3.254
42394W        W 7621  21.675  29.982   4.558
42395W        W 7622  39.858  23.791  14.786
42396W        W 7623  27.663   4.774   4.441
42397W        W 7624  38.098  42.837   1.530
42398W        W 7625  17.379   0.235   4.793
42399W        W 7626  10.009  41.524  14.029
42400W        W 7627   0.369  30.722  14.027
42401W        W 7628  32.065  43.224  12.578
42402W        W 7629  11.139  10.091  12.441
42403W        W 7630  21.567  16.180   1.325
42404W        W 7631  12.100   6.660   3.363
42405W        W 7632  17.138  31.399  10.797
42406W        W 7633  19.277  11.314  12.193
42407W        W 7634   0.076   8.836   4.331
42408W        W 7635  15.546   1.758   9.930
42409W        W 7636  21.509  44.021  14.844
42410W        W 7637  33.896  34.809   1.187
42411W        W 7638  29.629   6.160   3.862
42412W        W 7639  12.584  38.226   2.093
42413W        W 7640   1.235  16.895  14.121
42414W        W 7641  10.757  11.809   4.871
42415W        W 7642  13.543  33.562  14.422
42416W        W 7643  13.988   2.253  12.923
42417W        W 7644  33.288  10.759  12.413
42418W        W 7645  29.283  44.409  11.972
42419W        W 7646  42.054  23.266   1.281
42420W        W 7647   7.351   6.450  11.648
42421W        W 7648  41.296  12.243  13.550
42422W        W 7649  38.160  20.685   4.309
42423W        W 7650  19.754  41.780   4.203
42424W        W 7651  39.624  31.080  12.510
42425W        W 7652  41.787  18.787  14.795
42426W        W 7653   0.221  30.099  12.518
42427W        W 7654  16.666  18.820   3.061
42428W        W 7655  11.297  31.537  11.161
42429W        W 7656  14.640  34.851  11.232
42430W        W 7657   1.986  35.639   2.377
42431W        W 7658   9.755  12.238   0.430
42432W        W 7659  32.477  11.713  12.568
42433W        W 7660  37.754  18.307   5.045
42434W        W 7661  20.483   5.377   4.673
42435W        W 7662  14.082  35.808  13.905
42436W        W 7663   4.422  29.532   1.895
42437W        W 7664  43.908  38.149   4.845
42438W        W 7665  11.660  41.237  12.640
42439W        W 7666  13.854  42.037  11.597
42440W        W 7667  26.141  35.774   1.159
42441W        W 7668  19.707   6.981   0.793
42442W        W 7669   7.707   9.784   0.450
42443W        W 7670  30.807   9.638   0.887
42444W        W 7671   7.438  30.977  14.983
42445W        W 7672  43.869  25.988  14.853
42446W        W 7673  20.693  11.620   3.736
42447W        W 7674  25.643  10.177   2.679
42448W        W 7675  26.525  43.633   2.592
42449W        W 7676  19.507  28.978   4.057
42450W        W 7677  34.762  17.705   2.599
42451W        W 7678  29.940  23.979   2.659
42452W        W 7679  24.726  39.614  13.778
42453W        W 7680   0.471   6.249  14.306
42454W        W 7681  39.483  23.481   3.978
42455W        W 7682  40.419  23.008   0.753
42456W        W 7683  28.478  27.212   1.318
42457W        W 7684   7.629  13.010  10.281
42458W        W 7685  43.976  37.055   4.406
42459W        W 7686  30.867   9.151  12.571
42460W        W 7687  35.237  40.894   0.298
42461W        W 7688   1.878  22.619   4.138
42462W        W 7689  41.466  12.751   2.300
42463W        W 7690  30.250   3.158   1.396
42464W        W 7691  37.797  35.474  12.535
42465W        W 7692   2.222  30.550   1.387
42466W        W 7693  15.043  33.495  13.258
42467W        W 7694   3.933  13.968   3.267
42468W        W 7695  33.395   5.794   2.110
42469W        W 7696  12.202   2.406  12.937
42470W        W 7697   9.233  30.437  13.397
42471W        W 7698  21.143   2.104  14.864
42472W        W 7699  20.043  15.753  10.806
42473W        W 7700   0.037  42.061  11.618
42474W        W 7701  33.947  18.669  14.036
42475W        W 7702  20.010  20.810   3.811
42476W        W 7703  25.718  13.555  13.154
42477W        W 7704  24.344   5.389  14.434
42478W        W 7705  37.136  15.141  12.835
42479W        W 7706   6.745  11.125   4.149
42480W        W 7707  40.800  40.421   2.197
42481W        W 7708  17.617  20.691   0.781
42482W        W 7709  34.175  37.632  11.649
42483W        W 7710  41.065   5.353   0.690
42484W        W 7711  40.926  34.512   0.930
42485W        W 7712  25.702  35.753   1.882
42486W        W 7713  10.262  42.693   3.182
42487W        W 7714  13.978  23.751  12.077
42488W        W 7715  40.877  17.121   4.553
42489W        W 7716  28.997  34.151  12.527
42490W        W 7717  28.702   9.229   1.851
42491W        W 7718  16.608   4.294   1.796
42492W        W 7719  17.914   6.736  13.578
42493W        W 7720  31.782  12.742   1.476
42494W        W 7721  19.053   1.134   3.072
42495W        W 7722   3.472  15.283   2.186
42496W        W 7723  24.244  42.972  13.478
42497W        W 7724  15.563  27.293  13.093
42498W        W 7725   7.931   6.647  13.529
42499W        W 7726  42.580  13.347   3.632
42500W        W 7727  23.992  14.066   1.708
42501W        W 7728  36.329  18.599  14.353
42502W        W 7729  31.813  36.137   2.812
42503W        W 7730  31.527  26.714  11.875
42504W        W 7731  42.670   4.207  13.475
42505W        W 7732  11.769  31.199  10.613
42506W        W 7733  41.627  32.603  13.927
42507W        W 7734  23.690  15.637   1.278
42508W        W 7735  42.415   0.163  11.163
42509W        W 7736  12.280  14.499  11.972
42510W        W 7737  12.427  37.542  14.988
42511W        W 7738  44.126  17.972   1.691
42512W        W 7739  32.607  22.674   0.070
42513W        W 7740  26.592  34.765   1.004
42514W        W 7741  34.085  40.106  13.892
42515W        W 7742  38.662   2.746  10.843
42516W        W 7743  16.589   7.820   1.827
42517W        W 7744  16.146  14.124  13.775
42518W        W 7745  19.950   8.216   2.142
42519W        W 7746   8.537  16.625  11.714
42520W        W 7747  40.074  44.382  11.193
42521W        W 7748  10.153  26.216   3.769
42522W        W 7749  12.406  42.815  11.174
42523W        W 7750  31.182  43.902  14.327
42524W        W 7751  17.652  31.554  13.988
42525W        W 7752  22.727  10.910   3.829
42526W        W 7753  44.987   7.004  11.679
42527W        W 7754  15.359  28.245   2.205
42528W        W 7755  34.444  41.797  11.241
42529W        W 7756  39.364  28.157  13.936
42530W        W 7757  34.533  17.132  12.680
42531W        W 7758   8.337  22.325  13.664
42532W        W 7759  20.972  42.872  13.857
42533W        W 7760  15.892  44.811   0.657
42534W        W 7761  10.903  29.880  12.375
42535W        W 7762  29.456  12.772  12.766
42536W        W 7763  23.815  23.699   2.595
42537W        W 7764  34.471  39.961   3.350
42538W        W 7765  36.590  38.884   4.741
42539W        W 7766  40.270   7.691   3.451
42540W        W 7767  38.323  28.514   2.817
42541W        W 7768  32.346  35.521  13.458
42542W        W 7769  39.274  37.046  10.453
42543W        W 7770  31.385   2.598  14.255
42544W        W 7771   3.489  27.948  10.202
42545W        W 7772  35.223  19.266  10.931
42546W        W 7773  17.632   8.182   3.709
42547W        W 7774   0.829   3.079   1.228
42548W        W 7775   4.491  10.075  14.860
42549W        W 7776  11.618  35.506   1.377
42550W        W 7777   0.780   3.721  14.977
42551W        W 7778  43.218  15.248   1.397
42552W        W 7779  11.370  24.169  13.857
42553W        W 7780  44.306  26.834   1.320
42554W        W 7781  20.721  39.047  12.599
42555W        W 7782  25.477  32.957   2.715
42556W        W 7783  27.944  20.240   4.633
42557W        W 7784   3.443  11.844   3.261
42558W        W 7785  20.146  16.494   2.299
42559W        W 7786  11.222   5.329   1.179
42560W        W 7787  12.075  29.062  13.882
42561W        W 7788  34.039  28.942   4.032
42562W        W 7789   6.248  23.669   4.625
42563W        W 7790  21.233  25.084  11.587
42564W        W 7791  15.745   7.781   4.245
42565W        W 7792  34.594  11.994  12.903
42566W        W 7793  39.608  11.564  14.860
42567W        W 7794  15.309  34.481  13.995
42568W        W 7795   5.867   4.407   1.288
42569W        W 7796  36.823  24.413   2.690
42570W        W 7797  33.870   1.975   2.544
42571W        W 7798  34.596  11.567  14.358
42572W        W 7799  43.436   2.667  13.947
42573W        W 7800  18.028  19.023   3.221
42574W        W 7801  44.554  17.670  13.943
42575W        W 7802  31.720  20.570  14.505
42576W        W 7803  27.956  11.416   2.954
42577W        W 7804   6.815   2.085   3.707
42578W        W 7805  41.428  22.710  14.854
42579W        W 7806  13.594  26.821  13.378
42580W        W 7807  14.920  36.161  14.397
42581W        W 7808  25.195  21.745  12.504
42582W        W 7809  14.248  41.999  14.850
42583W        W 7810   0.497  22.563  13.198
42584W        W 7811  25.568  27.211   0.428
42585W        W 7812   4.959  17.624  14.847
42586W        W 7813  22.795  44.508   0.765
42587W        W 7814  14.633   6.741  14.424
42588W        W 7815  41.570  42.657   4.337
42589W        W 7816  21.696  23.495  10.499
42590W        W 7817   6.521   9.210   2.346
42591W        W 7818  38.353  22.063   2.987
42592W        W 7819   5.249  42.214  12.644
42593W        W 7820  11.067  28.444   4.064
42594W        W 7821  35.679  11.644   2.199
42595W        W 7822  17.660  20.783   2.558
42596W        W 7823  13.736  38.769  13.532
42597W        W 7824  22.436  16.793   3.114
42598W        W 7825  26.991  32.364  12.992
42599W        W 7826  17.107  29.444  10.522
42600W        W 7827   7.754  31.948   0.731
42601W        W 7828   4.050  32.708   0.038
42602W        W 7829  39.000  28.537  12.877
42603W        W 7830  32.329   7.914  11.272
42604W        W 7831   5.709  26.128  11.748
42605W        W 7832  27.637  32.098  13.921
42606W        W 7833  39.797  10.685  13.349
42607W        W 7834  38.708  27.169  10.599
42608W        W 7835  43.868  12.904   4.058
42609W        W 7836  29.857   3.808   4.653
42610W        W 7837   0.854   2.738  14.643
42611W        W 7838  34.040   4.860  11.511
42612W        W 7839  22.668  22.950   0.199
42613W        W 7840  26.147   7.883  10.999
42614W        W 7841  27.661  21.145   0.017
42615W        W 7842   4.269  37.936   0.274
42616W        W 7843  37.023  31.284   4.517
42617W        W 7844   5.799  43.755   4.803
42618W        W 7845   9.726  26.302  14.960
42619W        W 7846   8.892  23.656  12.922
42620W        W 7847  16.699  39.926   1.472
42621W        W 7848  10.918  11.200  12.025
42622W        W 7849  32.099   0.304   2.126
42623W        W 7850  37.066  33.268   4.568
42624W        W 7851  13.329   7.831   3.296
42625W        W 7852  30.163  23.578   3.101
42626W        W 7853   1.469  15.600   1.863
42627W        W 7854  20.666   3.274  12.173
42628W        W 7855  38.569  23.577   3.095
42629W        W 7856  42.374  29.629  11.215
42630W        W 7857   7.597  17.337  10.698
42631W        W 7858  25.789   9.189  13.101
42632W        W 7859  19.838  44.379  11.071
42633W        W 7860  38.826   1.257  14.007
42634W        W 7861  30.543  26.893  13.917
42635W        W 7862   2.779  41.142  11.394
42636W        W 7863  37.431  24.427   0.480
42637W        W 7864   0.951  36.364   3.669
42638W        W 7865  29.335  12.218   2.018
42639W        W 7866  38.547   3.540   0.916
42640W        W 7867  44.166  23.115   3.672
42641W        W 7868  24.297   6.163  11.640
42642W        W 7869  29.037  26.666   0.345
42643W        W 7870  15.312  11.924  12.940
42644W        W 7871  33.618   1.327   3.779
42645W        W 7872  34.452  29.407   1.305
42646W        W 7873   6.433  42.020   3.259
42647W        W 7874  25.464  18.344  14.728
42648W        W 7875  42.699  30.693   0.661
42649W        W 7876  30.488  44.301   4.457
42650W        W 7877  22.813  12.802   1.931
42651W        W 7878   1.366  24.626  10.882
42652W        W 7879  40.351  27.218  13.569
42653W        W 7880  16.903  10.239  10.375
42654W        W 7881  41.613  35.998  12.188
42655W        W 7882  12.513   8.410   5.054
42656W        W 7883  32.048  42.102   0.661
42657W        W 7884  21.814  20.957  12.641
42658W        W 7885  44.570  33.161   1.936
42659W        W 7886   6.495  35.125   1.110
42660W        W 7887  10.142  38.967   3.238
42661W        W 7888  31.050  30.429   4.676
42662W        W 7889   9.615   0.275   3.798
42663W        W 7890   1.902   3.926  13.084
42664W        W 7891  11.144  20.688  12.264
42665W        W 7892  39.947  24.439  13.981
42666W        W 7893  17.695   6.501   2.784
42667W        W 7894   6.681  22.122  10.542
42668W        W 7895  11.028  29.135  11.902
42669W        W 7896  18.308  29.262   3.008
42670W        W 7897  32.350  10.719   3.070
42671W        W 7898  17.744  34.098   1.738
42672W        W 7899  25.267  33.937  11.481
42673W        W 7900  29.954   6.792   3.988
42674W        W 7901  15.335   7.705   4.541
42675W        W 7902   5.853  26.404  14.708
42676W        W 7903  33.035   3.417   1.095
42677W        W 7904  42.303  22.205  11.399
42678W        W 7905   5.301  37.383  11.430
42679W        W 7906  20.356  33.855  12.869
42680W        W 7907  30.833   3.943  14.808
42681W        W 7908  20.635  40.402  12.679
42682W        W 7909  36.375  26.002   0.614
42683W        W 7910  33.343  15.597  13.649
42684W        W 7911  43.798  27.612  14.044
42685W        W 7912  37.440  39.538  13.840
42686W        W 7913  11.733  36.634   3.234
42687W        W 7914  34.869  32.463  11.633
42688W        W 7915  12.226  28.213   2.074
42689W        W 7916  22.663  15.921   4.528
42690W        W 7917  43.230  35.716  11.725
42691W        W 7918  11.871   6.443   0.470
42692W        W 7919  18.686  11.257   4.802
42693W        W 7920  25.456  13.591   0.429
42694W        W 7921  21.814  20.053  12.544
42695W        W 7922  35.852  20.801   3.271
42696W        W 7923   1.750  32.272  12.726
42697W        W 7924  27.329  16.270   2.704
42698W        W 7925   8.479   1.592  14.412
42699W        W 7926  23.731  44.927  14.113
42700W        W 7927  12.223  37.867  14.577
42701W        W 7928   4.439  44.446   0.864
42702W        W 7929  21.045   5.512   0.669
42703W        W 7930   5.380   4.246  10.720
42704W        W 7931  22.209   2.944  12.803
42705W        W 7932  10.867  29.800   1.273
42706W        W 7933  11.803  16.308   1.510
42707W        W 7934   2.749   3.827   4.661
42708W        W 7935   6.340  32.800  10.513
42709W        W 7936  10.714  44.422   4.570
42710W        W 7937   3.786   4.887  12.054
42711W        W 7938  12.473  43.551  14.032
42712W        W 7939   2.849  44.874   4.962
42713W        W 7940   9.715  38.124   3.100
42714W        W 7941   0.791  11.809  12.566
42715W        W 7942  23.084  35.543   3.727
42716W        W 7943  21.059   5.102   0.957
42717W        W 7944   9.343   5.390  11.721
42718W        W 7945  26.164  41.188  12.023
42719W        W 7946  41.471   4.060   1.995
42720W        W 7947  44.363  10.272   2.248
42721W        W 7948  39.386  12.179   1.995
42722W        W 7949   7.937   8.344   2.732
42723W        W 7950  29.455  32.205  12.040
42724W        W 7951  32.028   5.845   1.524
42725W        W 7952  21.585   6.771  10.869
42726W        W 7953  14.983  28.564   4.015
42727W        W 7954   7.898   3.463  12.638
42728W        W 7955   7.179  18.761   4.546
42729W        W 7956   0.344  25.028   4.078
42730W        W 7957  14.818  28.473   0.829
42731W        W 7958   7.112   2.250   1.679
42732W        W 7959   4.341  40.009  12.190
42733W        W 7960  13.771  13.353  11.965
42734W        W 7961  16.042   2.923  11.428
42735W        W 7962   9.218  40.551  12.219
42736W        W 7963  11.236  44.731   2.687
42737W        W 7964  17.401   5.384  13.519
42738W        W 7965  16.429   9.752   0.112
42739W        W 7966  41.074  40.790  12.093
42740W        W 7967  22.373  39.924  12.843
42741W        W 7968  18.747  22.677   1.808
42742W        W 7969  23.141   6.648   2.607
42743W        W 7970   6.398  36.677  12.955
42744W        W 7971  26.618  14.955  12.701
42745W        W 7972  33.633  15.071  10.729
42746W        W 7973  37.556  37.038   5.183
42747W        W 7974  27.594  44.060  10.574
42748W        W 7975   1.207  24.142   1.876
42749W        W 7976  42.936   4.005  12.020
42750W        W 7977  18.743  33.327   3.555
42751W        W 7978  31.412   9.259  13.952
42752W        W 7979  41.004  41.384  13.324
42753W        W 7980  15.785  14.683  14.397
42754W        W 7981  21.100   2.841  14.462
42755W        W 7982  18.912  17.660   0.605
42756W        W 7983  26.256  33.853  11.597
42757W        W 7984  15.535  25.461  14.072
42758W        W 7985  10.434   7.928  14.830
42759W        W 7986   4.013   0.659  14.855
42760W        W 7987   5.000  29.251   3.868
42761W        W 7988  27.012  14.059  13.921
42762W        W 7989  31.082   3.364  12.835
42763W        W 7990   4.920   1.363  14.069
42764W        W 7991  16.332  32.849   0.705
42765W        W 7992  13.305  42.529   1.140
42766W        W 7993  17.778  18.693  12.044
42767W        W 7994  23.574  43.920   0.751
42768W        W 7995  37.135  26.464  11.925
42769W        W 7996  19.266  19.014   2.266
42770W        W 7997  32.379  44.533   1.752
42771W        W 7998  11.298  25.971  10.738
42772W        W 7999  24.598  11.919   2.780
42773W        W 8000  11.102  43.964   1.281
42774W        W 8001   7.478  19.845   3.727
42775W        W 8002  37.456  14.907   3.167
42776W        W 8003  41.283  18.840   1.470
42777W        W 8004  39.041   2.806   5.090
42778W        W 8005   1.410  29.149   1.818
42779W        W 8006  16.128  24.122   4.586
42780W        W 8007  10.176  42.830  11.714
42781W        W 8008  22.769  25.593  14.850
42782W        W 8009  36.074  34.954  12.480
42783W        W 8010  20.205  14.692   0.388
42784W        W 8011  21.441  16.769   4.794
42785W        W 8012  35.302   5.225   0.661
42786W        W 8013  15.823  14.201  12.162
42787W        W 8014   2.609   4.505   2.733
42788W        W 8015  27.311  23.793   1.725
42789W        W 8016  37.143  36.992  11.581
42790W        W 8017   0.442  21.539   1.326
42791W        W 8018   7.295   3.436  14.024
42792W        W 8019   8.628  20.519   2.053
42793W        W 8020   4.467  24.710  10.519
42794W        W 8021  30.641  21.431   3.809
42795W        W 8022  15.744  11.908  12.514
42796W        W 8023  20.778  15.038  14.867
42797W        W 8024  29.159  16.303   3.618
42798W        W 8025  17.920  40.431   2.392
42799W        W 8026  27.292  34.917   3.381
42800W        W 8027  43.886  39.563  12.588
42801W        W 8028  21.685  17.329  10.536
42802W        W 8029  19.271   6.426   1.398
42803W        W 8030   2.267   1.445   3.204
42804W        W 8031  31.525  36.389  14.338
42805W        W 8032  34.349  39.510   3.548
42806W        W 8033  15.834  37.633   3.670
42807W        W 8034  43.293  14.108   0.485
42808W        W 8035  29.534  23.866  10.126
42809W        W 8036  14.234  12.220   4.571
42810W        W 8037  11.247  22.575  14.227
42811W        W 8038  34.555  32.142  13.115
42812W        W 8039  11.234   1.193  10.633
42813W        W 8040  37.494  18.044  12.922
42814W        W 8041   2.989  36.106  13.156
42815W        W 8042   6.709  27.324   2.934
42816W        W 8043  42.678   6.634   4.932
42817W        W 8044  40.240  39.800  12.627
42818W        W 8045   2.644  11.617  14.227
42819W        W 8046  24.196  10.916   4.043
42820W        W 8047   8.771  31.982   1.532
42821W        W 8048  27.004   4.025   3.609
42822W        W 8049  18.465  39.606   0.848
42823W        W 8050  44.920  14.297  14.387
42824W        W 8051  19.373   3.095   3.636
42825W        W 8052  20.322   7.671  14.559
42826W        W 8053   4.665  16.181  12.213
42827W        W 8054  27.223  21.520   0.231
42828W        W 8055  27.211  24.565   1.926
42829W        W 8056  22.642  32.960  11.884
42830W        W 8057  24.911   7.462   3.917
42831W        W 8058   1.451   6.767  14.282
42832W        W 8059  18.707  25.020  12.827
42833W        W 8060  38.247  35.607  13.416
42834W        W 8061  11.169  40.049  13.004
42835W        W 8062  20.873  25.740  11.918
42836W        W 8063  25.016  30.415  14.559
42837W        W 8064   3.763   8.731   2.179
42838W        W 8065  25.925  21.525   3.300
42839W        W 8066   4.758  13.788  14.585
42840W        W 8067  20.349  15.087   4.169
42841W        W 8068  23.029  41.442   0.687
42842W        W 8069  35.332  34.042  11.141
42843W        W 8070  39.812  15.833   3.204
42844W        W 8071  18.583   5.096  10.263
42845W        W 8072  29.971  14.809   0.413
42846W        W 8073   0.671  16.660   0.557
42847W        W 8074  20.792  40.937  11.967
42848W        W 8075   1.999   6.668   2.244
42849W        W 8076  40.770  35.097   0.422
42850W        W 8077  36.175  37.877  13.727
42851W        W 8078  15.194  38.032  13.760
42852W        W 8079   9.258  25.670  13.537
42853W        W 8080  22.401  18.831  14.644
42854W        W 8081  31.155   8.461  13.104
42855W        W 8082  21.424  39.701   3.970
42856W        W 8083  15.856  13.762  14.321
42857W        W 8084  17.089   2.880   3.876
42858W        W 8085  24.638   4.637   1.342
42859W        W 8086   6.263  17.107   2.260
42860W        W 8087  27.055  23.206   0.403
42861W        W 8088  30.098  42.396   3.313
42862W        W 8089  22.335  10.673  12.125
42863W        W 8090  23.447  16.442   1.569
42864W        W 8091  40.554  13.073  13.242
42865W        W 8092  35.080   1.619   3.237
42866W        W 8093  25.544  22.998  12.598
42867W        W 8094  30.668   7.226   2.727
42868W        W 8095   0.865  23.321   5.422
42869W        W 8096  10.054  22.324  13.931
42870W        W 8097  26.679   0.757   5.635
42871W        W 8098  43.128  13.357  14.696
42872W        W 8099   5.329   5.283  10.793
42873W        W 8100  13.703  19.197   1.163
42874W        W 8101  27.861  25.990   0.366
42875W        W 8102  19.521  28.811   4.591
42876W        W 8103  38.171  13.239  11.090
42877W        W 8104  30.684  43.103   3.459
42878W        W 8105  16.813  16.211  13.535
42879W        W 8106   0.854  34.724   3.310
42880W        W 8107  15.713  27.851   3.089
42881W        W 8108  22.416  40.684   4.136
42882W        W 8109  44.927  16.094  14.858
42883W        W 8110  40.247  15.158  11.420
42884W        W 8111  32.523   4.211   1.975
42885W        W 8112   6.336  43.257   1.770
42886W        W 8113   6.775  18.584   1.043
42887W        W 8114  40.346   2.129   0.822
42888W        W 8115  37.133  35.964  13.864
42889W        W 8116  18.854  29.987   0.407
42890W        W 8117  11.351  11.582   2.848
42891W        W 8118  26.701   6.741   0.346
42892W        W 8119   3.299  26.439   3.275
42893W        W 8120  25.033  36.560  11.756
42894W        W 8121  23.205  10.798  11.841
42895W        W 8122  18.550  37.351  11.475
42896W        W 8123   1.756  10.655   3.638
42897W        W 8124  31.836   2.833   3.148
42898W        W 8125  33.539  19.514  13.914
42899W        W 8126  41.995   5.688   1.913
42900W        W 8127  26.689  21.516  11.382
42901W        W 8128  35.926  13.593  14.845
42902W        W 8129  18.325  12.849   4.123
42903W        W 8130  44.192  44.341   4.215
42904W        W 8131  14.697  29.310   0.912
42905W        W 8132  16.320  20.035  14.826
42906W        W 8133  44.221  16.096  13.468
42907W        W 8134  43.159   7.254   1.326
42908W        W 8135   5.375  41.023   1.130
42909W        W 8136   7.471  28.385   2.789
42910W        W 8137  37.911  14.979   2.692
42911W        W 8138   6.259   2.222  11.076
42912W        W 8139  16.591  15.729  11.009
42913W        W 8140  42.759   1.950   2.846
42914W        W 8141  39.962  18.268  13.079
42915W        W 8142   6.752   8.459  12.962
42916W        W 8143   9.881  38.069  14.930
42917W        W 8144  23.916  36.979   1.485
42918W        W 8145   8.435  18.309  14.851
42919W        W 8146  42.036  33.043  10.910
42920W        W 8147  43.823   2.995   1.801
42921W        W 8148  33.901  23.791   1.635
42922W        W 8149  32.224  20.633  14.453
42923W        W 8150  12.154  40.116   3.325
42924W        W 8151  34.413  34.986   1.934
42925W        W 8152  32.884  19.003   1.433
42926W        W 8153   8.609  33.694   2.218
42927W        W 8154   9.906  11.308  13.590
42928W        W 8155   6.373   4.205   0.279
42929W        W 8156   3.194  39.596  13.518
42930W        W 8157  23.941  35.594   0.746
42931W        W 8158   7.874  34.047   0.187
42932W        W 8159  21.595  41.970   2.231
42933W        W 8160  17.934  17.983   0.269
42934W        W 8161   0.931  33.549  13.570
42935W        W 8162  31.548  43.994   3.891
42936W        W 8163  42.919  21.696  12.940
42937W        W 8164  12.814  39.428  10.609
42938W        W 8165   5.749   4.472   2.185
42939W        W 8166  28.854  40.830   0.943
42940W        W 8167  14.830  23.551  14.041
42941W        W 8168  16.231  27.178   3.547
42942W        W 8169  12.669  41.361   2.414
42943W        W 8170  12.637  32.392  11.300
42944W        W 8171  27.968   2.941   2.355
42945W        W 8172  24.943  21.625   0.950
42946W        W 8173  42.356  19.519   0.363
42947W        W 8174  24.717  16.353  13.393
42948W        W 8175  27.579   2.650   2.162
42949W        W 8176  39.506  18.018  14.325
42950W        W 8177  21.052   9.965  10.119
42951W        W 8178   8.361   2.953  12.000
42952W        W 8179  10.735  28.162  10.742
42953W        W 8180  17.761  36.546   1.622
42954W        W 8181  31.361  37.063  13.028
42955W        W 8182  29.018  36.612   9.929
42956W        W 8183  15.124  10.111  10.667
42957W        W 8184  16.214   2.935   1.248
42958W        W 8185  19.062  30.772  14.880
42959W        W 8186  20.071   8.904   0.324
42960W        W 8187  38.079   1.800   0.372
42961W        W 8188   9.492  41.061   0.951
42962W        W 8189  40.091  44.811   4.071
42963W        W 8190   8.965  35.754   2.677
42964W        W 8191  37.505  37.470   3.694
42965W        W 8192  31.404  35.106  12.582
42966W        W 8193  21.249   6.323  12.997
42967W        W 8194  37.762   9.748   2.377
42968W        W 8195  28.837   8.413   4.555
42969W        W 8196  11.446  14.470   4.921
42970W        W 8197  42.002  28.584  12.126
42971W        W 8198  13.136   6.768   2.658
42972W        W 8199  41.053  12.745  13.297
42973W        W 8200  13.373  17.865   2.698
42974W        W 8201  27.447  24.175   1.417
42975W        W 8202  29.425  31.718  14.929
42976W        W 8203  11.781  39.109   0.861
42977W        W 8204  21.000   9.110   4.054
42978W        W 8205  12.763  36.813   0.259
42979W        W 8206  27.572  36.006  13.156
42980W        W 8207  15.635  16.806  10.584
42981W        W 8208  10.179  38.460   0.131
42982W        W 8209  36.603   1.241  11.934
42983W        W 8210  20.847  26.086  13.087
42984W        W 8211   7.426   3.830   1.317
42985W        W 8212  33.436  35.532  11.379
42986W        W 8213  32.448  19.859  12.054
42987W        W 8214  28.458  44.273   2.312
42988W        W 8215  12.599   6.458  13.118
42989W        W 8216  11.189  12.283   1.146
42990W        W 8217  31.559  22.456   0.920
42991W        W 8218   6.141  15.575  13.933
42992W        W 8219  39.346  39.091   0.433
42993W        W 8220  28.490  43.920  13.870
42994W        W 8221   7.369  44.489  10.993
42995W        W 8222  32.682  20.244  11.713
42996W        W 8223   5.351  43.103   4.106
42997W        W 8224   7.212  29.671  14.357
42998W        W 8225   6.591  16.607  11.099
42999W        W 8226  16.897  26.172   2.438
43000W        W 8227  14.732   8.370  12.446
43001W        W 8228  12.579  42.388   4.109
43002W        W 8229  37.450  13.106   4.108
43003W        W 8230   0.726  29.164  11.170
43004W        W 8231  44.884  44.047  10.212
43005W        W 8232   9.186  31.670   1.391
43006W        W 8233  25.983  10.488   0.839
43007W        W 8234  24.366  28.690   1.758
43008W        W 8235  24.205  21.870   3.327
43009W        W 8236  10.670  10.376   2.002
43010W        W 8237  34.877   3.524   0.209
43011W        W 8238   2.991   6.756  11.474
43012W        W 8239  31.440  11.437   0.788
43013W        W 8240  30.658  23.035  12.682
43014W        W 8241  26.530  31.571  14.364
43015W        W 8242   4.646  12.463  14.653
43016W        W 8243  15.349  31.478  12.385
43017W        W 8244  23.966  11.146   3.620
43018W        W 8245   4.011  28.606  13.863
43019W        W 8246   1.353  11.167  10.729
43020W        W 8247  35.052   8.822  11.632
43021W        W 8248  39.172  17.083   4.176
43022W        W 8249  25.777  23.828  12.321
43023W        W 8250  41.818  10.727  13.039
43024W        W 8251   3.974  16.573  14.608
43025W        W 8252  16.665  15.826   0.281
43026W        W 8253   9.635  40.710  12.477
43027W        W 8254   4.298   8.580   3.694
43028W        W 8255  28.035  27.321  14.084
43029W        W 8256  36.771  15.270  13.802
43030W        W 8257  42.417  28.097  13.514
43031W        W 8258  17.682  31.425  14.992
43032W        W 8259  15.542   8.155  13.788
43033W        W 8260  38.434  21.015  10.455
43034W        W 8261  29.477  33.138  14.477
43035W        W 8262  18.735   9.779   3.720
43036W        W 8263  27.394  37.064   4.936
43037W        W 8264  18.972  19.234  14.278
43038W        W 8265  28.213   0.344  14.328
43039W        W 8266  21.972  42.874   4.495
43040W        W 8267  12.709  18.629  11.294
43041W        W 8268   4.449  13.197  11.951
43042W        W 8269  26.697  37.997  12.963
43043W        W 8270  22.441   6.838  14.476
43044W        W 8271  14.905  10.748   2.226
43045W        W 8272  32.560  27.636   3.607
43046W        W 8273  43.197  28.370  12.903
43047W        W 8274   2.070   9.144  13.929
43048W        W 8275  14.636  37.191  11.970
43049W        W 8276  22.990  38.117   1.404
43050W        W 8277  23.618  31.603   2.162
43051W        W 8278  18.378  33.874  12.382
43052W        W 8279  42.830   6.007  13.523
43053W        W 8280  19.912  20.693  11.564
43054W        W 8281  13.572  42.993   1.009
43055W        W 8282  31.010  38.435   1.779
43056W        W 8283  32.396  30.210  13.008
43057W        W 8284  27.405  30.842  13.593
43058W        W 8285  14.239  14.305  10.780
43059W        W 8286  21.965   7.544   1.177
43060W        W 8287   7.115  34.745   4.242
43061W        W 8288  39.626  23.545   2.997
43062W        W 8289  38.389   5.935  14.729
43063W        W 8290  12.138  19.265   1.235
43064W        W 8291   5.937   4.951  14.434
43065W        W 8292   4.766   6.584   2.365
43066W        W 8293  34.001  32.606   3.931
43067W        W 8294  19.698  10.807   1.666
43068W        W 8295  26.077  15.144  11.935
43069W        W 8296  35.164  20.137   1.762
43070W        W 8297  44.709   2.398  11.598
43071W        W 8298  39.247   3.716  13.492
43072W        W 8299  24.062   2.069   4.954
43073W        W 8300  38.439  41.050  13.977
43074W        W 8301  21.314  23.881  10.592
43075W        W 8302  36.462  31.064   1.106
43076W        W 8303  19.581  35.995  11.991
43077W        W 8304  36.210  33.506  14.577
43078W        W 8305  20.068  21.269  12.113
43079W        W 8306  10.455  11.463   3.813
43080W        W 8307  41.231  22.479  14.401
43081W        W 8308  19.381  12.082   2.502
43082W        W 8309  35.499  23.679   4.522
43083W        W 8310   8.936  18.306   0.444
43084W        W 8311   6.504  29.286  14.517
43085W        W 8312  12.924  12.613   3.821
43086W        W 8313   7.654   4.775  11.160
43087W        W 8314   8.676  22.161  12.121
43088W        W 8315  32.949  11.850   3.225
43089W        W 8316  28.930  39.862   2.314
43090W        W 8317  12.668   8.187  13.449
43091W        W 8318  19.110  28.150   0.023
43092W        W 8319  27.190  31.267   3.535
43093W        W 8320  23.606  18.027  13.141
43094W        W 8321  19.052   5.766  10.631
43095W        W 8322   3.019   2.795   2.194
43096W        W 8323  34.841  19.837  10.483
43097W        W 8324  39.431   0.839   4.552
43098W        W 8325   5.921  22.139   4.600
43099W        W 8326  18.275  20.704  14.086
43100W        W 8327  17.593   5.552   1.850
43101W        W 8328  14.371   4.331   1.089
43102W        W 8329  15.143  20.284  13.398
43103W        W 8330  24.321   8.308   2.610
43104W        W 8331   8.675  16.503   0.760
43105W        W 8332  28.423  44.868   4.448
43106W        W 8333  33.688  36.403  10.422
43107W        W 8334  30.227  30.823  13.694
43108W        W 8335  40.948   4.729  11.596
43109W        W 8336  23.729  14.044  11.580
43110W        W 8337   7.254  33.187  12.611
43111W        W 8338  44.049  25.302  13.789
43112W        W 8339   6.827  36.582   3.814
43113W        W 8340   2.428   1.332   4.977
43114W        W 8341  30.542  24.050  12.838
43115W        W 8342  33.404  24.030   1.637
43116W        W 8343  18.055  21.232  11.737
43117W        W 8344  29.557  32.105   1.206
43118W        W 8345   6.873  12.400   1.048
43119W        W 8346  14.933  42.946  13.496
43120W        W 8347  21.026  37.875  12.642
43121W        W 8348  27.374  14.254  11.436
43122W        W 8349  22.586  35.140   4.058
43123W        W 8350   8.321  38.093   2.809
43124W        W 8351  35.404   9.412   2.304
43125W        W 8352   0.584  15.878  14.577
43126W        W 8353  33.403  16.002  12.542
43127W        W 8354  29.031  42.281  11.552
43128W        W 8355   7.514  21.633  10.671
43129W        W 8356  32.415  13.836   0.270
43130W        W 8357  19.168  27.465  12.532
43131W        W 8358  25.058  13.174   3.098
43132W        W 8359  20.500  17.772   3.212
43133W        W 8360  22.341  12.147   3.159
43134W        W 8361  24.495  10.743  13.817
43135W        W 8362  18.877  40.287   0.296
43136W        W 8363  40.592  32.346   0.092
43137W        W 8364  36.035  22.975  12.935
43138W        W 8365  11.912  14.357   2.765
43139W        W 8366  16.932   2.668  14.499
43140W        W 8367  22.130  42.884   0.744
43141W        W 8368  14.736  23.378  11.721
43142W        W 8369   2.357  34.063  14.800
43143W        W 8370  11.942  20.726   1.395
43144W        W 8371  42.555  37.288   3.797
43145W        W 8372  17.721  16.756  11.028
43146W        W 8373   9.883  19.629  13.714
43147W        W 8374  37.650  29.102   1.980
43148W        W 8375  20.621   1.917   4.578
43149W        W 8376   2.495  26.010  10.955
43150W        W 8377   3.209  24.087   0.543
43151W        W 8378  40.520  17.212   0.988
43152W        W 8379   4.973  32.800   3.649
43153W        W 8380  14.947  14.817  12.387
43154W        W 8381  23.567  25.788   0.818
43155W        W 8382  12.542  25.670  12.966
43156W        W 8383   7.194  13.255  13.451
43157W        W 8384  27.639  43.091  12.496
43158W        W 8385  39.581  39.535   3.615
43159W        W 8386  17.382  37.990   1.704
43160W        W 8387  30.087  34.630  10.899
43161W        W 8388  16.728  34.795   1.759
43162W        W 8389  27.517  22.978  12.431
43163W        W 8390  37.554  41.134  11.928
43164W        W 8391   3.890  23.652  12.623
43165W        W 8392  31.550  39.772   5.433
43166W        W 8393  41.217  41.979  13.320
43167W        W 8394   8.457  38.769  14.846
43168W        W 8395  39.880  14.531   2.244
43169W        W 8396  15.650  20.040  10.661
43170W        W 8397  31.933  17.719  14.765
43171W        W 8398  42.538  44.492  13.098
43172W        W 8399  17.404  40.408   2.555
43173W        W 8400   6.827   2.829  13.308
43174W        W 8401   9.634  38.588   3.413
43175W        W 8402  29.949  12.779  14.733
43176W        W 8403  42.322  18.682   0.730
43177W        W 8404   4.974  33.086   4.068
43178W        W 8405  28.969  11.671  10.934
43179W        W 8406   5.714  31.310   0.250
43180W        W 8407  40.483   6.321  10.999
43181W        W 8408  40.868   2.680   4.383
43182W        W 8409  24.011  23.515   2.171
43183W        W 8410  29.057  15.298  10.813
43184W        W 8411  35.926  25.687  12.116
43185W        W 8412  42.011  22.052  14.397
43186W        W 8413  27.376   9.848  11.769
43187W        W 8414  28.177  24.253   4.025
43188W        W 8415  17.734  31.984  14.261
43189W        W 8416  38.300  35.080  13.486
43190W        W 8417  23.646  37.590   4.500
43191W        W 8418  18.704   7.523  11.044
43192W        W 8419  41.229  14.168   1.368
43193W        W 8420  35.994  38.825  11.581
43194W        W 8421   3.702  31.362  11.636
43195W        W 8422   3.168   2.902  13.821
43196W        W 8423  27.987  29.106  11.161
43197W        W 8424   7.633  28.891   2.827
43198W        W 8425  15.242  35.301  13.548
43199W        W 8426   5.447  17.465  14.934
43200W        W 8427   4.365  43.847  11.503
43201W        W 8428   4.981  30.349   0.508
43202W        W 8429   1.758  11.088  14.327
43203W        W 8430  41.781  28.165  14.898
43204W        W 8431  26.610  13.988  11.226
43205W        W 8432  19.177  20.072   4.272
43206W        W 8433   1.277  37.550   2.548
43207W        W 8434  31.151   1.334   1.499
43208W        W 8435   3.504   1.741  14.299
43209W        W 8436  40.846  33.453  11.974
43210W        W 8437  16.488  39.236   3.633
43211W        W 8438  32.506   1.241  10.697
43212W        W 8439  14.364  21.531  10.699
43213W        W 8440  19.738  36.030   2.867
43214W        W 8441  38.068  22.551  10.972
43215W        W 8442   1.768  15.383   3.042
43216W        W 8443  24.230   2.010   1.426
43217W        W 8444  15.798  16.878   2.634
43218W        W 8445  33.172  19.319   2.387
43219W        W 8446  24.906   3.787  14.025
43220W        W 8447   8.112  30.459  14.937
43221W        W 8448  33.415   5.984  11.845
43222W        W 8449   3.970  27.955   2.844
43223W        W 8450  11.634  34.587  14.436
43224W        W 8451  43.459   6.431  14.071
43225W        W 8452  19.119  28.510   2.076
43226W        W 8453  11.181   8.639  12.347
43227W        W 8454   1.672   4.915   1.758
43228W        W 8455  14.968  25.740  13.891
43229W        W 8456  27.277  44.193   4.253
43230W        W 8457  15.494  14.733  13.929
43231W        W 8458   2.673  25.957   3.743
43232W        W 8459  24.343  12.248   3.109
43233W        W 8460  42.786  33.801   2.401
43234W        W 8461   7.376  19.289   0.918
43235W        W 8462  36.957   4.468   2.890
43236W        W 8463  11.556  35.589  10.675
43237W        W 8464  21.950  20.569  12.322
43238W        W 8465  23.454  13.191   2.336
43239W        W 8466  20.630  36.426   2.869
43240W        W 8467  25.961  10.334  10.813
43241W        W 8468  32.398  32.546   4.522
43242W        W 8469   7.202  12.083  14.379
43243W        W 8470  22.528  25.618   4.565
43244W        W 8471  12.917  26.601  10.723
43245W        W 8472  19.728  40.005   2.203
43246W        W 8473  41.659  29.050  14.349
43247W        W 8474  31.728   0.448   3.980
43248W        W 8475  35.982  35.600  14.487
43249W        W 8476  20.774   3.816   2.206
43250W        W 8477   5.702  21.298   1.363
43251W        W 8478   9.433   7.660   3.432
43252W        W 8479  12.890   9.774   2.322
43253W        W 8480  27.234  37.946  12.078
43254W        W 8481  11.792  16.104   1.996
43255W        W 8482  35.397  20.173  13.821
43256W        W 8483  13.486  40.495   1.318
43257W        W 8484  33.407   1.277   0.055
43258W        W 8485  17.817  28.695  14.677
43259W        W 8486  21.286  20.156  14.428
43260W        W 8487  32.554  17.761  11.337
43261W        W 8488  31.695   1.273  11.744
43262W        W 8489  36.807  14.826   0.180
43263W        W 8490  30.602  25.378   5.490
43264W        W 8491  42.984  44.032   0.312
43265W        W 8492  32.471  44.230  11.920
43266W        W 8493  31.118  11.300   2.322
43267W        W 8494  23.711  35.115   0.840
43268W        W 8495  34.648  12.361  13.318
43269W        W 8496  41.868  20.650   1.638
43270W        W 8497  25.059  32.570  14.790
43271W        W 8498  22.159  25.458  14.569
43272W        W 8499   6.219  40.957   2.480
43273W        W 8500  23.239  33.081   3.867
43274W        W 8501  27.558   6.034  12.075
43275W        W 8502  12.315  35.668   4.208
43276W        W 8503  11.754  32.541   2.098
43277W        W 8504  28.254  15.682  13.101
43278W        W 8505  42.471  31.532   3.839
43279W        W 8506  18.657  14.040  11.984
43280W        W 8507  39.546  17.568  12.088
43281W        W 8508  11.750  44.647   4.025
43282W        W 8509  12.582   1.786  13.088
43283W        W 8510  33.419   9.707  12.488
43284W        W 8511   9.568   9.560  12.188
43285W        W 8512  30.120   7.910   4.502
43286W        W 8513  28.267   6.235   1.340
43287W        W 8514  23.193  27.555  12.970
43288W        W 8515  19.408  43.458  14.378
43289W        W 8516   5.916  44.799   2.624
43290W        W 8517  32.937   7.317   2.914
43291W        W 8518   4.975  29.396   0.435
43292W        W 8519   8.164  15.338  14.956
43293W        W 8520   1.532   9.312  12.015
43294W        W 8521  20.584  39.748   1.761
43295W        W 8522  26.887  26.168   1.479
43296W        W 8523  31.764  44.721  14.557
43297W        W 8524   7.853  34.025   1.193
43298W        W 8525  26.180  44.302   1.205
43299W        W 8526  10.165   7.934  12.847
43300W        W 8527  30.539  30.399  10.613
43301W        W 8528  30.291  33.793   4.515
43302W        W 8529  20.721  42.159  14.799
43303W        W 8530  15.569  29.496  11.679
43304W        W 8531  18.831  32.987  12.478
43305W        W 8532  28.626  23.691   0.484
43306W        W 8533  23.716  37.599  10.914
43307W        W 8534   9.853   9.292  10.666
43308W        W 8535  18.997  32.754   2.944
43309W        W 8536   1.421  14.683  13.221
43310W        W 8537   6.999  30.586  12.384
43311W        W 8538   7.973   7.086   0.167
43312W        W 8539  43.515   4.202   1.745
43313W        W 8540  44.983  15.333  14.281
43314W        W 8541  18.049   9.761   3.048
43315W        W 8542  32.569  33.168   0.879
43316W        W 8543   8.477  40.969  12.936
43317W        W 8544  24.095  21.493   1.356
43318W        W 8545  10.913  33.040  13.097
43319W        W 8546  18.129  32.425  11.178
43320W        W 8547   1.065  23.209   0.760
43321W        W 8548  14.073  24.518   2.371
43322W        W 8549  15.245  20.357   2.351
43323W        W 8550   3.676  35.022  13.953
43324W        W 8551  24.483  19.632   3.787
43325W        W 8552  11.343  10.911  11.190
43326W        W 8553  29.893  23.094  14.006
43327W        W 8554  12.760  16.637  12.888
43328W        W 8555  41.507  33.409  14.861
43329W        W 8556  10.466  19.686   3.642
43330W        W 8557  19.205  43.605  13.542
43331W        W 8558   2.707  40.973  14.944
43332W        W 8559  24.482  34.385  11.568
43333W        W 8560   4.138  23.913   0.963
43334W        W 8561  22.119  14.536  10.676
43335W        W 8562  43.705  40.418   1.622
43336W        W 8563  33.359  20.804   0.803
43337W        W 8564  31.486   0.410   4.981
43338W        W 8565  36.897  28.823  14.318
43339W        W 8566  39.438  40.339   1.727
43340W        W 8567  14.135   3.008  11.514
43341W        W 8568  42.059  29.730  12.525
43342W        W 8569   2.137   2.041   1.281
43343W        W 8570  15.958  34.198   9.810
43344W        W 8571  34.831  29.998  10.566
43345W        W 8572  38.498  24.130   3.162
43346W        W 8573  34.002   0.905  13.645
43347W        W 8574  30.479  36.870   2.186
43348W        W 8575   7.778   7.352   1.703
43349W        W 8576  24.044  35.566  12.955
43350W        W 8577  43.957   6.209   3.688
43351W        W 8578  31.300  34.694  10.960
43352W        W 8579  43.050  20.374   2.824
43353W        W 8580  38.981  36.346   4.175
43354W        W 8581  31.792  31.544   1.218
43355W        W 8582  39.329   4.233  11.191
43356W        W 8583  41.316   0.202   0.286
43357W        W 8584  25.263   8.366  12.080
43358W        W 8585   0.325  31.250  14.101
43359W        W 8586   2.881  39.952   3.303
43360W        W 8587  36.078  37.223  10.684
43361W        W 8588  42.718  19.082  12.528
43362W        W 8589  25.260  35.205   4.100
43363W        W 8590  27.101  17.802   4.638
43364W        W 8591  37.792  18.352  12.144
43365W        W 8592  11.891  43.452   3.288
43366W        W 8593  41.089   9.343   2.996
43367W        W 8594  30.600  16.261   0.702
43368W        W 8595  38.024  15.700  14.931
43369W        W 8596  36.474  43.509   0.724
43370W        W 8597  21.032  27.620  11.759
43371W        W 8598  34.980   9.630   3.201
43372W        W 8599  24.236   4.535  11.055
43373W        W 8600  42.032  22.312   1.022
43374W        W 8601  29.159  25.799  11.626
43375W        W 8602  12.297  33.156  12.793
43376W        W 8603  32.754  26.398  11.717
43377W        W 8604   9.021  29.167   3.157
43378W        W 8605   4.201  11.377   0.451
43379W        W 8606   9.091  29.613   0.849
43380W        W 8607  22.587  36.404   4.580
43381W        W 8608  30.532   5.843   1.722
43382W        W 8609  30.562  29.920   2.165
43383W        W 8610  34.356  35.214  13.930
43384W        W 8611   4.447  43.961   0.755
43385W        W 8612  38.087  34.812   1.800
43386W        W 8613  12.711  24.026   1.418
43387W        W 8614   3.344  15.656  13.782
43388W        W 8615  33.844   2.736  11.172
43389W        W 8616  33.481  41.338   1.250
43390W        W 8617   2.978   9.076   2.163
43391W        W 8618  18.302  10.846  12.448
43392W        W 8619  19.069  32.942  14.786
43393W        W 8620  39.340  28.750  14.617
43394W        W 8621  33.867  41.154  11.674
43395W        W 8622  41.586  27.609  14.936
43396W        W 8623  13.939  39.318   0.015
43397W        W 8624  25.136  42.557  13.349
43398W        W 8625  17.379  43.427  10.026
43399W        W 8626  36.550  10.698   4.595
43400W        W 8627  12.908  22.152   0.642
43401W        W 8628  44.126   4.685   5.091
43402W        W 8629  16.962   8.547   1.354
43403W        W 8630   2.005  36.618  13.473
43404W        W 8631  40.442  43.088  14.361
43405W        W 8632  41.377  22.809   4.504
43406W        W 8633   6.573  41.320   5.326
43407W        W 8634   8.396  11.094   4.293
43408W        W 8635  30.578  22.798   5.055
43409W        W 8636   7.112  12.368   3.553
43410W        W 8637  35.246  22.206  12.359
43411W        W 8638  13.555  34.380  13.187
43412W        W 8639  30.735  42.422   4.187
43413W        W 8640  24.463   7.840   1.461
43414W        W 8641  23.444  19.523   3.284
43415W        W 8642   4.954  27.199  11.597
43416W        W 8643   9.416  36.501  10.765
43417W        W 8644  28.766  41.961   0.312
43418W        W 8645  15.632  35.105  11.995
43419W        W 8646  12.776  10.708   3.396
43420W        W 8647  10.404   3.767   1.859
43421W        W 8648   0.487  33.468  14.986
43422W        W 8649  14.080  28.976  14.835
43423W        W 8650  36.522  38.026   1.811
43424W        W 8651  42.112  32.422  13.921
43425W        W 8652   3.780  29.906   4.343
43426W        W 8653  44.204  20.067  12.342
43427W        W 8654  15.293  21.590  10.172
43428W        W 8655  26.727   9.317  12.748
43429W        W 8656   5.411   7.886  12.615
43430W        W 8657  33.600  41.844  12.011
43431W        W 8658   2.883  30.410  11.050
43432W        W 8659  20.214  18.725  10.560
43433W        W 8660   0.946   2.117  13.804
43434W        W 8661  28.704  26.948   0.783
43435W        W 8662  18.491  30.911  12.905
43436W        W 8663  13.589  16.635  14.886
43437W        W 8664  39.545  14.422  12.552
43438W        W 8665  35.124  35.169   3.291
43439W        W 8666   7.060  33.741   4.131
43440W        W 8667  30.714  43.273   1.932
43441W        W 8668  20.332   4.070  14.557
43442W        W 8669  22.177  17.950  12.975
43443W        W 8670  35.431  40.335   4.326
43444W        W 8671   4.798  29.684   0.027
43445W        W 8672  33.890  33.963  11.152
43446W        W 8673  30.475  40.484  13.400
43447W        W 8674  44.239  41.161  11.678
43448W        W 8675  22.232  20.386  14.366
43449W        W 8676  28.611  41.238  11.983
43450W        W 8677  10.842  21.764  11.470
43451W        W 8678  37.152  14.760  13.173
43452W        W 8679  31.346   7.902   0.749
43453W        W 8680  36.493  24.504  14.055
43454W        W 8681   2.681   9.141   4.199
43455W        W 8682  28.416  29.175  13.075
43456W        W 8683  20.437  31.970  14.142
43457W        W 8684  19.272   6.814  10.806
43458W        W 8685  25.101   6.907  11.908
43459W        W 8686  34.461  12.830  12.627
43460W        W 8687   0.290  25.966  12.731
43461W        W 8688  20.781  25.637   0.970
43462W        W 8689   7.370  38.792   0.917
43463W        W 8690  35.619   5.870  13.043
43464W        W 8691  25.437  44.805   1.656
43465W        W 8692  43.972   0.845  11.425
43466W        W 8693  32.025  25.457   4.619
43467W        W 8694  12.131  14.930  12.927
43468W        W 8695  24.329  11.714  13.570
43469W        W 8696  14.239  15.146  12.103
43470W        W 8697  19.096   3.336   0.155
43471W        W 8698  31.946  18.869   0.005
43472W        W 8699  14.676  35.045   3.329
43473W        W 8700  18.242  35.411  14.856
43474W        W 8701  33.083   0.438  14.530
43475W        W 8702  35.267  40.584  14.508
43476W        W 8703  26.420  25.412   1.268
43477W        W 8704  26.685  41.292  12.041
43478W        W 8705  35.957  41.284   0.033
43479W        W 8706  29.917  25.089   3.247
43480W        W 8707   9.841  42.275   1.856
43481W        W 8708  21.817  26.490   3.510
43482W        W 8709   6.232   5.408  13.533
43483W        W 8710  23.994  34.787   2.903
43484W        W 8711  17.751  39.441  11.074
43485W        W 8712  44.013  13.755   1.326
43486W        W 8713  38.353   1.378  11.678
43487W        W 8714  17.015  36.156   0.566
43488W        W 8715  24.934  44.207   2.762
43489W        W 8716   9.751   8.559   2.325
43490W        W 8717  27.814  12.849   3.308
43491W        W 8718  33.777  30.479   3.727
43492W        W 8719  42.659  40.745   0.362
43493W        W 8720  11.264  18.502   2.246
43494W        W 8721   0.845  25.996  11.911
43495W        W 8722  18.651  28.417  12.012
43496W        W 8723  32.069   9.338  12.379
43497W        W 8724  35.813   2.030  10.725
43498W        W 8725  14.569  31.205  14.803
43499W        W 8726  10.395  38.743   2.848
43500W        W 8727   8.232  11.180   1.642
43501W        W 8728  41.321   6.178   0.267
43502W        W 8729  27.849  11.678  12.090
43503W        W 8730  18.124  17.661  12.802
43504W        W 8731  24.238  28.044  12.514
43505W        W 8732  41.126  24.163  13.227
43506W        W 8733  32.732  20.709  14.376
43507W        W 8734  20.749  32.007   0.840
43508W        W 8735   4.788  26.203   4.505
43509W        W 8736   0.835  41.319   4.146
43510W        W 8737  16.475  11.674   9.852
43511W        W 8738   2.472  41.093   1.679
43512W        W 8739   3.969  43.797  12.188
43513W        W 8740  15.837  17.251  12.932
43514W        W 8741  14.547  34.164  11.844
43515W        W 8742  10.208   6.811   3.371
43516W        W 8743  35.719  42.831  13.418
43517W        W 8744  19.248  18.120  13.308
43518W        W 8745  16.237  18.460  11.094
43519W        W 8746  13.581  10.214   4.619
43520W        W 8747  20.987   7.937   4.623
43521W        W 8748  33.092  31.063   1.352
43522W        W 8749  22.042  37.694   4.555
43523W        W 8750  35.810  32.259  10.632
43524W        W 8751  37.492   5.211  13.579
43525W        W 8752  43.010   7.601  14.202
43526W        W 8753  12.720  33.160  14.538
43527W        W 8754  19.529   7.771  12.137
43528W        W 8755  41.735   8.228   1.231
43529W        W 8756  37.091   4.721  14.428
43530W        W 8757   0.849   0.857  12.292
43531W        W 8758  16.812  30.953   4.116
43532W        W 8759   2.290  38.999   0.818
43533W        W 8760  12.030  23.935  11.924
43534W        W 8761  42.941  39.157  13.693
43535W        W 8762  23.265   7.245   4.282
43536W        W 8763  11.986  22.815  13.233
43537W        W 8764  10.553  26.942  14.850
43538W        W 8765  11.600  20.816  13.021
43539W        W 8766  42.719   9.211  13.829
43540W        W 8767  44.453   6.151  13.831
43541W        W 8768  23.521   8.727  13.032
43542W        W 8769  29.366  13.480   3.025
43543W        W 8770  38.870   4.434   0.283
43544W        W 8771  24.177  30.307  14.732
43545W        W 8772  21.623  25.879   2.326
43546W        W 8773   2.786   6.824  10.531
43547W        W 8774  42.558  43.744   0.176
43548W        W 8775   2.469  12.023  11.510
43549W        W 8776  21.001  26.103   0.860
43550W        W 8777  36.467   3.816  11.026
43551W        W 8778   6.420  33.025  13.774
43552W        W 8779   4.233  36.486  12.520
43553W        W 8780  11.191  38.867   1.000
43554W        W 8781  27.035  25.875   4.584
43555W        W 8782  41.059  16.262  12.869
43556W        W 8783  44.987   9.696  14.377
43557W        W 8784  25.553  23.236  14.950
43558W        W 8785  39.573  25.031   3.519
43559W        W 8786  27.041   6.301   3.189
43560W        W 8787  31.298   0.804  11.893
43561W        W 8788  33.567  17.825   1.939
43562W        W 8789  22.164  37.407  10.614
43563W        W 8790   4.486  16.632   4.133
43564W        W 8791  43.422  24.440  11.136
43565W        W 8792  26.500  33.347  10.804
43566W        W 8793  44.870   2.330  14.134
43567W        W 8794  42.545   2.496  13.869
43568W        W 8795  26.190   2.417   0.929
43569W        W 8796  13.737  39.021   2.182
43570W        W 8797  43.071  34.018  12.895
43571W        W 8798   3.597  11.730   2.706
43572W        W 8799  22.103   5.758   2.324
43573W        W 8800  17.315   1.693  10.893
43574W        W 8801  26.436  21.737   0.715
43575W        W 8802  40.576   5.263  12.976
43576W        W 8803  39.705  43.518   3.984
43577W        W 8804  27.511  12.860  10.201
43578W        W 8805  10.123  22.434  11.009
43579W        W 8806  22.477  40.850   4.637
43580W        W 8807  30.583  11.580   5.392
43581W        W 8808  19.063  25.925   2.750
43582W        W 8809  20.300  39.004  12.922
43583W        W 8810  38.895  26.215   1.294
43584W        W 8811  43.140  26.107  14.097
43585W        W 8812  11.758   0.887  14.101
43586W        W 8813  43.163   4.149  14.962
43587W        W 8814  15.686  17.237   2.968
43588W        W 8815  41.212  26.510   3.892
43589W        W 8816  32.189  42.783   2.433
43590W        W 8817  25.596  11.937   1.532
43591W        W 8818   9.613  25.189   1.181
43592W        W 8819  19.509  43.809   0.717
43593W        W 8820  33.396  18.175   4.325
43594W        W 8821  23.581  19.869   1.424
43595W        W 8822  29.856   2.262  13.527
43596W        W 8823  15.158  20.997  11.539
43597W        W 8824  21.988   4.001   2.852
43598W        W 8825  25.033  30.442   2.432
43599W        W 8826  17.892   4.297  12.462
43600W        W 8827   2.711  43.370   1.733
43601W        W 8828   9.287  36.347  14.477
43602W        W 8829  17.312  34.195   2.157
43603W        W 8830  29.927  24.041   5.254
43604W        W 8831  41.379  23.491   0.728
43605W        W 8832   9.652  34.779  11.486
43606W        W 8833  36.618  22.821   2.233
43607W        W 8834  11.681  22.798   4.184
43608W        W 8835  23.337  23.721  12.033
43609W        W 8836  14.800  36.722   2.822
43610W        W 8837  29.488  34.051   1.633
43611W        W 8838  23.865  33.446  10.734
43612W        W 8839   6.973   9.875  11.735
43613W        W 8840  24.940  29.151   4.108
43614W        W 8841  21.881  22.298  14.583
43615W        W 8842   4.993   8.332  11.563
43616W        W 8843  22.391  25.261  14.078
43617W        W 8844   7.688  40.009   4.504
43618W        W 8845   3.540  19.447  14.785
43619W        W 8846   7.061   7.533  11.241
43620W        W 8847   3.036  24.988  12.862
43621W        W 8848  42.256  41.397   2.062
43622W        W 8849  29.041   2.600  13.349
43623W        W 8850  41.318   1.697  13.473
43624W        W 8851  24.695   3.293   2.010
43625W        W 8852   5.897  41.686   4.091
43626W        W 8853  31.172  29.222  12.024
43627W        W 8854   3.695  33.451   1.940
43628W        W 8855  19.097  42.194  12.411
43629W        W 8856  39.517   9.146   0.403
43630W        W 8857  17.309  25.752  13.015
43631W        W 8858   8.938  37.849  12.840
43632W        W 8859  31.313  18.199  12.447
43633W        W 8860  11.108   5.750  10.783
43634W        W 8861  34.410  39.976  11.662
43635W        W 8862   5.141  12.980  11.298
43636W        W 8863  21.162   7.334  13.870
43637W        W 8864  42.831  21.838  12.023
43638W        W 8865  36.073   5.463  13.826
43639W        W 8866  32.944  10.147  12.823
43640W        W 8867   6.588   2.210  13.799
43641W        W 8868   6.695  30.177   2.853
43642W        W 8869   2.414  12.615  14.910
43643W        W 8870  43.852  16.002   3.240
43644W        W 8871  35.385  36.084   1.772
43645W        W 8872  12.178  40.642  10.833
43646W        W 8873  23.804  30.938  11.170
43647W        W 8874   4.717   3.701  14.753
43648W        W 8875  14.248  12.267   0.855
43649W        W 8876  40.542  22.527  11.623
43650W        W 8877  25.665  32.629  12.925
43651W        W 8878  32.444  42.059  11.238
43652W        W 8879  35.009  40.950  14.246
43653W        W 8880  25.033  35.419   2.388
43654W        W 8881  27.072  13.888  14.794
43655W        W 8882  11.842  14.884   3.182
43656W        W 8883  25.982  28.544  12.414
43657W        W 8884   1.784  11.640  13.487
43658W        W 8885  33.267   2.209  12.103
43659W        W 8886  21.104  20.241  10.760
43660W        W 8887  22.002   3.429  14.382
43661W        W 8888  12.549  26.166  12.824
43662W        W 8889  26.077  32.585  11.077
43663W        W 8890  15.679   8.428   0.759
43664W        W 8891  24.595  37.479   3.262
43665W        W 8892  23.017  20.546  13.952
43666W        W 8893   9.097  24.651  12.899
43667W        W 8894  36.845  25.539  11.158
43668W        W 8895  40.026  15.425   0.549
43669W        W 8896  43.462  42.480   2.995
43670W        W 8897  43.786   3.699  11.605
43671W        W 8898  30.087  24.508  10.787
43672W        W 8899  33.267   6.788  11.181
43673W        W 8900  18.503  23.096  11.155
43674W        W 8901  34.417  16.695  14.940
43675W        W 8902  17.775  35.010   4.148
43676W        W 8903  23.669  18.668   1.054
43677W        W 8904  22.926  20.247   4.175
43678W        W 8905   1.206  37.349   3.862
43679W        W 8906  19.054   9.435   0.936
43680W        W 8907  41.133  28.236  13.559
43681W        W 8908  34.120  36.438   3.410
43682W        W 8909   1.039  23.727  12.913
43683W        W 8910   0.687  21.126  12.438
43684W        W 8911  24.577  38.833   0.827
43685W        W 8912  20.057  29.091   3.802
43686W        W 8913  11.795  32.117  14.399
43687W        W 8914  35.621  14.799   4.083
43688W        W 8915  14.892  38.528  10.514
43689W        W 8916  29.221  13.124   2.191
43690W        W 8917  15.656   7.350  14.128
43691W        W 8918  10.325  27.987   5.172
43692W        W 8919  36.061  20.159  12.582
43693W        W 8920   7.818   4.028   2.128
43694W        W 8921   6.354   0.461   0.004
43695W        W 8922   6.578  33.487   3.246
43696W        W 8923  17.640  23.582  10.632
43697W        W 8924  11.493   3.811   4.418
43698W        W 8925   4.330  33.935   4.217
43699W        W 8926  41.221  17.195   1.762
43700W        W 8927  30.618  27.666  12.581
43701W        W 8928  10.812  25.927  14.001
43702W        W 8929  39.934  29.878  12.662
43703W        W 8930  26.897  33.931  13.106
43704W        W 8931  32.016  41.068   1.856
43705W        W 8932  35.620  12.053  12.745
43706W        W 8933   2.606  24.140  14.316
43707W        W 8934  33.329  14.309   0.860
43708W        W 8935   3.959  10.845  10.863
43709W        W 8936  27.351  17.641   3.223
43710W        W 8937  16.670  39.707   3.846
43711W        W 8938  25.408   8.704   1.272
43712W        W 8939  21.727  44.504  14.888
43713W        W 8940  23.209   8.168   3.216
43714W        W 8941  36.550   8.285   2.330
43715W        W 8942  40.015   1.348   4.388
43716W        W 8943  37.339  32.989   2.255
43717W        W 8944   5.732  16.123   2.248
43718W        W 8945   5.819  20.968   2.230
43719W        W 8946  21.683  12.125   3.765
43720W        W 8947  25.523  30.843  12.149
43721W        W 8948  35.570  14.734  13.302
43722W        W 8949  12.286  38.469  13.120
43723W        W 8950  27.122  30.977  14.009
43724W        W 8951  18.522  42.368   3.584
43725W        W 8952  17.560  25.979   3.767
43726W        W 8953  38.749  42.491   2.781
43727W        W 8954  27.712  25.170   2.828
43728W        W 8955  38.480  12.005  11.039
43729W        W 8956  36.101  22.680   9.800
43730W        W 8957  21.680  13.128   4.671
43731W        W 8958   5.358  27.424  13.451
43732W        W 8959  36.345  18.533  14.870
43733W        W 8960   0.484  42.969  14.223
43734W        W 8961  19.675  29.640   3.362
43735W        W 8962  14.398  19.634   3.633
43736W        W 8963  24.995  43.442   2.039
43737W        W 8964   3.006  20.556   5.052
43738W        W 8965   4.170   0.416  13.571
43739W        W 8966   7.347  43.994   1.880
43740W        W 8967  30.114   9.770  10.667
43741W        W 8968  16.944   9.847   2.004
43742W        W 8969  16.843  16.141  10.778
43743W        W 8970   0.756  10.436  13.808
43744W        W 8971  34.392  33.119  11.151
43745W        W 8972  16.544  40.360   4.310
43746W        W 8973  31.124   9.718  10.484
43747W        W 8974   1.798  44.727  14.566
43748W        W 8975  16.404  16.602  12.272
43749W        W 8976  43.188  26.921  13.596
43750W        W 8977  15.094  42.800   1.988
43751W        W 8978   6.920  28.855   1.398
43752W        W 8979  14.455   6.088  13.412
43753W        W 8980  43.016  36.991   2.326
43754W        W 8981  27.956  12.836   4.996
43755W        W 8982  38.292  31.142   3.344
43756W        W 8983  10.176   8.554   1.015
43757W        W 8984  31.940  11.462   0.455
43758W        W 8985  20.110   3.943   2.021
43759W        W 8986  17.049  35.226   1.689
43760W        W 8987  24.816  14.544   4.087
43761W        W 8988  34.582  33.464   2.678
43762W        W 8989  10.361  32.948   2.271
43763W        W 8990  37.985  38.016  12.182
43764W        W 8991  19.298  17.247  13.104
43765W        W 8992  15.347  28.554  14.880
43766W        W 8993  30.118   1.269  14.964
43767W        W 8994  33.913   6.343   0.167
43768W        W 8995   2.510  32.106   0.590
43769W        W 8996  24.659  32.637  13.093
43770W        W 8997   8.297  38.612   1.235
43771W        W 8998  36.532  42.792  14.356
43772W        W 8999  33.101  39.325   2.378
43773W        W 9000  37.570  23.624   2.721
43774W        W 9001  29.737   8.232   0.725
43775W        W 9002   7.874  38.045  13.969
43776W        W 9003   6.709  19.602   0.376
43777W        W 9004  30.908   5.080   1.920
43778W        W 9005  38.320  17.371   1.403
43779W        W 9006  43.282  31.660   2.875
43780W        W 9007  11.026  29.208   2.351
43781W        W 9008   0.783   0.361  14.833
43782W        W 9009  33.905  17.149  11.976
43783W        W 9010  22.025  35.817   4.106
43784W        W 9011  39.018  18.458   3.972
43785W        W 9012  30.751   0.313   3.726
43786W        W 9013   3.527  22.227   3.648
43787W        W 9014  40.467   6.211  14.265
43788W        W 9015  39.058  33.363  11.619
43789W        W 9016  25.090   4.163   3.619
43790W        W 9017  17.162   0.430   0.779
43791W        W 9018  43.822  19.207   2.386
43792W        W 9019  44.908  11.094  13.300
43793W        W 9020  29.966  38.668   3.244
43794W        W 9021  30.531  22.460  11.050
43795W        W 9022  19.152  22.785  11.593
43796W        W 9023   4.559   0.609  12.708
43797W        W 9024  27.140  11.079  12.359
43798W        W 9025  39.650  35.800   1.834
43799W        W 9026  24.084  12.281   0.284
43800W        W 9027   8.655  18.123   1.291
43801W        W 9028  17.591  42.065  11.523
43802W        W 9029  40.018  41.538  10.805
43803W        W 9030  26.503  40.029   2.806
43804W        W 9031  39.898  21.293  14.318
43805W        W 9032  44.836  15.571  13.044
43806W        W 9033   7.800   1.743  13.323
43807W        W 9034  13.650  43.925   1.213
43808W        W 9035  23.828  17.696  13.842
43809W        W 9036   3.785   3.620  12.621
43810W        W 9037  30.230  17.029  13.197
43811W        W 9038  43.537  40.408   0.254
43812W        W 9039  17.347  32.370  14.291
43813W        W 9040  25.801  43.977   0.971
43814W        W 9041  28.560  37.460  13.077
43815W        W 9042  20.641  18.999  14.311
43816W        W 9043   0.814   3.324  12.098
43817W        W 9044  36.458  42.931   2.860
43818W        W 9045  18.705  17.741  14.783
43819W        W 9046  43.407  37.527   3.768
43820W        W 9047  20.719  40.091  11.614
43821W        W 9048  30.251  42.072   2.337
43822W        W 9049   0.861  19.197  13.496
43823W        W 9050  20.775   1.655   0.434
43824W        W 9051   4.024   3.453   0.811
43825W        W 9052  26.883  17.944   1.645
43826W        W 9053  31.849  31.042   2.670
43827W        W 9054  31.436   6.796   0.330
43828W        W 9055  15.535  41.513  14.747
43829W        W 9056   8.972   2.345  14.462
43830W        W 9057  23.070  12.657   3.616
43831W        W 9058   4.168  20.958  12.354
43832W        W 9059  29.117  38.763   4.304
43833W        W 9060  31.839  32.562  13.807
43834W        W 9061  28.422  39.016   0.941
43835W        W 9062  30.966  10.154  14.913
43836W        W 9063   5.143  34.580  11.502
43837W        W 9064  11.162  13.139   2.709
43838W        W 9065  24.383  24.373   0.921
43839W        W 9066  35.204  20.069  14.939
43840W        W 9067  35.182   7.394   0.864
43841W        W 9068  20.560   3.496   9.858
43842W        W 9069  18.942  22.834  12.067
43843W        W 9070  10.238  22.780   0.301
43844W        W 9071  21.545  37.635  12.097
43845W        W 9072  12.329  18.665  13.609
43846W        W 9073  24.674   8.972   1.615
43847W        W 9074  42.915  18.407  14.944
43848W        W 9075  28.125  19.475  14.479
43849W        W 9076  29.911  17.178  14.068
43850W        W 9077  38.008   2.327   4.386
43851W        W 9078  39.583  24.157   0.017
43852W        W 9079   4.476  19.639   2.105
43853W        W 9080   1.520  38.792  13.130
43854W        W 9081   0.996  22.830   2.827
43855W        W 9082  27.633   3.072  12.497
43856W        W 9083  22.039  36.837   0.391
43857W        W 9084  25.533   0.891   1.213
43858W        W 9085  17.085   9.503   4.111
43859W        W 9086  23.111  13.338   1.280
43860W        W 9087   3.646  13.307   1.150
43861W        W 9088  30.620  14.884  14.410
43862W        W 9089  20.041  30.910   4.587
43863W        W 9090  43.934  14.501   2.362
43864W        W 9091  19.735  37.049   1.491
43865W        W 9092  17.747  10.619   1.210
43866W        W 9093  28.926  25.655   0.279
43867W        W 9094  29.331  11.385  11.662
43868W        W 9095  20.289  31.920   2.834
43869W        W 9096  38.821   4.793  12.198
43870W        W 9097  30.093  42.468   1.472
43871W        W 9098   2.963  23.836  10.849
43872W        W 9099  44.440   5.302  10.417
43873W        W 9100  22.632  15.805   4.040
43874W        W 9101  43.520  36.635  12.513
43875W        W 9102  42.610  35.052  14.557
43876W        W 9103  13.215  14.222   0.626
43877W        W 9104  28.949  27.960  14.909
43878W        W 9105   9.372   3.573   2.692
43879W        W 9106  21.218  12.720   1.439
43880W        W 9107  33.423   3.297   4.684
43881W        W 9108  27.684  12.285   4.128
43882W        W 9109  14.065  44.169   2.459
43883W        W 9110  12.295  23.036   1.414
43884W        W 9111  42.790  43.780   2.269
43885W        W 9112  33.356   5.433  11.226
43886W        W 9113   8.962  21.293  12.432
43887W        W 9114  19.100  39.333   3.651
43888W        W 9115  18.082  38.395  12.914
43889W        W 9116  34.460  32.045  14.488
43890W        W 9117  33.595   1.984   1.273
43891W        W 9118  27.639  23.507  13.867
43892W        W 9119  22.029  31.959   0.441
43893W        W 9120  43.083  37.913   0.780
43894W        W 9121  13.053  20.335   3.881
43895W        W 9122  24.024  42.842   1.363
43896W        W 9123   3.041  32.019   0.724
43897W        W 9124  38.807  15.186   3.773
43898W        W 9125  44.928   9.378   3.707
43899W        W 9126  31.435  31.221   0.887
43900W        W 9127  15.337   7.702  11.213
43901W        W 9128  11.920  21.911  13.443
43902W        W 9129  12.707  24.462  12.968
43903W        W 9130  27.886   6.792   2.840
43904W        W 9131  13.128  29.844   3.630
43905W        W 9132  17.142   1.535  10.418
43906W        W 9133  21.053  27.111  14.481
43907W        W 9134  39.430  12.753  14.158
43908W        W 9135  10.657  35.928   3.124
43909W        W 9136   4.942   6.161   4.591
43910W        W 9137   4.587   1.448  14.462
43911W        W 9138   7.445  41.354   0.698
43912W        W 9139  13.986  22.430   4.992
43913W        W 9140   6.746  17.043   2.046
43914W        W 9141  15.126  34.353   4.301
43915W        W 9142  41.304  16.117  14.292
43916W        W 9143  29.569   9.299  13.010
43917W        W 9144  20.818   5.644  13.538
43918W        W 9145   7.671   0.330   3.746
43919W        W 9146  30.540  11.059   4.499
43920W        W 9147  19.322  34.981  13.890
43921W        W 9148   0.374  24.572   1.918
43922W        W 9149  43.820  22.317  13.058
43923W        W 9150  34.653  35.368   4.598
43924W        W 9151   6.215  37.571  14.312
43925W        W 9152  12.726  31.966   2.382
43926W        W 9153   6.868  17.251   0.587
43927W        W 9154  41.860  29.099  14.857
43928W        W 9155  44.675  11.225   3.980
43929W        W 9156  36.558  13.823  12.331
43930W        W 9157   5.681  27.205   1.845
43931W        W 9158  14.074  26.745  12.424
43932W        W 9159   4.309  12.442  13.529
43933W        W 9160  35.490  21.516   0.838
43934W        W 9161   2.465   7.331   4.728
43935W        W 9162   7.295  18.320  14.796
43936W        W 9163  43.362  24.180   2.570
43937W        W 9164  29.271   6.007   4.251
43938W        W 9165  14.659  14.298  11.094
43939W        W 9166  33.006  26.872  12.123
43940W        W 9167  26.073   9.141  11.544
43941W        W 9168  39.898   3.275   2.131
43942W        W 9169  22.879  29.956   0.893
43943W        W 9170  27.030   4.565   9.726
43944W        W 9171  41.190   0.218  13.565
43945W        W 9172   3.465  23.800  12.871
43946W        W 9173  39.770  12.128   3.362
43947W        W 9174  36.416  12.907  14.408
43948W        W 9175  11.462  18.307   3.657
43949W        W 9176  12.881  20.971  13.334
43950W        W 9177  34.009  32.912  12.772
43951W        W 9178  35.503  27.173   0.509
43952W        W 9179  28.920  24.480  14.427
43953W        W 9180  36.259  35.510  10.739
43954W        W 9181  14.575   1.066  11.657
43955W        W 9182  22.962  14.155  11.994
43956W        W 9183  16.558  19.556   2.279
43957W        W 9184  36.382   5.136   3.248
43958W        W 9185  19.654  23.222   0.874
43959W        W 9186   7.153  40.815  14.426
43960W        W 9187  14.500  12.422  12.520
43961W        W 9188  38.119   0.999   9.845
43962W        W 9189  15.802  26.586   3.288
43963W        W 9190  18.675  17.363   2.093
43964W        W 9191   5.447   8.293   3.228
43965W        W 9192  16.859   7.429   2.056
43966W        W 9193   3.780  27.270  14.983
43967W        W 9194  34.281  14.753  14.316
43968W        W 9195  42.054  19.671  13.637
43969W        W 9196  19.744  26.749  13.012
43970W        W 9197  20.334  42.454   0.668
43971W        W 9198  27.125   6.695   3.500
43972W        W 9199  43.018  27.103  12.258
43973W        W 9200  23.553  27.284   2.268
43974W        W 9201   5.436   2.048   3.096
43975W        W 9202  28.515  42.471  14.202
43976W        W 9203  38.863  25.540  14.418
43977W        W 9204  41.777   6.961  14.020
43978W        W 9205  42.004  17.677   3.769
43979W        W 9206  30.553  29.643   3.145
43980W        W 9207   2.168  30.509  11.091
43981W        W 9208  16.587  24.060   2.829
43982W        W 9209  37.436  31.438  14.140
43983W        W 9210  27.642  44.038   2.334
43984W        W 9211  25.480  41.962   1.216
43985W        W 9212  18.789  17.078  11.796
43986W        W 9213  33.909  40.846   0.745
43987W        W 9214  26.998  30.598   4.955
43988W        W 9215   4.780  11.652  14.616
43989W        W 9216   0.766   0.432  11.067
43990W        W 9217  23.129  14.449   3.026
43991W        W 9218   2.752  18.813  14.814
43992W        W 9219   5.282  17.149  12.874
43993W        W 9220  41.887  36.514   1.794
43994W        W 9221  15.840  30.491  13.929
43995W        W 9222  21.935  21.088   0.863
43996W        W 9223   9.235  30.575   3.218
43997W        W 9224  26.832  42.828   0.791
43998W        W 9225  10.903   4.221   4.160
43999W        W 9226  30.957  12.162   4.913
44000W        W 9227   3.863  35.344  14.777
44001W        W 9228  39.705   3.392   1.681
44002W        W 9229   3.284  27.115   0.177
44003W        W 9230  43.565   1.336   1.377
44004W        W 9231   3.262  41.855  11.467
44005W        W 9232   8.442  27.153  12.625
44006W        W 9233  28.365  22.496   2.176
44007W        W 9234   3.250   4.731  10.749
44008W        W 9235   3.867   6.307  14.825
44009W        W 9236  42.797  20.525   3.283
44010W        W 9237  10.756  31.855  12.058
44011W        W 9238   5.247  19.391   3.098
44012W        W 9239  42.682   9.449  14.983
44013W        W 9240  32.065  15.239  13.432
44014W        W 9241  28.662  35.313  12.445
44015W        W 9242  10.109  38.552  13.037
44016W        W 9243  32.993  18.674  14.379
44017W        W 9244  22.280   6.366   4.056
44018W        W 9245  33.851  23.202  14.934
44019W        W 9246  18.185  10.589  12.912
44020W        W 9247   0.408  21.634   4.541
44021W        W 9248  18.485  16.755  11.512
44022W        W 9249  11.300   0.820   2.321
44023W        W 9250  18.331  32.676  11.621
44024W        W 9251  12.722  26.337   2.780
44025W        W 9252  44.196  29.184  14.450
44026W        W 9253   9.303  24.766   2.433
44027W        W 9254   1.498   2.846  12.490
44028W        W 9255   9.294  39.773   2.766
44029W        W 9256  15.403  14.862   4.101
44030W        W 9257  36.996  27.990  12.947
44031W        W 9258  24.205   0.805  12.832
44032W        W 9259  38.399   9.171  10.115
44033W        W 9260  12.163  33.040  13.756
44034W        W 9261  29.410  12.336  13.039
44035W        W 9262  26.972  30.236   3.652
44036W        W 9263   3.757  24.536   2.905
44037W        W 9264  43.836  15.645   4.172
44038W        W 9265  35.484  36.721  12.168
44039W        W 9266  44.819  20.603   0.927
44040W        W 9267  30.064  26.435  12.287
44041W        W 9268  42.275  34.469   0.350
44042W        W 9269  22.774  21.097   9.964
44043W        W 9270  43.372  10.346  12.364
44044W        W 9271  11.479  15.742   2.801
44045W        W 9272   5.198  39.204  14.479
44046W        W 9273   4.617  18.193  11.947
44047W        W 9274  24.168  37.511  14.006
44048W        W 9275  39.512  29.467   4.792
44049W        W 9276  31.639  16.774   0.881
44050W        W 9277  13.132  42.802  12.506
44051W        W 9278  17.354  39.441  10.484
44052W        W 9279   7.326  42.459   0.227
44053W        W 9280  20.083  23.820   5.011
44054W        W 9281  12.163   1.484  12.159
44055W        W 9282   6.697  34.014   0.044
44056W        W 9283  28.929  38.595   3.859
44057W        W 9284  40.082  43.997   3.290
44058W        W 9285  25.116   4.699   4.337
44059W        W 9286  43.825  29.168   1.758
44060W        W 9287  39.260  24.434   1.319
44061W        W 9288  32.090  13.388  12.496
44062W        W 9289  12.367  29.668   4.905
44063W        W 9290  44.378  26.892   0.355
44064W        W 9291  30.484   7.252  11.403
44065W        W 9292  43.861   6.301  12.631
44066W        W 9293  31.176  34.461   1.744
44067W        W 9294  43.464  39.946   2.183
44068W        W 9295  20.621  41.419  12.561
44069W        W 9296   3.454  25.455   0.761
44070W        W 9297  32.073  21.644  10.529
44071W        W 9298  33.105  20.217   2.497
44072W        W 9299  38.844   4.924  14.101
44073W        W 9300  15.305  35.483  12.620
44074W        W 9301  14.093  12.561  12.221
44075W        W 9302   5.858  10.602  14.777
44076W        W 9303  27.026  36.432  13.381
44077W        W 9304   0.494   1.066  13.481
44078W        W 9305   0.668   8.702   0.552
44079W        W 9306   2.274   5.774   1.689
44080W        W 9307  12.459  34.369  13.384
44081W        W 9308  42.064  11.703  12.332
44082W        W 9309  23.188  20.036   4.615
44083W        W 9310  20.070  27.406   1.446
44084W        W 9311  15.395  16.484  10.961
44085W        W 9312  43.007  31.034  14.339
44086W        W 9313  21.616  39.750  14.504
44087W        W 9314  29.809   0.316  11.497
44088W        W 9315  25.669  22.965  12.092
44089W        W 9316  35.896  15.801   3.944
44090W        W 9317  36.310   2.405   3.288
44091W        W 9318   1.419  11.157  11.743
44092W        W 9319  18.679  18.058  10.777
44093W        W 9320  34.746  20.969  11.683
44094W        W 9321  15.378   0.189   1.337
44095W        W 9322  21.928  18.533   1.444
44096W        W 9323  38.874  27.691   4.692
44097W        W 9324  41.197   8.580   3.819
44098W        W 9325  13.813  21.599  11.052
44099W        W 9326   5.688   1.266  14.635
44100W        W 9327  38.011  43.364   0.025
44101W        W 9328  11.174   2.113  10.860
44102W        W 9329  40.972   0.181  14.881
44103W        W 9330  31.807  25.584   3.274
44104W        W 9331   7.236  32.449  11.876
44105W        W 9332  31.617  14.242  11.641
44106W        W 9333   0.864  28.000   2.713
44107W        W 9334  24.522  42.313  11.622
44108W        W 9335  34.470  43.026   2.207
44109W        W 9336   0.994  34.960  12.294
44110W        W 9337  25.710  19.225   3.692
44111W        W 9338  14.834   9.545  12.058
44112W        W 9339   7.480   9.876  12.198
44113W        W 9340  35.456  19.530  13.981
44114W        W 9341  41.470  11.568  11.206
44115W        W 9342   8.060  44.422   1.686
44116W        W 9343  23.624  42.888   3.610
44117W        W 9344  40.907  28.901  13.026
44118W        W 9345  13.241  10.965  14.516
44119W        W 9346   5.188  18.673  11.530
44120W        W 9347   2.996   6.738   3.589
44121W        W 9348  43.079   8.414  13.094
44122W        W 9349  22.084  13.851   4.936
44123W        W 9350  20.039  23.636   3.365
44124W        W 9351   0.222   6.385   2.349
44125W        W 9352  20.151  26.809  14.896
44126W        W 9353  15.567  24.069   0.842
44127W        W 9354  33.990  14.743  14.771
44128W        W 9355   3.529  40.032  13.560
44129W        W 9356  25.613  44.922   2.584
44130W        W 9357  15.899  36.987  12.380
44131W        W 9358  10.894  33.171   0.355
44132W        W 9359   4.392  26.319   2.519
44133W        W 9360  28.214  18.241   0.939
44134W        W 9361  12.865   0.366  12.589
44135W        W 9362  26.134  17.058  10.766
44136W        W 9363   8.602  21.446  14.404
44137W        W 9364   8.663  32.930   3.427
44138W        W 9365  18.590   4.913   0.937
44139W        W 9366  21.738   8.766   0.739
44140W        W 9367  18.830  27.461  10.810
44141W        W 9368  20.681  13.194   0.786
44142W        W 9369  33.179  31.154  12.202
44143W        W 9370   5.770  21.133   4.645
44144W        W 9371   3.763  41.367   1.161
44145W        W 9372  23.502   1.449   0.842
44146W        W 9373  41.378  31.698  14.109
44147W        W 9374   6.065   6.888  14.472
44148W        W 9375  43.749  11.292  12.377
44149W        W 9376   1.974  36.312   4.640
44150W        W 9377  26.069  20.293   4.106
44151W        W 9378  38.002  40.424   1.125
44152W        W 9379  40.088  11.362  11.449
44153W        W 9380  15.078  25.618   0.420
44154W        W 9381   1.747  34.647   3.191
44155W        W 9382  10.265   0.652   0.045
44156W        W 9383  25.065   0.056   1.915
44157W        W 9384   7.999   0.640   1.845
44158W        W 9385   8.757  29.084  12.862
44159W        W 9386  32.491  28.425   1.422
44160W        W 9387  40.041  30.890   2.765
44161W        W 9388   1.846   1.415   0.218
44162W        W 9389  22.488  31.074  10.715
44163W        W 9390  39.918  22.280  14.869
44164W        W 9391  39.447  42.001  12.870
44165W        W 9392  21.030  43.988  13.564
44166W        W 9393  40.713  26.195  13.224
44167W        W 9394  16.185  19.052  14.316
44168W        W 9395  23.553  37.985  11.244
44169W        W 9396  19.326  33.868  12.652
44170W        W 9397   6.301   1.973   0.629
44171W        W 9398  36.367  43.886   2.457
44172W        W 9399  24.687  17.090  11.681
44173W        W 9400  30.591  33.674  13.814
44174W        W 9401  43.538  39.001   3.834
44175W        W 9402  26.645  31.980  10.880
44176W        W 9403  30.650  43.726  13.041
44177W        W 9404  19.239   8.145   4.301
44178W        W 9405  19.239  25.561   0.239
44179W        W 9406  42.576  11.329  10.697
44180W        W 9407  37.624  23.448  13.715
44181W        W 9408  15.071   4.470  14.792
44182W        W 9409  37.411  11.629  12.006
44183W        W 9410  34.427   7.219   3.740
44184W        W 9411  44.858  39.391   3.643
44185W        W 9412  37.888  39.309  12.163
44186W        W 9413  33.690  11.332  13.491
44187W        W 9414  14.421   9.784   3.728
44188W        W 9415  25.609  31.920  12.182
44189W        W 9416  26.967  16.808   2.815
44190W        W 9417   4.340  21.832   1.872
44191W        W 9418  18.086  37.742  14.361
44192W        W 9419   0.330   2.528  12.176
44193W        W 9420   2.792  34.841  13.720
44194W        W 9421  41.265  24.477   1.275
44195W        W 9422  11.783  13.554  11.197
44196W        W 9423  10.914  30.950   2.688
44197W        W 9424   1.213  18.336  10.867
44198W        W 9425  13.296   6.135  10.414
44199W        W 9426  14.571  21.766  13.884
44200W        W 9427  35.948  41.256  13.037
44201W        W 9428  11.730  11.813   2.611
44202W        W 9429  26.531  30.854   4.901
44203W        W 9430  15.045  13.565   2.247
44204W        W 9431  23.751  25.227  12.050
44205W        W 9432  21.225   3.195  14.842
44206W        W 9433  38.444   7.854  13.103
44207W        W 9434  18.690  32.843   3.394
44208W        W 9435  41.316   9.241  14.448
44209W        W 9436  30.465  21.101   1.331
44210W        W 9437  25.609  23.079   4.179
44211W        W 9438  21.702  14.181  14.689
44212W        W 9439  13.079  24.051   4.536
44213W        W 9440   0.441  33.959  14.765
44214W        W 9441   1.232  26.461   4.037
44215W        W 9442   1.750  13.286  12.887
44216W        W 9443  21.693  19.484   3.242
44217W        W 9444  16.204   0.013   3.658
44218W        W 9445  28.961   8.896   1.299
44219W        W 9446  27.674  10.333   2.259
44220W        W 9447  15.031  17.233   4.486
44221W        W 9448  42.523  17.680   3.670
44222W        W 9449  39.193  13.787   0.730
44223W        W 9450  21.202  38.225   2.683
44224W        W 9451   6.804   1.819   1.809
44225W        W 9452  14.088  43.976   4.921
44226W        W 9453  32.805  35.891   0.925
44227W        W 9454  10.136  20.591   4.542
44228W        W 9455  11.762   6.671  13.252
44229W        W 9456  14.386  25.113   3.152
44230W        W 9457  12.622  16.585  12.393
44231W        W 9458   8.392  22.968   4.123
44232W        W 9459   7.724  40.792   3.421
44233W        W 9460  34.139  16.290  12.255
44234W        W 9461  26.381  11.158   0.340
44235W        W 9462  27.374  15.618   4.108
44236W        W 9463  19.288  24.655   1.813
44237W        W 9464  41.257  33.339  10.287
44238W        W 9465  28.620   1.136   3.144
44239W        W 9466   6.095   2.675   4.717
44240W        W 9467  40.856  36.918  11.920
44241W        W 9468  21.319  43.701   2.876
44242W        W 9469  28.369  15.134  13.033
44243W        W 9470  11.627  26.758   3.811
44244W        W 9471  42.835   4.981  13.475
44245W        W 9472   4.384  15.650  10.306
44246W        W 9473  16.305  23.199   3.173
44247W        W 9474  26.217  20.678   4.500
44248W        W 9475  13.348  41.476   3.263
44249W        W 9476  16.219  34.903  11.586
44250W        W 9477   0.380  18.710   3.180
44251W        W 9478  31.842  24.952   2.842
44252W        W 9479   9.669  20.531   4.338
44253W        W 9480  44.499  44.907  13.369
44254W        W 9481  41.115   3.408   3.398
44255W        W 9482   9.251  13.752   2.375
44256W        W 9483  38.938  21.580   1.312
44257W        W 9484  26.974  40.724  12.113
44258W        W 9485  27.207  33.581   1.692
44259W        W 9486   5.892  27.903   1.398
44260W        W 9487  17.404  19.780   4.195
44261W        W 9488  21.198  31.658  13.259
44262W        W 9489  30.138  11.610   5.096
44263W        W 9490   4.744  28.011  14.462
44264W        W 9491   1.883   5.343  13.350
44265W        W 9492  40.426   4.645   1.776
44266W        W 9493  42.880   1.041   2.902
44267W        W 9494  16.835  15.339   0.382
44268W        W 9495   6.167  31.042  10.758
44269W        W 9496   8.850  44.205  12.381
44270W        W 9497  37.439  30.019  10.790
44271W        W 9498  27.996  35.749  14.384
44272W        W 9499  28.977  11.720  12.574
44273W        W 9500  27.603  28.158   3.388
44274W        W 9501   9.977  11.717   2.260
44275W        W 9502  17.191  40.345  14.686
44276W        W 9503   1.092  26.671   3.599
44277W        W 9504  17.531  38.223   4.041
44278W        W 9505  28.383  27.385   2.675
44279W        W 9506  14.442  32.945   4.948
44280W        W 9507  41.831  38.799  10.297
44281W        W 9508   7.388  44.856  10.618
44282W        W 9509   8.881  41.044  11.062
44283W        W 9510  10.520  36.012   0.875
44284W        W 9511  14.130  18.269   4.765
44285W        W 9512  27.974   2.701   2.851
44286W        W 9513  14.137  40.375  13.729
44287W        W 9514  26.500  31.858   4.480
44288W        W 9515  10.040  36.454   3.301
44289W        W 9516  44.906  20.444  11.659
44290W        W 9517  34.440   3.988  11.399
44291W        W 9518  19.249  42.315  13.864
44292W        W 9519  17.796  37.033  14.749
44293W        W 9520   1.709  40.546   0.883
44294W        W 9521  30.976  43.509   1.388
44295W        W 9522  13.768  41.522  11.232
44296W        W 9523  29.490  41.555   0.611
44297W        W 9524  23.075  10.654   2.610
44298W        W 9525  30.510  22.107   1.679
44299W        W 9526  15.173  43.354   1.646
44300W        W 9527  22.010  18.776  11.390
44301W        W 9528  23.969  29.153   2.147
44302W        W 9529  30.532  42.957   4.842
44303W        W 9530   3.406  34.641  14.774
44304W        W 9531  38.589  42.976  11.118
44305W        W 9532  23.539   4.580  14.980
44306W        W 9533  33.350  42.199   0.676
44307W        W 9534   2.808   3.906   1.466
44308W        W 9535   1.258  35.462   1.401
44309W        W 9536  24.406  24.102  11.262
44310W        W 9537  22.047  39.014  12.955
44311W        W 9538  25.805  42.328  12.809
44312W        W 9539  35.814  39.008   2.409
44313W        W 9540   2.822   4.199   0.342
44314W        W 9541  17.229   9.935   2.842
44315W        W 9542  41.819   5.261   2.811
44316W        W 9543  19.088  33.908  14.733
44317W        W 9544  19.673  17.357  12.230
44318W        W 9545  20.110   8.155  14.470
44319W        W 9546  18.710  41.376   1.832
44320W        W 9547  17.080  40.834  11.581
44321W        W 9548  37.449  20.353   2.238
44322W        W 9549  36.517  38.205  12.410
44323W        W 9550  10.617  40.360   0.825
44324W        W 9551   7.321  31.677  14.605
44325W        W 9552   8.879   7.003   4.615
44326W        W 9553  32.876  26.084   2.759
44327W        W 9554  22.311  28.147  12.975
44328W        W 9555  25.196  42.754   1.761
44329W        W 9556  21.236  17.870   3.798
44330W        W 9557   1.450  39.408   2.743
44331W        W 9558  34.255   9.938  11.960
44332W        W 9559  35.502  28.447   2.163
44333W        W 9560   5.875  17.501   0.832
44334W        W 9561  26.588   8.806  13.495
44335W        W 9562  31.008   0.370   1.270
44336W        W 9563   1.983  10.202   0.074
44337W        W 9564  18.498  19.015  11.157
44338W        W 9565  31.602  26.065  13.140
44339W        W 9566  22.507  26.476   2.713
44340W        W 9567  35.700  25.949  14.842
44341W        W 9568  31.324  28.505  14.856
44342W        W 9569  39.935  22.821   0.815
44343W        W 9570  25.165  24.510  11.858
44344W        W 9571  44.059  17.235   1.284
44345W        W 9572  37.545  33.440  12.237
44346W        W 9573  32.358  18.305   2.169
44347W        W 9574  43.563   6.990   3.484
44348W        W 9575  23.540  27.236   4.046
44349W        W 9576  19.978  15.264  14.024
44350W        W 9577  31.058  37.723  14.285
44351W        W 9578  34.569  14.451  11.434
44352W        W 9579   4.247  31.882  14.781
44353W        W 9580   9.176  21.545   0.231
44354W        W 9581  31.270  31.650  13.007
44355W        W 9582   6.474  29.913  13.598
44356W        W 9583  27.188  21.177  14.795
44357W        W 9584   2.134  16.006  12.970
44358W        W 9585  22.793  36.363  12.457
44359W        W 9586  15.670  33.131   2.786
44360W        W 9587   5.875   1.178   0.115
44361W        W 9588  44.908  29.709   0.832
44362W        W 9589  39.115  25.336  13.502
44363W        W 9590   5.399  10.012  11.062
44364W        W 9591  26.569  17.017  14.410
44365W        W 9592  16.042  14.842   2.751
44366W        W 9593  33.505  29.050  13.766
44367W        W 9594  38.773  31.820  13.806
44368W        W 9595   6.763   8.746   3.719
44369W        W 9596   7.126  38.810   4.902
44370W        W 9597  40.472   2.938  13.904
44371W        W 9598   4.319  40.864   0.455
44372W        W 9599   6.402  42.847  12.922
44373W        W 9600  19.926  10.814   3.041
44374W        W 9601  37.783  41.271  10.712
44375W        W 9602   8.769  22.061  13.560
44376W        W 9603  37.173  38.875  11.537
44377W        W 9604  10.369  26.109  13.824
44378W        W 9605   2.423  22.103   0.192
44379W        W 9606  28.321  15.149  11.234
44380W        W 9607  40.052   4.449   1.058
44381W        W 9608  20.583  24.410  11.656
44382W        W 9609  31.026  31.449   2.876
44383W        W 9610  15.739  23.498  11.267
44384W        W 9611  33.678  40.618  10.437
44385W        W 9612   1.444  15.179   3.375
44386W        W 9613   1.291  20.071  13.741
44387W        W 9614  26.329  22.380   1.976
44388W        W 9615  27.739  35.587  14.828
44389W        W 9616  14.603  36.059   1.217
44390W        W 9617  40.324  37.118   1.172
44391W        W 9618  41.122  16.199  12.356
44392W        W 9619   5.094  27.255   0.772
44393W        W 9620  23.721  42.936   0.952
44394W        W 9621   5.000  38.495  10.661
44395W        W 9622  42.811   9.772  11.194
44396W        W 9623  43.974  13.833  11.602
44397W        W 9624  11.201  42.194  12.162
44398W        W 9625  22.152  17.781   0.535
44399W        W 9626  25.735  24.486   0.425
44400W        W 9627  43.332  23.476  11.693
44401W        W 9628   1.306  31.952  14.292
44402W        W 9629  33.666  23.481  10.837
44403W        W 9630   5.439  30.519   0.303
44404W        W 9631  22.575  20.079  11.136
44405W        W 9632  20.391  37.230  14.723
44406W        W 9633  44.357  42.771  10.180
44407W        W 9634   3.697  13.848  12.008
44408W        W 9635  10.067   1.165  13.392
44409W        W 9636  34.416   8.477   0.484
44410W        W 9637  20.553  13.855  11.576
44411W        W 9638  22.158  41.638  11.594
44412W        W 9639  37.353   3.952   0.748
44413W        W 9640  29.168  44.308  12.458
44414W        W 9641  19.823  34.898  12.017
44415W        W 9642  24.160  10.188  12.520
44416W        W 9643  18.056  11.240   1.902
44417W        W 9644  10.890   0.437  12.008
44418W        W 9645  34.793  42.307  12.459
44419W        W 9646  43.049   8.112   1.759
44420W        W 9647   7.980  37.003   2.373
44421W        W 9648   3.916  42.136   4.928
44422W        W 9649  44.917  23.286   4.537
44423W        W 9650  39.578   9.847   4.630
44424W        W 9651  13.202  44.977  12.417
44425W        W 9652   5.185  22.520   4.239
44426W        W 9653  34.911  44.285   4.481
44427W        W 9654  41.657  11.814  14.672
44428W        W 9655  16.194  20.776   0.540
44429W        W 9656  43.902  43.727   3.690
44430W        W 9657   3.655  13.732  12.935
44431W        W 9658  14.225  20.215   4.301
44432W        W 9659  41.581  18.304  14.778
44433W        W 9660   9.508  38.851   2.206
44434W        W 9661   0.871  33.553  14.072
44435W        W 9662   3.859  19.143  10.792
44436W        W 9663  17.073  43.898  13.950
44437W        W 9664   9.801  24.157  13.910
44438W        W 9665  22.382  37.792  11.486
44439W        W 9666  11.456  30.061   1.018
44440W        W 9667  42.789  12.300   2.316
44441W        W 9668  25.253  14.115  11.553
44442W        W 9669  23.220  14.359   1.284
44443W        W 9670   0.738  35.541  10.782
44444W        W 9671  44.734  35.897   5.032
44445W        W 9672   7.279  20.759   3.272
44446W        W 9673  40.427  29.973  12.571
44447W        W 9674  31.371  41.761  14.560
44448W        W 9675  17.746  30.704   2.201
44449W        W 9676  18.119   8.605  13.887
44450W        W 9677  21.526  26.422   3.087
44451W        W 9678  32.137  39.115  12.225
44452W        W 9679  37.738  43.889  12.936
44453W        W 9680  40.994  28.914   1.769
44454W        W 9681  27.544  15.810   3.630
44455W        W 9682  11.067  24.225  12.092
44456W        W 9683  14.202  38.803   2.322
44457W        W 9684  35.542  34.098  14.427
44458W        W 9685   7.056  22.735   0.908
44459W        W 9686  24.476   1.816   1.847
44460W        W 9687  14.093  27.784  14.059
44461W        W 9688  28.222  15.506   2.811
44462W        W 9689  32.936  17.797  12.614
44463W        W 9690   1.361  28.363  12.229
44464W        W 9691   4.770  38.880  11.452
44465W        W 9692   9.124  20.294   0.615
44466W        W 9693  35.928  21.840   4.186
44467W        W 9694  25.258  12.570   2.299
44468W        W 9695   6.005  42.821   3.380
44469W        W 9696  14.383  25.956   1.299
44470W        W 9697  34.074  43.839   3.438
44471W        W 9698  10.923  35.638  12.088
44472W        W 9699  17.078  36.004   0.016
44473W        W 9700   6.303  27.100  10.664
44474W        W 9701  11.917   7.729   0.318
44475W        W 9702  10.273  15.781   3.193
44476W        W 9703   5.754  17.890  12.937
44477W        W 9704  26.847  22.893   3.745
44478W        W 9705   6.344  37.594   2.424
44479W        W 9706  31.069  38.592  13.286
44480W        W 9707  30.011   1.330  13.645
44481W        W 9708   1.263  32.940  11.276
44482W        W 9709   7.626  43.784  12.911
44483W        W 9710  39.846  38.620  14.889
44484W        W 9711  38.095  15.996  14.510
44485W        W 9712  40.013  36.395  12.033
44486W        W 9713  12.054  39.799  10.600
44487W        W 9714  43.441  43.206   4.141
44488W        W 9715  15.703  38.286  12.911
44489W        W 9716  13.364  38.070   3.169
44490W        W 9717  42.224  17.730  14.224
44491W        W 9718   3.874  28.396  11.517
44492W        W 9719  40.705  10.983   2.486
44493W        W 9720  27.135  37.616  14.840
44494W        W 9721   7.692  37.787  13.513
44495W        W 9722  30.686  33.454   4.466
44496W        W 9723   4.795  16.735   5.492
44497W        W 9724   9.189  40.075  12.025
44498W        W 9725  41.072   7.378   0.713
44499W        W 9726  19.307  25.939  13.784
44500W        W 9727  18.662  36.813   0.031
44501W        W 9728  12.549  30.493  14.069
44502W        W 9729  19.604  13.792   3.233
44503W        W 9730  14.840   0.074  11.577
44504W        W 9731   0.124  37.208   3.180
44505W        W 9732  22.006  20.499  13.921
44506W        W 9733  20.518  14.647   0.995
44507W        W 9734  27.146   6.212   3.722
44508W        W 9735  37.201  19.519   2.849
44509W        W 9736  11.943   7.297  13.907
44510W        W 9737  17.597   3.974   2.134
44511W        W 9738   2.981  22.500  10.253
44512W        W 9739  38.918  32.921   4.077
44513W        W 9740  15.664   3.192  14.593
44514W        W 9741  34.900   0.845   2.111
44515W        W 9742   0.961  37.026   4.182
44516W        W 9743   8.225  40.388  13.978
44517W        W 9744  14.758  38.834   1.625
44518W        W 9745  21.141  35.499  14.953
44519W        W 9746  22.657  44.109   1.124
44520W        W 9747  19.210  42.410  11.084
44521W        W 9748  20.426   1.853  13.428
44522W        W 9749  34.656  20.610  11.219
44523W        W 9750  22.767  42.391  12.001
44524W        W 9751   1.765  43.820  12.951
44525W        W 9752   1.881  33.894   3.603
44526W        W 9753  28.251  22.454   1.274
44527W        W 9754  23.982  19.072  11.087
44528W        W 9755  28.459  37.120   3.655
44529W        W 9756   0.999   9.739   4.942
44530W        W 9757  36.802  37.372   2.327
44531W        W 9758  13.820  20.209   1.441
44532W        W 9759  31.291   9.814   0.782
44533W        W 9760  16.026  10.594  10.316
44534W        W 9761   7.051  25.897   2.395
44535W        W 9762  39.487  42.917   1.622
44536W        W 9763  17.077  37.864   2.264
44537W        W 9764  35.085  18.124   1.022
44538W        W 9765  24.767  12.197  10.946
44539W        W 9766  36.164  35.845  13.990
44540W        W 9767  16.884  35.153   0.439
44541W        W 9768  29.205  29.029   2.819
44542W        W 9769   0.210  22.316  12.488
44543W        W 9770  32.063  16.778  13.663
44544W        W 9771   1.078   0.019   1.017
44545W        W 9772  36.720  40.730   4.053
44546W        W 9773  13.275  32.361   1.388
44547W        W 9774   2.462  22.817  11.883
44548W        W 9775  24.207  15.082   3.964
44549W        W 9776  13.258  38.959  13.597
44550W        W 9777   2.948  18.550  11.248
44551W        W 9778   9.788  35.332  11.634
44552W        W 9779  19.167   3.553   1.729
44553W        W 9780  27.617   0.952   0.883
44554W        W 9781   8.547  12.097   9.869
44555W        W 9782   0.523  41.842   1.437
44556W        W 9783  38.516  16.091   0.803
44557W        W 9784  13.728  27.550  14.392
44558W        W 9785   5.891  27.952   4.182
44559W        W 9786  38.053  28.042   0.279
44560W        W 9787  18.490  16.549   2.930
44561W        W 9788   4.882  27.629   5.261
44562W        W 9789   2.930  17.053  13.374
44563W        W 9790  21.001  31.582  11.959
44564W        W 9791  13.176   9.787   1.441
44565W        W 9792  19.052  30.965   4.396
44566W        W 9793  37.075  13.818  11.568
44567W        W 9794  33.145  30.452  11.154
44568W        W 9795  18.821   2.884   2.331
44569W        W 9796  43.388  19.283  14.079
44570W        W 9797   3.711  20.127   1.936
44571W        W 9798   7.792   1.649   1.894
44572W        W 9799  24.529  27.116   4.125
44573W        W 9800  43.922   7.400   2.669
44574W        W 9801   3.295  26.635   9.950
44575W        W 9802   4.199  28.994   4.098
44576W        W 9803  42.154  26.542   0.427
44577W        W 9804   1.779  12.131   2.440
44578W        W 9805  18.919  21.596  11.650
44579W        W 9806  26.370   2.195   2.294
44580W        W 9807  25.383  23.138  11.188
44581W        W 9808  36.535   5.314   0.887
44582W        W 9809  44.980  18.227   4.950
44583W        W 9810  41.084  27.512   1.888
44584W        W 9811  22.602  44.302  10.703
44585W        W 9812   2.950  15.081   0.376
44586W        W 9813  39.985  13.665  10.501
44587W        W 9814  31.170  42.022   2.142
44588W        W 9815  25.708  22.693  13.303
44589W        W 9816  43.563  32.896   4.177
44590W        W 9817   1.416   9.870  14.287
44591W        W 9818  28.000  40.618   2.776
44592W        W 9819  17.182  30.472   0.332
44593W        W 9820  34.787  12.080  14.399
44594W        W 9821  36.755  35.169  13.434
44595W        W 9822   6.105   8.159   0.112
44596W        W 9823  31.595  25.507   4.293
44597W        W 9824  35.917  41.197  14.036
44598W        W 9825  40.014  39.336   4.417
44599W        W 9826   2.819   0.930  10.883
44600W        W 9827  37.829  27.645   1.400
44601W        W 9828  31.861  39.424   1.851
44602W        W 9829  15.354   5.010   3.730
44603W        W 9830  11.892   9.845   0.560
44604W        W 9831   8.937  14.165   1.142
44605W        W 9832  34.064  14.092   3.556
44606W        W 9833  22.139  20.082  12.122
44607W        W 9834  13.236  17.299   3.662
44608W        W 9835  10.759   9.262   2.861
44609W        W 9836  39.201  36.409   2.439
44610W        W 9837  24.581   3.723   0.312
44611W        W 9838  37.452  35.549  13.835
44612W        W 9839  13.666   3.184   3.585
44613W        W 9840  10.136   0.886   4.872
44614W        W 9841  42.830  30.523   4.328
44615W        W 9842  19.061  13.878  13.509
44616W        W 9843  43.289   7.894  11.477
44617W        W 9844  31.483  30.168  13.939
44618W        W 9845   2.982  17.687   1.017
44619W        W 9846  19.608  38.791   0.824
44620W        W 9847  34.288  35.940   0.862
44621W        W 9848  21.814  34.422   4.067
44622W        W 9849  24.954  14.646  13.052
44623W        W 9850  43.811  37.982   2.322
44624W        W 9851   9.207  25.428   2.729
44625W        W 9852  19.585  12.323   1.197
44626W        W 9853  26.894  43.383  14.163
44627W        W 9854   2.113  30.093   2.336
44628W        W 9855   3.300   0.453   3.548
44629W        W 9856  23.572  39.549   2.130
44630W        W 9857  21.471  28.413   3.783
44631W        W 9858  15.404  13.582  14.696
44632W        W 9859  27.060  36.732  11.409
44633W        W 9860  41.707  14.708   0.828
44634W        W 9861   6.488  33.066  14.290
44635W        W 9862  15.300  13.251  14.260
44636W        W 9863  10.024  17.621  13.400
44637W        W 9864  20.939  12.475  12.624
44638W        W 9865  26.052  30.218  14.465
44639W        W 9866  37.796  26.237   0.672
44640W        W 9867  34.162  40.510  11.564
44641W        W 9868  38.428  44.303   0.881
44642W        W 9869  44.559  34.335  13.047
44643W        W 9870  38.422  14.600   0.873
44644W        W 9871  29.154  24.433   2.173
44645W        W 9872  14.041  15.429   2.117
44646W        W 9873  19.477   6.818  14.460
44647W        W 9874  23.920  40.084  11.950
44648W        W 9875  23.662  10.386  11.633
44649W        W 9876  40.893   7.841  14.787
44650W        W 9877   4.721  25.033  10.902
44651W        W 9878  18.075   7.073  14.449
44652W        W 9879  40.986  30.354   1.872
44653W        W 9880   5.685   1.379  13.602
44654W        W 9881   1.330  33.406   2.415
44655W        W 9882  23.775  42.350  12.995
44656W        W 9883  12.474   5.493   1.896
44657W        W 9884   7.640  43.310  14.887
44658W        W 9885  25.939  43.140  14.038
44659W        W 9886  13.190   9.650  14.006
44660W        W 9887   3.881  21.311  14.567
44661W        W 9888  32.413   9.242  11.992
44662W        W 9889  34.373  16.951   0.397
44663W        W 9890   5.877  30.815   0.175
44664W        W 9891   6.257  22.000   0.267
44665W        W 9892  39.576  14.819   3.386
44666W        W 9893  12.618  25.527  14.030
44667W        W 9894   9.351  27.688   0.977
44668W        W 9895   4.788  16.499  11.417
44669W        W 9896  29.740  36.729  11.650
44670W        W 9897  30.339   6.337   0.216
44671W        W 9898   9.938   5.666   0.734
44672W        W 9899   1.424  22.594  12.931
44673W        W 9900  23.384  16.669  11.568
44674W        W 9901   4.047  27.086   5.035
44675W        W 9902  42.010  20.256   0.278
44676W        W 9903  30.753  13.035  11.991
44677W        W 9904  26.649  25.877   1.142
44678W        W 9905   6.214  39.728   0.368
44679W        W 9906  38.993  29.646   2.348
44680W        W 9907   6.383  22.159  12.300
44681W        W 9908  36.720  35.489  12.905
44682W        W 9909   5.263  21.837  14.255
44683W        W 9910   9.451   0.823  10.875
44684W        W 9911   7.657  24.662  12.961
44685W        W 9912  36.364  41.526  14.815
44686W        W 9913  41.750  34.406  10.809
44687W        W 9914  12.896  10.126  11.999
44688W        W 9915  10.130   9.041   4.192
44689W        W 9916  36.262   5.457  13.313
44690W        W 9917  17.324  38.044  14.719
44691W        W 9918   9.720  31.636   2.813
44692W        W 9919   4.201  43.164   1.408
44693W        W 9920  32.375   0.984  14.331
44694W        W 9921  37.877  29.562   1.820
44695W        W 9922   7.235  24.683   0.904
44696W        W 9923  15.619  39.605   3.110
44697W        W 9924  21.045  19.119   3.325
44698W        W 9925   9.765  37.639  14.153
44699W        W 9926  37.812  13.603  11.189
44700W        W 9927  39.558  37.577   1.739
44701W        W 9928  36.603  26.926  14.965
44702W        W 9929   2.936  35.217   1.343
44703W        W 9930  16.059  22.162  12.606
44704W        W 9931  44.896   7.159   1.318
44705W        W 9932  13.824   0.237   3.301
44706W        W 9933  41.436   7.167   2.869
44707W        W 9934  13.593  27.836   4.918
44708W        W 9935  42.018   3.363  13.561
44709W        W 9936  42.487  31.109  14.344
44710W        W 9937  38.201  29.431   0.140
44711W        W 9938  40.514  23.771   2.281
44712W        W 9939  22.729  34.088  11.706
44713W        W 9940  18.151  31.991  12.077
44714W        W 9941   8.656   4.324  11.476
44715W        W 9942  43.928  13.604   2.688
44716W        W 9943   5.297  41.374  13.406
44717W        W 9944  33.627  32.548   0.193
44718W        W 9945  44.966  21.360   1.424
44719W        W 9946  24.270   6.731   0.974
44720W        W 9947  11.721   3.367   4.667
44721W        W 9948  17.772  15.991   0.838
44722W        W 9949  41.510  32.717   1.414
44723W        W 9950  12.084  43.594   1.202
44724W        W 9951  17.385  39.008   4.532
44725W        W 9952  36.338   5.032  14.060
44726W        W 9953  34.677   3.766   1.283
44727W        W 9954  14.348  43.561   4.710
44728W        W 9955  22.075  24.830  14.024
44729W        W 9956  17.064  20.179   4.173
44730W        W 9957  24.159   4.398   0.632
44731W        W 9958  10.700   2.996   3.710
44732W        W 9959  38.603  19.781  14.935
44733W        W 9960  39.587  18.029  11.644
44734W        W 9961   7.331  24.063   0.284
44735W        W 9962  28.563  25.998  13.740
44736W        W 9963  29.754  20.020   4.538
44737W        W 9964  23.952   0.722   0.715
44738W        W 9965  30.991  36.897   1.225
44739W        W 9966   4.471   6.399   4.695
44740W        W 9967  23.102  32.298   4.283
44741W        W 9968  30.023   1.054   0.421
44742W        W 9969  41.717  10.294   3.236
44743W        W 9970   1.483  32.177  14.775
44744W        W 9971  33.515  34.931  13.599
44745W        W 9972  40.545  12.264   1.417
44746W        W 9973  11.272  20.885   1.893
44747W        W 9974  40.465  26.372   3.654
44748W        W 9975  13.261   3.395   4.778
44749W        W 9976  13.887  31.403   3.478
44750W        W 9977  22.079  13.625  13.122
44751W        W 9978  43.718  20.767   1.877
44752W        W 9979  11.395   6.732  13.607
44753W        W 9980  42.534  19.569  12.729
44754W        W 9981  12.497  37.364   3.608
44755W        W 9982  37.297   2.706  14.444
44756W        W 9983  43.798  40.515   2.129
44757W        W 9984  28.832  29.459  12.947
44758W        W 9985  10.393  10.100   3.445
44759W        W 9986  14.485  24.882   2.679
44760W        W 9987  43.888  43.572  10.784
44761W        W 9988  11.791  22.254  13.799
44762W        W 9989  27.098   7.471   1.193
44763W        W 9990  21.214  25.592  11.558
44764W        W 9991   3.797  26.707   1.826
44765W        W 9992   5.037  10.657  11.602
44766W        W 9993   4.687  22.654   1.412
44767W        W 9994  25.040  32.383  13.404
44768W        W 9995  37.109  25.882   1.298
44769W        W 9996   4.153  38.043  14.785
44770W        W 9997  28.685   1.883  14.747
44771W        W 9998  28.058  26.168   1.758
44772W        W 9999   4.435   2.379   0.345
44773W        W10000  28.898  14.104   3.273
44774W        W10001   9.218  37.444   2.852
44775W        W10002  23.483  12.994   1.214
44776W        W10003  19.608  20.160  14.425
44777W        W10004  13.218  32.511   2.364
44778W        W10005  42.857  20.851   2.891
44779W        W10006  39.571  43.107   0.490
44780W        W10007  33.138  13.313  13.846
44781W        W10008  43.292   1.602   0.663
44782W        W10009   1.234  44.360   5.112
44783W        W10010  32.490  39.891  12.988
44784W        W10011   8.307  42.077  11.927
44785W        W10012   0.591  44.459   0.794
44786W        W10013  28.839  25.145   2.408
44787W        W10014   7.223  28.156   1.346
44788W        W10015   8.382  26.222  13.533
44789W        W10016  28.292  13.193   4.111
44790W        W10017  41.218  19.552   3.922
44791W        W10018  16.591  12.643   1.317
44792W        W10019  10.351   0.395   3.276
44793W        W10020   5.200  44.417  10.668
44794W        W10021  25.213  10.673  13.655
44795W        W10022  37.368  39.899   0.789
44796W        W10023  36.741  24.132  14.962
44797W        W10024  10.327  10.162   0.793
44798W        W10025   8.772  18.520  10.466
44799W        W10026  39.170  42.296  14.935
44800W        W10027  17.684  43.791   2.229
44801W        W10028   2.644  40.544   0.780
44802W        W10029   2.110  20.643  10.352
44803W        W10030   3.941  42.767   1.683
44804W        W10031   2.022   3.296   2.843
44805W        W10032  17.011   0.907   5.277
44806W        W10033  44.507  29.800   1.929
44807W        W10034  34.900   3.857  14.442
44808W        W10035  14.675   9.741  12.980
44809W        W10036  35.478  36.324  14.565
44810W        W10037  42.280  23.225   4.585
44811W        W10038   4.890  11.399  12.086
44812W        W10039  14.268   8.091   1.880
44813W        W10040   2.472   6.712  12.165
44814W        W10041  27.894  35.969  10.250
44815W        W10042  43.631  44.270  14.532
44816W        W10043   5.734  25.366   4.925
44817W        W10044  43.974  26.620   0.571
44818W        W10045  29.230  20.999  10.954
44819W        W10046  30.359  41.868  12.926
44820W        W10047  43.846  10.226  11.545
44821W        W10048  35.121   5.179  14.645
44822W        W10049  35.918  20.400  11.142
44823W        W10050  25.502   6.425  12.448
44824W        W10051  12.624   8.947  14.063
44825W        W10052  19.633  38.033   4.303
44826W        W10053  43.064  10.405  13.170
44827W        W10054  41.849  19.231   1.954
44828W        W10055  15.934  20.623   2.679
44829W        W10056  29.392   1.585   2.698
44830W        W10057  34.085  28.252   1.149
44831W        W10058  31.672  31.007   4.109
44832W        W10059   9.795   9.705  13.563
44833W        W10060  43.715  24.752  14.415
44834W        W10061  14.240  29.155   3.434
44835W        W10062   4.167  22.641   1.500
44836W        W10063   9.114  15.819  12.643
44837W        W10064  44.554  36.410  12.316
44838W        W10065   9.782  10.079   0.033
44839W        W10066  22.737   0.804   2.197
44840W        W10067  32.226  30.709   1.751
44841W        W10068  13.107  41.612   1.055
44842W        W10069  11.218  36.605   3.130
44843W        W10070  17.036   9.757  13.299
44844W        W10071  17.370  25.497   0.678
44845W        W10072  40.589  36.322  13.469
44846W        W10073  10.915  15.747  14.342
44847W        W10074  44.372   3.252   3.450
44848W        W10075  10.846   3.098   2.770
44849W        W10076   6.888  42.964   0.959
44850W        W10077  38.985  12.201   0.203
44851W        W10078  18.544  20.990  14.929
44852W        W10079  20.604  23.910  14.820
44853W        W10080  19.311   6.945  11.294
44854W        W10081  33.316  12.966   0.743
44855W        W10082   4.562  33.507  14.240
44856W        W10083  15.850   4.981   3.565
44857W        W10084  40.235  27.252   4.368
44858W        W10085  15.766   9.157   1.461
44859W        W10086  33.959   6.452   1.869
44860W        W10087  26.680  44.546  10.518
44861W        W10088   0.991  15.281   3.159
44862W        W10089  21.034  21.972   4.709
44863W        W10090   3.834  35.647  13.301
44864W        W10091  32.709  29.998  14.997
44865W        W10092   9.702  11.124  14.029
44866W        W10093  10.124  13.266  14.726
44867W        W10094  17.224  38.321  14.267
44868W        W10095  27.328  25.932  13.886
44869W        W10096  35.341  25.025   4.560
44870W        W10097   1.848  40.412   5.035
44871W        W10098  28.561  18.638   4.893
44872W        W10099  44.577  26.006  11.220
44873W        W10100   5.577   4.990  11.143
44874W        W10101  43.971  38.731  10.742
44875W        W10102  19.086   8.291  12.850
44876W        W10103  42.018  10.701   2.665
44877W        W10104  20.239  23.579   2.454
44878W        W10105   0.716  31.448  10.267
44879W        W10106  15.321   0.309  11.554
44880W        W10107  39.756  38.157   2.284
44881W        W10108  44.725  23.234  11.580
44882W        W10109  32.412  39.066  11.773
44883W        W10110   5.624  10.700   1.955
44884W        W10111   7.652  38.473  14.762
44885W        W10112   7.180   6.965  13.838
44886W        W10113  12.195  34.707  12.463
44887W        W10114   4.353  44.915  10.676
44888W        W10115  16.335  22.600   4.665
44889W        W10116  18.694  31.890  13.066
44890W        W10117   3.377  15.751   2.412
44891W        W10118  31.145   2.624   1.781
44892W        W10119  44.044  33.619  12.416
44893W        W10120  36.567  41.349   1.711
44894W        W10121   0.954  28.197   0.936
44895W        W10122  34.813  30.976   1.916
44896W        W10123  19.090  35.131   3.880
44897W        W10124  14.442   8.666   3.208
44898W        W10125  16.623  38.564   4.422
44899W        W10126  13.145  16.167  11.253
44900W        W10127  41.760  15.105   1.172
44901W        W10128  15.123  15.783   4.389
44902W        W10129  41.433  36.823  12.465
44903W        W10130  33.982  12.103   1.441
44904W        W10131  23.063  27.368  12.502
44905W        W10132   3.440  36.996  14.289
44906W        W10133  14.119   5.839  10.753
44907W        W10134  13.539  33.628   1.838
44908W        W10135  30.014  32.047  14.519
44909W        W10136  24.378  44.802  11.127
44910W        W10137  15.216  31.668   3.518
44911W        W10138  39.448   0.319   2.211
44912W        W10139  43.080  21.559   2.384
44913W        W10140  37.098   3.706  14.459
44914W        W10141   4.977  42.248  11.202
44915W        W10142  44.200   1.434   3.165
44916W        W10143   1.895  44.929   0.457
44917W        W10144   4.146  30.104   3.183
44918W        W10145  41.004  40.312   0.315
44919W        W10146  41.357  25.615  11.545
44920W        W10147  21.738   2.252   3.550
44921W        W10148  12.992  11.097  11.479
44922W        W10149  25.030  39.583  10.488
44923W        W10150  38.539   0.090  12.934
44924W        W10151  28.512   7.698   3.635
44925W        W10152  24.219  27.768   2.562
44926W        W10153  17.667  12.363   4.579
44927W        W10154   7.882   1.741   2.860
44928W        W10155  35.397  27.615   3.380
44929W        W10156  24.480  31.341   3.605
44930W        W10157   3.169   5.566   3.421
44931W        W10158   5.372  23.789   1.305
44932W        W10159  20.714  30.902   2.685
44933W        W10160  11.967  30.121   0.868
44934W        W10161  23.162  34.112  12.588
44935W        W10162  40.831  40.173   3.048
44936W        W10163  34.520  34.010  14.375
44937W        W10164  38.782  25.222  11.946
44938W        W10165   3.613  36.844  12.798
44939W        W10166   6.855   2.145  11.700
44940W        W10167  17.857  15.340  14.813
44941W        W10168  17.478  18.380   2.652
44942W        W10169   1.804  33.685   0.836
44943W        W10170  13.764  36.888  12.368
44944W        W10171  19.401  28.542   2.505
44945W        W10172  16.260  29.352   0.642
44946W        W10173  23.304  43.059  12.777
44947W        W10174  44.771  23.285  14.760
44948W        W10175  19.785   0.668   3.563
44949W        W10176  28.078  36.750  14.916
44950W        W10177  12.363  18.213   2.185
44951W        W10178  26.447  39.406  13.094
44952W        W10179  22.258  35.250  10.494
44953W        W10180  27.005  26.148   3.699
44954W        W10181  28.636   8.904   3.016
44955W        W10182   5.287   3.131  12.655
44956W        W10183  40.656  35.077  14.077
44957W        W10184  33.358  20.816  10.534
44958W        W10185  27.615  26.371   1.009
44959W        W10186  16.800   7.356  13.584
44960W        W10187   9.817  27.585   0.788
44961W        W10188  28.602  28.716   2.291
44962W        W10189  20.558   8.959   4.348
44963W        W10190  11.570  17.671  12.469
44964W        W10191  11.941   7.891  12.485
44965W        W10192   8.684  16.283   1.669
44966W        W10193  37.245  15.795  13.361
44967W        W10194  33.110  10.550   3.636
44968W        W10195  22.603   5.616  10.782
44969W        W10196  10.356  44.997  12.699
44970W        W10197   9.422  24.541  13.956
44971W        W10198   2.326  38.774   1.832
44972W        W10199  31.216  40.066  14.290
44973W        W10200  26.238  28.906   1.812
44974W        W10201  43.454  44.300   0.432
44975W        W10202  37.663  24.262   3.243
44976W        W10203  20.839   8.597  11.572
44977W        W10204   4.275   0.072   0.345
44978W        W10205   4.815   6.375  14.823
44979W        W10206  31.137  44.092  14.827
44980W        W10207  40.595   2.432   4.813
44981W        W10208  15.834   7.688   1.307
44982W        W10209  12.177  18.089  14.468
44983W        W10210  39.982  16.705   1.565
44984W        W10211   6.435  19.231  11.628
44985W        W10212  26.660  28.990  12.534
44986W        W10213   4.054  13.852   1.888
44987W        W10214   6.740  38.160   2.832
44988W        W10215  10.365  16.868   0.379
44989W        W10216   3.738  14.965  11.444
44990W        W10217  43.408  43.555   3.733
44991W        W10218  40.126  26.485   0.316
44992W        W10219  42.272  26.495  14.351
44993W        W10220  44.165  21.046   1.958
44994W        W10221  22.548  10.695  11.292
44995W        W10222  25.815  17.353   3.734
44996W        W10223  23.082   5.941  14.479
44997W        W10224   6.572  38.096   4.748
44998W        W10225  43.143  17.158   1.785
44999W        W10226  18.653  32.941   0.085
45000W        W10227  38.878  37.937  11.164
45001W        W10228  41.623  11.596  10.697
45002W        W10229  33.439  33.051   5.128
45003W        W10230  11.779  11.799  10.684
45004W        W10231  36.859  20.258   4.661
45005W        W10232  14.263  43.569   0.717
45006W        W10233  36.847  21.761  13.504
45007W        W10234  35.444   2.249  12.462
45008W        W10235  43.756   3.972   4.851
45009W        W10236  37.778   7.478  11.937
45010W        W10237  13.169  23.230  11.732
45011W        W10238  29.556  37.472   5.087
45012W        W10239  30.493  40.753   1.876
45013W        W10240  36.911  41.550  11.155
45014W        W10241  19.564  23.473  11.582
45015W        W10242  22.740  39.571  13.578
45016W        W10243   4.432  37.060  12.817
45017W        W10244  11.597  21.659  12.045
45018W        W10245  27.277  44.820  14.750
45019W        W10246  35.948  16.552   4.502
45020W        W10247   4.251  26.051  14.522
45021W        W10248   1.331   2.553   4.244
45022W        W10249  14.222   6.010   4.520
45023W        W10250  39.997   1.758   0.714
45024W        W10251  21.843   6.362   1.714
45025W        W10252  10.819  37.012  12.549
45026W        W10253   7.259   4.534   0.234
45027W        W10254  33.880   9.358  14.946
45028W        W10255  28.705  44.118   1.409
45029W        W10256  37.621  14.634  11.599
45030W        W10257  28.022  28.622  13.532
45031W        W10258   8.912  16.730   1.277
45032W        W10259  18.106   4.346   0.708
45033W        W10260  15.851  17.126  13.966
45034W        W10261  36.879  13.941   0.212
45035W        W10262  12.206   0.425   3.832
45036W        W10263  25.095   7.112  13.297
45037W        W10264  23.247  10.865  14.492
45038W        W10265  25.370   9.270  11.094
45039W        W10266   7.669  27.148   4.173
45040W        W10267  23.063   4.070   3.607
45041W        W10268  43.303  35.294   0.200
45042W        W10269  39.815   6.039  12.777
45043W        W10270   0.236  15.279   2.679
45044W        W10271  20.162   7.559   5.090
45045W        W10272  31.321  15.015   3.626
45046W        W10273  27.588  10.698   2.773
45047W        W10274  18.466  33.248  11.854
45048W        W10275  28.900  16.401  12.928
45049W        W10276  20.797  30.632  14.333
45050W        W10277  14.768  18.723  12.399
45051W        W10278  16.026  36.650   1.572
45052W        W10279  17.212   7.899   3.659
45053W        W10280  11.768  24.463  14.124
45054W        W10281  36.789   8.336   9.918
45055W        W10282  27.612   6.618  12.107
45056W        W10283   3.006  43.373   3.569
45057W        W10284  14.874   8.953   2.181
45058W        W10285  24.571  28.081   1.759
45059W        W10286  39.410   3.475   0.273
45060W        W10287  29.662  17.413   2.354
45061W        W10288  25.002  42.099  11.634
45062W        W10289  25.573  25.314   0.324
45063W        W10290  32.598   1.559   2.043
45064W        W10291   9.826  18.889  11.191
45065W        W10292  34.291  24.037   1.921
45066W        W10293  38.777   4.896   1.231
45067W        W10294  43.768  43.846   2.351
45068W        W10295  21.477   0.329  12.372
45069W        W10296  16.644  12.423   3.078
45070W        W10297  17.221  33.958  11.789
45071W        W10298   5.861  11.753   2.818
45072W        W10299  22.552  30.931  12.450
45073W        W10300  36.564  44.969   4.506
45074W        W10301  20.155  26.942   4.559
45075W        W10302  35.107  24.030  12.890
45076W        W10303  23.030  42.837  10.789
45077W        W10304  28.005  15.050  13.395
45078W        W10305  22.498  27.625   1.373
45079W        W10306   5.638  41.042  13.596
45080W        W10307  44.267  34.792  13.037
45081W        W10308  19.097  34.458   0.490
45082W        W10309  22.294  15.131  12.996
45083W        W10310  33.054   6.884   1.118
45084W        W10311   3.431  35.642  11.170
45085W        W10312  37.840   9.900   3.841
45086W        W10313  23.625  12.816   0.733
45087W        W10314   6.531  36.299  14.473
45088W        W10315  25.033   9.160  13.715
45089W        W10316  16.583  30.148   0.991
45090W        W10317  32.349  43.363  10.661
45091W        W10318  14.409  21.087  12.513
45092W        W10319  15.534  15.335  13.407
45093W        W10320   6.112   7.403   4.122
45094W        W10321   5.168  43.256   1.382
45095W        W10322  34.999  27.666  14.790
45096W        W10323  22.454  19.051   9.990
45097W        W10324  14.686  19.690  12.503
45098W        W10325  22.574  24.040  14.433
45099W        W10326   3.825  26.990  13.392
45100W        W10327  31.191  31.790   9.727
45101W        W10328  26.265   0.179   0.345
45102W        W10329  35.337   8.867  13.594
45103W        W10330  32.999  17.369  13.576
45104W        W10331   9.937  42.365  11.817
45105W        W10332  38.123  35.806  10.960
45106W        W10333   6.370  41.825  14.362
45107W        W10334  24.941  13.705   2.952
45108W        W10335  39.375   2.633  11.419
45109W        W10336  37.449   0.822   1.764
45110W        W10337  15.260   6.000  11.157
45111W        W10338  12.205   2.284  14.755
45112W        W10339  39.498  10.896  12.987
45113W        W10340  14.520  30.392  13.651
45114W        W10341  40.065  41.822  13.843
45115W        W10342   6.390  28.520  13.278
45116W        W10343   1.169  15.344  12.594
45117W        W10344  19.671  28.851  14.861
45118W        W10345  40.028  27.536  12.444
45119W        W10346  23.043   6.775   2.115
45120W        W10347  28.685  28.986  14.351
45121W        W10348  44.278  28.672   4.492
45122W        W10349  33.096  16.101  14.847
45123W        W10350  40.311   1.359   0.507
45124W        W10351  12.150  28.777  12.632
45125W        W10352   9.348   1.508   4.595
45126W        W10353   0.415  21.137   0.376
45127W        W10354  20.699   9.159   2.402
45128W        W10355  39.417   7.682  14.921
45129W        W10356   1.808  33.367   3.600
45130W        W10357  43.686  42.902  14.885
45131W        W10358  42.423  28.757  12.411
45132W        W10359  41.382  12.232   2.373
45133W        W10360   8.931   7.706  14.874
45134W        W10361   4.036  32.167  13.467
45135W        W10362  43.406  37.685  14.823
45136W        W10363  18.048  28.649  10.734
45137W        W10364  36.833  36.118  11.602
45138W        W10365  43.092  18.790   0.275
45139W        W10366  24.654  43.386  13.472
45140W        W10367  18.972  25.563  13.971
45141W        W10368  42.979  38.380  13.994
45142W        W10369   2.411  29.033   4.484
45143W        W10370  28.985  12.621  12.966
45144W        W10371  37.869  23.743  14.416
45145W        W10372  32.550  11.893  11.154
45146W        W10373   3.363  40.572  11.168
45147W        W10374  30.304  33.543   3.550
45148W        W10375  13.704  35.315  12.478
45149W        W10376  29.837  21.138   2.620
45150W        W10377  32.239  42.526  11.122
45151W        W10378  32.866  43.415  11.952
45152W        W10379  12.109  28.525  13.939
45153W        W10380  34.192  38.633   1.195
45154W        W10381   0.033  41.277   3.789
45155W        W10382   8.378  26.522  11.597
45156W        W10383  28.651  25.669   1.433
45157W        W10384  42.943  28.934  10.730
45158W        W10385  35.386  31.214   4.117
45159W        W10386  36.465  37.410   2.783
45160W        W10387  33.402  41.966   3.985
45161W        W10388  40.421  26.680   2.113
45162W        W10389   1.975  16.730   2.572
45163W        W10390   5.767  39.860  10.831
45164W        W10391  35.907  23.144  10.524
45165W        W10392  28.409  36.017   3.949
45166W        W10393   6.451   2.276   2.849
45167W        W10394   6.117   7.908   4.257
45168W        W10395   9.194  10.921   0.625
45169W        W10396   1.811  21.256   1.323
45170W        W10397  16.948   6.606  11.116
45171W        W10398  36.926  38.858  13.815
45172W        W10399  29.627  39.931  12.744
45173W        W10400   2.865  13.674   4.392
45174W        W10401   0.381  35.117   4.602
45175W        W10402   3.292  14.686   3.453
45176W        W10403   3.427   8.430  10.763
45177W        W10404  29.571  12.773  13.287
45178W        W10405  13.370  28.789   0.903
45179W        W10406  42.773  32.982  10.126
45180W        W10407  32.456  14.841  14.312
45181W        W10408  44.106  22.966   0.843
45182W        W10409  34.961  16.314   0.217
45183W        W10410  16.141  18.012   2.829
45184W        W10411  11.668  37.797  11.067
45185W        W10412   4.759  44.493  14.316
45186W        W10413  25.570  12.862  10.714
45187W        W10414   7.160   6.279  12.593
45188W        W10415  34.846  31.452   3.361
45189W        W10416  34.015  28.975   3.113
45190W        W10417  12.337  11.424  12.068
45191W        W10418  29.430  11.397   1.175
45192W        W10419   6.318  15.365  14.372
45193W        W10420  33.870  19.135   1.823
45194W        W10421  40.676  33.920  12.103
45195W        W10422  34.432  26.084   4.499
45196W        W10423   4.708  38.935   1.210
45197W        W10424  37.807   9.335  11.655
45198W        W10425  39.019  12.113   1.233
45199W        W10426  42.587  27.013   4.060
45200W        W10427  41.615   2.900  12.024
45201W        W10428   3.361  11.944  11.630
45202W        W10429  26.843  23.810  11.572
45203W        W10430  11.347  37.349  10.729
45204W        W10431  34.437  23.576   3.912
45205W        W10432  38.931  18.941   3.197
45206W        W10433  32.570  32.023   4.509
45207W        W10434  14.401  17.106  13.637
45208W        W10435  22.092   2.509   3.834
45209W        W10436  19.913  17.335  14.371
45210W        W10437  39.018  25.033  14.377
45211W        W10438  13.343  29.110  12.999
45212W        W10439  16.684  42.660   0.642
45213W        W10440  38.613   2.362   2.801
45214W        W10441  25.535  39.041   1.668
45215W        W10442  19.095  34.024  14.222
45216W        W10443  11.827  10.775   0.296
45217W        W10444  26.095  19.753   2.226
45218W        W10445  18.589  12.885  13.045
45219W        W10446  26.306   6.468  10.681
45220W        W10447  37.209  16.721   3.934
45221W        W10448  44.855   9.162   4.700
45222W        W10449  25.103  23.758  14.328
45223W        W10450  40.315   1.898   3.578
45224W        W10451  28.913  38.853  11.449
45225W        W10452  42.323  10.636  11.626
45226W        W10453  10.568  17.491  13.387
45227W        W10454  28.174  31.022  11.208
45228W        W10455  39.429   2.579  13.548
45229W        W10456  39.450  41.770   0.329
45230W        W10457  23.876  11.546  12.507
45231W        W10458   7.931  39.398  14.617
45232W        W10459  23.934  41.957   4.613
45233W        W10460   2.849  36.084  12.653
45234W        W10461   4.522   4.846   2.800
45235W        W10462  26.982   2.499   3.807
45236W        W10463  31.950  17.263   4.621
45237W        W10464  21.999  25.599   3.016
45238W        W10465  27.391   1.741   5.167
45239W        W10466   1.689   5.315   1.418
45240W        W10467  43.664  22.329   9.762
45241W        W10468  16.105   3.264   3.103
45242W        W10469  43.128  30.627  12.932
45243W        W10470  10.729  23.496   1.503
45244W        W10471  37.328  37.227  14.303
45245W        W10472  44.740  31.407   0.321
45246W        W10473  37.006   6.471  14.784
45247W        W10474  24.461  25.778  11.938
45248W        W10475   9.605   4.129   1.919
45249W        W10476  14.657  44.251  13.811
45250W        W10477  30.701  24.559   1.884
45251W        W10478  11.345  43.611  14.344
45252W        W10479   8.175  36.604   1.706
45253W        W10480  42.059  23.519  14.365
45254W        W10481  12.336  11.278  13.612
45255W        W10482  27.658  41.788  13.027
45256W        W10483  38.891   7.789   4.549
45257W        W10484  23.690  31.082   1.984
45258W        W10485  35.030  10.114   3.359
45259W        W10486  11.112  28.609  10.509
45260W        W10487  32.574  29.020  12.335
45261W        W10488  11.366  22.161   4.674
45262W        W10489  43.236  40.077  10.925
45263W        W10490  30.590  11.389  13.073
45264W        W10491  30.534  11.919   5.013
45265W        W10492  22.485  18.320  14.778
45266W        W10493   2.411  34.563  11.240
45267W        W10494   4.621  43.282  13.767
45268W        W10495  32.939  36.423   1.713
45269W        W10496  36.305  44.094   4.320
45270W        W10497   4.282  11.827  13.343
45271W        W10498  22.557  33.681   1.583
45272W        W10499  38.903   9.223  14.308
45273W        W10500  41.589  20.066  12.930
45274W        W10501  24.115  15.739   5.148
45275W        W10502   6.152  23.569  13.724
45276W        W10503   8.369   1.475   0.883
45277W        W10504  19.092  21.949   1.863
45278W        W10505   7.312  12.409   2.177
45279W        W10506   1.754  29.852   3.681
45280W        W10507  31.600  42.343   0.794
45281W        W10508  21.106  29.893  12.426
45282W        W10509  14.877  42.888  11.296
45283W        W10510  26.531  36.506  13.523
45284W        W10511   5.836   6.712   1.290
45285W        W10512   2.278  40.459  11.505
45286W        W10513  35.978   3.858   4.656
45287W        W10514  43.869  34.233  14.312
45288W        W10515  16.867  17.640   1.206
45289W        W10516  22.922  21.481   0.887
45290W        W10517  24.065  26.383   4.264
45291W        W10518  15.638  42.001  14.935
45292W        W10519   4.157   2.848   0.339
45293W        W10520  15.641  12.743   3.132
45294W        W10521  23.684  15.125   1.257
45295W        W10522  24.468  26.729  10.718
45296W        W10523   9.275  39.839   3.673
45297W        W10524   1.445   7.131  12.784
45298W        W10525   7.193   1.079  12.865
45299W        W10526  17.557   3.576   4.944
45300W        W10527  41.830  15.205  11.000
45301W        W10528   1.533   4.848   4.366
45302W        W10529  35.521  29.819  11.139
45303W        W10530  44.754  39.938   0.740
45304W        W10531  44.298  22.705   3.318
45305W        W10532   7.776  10.371  14.751
45306W        W10533   8.019  16.929   1.266
45307W        W10534  27.422   2.242  11.011
45308W        W10535  33.812   9.634  12.813
45309W        W10536   5.867  37.223  11.631
45310W        W10537  18.757  18.935   2.189
45311W        W10538  20.161  13.862   0.822
45312W        W10539  13.036   1.356   4.012
45313W        W10540  44.320  37.585   3.608
45314W        W10541  41.127  25.640   3.645
45315W        W10542  14.228  38.144   1.691
45316W        W10543  35.882  38.127   1.146
45317W        W10544  12.908  19.635  13.995
45318W        W10545  15.617  15.584  10.525
45319W        W10546   9.856  30.739   0.327
45320W        W10547  28.938  23.524  14.380
45321W        W10548  33.857  23.550   3.026
45322W        W10549  42.537  36.594   4.104
45323W        W10550  30.978   5.246   3.752
45324W        W10551  20.489   5.841   2.279
45325W        W10552  28.981  41.460   4.281
45326W        W10553  36.436  27.048   1.272
45327W        W10554  25.412  18.977   2.690
45328W        W10555  22.987  40.450   2.686
45329W        W10556  33.001   5.734  14.920
45330W        W10557   6.279  43.079   0.411
45331W        W10558  25.584  22.041   4.403
45332W        W10559  44.258  21.068   1.443
45333W        W10560   7.283  41.742  13.395
45334W        W10561  14.483  25.649  14.079
45335W        W10562  13.521  41.024   2.376
45336W        W10563  36.669  32.495  13.940
45337W        W10564  20.221  11.942   4.509
45338W        W10565   3.483  16.531  11.786
45339W        W10566  18.270  10.282   4.867
45340W        W10567   6.757   4.853   4.661
45341W        W10568  12.928  27.708   2.344
45342W        W10569  22.755  36.110  14.085
45343W        W10570  25.214  35.682   2.798
45344W        W10571  40.304  20.525   2.708
45345W        W10572  25.454  40.188   0.089
45346W        W10573  20.768  10.681   4.731
45347W        W10574  12.770  23.671  11.185
45348W        W10575  30.862  24.985  13.951
45349W        W10576  42.257   6.707  13.305
45350W        W10577  34.357  35.007   2.866
45351W        W10578  23.592   1.953   2.517
45352W        W10579  27.269  31.946  13.104
45353W        W10580  15.038  34.934  14.698
45354W        W10581  21.710  17.742  13.142
45355W        W10582  28.418  14.691   4.997
45356W        W10583  44.820  15.603   0.768
45357W        W10584  21.264  24.625   0.803
45358W        W10585  36.661  13.536   1.792
45359W        W10586  40.283  41.018   2.868
45360W        W10587   5.652  28.084   2.667
45361W        W10588  42.785  42.992  12.597
45362W        W10589  20.670  27.477  13.453
45363W        W10590  32.294  35.748   4.606
45364W        W10591  30.576  35.271   0.394
45365W        W10592  29.296  37.980   1.234
45366W        W10593  21.952  29.978  14.968
45367W        W10594  30.526   6.352   1.713
45368W        W10595  17.146  43.810   2.080
45369W        W10596  44.477  44.902   2.677
45370W        W10597  11.389  41.505  11.472
45371W        W10598   4.181   9.634  14.845
45372W        W10599  12.343  32.541  10.895
45373W        W10600   7.190   8.443   3.301
45374W        W10601  28.412   3.379  13.780
45375W        W10602  11.633   5.062   3.932
45376W        W10603   7.476  12.848  14.963
45377W        W10604  17.851  40.084   1.904
45378W        W10605  28.951  28.048   3.725
45379W        W10606  44.254   3.725  12.838
45380W        W10607   5.849  39.226  10.719
45381W        W10608   1.707  20.634  12.882
45382W        W10609  38.638  38.313   4.056
45383W        W10610  29.859   9.901  14.971
45384W        W10611  16.564  38.989  14.354
45385W        W10612  28.249  43.495  11.236
45386W        W10613  35.445  15.622   3.734
45387W        W10614   4.755  14.678   4.151
45388W        W10615  23.006  17.020  14.807
45389W        W10616   8.603  19.800   1.336
45390W        W10617   2.780  11.609  14.731
45391W        W10618  32.009   8.961   2.256
45392W        W10619   4.491  19.580  12.622
45393W        W10620   7.359  43.332  11.593
45394W        W10621  44.416  41.010   2.330
45395W        W10622  37.173   5.677   4.960
45396W        W10623  18.570  37.354   3.667
45397W        W10624  12.679  26.055   1.615
45398W        W10625  30.106  11.328  13.313
45399W        W10626  22.535  14.780  10.953
45400W        W10627  41.307  23.109  13.562
45401W        W10628  10.174   5.186   0.790
45402W        W10629  12.003  44.379   2.860
45403W        W10630   9.166  29.020  12.544
45404W        W10631  10.767  35.861   2.607
45405W        W10632  43.499  34.082  11.620
45406W        W10633  27.275   9.476   2.405
45407W        W10634  11.401  42.993  11.030
45408W        W10635  43.030  10.728  12.413
45409W        W10636  16.262  33.996  12.606
45410W        W10637  32.050  21.645   1.704
45411W        W10638   0.775  29.624  12.993
45412W        W10639  11.167  30.433   3.207
45413W        W10640  39.816  19.456  12.173
45414W        W10641  41.302  15.231   2.178
45415W        W10642  16.430  34.798   2.373
45416W        W10643   6.381  18.324   1.790
45417W        W10644  23.577   3.436   2.556
45418W        W10645  17.763  43.835   3.719
45419W        W10646  40.606  29.969   3.087
45420W        W10647  32.021  32.153   3.686
45421W        W10648   5.969   5.435   1.304
45422W        W10649  11.772   6.268  13.586
45423W        W10650   1.869  41.928   3.696
45424W        W10651  18.745  39.716   3.801
45425W        W10652  33.393  17.227  12.059
45426W        W10653  24.397  32.115   4.524
45427W        W10654  11.826  12.296  14.561
45428W        W10655   4.874   7.791   1.757
45429W        W10656  14.276   6.842   2.027
45430W        W10657  23.079   8.616  12.454
45431W        W10658  22.253  25.285   0.433
45432W        W10659  26.897  19.041  12.369
45433W        W10660   6.724  32.060   1.335
45434W        W10661  41.100  19.989  14.241
45435W        W10662  21.280  25.093   0.593
45436W        W10663   1.301   4.448  13.397
45437W        W10664  42.867  20.669  14.389
45438W        W10665  18.342  25.117   2.503
45439W        W10666   1.339  12.336   3.641
45440W        W10667  20.967  13.665  11.248
45441W        W10668   7.928  14.031  11.108
45442W        W10669  30.554  26.298   4.110
45443W        W10670  33.038  16.735  14.329
45444W        W10671  28.693  42.913   0.457
45445W        W10672  38.102  14.279   2.283
45446W        W10673  20.150   3.295   2.617
45447W        W10674   4.830   3.883   0.215
45448W        W10675  21.067  31.062  10.942
45449W        W10676  30.830  35.391   2.000
45450W        W10677  20.988  40.580  12.370
45451W        W10678  39.436  19.199   4.010
45452W        W10679  19.835   1.918  12.469
45453W        W10680   2.924  22.168  10.651
45454W        W10681  38.887   1.998   2.075
45455W        W10682  29.270  39.631   0.789
45456W        W10683  12.001  21.038  10.530
45457W        W10684  44.626  20.285  10.662
45458W        W10685   1.008  10.182   3.746
45459W        W10686  42.513  23.194  12.535
45460W        W10687   2.748  36.513  12.960
45461W        W10688  43.149  25.647  10.656
45462W        W10689  37.510  22.620   3.021
45463W        W10690   0.856  31.087  11.043
45464W        W10691  21.489   0.062   1.731
45465W        W10692  39.946  22.318  13.550
45466W        W10693  26.124  32.630   0.270
45467W        W10694  22.271   4.763   1.507
45468W        W10695  10.271  25.498  12.678
45469W        W10696  33.923  11.115  11.040
45470W        W10697  20.245  37.888  13.942
45471W        W10698   7.401  18.229   2.236
45472W        W10699  36.815   9.668   3.749
45473W        W10700  15.606  23.742   3.217
45474W        W10701  23.173  35.464   1.408
45475W        W10702  40.124   3.940  10.812
45476W        W10703  26.910  37.892   4.812
45477W        W10704  25.967  11.939   2.129
45478W        W10705   2.226  12.353   0.798
45479W        W10706  33.939  32.347  10.524
45480W        W10707   9.675  27.963  11.867
45481W        W10708  25.013  22.539  10.701
45482W        W10709  26.429   3.838   0.612
45483W        W10710  23.754  29.722  11.626
45484W        W10711  11.352  15.387   0.582
45485W        W10712  44.368  19.485  11.626
45486W        W10713  34.462  11.325  14.834
45487W        W10714  16.743   7.124  13.117
45488W        W10715  27.968  21.104  11.133
45489W        W10716  25.287  41.141  11.733
45490W        W10717  29.678   2.611  11.856
45491W        W10718  37.474  19.573   3.630
45492W        W10719   5.990  10.170  11.018
45493W        W10720  35.618  15.555  11.755
45494W        W10721   0.935  44.019   5.391
45495W        W10722  38.521   7.709   2.554
45496W        W10723  19.665  40.154   0.455
45497W        W10724  37.378  26.130   2.261
45498W        W10725   9.855  19.710   2.231
45499W        W10726  21.095  36.205   2.720
45500W        W10727   8.489  40.446  11.573
45501W        W10728  14.563  31.652  14.405
45502W        W10729   6.839   2.677   2.943
45503W        W10730  43.861  34.808  14.980
45504W        W10731  28.559  21.127  11.849
45505W        W10732   5.983   5.781   2.037
45506W        W10733   5.905   2.228   0.889
45507W        W10734  31.368   0.969  11.423
45508W        W10735  17.020   1.420   3.503
45509W        W10736  34.381  27.547   3.210
45510W        W10737  15.786  42.335   1.210
45511W        W10738   9.256  44.870   2.781
45512W        W10739   6.178  21.655   3.235
45513W        W10740  29.696   4.922   2.585
45514W        W10741   6.309  38.936  11.488
45515W        W10742  20.762   8.850  14.140
45516W        W10743  35.008  29.631  10.259
45517W        W10744  27.222  10.269   0.287
45518W        W10745  15.583  43.065   0.899
45519W        W10746  31.896  14.962  12.913
45520W        W10747  10.402  28.561  14.896
45521W        W10748  22.111   4.347   0.888
45522W        W10749  33.534  15.220  11.211
45523W        W10750  23.982   6.707   4.488
45524W        W10751  20.216  17.570  10.295
45525W        W10752  14.018  34.975  14.868
45526W        W10753  34.978  18.427  11.172
45527W        W10754   2.290  29.072  11.440
45528W        W10755  16.933  39.190   2.211
45529W        W10756   6.385  20.274   2.719
45530W        W10757  37.444  21.925  14.745
45531W        W10758  23.794   2.204   1.206
45532W        W10759  28.466  21.548  12.169
45533W        W10760  40.033  17.519   3.223
45534W        W10761  39.898  38.830  13.009
45535W        W10762  37.090  34.845   3.135
45536W        W10763   5.452  43.499   2.245
45537W        W10764   3.041  43.866   0.689
45538W        W10765   5.998  37.328   4.950
45539W        W10766  16.568  26.088  13.949
45540W        W10767   6.538  37.479   4.350
45541W        W10768  43.594  19.510   3.180
45542W        W10769  18.921  17.700  14.307
45543W        W10770  43.840   2.288  10.567
45544W        W10771   5.132  30.445  11.101
45545W        W10772  15.798  15.610  11.540
45546W        W10773   3.451  27.352  13.652
45547W        W10774  33.545  41.861   1.216
45548W        W10775   8.112  14.490  10.262
45549W        W10776  27.862   1.288  13.354
45550W        W10777  42.734   8.187   0.275
45551W        W10778   6.739  42.289   2.821
45552W        W10779  10.601  12.793   3.403
45553W        W10780  25.400  28.035   3.678
45554W        W10781   2.398  23.330  11.978
45555W        W10782  24.370  17.298   4.711
45556W        W10783  31.500  34.939   5.268
45557W        W10784  38.859  23.537  13.500
45558W        W10785  43.425  28.138   2.718
45559W        W10786  22.825  37.453  14.029
45560W        W10787  33.765   0.551  12.491
45561W        W10788  13.444  35.645  12.790
45562W        W10789  26.233   3.486  13.478
45563W        W10790  16.446  39.268  13.925
45564W        W10791  25.216  11.132  12.556
45565W        W10792  31.572  37.820  13.414
45566W        W10793  37.568  31.054   1.906
45567W        W10794  14.146  21.577   3.131
45568W        W10795   8.013   7.633   0.872
45569W        W10796   4.094  28.442   2.862
45570W        W10797  12.823   9.141   2.327
45571W        W10798  21.015  16.978   4.531
45572W        W10799  42.598  25.014  11.117
45573W        W10800   2.421  42.353  10.615
45574W        W10801  33.549   3.799  12.614
45575W        W10802  22.685  16.882  14.406
45576W        W10803  22.283  29.438   4.529
45577W        W10804  36.902   8.672   4.647
45578W        W10805  30.165  38.879   3.821
45579W        W10806  32.098  34.984   0.275
45580W        W10807  38.080  13.620   4.542
45581W        W10808   8.379  24.704  11.570
45582W        W10809  42.374  30.915  13.493
45583W        W10810  11.414  32.131  13.451
45584W        W10811  39.125  36.626  14.783
45585W        W10812  16.632  19.327  14.365
45586W        W10813  37.061  37.087   3.169
45587W        W10814  12.277  17.298  13.928
45588W        W10815  35.849  21.790   1.955
45589W        W10816  22.118   7.429   3.074
45590W        W10817  10.096   2.061   2.434
45591W        W10818  33.445  23.233   4.672
45592W        W10819  35.781  23.029   3.776
45593W        W10820  13.642  11.819  13.343
45594W        W10821   3.315  32.008   0.004
45595W        W10822   2.646  14.584   4.747
45596W        W10823  20.540  34.077  11.082
45597W        W10824   7.349  30.942  12.508
45598W        W10825  38.452  28.343   3.284
45599W        W10826   7.258  33.671  12.469
45600W        W10827  21.029  18.072   2.384
45601W        W10828  12.246   3.181  13.429
45602W        W10829  43.185   4.533   1.010
45603W        W10830   7.234  10.589   1.857
45604W        W10831  20.627  21.486   4.114
45605W        W10832   0.244  22.026   2.798
45606W        W10833  14.315  33.868   1.678
45607W        W10834   8.460  17.215  13.536
45608W        W10835  35.448  42.698  12.176
45609W        W10836   3.511  24.315  14.792
45610W        W10837  16.073  21.440   1.188
45611W        W10838  42.550  31.989  11.191
45612W        W10839  12.210   8.735  13.820
45613W        W10840  36.782  26.888  11.974
45614W        W10841  17.617  23.046   4.271
45615W        W10842  39.390  37.793  14.884
45616W        W10843  12.325  12.314  12.622
45617W        W10844  15.876  34.855   2.334
45618W        W10845  14.571  26.225   1.698
45619W        W10846  23.079  42.455  11.576
45620W        W10847  36.036  30.143  11.162
45621W        W10848   9.259  27.057  14.072
45622W        W10849   1.274   6.330   2.340
45623W        W10850  14.728  27.015  11.195
45624W        W10851  41.949  13.454   3.109
45625W        W10852  32.333  14.702   1.819
45626W        W10853  35.078  36.572  13.908
45627W        W10854  26.642  13.877  12.138
45628W        W10855  14.243   8.794   3.670
45629W        W10856   4.161   0.776  13.971
45630W        W10857  40.391   5.142  13.430
45631W        W10858   3.103   2.335   2.394
45632W        W10859  19.577  23.924   4.892
45633W        W10860   7.933  43.087   4.210
45634W        W10861  21.599  18.315  13.145
45635W        W10862   4.821  22.072   4.489
45636W        W10863  14.544  20.943   3.746
45637W        W10864  27.924  15.706   1.839
45638W        W10865  32.084  10.072   4.005
45639W        W10866   4.266  26.432   0.822
45640W        W10867  11.868  23.501   4.804
45641W        W10868  26.314   9.878  11.647
45642W        W10869   4.346  27.635   1.802
45643W        W10870  44.243   2.309  12.839
45644W        W10871  13.731  38.598   2.635
45645W        W10872  28.083  33.574   1.022
45646W        W10873  35.338   2.958  10.879
45647W        W10874   9.645   7.905  13.066
45648W        W10875  13.044  16.616  11.508
45649W        W10876  29.420  43.942  11.361
45650W        W10877   9.453  17.385   1.356
45651W        W10878  43.273   9.704   3.861
45652W        W10879  25.707  13.157  12.841
45653W        W10880  11.666  21.170   1.496
45654W        W10881  27.562   3.044   0.761
45655W        W10882  31.460  12.804  14.019
45656W        W10883  10.823  25.003  12.893
45657W        W10884   6.976  22.315  11.592
45658W        W10885  22.493  22.080   0.256
45659W        W10886   3.469  16.375  11.296
45660W        W10887  18.959  16.642   4.107
45661W        W10888  13.770  12.718   2.163
45662W        W10889  33.558   8.315   4.613
45663W        W10890  13.413  13.739   4.419
45664W        W10891  44.394   3.477  12.413
45665W        W10892  18.803  43.461  11.148
45666W        W10893   8.260  22.073  10.987
45667W        W10894  27.410  36.414   1.894
45668W        W10895  10.895   4.866   2.370
45669W        W10896  29.539  12.640   2.917
45670W        W10897   7.913  36.564   0.297
45671W        W10898  37.167  35.020   2.080
45672W        W10899  41.868  19.578  14.109
45673W        W10900   3.738  44.833   4.988
45674W        W10901  29.660  34.350   0.824
45675W        W10902  16.370  42.099  13.013
45676W        W10903  34.433  33.074   3.715
45677W        W10904  37.239   0.076  12.003
45678W        W10905  32.941   8.312  13.940
45679W        W10906  37.272  10.146   1.026
45680W        W10907  33.587  11.017  11.488
45681W        W10908   5.332  11.460   1.757
45682W        W10909  26.062  19.290  13.937
45683W        W10910  18.172  28.592   4.266
45684W        W10911  37.745  12.727   4.990
45685W        W10912  10.560   3.282  13.973
45686W        W10913  21.169  39.612   4.857
45687W        W10914  18.187  36.032  14.119
45688W        W10915  20.386   0.537  12.344
45689W        W10916   9.911  18.558   3.136
45690W        W10917   0.665  31.540   4.383
45691W        W10918   8.871  15.265   0.495
45692W        W10919  29.605  21.891   4.870
45693W        W10920  28.059   3.384  12.488
45694W        W10921  37.289  33.035  13.073
45695W        W10922  43.405  35.013  14.775
45696W        W10923  33.473  30.679   0.383
45697W        W10924  42.856   5.310   4.106
45698W        W10925   5.505  24.006   0.824
45699W        W10926  18.283  13.781   1.899
45700W        W10927  20.066  44.323   2.284
45701W        W10928  42.784   6.867  14.858
45702W        W10929  27.230  35.412   0.430
45703W        W10930  31.517  27.188  12.978
45704W        W10931  25.467  40.388  11.446
45705W        W10932   9.082  33.624   4.344
45706W        W10933  21.544  22.237   0.055
45707W        W10934  18.075  40.423   1.358
45708W        W10935  25.968   3.401  13.062
45709W        W10936  12.856  20.066  13.343
45710W        W10937  13.827  36.927  14.206
45711W        W10938  42.965  15.380  12.871
45712W        W10939   1.786   1.236   3.127
45713W        W10940   4.372  37.902  10.498
45714W        W10941  37.991  20.414  11.995
45715W        W10942  36.467  11.108   2.819
45716W        W10943  42.723  38.635   3.695
45717W        W10944   1.249  15.664   3.651
45718W        W10945  40.727  24.406  14.955
45719W        W10946  34.064   0.109   1.890
45720W        W10947  35.141  19.607   3.294
45721W        W10948  21.927  18.700  13.005
45722W        W10949  13.134  22.462  11.926
45723W        W10950  40.042  17.000   3.304
45724W        W10951  10.277  39.745  11.580
45725W        W10952  22.433  40.348   2.693
45726W        W10953   7.136  28.793   2.679
45727W        W10954  14.664  20.254  11.646
45728W        W10955   6.218  10.442   0.766
45729W        W10956  43.839   8.314   0.372
45730W        W10957  15.818  35.636  11.953
45731W        W10958  31.547  24.153  12.535
45732W        W10959  19.391  16.751  12.968
45733W        W10960  33.338  15.682   0.031
45734W        W10961  10.548  37.059  14.950
45735W        W10962   6.065  15.850   1.905
45736W        W10963  12.626  15.690   0.213
45737W        W10964  22.800  15.705   1.346
45738W        W10965  11.795  36.631  13.001
45739W        W10966  29.104  16.673   2.278
45740W        W10967  32.825   3.945   1.666
45741W        W10968  16.747  40.293   3.850
45742W        W10969  38.246  36.128   3.178
45743W        W10970  44.416   2.985  12.523
45744W        W10971   6.938  38.077   1.906
45745W        W10972  20.195  14.582   2.137
45746W        W10973  17.881  30.011  11.156
45747W        W10974   9.694  40.906  10.599
45748W        W10975  19.929   3.612  14.597
45749W        W10976  42.842  28.045  12.716
45750W        W10977  29.435  42.607  11.547
45751W        W10978  19.206   1.076   4.754
45752W        W10979  25.110   2.873  12.521
45753W        W10980   4.749  13.013   2.661
45754W        W10981  12.590  20.013   3.228
45755W        W10982  21.012  10.515  13.935
45756W        W10983  18.670  21.973   1.224
45757W        W10984  34.927  32.256  13.492
45758W        W10985  18.185  30.767   2.767
45759W        W10986  14.961  26.940  13.566
45760W        W10987  19.544  38.552   1.288
45761W        W10988  31.921   7.394   3.109
45762W        W10989   4.521   3.907   1.834
45763W        W10990   0.737  42.553   0.813
45764W        W10991  25.008  35.090   1.461
45765W        W10992  20.717  37.154  12.012
45766W        W10993  39.505  16.696  11.923
45767W        W10994  28.580  27.512   1.711
45768W        W10995  10.311  17.892  11.679
45769W        W10996   0.881   2.915   4.173
45770W        W10997  27.003  43.575  12.008
45771W        W10998  43.943  43.914   1.346
45772W        W10999   9.562   9.727   3.694
45773W        W11000   1.299  24.512   0.719
45774W        W11001  35.087  34.586   3.611
45775W        W11002  38.810  17.184   1.354
45776W        W11003  31.622  44.351   0.320
45777W        W11004  13.156  11.674  13.233
45778W        W11005  32.665   3.302  10.837
45779W        W11006  40.886  18.173   4.530
45780W        W11007  12.163  40.151  10.949
45781W        W11008  10.485  31.158  13.273
45782W        W11009  23.112  33.817  13.096
45783W        W11010  15.826  41.020   4.080
45784W        W11011  25.865  22.799   1.306
45785W        W11012  25.150  15.995  11.562
45786W        W11013  23.781  39.108  10.368
45787W        W11014   9.140  19.692  13.899
45788W        W11015   2.663   5.745  13.834
45789W        W11016   2.646  13.379   1.754
45790W        W11017  33.371  44.396  10.270
45791W        W11018  19.688  11.287  11.080
45792W        W11019  25.509  27.646  14.573
45793W        W11020  21.690  22.660   1.884
45794W        W11021  15.391   7.203  12.896
45795W        W11022  21.048  12.215  11.845
45796W        W11023   6.444  16.740  12.359
45797W        W11024  38.566   5.185   0.070
45798W        W11025  30.612  13.807  12.402
45799W        W11026   9.491  23.753   1.014
45800W        W11027  38.787  11.832  13.584
45801W        W11028  12.509  34.094  13.925
45802W        W11029  28.306   4.835  10.941
45803W        W11030   7.387   1.832   4.155
45804W        W11031  10.368  42.800  13.578
45805W        W11032  43.564  27.838   4.080
45806W        W11033  37.881  44.867   0.360
45807W        W11034  17.383   5.253  12.455
45808W        W11035  38.366  34.387  12.841
45809W        W11036  40.483  24.651   4.784
45810W        W11037   0.015  22.474   2.719
45811W        W11038  21.463  30.214   2.526
45812W        W11039   7.307  37.472  10.672
45813W        W11040  21.667  34.101  10.717
45814W        W11041  10.145   2.968   4.588
45815W        W11042   3.860   9.029   0.791
45816W        W11043  26.465   2.396  11.210
45817W        W11044  11.346  17.028   4.804
45818W        W11045   1.144  21.283   1.739
45819W        W11046   5.119  39.443  12.136
45820W        W11047  10.849  14.348  14.345
45821W        W11048  35.448  35.027   4.865
45822W        W11049  19.220   4.465  10.498
45823W        W11050  21.197  30.476  10.032
45824W        W11051  15.727   9.786  11.660
45825W        W11052  37.476   6.181  13.734
45826W        W11053  31.936  32.288  10.780
45827W        W11054   5.144  14.585   0.694
45828W        W11055  21.296  23.166  11.900
45829W        W11056  33.348  21.235   1.732
45830W        W11057  19.368   4.929   1.223
45831W        W11058   8.347  43.990   1.641
45832W        W11059  11.723  11.706  13.438
45833W        W11060  17.418  24.157   2.467
45834W        W11061   1.504   3.329   4.677
45835W        W11062  10.736  39.354   2.149
45836W        W11063   8.623  23.027  13.657
45837W        W11064  38.730  14.328  12.127
45838W        W11065   1.810   6.846  10.930
45839W        W11066  42.695  32.575  10.535
45840W        W11067  41.057  43.337   1.330
45841W        W11068  17.289  40.805  12.064
45842W        W11069  44.081  44.989   1.054
45843W        W11070  42.332  19.832  14.045
45844W        W11071  38.511   8.867  13.540
45845W        W11072  37.088   7.182  14.444
45846W        W11073  14.094  14.387   0.368
45847W        W11074   7.764  18.040   4.200
45848W        W11075  24.299   2.546  13.137
45849W        W11076  14.184   7.686  13.315
45850W        W11077  41.953  37.670  13.391
45851W        W11078  42.566   0.230  14.493
45852W        W11079   8.371  42.295   3.351
45853W        W11080  25.196  10.814   3.162
45854W        W11081  18.251  24.814  13.855
45855W        W11082  29.640  14.642   4.864
45856W        W11083  37.576   8.650   0.273
45857W        W11084  10.559  23.686   9.887
45858W        W11085  35.012  38.220  11.408
45859W        W11086   6.558   7.638   4.260
45860W        W11087  12.373  16.558   3.122
45861W        W11088  34.550   3.222   4.171
45862W        W11089  23.433  16.310  10.957
45863W        W11090  24.157  16.454   0.463
45864W        W11091  10.514   7.701  13.795
45865W        W11092  31.590  33.420   1.232
45866W        W11093  24.527  37.603  12.072
45867W        W11094  23.552  30.731  11.567
45868W        W11095  21.698   6.235  11.550
45869W        W11096  23.531  39.817  12.117
45870W        W11097  40.326   8.387   0.323
45871W        W11098   0.795  38.483  14.822
45872W        W11099  26.129  40.116   4.528
45873W        W11100   1.850  25.111   4.117
45874W        W11101  13.251   0.545  12.904
45875W        W11102  22.979  12.206   4.394
45876W        W11103  10.264  31.588  13.077
45877W        W11104  36.424  23.247   0.433
45878W        W11105   9.321  24.164  11.542
45879W        W11106  25.404  17.569  12.520
45880W        W11107  33.109  14.594  13.444
45881W        W11108  24.700  30.274  14.138
45882W        W11109  41.052  24.199   4.126
45883W        W11110  38.070  37.524   3.704
45884W        W11111   8.776   0.203  12.499
45885W        W11112  43.775  25.737  12.032
45886W        W11113   1.511  43.538  11.696
45887W        W11114  38.723  10.221  13.701
45888W        W11115  31.516   3.636  12.002
45889W        W11116  27.937  12.765   4.098
45890W        W11117  20.290  28.941  11.019
45891W        W11118  32.566   9.281   0.759
45892W        W11119  36.362  26.633   0.343
45893W        W11120  15.735   4.798   1.736
45894W        W11121  29.266  40.731  12.674
45895W        W11122  41.470   4.778  11.597
45896W        W11123  20.807  26.413  14.517
45897W        W11124  28.446  25.973   4.097
45898W        W11125   8.651   1.425   1.390
45899W        W11126  25.459   3.718   0.964
45900W        W11127  30.198  34.607  10.377
45901W        W11128  16.170  27.616   2.701
45902W        W11129   1.954  19.372   5.034
45903W        W11130   4.489   0.522   0.293
45904W        W11131  12.183   1.100  12.480
45905W        W11132   9.532   2.746   2.954
45906W        W11133  10.570  42.309  13.010
45907W        W11134   8.682  43.092  10.674
45908W        W11135  39.143   4.804   1.574
45909W        W11136  11.250  41.465   0.661
45910W        W11137   0.845   7.909   4.624
45911W        W11138  23.306  17.347  12.055
45912W        W11139   8.891  17.250  12.009
45913W        W11140  42.496  42.667   4.140
45914W        W11141  13.217  36.258   0.905
45915W        W11142  37.529  25.905  11.144
45916W        W11143  28.781  13.131  14.488
45917W        W11144  36.530   2.807  12.850
45918W        W11145   5.036  20.956   9.934
45919W        W11146  27.507  29.002  14.951
45920W        W11147  14.094   8.161  12.053
45921W        W11148  43.229   7.670   0.837
45922W        W11149  40.921  17.528   3.183
45923W        W11150  29.624  21.776  12.494
45924W        W11151  37.554  21.414   4.772
45925W        W11152   1.751  14.317  12.963
45926W        W11153   1.582  34.211  11.505
45927W        W11154  39.857  23.981   1.527
45928W        W11155  21.738  31.474   4.525
45929W        W11156  18.517  13.364   0.671
45930W        W11157  27.482  13.709  13.480
45931W        W11158  29.866  31.858  11.981
45932W        W11159  34.957  33.538  10.702
45933W        W11160  21.567   1.508   9.848
45934W        W11161  44.794  26.639  13.021
45935W        W11162   4.012  16.637   4.931
45936W        W11163  41.537  29.127   3.505
45937W        W11164  35.603  38.356   4.534
45938W        W11165   4.039  40.941  11.603
45939W        W11166  11.302   0.289  10.657
45940W        W11167  16.619  43.277  11.354
45941W        W11168  19.214  39.259  14.024
45942W        W11169  20.062  33.474   4.444
45943W        W11170  14.340  40.836   0.812
45944W        W11171  34.797  30.569   2.346
45945W        W11172  24.612   3.486   5.017
45946W        W11173  14.657  12.736   2.148
45947W        W11174   0.461  22.071  13.375
45948W        W11175  33.490   4.427  11.657
45949W        W11176   4.627  38.742  11.915
45950W        W11177  19.084  30.582  13.414
45951W        W11178   7.213   8.175  12.923
45952W        W11179  11.223  17.983  13.442
45953W        W11180  17.118  27.902   0.855
45954W        W11181  15.229  19.847   0.922
45955W        W11182  43.672  37.549  11.129
45956W        W11183  21.730  30.190   0.963
45957W        W11184   9.299  39.780   1.213
45958W        W11185  30.496  16.639  13.989
45959W        W11186  29.161  36.098  14.038
45960W        W11187  33.881  22.579   2.206
45961W        W11188  44.146  18.563  10.748
45962W        W11189  22.506  34.528  13.080
45963W        W11190  13.075   1.897  11.986
45964W        W11191  42.832  26.043   0.452
45965W        W11192  23.726  34.410  13.690
45966W        W11193   6.857  27.744   2.570
45967W        W11194  34.027  32.630   2.572
45968W        W11195  27.220  19.616   0.236
45969W        W11196   7.985  17.170   3.113
45970W        W11197  43.934  40.085   3.330
45971W        W11198  31.662  10.726   2.832
45972W        W11199  24.151  18.472  12.432
45973W        W11200  27.248  12.729  11.098
45974W        W11201  44.669  19.859  12.462
45975W        W11202  21.588  19.654  12.252
45976W        W11203  38.053  39.474  12.628
45977W        W11204   1.225  31.646  10.533
45978W        W11205  12.848  40.931   0.024
45979W        W11206  33.653   7.126   3.262
45980W        W11207  27.728  18.397  12.074
45981W        W11208  28.591  41.225   1.156
45982W        W11209  27.189   0.288  11.077
45983W        W11210  39.485  34.002  14.144
45984W        W11211  22.167  18.080   1.499
45985W        W11212  11.762   7.389  12.571
45986W        W11213   4.484  41.770  12.638
45987W        W11214  15.763  26.305  14.481
45988W        W11215  34.144  27.531   0.386
45989W        W11216  37.841   5.134  14.387
45990W        W11217  23.006  38.568  12.026
45991W        W11218   5.463  23.918  11.323
45992W        W11219  17.914  29.487   2.747
45993W        W11220   8.787  17.242   3.681
45994W        W11221   6.742  14.636  13.026
45995W        W11222  34.702  40.909   4.346
45996W        W11223  28.615  22.137  11.693
45997W        W11224  11.234  14.574  11.399
45998W        W11225  13.262   7.984  11.991
45999W        W11226   8.767   6.510  11.540
46000W        W11227  35.322   1.280  13.399
46001W        W11228  37.564   7.132  14.244
46002W        W11229  40.653  22.710   3.828
46003W        W11230  35.029  18.751   3.352
46004W        W11231  16.611   3.918  13.335
46005W        W11232  43.017  34.978  13.363
46006W        W11233  15.858  27.617  11.167
46007W        W11234   3.717  36.298   4.070
46008W        W11235  13.095  35.040   0.080
46009W        W11236  40.553  11.727  13.808
46010W        W11237  27.559  36.825  11.550
46011W        W11238   1.324   1.797   0.345
46012W        W11239  21.360  21.709   2.246
46013W        W11240   0.231  44.535   2.136
46014W        W11241   0.492  36.056  11.578
46015W        W11242  40.769  21.134  13.931
46016W        W11243  34.397  21.229   3.646
46017W        W11244  14.509  14.718   2.808
46018W        W11245   3.775  24.784  12.846
46019W        W11246  14.068  21.805  13.946
46020W        W11247   1.451   0.879  14.361
46021W        W11248  32.612  34.905   4.219
46022W        W11249  36.802  42.075   1.260
46023W        W11250  35.324  23.631  13.146
46024W        W11251  40.731  38.313  12.064
46025W        W11252   7.660  24.311   2.670
46026W        W11253  30.050  23.611  14.815
46027W        W11254  40.784  12.597  11.205
46028W        W11255  29.467  28.698   3.261
46029W        W11256  34.898  16.147   4.729
46030W        W11257  38.446  31.921   3.686
46031W        W11258  11.275   1.769  11.912
46032W        W11259  14.808  32.248  10.697
46033W        W11260  22.185  11.060   0.012
46034W        W11261   5.824   8.616   4.695
46035W        W11262   7.223   9.611   1.785
46036W        W11263  21.538  11.185   3.271
46037W        W11264  12.351  43.466   3.078
46038W        W11265  41.535  42.495  11.592
46039W        W11266   4.681   8.290   1.744
46040W        W11267  19.191  39.221   2.535
46041W        W11268  17.572   3.925   3.197
46042W        W11269  22.276   8.375   3.141
46043W        W11270  27.418  14.819  12.184
46044W        W11271  32.867   5.388   1.828
46045W        W11272  26.761  36.413   1.322
46046W        W11273  12.168   8.663   4.276
46047W        W11274  34.788   6.382   1.295
46048W        W11275  34.315  35.491   3.625
46049W        W11276  20.305  19.502  12.081
46050W        W11277  11.528  21.594   4.252
46051W        W11278  32.675  24.238   4.629
46052W        W11279  44.339  16.550  12.139
46053W        W11280  39.262  37.505  11.855
46054W        W11281  35.318  14.579   1.325
46055W        W11282  24.712  21.882  11.408
46056W        W11283  10.684  32.932  14.955
46057W        W11284   9.500   5.469   1.936
46058W        W11285   4.573  39.955   1.320
46059W        W11286  29.972  29.323   1.247
46060W        W11287  16.842  36.476  13.897
46061W        W11288  21.633  19.168  12.000
46062W        W11289  17.158  17.225  14.227
46063W        W11290  26.906  43.392  11.536
46064W        W11291   1.621  44.192   0.111
46065W        W11292  36.951  10.568   2.283
46066W        W11293   2.351  36.405  11.613
46067W        W11294  41.373   2.788  12.627
46068W        W11295   6.177  41.139  11.219
46069W        W11296  32.388   8.245   1.906
46070W        W11297  11.659   0.675  12.192
46071W        W11298   9.955  19.703   3.687
46072W        W11299  30.287   8.518   4.528
46073W        W11300  23.523   8.355  11.677
46074W        W11301  26.691  25.031  13.089
46075W        W11302  23.015  42.159   3.235
46076W        W11303  39.442  23.170  14.331
46077W        W11304   0.656  36.108   4.919
46078W        W11305  22.422  25.125   1.271
46079W        W11306   3.852  12.848   1.231
46080W        W11307  35.336  13.899   1.317
46081W        W11308  15.465  26.195   3.288
46082W        W11309  39.457   8.786   4.178
46083W        W11310  11.576  19.120   2.845
46084W        W11311  10.127  24.622   1.801
46085W        W11312  18.917  36.108   1.449
46086W        W11313  41.098  36.077   2.955
46087W        W11314  13.557  27.361  14.850
46088W        W11315  38.959  30.403   9.926
46089W        W11316  27.482  44.076   3.201
46090W        W11317  22.350   6.373   1.712
46091W        W11318   1.843  29.339  13.837
46092W        W11319  40.407  38.885  10.951
46093W        W11320  12.112  27.609   0.922
46094W        W11321  31.726   7.043  11.228
46095W        W11322  29.357  20.489  11.154
46096W        W11323  15.714  20.124   0.825
46097W        W11324   5.558  22.162   2.740
46098W        W11325  15.001  22.252  12.112
46099W        W11326  12.350  22.121   3.274
46100W        W11327  18.375  18.085   0.007
46101W        W11328   8.728  34.855   1.162
46102W        W11329   0.862  37.054   4.683
46103W        W11330  24.125  32.989   1.023
46104W        W11331  21.939  28.169   0.755
46105W        W11332  41.125  27.557  14.065
46106W        W11333  26.572   0.293  12.431
46107W        W11334  44.437  40.709  13.094
46108W        W11335   2.300  29.868   4.952
46109W        W11336   5.651  14.653   3.563
46110W        W11337  26.493  44.508   2.812
46111W        W11338  12.633  10.257   2.315
46112W        W11339   9.198  41.634  13.658
46113W        W11340   0.312  27.494  14.812
46114W        W11341  26.071   5.598  11.755
46115W        W11342  15.780  16.202  10.723
46116W        W11343   3.769   9.072   4.408
46117W        W11344  10.675   5.179   1.008
46118W        W11345  31.127  25.402   4.914
46119W        W11346   6.246  44.778   1.935
46120W        W11347  37.450  40.471  13.873
46121W        W11348  39.436   4.192   2.474
46122W        W11349  18.107  11.915  11.156
46123W        W11350  35.413  39.959   2.325
46124W        W11351  19.269  13.076   2.830
46125W        W11352  38.366  15.353  11.531
46126W        W11353  17.239   6.821   3.440
46127W        W11354  12.440  35.230   4.989
46128W        W11355  43.784  36.998  12.826
46129W        W11356  36.866  25.616   4.180
46130W        W11357  26.572  17.349   0.792
46131W        W11358  31.639  43.565  11.180
46132W        W11359  35.167  19.527  11.378
46133W        W11360  11.299  41.025   1.709
46134W        W11361  10.787  21.290   2.349
46135W        W11362  27.149   3.119   1.137
46136W        W11363  35.392  39.077  12.870
46137W        W11364  39.378  32.439  10.480
46138W        W11365  13.093  31.442  12.802
46139W        W11366   7.774   3.431   1.220
46140W        W11367  33.171  18.686   1.730
46141W        W11368  41.585  30.063   2.360
46142W        W11369  37.994  14.647   3.102
46143W        W11370  34.012  30.380   4.178
46144W        W11371  28.531  15.762  13.832
46145W        W11372  24.512  25.520   2.159
46146W        W11373  17.834   0.634   3.919
46147W        W11374  31.582   9.752  13.914
46148W        W11375  37.158  14.762  11.814
46149W        W11376  19.066   0.392   4.420
46150W        W11377  27.412  11.650   1.783
46151W        W11378   3.004  41.772   3.064
46152W        W11379  12.710  14.212  11.436
46153W        W11380  31.119  28.947  12.672
46154W        W11381  32.701  15.692  12.979
46155W        W11382  37.391  28.599  11.177
46156W        W11383  11.342  17.104   4.214
46157W        W11384  15.386   6.236   3.352
46158W        W11385  37.424  31.225  13.045
46159W        W11386   4.396  16.745   3.141
46160W        W11387  33.988  13.070  10.354
46161W        W11388  32.763  23.593  10.828
46162W        W11389  13.324  43.906   0.424
46163W        W11390  22.178  15.389  13.420
46164W        W11391  22.398  35.466   3.137
46165W        W11392   2.974  42.425  12.055
46166W        W11393  24.368  22.188  13.394
46167W        W11394   1.051  12.190  13.887
46168W        W11395   0.767  24.722   0.967
46169W        W11396   0.605  40.463   2.362
46170W        W11397  22.601   9.645   4.236
46171W        W11398  11.232   8.341   0.072
46172W        W11399   7.785  32.857  13.418
46173W        W11400  41.905  13.055  12.409
46174W        W11401  13.095  27.092   2.946
46175W        W11402   0.292  39.546  10.643
46176W        W11403  25.809  37.928   2.173
46177W        W11404  26.978  16.248   3.574
46178W        W11405   9.200  16.867  12.647
46179W        W11406  15.820  16.589  10.052
46180W        W11407  10.268  28.127   3.707
46181W        W11408  38.381  38.508  12.155
46182W        W11409  22.741   5.646  13.805
46183W        W11410  28.823  31.026   0.804
46184W        W11411  37.371  17.738   3.672
46185W        W11412  13.744  36.366  12.407
46186W        W11413   8.075   0.275   1.493
46187W        W11414  39.096  11.248   1.833
46188W        W11415  37.593   8.997  10.776
46189W        W11416  12.962  12.833   2.440
46190W        W11417  21.179  13.687  13.074
46191W        W11418   8.382  36.916   3.843
46192W        W11419  24.402  17.513  12.964
46193W        W11420  15.163  21.300   2.811
46194W        W11421  35.401  15.256  10.797
46195W        W11422  42.248   4.311   2.247
46196W        W11423  10.766  19.436   4.524
46197W        W11424  30.370  38.111   2.697
46198W        W11425   3.905   2.766   3.613
46199W        W11426  22.972   5.420   3.831
46200W        W11427  41.581   3.397   1.201
46201W        W11428   1.378  23.206   4.499
46202W        W11429   5.056  34.756   0.419
46203W        W11430  12.288  36.415   0.991
46204W        W11431  22.206   6.943   2.874
46205W        W11432  20.456  40.091   2.900
46206W        W11433  26.190  38.548   2.710
46207W        W11434  30.005  10.910   0.802
46208W        W11435  19.105  36.954  12.026
46209W        W11436  14.627   7.392  13.392
46210W        W11437   4.213  36.005  11.164
46211W        W11438  38.469  21.339   0.946
46212W        W11439  23.717   7.064  11.008
46213W        W11440   4.085  10.461  12.974
46214W        W11441  14.591  13.250   1.914
46215W        W11442   8.921  29.035  14.886
46216W        W11443  17.329  16.879   0.992
46217W        W11444  34.377   2.418   2.709
46218W        W11445   3.548  33.172   2.383
46219W        W11446  22.244  41.371  14.354
46220W        W11447  37.092  24.966   4.069
46221W        W11448  39.100   9.754   2.835
46222W        W11449   3.361  19.825  12.890
46223W        W11450   6.313  18.582   4.702
46224W        W11451   8.658  42.661  12.362
46225W        W11452  28.258   5.817  12.125
46226W        W11453  31.385  14.396  10.688
46227W        W11454  30.079  31.950  13.381
46228W        W11455   7.973  17.369  13.410
46229W        W11456  39.283  41.447   2.184
46230W        W11457  36.536  29.530   4.878
46231W        W11458  27.532   7.821   1.734
46232W        W11459  16.068  42.814   1.001
46233W        W11460   1.922   0.755  11.917
46234W        W11461  30.970  18.005   0.673
46235W        W11462  20.064  36.250  14.811
46236W        W11463  42.588  42.219  11.151
46237W        W11464  15.112   8.970  10.547
46238W        W11465  42.477  24.609   1.587
46239W        W11466  42.107  24.747  12.097
46240W        W11467  25.382  28.564   1.887
46241W        W11468  10.720  28.086   4.211
46242W        W11469   3.790  22.285   1.584
46243W        W11470  11.201  36.656  13.562
46244W        W11471  13.193  19.708   2.101
46245W        W11472  10.422  16.603  14.429
46246W        W11473   6.408  30.415  13.793
46247W        W11474  41.934  10.015   0.861
46248W        W11475   1.631  20.458  12.035
46249W        W11476  34.356  10.155   1.750
46250W        W11477  40.087  43.815   4.249
46251W        W11478  40.901  24.441   4.561
46252W        W11479   5.936  43.072   0.818
46253W        W11480  18.262  30.693   0.380
46254W        W11481  21.960  13.296  14.385
46255W        W11482  12.651  10.156   0.394
46256W        W11483  39.847  27.364  11.177
46257W        W11484  43.800  33.908   2.857
46258W        W11485  32.072  42.518   3.028
46259W        W11486  25.506  27.647   0.129
46260W        W11487  30.130  31.863  11.137
46261W        W11488   2.126  17.831   1.280
46262W        W11489  35.438  17.048   4.475
46263W        W11490   7.311  18.745   0.970
46264W        W11491   5.016  17.878   3.240
46265W        W11492  16.039   1.611  12.512
46266W        W11493  41.489  13.186  11.503
46267W        W11494  30.316  31.168   2.514
46268W        W11495   9.026  33.360   2.320
46269W        W11496  25.135  42.554   0.732
46270W        W11497   8.419  44.283  12.010
46271W        W11498   3.532  25.436   2.645
46272W        W11499   5.279  10.971  13.453
46273W        W11500  44.546   0.040   0.792
46274W        W11501   3.297  17.507  11.938
46275W        W11502  42.096  44.317  11.668
46276W        W11503   2.941  44.033   4.587
46277W        W11504   9.097   9.940  14.609
46278W        W11505  17.642  16.618  12.605
46279W        W11506  41.612  40.536   0.931
46280W        W11507  29.496  40.682   4.267
46281W        W11508  18.183  32.711   3.354
46282W        W11509   4.910  31.861  11.968
46283W        W11510  18.607  22.102  12.500
46284W        W11511   8.803  18.233   2.769
46285W        W11512  41.537   4.439  12.848
46286W        W11513  32.568  12.318   2.243
46287W        W11514  42.468  32.474   1.240
46288W        W11515  24.682  33.505   4.680
46289W        W11516  12.261  16.386   1.282
46290W        W11517  20.519  32.154  11.151
46291W        W11518   8.356  38.957   3.117
46292W        W11519  25.191  43.633  12.669
46293W        W11520  36.069  26.170   3.303
46294W        W11521  35.082  34.045  10.693
46295W        W11522   6.562   7.385  11.214
46296W        W11523   1.975  37.420  10.747
46297W        W11524  31.231  39.945   5.025
46298W        W11525  15.057  44.429  10.132
46299W        W11526  36.023  23.317  12.548
46300W        W11527  17.838  37.241  12.108
46301W        W11528  25.509   9.883   1.273
46302W        W11529  13.680  32.068  14.720
46303W        W11530   1.170  26.490  12.938
46304W        W11531  20.143  23.090  11.476
46305W        W11532  39.845  13.669  14.434
46306W        W11533   2.030  22.264  14.130
46307W        W11534   4.160  43.033   2.363
46308W        W11535  24.952  43.709   0.243
46309W        W11536  17.000  30.506   2.660
46310W        W11537   1.983   1.297   3.602
46311W        W11538  17.358   8.267  11.575
46312W        W11539   9.258  37.967   4.432
46313W        W11540   1.512  10.609   1.788
46314W        W11541  37.580  40.902  11.472
46315W        W11542  34.898   2.786   4.674
46316W        W11543  29.154  38.823  12.181
46317W        W11544  15.565  22.974   2.784
46318W        W11545   7.971   6.121  13.504
46319W        W11546  25.212   7.459   4.900
46320W        W11547  36.845  15.308   0.926
46321W        W11548   0.779  15.640  11.889
46322W        W11549  33.697   6.142  14.364
46323W        W11550  16.790   5.314   3.771
46324W        W11551  23.720  41.512  10.423
46325W        W11552  39.244  15.297  13.940
46326W        W11553   9.381  18.513  12.411
46327W        W11554  27.591  41.917   0.859
46328W        W11555  26.699  22.138  12.134
46329W        W11556  14.634  15.729   9.579
46330W        W11557  35.271  30.121   1.996
46331W        W11558  40.433  16.395  11.854
46332W        W11559  26.551  38.900   1.373
46333W        W11560  26.718  12.865  12.085
46334W        W11561  42.990  33.512   5.010
46335W        W11562  32.812  10.447   1.769
46336W        W11563  31.510  28.657  13.535
46337W        W11564  19.856  33.020   4.584
46338W        W11565   0.214  14.280  11.549
46339W        W11566  36.895  34.570  10.703
46340W        W11567  43.521   5.311   2.674
46341W        W11568  31.042  16.856   1.828
46342W        W11569  15.750  40.735   1.294
46343W        W11570  33.625  39.962   0.187
46344W        W11571   4.734  14.715  14.379
46345W        W11572  13.375   5.438   1.990
46346W        W11573  41.333   2.820  14.387
46347W        W11574   8.771  36.934  12.400
46348W        W11575  18.003  16.098   1.307
46349W        W11576  25.540  11.865  14.293
46350W        W11577  20.221  25.745   2.335
46351W        W11578  18.852  25.029  10.815
46352W        W11579  42.619  27.656   0.674
46353W        W11580  25.471  43.383   2.219
46354W        W11581   5.224  11.301   4.656
46355W        W11582   5.792  22.486   2.362
46356W        W11583  20.616  29.374  10.432
46357W        W11584  11.808  20.741  13.932
46358W        W11585  13.312   4.328  14.518
46359W        W11586  20.570   3.426   4.061
46360W        W11587  40.955   7.871  13.317
46361W        W11588   3.637  26.561  13.162
46362W        W11589  35.884  21.328   4.140
46363W        W11590  13.368  35.018   4.546
46364W        W11591  40.069  37.453   1.506
46365W        W11592   7.405  44.772   2.831
46366W        W11593  16.000  32.976   3.673
46367W        W11594  34.899  20.782   3.616
46368W        W11595  12.265  29.045   3.868
46369W        W11596  41.408  18.496  11.551
46370W        W11597   2.248   2.777   3.689
46371W        W11598   8.722  16.848  13.993
46372W        W11599  44.772  28.117  12.988
46373W        W11600  43.136  30.921   4.346
46374W        W11601  27.946  12.251  13.883
46375W        W11602  43.774  34.647  12.997
46376W        W11603  29.128  14.852  11.528
46377W        W11604  44.998   4.108   4.181
46378W        W11605  10.040  37.507  10.244
46379W        W11606  42.003   1.242   1.879
46380W        W11607  28.940   5.650  14.330
46381W        W11608  27.722  20.212  14.039
46382W        W11609   6.194  39.102   4.142
46383W        W11610   7.155  33.346   0.434
46384W        W11611   8.801  41.865  13.995
46385W        W11612  31.966   6.691   0.453
46386W        W11613  14.068  37.297   1.354
46387W        W11614  38.160  18.246  13.900
46388W        W11615  24.461  32.481  10.790
46389W        W11616  24.088  22.532  10.871
46390W        W11617   7.752  33.855  13.360
46391W        W11618  10.063   2.533  14.896
46392W        W11619   2.577  20.816  11.132
46393W        W11620  33.864  35.981   3.258
46394W        W11621  32.084  12.882  13.406
46395W        W11622   7.049  27.633   1.702
46396W        W11623  14.142  17.536  13.527
46397W        W11624  22.809  21.554  13.123
46398W        W11625  14.585   2.709  13.418
46399W        W11626  28.975  20.738   0.909
46400W        W11627  10.668  37.826   2.735
46401W        W11628  21.386  39.291   0.319
46402W        W11629  40.843   0.457   4.694
46403W        W11630  12.832  20.781   3.671
46404W        W11631   3.781  29.617   2.860
46405W        W11632  27.673  16.140   0.585
46406W        W11633   9.918   4.258  12.164
46407W        W11634  19.967  14.545  14.343
46408W        W11635   3.566   3.370  11.035
46409W        W11636  28.899  34.658  13.821
46410W        W11637   9.452  11.253  13.365
46411W        W11638  37.117  15.259  13.342
46412W        W11639  25.650   0.477  12.948
46413W        W11640  31.491  23.553   3.088
46414W        W11641  35.986  26.018   4.580
46415W        W11642  20.445   7.980  14.095
46416W        W11643  40.949  30.127   3.460
46417W        W11644  25.188  14.242  13.334
46418W        W11645   3.397  13.235   4.448
46419W        W11646  35.836  16.588  11.497
46420W        W11647   3.943  30.906   2.610
46421W        W11648   6.351  39.173  10.506
46422W        W11649  33.050  37.428  12.673
46423W        W11650  11.211   4.737  12.558
46424W        W11651  12.303   2.408   2.426
46425W        W11652   1.272   3.930   1.333
46426W        W11653  29.543  29.230  13.579
46427W        W11654  11.139  12.092  13.836
46428W        W11655  27.724  26.570  10.213
46429W        W11656  18.790   5.082   0.495
46430W        W11657  41.061   9.246  11.908
46431W        W11658   2.187  30.586  11.600
46432W        W11659  30.471  36.418  14.020
46433W        W11660  15.416  16.592  12.028
46434W        W11661  22.865  19.201  14.518
46435W        W11662  12.190   2.139  14.263
46436W        W11663  27.159   1.199   0.962
46437W        W11664  11.723  32.284   3.105
46438W        W11665  36.632  18.768   3.782
46439W        W11666  29.850  37.358   2.704
46440W        W11667  26.148   7.733   3.785
46441W        W11668  11.041  41.148   3.320
46442W        W11669   5.359  25.535   0.937
46443W        W11670  22.176  17.116  13.268
46444W        W11671  25.510  12.749  11.221
46445W        W11672  36.629   5.175  13.611
46446W        W11673  43.240  31.019  12.038
46447W        W11674  36.000  27.744  13.353
46448W        W11675   3.358  16.695   3.766
46449W        W11676   8.151  17.707   2.536
46450W        W11677   0.731   2.459   3.351
46451W        W11678  37.065  21.729   0.994
46452W        W11679  28.458  21.889   3.499
46453W        W11680  31.652  40.276  11.523
46454W        W11681  16.032  32.692  12.434
46455W        W11682   2.734  44.306  13.274
46456W        W11683  27.609  22.741  11.014
46457W        W11684   9.673   1.225  14.772
46458W        W11685  24.625  15.602  10.513
46459W        W11686  26.984  44.475   0.345
46460W        W11687   8.768   0.225   3.853
46461W        W11688  18.785   4.359  13.678
46462W        W11689  18.251  24.533   4.873
46463W        W11690  42.002  10.085  10.253
46464W        W11691  27.550  21.730  13.338
46465W        W11692   6.921  19.345  11.627
46466W        W11693   1.021  42.967   0.922
46467W        W11694  28.727  10.201   3.929
46468W        W11695  20.740  35.508   1.304
46469W        W11696  18.591  38.199  13.909
46470W        W11697  25.707  43.434  12.433
46471W        W11698  38.224  34.456   2.781
46472W        W11699  14.250  27.211   4.673
46473W        W11700   8.355   0.156   0.486
46474W        W11701  35.875  18.908  12.657
46475W        W11702  26.937  40.809   0.164
46476W        W11703  35.707  25.190   1.259
46477W        W11704  38.305  23.244   4.058
46478W        W11705   4.749  11.085   4.737
46479W        W11706  28.423   2.478  10.729
46480W        W11707  18.050  26.188  11.064
46481W        W11708  28.329   9.707   3.215
46482W        W11709  35.384  31.087   2.558
46483W        W11710  12.756  39.154   0.859
46484W        W11711  30.964  40.306   0.568
46485W        W11712  10.858   9.621  12.002
46486W        W11713   3.825  12.777   0.349
46487W        W11714  10.698  21.204  10.665
46488W        W11715  43.265   4.486  10.372
46489W        W11716  25.233  12.540  13.892
46490W        W11717  27.731   0.190  11.894
46491W        W11718   6.719  14.073   3.272
46492W        W11719  43.446  27.910  11.456
46493W        W11720  25.039  39.035  13.982
46494W        W11721  25.200   0.365   3.194
46495W        W11722  24.008   7.757   1.701
46496W        W11723  27.727  17.008  10.639
46497W        W11724   1.764   7.420  14.102
46498W        W11725  11.983   4.117   1.643
46499W        W11726  23.776  37.517  13.671
46500W        W11727  42.215   9.243  13.990
46501W        W11728  14.291  24.940   1.413
46502W        W11729  19.674  10.852  14.325
46503W        W11730   9.918   4.322   4.344
46504W        W11731  15.289  22.497   0.255
46505W        W11732  43.757  10.295   3.233
46506W        W11733  27.044  37.099  14.895
46507W        W11734   7.805  41.571   3.280
46508W        W11735  40.057  22.806  14.887
46509W        W11736  37.502  34.966   1.035
46510W        W11737  28.444  35.030   2.795
46511W        W11738  18.846  39.577   3.256
46512W        W11739  18.242  35.607   3.735
46513W        W11740  43.548   5.789   2.488
46514W        W11741  29.856   8.088   1.930
46515W        W11742  12.903  10.583   0.295
46516W        W11743  28.025  35.275   1.855
46517W        W11744  29.661  22.281   3.366
46518W        W11745  19.692  23.590  10.711
46519W        W11746   4.169  17.997   3.797
46520W        W11747   2.308   3.974  12.324
46521W        W11748  18.476  11.338  10.363
46522W        W11749  38.404  13.295   4.128
46523W        W11750   9.681   3.972   3.041
46524W        W11751  16.545  27.104   3.130
46525W        W11752   4.366  37.519  11.869
46526W        W11753  42.886  23.177   0.524
46527W        W11754  33.731  43.959  13.121
46528W        W11755  32.662  14.114   3.246
46529W        W11756  26.965  19.421  13.788
46530W        W11757   6.737   4.903   2.825
46531W        W11758  14.370  32.389  10.381
46532W        W11759  32.062   8.457  12.935
46533W        W11760  15.811   6.384  14.134
46534W        W11761  19.644  30.094  11.490
46535W        W11762  33.054  24.432   2.299
46536W        W11763   0.440  28.278   0.883
46537W        W11764  15.194  30.130  13.918
46538W        W11765  39.414  23.824  12.089
46539W        W11766  44.954   7.202  14.076
46540W        W11767  14.817  22.654   4.873
46541W        W11768  37.511  14.794  12.189
46542W        W11769  32.642   5.518  12.573
46543W        W11770  31.509  37.087   3.072
46544W        W11771  36.686  41.760  12.219
46545W        W11772  18.822  43.140  12.391
46546W        W11773  37.778  19.020  13.904
46547W        W11774   9.997  33.210   5.145
46548W        W11775  11.321  38.386   2.676
46549W        W11776  11.227  23.405  12.591
46550W        W11777  26.483  37.565   9.869
46551W        W11778  30.008  21.171  14.511
46552W        W11779  36.257   8.722  11.067
46553W        W11780  28.181  12.508   3.650
46554W        W11781  21.679  17.319   4.111
46555W        W11782  35.003  28.199   1.596
46556W        W11783  44.235  10.391  12.225
46557W        W11784  31.873  15.696   4.947
46558W        W11785   7.744  16.761   0.402
46559W        W11786  24.063  39.963  12.429
46560W        W11787  34.503   5.912   4.889
46561W        W11788   9.196   3.452   4.515
46562W        W11789  28.971  30.269   1.844
46563W        W11790  16.169  11.246   3.618
46564W        W11791  16.889  44.495  14.791
46565W        W11792  31.249  40.756   1.369
46566W        W11793  16.659  31.637  11.562
46567W        W11794  23.412  17.650   1.103
46568W        W11795  19.714   8.295   4.448
46569W        W11796  12.119  34.427   3.889
46570W        W11797  31.584  10.384  10.750
46571W        W11798   6.486  28.889   0.286
46572W        W11799  21.161  18.184  13.389
46573W        W11800  36.656  21.464   4.237
46574W        W11801  24.443  32.010  14.777
46575W        W11802  23.579  37.427   3.154
46576W        W11803  13.741  43.303  14.918
46577W        W11804   9.779  13.694  14.760
46578W        W11805  17.853  12.147   0.823
46579W        W11806  18.247  33.949  11.830
46580W        W11807   6.383  33.648  13.465
46581W        W11808  18.185  40.987   4.539
46582W        W11809   0.367  25.897   1.647
46583W        W11810   1.348  21.904   0.936
46584W        W11811  42.757  30.032   4.483
46585W        W11812  44.120  17.853   4.131
46586W        W11813  31.719  26.449   0.341
46587W        W11814  21.263  19.302   1.934
46588W        W11815  28.878  36.320  14.413
46589W        W11816  20.033  28.944   1.748
46590W        W11817  18.887  43.498  14.505
46591W        W11818  13.117  10.472   4.177
46592W        W11819   1.438  23.227  11.704
46593W        W11820   4.688  27.723  14.005
46594W        W11821  19.005   0.642  11.618
46595W        W11822  44.283  11.689   1.430
46596W        W11823  42.329  38.429   1.826
46597W        W11824  38.788   4.689   4.190
46598W        W11825  23.791  28.076  12.745
46599W        W11826  43.277  18.617  13.701
46600W        W11827  29.565  31.849  12.889
46601W        W11828   8.218  39.080  10.740
46602W        W11829  17.522  21.740   3.631
46603W        W11830   8.136  28.500  12.947
46604W        W11831  10.907   8.653   3.346
46605W        W11832   2.732  40.959   4.584
46606W        W11833  22.892  43.325  13.877
46607W        W11834   5.785  10.448  11.821
46608W        W11835   8.701  15.716   0.760
46609W        W11836   8.822  20.622  13.966
46610W        W11837  43.643  18.743   2.593
46611W        W11838  39.973  37.365   0.240
46612W        W11839  42.768  26.481  14.511
46613W        W11840  10.308  35.728   2.775
46614W        W11841  35.594  30.543   1.368
46615W        W11842  24.445   0.932   1.743
46616W        W11843  25.679  35.875   2.390
46617W        W11844  36.380  42.233   4.096
46618W        W11845   9.831  23.234   2.643
46619W        W11846  38.441  12.923   0.710
46620W        W11847  14.412  33.863  10.408
46621W        W11848   4.758  29.864   0.529
46622W        W11849   2.864  43.436   0.388
46623W        W11850  19.734  29.226  10.294
46624W        W11851  31.946  12.718  13.915
46625W        W11852  27.145  15.216   0.182
46626W        W11853  30.198  13.276  14.267
46627W        W11854   5.804  11.049   0.050
46628W        W11855  26.384  34.095   0.489
46629W        W11856  22.789   5.901  13.370
46630W        W11857  23.100  44.423   9.823
46631W        W11858  40.918  17.066  13.953
46632W        W11859  32.154  31.098   4.597
46633W        W11860   1.990  29.098   0.247
46634W        W11861  18.293   2.295   1.249
46635W        W11862   1.547  22.831  12.462
46636W        W11863   1.794  28.058  13.489
46637W        W11864  14.144  14.277   1.276
46638W        W11865  36.606   1.494   2.766
46639W        W11866  22.687  25.142  14.484
46640W        W11867  23.015  13.127  12.976
46641W        W11868  15.413  31.873   0.700
46642W        W11869  17.344  30.956   0.432
46643W        W11870  22.177  11.831   0.357
46644W        W11871   7.964  20.677  13.764
46645W        W11872  43.621  23.962   4.204
46646W        W11873  22.774  13.771  11.691
46647W        W11874  24.085  36.371   0.285
46648W        W11875  17.834  28.440   3.889
46649W        W11876   1.834  21.929   3.316
46650W        W11877   7.663  42.237  10.740
46651W        W11878  33.689  15.303   3.550
46652W        W11879  18.954  19.770  13.830
46653W        W11880  13.565  26.646   0.763
46654W        W11881   4.944  33.739  14.540
46655W        W11882  36.990  17.574   0.340
46656W        W11883  40.837  14.207   1.765
46657W        W11884  17.462   2.724   1.122
46658W        W11885   2.286  24.332   4.578
46659W        W11886  39.504  32.063   4.347
46660W        W11887   3.377  23.579  11.049
46661W        W11888  11.203  19.819  12.005
46662W        W11889   7.381   9.274   3.087
46663W        W11890  35.572  17.954   3.529
46664W        W11891  39.816  10.213   2.420
46665W        W11892  12.403  42.357   1.216
46666W        W11893   9.386   9.029   1.411
46667W        W11894  31.598  10.310   3.469
46668W        W11895  19.543   0.596   0.483
46669W        W11896   1.051  24.958   3.264
46670W        W11897  22.147  16.539  10.701
46671W        W11898  37.507   2.157  11.113
46672W        W11899   3.139   8.433  11.200
46673W        W11900   2.925  42.757  13.048
46674W        W11901  37.315  18.386   1.401
46675W        W11902  10.700  24.869   2.868
46676W        W11903  16.396  15.097  14.785
46677W        W11904  40.625  18.219  11.788
46678W        W11905   7.832  14.734   3.780
46679W        W11906  42.182   9.246  14.910
46680W        W11907  19.672  39.909   4.107
46681W        W11908  20.605  43.266  10.912
46682W        W11909  17.378  44.349  12.485
46683W        W11910  16.490  23.560  12.944
46684W        W11911  12.415  10.466  12.934
46685W        W11912   0.093  37.961   0.534
46686W        W11913  14.352  35.988   2.111
46687W        W11914  36.851  29.453   4.070
46688W        W11915  34.729  41.062  12.547
46689W        W11916  10.667   2.926   4.570
46690W        W11917  30.586   3.106  14.801
46691W        W11918  23.158  20.798  12.624
46692W        W11919  33.039   7.539  10.716
46693W        W11920   5.314  25.182   5.187
46694W        W11921  43.200  27.223   9.562
46695W        W11922   1.460  31.005   0.338
46696W        W11923  15.261  15.688  12.984
46697W        W11924  30.520  14.397  13.058
46698W        W11925   7.769  18.735   0.527
46699W        W11926  11.186  30.154   1.454
46700W        W11927  10.205  41.815   4.678
46701W        W11928  14.872  33.680  14.082
46702W        W11929  33.082  19.662  14.541
46703W        W11930  37.885  32.585   3.315
46704W        W11931  39.626  34.883  10.095
46705W        W11932  43.336  25.187   1.596
46706W        W11933  29.692   0.855  14.469
46707W        W11934  29.618  23.622   2.857
46708W        W11935  42.522  34.237   4.341
46709W        W11936  17.597  40.478   1.568
46710W        W11937  30.344  19.990  12.951
46711W        W11938  18.753  10.702   1.212
46712W        W11939  18.252  24.930  12.539
46713W        W11940   9.982  16.404  10.973
46714W        W11941  21.267  27.045  12.973
46715W        W11942  35.811  12.381   2.359
46716W        W11943   5.991   7.604  13.504
46717W        W11944   2.482  41.722   1.539
46718W        W11945  41.502  31.518   3.617
46719W        W11946  12.266  20.474   2.137
46720W        W11947   0.780   6.795   0.950
46721W        W11948   7.155  38.526  14.785
46722W        W11949  15.622   2.202  12.318
46723W        W11950   6.414  10.109  12.553
46724W        W11951  38.562   4.407  12.016
46725W        W11952  42.448   1.144  11.174
46726W        W11953  32.271  18.009  13.341
46727W        W11954  35.079  31.208   2.949
46728W        W11955   6.744   8.712  12.154
46729W        W11956  19.211  42.471  12.862
46730W        W11957  13.593   5.463   3.251
46731W        W11958  17.649  13.629   2.838
46732W        W11959  10.425  41.396  11.575
46733W        W11960  20.783   5.460  13.065
46734W        W11961  35.291  26.697  11.840
46735W        W11962  13.631  38.515  11.067
46736W        W11963  29.455  10.103   0.774
46737W        W11964  21.860  16.646  13.992
46738W        W11965  38.509  41.931  13.795
46739W        W11966  36.974  32.747   4.752
46740W        W11967  11.159  20.662  13.266
46741W        W11968   6.930  14.722   2.971
46742W        W11969   1.528   1.064  11.182
46743W        W11970   6.429  27.542   4.917
46744W        W11971  17.777  22.143   1.744
46745W        W11972  17.370   5.620   2.932
46746W        W11973  23.021  42.164  12.822
46747W        W11974   5.563  12.608   2.364
46748W        W11975  23.829  22.121   4.106
46749W        W11976  38.050  27.931   0.785
46750W        W11977  14.375  33.200   3.174
46751W        W11978  17.098  43.434   3.884
46752W        W11979  37.882   5.342   0.307
46753W        W11980  18.755  37.039  11.108
46754W        W11981   7.797  26.241  12.885
46755W        W11982  42.573  27.999   0.314
46756W        W11983  15.383  14.369   0.847
46757W        W11984  33.047  33.129   3.068
46758W        W11985  22.546  36.999   2.660
46759W        W11986  35.267  32.631   2.203
46760W        W11987  32.340  31.674  12.911
46761W        W11988  44.642   9.338   3.207
46762W        W11989  31.613  16.450  12.956
46763W        W11990  23.068  33.843  10.585
46764W        W11991  15.850  15.086  11.607
46765W        W11992  35.771  29.087   3.836
46766W        W11993  30.815   0.718  12.060
46767W        W11994   2.791  42.725   4.671
46768W        W11995  11.967  27.166   1.186
46769W        W11996  12.700  21.745  11.302
46770W        W11997  36.633  34.547   0.832
46771W        W11998   9.723  24.415   2.245
46772W        W11999  22.872   3.930  12.063
46773W        W12000  25.897  19.127   2.750
46774W        W12001  11.855  43.123  12.305
46775W        W12002  42.442   6.280  12.466
46776W        W12003  43.311  16.908  11.078
46777W        W12004  38.641  13.626  13.267
46778W        W12005  44.936  42.040  13.113
46779W        W12006   6.018  44.981   3.216
46780W        W12007   6.461  20.449  11.243
46781W        W12008  27.115   8.237   3.723
46782W        W12009   0.995  40.037  11.045
46783W        W12010  12.442   7.958  12.574
46784W        W12011   7.887   6.687  12.513
46785W        W12012  43.165   6.856   4.992
46786W        W12013  27.157  26.248  13.467
46787W        W12014   1.361  36.323   1.468
46788W        W12015   1.767   5.769   2.643
46789W        W12016  18.973  16.387  14.421
46790W        W12017  42.160  44.553  13.498
46791W        W12018  37.056  25.583   0.197
46792W        W12019  24.035  31.173   2.948
46793W        W12020  34.663  38.053   3.705
46794W        W12021   8.916  17.070   5.009
46795W        W12022  31.601   2.917   0.588
46796W        W12023  25.512  16.754  13.624
46797W        W12024   2.260  27.605   9.808
46798W        W12025   7.808  32.589  10.689
46799W        W12026  38.835  15.205  12.833
46800W        W12027   1.273  29.577   0.444
46801W        W12028   2.502   8.377  12.372
46802W        W12029  41.758  20.515  14.319
46803W        W12030  19.718  25.633   3.358
46804W        W12031  10.414  11.534  12.945
46805W        W12032   5.845   2.684  14.949
46806W        W12033  37.016  37.363  13.765
46807W        W12034  39.585  44.456  13.376
46808W        W12035  13.341  44.863   1.838
46809W        W12036   9.437  22.216   4.469
46810W        W12037  36.800   6.356   9.967
46811W        W12038  27.450  18.537  10.687
46812W        W12039   7.303  10.811  10.712
46813W        W12040  21.763  18.100   1.151
46814W        W12041   9.456   5.322   3.809
46815W        W12042  36.753  21.752   2.162
46816W        W12043  11.181  41.338   2.106
46817W        W12044  15.686  32.325   3.217
46818W        W12045  24.957  40.329   4.237
46819W        W12046  42.882  16.709   2.734
46820W        W12047  26.913  16.257  12.112
46821W        W12048  40.263  18.763   3.578
46822W        W12049  30.014  10.593   5.069
46823W        W12050  37.023  34.570  12.550
46824W        W12051  44.393  40.695   3.650
46825W        W12052  43.622   6.379   0.936
46826W        W12053  42.555  25.609   4.951
46827W        W12054  33.960  32.543  13.706
46828W        W12055  31.075  11.865   4.516
46829W        W12056  36.729  36.507  10.782
46830W        W12057  36.109  11.880  10.983
46831W        W12058  29.132  34.558  11.193
46832W        W12059   0.307  28.492  11.765
46833W        W12060  36.297  40.609  12.484
46834W        W12061   7.225   2.239   4.445
46835W        W12062  33.143  22.035  12.373
46836W        W12063  30.417  18.386  11.160
46837W        W12064  16.830  16.796  11.967
46838W        W12065  43.879  35.109   1.415
46839W        W12066  33.096  44.314  12.736
46840W        W12067  28.697   1.986   3.952
46841W        W12068  38.021   2.810   0.876
46842W        W12069  43.820  18.187  10.857
46843W        W12070  15.465  18.757   1.738
46844W        W12071  17.081  44.045  14.899
46845W        W12072  29.707  27.198  12.911
46846W        W12073  31.454  16.673  11.630
46847W        W12074   3.286  43.235  14.007
46848W        W12075   5.614   7.843  14.416
46849W        W12076  37.837  38.992  13.715
46850W        W12077  19.898  33.740  12.058
46851W        W12078  30.544  28.730   4.606
46852W        W12079  10.361  14.140   0.592
46853W        W12080  32.680  42.854   2.540
46854W        W12081   6.791   9.381   4.325
46855W        W12082  18.427  43.854  11.952
46856W        W12083  35.183  13.852  14.365
46857W        W12084  33.550  22.889   3.683
46858W        W12085  40.151   7.874   0.240
46859W        W12086  34.337   9.115  14.783
46860W        W12087   6.394  19.635   0.831
46861W        W12088  34.503  25.111  12.179
46862W        W12089  27.447   7.768  14.790
46863W        W12090  27.044  44.939   3.590
46864W        W12091  29.555  15.059  14.493
46865W        W12092  42.758  12.710  10.402
46866W        W12093  23.200  42.898   0.987
46867W        W12094   7.983  25.979  13.303
46868W        W12095   1.816   1.945   0.252
46869W        W12096  23.102  40.773  13.429
46870W        W12097   5.233  36.426  11.394
46871W        W12098  10.402  17.155   3.626
46872W        W12099   7.902  14.557   1.681
46873W        W12100  25.289  14.357  14.336
46874W        W12101  21.763  17.037   1.113
46875W        W12102   2.040  10.704   4.527
46876W        W12103   5.168  39.370  13.076
46877W        W12104  42.763  40.231  11.032
46878W        W12105  43.269  30.487   0.956
46879W        W12106  19.336  10.655  10.679
46880W        W12107   9.849   4.952   2.170
46881W        W12108   0.222  19.619   1.225
46882W        W12109   6.644   2.975  10.621
46883W        W12110   0.306  30.479  14.488
46884W        W12111  37.679  20.131  14.453
46885W        W12112  28.861  11.864   0.765
46886W        W12113  32.523  35.456   0.330
46887W        W12114  36.976   1.079  10.782
46888W        W12115  23.963  17.615   1.150
46889W        W12116  34.015  22.055   4.881
46890W        W12117  28.895  26.552  11.207
46891W        W12118  34.858  19.070  13.917
46892W        W12119   3.028  17.120  11.009
46893W        W12120  32.013   6.339   3.219
46894W        W12121  16.834  12.173   2.649
46895W        W12122  24.602  33.147   1.197
46896W        W12123   2.926   4.701  12.928
46897W        W12124  24.277  14.133  14.181
46898W        W12125  23.163  34.486  14.386
46899W        W12126  27.898   1.217   2.661
46900W        W12127  12.101  27.988  14.725
46901W        W12128   4.905  14.682  12.491
46902W        W12129  33.929   4.620  11.072
46903W        W12130  35.037  26.981   3.591
46904W        W12131   0.758  22.043   2.968
46905W        W12132  25.221  24.238   4.599
46906W        W12133  16.160  30.696  13.415
46907W        W12134  28.544  26.474   4.154
46908W        W12135   6.438   6.861  11.183
46909W        W12136   3.716  29.898   3.836
46910W        W12137  42.962  42.085   3.662
46911W        W12138  22.554  10.612   0.894
46912W        W12139   6.184  32.160   1.763
46913W        W12140   9.036  16.119   0.684
46914W        W12141  18.296  19.840   1.939
46915W        W12142  34.018  18.998  10.746
46916W        W12143   7.128  28.413  12.070
46917W        W12144  41.360  20.351  13.454
46918W        W12145  34.603  33.328   1.777
46919W        W12146  12.568  23.506   3.378
46920W        W12147   0.501  41.954  13.844
46921W        W12148   1.858  15.674   1.168
46922W        W12149   2.703  15.374   1.710
46923W        W12150  25.498  27.185  14.323
46924W        W12151  31.545  26.210  12.626
46925W        W12152   5.549  20.607  13.838
46926W        W12153  37.689  37.955   3.592
46927W        W12154  33.596  23.995  14.165
46928W        W12155  22.555  17.788  13.665
46929W        W12156  19.762  43.307  14.716
46930W        W12157  23.492  15.146   4.062
46931W        W12158   4.819  24.674  13.817
46932W        W12159  13.724  44.729  10.710
46933W        W12160  40.396  28.590  11.949
46934W        W12161  40.545  38.009   0.782
46935W        W12162  43.553  24.726  12.035
46936W        W12163  27.543  19.295   1.260
46937W        W12164  17.426   1.711  12.490
46938W        W12165  39.623  24.291  12.213
46939W        W12166  29.980  28.141  10.514
46940W        W12167  29.256  34.338   0.446
46941W        W12168  31.966  21.189  10.310
46942W        W12169   0.394  30.916   1.803
46943W        W12170   3.919  16.894  10.132
46944W        W12171   5.309  26.409  10.227
46945W        W12172  10.798  42.318   1.101
46946W        W12173  13.697  16.769  13.306
46947W        W12174  21.290   3.315   3.434
46948W        W12175  18.635  23.540  11.526
46949W        W12176  13.228  24.429  12.927
46950W        W12177  41.321   6.394   1.852
46951W        W12178   2.454   1.860  14.531
46952W        W12179  33.352  10.482   4.414
46953W        W12180  14.603  37.919   0.240
46954W        W12181   2.782   4.483  14.193
46955W        W12182  23.485  40.330  12.183
46956W        W12183  29.422  36.606   3.621
46957W        W12184  20.980  37.212   2.687
46958W        W12185   9.130  43.556  11.979
46959W        W12186  30.806  15.349  13.869
46960W        W12187  19.950  27.520  12.934
46961W        W12188  42.827   5.806  10.547
46962W        W12189  43.397  27.686   0.529
46963W        W12190   0.720  34.844   4.915
46964W        W12191  37.721  19.637   2.819
46965W        W12192   0.277  42.823   2.185
46966W        W12193  13.894  39.908   4.166
46967W        W12194  12.374  19.169  13.290
46968W        W12195  22.968  36.789   2.972
46969W        W12196  35.658  34.894  14.485
46970W        W12197  35.342  13.726  11.282
46971W        W12198  43.821  40.331  13.096
46972W        W12199  25.099  39.543   4.572
46973W        W12200  18.837   0.459   1.463
46974W        W12201  15.765  26.530   4.510
46975W        W12202  11.926  17.810   3.341
46976W        W12203  30.538  20.542  13.653
46977W        W12204   4.475  14.809  11.265
46978W        W12205  44.824  42.317   1.778
46979W        W12206  35.664  26.434   4.563
46980W        W12207  10.228  39.450   1.778
46981W        W12208   5.487  40.926  11.569
46982W        W12209   1.707  17.543  13.480
46983W        W12210  20.645  16.524   3.587
46984W        W12211  37.107  16.546   1.244
46985W        W12212  28.612  32.546  10.548
46986W        W12213   3.681  19.155  12.479
46987W        W12214  23.567  25.952  10.954
46988W        W12215  21.508  37.069   0.959
46989W        W12216   4.780  27.702   0.824
46990W        W12217   5.368  11.396   2.799
46991W        W12218  40.356  15.003   0.400
46992W        W12219  28.825  14.111   5.472
46993W        W12220   6.558  27.264  11.693
46994W        W12221  15.356  13.865   1.018
46995W        W12222  25.618  22.286   1.754
46996W        W12223  26.236  39.750   0.317
46997W        W12224  12.622  26.171   3.286
46998W        W12225  26.265  39.239  12.088
46999W        W12226  15.834  13.985  11.595
47000W        W12227  44.304  13.765   1.790
47001W        W12228  26.101  32.388  12.792
47002W        W12229  41.724  12.939  11.115
47003W        W12230   9.316  10.310  14.926
47004W        W12231  41.368   4.371  13.756
47005W        W12232   9.273   3.198   1.379
47006W        W12233  35.481  20.074   3.179
47007W        W12234   5.408  15.278  12.056
47008W        W12235  21.280  22.829   2.653
47009W        W12236  22.537  26.458  11.674
47010W        W12237  26.132  14.306  13.749
47011W        W12238  21.080  11.157  12.230
47012W        W12239  39.066   7.376  10.567
47013W        W12240   8.828   2.448  11.431
47014W        W12241  19.557   5.778  11.738
47015W        W12242  41.475   5.464  10.732
47016W        W12243  13.527  26.081  13.982
47017W        W12244  35.037  24.121  11.230
47018W        W12245  23.154  25.231   1.895
47019W        W12246  29.383  33.081  10.155
47020W        W12247  42.672  37.877  13.923
47021W        W12248  15.682  20.993   9.959
47022W        W12249  15.125  24.089   4.486
47023W        W12250  37.736  21.152  12.079
47024W        W12251  12.614  20.444   2.785
47025W        W12252   4.443  32.000  13.183
47026W        W12253  22.055   7.579   3.652
47027W        W12254  31.649  37.870  11.586
47028W        W12255  15.600   2.670  14.789
47029W        W12256  14.075   2.197   4.268
47030W        W12257  20.665  15.288  12.598
47031W        W12258  36.997  11.150   2.305
47032W        W12259  26.069  31.277   2.854
47033W        W12260  15.571  44.261  13.330
47034W        W12261  37.152  14.291  12.953
47035W        W12262  20.546   5.629   0.269
47036W        W12263  10.722   4.992   3.802
47037W        W12264  32.192  37.780   1.471
47038W        W12265  20.805  41.462  12.070
47039W        W12266  37.336  21.669   2.285
47040W        W12267  36.945  26.065   4.770
47041W        W12268  36.160  41.553   4.533
47042W        W12269  39.853   3.084   1.313
47043W        W12270  29.202  44.862   0.515
47044W        W12271  43.009  27.403  13.433
47045W        W12272  12.622   4.398  11.845
47046W        W12273  21.321   8.145  12.099
47047W        W12274  34.814  14.257  12.642
47048W        W12275   4.439  21.199   0.979
47049W        W12276  29.258  37.151  13.457
47050W        W12277  44.736   2.250   3.112
47051W        W12278  38.539  28.662  13.137
47052W        W12279   0.021  34.101   3.388
47053W        W12280  39.543  12.070  14.937
47054W        W12281  25.654  12.754   0.895
47055W        W12282   9.277  32.433   0.511
47056W        W12283  35.913  31.220  12.625
47057W        W12284  16.075  21.554   3.968
47058W        W12285  34.519  20.049   4.244
47059W        W12286  10.160  26.581   2.408
47060W        W12287  12.643  35.813   0.206
47061W        W12288  43.456  21.295   2.714
47062W        W12289  31.912  28.676  12.305
47063W        W12290  16.701  44.002   3.357
47064W        W12291   7.889   2.211   2.674
47065W        W12292   7.580  30.118  14.938
47066W        W12293  16.636  44.033  12.602
47067W        W12294  39.467  27.400  14.394
47068W        W12295  43.889  17.549   0.899
47069W        W12296  22.471  11.432   4.659
47070W        W12297  30.035  31.329   2.911
47071W        W12298  10.521  25.886   3.678
47072W        W12299   1.424  39.530  11.751
47073W        W12300   2.490  35.961   0.129
47074W        W12301  30.283  34.325  12.800
47075W        W12302   8.769  33.792   3.577
47076W        W12303  31.300  11.988   4.057
47077W        W12304  33.661  40.666  11.566
47078W        W12305   1.334   1.907   3.627
47079W        W12306  19.477  20.244   2.389
47080W        W12307  39.987  26.959   4.027
47081W        W12308  37.524  18.558   4.292
47082W        W12309  31.651  18.011   1.419
47083W        W12310  26.923  29.684   1.404
47084W        W12311  26.848  12.162  14.708
47085W        W12312  22.228  37.080  12.027
47086W        W12313   3.891  20.106  12.170
47087W        W12314  25.346   8.616   2.611
47088W        W12315  26.054  19.949  13.136
47089W        W12316  12.909  29.847   4.975
47090W        W12317  34.424   6.847   2.748
47091W        W12318  20.871  40.853  12.819
47092W        W12319  32.873  16.917  13.353
47093W        W12320  33.615  25.845  12.453
47094W        W12321  16.630  34.335  14.913
47095W        W12322  25.728   3.323   0.670
47096W        W12323   1.051  22.601  11.579
47097W        W12324  16.013  25.134  12.010
47098W        W12325   4.860  33.054   1.230
47099W        W12326  10.290  38.492   4.717
47100W        W12327  38.939   7.943  13.983
47101W        W12328   5.879  37.037  12.546
47102W        W12329  34.804  10.501  13.080
47103W        W12330   1.769  26.967  12.320
47104W        W12331   4.505  34.602   4.993
47105W        W12332  12.791  15.361   2.934
47106W        W12333  10.038  34.781   0.016
47107W        W12334  16.827  17.130  13.394
47108W        W12335  12.812  28.672   3.300
47109W        W12336  30.086   8.746   4.072
47110W        W12337  38.382   3.084  12.171
47111W        W12338  33.187  28.311  10.334
47112W        W12339  23.795   4.378   2.621
47113W        W12340  18.177  20.945   3.732
47114W        W12341   5.808   0.801  12.082
47115W        W12342   9.662  39.884   4.597
47116W        W12343   1.694  27.430   2.727
47117W        W12344   1.920  11.939   1.808
47118W        W12345   3.824  25.060  14.269
47119W        W12346  22.491   9.944  13.397
47120W        W12347   7.955   4.957  11.522
47121W        W12348  24.427  18.982  14.442
47122W        W12349  11.768  41.552  14.814
47123W        W12350  26.620  41.049  14.408
47124W        W12351  24.522   2.990   4.861
47125W        W12352  32.113  36.907   1.204
47126W        W12353   0.189  42.958  10.710
47127W        W12354  41.473  13.080  13.490
47128W        W12355  11.191  23.686   3.342
47129W        W12356  22.303  15.785  14.794
47130W        W12357  19.905  16.196   0.708
47131W        W12358   4.242  38.849  11.514
47132W        W12359  23.935  20.730   0.048
47133W        W12360  23.997   1.278   0.027
47134W        W12361  10.757   1.182  11.553
47135W        W12362  35.298  36.848   1.485
47136W        W12363  42.646  29.240  11.526
47137W        W12364  31.658  40.046  14.907
47138W        W12365   2.574  29.440   4.889
47139W        W12366  43.166  37.398  11.136
47140W        W12367  31.656  12.179  11.650
47141W        W12368   9.874  10.293  14.538
47142W        W12369  37.420  43.236  14.361
47143W        W12370  41.585  20.416   3.675
47144W        W12371  17.807  16.298  11.881
47145W        W12372  13.444  22.743   0.914
47146W        W12373  31.073   2.898  14.952
47147W        W12374   5.671   4.296  11.663
47148W        W12375  34.728  28.793  10.761
47149W        W12376   9.619   9.699   3.149
47150W        W12377  25.628  17.740   1.282
47151W        W12378  17.638  14.859   2.338
47152W        W12379  11.919  27.712  13.013
47153W        W12380  12.732  37.448  13.928
47154W        W12381  42.362  23.030  11.839
47155W        W12382  36.581  12.943   3.103
47156W        W12383   1.670  39.343   1.250
47157W        W12384  44.335  25.037  11.047
47158W        W12385  25.998  15.651  13.204
47159W        W12386   8.971  41.077  12.938
47160W        W12387  17.125   3.829   2.942
47161W        W12388  26.725  42.280  13.151
47162W        W12389  24.686   2.737   1.360
47163W        W12390  36.867  13.856   0.754
47164W        W12391  44.986  28.758   2.202
47165W        W12392  23.075  39.717   2.117
47166W        W12393  43.299  40.592  14.336
47167W        W12394   0.409  24.391   0.749
47168W        W12395  26.554  25.046   4.085
47169W        W12396   7.447   0.049  12.442
47170W        W12397  20.899   0.481  12.355
47171W        W12398   7.347  39.314   0.306
47172W        W12399   5.158   5.791  11.661
47173W        W12400  28.817  13.840  11.509
47174W        W12401   9.826  32.172   0.062
47175W        W12402   7.204  42.047   2.269
47176W        W12403  37.516  34.965   2.898
47177W        W12404  41.803  10.171   3.749
47178W        W12405  20.586  18.897   3.221
47179W        W12406   5.432  43.145   1.804
47180W        W12407  29.634  44.851   4.487
47181W        W12408  36.981  36.036   1.677
47182W        W12409  20.486  29.132  12.131
47183W        W12410  28.389  25.423   2.399
47184W        W12411  39.353  26.896  13.529
47185W        W12412   4.274  36.532  13.547
47186W        W12413  32.847   9.595  11.866
47187W        W12414  39.138  25.204  14.848
47188W        W12415  14.696  18.149   4.039
47189W        W12416  41.482  37.603  11.975
47190W        W12417   7.386  20.050  14.084
47191W        W12418  14.664  12.880  11.592
47192W        W12419   6.928  38.873  12.098
47193W        W12420  19.605   5.019  11.048
47194W        W12421  18.200  20.765  12.998
47195W        W12422   5.791  22.751   3.380
47196W        W12423  18.014  15.631  11.164
47197W        W12424  30.142   8.577   2.816
47198W        W12425  35.323  11.218   3.779
47199W        W12426  23.748  19.489   4.124
47200W        W12427  14.136  11.715   4.117
47201W        W12428  27.027  17.283  12.041
47202W        W12429  26.030  33.891  14.762
47203W        W12430  24.908  44.613  13.250
47204W        W12431  15.821   9.314   3.755
47205W        W12432  32.895   5.799  13.514
47206W        W12433   6.729   7.727   2.325
47207W        W12434  27.893   7.541   4.134
47208W        W12435   1.702   0.306  11.221
47209W        W12436  35.970  33.229   1.699
47210W        W12437  36.280  30.050   2.378
47211W        W12438   5.372   0.883  13.261
47212W        W12439   9.191  16.979  11.660
47213W        W12440   5.158  34.457   2.938
47214W        W12441  42.212   5.106   1.529
47215W        W12442  28.573  15.070  10.795
47216W        W12443  21.256   5.343  11.888
47217W        W12444  30.427   0.268   3.317
47218W        W12445   7.787   9.827   3.537
47219W        W12446  34.657  11.377   0.385
47220W        W12447   7.352  11.215  14.502
47221W        W12448  38.484  29.887   0.204
47222W        W12449  10.119  27.667   4.630
47223W        W12450  21.009  14.457  14.135
47224W        W12451   3.249  38.007   4.843
47225W        W12452  13.289  25.131  10.793
47226W        W12453  17.753  39.440  12.956
47227W        W12454  14.540  12.224   1.292
47228W        W12455   1.091  34.587   1.296
47229W        W12456  12.308  34.867   1.819
47230W        W12457   1.879  26.549   0.606
47231W        W12458  40.811  19.308  10.690
47232W        W12459  13.018  15.261  12.154
47233W        W12460  27.387  34.406  13.871
47234W        W12461  38.449  34.290   4.056
47235W        W12462  13.599  41.097  12.580
47236W        W12463   1.988  26.830   3.467
47237W        W12464  20.152  24.451  11.027
47238W        W12465   9.357  32.227  13.940
47239W        W12466  42.760  17.632   1.758
47240W        W12467   5.808  15.336  10.940
47241W        W12468   4.219  16.737   1.350
47242W        W12469  32.937   7.951   2.121
47243W        W12470  32.144   6.935  10.774
47244W        W12471  13.627  24.676   2.928
47245W        W12472   7.770  23.987   0.527
47246W        W12473  10.861  40.310  14.037
47247W        W12474  44.797   2.814  14.293
47248W        W12475  42.261  42.836  13.512
47249W        W12476  31.385  37.917   3.591
47250W        W12477   2.278  36.531  11.102
47251W        W12478  44.948  11.143  11.522
47252W        W12479  31.758  26.575  14.393
47253W        W12480   6.355  31.194   1.411
47254W        W12481  23.466  33.031  11.452
47255W        W12482  14.627  24.324   1.853
47256W        W12483   5.792  39.300   2.089
47257W        W12484   8.106   6.559   1.917
47258W        W12485  39.775  33.428  12.521
47259W        W12486  35.100  24.646  13.030
47260W        W12487   5.387  12.136  13.135
47261W        W12488   2.750  18.333   2.697
47262W        W12489  25.996   4.049   0.241
47263W        W12490  31.025  23.783   2.947
47264W        W12491   8.916  37.503   2.369
47265W        W12492  43.982  40.576  11.041
47266W        W12493  17.788  40.993  13.403
47267W        W12494  17.798   6.070  11.087
47268W        W12495  16.170  20.210   1.869
47269W        W12496  31.031   5.649  12.952
47270W        W12497  10.108  44.357  14.712
47271W        W12498  42.492  30.019   0.964
47272W        W12499  27.612   0.427   3.908
47273W        W12500  44.443  35.448  10.678
47274W        W12501  30.555  24.686   4.980
47275W        W12502  36.661  44.341   9.893
47276W        W12503  30.715  16.285   3.720
47277W        W12504  26.482  39.561   3.198
47278W        W12505  15.231  33.452   2.775
47279W        W12506  40.372  38.584  13.065
47280W        W12507  30.962   2.757  10.724
47281W        W12508  11.522  37.975  14.029
47282W        W12509  14.714   8.194   3.183
47283W        W12510  12.050  21.791  11.778
47284W        W12511   1.076  43.226  12.592
47285W        W12512   5.163   5.669  14.311
47286W        W12513  27.795   8.240  11.486
47287W        W12514  43.248   6.627   1.660
47288W        W12515   7.272   0.085   5.002
47289W        W12516  27.036   6.349   0.244
47290W        W12517  14.008  41.035  14.340
47291W        W12518  18.564  35.796   3.352
47292W        W12519  17.067   0.625  12.987
47293W        W12520  37.887  18.995  10.710
47294W        W12521  25.749  26.773  13.600
47295W        W12522  37.909  30.456   1.685
47296W        W12523  31.919  13.629   0.246
47297W        W12524  35.328   8.570   4.343
47298W        W12525  21.251   3.208   1.508
47299W        W12526  25.040  21.278   0.089
47300W        W12527   9.248   8.227  12.928
47301W        W12528   5.648   2.451   0.480
47302W        W12529  25.251  20.823   4.173
47303W        W12530  44.545  39.508  13.820
47304W        W12531  23.103  19.846   0.242
47305W        W12532  17.303   6.386   4.254
47306W        W12533  12.962  16.141   3.568
47307W        W12534  16.619   9.321   1.376
47308W        W12535  14.983   3.759   1.268
47309W        W12536  36.036  23.316   4.144
47310W        W12537  28.752  31.500  14.535
47311W        W12538   6.435  21.222   3.128
47312W        W12539  42.688  18.119  12.952
47313W        W12540  43.577  41.233   3.497
47314W        W12541  29.018   5.601   2.768
47315W        W12542  15.854  36.326   4.649
47316W        W12543   4.685  16.836  11.066
47317W        W12544  27.114  43.708   1.274
47318W        W12545  22.589  23.713  12.374
47319W        W12546   3.385  21.194  14.495
47320W        W12547  25.242  17.116   4.408
47321W        W12548  27.763   5.570   0.476
47322W        W12549   4.501  34.590   1.049
47323W        W12550   9.351  10.793   0.161
47324W        W12551  35.567   8.108   4.323
47325W        W12552   0.424  15.978   9.649
47326W        W12553  30.596  28.447  13.103
47327W        W12554  16.558  15.557   4.667
47328W        W12555  13.626   4.025   2.211
47329W        W12556  41.065  22.191   1.497
47330W        W12557  33.926   6.244   3.319
47331W        W12558  38.372  40.175  14.819
47332W        W12559   9.289  35.701   1.630
47333W        W12560  14.091  10.626   4.050
47334W        W12561   6.438   9.746   4.512
47335W        W12562  13.680  34.333   3.698
47336W        W12563  32.903  38.614   2.875
47337W        W12564  23.281  19.267   4.045
47338W        W12565  17.886  15.127   0.292
47339W        W12566  24.015  28.890  12.695
47340W        W12567   8.768   5.362  14.307
47341W        W12568  12.889  19.052   3.188
47342W        W12569  31.564  16.176   2.339
47343W        W12570  42.475  31.874  12.853
47344W        W12571  13.347  32.356  14.982
47345W        W12572  37.212   3.265   4.040
47346W        W12573   1.165  44.836   1.915
47347W        W12574  14.352  15.557  10.330
47348W        W12575  16.202  19.021   2.864
47349W        W12576  36.375  36.424  12.027
47350W        W12577  29.427  20.233   1.839
47351W        W12578   8.819  28.862  14.250
47352W        W12579  34.568  34.318  11.670
47353W        W12580  19.162  40.905  13.975
47354W        W12581   2.244   0.790   2.619
47355W        W12582  30.571  15.387   0.494
47356W        W12583  11.282  15.912   0.379
47357W        W12584  14.848  17.869   1.742
47358W        W12585  17.536  32.528   1.960
47359W        W12586  22.912  14.605  12.633
47360W        W12587  10.286  14.647   2.465
47361W        W12588  43.594  34.610  11.214
47362W        W12589   0.553  22.867   9.730
47363W        W12590   5.707  20.249   0.985
47364W        W12591  36.299  39.896  13.168
47365W        W12592  14.282  28.410   0.822
47366W        W12593  21.666  44.377  11.956
47367W        W12594  13.044  15.893  14.343
47368W        W12595  17.889  10.171  10.707
47369W        W12596  18.452  21.072   1.298
47370W        W12597  30.812   6.428  11.652
47371W        W12598  22.874  44.518  11.075
47372W        W12599  16.715  14.241   3.114
47373W        W12600  42.700  41.965  11.635
47374W        W12601  24.289  11.243  12.515
47375W        W12602   5.475  11.344  10.996
47376W        W12603   0.246   9.741   3.913
47377W        W12604  35.993  15.664  13.908
47378W        W12605  36.368  44.845   1.020
47379W        W12606   0.273  12.823   2.423
47380W        W12607  24.319  28.994  13.661
47381W        W12608   7.736  28.045   1.337
47382W        W12609   3.534  44.849   2.322
47383W        W12610  13.061  43.455   3.697
47384W        W12611  18.790  11.151   3.693
47385W        W12612  42.888   3.308   1.690
47386W        W12613  18.446  32.052  12.496
47387W        W12614  10.686   4.839   0.004
47388W        W12615  21.188  25.456   1.373
47389W        W12616  29.963  41.803   0.886
47390W        W12617  32.826   5.486  14.457
47391W        W12618  27.397  12.117   3.714
47392W        W12619   4.720   9.226   1.935
47393W        W12620   7.770  16.224   2.185
47394W        W12621  32.223   1.290   0.558
47395W        W12622  24.186   5.977  13.933
47396W        W12623  33.171  36.854   3.431
47397W        W12624   6.320  23.653  10.965
47398W        W12625  15.502  11.399  11.398
47399W        W12626  26.708  25.265   0.852
47400W        W12627  25.899  41.509  13.966
47401W        W12628  26.043   0.512  13.948
47402W        W12629  14.942  10.578  11.185
47403W        W12630  26.647  42.083   1.472
47404W        W12631   5.263  43.697   0.397
47405W        W12632  21.063  22.189  12.959
47406W        W12633  29.971  27.907  14.892
47407W        W12634   7.342  23.114   4.088
47408W        W12635  20.513  40.796   4.291
47409W        W12636   7.597  21.374   4.230
47410W        W12637  18.880   7.383  14.933
47411W        W12638  16.617   7.064   0.405
47412W        W12639   7.403  20.460  11.166
47413W        W12640  39.266  22.619   4.842
47414W        W12641  17.171  36.560   3.783
47415W        W12642  22.605  28.126  13.405
47416W        W12643  44.174  43.011  13.607
47417W        W12644  35.548  25.713  13.717
47418W        W12645  10.259  39.652   4.030
47419W        W12646  40.976  21.816  13.081
47420W        W12647   7.530  41.590   5.020
47421W        W12648  33.360  39.542   1.803
47422W        W12649   6.415   4.610   3.750
47423W        W12650   9.662   0.495  13.002
47424W        W12651  13.815  42.251   2.007
47425W        W12652  25.484  43.227  12.858
47426W        W12653  35.450  17.188  14.240
47427W        W12654   9.950  36.244   1.810
47428W        W12655  34.497  30.560  12.073
47429W        W12656  11.449  41.478   4.029
47430W        W12657   9.435   0.214   3.203
47431W        W12658  11.604  18.166   2.687
47432W        W12659  30.331  32.009   0.058
47433W        W12660  24.184  16.033   3.697
47434W        W12661   9.650  33.442  13.953
47435W        W12662   8.855  16.186  10.407
47436W        W12663   8.719  13.914   0.696
47437W        W12664  36.544  25.953  11.213
47438W        W12665  27.595   4.895  14.463
47439W        W12666  35.883  18.294  13.528
47440W        W12667  41.777  32.355  14.361
47441W        W12668   3.633   6.930   1.677
47442W        W12669  12.111  16.232   4.422
47443W        W12670  23.498  15.370  11.755
47444W        W12671   7.468  28.962   4.740
47445W        W12672  28.591  30.175   0.412
47446W        W12673  25.329  38.850  11.943
47447W        W12674  38.102  39.923  14.454
47448W        W12675   5.950  14.187  10.327
47449W        W12676  31.385  40.256  13.318
47450W        W12677  26.579  32.482  11.040
47451W        W12678  31.101  15.477   3.677
47452W        W12679   4.597  26.671   3.236
47453W        W12680  21.259  40.548  11.513
47454W        W12681   5.055  22.216  10.636
47455W        W12682   2.777   9.104  10.551
47456W        W12683  25.160  11.638   1.549
47457W        W12684  18.280  16.248  10.747
47458W        W12685  44.238  43.804  14.804
47459W        W12686  39.153  35.497   4.926
47460W        W12687  11.401  22.424  12.387
47461W        W12688  23.671   8.898  11.683
47462W        W12689   6.237  31.540  14.595
47463W        W12690  29.096  36.892   1.344
47464W        W12691  35.059   7.612  14.472
47465W        W12692  13.599  29.128   3.928
47466W        W12693  39.258  13.054  13.340
47467W        W12694  35.141  14.546   3.168
47468W        W12695  21.762  23.307  12.739
47469W        W12696  11.301   9.380  12.077
47470W        W12697  22.983  26.517  14.052
47471W        W12698  18.667  15.955   9.901
47472W        W12699   3.637   3.346  11.590
47473W        W12700  41.494   3.967  14.056
47474W        W12701  28.092   4.460   4.509
47475W        W12702  15.840   8.758   4.830
47476W        W12703  12.340  31.169   2.855
47477W        W12704  17.653  20.161   0.944
47478W        W12705  21.529  13.316  14.828
47479W        W12706  20.470  31.512  13.883
47480W        W12707  42.560  33.037   4.096
47481W        W12708  21.959  30.459   0.212
47482W        W12709  35.541  25.988  12.324
47483W        W12710  31.873  39.145   4.959
47484W        W12711  12.196   0.819  13.848
47485W        W12712  18.324  30.164  13.607
47486W        W12713  32.125  16.010   0.528
47487W        W12714  11.147  19.624   4.852
47488W        W12715  27.397  23.518  13.399
47489W        W12716  35.323  36.357   1.350
47490W        W12717  39.749  34.871   1.715
47491W        W12718   9.155  43.280  12.435
47492W        W12719   5.542  24.101  13.829
47493W        W12720  40.776  21.560  13.524
47494W        W12721  16.367  23.128   0.752
47495W        W12722  35.157  11.792   3.855
47496W        W12723   5.205  43.874  10.731
47497W        W12724  19.145  37.672  14.874
47498W        W12725  12.243  35.366  10.308
47499W        W12726  44.387  10.812  11.980
47500W        W12727  12.934  34.542   0.057
47501W        W12728  13.780  24.960  10.799
47502W        W12729  27.704  30.037  11.113
47503W        W12730  34.463  17.897   0.466
47504W        W12731  44.953  44.699  12.233
47505W        W12732   3.739   4.912  11.554
47506W        W12733  24.082  44.182  12.009
47507W        W12734  38.294  44.153   0.357
47508W        W12735  27.067  30.938  12.085
47509W        W12736  13.131  35.557   3.733
47510W        W12737  42.786   8.677  13.456
47511W        W12738   4.324  31.033   1.638
47512W        W12739  18.198   6.263   3.742
47513W        W12740  26.943   9.662  14.825
47514W        W12741  29.057  10.777  12.370
47515W        W12742  27.708   7.299   3.181
47516W        W12743  34.518  22.664   3.786
47517W        W12744  42.223  38.555   0.126
47518W        W12745  31.590  20.016   3.090
47519W        W12746  17.739  13.118  13.991
47520W        W12747  28.686  13.031  13.066
47521W        W12748  22.255  39.058  10.392
47522W        W12749  23.644  31.934  10.995
47523W        W12750  35.444  35.473  13.463
47524W        W12751   3.985   2.832  13.299
47525W        W12752   3.982  17.237  13.539
47526W        W12753  36.815  43.117   0.701
47527W        W12754  37.092  32.012  10.762
47528W        W12755   4.487   1.441  12.358
47529W        W12756   4.944   4.837  11.661
47530W        W12757  13.964  21.009   4.452
47531W        W12758  27.217  32.073   0.732
47532W        W12759   5.418   8.331   2.345
47533W        W12760  33.873   2.542   3.924
47534W        W12761  15.254  29.385   1.724
47535W        W12762  36.607  12.569   2.775
47536W        W12763  28.826  13.834   3.769
47537W        W12764  17.742   7.592   3.602
47538W        W12765   9.709  29.575   3.095
47539W        W12766   2.912  13.525  14.503
47540W        W12767  28.926  21.764  13.510
47541W        W12768  27.159  28.167   4.615
47542W        W12769  38.464  22.260  10.713
47543W        W12770  43.874  39.933   0.965
47544W        W12771   4.378  38.184   0.722
47545W        W12772  41.741  17.538  14.904
47546W        W12773   9.367  29.999  10.776
47547W        W12774  23.643  31.111  14.358
47548W        W12775  20.365  43.177  14.518
47549W        W12776  25.188   3.010   2.760
47550W        W12777  27.693  21.379   0.471
47551W        W12778  25.045   3.321   1.210
47552W        W12779   5.731   9.796   0.968
47553W        W12780  37.710  11.373  10.226
47554W        W12781  10.410  14.622  12.523
47555W        W12782  14.608  11.350  14.590
47556W        W12783  37.605  12.846  10.872
47557W        W12784  20.527  13.271   3.190
47558W        W12785  27.199   2.138   1.511
47559W        W12786  41.983   1.298  13.915
47560W        W12787  33.341  30.291   4.817
47561W        W12788  17.171  23.058   3.114
47562W        W12789   0.304   2.721  13.479
47563W        W12790  29.634   3.419  14.075
47564W        W12791  17.890  14.109   0.288
47565W        W12792  42.505  20.713   2.409
47566W        W12793  27.157  29.721  13.659
47567W        W12794   3.309  22.944   3.183
47568W        W12795  40.224  17.149  12.941
47569W        W12796  17.013  21.492  14.799
47570W        W12797  29.178   7.097  14.268
47571W        W12798   1.516   2.213   3.243
47572W        W12799  37.058  36.326   0.716
47573W        W12800  10.243  16.603  12.036
47574W        W12801   2.011  25.681   9.706
47575W        W12802  28.645  26.235  12.894
47576W        W12803  38.516   3.353   4.005
47577W        W12804  39.381  14.792  11.808
47578W        W12805  13.016  25.154  10.359
47579W        W12806  29.330   3.174   4.481
47580W        W12807   6.365   6.803   1.361
47581W        W12808   6.784  41.784  13.492
47582W        W12809  10.369  36.159  14.975
47583W        W12810  12.323  19.170   4.526
47584W        W12811   4.643   1.142  12.765
47585W        W12812  21.600  21.209  14.992
47586W        W12813   4.638   6.008   0.150
47587W        W12814   6.368  34.170  10.663
47588W        W12815  18.792  23.607   4.831
47589W        W12816  17.976  38.825   1.394
47590W        W12817  18.263  15.049  14.934
47591W        W12818  19.497  13.249  14.828
47592W        W12819   3.188  34.597   2.107
47593W        W12820  21.236   9.865  12.448
47594W        W12821  12.780  34.378   1.870
47595W        W12822  32.586   2.830  12.362
47596W        W12823  29.607   6.622   4.655
47597W        W12824  27.169  29.076  12.579
47598W        W12825   9.834  22.094   2.952
47599W        W12826   5.871   1.950   2.315
47600W        W12827  31.012  34.959   1.751
47601W        W12828  34.494  21.929  14.460
47602W        W12829  12.708  31.427  13.567
47603W        W12830  41.325  32.193  14.004
47604W        W12831  30.139  11.463  14.723
47605W        W12832  23.028  39.537  14.359
47606W        W12833  25.954  34.512  11.640
47607W        W12834  34.489  31.366  12.508
47608W        W12835   5.411  14.331   1.450
47609W        W12836  43.549   6.517   4.997
47610W        W12837   7.388  30.071   4.765
47611W        W12838  30.677  25.493   4.075
47612W        W12839  22.246   6.530  11.550
47613W        W12840  44.802  24.747   4.726
47614W        W12841  24.957  14.476   4.591
47615W        W12842  40.581  27.079   3.276
47616W        W12843  33.884  18.783  11.221
47617W        W12844   7.852   8.793  13.137
47618W        W12845  13.283  10.996  11.082
47619W        W12846  35.482  34.029   4.820
47620W        W12847  16.929   0.680  12.098
47621W        W12848  23.017  42.424   0.856
47622W        W12849  42.149   9.800  10.667
47623W        W12850  31.165   0.237   2.599
47624W        W12851  27.885  13.809  11.763
47625W        W12852   2.593  43.214   4.159
47626W        W12853  13.685  13.002  12.339
47627W        W12854  35.168  15.175   2.875
47628W        W12855  44.288   3.930  11.562
47629W        W12856  25.671  36.427  14.795
47630W        W12857  13.620  33.081  12.602
47631W        W12858  42.256  15.587  14.787
47632W        W12859  34.275  26.421   4.922
47633W        W12860  26.149  32.612   3.055
47634W        W12861  26.215  41.601   0.735
47635W        W12862  31.337   5.277  13.138
47636W        W12863   9.662   2.268   3.172
47637W        W12864  11.676  39.953   3.516
47638W        W12865  14.189  21.449   1.041
47639W        W12866   5.461   6.929   1.012
47640W        W12867   2.195   0.490   1.127
47641W        W12868  14.737   8.461   1.870
47642W        W12869  36.063  44.799   3.296
47643W        W12870  23.245   1.837   2.888
47644W        W12871   3.220  34.543  13.745
47645W        W12872  35.575  33.597   3.815
47646W        W12873  37.403   5.161   3.075
47647W        W12874  43.440  13.431  13.839
47648W        W12875   9.742   3.886  13.620
47649W        W12876   3.060  36.411   1.883
47650W        W12877  10.312  23.662   3.261
47651W        W12878  16.159  31.852   0.484
47652W        W12879   7.883  33.650  10.535
47653W        W12880  12.164   4.911  13.859
47654W        W12881  42.025   6.539  11.283
47655W        W12882   4.517  35.077   1.261
47656W        W12883  26.120   4.122   4.402
47657W        W12884  33.662   2.369   1.786
47658W        W12885   7.001  32.110  10.836
47659W        W12886  33.206  20.768  14.592
47660W        W12887  37.670   0.988   4.232
47661W        W12888  12.891  25.055  14.174
47662W        W12889  34.343  20.559   1.685
47663W        W12890  35.086  12.200  13.072
47664W        W12891  37.470  32.870   0.868
47665W        W12892  25.209  39.044  12.727
47666W        W12893  34.926  43.855  13.835
47667W        W12894  35.377  33.005   0.317
47668W        W12895  44.314  29.652  12.396
47669W        W12896   0.297   6.991   0.978
47670W        W12897  14.315  27.729  12.423
47671W        W12898  12.544  26.043   2.117
47672W        W12899  42.062  29.868  11.557
47673W        W12900  19.913  30.422  12.095
47674W        W12901   2.489  20.977  14.588
47675W        W12902  34.454   7.100   0.153
47676W        W12903  35.791   5.117  10.276
47677W        W12904  15.165  12.657   3.410
47678W        W12905  38.762   0.496  12.093
47679W        W12906  26.458  12.035   0.049
47680W        W12907  35.080   6.674  12.015
47681W        W12908  44.749  17.687  14.825
47682W        W12909  31.138   4.348   2.770
47683W        W12910  28.931  20.107  12.943
47684W        W12911   5.828  31.419  11.867
47685W        W12912  11.542  25.198  14.345
47686W        W12913  44.252  24.697   2.687
47687W        W12914   3.755  41.752  14.900
47688W        W12915   2.876   5.450   0.941
47689W        W12916   3.271  13.611  13.277
47690W        W12917  42.498  38.811  14.769
47691W        W12918  29.501  30.627  11.151
47692W        W12919  26.569  17.771  14.881
47693W        W12920  23.562   3.401  13.185
47694W        W12921   5.499  44.519  11.089
47695W        W12922  18.558  17.296  10.345
47696W        W12923  43.740   2.789  13.107
47697W        W12924  41.837  23.633   3.256
47698W        W12925  36.488  18.822  11.677
47699W        W12926  17.801  11.222  12.031
47700W        W12927  35.660   8.320  12.005
47701W        W12928  24.604  38.093   3.602
47702W        W12929   1.740  40.456   3.789
47703W        W12930  41.056  20.700  14.826
47704W        W12931  43.956   1.284  11.731
47705W        W12932   7.827  18.420  10.194
47706W        W12933   1.525  27.609  13.433
47707W        W12934  20.795   6.227  14.403
47708W        W12935   2.838  42.550  12.532
47709W        W12936   4.952  36.344   1.849
47710W        W12937  39.995  28.440   1.291
47711W        W12938   2.789  38.065  11.876
47712W        W12939  20.176   4.392  12.679
47713W        W12940  12.276  25.002  13.388
47714W        W12941  13.664   0.301   1.904
47715W        W12942   4.738  38.884   4.214
47716W        W12943   2.711  14.073   4.075
47717W        W12944  17.829  15.736   4.180
47718W        W12945  30.255  37.944   0.721
47719W        W12946   4.353  35.177  13.638
47720W        W12947  44.821  20.854  12.574
47721W        W12948  27.572  11.342  12.339
47722W        W12949  43.468  16.516   1.964
47723W        W12950   0.273  12.492  12.006
47724W        W12951  24.877  20.615   4.458
47725W        W12952  30.024  37.605  12.199
47726W        W12953  29.532  26.705  14.024
47727W        W12954  43.390  28.353   5.260
47728W        W12955  22.018  28.696  10.653
47729W        W12956  19.813   5.917  14.540
47730W        W12957  41.016  16.730  14.768
47731W        W12958  15.653  12.406  11.627
47732W        W12959   7.246  10.822   1.379
47733W        W12960  30.237  24.857   9.875
47734W        W12961  28.858   3.421  14.472
47735W        W12962   1.868  19.312   0.385
47736W        W12963  37.438  25.477  14.235
47737W        W12964   7.960   5.950  13.018
47738W        W12965   3.800  38.997   0.075
47739W        W12966   5.444  21.532   4.576
47740W        W12967  29.042  14.730  13.680
47741W        W12968  13.143  21.015  12.062
47742W        W12969   3.148   0.617   5.275
47743W        W12970  30.150   8.571  14.738
47744W        W12971  28.617  10.909  14.060
47745W        W12972  44.980   6.469   2.824
47746W        W12973  44.496  34.317  14.539
47747W        W12974  31.075   8.109   2.794
47748W        W12975  44.468  31.710   0.937
47749W        W12976   3.393   2.352   1.959
47750W        W12977  13.590  31.991  10.000
47751W        W12978  18.048  30.389  13.029
47752W        W12979  26.097   0.454   3.704
47753W        W12980  17.642   2.515  12.092
47754W        W12981   6.007  17.339  10.738
47755W        W12982  13.410  21.762  14.412
47756W        W12983  40.426   0.865   1.259
47757W        W12984  27.134  15.204   1.781
47758W        W12985  40.989  33.982  12.516
47759W        W12986  20.628  28.772   2.699
47760W        W12987  35.722  29.914  12.054
47761W        W12988  41.797  26.595  12.114
47762W        W12989  44.223  33.543   4.194
47763W        W12990  36.054   3.447  12.694
47764W        W12991  42.507  17.174  11.614
47765W        W12992   9.727  33.914  14.933
47766W        W12993  37.350  17.626  14.730
47767W        W12994  38.496  38.557  12.667
47768W        W12995  35.995  24.344  11.981
47769W        W12996  40.551  12.780  12.386
47770W        W12997  32.918  25.971   4.769
47771W        W12998  34.867   0.216   4.696
47772W        W12999   6.154   9.207  11.960
47773W        W13000  12.123  40.004   0.397
47774W        W13001  34.446  26.645  12.031
47775W        W13002   6.076  16.795  13.388
47776W        W13003  19.952  28.021   4.535
47777W        W13004  12.348  44.415   4.245
47778W        W13005  27.921  25.357   3.289
47779W        W13006  36.270  13.665  11.921
47780W        W13007   0.704  36.462  13.953
47781W        W13008  20.961   2.725   2.952
47782W        W13009  21.159  21.187  12.950
47783W        W13010  43.973  15.148   4.182
47784W        W13011  28.999  23.972   1.257
47785W        W13012  41.737   0.351  13.620
47786W        W13013  44.913  26.536  12.109
47787W        W13014  31.703   1.259   0.454
47788W        W13015  34.614  29.047   2.315
47789W        W13016  27.858  20.666   3.673
47790W        W13017   2.314   4.815   3.883
47791W        W13018   8.817   2.227  12.943
47792W        W13019  36.075  38.481  12.421
47793W        W13020  28.060  41.689   0.845
47794W        W13021  20.154  24.675  11.504
47795W        W13022  19.249  36.914  11.131
47796W        W13023  25.838  42.757  14.695
47797W        W13024  13.756  43.509   0.875
47798W        W13025   9.755  34.065   2.606
47799W        W13026  11.294  21.396  11.248
47800W        W13027  42.017  34.878   2.076
47801W        W13028  17.404  42.440  14.052
47802W        W13029  31.205  44.453   2.277
47803W        W13030  28.659  27.922  12.510
47804W        W13031  32.739  28.098  11.166
47805W        W13032  39.338   7.307   0.347
47806W        W13033  26.027  24.667  13.446
47807W        W13034  43.258  21.303   1.230
47808W        W13035  10.031  36.144   0.947
47809W        W13036  42.365  13.971  13.056
47810W        W13037   3.198  38.688   4.455
47811W        W13038   9.478  14.280   1.019
47812W        W13039   2.484  41.431   4.539
47813W        W13040  28.474  29.788  13.121
47814W        W13041  34.682   9.794  13.521
47815W        W13042  29.905  35.923   4.367
47816W        W13043  31.137  31.092  14.250
47817W        W13044  10.338   7.746  13.297
47818W        W13045  32.907  22.699   1.467
47819W        W13046  35.898   2.501  12.449
47820W        W13047  17.088   8.415  13.837
47821W        W13048   6.420  30.184  10.763
47822W        W13049   0.567   8.951  13.377
47823W        W13050   3.528  15.706   0.246
47824W        W13051  41.547  25.566   1.213
47825W        W13052  16.090  19.957   3.304
47826W        W13053  37.497   1.754   0.229
47827W        W13054  30.625   6.216  13.886
47828W        W13055  30.974  23.924  10.378
47829W        W13056  30.898  23.785   0.305
47830W        W13057  26.089  11.781  10.797
47831W        W13058  12.322  22.987   1.943
47832W        W13059   9.563  27.198  14.698
47833W        W13060   7.355  17.559  14.451
47834W        W13061  29.929  17.752   3.186
47835W        W13062   5.256  16.520   0.924
47836W        W13063  10.236  37.286   1.673
47837W        W13064  42.586  15.353   3.701
47838W        W13065  34.547  28.172   1.861
47839W        W13066  24.603   4.301   1.922
47840W        W13067   4.176  13.429  13.501
47841W        W13068  27.355  18.122  13.110
47842W        W13069  33.241   4.876   4.100
47843W        W13070  10.747  42.899   3.365
47844W        W13071  26.411  22.653   0.573
47845W        W13072  43.501  32.259  12.640
47846W        W13073  15.186  15.069  11.194
47847W        W13074   6.784   0.491   4.102
47848W        W13075  37.438  18.798   3.680
47849W        W13076  15.970  25.111   2.282
47850W        W13077  37.535  11.195   0.735
47851W        W13078  25.919  17.874   3.423
47852W        W13079  11.614  14.196  11.467
47853W        W13080   0.034  13.265   2.238
47854W        W13081  34.559   6.281  14.486
47855W        W13082  13.783  13.458  14.430
47856W        W13083  31.081  25.450   0.986
47857W        W13084  29.443  23.084  13.779
47858W        W13085   9.135  21.041  10.778
47859W        W13086  40.882  13.011   4.585
47860W        W13087  23.452  19.898  14.864
47861W        W13088  40.574  43.784   4.575
47862W        W13089  29.356   6.344  13.932
47863W        W13090  26.649   6.384  11.555
47864W        W13091  29.899   2.149  11.537
47865W        W13092  40.400  16.569   4.286
47866W        W13093   0.480  43.501   0.859
47867W        W13094  42.296  37.584  14.597
47868W        W13095  29.863   9.275  10.724
47869W        W13096   1.757   2.338  10.436
47870W        W13097  40.052  22.721   3.712
47871W        W13098  40.542  16.632   1.835
47872W        W13099  44.460  39.555  11.966
47873W        W13100  24.367  29.508  14.784
47874W        W13101   0.130  15.997   2.687
47875W        W13102  12.106  37.674   3.537
47876W        W13103  13.010  42.428   0.468
47877W        W13104   0.639  37.137   3.188
47878W        W13105   2.461  40.799   4.204
47879W        W13106  20.948   0.331  14.116
47880W        W13107  42.142   3.385   5.004
47881W        W13108  43.900  31.762  14.387
47882W        W13109  25.224   1.879   1.321
47883W        W13110  43.911  39.507   4.149
47884W        W13111  29.728   8.448  14.307
47885W        W13112  24.657  16.696   0.977
47886W        W13113   8.683   3.480   4.581
47887W        W13114  18.555  16.637   3.772
47888W        W13115   8.608  36.139   2.349
47889W        W13116  44.558  37.270   2.305
47890W        W13117  37.247   2.431   4.588
47891W        W13118  34.570  13.243   0.349
47892W        W13119  15.702   1.445  13.695
47893W        W13120  16.805   5.751   1.236
47894W        W13121   2.738  16.150   3.704
47895W        W13122  15.633  16.049  14.107
47896W        W13123  35.323   4.768  13.909
47897W        W13124  31.579  16.801   1.730
47898W        W13125  18.634  27.082  13.946
47899W        W13126  15.751  18.766   2.858
47900W        W13127   5.423  30.520  10.686
47901W        W13128  10.705  12.289   0.430
47902W        W13129  11.714  26.423   0.738
47903W        W13130  40.997  30.503  11.913
47904W        W13131   4.657  43.769   2.128
47905W        W13132  12.464   9.327  14.386
47906W        W13133  21.109  26.572   0.726
47907W        W13134   1.577  19.231  11.550
47908W        W13135  42.956  41.215   2.722
47909W        W13136  35.606  13.662  10.837
47910W        W13137  11.057  34.124   0.245
47911W        W13138   1.976  17.770   4.191
47912W        W13139  22.438  21.127   4.002
47913W        W13140  36.870  39.440  12.969
47914W        W13141  17.004  16.234   0.349
47915W        W13142   3.232   7.507  11.166
47916W        W13143   9.649   4.726  12.091
47917W        W13144  23.034  25.964  14.354
47918W        W13145  29.976  36.433   1.769
47919W        W13146   8.635   2.896  10.638
47920W        W13147  42.331  19.104   3.649
47921W        W13148  28.656   9.919  13.552
47922W        W13149   1.853  27.845   3.574
47923W        W13150  44.010  30.583  12.154
47924W        W13151  42.430   6.039  10.794
47925W        W13152  26.227   7.145  13.496
47926W        W13153   0.144  34.068  11.410
47927W        W13154  33.439  14.850  13.912
47928W        W13155  39.454  40.860   4.142
47929W        W13156  41.707  33.895   0.847
47930W        W13157   6.093  30.393   5.280
47931W        W13158  33.166  16.661  13.001
47932W        W13159  20.499   1.274   2.642
47933W        W13160  39.396   9.388  14.470
47934W        W13161   9.412   7.855   2.182
47935W        W13162  12.699  44.584   0.135
47936W        W13163  20.577  10.337   3.961
47937W        W13164  33.984  39.661   3.884
47938W        W13165   0.324  35.514  13.860
47939W        W13166  39.361   9.134  12.545
47940W        W13167  18.636  39.988   2.932
47941W        W13168  44.728  13.735  10.920
47942W        W13169  37.754  32.815  13.061
47943W        W13170  32.871  41.165   2.913
47944W        W13171  28.048  19.572   3.099
47945W        W13172   1.993  20.487   2.239
47946W        W13173  15.268  24.364   2.570
47947W        W13174  16.576  39.547  11.857
47948W        W13175  13.170   1.208  14.701
47949W        W13176   2.946  23.428  13.463
47950W        W13177  16.042  39.340  11.150
47951W        W13178  36.922  38.913   1.338
47952W        W13179  23.458   4.272  11.634
47953W        W13180  30.140  20.084   0.928
47954W        W13181  13.583  10.573   2.140
47955W        W13182  42.105  14.645  14.868
47956W        W13183  23.145  44.668  10.662
47957W        W13184  29.314   1.093  11.942
47958W        W13185  36.905  14.531  14.766
47959W        W13186  17.302  26.201  13.353
47960W        W13187  26.656   5.452  14.540
47961W        W13188   0.451  22.753   1.407
47962W        W13189  21.699  24.711   4.049
47963W        W13190   1.781  43.410  12.123
47964W        W13191  33.216   6.391  14.349
47965W        W13192  22.459  11.792   1.656
47966W        W13193  20.745   0.821   2.662
47967W        W13194  33.565  39.978  13.205
47968W        W13195   3.185  17.637  12.419
47969W        W13196  37.421  43.774   2.710
47970W        W13197  15.296  42.395  14.961
47971W        W13198  17.120  22.037  11.319
47972W        W13199  26.373  11.736  12.511
47973W        W13200  31.474  44.286  14.462
47974W        W13201  41.176  16.778  12.986
47975W        W13202  12.661  31.120  11.633
47976W        W13203   4.022  26.688   2.538
47977W        W13204  35.433  16.319   1.016
47978W        W13205  24.241  44.958  14.142
47979W        W13206   9.320  44.424  12.432
47980W        W13207  36.012  21.066   3.707
47981W        W13208  44.919   1.740   0.412
47982W        W13209   7.785   2.095   0.014
47983W        W13210  14.317  32.693  14.893
47984W        W13211  31.364  32.441   3.864
47985W        W13212   4.572  28.870  13.488
47986W        W13213  25.043   1.762   3.090
47987W        W13214  24.491  36.100   4.128
47988W        W13215   8.982  23.451  14.476
47989W        W13216  43.928  22.507   0.552
47990W        W13217  12.612  11.916  11.323
47991W        W13218  24.986   6.794  14.007
47992W        W13219  18.291  42.386  10.457
47993W        W13220  25.152  19.492  11.547
47994W        W13221  12.849  18.311   2.370
47995W        W13222  25.134   7.758  14.541
47996W        W13223  25.692  43.918   2.823
47997W        W13224  25.438   7.063   2.740
47998W        W13225   1.888  32.598   1.016
47999W        W13226  14.822  11.145  11.207
48000W        W13227  24.062  41.370  14.002
48001W        W13228  35.505  28.922  14.130
48002W        W13229  35.290   2.256  14.677
48003W        W13230   8.312  14.997   4.590
48004W        W13231  23.302  16.994   2.596
48005W        W13232  31.953  44.378   3.248
48006W        W13233   9.071  17.707   3.642
48007W        W13234  18.094  24.167  12.977
48008W        W13235   7.897   4.509  14.454
48009W        W13236   3.378   2.998   3.427
48010W        W13237  27.287  15.927   1.333
48011W        W13238  25.147   5.860   2.334
48012W        W13239  14.778  11.559  13.776
48013W        W13240  17.922  11.133  10.816
48014W        W13241   6.952  35.072   0.864
48015W        W13242  29.605   7.164  14.933
48016W        W13243   5.277  15.362   5.144
48017W        W13244  39.960  24.686  12.198
48018W        W13245  27.861   7.784  11.750
48019W        W13246  28.029   2.299   0.897
48020W        W13247  28.169  41.548  11.228
48021W        W13248  38.761   6.286   3.567
48022W        W13249  43.893  28.430   5.137
48023W        W13250  37.342  40.239  12.518
48024W        W13251  15.478  28.384  13.763
48025W        W13252   2.941  36.918  11.196
48026W        W13253  44.555  39.176   2.746
48027W        W13254  35.581  31.204  11.395
48028W        W13255  14.959  11.513  13.340
48029W        W13256  36.332  41.319   3.695
48030W        W13257   9.833   2.309   3.703
48031W        W13258  36.924   8.443   0.586
48032W        W13259  26.271   8.388  13.461
48033W        W13260  28.705   7.635   3.150
48034W        W13261  17.044  29.488   3.767
48035W        W13262  41.224   1.015   2.228
48036W        W13263  20.591  14.827  11.927
48037W        W13264  37.375  34.685   0.171
48038W        W13265  43.736  13.841  13.022
48039W        W13266  37.889  40.525  11.240
48040W        W13267  14.101  22.554   4.002
48041W        W13268  21.852  20.660   5.015
48042W        W13269  37.422   5.684   1.416
48043W        W13270  23.610  32.924  12.292
48044W        W13271  19.350  38.290   3.444
48045W        W13272  26.019   4.022   2.713
48046W        W13273  32.516  42.909   1.012
48047W        W13274  38.518  16.459  10.500
48048W        W13275   3.820  44.909   0.918
48049W        W13276   9.960  27.534  14.886
48050W        W13277   9.927  27.121  11.952
48051W        W13278  17.197  36.558  14.262
48052W        W13279   1.989  20.891   4.148
48053W        W13280  22.965  16.237   1.493
48054W        W13281  15.998  26.169  13.808
48055W        W13282  25.001  36.086  10.773
48056W        W13283   2.023  25.952  11.203
48057W        W13284  23.192   0.730   1.262
48058W        W13285  36.563  24.180   0.856
48059W        W13286  16.103  37.048  14.360
48060W        W13287  27.587  20.503   0.830
48061W        W13288  35.438  36.850  13.610
48062W        W13289  43.244  36.830  12.067
48063W        W13290  22.957  19.186  12.866
48064W        W13291  29.197  34.821   4.965
48065W        W13292   9.657  34.250   4.571
48066W        W13293  33.980  40.424   4.413
48067W        W13294  33.204  17.753  12.156
48068W        W13295   3.852  14.561   2.655
48069W        W13296  20.275   2.884   2.287
48070W        W13297  18.920  28.051   5.089
48071W        W13298  33.961  35.388   3.982
48072W        W13299  20.585   7.167   2.458
48073W        W13300  15.252   9.815  11.928
48074W        W13301  30.627  11.858  12.877
48075W        W13302  13.263   3.002  10.514
48076W        W13303  43.852  29.007   0.776
48077W        W13304  31.441  25.248   2.267
48078W        W13305   9.719  13.772  11.581
48079W        W13306  36.440  16.592  14.036
48080W        W13307  26.518   5.238  12.976
48081W        W13308   2.380  19.577  12.868
48082W        W13309  18.849  32.433   2.172
48083W        W13310  33.704  18.584  10.790
48084W        W13311  33.129  38.850  12.141
48085W        W13312  31.377  18.572   3.172
48086W        W13313  23.545   8.431  12.540
48087W        W13314  30.440  34.890  11.204
48088W        W13315  33.432  38.111   3.232
48089W        W13316  27.948  27.986  14.905
48090W        W13317  37.973  12.692   1.630
48091W        W13318  22.084  38.591   4.538
48092W        W13319  35.009  29.343   3.074
48093W        W13320  39.047  16.359   4.215
48094W        W13321  30.487  31.079   3.592
48095W        W13322  26.448   6.264   2.213
48096W        W13323  17.363  24.030  10.716
48097W        W13324  14.459   8.121  11.167
48098W        W13325   1.824   7.238  13.161
48099W        W13326  14.858  21.536   0.226
48100W        W13327  41.896  30.568  11.040
48101W        W13328  38.920  42.886  11.940
48102W        W13329  42.447   0.525   4.605
48103W        W13330  43.684  12.907  10.732
48104W        W13331  23.032  13.562   0.819
48105W        W13332  31.965  12.318   3.210
48106W        W13333   8.576  40.357   1.680
48107W        W13334  33.432  21.687  12.679
48108W        W13335  22.156  27.856  13.389
48109W        W13336   9.213  18.793   9.718
48110W        W13337   0.700  35.261   3.360
48111W        W13338  15.095   6.893   4.034
48112W        W13339  26.644  15.846  12.617
48113W        W13340  27.952  31.843  11.980
48114W        W13341  15.399   3.415   4.558
48115W        W13342  24.622  18.392   1.360
48116W        W13343  43.464  12.200  13.980
48117W        W13344  28.985  37.997   0.016
48118W        W13345  44.850  29.089   2.593
48119W        W13346  35.810  25.934   0.736
48120W        W13347  11.603   2.375  10.709
48121W        W13348   3.774   2.994   4.199
48122W        W13349  31.676  40.856   4.086
48123W        W13350  39.848   0.365   1.581
48124W        W13351   3.484   1.702   5.098
48125W        W13352  40.818  27.932  13.887
48126W        W13353  34.462  27.209   2.815
48127W        W13354  18.101  36.303   4.138
48128W        W13355  42.621  19.633   0.802
48129W        W13356  23.935  21.150   4.411
48130W        W13357  18.791   6.098  10.958
48131W        W13358   2.625   1.944   2.309
48132W        W13359  27.291  22.077  14.779
48133W        W13360  14.842  40.200  11.638
48134W        W13361  34.467  15.781   4.544
48135W        W13362   6.858   9.421  10.554
48136W        W13363  18.018  40.596   1.874
48137W        W13364  38.102   1.795   0.882
48138W        W13365  31.969  43.796   1.297
48139W        W13366  19.172  43.426   4.542
48140W        W13367   6.165  10.707  12.096
48141W        W13368  31.587  32.514   2.150
48142W        W13369  16.234  19.152   2.362
48143W        W13370  16.622  28.013  13.656
48144W        W13371  10.820  29.687  11.105
48145W        W13372  16.523  29.384  11.122
48146W        W13373  31.389  15.632   0.317
48147W        W13374  36.472  28.507  14.423
48148W        W13375   6.808   5.190   0.899
48149W        W13376  26.355  20.194   2.237
48150W        W13377  38.347  41.711  14.700
48151W        W13378   9.822  17.859  11.505
48152W        W13379  20.885  41.545   0.750
48153W        W13380   8.588  43.458  11.993
48154W        W13381  30.421   8.086  13.898
48155W        W13382  34.144  37.071   0.346
48156W        W13383  12.690  37.256  13.432
48157W        W13384  12.000  39.964   4.006
48158W        W13385   0.465  37.330   0.883
48159W        W13386  33.718  39.057   0.532
48160W        W13387  27.707  36.412  11.955
48161W        W13388  23.559   8.794   3.888
48162W        W13389  19.964  19.243   2.946
48163W        W13390   7.978   8.176  11.093
48164W        W13391  26.579  28.814   2.741
48165W        W13392  14.877  26.646   3.994
48166W        W13393  42.422  22.038   0.289
48167W        W13394  23.591  35.211  12.645
48168W        W13395  36.864  36.416  13.894
48169W        W13396  24.589  30.515   2.181
48170W        W13397  20.205  12.915   4.253
48171W        W13398  31.614  22.235  10.744
48172W        W13399   5.984  28.075  11.443
48173W        W13400  23.246   1.552  13.988
48174W        W13401  41.482  22.024  14.436
48175W        W13402   7.357  42.946  12.478
48176W        W13403  41.124  11.618  12.078
48177W        W13404  12.812   9.199   2.845
48178W        W13405   6.066  10.429   3.693
48179W        W13406  22.358  39.286  13.791
48180W        W13407   6.091  24.590   0.172
48181W        W13408  29.787  40.296  11.047
48182W        W13409   1.851   3.433  11.101
48183W        W13410  33.484  25.255   3.800
48184W        W13411  40.983  37.745   3.214
48185W        W13412   1.744  33.942   1.707
48186W        W13413  13.281  39.377  14.240
48187W        W13414  42.730  33.915   3.754
48188W        W13415  15.210  27.902   3.332
48189W        W13416  12.435  22.690  11.504
48190W        W13417   8.238  31.895   4.591
48191W        W13418   1.869  33.026   0.298
48192W        W13419   7.930  43.838   4.605
48193W        W13420  28.483  12.457  11.120
48194W        W13421  42.766  33.619  11.199
48195W        W13422  38.241  39.615  11.324
48196W        W13423  43.478  43.066  12.282
48197W        W13424  20.162  30.854   0.446
48198W        W13425  33.130  23.210   2.777
48199W        W13426   6.871  34.287  13.500
48200W        W13427  42.530  42.297  13.501
48201W        W13428  29.565   4.656   4.595
48202W        W13429   2.125  31.605  14.501
48203W        W13430  22.506  12.881  12.181
48204W        W13431  20.160  26.294   0.015
48205W        W13432  31.635  31.081  14.075
48206W        W13433  31.196  35.324   5.016
48207W        W13434  16.476  21.066   3.237
48208W        W13435   1.582  29.054   4.853
48209W        W13436  44.317  36.367   0.156
48210W        W13437   2.914  39.450   2.217
48211W        W13438  30.745   6.781  11.225
48212W        W13439   6.673  13.727   1.525
48213W        W13440  25.636  34.644  14.506
48214W        W13441  30.064  20.721  13.173
48215W        W13442  34.452  15.099  14.668
48216W        W13443  15.416  20.303  12.182
48217W        W13444  44.482  31.129   4.887
48218W        W13445  43.158  29.351   2.027
48219W        W13446  22.982  13.090  13.477
48220W        W13447  13.226  41.123  12.938
48221W        W13448   1.915  28.059   0.915
48222W        W13449  38.984  39.752  11.489
48223W        W13450  40.016  32.302   0.297
48224W        W13451  33.497  17.245   3.663
48225W        W13452  37.456   3.203  13.338
48226W        W13453  27.394  32.592   4.197
48227W        W13454  31.114  22.803   1.954
48228W        W13455  22.045  15.280   2.971
48229W        W13456  39.675  17.559   1.459
48230W        W13457  16.615  41.423  12.211
48231W        W13458  30.604  11.670   4.572
48232W        W13459  43.496   3.971   0.405
48233W        W13460  14.761  19.317   0.250
48234W        W13461  34.624  14.340  14.450
48235W        W13462  33.680  16.738  12.932
48236W        W13463   2.290  15.820  13.971
48237W        W13464  12.124  34.370  14.400
48238W        W13465  41.349  32.382  13.506
48239W        W13466  37.792  10.371   4.060
48240W        W13467  19.682   9.103   2.255
48241W        W13468  12.183   5.801  14.238
48242W        W13469  31.783   3.068  11.958
48243W        W13470  29.640  43.788   3.617
48244W        W13471  33.929  39.147  12.651
48245W        W13472   2.583  23.477   4.702
48246W        W13473  35.385  29.178   1.703
48247W        W13474  17.294  10.645  12.487
48248W        W13475  38.569  37.514   2.775
48249W        W13476  11.785  20.968  12.540
48250W        W13477   7.707  32.413  14.358
48251W        W13478  11.610  19.232   1.320
48252W        W13479   5.023  39.585   4.817
48253W        W13480  36.301  38.601   4.125
48254W        W13481   6.842   1.724  13.423
48255W        W13482  13.376  12.214  14.407
48256W        W13483  21.058  42.861  10.320
48257W        W13484  23.765  18.868  11.507
48258W        W13485  27.798  42.517   1.349
48259W        W13486  32.346  44.339  10.176
48260W        W13487  10.140  26.720   3.858
48261W        W13488  13.300  41.160   0.862
48262W        W13489  13.613  23.073  14.501
48263W        W13490  44.517  21.563   1.323
48264W        W13491  15.553   8.259   3.624
48265W        W13492  34.239  44.452  13.510
48266W        W13493  35.909  44.765   0.762
48267W        W13494  41.772   5.931   1.505
48268W        W13495   2.317  44.165   0.032
48269W        W13496  25.469  26.337  12.941
48270W        W13497   6.908   8.601  13.438
48271W        W13498   4.796   9.094  13.897
48272W        W13499  37.387  31.885  12.036
48273W        W13500  38.555   7.501   4.213
48274W        W13501  34.281  12.427  12.921
48275W        W13502  13.821   2.114   2.822
48276W        W13503   2.201  38.442   2.229
48277W        W13504  16.042  35.266   1.703
48278W        W13505  39.549  27.418   2.387
48279W        W13506  31.010  20.620  11.961
48280W        W13507   2.369  20.004   3.589
48281W        W13508  16.258  17.077  12.141
48282W        W13509  21.503   2.566  11.429
48283W        W13510  38.377   9.252  12.328
48284W        W13511  11.601  44.022   1.169
48285W        W13512   4.372  43.033  11.932
48286W        W13513  31.341   1.245  12.704
48287W        W13514  38.498  43.452  11.272
48288W        W13515  26.732   2.297  12.914
48289W        W13516  38.233  15.194  14.901
48290W        W13517  38.110   5.284  14.840
48291W        W13518  38.074   5.558   3.063
48292W        W13519  31.328  24.660   1.221
48293W        W13520  14.501  30.153   3.157
48294W        W13521  19.020  42.313   3.765
48295W        W13522   9.266   6.420  13.926
48296W        W13523  31.141  28.075  11.992
48297W        W13524  25.002  35.361  10.820
48298W        W13525   0.506   1.815  11.705
48299W        W13526  28.976  10.151   2.509
48300W        W13527  15.677   7.568   0.468
48301W        W13528  38.308  36.721   0.845
48302W        W13529  30.524  20.047  13.453
48303W        W13530  18.490   9.550  14.258
48304W        W13531  18.368  43.309   1.445
48305W        W13532  37.535  32.548  14.340
48306W        W13533  35.990   3.910   4.130
48307W        W13534   1.362  27.668  13.941
48308W        W13535  40.088  11.362  14.949
48309W        W13536  15.588  26.445  14.025
48310W        W13537   1.857   3.631  13.502
48311W        W13538  40.318   8.613  13.721
48312W        W13539  20.552  22.317  12.491
48313W        W13540  32.579  37.807   1.816
48314W        W13541  40.252  31.045  10.602
48315W        W13542  27.594  41.494  14.068
48316W        W13543  21.293  16.720   1.977
48317W        W13544  41.849  36.637  11.622
48318W        W13545  30.939   5.585   9.797
48319W        W13546  31.972  28.100  11.960
48320W        W13547  30.315   8.442   3.670
48321W        W13548  32.234  26.768  14.453
48322W        W13549  39.944  44.291   2.853
48323W        W13550  10.249  36.551  10.571
48324W        W13551   5.900  32.900   0.583
48325W        W13552  17.757  18.715   4.129
48326W        W13553  15.205  18.995   1.328
48327W        W13554  25.590  41.525   3.087
48328W        W13555   0.814  24.500  11.550
48329W        W13556  42.830  16.348  13.789
48330W        W13557  32.181  41.195  13.469
48331W        W13558  13.075  25.203   4.459
48332W        W13559  24.161  33.684  13.832
48333W        W13560  19.600  26.106   4.542
48334W        W13561  31.542  31.913   3.836
48335W        W13562  10.588  38.901  14.961
48336W        W13563  31.157  18.989   2.936
48337W        W13564  14.730   4.693  11.165
48338W        W13565  15.568   1.779   0.925
48339W        W13566   0.846  28.960  13.856
48340W        W13567  43.788  32.112   0.351
48341W        W13568   0.915  17.650  11.560
48342W        W13569  43.294  24.136  13.877
48343W        W13570  30.529   1.624  13.788
48344W        W13571  31.570  40.009   3.123
48345W        W13572  23.165  15.958   4.302
48346W        W13573  27.923  19.232   0.857
48347W        W13574  13.536   1.761  10.445
48348W        W13575  15.272   7.750   4.018
48349W        W13576  42.336  10.879  10.776
48350W        W13577  33.377   7.947  11.556
48351W        W13578  31.671  43.765  14.414
48352W        W13579  29.064  14.261  12.223
48353W        W13580  25.762  16.324   2.795
48354W        W13581   4.636  26.092  10.594
48355W        W13582  26.884  42.246   2.489
48356W        W13583  21.496  42.349  10.618
48357W        W13584  31.158  18.079  10.486
48358W        W13585  44.550   7.718  12.032
48359W        W13586   2.454  31.181   0.411
48360W        W13587  32.592  33.481   1.305
48361W        W13588  10.311  32.650  13.061
48362W        W13589  15.021  12.065  13.317
48363W        W13590  24.727  24.035   4.553
48364W        W13591  29.378  14.057   2.512
48365W        W13592  21.667  20.757   4.238
48366W        W13593  18.984  32.429  12.920
48367W        W13594  39.907  21.495  11.982
48368W        W13595  26.420  26.517   4.576
48369W        W13596  23.469   1.818   1.991
48370W        W13597   3.313   8.493  14.511
48371W        W13598  41.970   0.733   0.844
48372W        W13599   7.156   2.563   2.106
48373W        W13600   0.881   8.026  10.683
48374W        W13601  35.171  40.907   4.163
48375W        W13602  44.495   5.262   3.553
48376W        W13603  35.250  16.729   4.094
48377W        W13604  11.744  22.103   3.645
48378W        W13605   3.847   4.837   2.358
48379W        W13606   9.760  25.352  10.375
48380W        W13607  43.267   4.943   0.132
48381W        W13608  34.809  18.631  11.613
48382W        W13609  32.182  17.728   4.618
48383W        W13610  11.745   3.014   2.387
48384W        W13611  41.848   9.141  13.356
48385W        W13612  16.035  43.536   2.690
48386W        W13613  42.440  24.673   4.562
48387W        W13614  22.470  18.774  11.640
48388W        W13615  37.915   6.688  12.617
48389W        W13616  15.695  40.521   0.805
48390W        W13617  15.619  14.745  14.906
48391W        W13618  32.640  17.263  10.569
48392W        W13619   2.904  14.587   0.251
48393W        W13620  18.902  39.517   2.195
48394W        W13621   1.528  21.473  12.100
48395W        W13622  32.418  17.833   0.743
48396W        W13623  19.311  40.348   1.884
48397W        W13624  35.872   0.034   2.209
48398W        W13625   8.839  23.144  12.965
48399W        W13626   2.948  16.346  14.912
48400W        W13627   1.488  21.115  12.957
48401W        W13628  43.529   7.382   4.479
48402W        W13629  11.515  38.009  12.823
48403W        W13630  24.221  37.463  11.641
48404W        W13631  11.682  44.489   5.015
48405W        W13632   4.306  42.285   4.492
48406W        W13633  18.900  13.195  13.964
48407W        W13634  17.169  12.413  10.168
48408W        W13635  43.674  37.082  11.936
48409W        W13636  23.710  41.632   1.023
48410W        W13637   3.643  10.381   0.720
48411W        W13638   0.004  14.906   1.510
48412W        W13639   2.705   8.662   2.336
48413W        W13640   4.652  15.099  14.027
48414W        W13641   3.196  19.207   3.374
48415W        W13642  32.424  15.194  11.541
48416W        W13643  44.030  42.148  12.799
48417W        W13644  18.521   7.903   1.660
48418W        W13645  14.431  26.938  13.613
48419W        W13646  27.890  16.102   4.567
48420W        W13647  19.774  36.990  11.161
48421W        W13648   1.247   4.851   2.045
48422W        W13649   0.502  12.423   0.528
48423W        W13650   8.615  40.803   0.923
48424W        W13651  17.222  15.690   0.305
48425W        W13652  43.472  19.540   1.865
48426W        W13653  17.735   7.016   4.556
48427W        W13654  42.808   3.776   1.464
48428W        W13655   6.562  35.849  12.759
48429W        W13656  32.416   1.358  14.686
48430W        W13657  27.160   5.702   0.965
48431W        W13658  18.107  11.234  14.678
48432W        W13659  16.145  42.950  11.785
48433W        W13660   2.830  15.462   4.449
48434W        W13661  16.661  26.812   1.700
48435W        W13662  18.965  22.277   3.597
48436W        W13663  29.273   2.182  10.645
48437W        W13664   4.230  17.615  10.483
48438W        W13665   6.786  32.446   3.879
48439W        W13666  22.970   7.463  14.331
48440W        W13667   0.780  43.162   2.642
48441W        W13668  29.197  22.198  10.799
48442W        W13669  22.975   9.401  12.049
48443W        W13670  44.162  10.746  10.769
48444W        W13671  39.513  26.195   0.757
48445W        W13672   0.901  21.242   0.238
48446W        W13673  28.130  18.142  14.461
48447W        W13674   0.317  22.412  14.224
48448W        W13675  16.681   3.999   3.144
48449W        W13676  12.362  17.333  11.189
48450W        W13677  27.625  38.806  12.571
48451W        W13678  13.931  12.682   3.524
48452W        W13679   7.546  26.332   3.795
48453W        W13680  13.338  36.131  12.604
48454W        W13681  34.525  35.319  11.976
48455W        W13682  18.321   4.924  11.176
48456W        W13683   0.757  33.899   2.818
48457W        W13684  27.071  41.926  12.923
48458W        W13685  22.622  12.470   4.720
48459W        W13686   9.761  40.109  14.445
48460W        W13687   8.718  32.074  13.108
48461W        W13688  18.804  13.136   4.118
48462W        W13689   3.447  29.199   1.993
48463W        W13690  10.823   2.815   3.234
48464W        W13691  39.493  39.949  10.761
48465W        W13692  31.630   1.349  11.233
48466W        W13693  33.240  21.140  14.984
48467W        W13694   1.903  14.681  14.640
48468W        W13695  14.632  35.908  12.100
48469W        W13696  27.563   1.986   0.812
48470W        W13697   2.187  29.099  12.355
48471W        W13698  16.737  19.876   1.346
48472W        W13699  38.088   3.732  11.542
48473W        W13700  39.842  22.512  12.110
48474W        W13701  29.153   9.591   0.194
48475W        W13702   6.798  10.729  10.728
48476W        W13703  40.462  11.104  13.819
48477W        W13704  24.301  22.072  12.574
48478W        W13705  26.918  28.411   3.862
48479W        W13706  37.418  14.138  14.273
48480W        W13707  36.647  30.904   2.669
48481W        W13708  27.260   5.466   2.871
48482W        W13709  40.952  35.416  12.688
48483W        W13710  33.957  15.850   2.831
48484W        W13711  38.309  16.612   2.067
48485W        W13712  12.061  40.072   1.146
48486W        W13713  44.879   7.905  14.794
48487W        W13714  26.715  34.282   0.828
48488W        W13715  18.303   0.503  12.508
48489W        W13716  37.875   8.891   4.315
48490W        W13717  22.040  35.441  10.906
48491W        W13718  29.454   5.834   0.189
48492W        W13719   2.831  38.944  12.240
48493W        W13720  11.864  32.391   1.264
48494W        W13721  21.624  19.440   4.241
48495W        W13722  26.896  12.249   0.221
48496W        W13723  38.833  13.389   1.824
48497W        W13724  33.859  31.389   4.053
48498W        W13725  13.890  16.296  13.288
48499W        W13726  40.961  15.683  11.651
48500W        W13727  22.022  40.830  10.449
48501W        W13728  15.877   1.964   2.294
48502W        W13729  20.074  19.820  14.898
48503W        W13730  25.665  36.012   0.389
48504W        W13731  35.917   6.628  14.763
48505W        W13732  42.434  14.087  14.112
48506W        W13733  37.510   2.854   4.109
48507W        W13734  40.920  20.582   3.204
48508W        W13735  28.575   9.135  11.948
48509W        W13736   2.323  23.030   2.153
48510W        W13737   8.344   2.698  13.454
48511W        W13738  28.590   0.288  10.546
48512W        W13739   1.287  28.966  13.573
48513W        W13740   5.248  44.454   3.036
48514W        W13741  34.570  15.990  12.412
48515W        W13742   6.777   3.900   4.746
48516W        W13743  16.669  43.565  14.059
48517W        W13744  10.890  25.267   2.577
48518W        W13745   5.735  18.057   0.352
48519W        W13746  17.025  26.229  12.107
48520W        W13747   3.768   7.896  13.427
48521W        W13748  15.733  28.516  12.460
48522W        W13749  23.102   2.527   1.636
48523W        W13750   5.865   7.911  11.510
48524W        W13751  34.889  18.305   3.117
48525W        W13752  12.566  21.832  11.775
48526W        W13753  42.926  14.749   3.084
48527W        W13754  10.750  40.875   4.557
48528W        W13755  32.322  31.448   3.030
48529W        W13756  40.544  38.925   1.309
48530W        W13757  43.372  27.364   3.285
48531W        W13758  24.062  19.682   0.622
48532W        W13759  12.916  18.114  11.259
48533W        W13760  16.941  14.085  11.008
48534W        W13761  16.746   3.671  11.226
48535W        W13762  25.268  18.144   1.199
48536W        W13763  17.068  33.456   4.584
48537W        W13764  29.201  22.206   2.770
48538W        W13765  13.960  37.966  13.254
48539W        W13766  20.290  39.113   4.811
48540W        W13767  35.956  16.010   2.244
48541W        W13768  22.681  42.036   3.809
48542W        W13769   6.164  40.513   1.652
48543W        W13770  28.517  19.733   2.859
48544W        W13771  20.539   6.671   1.768
48545W        W13772  17.616   0.452   0.516
48546W        W13773   5.098   3.407   4.890
48547W        W13774  26.907  11.748   1.865
48548W        W13775   6.752  42.440   0.974
48549W        W13776  22.260  40.365  12.582
48550W        W13777  40.747   3.387  11.967
48551W        W13778   9.230   5.386  14.014
48552W        W13779   9.258   5.837  10.932
48553W        W13780  27.460  15.898   2.229
48554W        W13781  36.433  40.496  13.844
48555W        W13782  43.609  18.788  11.599
48556W        W13783  26.910   2.200  11.046
48557W        W13784   8.714   0.432   2.409
48558W        W13785  27.272  26.516  12.986
48559W        W13786  44.518  12.808   0.056
48560W        W13787   1.497  20.171  13.036
48561W        W13788   4.294   8.786  13.753
48562W        W13789   0.264  22.832  12.337
48563W        W13790   2.475  28.652   1.793
48564W        W13791  13.640  36.861  13.294
48565W        W13792  20.530  18.321  10.670
48566W        W13793  23.965  18.093   2.768
48567W        W13794  31.478  21.678  14.910
48568W        W13795  25.250   1.433  10.699
48569W        W13796  40.073  13.072  11.726
48570W        W13797  27.973  36.879   2.592
48571W        W13798   8.385   5.822  12.707
48572W        W13799  37.359   6.535   1.672
48573W        W13800  43.942   4.534   1.670
48574W        W13801   9.933  42.338  12.332
48575W        W13802  42.799  34.402   1.118
48576W        W13803  35.172  25.983  14.960
48577W        W13804  27.443  29.872  10.705
48578W        W13805   2.419  28.124   1.869
48579W        W13806  33.527  15.189   0.011
48580W        W13807  31.146  28.748  10.408
48581W        W13808  10.787   7.938  11.136
48582W        W13809   7.443  28.381  14.420
48583W        W13810  17.725  27.991   1.849
48584W        W13811  40.312  37.131  11.539
48585W        W13812  32.198  12.247   3.660
48586W        W13813  27.073   8.742  12.379
48587W        W13814  11.713  44.778  10.635
48588W        W13815   9.383   1.109  11.650
48589W        W13816   4.277  40.032  14.025
48590W        W13817  29.535  15.598   2.990
48591W        W13818  21.743  39.401   0.737
48592W        W13819  19.050  24.645  13.054
48593W        W13820  34.343  10.951  10.651
48594W        W13821   1.967   6.247   1.851
48595W        W13822  25.648  25.144   2.723
48596W        W13823  13.176  13.061  14.143
48597W        W13824  17.089  22.350   1.300
48598W        W13825  16.334  27.661  14.328
48599W        W13826  24.480  21.630   0.099
48600W        W13827   9.893  32.844  14.456
48601W        W13828   2.230  41.920   5.391
48602W        W13829  13.643   1.530   4.647
48603W        W13830  30.435  21.938   4.770
48604W        W13831   7.813   0.718   2.852
48605W        W13832  41.317   3.703  11.462
48606W        W13833  34.805   3.372   1.654
48607W        W13834   5.698  35.409   1.455
48608W        W13835  25.156  18.844  14.015
48609W        W13836  43.736   6.448   1.800
48610W        W13837  24.915  35.390   4.544
48611W        W13838  43.787  12.544  12.051
48612W        W13839  38.493   6.707   2.784
48613W        W13840  32.487  35.884  10.550
48614W        W13841  10.222   2.001   4.137
48615W        W13842  37.828  31.777  13.827
48616W        W13843  23.656  22.467   1.964
48617W        W13844  39.829  44.032  14.495
48618W        W13845  42.464  32.581  13.507
48619W        W13846   2.677  35.698   1.258
48620W        W13847   1.742  31.937  11.469
48621W        W13848  24.604   2.262  12.826
48622W        W13849  12.300  22.858   4.898
48623W        W13850  40.104  44.999   3.188
48624W        W13851  12.398   7.804  11.351
48625W        W13852   1.773  27.829  14.830
48626W        W13853  41.512  19.794  12.491
48627W        W13854   9.320   9.572  14.899
48628W        W13855   5.300   3.858  11.033
48629W        W13856   0.926  16.546  13.004
48630W        W13857   1.485  34.972  13.102
48631W        W13858  17.480  24.171   5.033
48632W        W13859   7.685   8.949  14.642
48633W        W13860   9.448  10.382  13.483
48634W        W13861  36.910  42.214   1.764
48635W        W13862  39.847   9.277  12.436
48636W        W13863  42.923  34.433   0.618
48637W        W13864  40.346   7.232  12.085
48638W        W13865   2.778  34.723   4.767
48639W        W13866   0.980  17.289   3.692
48640W        W13867  24.029  22.250   3.627
48641W        W13868   8.459  14.599   0.385
48642W        W13869  21.929  11.648  11.163
48643W        W13870  24.632  20.046  11.669
48644W        W13871  12.201   3.906  14.930
48645W        W13872  42.857   8.372   3.629
48646W        W13873  27.228  20.280   2.479
48647W        W13874  21.549  11.989  11.282
48648W        W13875  37.573   0.513   0.769
48649W        W13876  26.918   7.694  14.926
48650W        W13877   5.708  30.622   1.199
48651W        W13878  40.496  21.227  10.755
48652W        W13879  28.433  13.937  11.140
48653W        W13880  29.029  31.850  10.827
48654W        W13881   4.759   4.824  13.326
48655W        W13882  25.567  43.695   3.762
48656W        W13883  20.123   6.790   2.712
48657W        W13884  38.869  24.310   1.789
48658W        W13885  33.673  44.336  11.526
48659W        W13886  30.334  35.512   2.454
48660W        W13887   3.849  13.104  14.372
48661W        W13888  26.310  25.295  10.729
48662W        W13889  30.968  41.791   3.193
48663W        W13890  11.352  14.201   4.478
48664W        W13891  28.625   1.515   0.916
48665W        W13892  13.037   3.791  11.088
48666W        W13893  32.673  17.760  14.436
48667W        W13894  20.663  33.116   1.914
48668W        W13895   8.875  12.605   3.645
48669W        W13896  13.097  31.626   0.467
48670W        W13897  21.184   6.353   1.256
48671W        W13898  22.726  15.726  10.614
48672W        W13899  23.543  16.084   2.369
48673W        W13900  33.154  30.270   1.864
48674W        W13901  36.615  41.585   1.265
48675W        W13902   0.242  21.510   1.812
48676W        W13903  11.084  25.945   0.807
48677W        W13904  34.346  10.429   3.178
48678W        W13905  43.643  26.850   2.621
48679W        W13906   4.847  12.685   3.104
48680W        W13907   7.406   4.290  11.015
48681W        W13908  15.081  23.124   0.800
48682W        W13909  44.901  26.917  14.837
48683W        W13910   2.716  26.822  12.649
48684W        W13911   7.251  23.635   3.062
48685W        W13912  36.081  34.032   0.739
48686W        W13913  22.176   2.512   3.330
48687W        W13914  23.838   8.197   2.687
48688W        W13915   7.649  22.761  11.145
48689W        W13916  30.429  42.547  11.092
48690W        W13917  38.268  14.108   0.885
48691W        W13918  19.127  19.249   0.272
48692W        W13919   6.685  39.229  11.796
48693W        W13920  23.149  13.176  10.706
48694W        W13921  12.105  20.207   3.549
48695W        W13922  10.943  43.995  11.177
48696W        W13923  23.896  43.439  11.624
48697W        W13924  32.419  11.053   4.298
48698W        W13925  35.491  10.887  13.496
48699W        W13926   2.469  13.322  11.174
48700W        W13927  11.114  22.672  11.110
48701W        W13928  20.155  43.377   3.730
48702W        W13929  42.983  14.728  14.572
48703W        W13930  29.452  32.906  12.662
48704W        W13931  24.708  27.904   1.260
48705W        W13932   4.339  14.056  10.692
48706W        W13933  41.356  22.595   1.137
48707W        W13934   9.047   9.923   4.441
48708W        W13935  24.002  10.826  11.611
48709W        W13936  24.554   6.622  10.952
48710W        W13937  22.284  22.651  14.817
48711W        W13938  12.184  25.770  13.871
48712W        W13939  10.601  36.865  12.099
48713W        W13940  38.350  15.851   0.349
48714W        W13941   7.440  37.903  12.969
48715W        W13942  31.704  39.969  12.522
48716W        W13943   5.876  10.059  11.499
48717W        W13944   9.267  39.029  14.281
48718W        W13945  11.794  28.544   2.309
48719W        W13946  33.375  43.009  14.478
48720W        W13947  29.943  43.413   2.406
48721W        W13948  34.685   5.044   5.037
48722W        W13949   1.018   3.485   1.486
48723W        W13950  13.293  33.430  13.364
48724W        W13951  36.895  31.288  13.109
48725W        W13952  19.160  30.958   2.835
48726W        W13953  30.778   4.727  13.665
48727W        W13954  23.091  19.560  12.480
48728W        W13955   7.709  15.064   0.350
48729W        W13956   4.416   1.909   4.991
48730W        W13957  39.165  22.112  10.620
48731W        W13958   5.746   9.088  14.393
48732W        W13959  34.989   5.886  11.586
48733W        W13960  18.267  24.724   4.359
48734W        W13961  15.571  20.556  10.697
48735W        W13962  10.367  41.080  14.040
48736W        W13963  39.576  14.106  14.408
48737W        W13964  44.743  22.212   4.514
48738W        W13965  35.795   4.692  14.893
48739W        W13966  15.947   1.579  11.615
48740W        W13967  38.462  32.476   3.643
48741W        W13968  39.407  38.053   0.427
48742W        W13969  39.339   8.863   4.661
48743W        W13970  35.200  34.956  14.740
48744W        W13971  27.395   0.865   0.399
48745W        W13972  18.731   3.876  10.805
48746W        W13973   5.821  14.254   3.248
48747W        W13974  17.721  19.797   0.579
48748W        W13975  26.022   1.869  11.717
48749W        W13976  23.140  32.840  12.069
48750W        W13977  30.580   0.529  13.517
48751W        W13978  37.731  25.964  13.807
48752W        W13979  29.393  22.754  10.275
48753W        W13980   3.143   2.832   0.199
48754W        W13981  42.241  34.388  11.650
48755W        W13982   4.265  22.205  12.063
48756W        W13983  30.938  35.076   4.472
48757W        W13984  10.303   5.036   4.520
48758W        W13985  41.995  44.438   0.283
48759W        W13986  10.553  38.807  11.974
48760W        W13987  28.349  11.528  12.080
48761W        W13988   5.723  17.990   3.725
48762W        W13989  11.675  11.882   3.115
48763W        W13990  28.782  34.640   1.659
48764W        W13991  30.572   7.153   1.358
48765W        W13992  24.401  44.920   0.407
48766W        W13993  36.307  10.925  14.336
48767W        W13994  37.966  44.692  13.324
48768W        W13995  41.364  19.018  11.477
48769W        W13996  29.052  36.986  13.928
48770W        W13997  36.635   2.268  14.107
48771W        W13998  33.497  22.491  11.094
48772W        W13999  42.142  29.348  11.586
48773W        W14000  24.769  13.203   1.235
48774W        W14001  10.638  37.918   4.575
48775W        W14002  28.915   5.782  13.348
48776W        W14003   4.846  31.028   1.312
48777W        W14004  14.927   5.854  14.330
48778W        W14005   0.184   3.682   4.489
48779W        W14006   9.360  37.477   1.882
48780W        W14007  26.409  30.928  13.551
48781W        W14008  25.637  25.173   3.874
48782W        W14009  34.257   4.876   4.047
48783W        W14010  42.030  19.089  13.961
48784W        W14011  39.580   5.632  11.378
48785W        W14012  43.630  36.531   1.113
48786W        W14013  24.971   2.716   0.869
48787W        W14014  22.173  14.806   2.829
48788W        W14015  18.805   3.035  14.843
48789W        W14016   6.950  14.268  12.112
48790W        W14017  12.589  10.900   4.368
48791W        W14018  12.025  40.845   2.248
48792W        W14019  44.285  17.350   4.171
48793W        W14020  42.453  43.129  12.969
48794W        W14021  22.162   6.015  11.539
48795W        W14022   3.895  33.519  10.672
48796W        W14023  36.752  18.222   4.771
48797W        W14024  24.228  26.708   1.976
48798W        W14025  31.152  20.028   2.797
48799W        W14026  23.760  43.385   3.610
48800W        W14027  42.208  23.976   1.928
48801W        W14028  28.349  39.950  11.926
48802W        W14029  24.393  16.133   4.911
48803W        W14030  13.789  16.563   3.589
48804W        W14031  15.141   3.856   2.376
48805W        W14032  17.854  39.821  11.395
48806W        W14033   8.190  17.086  12.978
48807W        W14034  15.794  32.246   1.395
48808W        W14035  10.448  31.379  14.873
48809W        W14036   1.277  22.060  13.228
48810W        W14037  15.342  21.935  12.897
48811W        W14038  25.013  11.562  11.992
48812W        W14039  24.507  40.368  12.192
48813W        W14040   0.953  11.912   0.004
48814W        W14041  29.244  17.187  11.490
48815W        W14042   0.334  26.067  10.714
48816W        W14043  38.875   3.771   2.646
48817W        W14044   2.800  20.829  12.496
48818W        W14045  30.071   0.297  12.425
48819W        W14046  19.213  25.528  12.065
48820W        W14047  17.055  25.599   0.237
48821W        W14048  21.273  17.954  12.937
48822W        W14049  30.405  19.625   0.412
48823W        W14050   2.928  23.129   2.441
48824W        W14051  14.783  15.519  12.925
48825W        W14052  44.196  12.881  10.772
48826W        W14053  30.233  25.009   5.440
48827W        W14054  28.067  44.337  10.307
48828W        W14055  34.415  27.191  13.833
48829W        W14056  35.833  26.416   2.360
48830W        W14057  29.100  20.269  13.403
48831W        W14058  35.978   4.555   1.186
48832W        W14059  37.359  36.487  13.794
48833W        W14060   8.238  27.709   3.707
48834W        W14061  21.055  43.689   5.025
48835W        W14062  35.963   8.872   4.010
48836W        W14063   2.513  15.634  13.003
48837W        W14064  38.570  38.180  12.999
48838W        W14065  19.855  15.072  13.386
48839W        W14066  21.167  22.906   1.750
48840W        W14067   1.876  14.028   2.893
48841W        W14068  20.937  12.259  13.088
48842W        W14069  25.499  19.424   2.920
48843W        W14070  15.762  37.780  14.546
48844W        W14071  23.977  22.619   2.855
48845W        W14072  28.133   5.681  14.649
48846W        W14073  17.621  31.197   3.573
48847W        W14074  34.135   1.614   2.298
48848W        W14075   1.979  25.968  14.439
48849W        W14076  11.860  40.220  14.680
48850W        W14077   0.778  31.925  10.480
48851W        W14078   8.791   2.890  12.702
48852W        W14079  41.002  12.519   2.172
48853W        W14080  27.198  16.488   3.159
48854W        W14081  19.654  23.727  13.462
48855W        W14082  17.874  16.027  11.470
48856W        W14083  21.477  23.556  14.238
48857W        W14084  28.948   6.156   2.695
48858W        W14085  12.500   4.122   1.749
48859W        W14086  36.580  41.294   4.720
48860W        W14087  40.694  25.355  13.932
48861W        W14088  29.002  33.391  14.402
48862W        W14089   1.409  31.493   4.055
48863W        W14090  14.837  40.263   4.518
48864W        W14091  23.749  33.792   3.835
48865W        W14092  28.602  24.917   2.806
48866W        W14093  19.161  27.981  12.577
48867W        W14094  27.874   3.475   2.344
48868W        W14095   3.720  15.376   3.146
48869W        W14096  36.365  42.364   0.299
48870W        W14097  28.503  32.065   4.815
48871W        W14098  40.496  25.228  12.501
48872W        W14099   5.277  24.051   4.491
48873W        W14100  23.892  36.899   4.672
48874W        W14101   5.843  33.114  11.303
48875W        W14102  14.641  37.619   4.147
48876W        W14103  29.317  37.716  14.361
48877W        W14104  25.543  40.960  11.165
48878W        W14105   7.272  23.457  11.931
48879W        W14106  37.089  21.551   0.513
48880W        W14107  24.466  33.007  11.248
48881W        W14108  35.510  20.250  13.294
48882W        W14109  19.025  13.510  12.535
48883W        W14110  12.808  12.846  13.330
48884W        W14111  33.603  31.467   0.671
48885W        W14112  25.071  20.317   4.077
48886W        W14113  24.646   5.426   9.564
48887W        W14114  20.711  10.725   3.615
48888W        W14115   9.807   8.469  14.465
48889W        W14116  30.065  19.892  11.800
48890W        W14117  29.494  20.717   4.093
48891W        W14118  34.196   0.952  10.877
48892W        W14119  27.862  27.327   2.519
48893W        W14120  37.337  24.114   1.282
48894W        W14121  33.502  38.152  12.942
48895W        W14122  29.835   5.284  14.358
48896W        W14123  25.012  43.845   1.701
48897W        W14124  25.328  10.249  10.207
48898W        W14125  20.052  34.521   0.691
48899W        W14126  26.247  42.884   2.390
48900W        W14127  32.158   0.268   1.271
48901W        W14128  12.244   4.813  10.916
48902W        W14129  20.798   6.674  12.525
48903W        W14130  22.563  44.813  14.905
48904W        W14131  29.132   2.220  14.783
48905W        W14132  44.847  15.572   2.512
48906W        W14133  35.604  11.302  10.982
48907W        W14134   5.336  21.487  14.819
48908W        W14135  14.584  28.493   2.720
48909W        W14136  23.914  27.923  11.212
48910W        W14137  32.848  18.155  12.129
48911W        W14138  24.009  11.207   2.263
48912W        W14139  34.332  13.330  10.607
48913W        W14140  24.255  44.279   3.622
48914W        W14141   3.380   0.985  11.441
48915W        W14142  36.987  29.485   4.583
48916W        W14143  13.296   1.013   1.044
48917W        W14144  25.203  18.070  12.025
48918W        W14145  13.475  41.177   0.362
48919W        W14146  39.565   5.880   2.222
48920W        W14147  36.969  20.076  12.750
48921W        W14148   9.857  26.028  10.689
48922W        W14149  29.228   6.820   0.051
48923W        W14150   5.056  21.191  12.789
48924W        W14151  25.688  29.965   0.461
48925W        W14152  22.606   6.717   4.323
48926W        W14153  19.032  16.073  12.575
48927W        W14154  43.551  38.448  12.033
48928W        W14155   9.544  12.652  12.109
48929W        W14156  37.265  44.629   1.003
48930W        W14157  16.791  44.162  11.391
48931W        W14158   4.809  35.356   2.024
48932W        W14159  30.711  28.646  10.684
48933W        W14160  34.934   7.257  10.734
48934W        W14161  17.634  29.188  10.537
48935W        W14162  11.498   2.868   4.655
48936W        W14163  16.915   1.364  13.397
48937W        W14164   1.938  39.561  11.792
48938W        W14165  28.370   8.302   4.306
48939W        W14166  14.366   8.225   0.754
48940W        W14167  23.437  17.589  12.864
48941W        W14168  39.565  41.436   0.746
48942W        W14169  29.928  36.079  11.984
48943W        W14170  39.257  31.527   1.891
48944W        W14171   4.179  42.055  10.760
48945W        W14172  35.963   6.920  10.705
48946W        W14173   7.129  38.402   3.579
48947W        W14174  24.516   9.726  13.415
48948W        W14175  38.492  14.706   4.451
48949W        W14176  38.559  40.030  11.477
48950W        W14177   4.538  25.702  13.814
48951W        W14178  19.989  28.016  14.937
48952W        W14179  16.918  30.926   1.650
48953W        W14180  41.181  35.938   1.832
48954W        W14181  25.275  27.651   2.128
48955W        W14182  43.186  22.869  10.344
48956W        W14183  13.199  20.487  13.918
48957W        W14184  44.791  14.714   2.408
48958W        W14185   9.919  42.004   0.037
48959W        W14186  11.053  31.104   1.520
48960W        W14187  25.610  20.244   3.214
48961W        W14188  18.829   0.781   3.937
48962W        W14189  38.001   1.475   1.297
48963W        W14190  33.125  13.764  14.867
48964W        W14191  36.591  30.570   1.197
48965W        W14192   9.859  21.225  12.427
48966W        W14193  27.912  26.631  11.114
48967W        W14194  27.114   2.301   2.906
48968W        W14195   4.169   3.410   0.282
48969W        W14196  42.425   6.526   2.784
48970W        W14197   0.709  42.093  14.878
48971W        W14198  10.813  44.940  14.907
48972W        W14199  10.448  39.988   1.850
48973W        W14200  12.688  31.073  14.897
48974W        W14201   7.737   5.028  12.885
48975W        W14202  36.810   9.267  13.132
48976W        W14203   0.334  33.162  10.714
48977W        W14204  40.298  26.734   0.822
48978W        W14205   0.451  36.090  12.953
48979W        W14206   0.466  23.093   0.975
48980W        W14207  15.691  29.200  13.108
48981W        W14208  34.810  34.956  12.775
48982W        W14209  37.436  29.979   0.557
48983W        W14210  16.048  19.932  13.351
48984W        W14211  11.321  13.692   2.609
48985W        W14212   6.689  26.495   2.906
48986W        W14213  21.695  42.812   0.423
48987W        W14214  28.545  35.905  11.745
48988W        W14215  30.518   3.137   0.812
48989W        W14216  35.036   7.320  12.559
48990W        W14217  20.306   6.818  14.804
48991W        W14218  26.745  18.752   1.769
48992W        W14219  31.409  22.379  12.571
48993W        W14220  19.044  28.669  14.280
48994W        W14221  13.066  15.133   4.574
48995W        W14222  13.277  31.361   3.196
48996W        W14223  27.090  36.573   3.144
48997W        W14224  31.014   6.663  14.552
48998W        W14225  44.469  30.199   1.073
48999W        W14226   0.336  21.815   5.041
49000W        W14227  12.623   2.401   2.015
49001W        W14228  44.267  32.695   0.303
49002W        W14229  42.626  34.621  14.281
49003W        W14230  13.160  24.557   0.858
49004W        W14231  22.783  18.142  12.801
49005W        W14232  31.477  39.545  14.899
49006W        W14233  35.645   8.457   3.943
49007W        W14234  19.143  26.785  12.797
49008W        W14235   1.787  13.264   1.284
49009W        W14236   7.696  35.312   4.786
49010W        W14237  22.556  23.923  11.598
49011W        W14238  41.276  13.727  12.446
49012W        W14239  11.664  25.072  12.199
49013W        W14240  44.429  30.572  11.515
49014W        W14241  29.408   3.739   1.208
49015W        W14242  13.548   5.589  12.471
49016W        W14243  23.194  43.547  14.792
49017W        W14244  34.685  34.949  12.293
49018W        W14245  41.985  25.641  13.878
49019W        W14246  36.276  19.123   2.898
49020W        W14247   1.348  15.675   3.161
49021W        W14248  42.975  43.109   2.717
49022W        W14249  14.787  22.674  13.869
49023W        W14250  18.738   0.175  11.628
49024W        W14251  16.800  14.946  13.992
49025W        W14252  42.954  42.923  13.071
49026W        W14253  23.543  14.874   1.694
49027W        W14254  16.152  12.037  14.292
49028W        W14255  32.104  41.685  13.509
49029W        W14256  34.968  31.701   1.277
49030W        W14257  29.381  19.484  11.066
49031W        W14258  21.514  21.009   3.189
49032W        W14259  17.510   1.375   2.601
49033W        W14260   7.772   1.738  11.067
49034W        W14261  27.098  37.761   0.327
49035W        W14262  21.314   4.055  10.216
49036W        W14263  34.605  36.205   1.195
49037W        W14264   1.946  15.134  11.995
49038W        W14265   4.799  23.976  13.540
49039W        W14266  42.429  20.816   1.414
49040W        W14267  35.629  42.857   1.806
49041W        W14268  29.040   8.656  13.672
49042W        W14269   3.364  44.814  11.674
49043W        W14270  44.024  13.481  14.845
49044W        W14271  19.368  34.337   1.737
49045W        W14272  24.210   5.322  14.934
49046W        W14273  11.820   0.816  14.619
49047W        W14274  41.051  23.098  14.875
49048W        W14275  38.631  36.956  11.049
49049W        W14276  25.715   2.302   3.105
49050W        W14277  31.171   2.396  11.564
49051W        W14278  32.822  31.905   0.103
49052W        W14279  30.416  19.799  14.892
49053W        W14280   0.265  38.103   3.277
49054W        W14281  33.612  16.249  12.140
49055W        W14282  16.321  43.740   3.085
49056W        W14283   7.087  23.950   3.453
49057W        W14284   1.208  13.963   1.269
49058W        W14285  40.310  15.724   4.584
49059W        W14286  30.974  23.179  13.916
49060W        W14287  42.841  12.173   1.157
49061W        W14288  29.568  28.573   3.773
49062W        W14289  18.654  31.725  11.151
49063W        W14290  22.719  18.481   2.298
49064W        W14291   7.836   5.925   4.399
49065W        W14292  18.154   7.807   1.317
49066W        W14293  22.605  19.403  12.549
49067W        W14294  35.154  15.939   2.903
49068W        W14295  43.510  43.369   1.731
49069W        W14296  12.029  12.107   2.336
49070W        W14297  14.338   4.670  13.444
49071W        W14298  42.929  23.390   1.404
49072W        W14299  41.351  24.119  12.157
49073W        W14300  22.463  11.290  11.974
49074W        W14301  41.671  23.542  11.418
49075W        W14302  10.232   2.715   1.383
49076W        W14303  30.112  40.971  12.296
49077W        W14304  24.289  32.336   1.715
49078W        W14305  13.071  40.246  12.099
49079W        W14306  28.941  20.216  11.315
49080W        W14307  20.799  28.033   1.430
49081W        W14308  19.343  29.942   0.581
49082W        W14309  25.078   2.003   2.649
49083W        W14310  24.462  27.044   1.068
49084W        W14311   5.300   3.886   3.566
49085W        W14312  12.634  22.743  12.764
49086W        W14313  31.899  22.761   4.480
49087W        W14314  17.869  18.369  12.441
49088W        W14315  23.344  17.535  13.961
49089W        W14316  18.984  13.777  13.012
49090W        W14317  36.917   6.442  10.471
49091W        W14318  15.339  27.580   0.831
49092W        W14319  24.379  30.516   1.691
49093W        W14320  26.507  24.432   3.416
49094W        W14321  43.451  25.453   2.310
49095W        W14322  12.214   3.784   2.021
49096W        W14323  10.890  31.496   4.792
49097W        W14324  38.445  19.702   3.272
49098W        W14325  28.743   4.445  12.101
49099W        W14326   6.188  42.528  10.274
49100W        W14327  27.225   1.903  11.363
49101W        W14328   1.285  42.445   0.347
49102W        W14329  37.036   5.335  13.323
49103W        W14330  33.545  32.094  10.789
49104W        W14331  44.524   6.384   1.213
49105W        W14332  44.942  24.960  10.822
49106W        W14333  16.823   7.981   4.110
49107W        W14334  11.289   8.622  12.834
49108W        W14335  36.600   2.692   0.231
49109W        W14336  21.563  11.310   0.797
49110W        W14337   0.844   5.414   0.773
49111W        W14338  24.114   9.783   1.609
49112W        W14339   8.210   8.131   1.762
49113W        W14340   2.230  10.694  13.409
49114W        W14341  10.740  13.016   1.079
49115W        W14342  19.985  14.177  12.272
49116W        W14343  26.257   9.147   1.200
49117W        W14344  25.194  30.494  12.534
49118W        W14345  35.935  37.666  11.230
49119W        W14346  39.058  39.454   2.733
49120W        W14347  18.952  27.884   3.184
49121W        W14348  22.040   0.840  14.887
49122W        W14349  11.414  16.020   5.106
49123W        W14350   6.288   7.923   3.311
49124W        W14351  33.531  32.147   2.422
49125W        W14352   3.261   0.384   1.544
49126W        W14353  22.592  26.471  13.512
49127W        W14354  40.877  17.218   2.365
49128W        W14355  19.348   2.873   2.305
49129W        W14356  43.078  14.760   1.172
49130W        W14357  34.026   8.445   1.782
49131W        W14358  44.244   6.123  10.456
49132W        W14359  25.846  15.587   2.518
49133W        W14360  25.581  40.398  13.049
49134W        W14361  24.165  16.759   4.417
49135W        W14362  24.315  20.788  11.689
49136W        W14363  40.309   7.811   1.194
49137W        W14364  32.417  23.979   3.792
49138W        W14365   1.346  32.943  11.780
49139W        W14366   5.586  30.197   5.202
49140W        W14367  43.373  40.077  13.449
49141W        W14368  36.408  39.332   4.964
49142W        W14369   1.834  15.197   2.578
49143W        W14370  30.637   3.713   3.279
49144W        W14371   4.805  25.973   2.646
49145W        W14372  44.158   3.325  13.831
49146W        W14373  36.969   4.891   3.678
49147W        W14374  10.814  38.523  14.383
49148W        W14375  14.482  42.342  13.909
49149W        W14376   6.697  12.621   3.742
49150W        W14377  24.219  15.097   0.063
49151W        W14378  11.851   3.621   1.688
49152W        W14379  32.856  21.181   3.673
49153W        W14380   2.203  23.074  14.473
49154W        W14381  16.214  40.164   1.890
49155W        W14382  12.345  16.681  11.961
49156W        W14383   6.699  15.285   2.725
49157W        W14384  37.021  32.023  11.263
49158W        W14385   2.418  43.439  11.684
49159W        W14386  33.007  17.272   4.588
49160W        W14387   1.717  40.942  14.993
49161W        W14388  36.551   0.746   3.241
49162W        W14389  12.530  34.792  11.103
49163W        W14390   3.887  21.272   4.246
49164W        W14391  28.629  24.682   1.776
49165W        W14392  21.722  37.193  13.015
49166W        W14393  39.532  38.892  12.006
49167W        W14394  14.909  34.553   3.372
49168W        W14395  39.963  38.499  13.415
49169W        W14396  36.794  40.872   1.709
49170W        W14397  41.193  22.755  11.162
49171W        W14398  24.006   0.506  13.761
49172W        W14399  26.029  20.102  10.852
49173W        W14400  38.107  40.823   0.441
49174W        W14401  14.769  24.121   1.214
49175W        W14402  18.050  43.061  14.439
49176W        W14403   8.103  44.716   0.283
49177W        W14404  25.254  29.388   5.071
49178W        W14405   0.528  22.388   9.930
49179W        W14406  43.014   0.072  10.596
49180W        W14407  37.560   1.439  13.358
49181W        W14408  35.143  44.513   2.329
49182W        W14409  40.701  35.845   1.622
49183W        W14410  20.123  24.087   3.093
49184W        W14411   9.665  40.011   1.493
49185W        W14412  13.391  28.390  11.068
49186W        W14413  12.310  37.665  12.693
49187W        W14414  23.450  24.755  13.885
49188W        W14415  33.974   8.571  10.428
49189W        W14416  43.152  16.264   2.735
49190W        W14417   9.743  31.146  13.546
49191W        W14418   3.422  19.145  13.388
49192W        W14419  16.532   4.880   4.676
49193W        W14420  13.753  23.328   4.723
49194W        W14421  14.527   6.175   0.396
49195W        W14422  33.839  13.155   3.384
49196W        W14423  33.542  25.169  13.840
49197W        W14424  36.604  32.021  10.950
49198W        W14425  27.182  38.124   0.733
49199W        W14426  27.098  35.502   4.509
49200W        W14427  38.397  44.130  13.971
49201W        W14428  39.016  35.754  10.680
49202W        W14429  15.022  28.170  12.087
49203W        W14430  11.852  39.780  14.403
49204W        W14431   1.225  28.650  14.042
49205W        W14432  36.598  17.764  10.659
49206W        W14433  21.276  32.361  10.720
49207W        W14434  41.851  44.858   2.360
49208W        W14435  34.542  13.996   4.650
49209W        W14436  12.679  35.375  14.946
49210W        W14437  27.049  36.863   2.728
49211W        W14438  32.991  38.020  10.873
49212W        W14439  18.576  31.692  12.143
49213W        W14440  43.088   7.750   2.840
49214W        W14441   8.343  23.674  11.602
49215W        W14442  35.493   8.174  11.105
49216W        W14443  17.090   8.077  11.171
49217W        W14444  41.077  39.346   3.239
49218W        W14445  27.861  19.283  11.750
49219W        W14446  42.222  37.940  14.964
49220W        W14447  29.401  40.388  14.294
49221W        W14448  19.498   8.478   0.915
49222W        W14449  31.304  23.756  10.773
49223W        W14450  26.518  33.056  13.283
49224W        W14451  26.674  12.764   2.859
49225W        W14452  13.819  34.408   1.205
49226W        W14453   6.247   8.935   4.755
49227W        W14454   6.611   6.282  13.510
49228W        W14455   3.284  14.868   2.493
49229W        W14456  12.838  11.516   1.723
49230W        W14457  15.612  31.545  13.211
49231W        W14458   5.969  43.530   2.379
49232W        W14459  11.237  38.045  13.239
49233W        W14460  17.805  25.514  13.543
49234W        W14461  34.406  12.434  14.302
49235W        W14462  10.746  33.823  13.971
49236W        W14463  41.775  10.320   0.068
49237W        W14464   4.658  25.746   5.376
49238W        W14465  28.285  21.075  10.713
49239W        W14466  17.339  22.506  11.493
49240W        W14467  14.069  43.581  13.483
49241W        W14468  44.294  27.137   1.759
49242W        W14469  25.133  26.219   3.628
49243W        W14470  23.433   9.830  10.707
49244W        W14471  43.867  35.831  14.877
49245W        W14472  15.812  30.593   3.280
49246W        W14473  17.931   1.038   4.267
49247W        W14474  32.506  16.170  13.615
49248W        W14475  36.741  16.177  13.978
49249W        W14476  20.045  25.172   3.180
49250W        W14477  10.681  37.137   3.356
49251W        W14478   8.352  33.644  11.082
49252W        W14479  41.794  33.247  13.392
49253W        W14480  23.065  31.052  12.418
49254W        W14481  21.000  34.419  12.916
49255W        W14482  39.619  28.021   1.789
49256W        W14483  17.213   0.256   0.268
49257W        W14484   9.414  28.568  10.774
49258W        W14485  23.996  18.954   1.396
49259W        W14486  36.327   1.539  14.824
49260W        W14487  18.421  43.443   2.873
49261W        W14488  24.145  23.626   2.973
49262W        W14489   6.127   0.433  11.574
49263W        W14490  34.263  16.702  12.556
49264W        W14491  40.609   2.176   1.785
49265W        W14492  19.690  22.262  12.930
49266W        W14493  29.416  26.099   1.224
49267W        W14494  22.641   8.678  13.908
49268W        W14495  11.822  15.491   1.196
49269W        W14496  15.853  36.723  10.900
49270W        W14497   1.872  39.894   4.079
49271W        W14498  21.909  28.076  13.785
49272W        W14499   3.499   4.284  10.757
49273W        W14500  10.191  40.743   1.452
49274W        W14501  24.463  36.466  12.600
49275W        W14502  40.608  23.039   1.545
49276W        W14503  36.844   2.567   2.608
49277W        W14504  37.226   9.285   1.795
49278W        W14505  23.641  12.919   4.606
49279W        W14506  39.968  14.087  10.808
49280W        W14507  18.482  24.950   1.128
49281W        W14508  32.555  10.138   3.756
49282W        W14509   0.630  36.102   0.331
49283W        W14510  44.201  40.479   1.782
49284W        W14511  26.432  12.335  14.447
49285W        W14512  33.440  12.675   2.110
49286W        W14513  17.352  11.141  13.368
49287W        W14514   0.069  10.182   4.754
49288W        W14515   5.894  32.365   0.447
49289W        W14516  26.428   0.050   1.878
49290W        W14517  39.057  20.201  12.123
49291W        W14518  15.525  32.428  11.057
49292W        W14519  12.872  20.128   4.523
49293W        W14520  23.005   2.941   1.978
49294W        W14521  43.373  33.488  14.035
49295W        W14522  38.597  34.502   3.127
49296W        W14523   6.898  18.146  11.140
49297W        W14524  40.502   4.832   2.244
49298W        W14525  34.229  36.264   5.050
49299W        W14526  40.212  42.670   3.101
49300W        W14527  23.093  13.709   3.681
49301W        W14528  14.538  12.118   0.396
49302W        W14529  36.077  42.780   0.080
49303W        W14530  13.233  10.903   3.221
49304W        W14531  27.752  34.449   1.692
49305W        W14532  25.140   7.303  10.462
49306W        W14533  34.078  29.000  12.055
49307W        W14534  29.062  20.602  12.975
49308W        W14535   5.830  44.546  11.992
49309W        W14536   9.220   4.747   2.185
49310W        W14537  44.144  18.744  13.360
49311W        W14538   7.869  35.361   1.980
49312W        W14539  21.714   5.951   1.995
49313W        W14540  43.061  37.992   4.527
49314W        W14541  17.269  14.119   1.375
49315W        W14542   4.690   0.996  12.210
49316W        W14543  12.788  30.847  10.345
49317W        W14544  11.154  11.667  14.319
49318W        W14545   3.331  34.756   4.046
49319W        W14546  13.172  40.844  13.363
49320W        W14547  37.343  18.053  13.825
49321W        W14548  14.448   9.043   2.820
49322W        W14549   3.858   5.945  13.017
49323W        W14550  15.601   1.786   3.788
49324W        W14551   9.243   3.879  11.562
49325W        W14552  31.089  21.656   2.802
49326W        W14553  24.296  34.208  12.006
49327W        W14554  10.341  10.667  13.321
49328W        W14555   3.493  36.066  13.263
49329W        W14556  43.946   9.051  13.142
49330W        W14557  40.941   0.767  13.670
49331W        W14558   7.378   4.305  13.267
49332W        W14559  38.633  39.968  14.419
49333W        W14560  20.081  18.936   0.566
49334W        W14561  17.598   1.913   3.685
49335W        W14562  43.069  31.027   3.824
49336W        W14563   0.548  30.015  14.521
49337W        W14564  34.445  31.739  14.076
49338W        W14565  31.021  14.908   4.514
49339W        W14566  42.125  39.127  14.956
49340W        W14567   9.361  15.895   1.515
49341W        W14568   6.007   1.729   0.957
49342W        W14569  31.719  26.432  13.544
49343W        W14570  34.937  44.882   3.335
49344W        W14571  30.222  43.245  13.924
49345W        W14572   9.214   7.172   1.483
49346W        W14573  10.137   4.471  13.857
49347W        W14574  22.033  30.955   0.409
49348W        W14575   6.679  26.964  12.112
49349W        W14576   0.867  29.917   3.644
49350W        W14577  28.693  43.229  11.559
49351W        W14578  10.145  34.907   1.775
49352W        W14579  31.972   3.656  11.214
49353W        W14580  22.282  42.486  11.054
49354W        W14581  17.692  18.979  10.717
49355W        W14582  11.344  37.292  14.357
49356W        W14583  31.620  10.624  14.481
49357W        W14584  18.290  14.403   2.704
49358W        W14585   8.712   4.679  13.858
49359W        W14586  12.434  32.243  12.579
49360W        W14587  30.384  26.865   2.731
49361W        W14588  41.131  37.997  12.056
49362W        W14589  43.828  30.004   3.396
49363W        W14590  26.225  39.421   2.743
49364W        W14591  28.000  24.141   0.281
49365W        W14592  28.084  36.109  12.309
49366W        W14593  39.831  11.776   1.214
49367W        W14594  43.387  10.182   2.251
49368W        W14595   7.686   4.583   1.919
49369W        W14596  44.439  16.221   0.936
49370W        W14597  31.672  14.370  14.889
49371W        W14598  10.829  13.207   1.534
49372W        W14599  38.504  16.570  11.880
49373W        W14600   3.243  23.439  11.511
49374W        W14601  25.999  28.622  11.544
49375W        W14602   9.775  36.294  14.778
49376W        W14603  20.249   5.476   2.976
49377W        W14604  14.334  30.356  14.817
49378W        W14605  31.108  37.058  11.991
49379W        W14606  12.756  21.172   2.412
49380W        W14607  24.402  18.298  14.402
49381W        W14608   5.773  17.473   3.849
49382W        W14609  18.518  43.004   0.784
49383W        W14610   8.118  30.516   2.802
49384W        W14611  15.551   0.922  12.002
49385W        W14612  32.034  38.843   2.537
49386W        W14613  41.466  23.912  13.508
49387W        W14614  13.772   9.330  14.938
49388W        W14615   3.723  33.987   0.861
49389W        W14616  11.967  21.825   4.019
49390W        W14617   3.657  29.410  12.490
49391W        W14618  43.722  24.553   1.366
49392W        W14619  41.462  40.379  14.396
49393W        W14620   7.090  26.333  14.439
49394W        W14621  32.847  21.559   2.425
49395W        W14622  37.758  30.418  10.692
49396W        W14623  28.860   3.002  13.071
49397W        W14624  10.605  12.818   1.801
49398W        W14625  44.384  12.940   1.300
49399W        W14626  27.862   9.737   1.258
49400W        W14627  35.441   7.211   0.028
49401W        W14628  12.841  22.056  12.140
49402W        W14629  30.167   2.030   4.134
49403W        W14630  20.611   2.132  10.568
49404W        W14631  22.487  22.245   2.800
49405W        W14632  17.746  13.838  10.613
49406W        W14633  37.888  13.776   3.675
49407W        W14634  25.990   2.574  11.124
49408W        W14635   6.172  43.950  14.223
49409W        W14636  39.063  14.082   4.497
49410W        W14637  24.868  40.322   3.345
49411W        W14638  37.319  42.051   1.323
49412W        W14639   2.395  13.652  13.599
49413W        W14640   6.229  19.062  13.021
49414W        W14641  37.856  16.006   0.390
49415W        W14642  20.497  13.967  12.539
49416W        W14643  42.636  17.096   1.732
49417W        W14644  29.473   1.602  11.958
49418W        W14645  28.060  26.038  13.467
49419W        W14646  37.645   3.845  11.283
49420W        W14647  35.368  26.056  14.476
49421W        W14648  34.548  43.152   1.470
49422W        W14649  24.750  41.742  10.426
49423W        W14650  35.615  34.367  13.112
49424W        W14651   5.724  42.355   4.515
49425W        W14652  12.599  41.986   4.621
49426W        W14653   1.572  21.225   4.161
49427W        W14654  11.819  13.837   2.757
49428W        W14655  14.546   0.031  14.989
49429W        W14656  34.040   9.705   4.780
49430W        W14657  31.531  19.317   0.851
49431W        W14658  17.511  40.169  11.277
49432W        W14659  15.513  12.840   0.764
49433W        W14660  21.171  11.106  10.235
49434W        W14661   8.737  44.770   2.727
49435W        W14662  44.335  15.691   1.645
49436W        W14663   8.902  27.089   0.548
49437W        W14664  41.762   6.220   1.056
49438W        W14665  33.599  20.312  13.351
49439W        W14666  30.406  18.446   2.179
49440W        W14667  42.129  26.669   4.900
49441W        W14668  44.664  38.678  12.999
49442W        W14669  18.244  26.439  12.413
49443W        W14670  12.708   3.470   3.307
49444W        W14671  33.920  23.414   4.782
49445W        W14672   6.040  18.297   4.017
49446W        W14673   8.424  39.909   2.400
49447W        W14674  22.528  39.349   0.084
49448W        W14675  26.117  31.553  13.604
49449W        W14676  42.450   1.051   3.725
49450W        W14677  17.682  38.947  13.287
49451W        W14678  25.156  16.636   4.084
49452W        W14679  37.041  26.959  13.007
49453W        W14680  12.322   0.258   4.885
49454W        W14681  11.318  26.578   0.079
49455W        W14682  21.529  31.344  11.084
49456W        W14683  42.445  40.828   4.405
49457W        W14684  23.832  13.365  14.905
49458W        W14685  20.647  29.773   2.711
49459W        W14686  36.254  17.483  10.922
49460W        W14687  41.839  13.567  12.439
49461W        W14688  24.044  36.516   1.194
49462W        W14689  10.405  40.550  14.093
49463W        W14690   4.188  27.871  12.011
49464W        W14691  29.330  18.204  10.733
49465W        W14692  32.975  17.992   3.178
49466W        W14693  17.342  26.481  14.051
49467W        W14694  14.898  18.080   3.576
49468W        W14695  33.117   3.964  14.467
49469W        W14696  33.101  26.319  11.255
49470W        W14697  25.516  24.019  14.506
49471W        W14698  11.601   6.224   2.852
49472W        W14699  37.096   0.869   3.194
49473W        W14700  22.253  24.466   1.734
49474W        W14701  17.122  24.177  11.162
49475W        W14702   0.216  16.748   1.937
49476W        W14703   8.996  27.737  11.239
49477W        W14704  33.402  43.215   2.227
49478W        W14705   4.211  18.787   0.821
49479W        W14706  26.696   3.244  12.609
49480W        W14707  43.354   0.511   4.582
49481W        W14708  38.532  17.967   2.090
49482W        W14709   4.504  27.360   4.999
49483W        W14710  39.633  44.881   0.783
49484W        W14711   2.995   8.768   3.290
49485W        W14712  17.257   6.747  11.506
49486W        W14713  19.847  21.189  10.736
49487W        W14714  33.860  41.413  12.128
49488W        W14715  44.663  23.524  13.417
49489W        W14716  37.605  16.069  14.401
49490W        W14717  27.031  42.869   3.078
49491W        W14718   9.238  18.590  13.393
49492W        W14719  37.225  20.273  13.550
49493W        W14720   9.584  40.777  13.877
49494W        W14721  20.101  32.813  12.061
49495W        W14722  27.877  18.693   3.626
49496W        W14723  23.429  13.270  11.172
49497W        W14724   4.489   4.618  12.928
49498W        W14725  43.968  34.092  12.011
49499W        W14726  25.387  31.790   3.609
49500W        W14727  35.790  27.589   4.498
49501W        W14728  25.748   5.833   1.301
49502W        W14729  14.065  44.835  13.854
49503W        W14730  22.778   5.475   3.072
49504W        W14731  10.591  32.958  12.713
49505W        W14732   2.734  35.536   2.645
49506W        W14733  26.141  13.797   4.377
49507W        W14734   1.890  44.941  12.636
49508W        W14735  38.266  17.114  10.784
49509W        W14736  22.474  39.312   3.939
49510W        W14737  11.213  36.650   2.599
49511W        W14738  17.946   9.826   1.230
49512W        W14739   5.976   8.404   4.260
49513W        W14740  20.003   4.654   2.688
49514W        W14741  40.436  20.024  14.790
49515W        W14742  41.015   0.545  11.029
49516W        W14743   3.761   0.516   4.065
49517W        W14744  34.087  38.387  14.505
49518W        W14745   5.371  22.747   2.160
49519W        W14746  30.078   7.246   0.106
49520W        W14747  14.233  42.050  10.792
49521W        W14748  32.855  44.311   3.138
49522W        W14749  21.406   8.329   3.785
49523W        W14750  42.333  13.109  12.745
49524W        W14751   6.229  29.001  11.222
49525W        W14752  25.451   8.718  12.428
49526W        W14753  15.449  33.643   4.919
49527W        W14754  39.025  42.195  11.180
49528W        W14755  24.567   6.436   2.753
49529W        W14756  25.689  38.474  13.401
49530W        W14757  37.907  13.197   4.843
49531W        W14758  39.026  12.665   5.040
49532W        W14759   0.087  16.052   5.362
49533W        W14760  20.116  28.845   0.539
49534W        W14761  11.919   7.597   4.062
49535W        W14762   6.339  14.136   4.520
49536W        W14763  14.869   4.181  11.199
49537W        W14764  29.879  12.325   3.242
49538W        W14765  13.731  10.069   2.102
49539W        W14766  36.268   9.712   3.851
49540W        W14767   3.391  20.812  14.150
49541W        W14768  34.554  14.633  10.708
49542W        W14769  26.331  44.924  12.156
49543W        W14770   0.498  23.794   1.445
49544W        W14771  38.055   0.372  14.120
49545W        W14772   8.236  38.088  14.380
49546W        W14773  35.611  11.908  11.122
49547W        W14774  39.375  16.406   3.802
49548W        W14775   0.236  32.092   2.632
49549W        W14776  29.099  36.449   4.855
49550W        W14777  17.647  36.790   2.703
49551W        W14778  25.541   2.024  11.627
49552W        W14779  39.569  30.211  13.442
49553W        W14780  35.459  28.487  11.460
49554W        W14781  13.645  18.120   3.585
49555W        W14782  19.284  38.389   2.662
49556W        W14783  36.087  42.105   1.826
49557W        W14784  36.502  30.406  11.169
49558W        W14785  41.921  32.616  12.239
49559W        W14786  38.161  42.284   1.545
49560W        W14787  39.400   5.811   1.731
49561W        W14788   6.129  43.397   3.550
49562W        W14789  42.514  37.336  13.920
49563W        W14790  43.686   0.513  14.969
49564W        W14791   4.686  10.751  12.886
49565W        W14792  18.810  16.675   0.425
49566W        W14793  44.372   1.364  12.992
49567W        W14794  22.146  41.189   2.777
49568W        W14795   3.521  28.994  11.100
49569W        W14796  36.622   0.452  11.260
49570W        W14797  10.078  33.263  14.202
49571W        W14798  40.072  21.755  11.065
49572W        W14799   9.926   0.926  10.642
49573W        W14800  43.386  20.406   0.074
49574W        W14801  39.490  42.350   1.949
49575W        W14802  16.216  24.047   2.318
49576W        W14803  17.848  15.051   3.706
49577W        W14804  14.945  22.449  10.755
49578W        W14805  43.304   1.918  11.679
49579W        W14806   9.335  23.492  13.479
49580W        W14807  31.100   0.476  13.983
49581W        W14808   1.021  29.614  12.541
49582W        W14809  42.870  29.542   2.790
49583W        W14810  44.808   8.339  14.542
49584W        W14811  20.625  27.055   2.418
49585W        W14812  31.582  40.540  11.079
49586W        W14813  43.599  14.855   3.583
49587W        W14814  13.131   2.696  12.020
49588W        W14815  25.599  34.124  14.513
49589W        W14816  35.197   0.481  13.218
49590W        W14817  41.404  27.508   3.679
49591W        W14818  25.964  12.740   3.181
49592W        W14819  18.968  34.182  11.142
49593W        W14820  19.280  40.013  14.723
49594W        W14821  12.377  29.981  12.856
49595W        W14822   7.158  38.864   4.345
49596W        W14823  25.975  14.611   2.824
49597W        W14824  43.967  43.112  13.155
49598W        W14825  44.148  27.096   3.840
49599W        W14826   3.007  10.130   1.321
49600W        W14827  18.594  28.161  13.505
49601W        W14828  29.049  22.281  11.964
49602W        W14829  42.210  21.596   2.812
49603W        W14830  18.656  14.891   0.778
49604W        W14831   3.238  30.482  13.969
49605W        W14832  13.462  41.568  12.702
49606W        W14833  42.714   0.337   2.376
49607W        W14834  26.039  33.669  11.157
49608W        W14835  29.129   4.782  11.951
49609W        W14836  19.530  29.219  11.190
49610W        W14837  40.379  11.406   4.097
49611W        W14838  12.148  36.915  13.367
49612W        W14839   1.329  35.569  11.976
49613W        W14840   8.760  38.350  13.110
49614W        W14841  22.453   3.720  13.938
49615W        W14842   8.962  23.027   3.225
49616W        W14843  27.944  14.739   4.812
49617W        W14844   2.151  43.445   3.279
49618W        W14845  42.899  27.263  14.891
49619W        W14846  18.355  11.550  14.994
49620W        W14847  36.605  32.633  11.659
49621W        W14848  34.379   2.004  12.887
49622W        W14849   8.401  15.892   4.466
49623W        W14850  27.221   8.745   0.285
49624W        W14851  40.823   9.930  10.596
49625W        W14852  39.597  13.431  13.506
49626W        W14853  40.939  19.287  14.784
49627W        W14854  29.185  26.729  12.069
49628W        W14855  10.904   1.191  14.434
49629W        W14856   0.393  42.106   2.771
49630W        W14857  31.697  38.785   4.575
49631W        W14858  24.159  42.397   4.486
49632W        W14859  27.767  41.842  12.178
49633W        W14860  11.883   5.319   4.776
49634W        W14861  39.573  19.035   0.349
49635W        W14862  14.537  35.574  10.677
49636W        W14863  12.586  27.365  14.848
49637W        W14864  25.077  36.300   3.615
49638W        W14865  36.356  22.081   3.678
49639W        W14866  31.212  24.082   3.806
49640W        W14867   3.456  41.588   2.875
49641W        W14868  29.846  17.260   4.913
49642W        W14869  28.857  40.868  13.980
49643W        W14870  42.833  18.081  13.986
49644W        W14871  24.781  44.939  12.520
49645W        W14872  35.929   0.821  14.831
49646W        W14873  27.566   4.616  12.180
49647W        W14874  35.599  35.691  11.118
49648W        W14875  18.230  41.559  13.539
49649W        W14876   7.925  24.065   5.027
49650W        W14877  29.387  14.716  14.868
49651W        W14878  31.662  44.993  11.146
49652W        W14879  15.065  38.046  12.006
49653W        W14880   9.509  31.848   4.059
49654W        W14881  27.047  44.244   3.379
49655W        W14882   5.249  10.712  12.961
49656W        W14883   4.618  37.872   2.398
49657W        W14884  23.397  24.035  11.258
49658W        W14885  10.841  16.027   4.411
49659W        W14886  20.008  13.764   0.344
49660W        W14887  25.216  32.284   3.240
49661W        W14888  17.796   1.404  11.620
49662W        W14889  14.585  14.802  11.995
49663W        W14890  12.840  41.560   4.443
49664W        W14891  38.763  25.706  14.910
49665W        W14892  40.834  12.818  10.730
49666W        W14893  17.851  24.006   0.237
49667W        W14894  17.794  30.424   1.731
49668W        W14895   3.981  23.043   3.491
49669W        W14896  24.583   2.936  12.575
49670W        W14897  44.491  43.225  13.971
49671W        W14898  15.869   2.616  10.866
49672W        W14899   5.642  20.636   1.788
49673W        W14900  34.532  39.095   0.903
49674W        W14901   6.750   2.170   0.771
49675W        W14902   6.269  23.149   4.794
49676W        W14903  13.179   0.293  14.826
49677W        W14904   9.841  34.814   3.751
49678W        W14905  16.382  31.212  11.614
49679W        W14906   4.759  30.357   3.269
49680W        W14907  34.215  21.165   2.236
49681W        W14908  10.886  29.596  13.192
49682W        W14909  24.366  40.303  10.781
49683W        W14910  44.537  17.218  11.517
49684W        W14911   7.492  10.906  13.528
49685W        W14912   3.906  14.203  14.859
49686W        W14913  10.653  36.509  14.196
49687W        W14914  26.686  36.740  13.999
49688W        W14915  18.361  20.768   4.806
49689W        W14916  34.753  12.807  13.592
49690W        W14917  12.844   0.713  10.846
49691W        W14918   5.846   9.954   1.438
49692W        W14919  44.309  31.932   4.640
49693W        W14920   1.575  27.931  14.353
49694W        W14921  21.261  24.240  12.978
49695W        W14922  31.727  40.241  10.697
49696W        W14923  40.619  36.010  13.058
49697W        W14924  40.357  12.790  14.240
49698W        W14925   4.510  24.131  13.011
49699W        W14926  28.326  16.893  14.253
49700W        W14927  20.734   8.136   2.122
49701W        W14928   4.264   6.804  12.589
49702W        W14929   5.198  16.682  14.193
49703W        W14930  26.128  26.012  14.503
49704W        W14931   4.269   7.955  13.309
49705W        W14932  11.161  19.920  10.813
49706W        W14933  32.607  12.709  12.871
49707W        W14934  33.135  17.262  14.442
49708W        W14935   7.814  26.715   4.515
49709W        W14936  25.331  31.351   4.717
49710W        W14937  39.747  43.442   0.869
49711W        W14938   7.341  26.113   0.821
49712W        W14939  23.482  38.609   4.211
49713W        W14940  30.994   7.242  11.284
49714W        W14941  20.390  34.801   4.211
49715W        W14942   3.085   3.313   9.935
49716W        W14943  17.180  11.687  14.501
49717W        W14944  33.192  39.022   0.398
49718W        W14945  29.937  41.418  14.792
49719W        W14946  31.196  22.760   3.515
49720W        W14947  28.157  33.321   2.790
49721W        W14948  38.302  10.454  13.530
49722W        W14949  11.215   3.936   2.732
49723W        W14950  28.623  38.840   4.548
49724W        W14951  11.201   9.642  11.576
49725W        W14952  11.599   9.298   4.810
49726W        W14953  10.108  25.125   1.318
49727W        W14954  40.916  21.294   4.367
49728W        W14955  43.395  30.836   2.481
49729W        W14956  11.202   9.547  14.254
49730W        W14957  24.057  37.935   4.337
49731W        W14958  16.731  10.212   3.343
49732W        W14959  15.765  25.263  14.497
49733W        W14960  21.673   3.362  11.672
49734W        W14961  28.346  21.112  13.868
49735W        W14962  18.965  32.992  14.293
49736W        W14963  21.243   8.945   0.340
49737W        W14964  39.059  13.192  14.290
49738W        W14965  23.611   1.775   1.463
49739W        W14966  13.406   5.240   4.244
49740W        W14967  44.316  29.270  11.099
49741W        W14968   7.313  23.673  14.382
49742W        W14969  39.250  18.851   3.652
49743W        W14970  11.789  44.023  12.407
49744W        W14971  44.895  35.858   1.552
49745W        W14972  17.824  44.730  14.280
49746W        W14973  28.673  35.029   0.513
49747W        W14974   1.316  11.626   4.396
49748W        W14975  36.600   7.636  13.671
49749W        W14976  31.968  43.295   2.202
49750W        W14977   9.344  36.972   1.601
49751W        W14978  41.874   9.885  12.968
49752W        W14979  24.673   8.373  13.381
49753W        W14980  15.554  19.794  14.428
49754W        W14981  41.472   9.831  13.307
49755W        W14982   7.831  14.076   1.508
49756W        W14983  21.835  39.959   3.798
49757W        W14984  38.111  33.220  13.949
49758W        W14985  20.237  13.267   1.811
49759W        W14986  31.405  23.316  11.584
49760W        W14987   6.394  39.398   4.742
49761W        W14988  17.133  37.158   1.852
49762W        W14989  16.151  22.189  11.488
49763W        W14990  13.944  10.501   0.774
49764W        W14991  32.862   7.855  11.597
49765W        W14992   5.254  25.989   2.191
49766W        W14993  25.668  21.143  11.882
49767W        W14994  24.477  14.862  13.554
49768W        W14995  23.923  10.173  12.037
49769W        W14996  28.075  30.430   4.391
49770W        W14997  19.660  41.471   2.915
49771W        W14998  25.629   2.518   4.014
49772W        W14999  31.522  43.270  14.365
49773W        W15000   1.931  30.753  13.550
49774W        W15001  35.361  39.457   3.662
49775W        W15002   2.487  42.664   0.709
49776W        W15003  40.402  27.784  10.455
49777W        W15004   6.300  21.341   9.998
49778W        W15005  27.524  19.788  13.051
49779W        W15006  24.615  21.231  14.805
49780W        W15007  44.846  14.632   1.910
49781W        W15008  21.721  26.159   4.315
49782W        W15009  10.096   7.839  10.616
49783W        W15010  20.447  20.203  14.856
49784W        W15011   7.199  14.125   4.047
49785W        W15012  44.925  43.479   2.622
49786W        W15013  12.101  17.596  14.335
49787W        W15014   8.197  18.600  14.282
49788W        W15015   7.541  24.189   4.720
49789W        W15016  33.428  36.995   0.880
49790W        W15017  24.721  38.800   0.304
49791W        W15018   6.895  34.318   3.257
49792W        W15019  41.532  42.879  10.741
49793W        W15020  21.663  39.872  12.134
49794W        W15021  13.784  41.911   0.061
49795W        W15022  44.862  33.912  12.823
49796W        W15023  21.725  44.266  14.424
49797W        W15024  20.319  40.588  14.947
49798W        W15025  44.613  35.996   1.969
49799W        W15026  12.622  41.420   1.329
49800W        W15027   0.225  10.974   1.085
49801W        W15028  34.554  13.508   4.527
49802W        W15029  33.626  20.523   4.597
49803W        W15030  26.682  19.205   1.238
49804W        W15031  39.560  13.898   0.365
49805W        W15032  38.322  26.656   1.138
49806W        W15033  34.986  25.942   2.816
49807W        W15034  19.303  43.361   2.732
49808W        W15035  29.847  35.964   4.878
49809W        W15036  15.155  11.416   1.377
49810W        W15037  27.971  26.967   0.454
49811W        W15038   5.681  37.865   2.398
49812W        W15039  20.046  30.227   4.198
49813W        W15040  29.913   7.439  11.453
49814W        W15041  36.455   1.990   0.028
49815W        W15042  13.611  10.894   0.812
49816W        W15043  37.824  36.951  12.591
49817W        W15044   9.750  40.045   0.952
49818W        W15045  35.829  41.127   1.856
49819W        W15046  21.065  12.201   0.798
49820W        W15047  41.428  14.819  13.950
49821W        W15048  38.314  42.767   2.803
49822W        W15049  30.902  21.975   2.419
49823W        W15050  19.853  41.154   0.454
49824W        W15051  28.133  41.494   2.375
49825W        W15052  16.433  36.045   2.726
49826W        W15053  24.372  15.099  12.281
49827W        W15054   6.659   5.789  12.978
49828W        W15055  25.627   7.625  12.152
49829W        W15056  13.183  28.556  12.494
49830W        W15057  35.014  41.988   4.070
49831W        W15058  42.476  14.813  13.390
49832W        W15059  16.236  28.757  11.723
49833W        W15060  35.370   2.407   1.335
49834W        W15061  34.593  41.596  14.086
49835W        W15062  11.123  12.991  13.044
49836W        W15063  34.771  18.377   1.912
49837W        W15064   7.011   5.393   0.459
49838W        W15065  42.412  26.384  10.780
49839W        W15066  16.285  17.119   1.790
49840W        W15067  25.974  43.274   3.746
49841W        W15068  33.736  17.728   3.685
49842W        W15069  35.914  37.052   1.795
49843W        W15070  32.254   7.513  11.570
49844W        W15071  33.673  39.531  12.387
49845W        W15072  40.145   7.045   5.218
49846W        W15073  35.888  30.217  12.454
49847W        W15074  22.192  27.070  12.025
49848W        W15075  10.313   2.195   0.277
49849W        W15076  37.247   0.048   3.679
49850W        W15077  10.727  36.661  13.342
49851W        W15078  12.839  39.696   0.892
49852W        W15079  22.502  42.231  10.654
49853W        W15080  19.211  12.673  10.779
49854W        W15081  31.177  19.569   3.647
49855W        W15082  28.076   9.622  10.329
49856W        W15083   5.334  12.052   0.355
49857W        W15084  20.577   3.332   2.260
49858W        W15085  41.186  20.964  14.220
49859W        W15086  36.866  12.539  11.223
49860W        W15087  12.742  12.368   1.656
49861W        W15088  10.736  16.287  12.026
49862W        W15089  25.443  28.143  13.861
49863W        W15090  12.254  33.126   4.032
49864W        W15091  19.233  43.433  13.064
49865W        W15092  10.551   0.797   2.635
49866W        W15093   7.985  16.260  12.037
49867W        W15094   1.444   7.841   3.270
49868W        W15095  15.727  29.962   0.662
49869W        W15096   8.391   6.233   0.813
49870W        W15097  37.524  36.338  13.345
49871W        W15098   4.914  32.061   1.320
49872W        W15099   5.610   5.908   2.419
49873W        W15100  34.053  22.788   0.239
49874W        W15101  17.823   1.671  10.942
49875W        W15102  14.447   3.066   1.647
49876W        W15103  15.333  13.768  14.198
49877W        W15104   6.438   3.869  11.793
49878W        W15105  25.200  34.292  12.871
49879W        W15106  31.857  19.658   2.203
49880W        W15107   3.992  19.645   3.274
49881W        W15108  10.293  11.392   1.321
49882W        W15109  17.135  32.192   1.703
49883W        W15110  36.530  11.110  13.890
49884W        W15111  36.077  38.572   4.606
49885W        W15112  39.958  36.057  14.989
49886W        W15113  42.117  19.587   0.974
49887W        W15114   4.912  42.175  14.378
49888W        W15115  30.554  29.916  10.803
49889W        W15116  24.103  39.251   3.124
49890W        W15117  43.057  33.018  12.981
49891W        W15118  35.492  44.112   2.241
49892W        W15119  30.174  44.460   2.242
49893W        W15120  37.649  25.369  13.776
49894W        W15121  11.193  40.521   1.776
49895W        W15122  10.665   8.222  13.861
49896W        W15123  25.150  30.560  14.108
49897W        W15124   5.078  11.779  12.900
49898W        W15125  41.515  16.890   1.469
49899W        W15126  18.597  14.768  10.981
49900W        W15127  32.514  31.059   4.952
49901W        W15128   5.287  27.108   2.198
49902W        W15129   1.272   5.857  14.511
49903W        W15130  13.731  13.653  13.518
49904W        W15131   1.748  41.805  14.919
49905W        W15132  26.962  43.223  10.702
49906W        W15133  22.512   4.442   4.491
49907W        W15134  36.866  40.132   0.829
49908W        W15135  40.302   9.234   0.936
49909W        W15136  16.720  13.351  11.430
49910W        W15137  11.519   4.606   2.793
49911W        W15138  30.706  19.415  12.132
49912W        W15139  37.401  15.659  12.119
49913W        W15140  37.917  13.174   4.322
49914W        W15141   3.424   8.837   4.691
49915W        W15142  19.714  14.807  10.726
49916W        W15143  30.977  44.130  13.512
49917W        W15144   8.400  25.497  11.981
49918W        W15145  22.563  25.992  10.813
49919W        W15146  30.820  30.191  12.642
49920W        W15147  24.103  16.799   2.225
49921W        W15148  34.447  35.454   1.685
49922W        W15149  14.382  23.622   1.439
49923W        W15150   5.724  37.426  12.076
49924W        W15151  38.301  39.376   3.264
49925W        W15152  36.305   5.661   3.224
49926W        W15153  16.714  41.846  14.371
49927W        W15154  37.014  35.822   3.086
49928W        W15155  26.996   2.572   0.348
49929W        W15156   5.435  43.410  10.625
49930W        W15157  39.778   4.378   9.916
49931W        W15158   5.544   9.712   0.493
49932W        W15159   7.886  22.592   0.516
49933W        W15160  42.693  35.435   2.321
49934W        W15161  33.296  40.341   0.376
49935W        W15162  17.747  18.603   3.288
49936W        W15163   4.712   7.605   2.227
49937W        W15164   3.905  42.232   3.639
49938W        W15165  17.550  40.794   3.288
49939W        W15166  34.349  39.477  11.462
49940W        W15167  17.070  27.403  11.644
49941W        W15168  24.195   5.829  14.896
49942W        W15169  14.293  43.231   2.190
49943W        W15170  11.782  40.353   0.201
49944W        W15171  25.479  31.346   3.318
49945W        W15172  10.567  35.560   2.245
49946W        W15173  35.883  31.389   4.157
49947W        W15174   3.424  21.268   0.915
49948W        W15175  24.129   0.677   2.163
49949W        W15176  21.613   6.667  11.875
49950W        W15177  27.227  42.853   2.105
49951W        W15178  31.228  27.121   2.451
49952W        W15179  20.991   0.346   1.040
49953W        W15180  40.058  37.082  14.813
49954W        W15181  16.663  27.817   0.565
49955W        W15182   4.067  36.726  10.649
49956W        W15183  20.945  39.997   3.561
49957W        W15184   4.179  37.196   0.936
49958W        W15185  13.816  28.913   2.694
49959W        W15186   3.209  35.680   1.230
49960W        W15187  36.092  19.052  14.376
49961W        W15188   6.503   6.628   1.902
49962W        W15189  17.094  14.795  12.820
49963W        W15190  43.536   0.603  14.468
49964W        W15191   1.353  18.989   3.211
49965W        W15192  15.825   5.420  10.641
49966W        W15193  28.254  43.625  14.947
49967W        W15194  38.422  29.410  13.175
49968W        W15195  12.769  29.856   4.139
49969W        W15196  22.476  33.587  14.637
49970W        W15197  14.181  12.372  12.917
49971W        W15198  23.153  25.607   3.662
49972W        W15199  22.946  18.551   1.371
49973W        W15200  44.270  21.832   5.419
49974W        W15201  12.828  26.253  12.373
49975W        W15202  33.304  24.154   0.122
49976W        W15203  37.595  14.505  13.102
49977W        W15204  24.810   2.962  11.548
49978W        W15205  31.379  44.589  11.265
49979W        W15206  20.537  11.706   1.974
49980W        W15207  22.206  39.946  11.994
49981W        W15208  37.992  38.945   0.719
49982W        W15209  10.449  23.107   1.823
49983W        W15210  15.409  44.331   0.360
49984W        W15211  26.672  27.433  10.316
49985W        W15212  40.075  18.679  14.394
49986W        W15213  23.582  15.082  12.818
49987W        W15214  27.206  38.930   1.711
49988W        W15215   8.081  17.564   3.531
49989W        W15216  37.319  29.935   1.466
49990W        W15217   0.228  35.594   1.286
49991W        W15218  25.029  24.134  14.788
49992W        W15219  36.706  35.372   4.445
49993W        W15220  30.951  35.072   3.602
49994W        W15221  31.086   8.938   2.410
49995W        W15222   2.671  29.947  11.130
49996W        W15223  38.606  40.807  12.717
49997W        W15224  12.621  26.099  11.922
49998W        W15225  19.950  43.301   3.253
49999W        W15226  38.906   8.552   2.831
50000W        W15227  12.671  17.447   4.715
50001W        W15228  41.009  17.178   1.230
50002W        W15229  39.489   3.296  10.686
50003W        W15230  29.965  16.675   3.765
50004W        W15231   9.766  38.263   0.426
50005W        W15232  29.738  31.995  12.443
50006W        W15233   1.480   0.817  11.641
50007W        W15234  33.525  37.623  12.536
50008W        W15235  28.918  16.316   1.902
50009W        W15236   1.810  36.507   3.287
50010W        W15237   0.995  42.635   1.811
50011W        W15238   9.306  43.718  14.080
50012W        W15239  41.740  42.686   3.288
50013W        W15240  15.009  31.293   1.855
50014W        W15241  42.138  24.126   4.092
50015W        W15242  17.268  44.229  11.163
50016W        W15243  29.139   2.018   4.224
50017W        W15244  35.344  10.484  12.575
50018W        W15245  16.752   8.735   4.605
50019W        W15246  13.827  43.583   4.674
50020W        W15247  30.993   5.438  14.107
50021W        W15248  35.245   5.768  14.030
50022W        W15249   8.346  18.826   3.713
50023W        W15250   1.171  38.081  11.660
50024W        W15251  27.935  17.597   0.149
50025W        W15252  32.532  30.689  14.308
50026W        W15253  17.467  26.420  11.193
50027W        W15254  20.031  10.391   0.737
50028W        W15255  10.561   8.735   2.553
50029W        W15256   9.198  11.777   0.462
50030W        W15257  42.663  38.829  14.053
50031W        W15258   7.031  30.516   4.164
50032W        W15259  19.370  36.255   3.770
50033W        W15260   9.033  23.479   1.820
50034W        W15261  22.473  40.006  14.470
50035W        W15262  15.576  38.840   4.995
50036W        W15263   1.845  42.761  14.377
50037W        W15264  27.494  19.435   0.648
50038W        W15265   1.549  40.579   2.338
50039W        W15266  16.415  33.563  12.345
50040W        W15267  31.111  22.519  13.303
50041W        W15268  18.636  41.899   1.200
50042W        W15269   0.205  30.574   4.063
50043W        W15270   1.785   9.362   3.166
50044W        W15271  42.834  14.825   4.553
50045W        W15272  33.027  27.530   3.891
50046W        W15273  12.321   4.933  10.414
50047W        W15274  18.973   4.435   2.643
50048W        W15275  28.208  14.272   4.110
50049W        W15276  41.335  36.268  13.900
50050W        W15277  32.463   8.697   2.260
50051W        W15278  38.949  24.561   4.535
50052W        W15279  16.667  23.981  12.047
50053W        W15280  13.674  36.612   2.078
50054W        W15281  10.176  21.743   0.382
50055W        W15282  10.164  16.943   2.193
50056W        W15283  25.153  11.674   2.127
50057W        W15284  35.606  34.850  10.635
50058W        W15285  43.725   7.914  10.599
50059W        W15286  22.034  40.404  14.582
50060W        W15287  39.721   1.291  11.289
50061W        W15288  44.340  31.080   3.398
50062W        W15289  17.576  32.327  11.064
50063W        W15290  36.828  27.607   0.282
50064W        W15291  15.705  14.166   4.083
50065W        W15292  39.957   8.809   3.318
50066W        W15293  31.095   2.431   0.721
50067W        W15294  36.305  36.606  11.544
50068W        W15295  27.834  20.045  11.695
50069W        W15296   4.714  13.125   1.759
50070W        W15297  39.620   3.605   4.932
50071W        W15298  26.149  44.283   0.202
50072W        W15299   1.027  16.181  14.721
50073W        W15300  41.120  44.747   0.154
50074W        W15301  12.205  35.879   3.761
50075W        W15302  18.159   4.966   2.919
50076W        W15303   6.970  20.221   1.641
50077W        W15304   9.130   2.021  12.337
50078W        W15305   6.207  16.725   3.627
50079W        W15306  24.756  25.747  11.431
50080W        W15307  35.583   2.831  13.927
50081W        W15308  13.218  26.399  12.074
50082W        W15309  38.116   8.371   0.776
50083W        W15310  31.921   7.931   3.140
50084W        W15311  12.353  13.048   3.029
50085W        W15312  41.367  35.886   4.414
50086W        W15313  32.868  17.826  11.739
50087W        W15314   9.648  15.251  14.302
50088W        W15315  10.789  36.380   0.187
50089W        W15316  22.629   4.923   2.757
50090W        W15317  32.931  33.034   2.168
50091W        W15318  16.738  16.751   0.435
50092W        W15319   6.444  34.631   1.235
50093W        W15320  23.650  26.293   3.076
50094W        W15321  40.792  31.945   3.858
50095W        W15322  20.161  35.022   0.783
50096W        W15323  36.393  10.627  13.874
50097W        W15324  41.722  35.081   1.516
50098W        W15325   0.822  36.020   4.048
50099W        W15326  27.058  38.995  10.111
50100W        W15327  38.058  42.820  13.762
50101W        W15328  40.570  14.363   9.569
50102W        W15329  27.919  13.617  14.600
50103W        W15330  32.004  42.569   3.567
50104W        W15331   9.628  24.702  11.139
50105W        W15332  28.560  11.706  10.577
50106W        W15333  44.760  32.477  12.209
50107W        W15334  26.976  36.566   4.071
50108W        W15335  18.036   9.635  13.045
50109W        W15336  13.580   3.146   1.275
50110W        W15337  35.988  32.921  12.456
50111W        W15338  12.104  43.760  13.000
50112W        W15339   8.922  21.283   4.720
50113W        W15340  40.874  20.376   1.287
50114W        W15341   1.270  12.322  11.965
50115W        W15342  36.083   4.075  13.902
50116W        W15343  11.888  26.148  14.327
50117W        W15344  24.778  41.211  11.618
50118W        W15345   5.305  22.873   4.593
50119W        W15346  38.151   3.369  11.149
50120W        W15347  39.044  31.440  12.056
50121W        W15348   2.957  39.530   0.715
50122W        W15349   3.120  35.223   3.912
50123W        W15350  15.353   0.915  14.285
50124W        W15351  18.136  25.079   0.036
50125W        W15352  18.921  44.175   2.655
50126W        W15353  28.151  22.203  13.773
50127W        W15354  11.353  14.870   1.255
50128W        W15355  14.328  12.168  11.568
50129W        W15356   7.844  30.995   4.154
50130W        W15357  12.103  31.635   0.931
50131W        W15358  28.684  41.831  13.845
50132W        W15359  44.757  44.026   2.550
50133W        W15360  32.532   7.850  12.643
50134W        W15361   5.926  36.629   4.615
50135W        W15362  16.030  18.083   4.636
50136W        W15363   6.982  29.868  13.572
50137W        W15364  20.301  33.194   3.189
50138W        W15365   8.361  32.086   2.703
50139W        W15366  33.239  14.415  11.712
50140W        W15367  16.315  30.748   0.970
50141W        W15368  20.029   4.140   2.609
50142W        W15369  18.091  29.891   1.392
50143W        W15370  30.112  37.602   1.077
50144W        W15371   0.948  35.317  11.228
50145W        W15372   2.696  31.544  10.758
50146W        W15373  12.620  31.837   3.419
50147W        W15374   0.725   1.962  12.390
50148W        W15375   8.858  24.483  11.553
50149W        W15376  15.705  27.084   1.264
50150W        W15377  11.687   9.813   4.661
50151W        W15378   7.489  17.103   3.215
50152W        W15379  32.654   9.916  13.156
50153W        W15380  33.469  43.502  13.104
50154W        W15381  37.913  19.198  13.432
50155W        W15382   8.759  29.674  13.586
50156W        W15383  22.934   7.608  11.452
50157W        W15384  22.979  33.501  13.974
50158W        W15385  21.007  41.098  12.393
50159W        W15386   4.157  19.045  13.894
50160W        W15387  35.406  18.166   0.009
50161W        W15388   6.298   2.645  13.968
50162W        W15389   0.823  17.321  13.350
50163W        W15390  11.244  28.944   1.923
50164W        W15391  25.075   6.473   0.310
50165W        W15392  29.703  28.865  11.403
50166W        W15393  40.665  14.666   0.974
50167W        W15394  15.218  24.707  10.410
50168W        W15395  14.814  22.214  14.574
50169W        W15396  25.380  15.881  12.636
50170W        W15397  15.669  41.073  11.578
50171W        W15398  22.686  20.645  11.189
50172W        W15399  17.023  27.127  13.343
50173W        W15400  16.374   6.706  14.236
50174W        W15401   7.724  34.711  12.068
50175W        W15402  19.047   5.704   2.259
50176W        W15403   3.737   4.123  12.537
50177W        W15404   7.769  11.284  11.111
50178W        W15405  22.270  14.208  12.472
50179W        W15406  24.442   7.839   2.448
50180W        W15407  42.497  15.261   4.565
50181W        W15408  33.769  41.968   3.610
50182W        W15409  38.766  29.872   4.213
50183W        W15410   2.188  35.739   4.921
50184W        W15411   0.326  10.443   2.621
50185W        W15412  19.217  36.394  12.873
50186W        W15413   5.735   7.268  13.931
50187W        W15414  10.167  33.085  12.072
50188W        W15415   4.883  10.101   5.068
50189W        W15416   9.317  36.873  14.441
50190W        W15417  33.816  42.746  13.439
50191W        W15418   0.901  24.097  14.203
50192W        W15419  40.428  25.738   4.478
50193W        W15420   7.791   8.381  14.982
50194W        W15421   8.363   9.866   2.250
50195W        W15422  31.611  22.470  13.461
50196W        W15423  18.648  37.899   2.259
50197W        W15424   8.771  37.139   4.137
50198W        W15425   9.157  22.428  14.486
50199W        W15426  43.343  42.084  12.027
50200W        W15427   8.656  27.485   3.888
50201W        W15428  43.702   2.327   3.712
50202W        W15429   4.749   0.248  13.022
50203W        W15430  15.849   7.294  13.200
50204W        W15431  27.325  37.569   4.845
50205W        W15432  35.352  30.706  10.574
50206W        W15433  12.927  33.987   4.083
50207W        W15434  17.864  11.021  13.572
50208W        W15435  42.668   3.781   2.900
50209W        W15436  29.368  44.336  14.352
50210W        W15437  16.230   5.407   0.685
50211W        W15438  41.576  23.168  12.152
50212W        W15439   8.759  32.994   2.904
50213W        W15440   3.403  19.956  14.866
50214W        W15441  17.059  21.543   1.669
50215W        W15442   5.128  19.016  11.132
50216W        W15443  10.418   8.257  11.250
50217W        W15444   4.311  42.322  10.336
50218W        W15445  21.610   9.151   3.415
50219W        W15446   8.252  36.937  10.672
50220W        W15447  38.135  42.476  13.086
50221W        W15448  13.093  18.544  10.479
50222W        W15449  10.688   7.665  11.546
50223W        W15450   0.274  29.652   2.752
50224W        W15451  27.431  10.638   3.729
50225W        W15452   3.949   9.804  11.660
50226W        W15453  11.281  27.473  14.736
50227W        W15454  17.853   4.374  10.640
50228W        W15455  18.280   0.931   4.681
50229W        W15456  34.097  11.931   2.422
50230W        W15457   2.870  28.607   4.895
50231W        W15458  18.612  27.176   4.567
50232W        W15459  27.610  16.331   1.585
50233W        W15460  27.930  38.543   4.790
50234W        W15461  32.124  44.360   0.435
50235W        W15462   8.852  11.994  10.642
50236W        W15463  11.383  11.649   3.675
50237W        W15464   4.812  28.647  10.726
50238W        W15465  30.891  30.709   1.936
50239W        W15466   9.922  32.825  13.418
50240W        W15467  25.987  23.714  14.414
50241W        W15468   5.203  19.671   2.619
50242W        W15469   1.023  39.767   0.796
50243W        W15470  28.640  11.411   3.664
50244W        W15471  17.142  22.747  11.078
50245W        W15472  22.750  24.396  10.746
50246W        W15473  12.111  20.028   4.044
50247W        W15474  33.024  28.198   1.838
50248W        W15475  23.514  17.569  13.401
50249W        W15476   4.264  14.199   4.031
50250W        W15477  27.192   7.612   2.454
50251W        W15478  38.876   1.953   2.590
50252W        W15479   1.447  43.001  12.259
50253W        W15480  18.075  40.728   4.109
50254W        W15481   8.449  24.912   2.296
50255W        W15482   6.351  11.511  10.065
50256W        W15483  22.833   7.013  13.106
50257W        W15484  13.313  27.190  11.708
50258W        W15485   9.856  16.549   1.206
50259W        W15486   5.415  21.067  11.079
50260W        W15487  11.332  35.989  10.476
50261W        W15488   6.254   0.354  13.972
50262W        W15489  38.037  42.780   2.367
50263W        W15490  13.673   5.886   1.252
50264W        W15491   5.404  17.020   0.874
50265W        W15492  17.107  27.649   0.388
50266W        W15493  33.342  40.409  13.415
50267W        W15494   2.055  26.408  13.294
50268W        W15495  20.209  10.073  14.771
50269W        W15496  26.260  14.013  12.452
50270W        W15497   8.685  16.130   4.859
50271W        W15498  22.071   7.014  11.520
50272W        W15499  37.932  26.095   2.308
50273W        W15500  19.889  15.731   4.180
50274W        W15501  15.623  21.630   4.303
50275W        W15502   4.722  12.693   4.995
50276W        W15503  27.001  37.342  14.411
50277W        W15504  37.752   0.373   2.056
50278W        W15505  21.412  20.331   4.151
50279W        W15506   7.117  14.861   2.134
50280W        W15507  21.814  25.922   0.314
50281W        W15508   6.382  24.143   2.381
50282W        W15509  29.483  24.007   3.816
50283W        W15510   1.666   4.642   2.862
50284W        W15511  27.255  14.888   2.217
50285W        W15512  41.006  33.214  11.506
50286W        W15513  36.470  19.341  11.634
50287W        W15514  42.766  28.987  12.719
50288W        W15515  39.070  18.715  11.214
50289W        W15516  35.982  26.984   1.525
50290W        W15517  44.192  24.299  13.956
50291W        W15518  37.023  19.253  12.482
50292W        W15519  11.825  11.309   0.307
50293W        W15520   6.159  31.858   5.030
50294W        W15521  20.769  37.988  11.760
50295W        W15522  35.812  11.769   4.456
50296W        W15523  26.636  44.475  14.062
50297W        W15524  24.522   8.938  14.188
50298W        W15525  15.294  33.696  12.294
50299W        W15526  13.600  26.475  14.865
50300W        W15527  19.510  32.298   0.800
50301W        W15528  34.042  15.749   3.322
50302W        W15529  29.573  42.735   0.419
50303W        W15530  42.040   5.355   3.644
50304W        W15531  16.878  39.838  11.379
50305W        W15532  24.708  39.295   1.013
50306W        W15533  15.967  30.647   4.120
50307W        W15534  37.293  30.066  13.097
50308W        W15535  30.486  38.323  12.086
50309W        W15536  28.856   3.391   3.203
50310W        W15537  31.211  16.022  11.933
50311W        W15538  31.646  36.891  14.375
50312W        W15539  40.306  31.670  12.120
50313W        W15540  41.838  30.528   1.256
50314W        W15541  17.763  22.159   4.118
50315W        W15542  15.654   6.044   4.438
50316W        W15543  27.444   8.204  14.417
50317W        W15544  30.541   9.455   1.755
50318W        W15545  11.117  39.754   1.318
50319W        W15546   5.995  13.094  14.561
50320W        W15547  10.602  24.430   1.946
50321W        W15548  19.145  27.869   3.694
50322W        W15549  15.194  16.025   2.634
50323W        W15550  37.123  13.281  14.059
50324W        W15551   6.734  17.196   3.037
50325W        W15552  33.486  20.524  13.851
50326W        W15553   9.261   5.293  14.523
50327W        W15554  20.136  11.102  12.125
50328W        W15555  23.968   3.818   2.570
50329W        W15556   9.674  39.102  11.894
50330W        W15557  35.074  36.070   4.673
50331W        W15558   8.161  23.436  11.169
50332W        W15559  44.733   9.515  11.953
50333W        W15560  22.506  42.981  13.859
50334W        W15561  35.283  12.108  10.698
50335W        W15562   9.832   5.048   0.395
50336W        W15563  25.327   5.839   0.960
50337W        W15564   1.647  42.180   3.263
50338W        W15565  40.481  44.222  14.860
50339W        W15566  36.270  25.229  11.903
50340W        W15567  32.113  41.205   2.600
50341W        W15568  16.028  38.656   1.956
50342W        W15569  29.644  43.702   1.306
50343W        W15570  30.951  38.928  13.910
50344W        W15571  17.025  44.787   1.858
50345W        W15572  33.506   0.334  14.921
50346W        W15573  42.580   7.883   1.715
50347W        W15574   4.947  35.830  11.241
50348W        W15575  31.661  15.940   4.516
50349W        W15576   8.859  22.572  13.506
50350W        W15577  11.381  38.455   1.278
50351W        W15578  30.021  42.935   1.246
50352W        W15579  17.254  35.504  10.685
50353W        W15580  35.339   6.913   0.945
50354W        W15581  37.714  29.669  12.484
50355W        W15582  42.340   6.921   4.125
50356W        W15583  35.442  23.892  13.684
50357W        W15584  23.270  21.080   3.725
50358W        W15585  32.517  21.998   0.948
50359W        W15586  40.985  13.061  12.368
50360W        W15587  23.455   2.990   0.750
50361W        W15588  39.023  19.981   4.120
50362W        W15589  22.284  33.181   0.859
50363W        W15590  12.921  42.380  13.455
50364W        W15591  18.605  10.437  12.479
50365W        W15592  33.638  41.477  10.714
50366W        W15593  24.986  28.899  11.923
50367W        W15594   3.323  17.689   0.630
50368W        W15595  27.172  11.270   2.672
50369W        W15596   7.567  25.115   1.094
50370W        W15597  36.381  14.169  12.649
50371W        W15598   6.102  17.595   2.126
50372W        W15599  17.036  19.855  12.402
50373W        W15600   0.190  12.244   0.891
50374W        W15601  30.933   1.372   3.419
50375W        W15602  27.526  35.843   0.515
50376W        W15603  42.173  10.739   4.025
50377W        W15604  37.517  23.761  14.848
50378W        W15605   1.095   0.300  12.386
50379W        W15606   2.686   7.201  11.835
50380W        W15607   3.174  18.502  14.830
50381W        W15608  15.339  27.976   1.677
50382W        W15609  20.124  37.235  12.705
50383W        W15610  42.998  31.934   3.196
50384W        W15611  24.167  24.643  13.218
50385W        W15612   6.858  34.108  11.967
50386W        W15613  19.532   7.171  12.895
50387W        W15614   1.843  37.682  11.597
50388W        W15615   0.379  28.146   2.226
50389W        W15616  11.136  37.512  11.718
50390W        W15617  41.499  19.304   1.586
50391W        W15618  12.243   7.359  10.643
50392W        W15619  27.562  10.667   4.611
50393W        W15620  11.851   2.805  13.694
50394W        W15621   9.297  44.260   1.259
50395W        W15622  43.761  24.946   0.141
50396W        W15623  14.574  28.679   0.415
50397W        W15624  26.197  31.583   1.472
50398W        W15625  37.771  14.342  13.966
50399W        W15626   8.826  16.213   1.171
50400W        W15627  25.198   9.555   4.617
50401W        W15628  43.093  34.015   0.322
50402W        W15629  30.018  16.598   2.408
50403W        W15630  39.071  10.301  12.741
50404W        W15631  40.985  10.136   4.848
50405W        W15632  27.378   1.150  13.214
50406W        W15633  23.586  32.435   4.491
50407W        W15634  10.728  36.980   4.355
50408W        W15635   9.707  22.715  13.763
50409W        W15636  26.114  29.937  14.902
50410W        W15637  39.981  33.894  13.809
50411W        W15638   3.414  43.485   2.682
50412W        W15639   0.901  14.448   3.504
50413W        W15640  34.478  41.000  12.989
50414W        W15641  25.345  41.844  14.764
50415W        W15642  20.696  25.362   1.403
50416W        W15643  39.931  15.038  10.659
50417W        W15644  43.462  22.858  12.657
50418W        W15645  37.128  21.371  11.271
50419W        W15646   0.146  26.528  10.094
50420W        W15647   6.165  34.436  14.563
50421W        W15648  40.913  21.105   3.014
50422W        W15649  29.389  28.151  12.022
50423W        W15650  32.719  14.018  11.589
50424W        W15651  24.675  15.740   4.708
50425W        W15652  18.575  44.037   1.020
50426W        W15653  35.430  36.323  13.620
50427W        W15654  11.244   9.090   4.522
50428W        W15655  16.065  41.358   0.976
50429W        W15656  26.513   0.167   3.620
50430W        W15657  13.737  17.030  11.968
50431W        W15658   3.469  31.967  12.877
50432W        W15659  24.504  34.665  10.768
50433W        W15660  30.393  14.600  13.973
50434W        W15661  17.192  16.844  12.360
50435W        W15662  24.084  22.712   1.847
50436W        W15663  30.141  42.007   3.651
50437W        W15664   4.881  25.118  14.351
50438W        W15665  16.800  16.019   4.776
50439W        W15666  11.935  36.343  13.421
50440W        W15667  25.470  17.642  14.002
50441W        W15668   3.265  42.999  14.858
50442W        W15669  26.827  37.186   0.903
50443W        W15670  29.719  40.689  14.018
50444W        W15671  25.397   7.500  12.577
50445W        W15672  12.344  40.483   0.360
50446W        W15673  12.165   1.986  12.056
50447W        W15674  20.125  18.320   2.594
50448W        W15675  12.271  10.698   2.580
50449W        W15676  17.813   5.819   1.419
50450W        W15677  10.328  37.684  13.541
50451W        W15678  13.440  31.169   2.167
50452W        W15679  26.268  40.790   1.307
50453W        W15680  11.714  36.418  14.812
50454W        W15681  13.459  40.760   3.710
50455W        W15682  37.779   4.233  10.936
50456W        W15683  29.077   1.190  12.611
50457W        W15684   5.446  38.385   1.424
50458W        W15685  31.021  34.070   2.565
50459W        W15686  24.157  18.660  13.357
50460W        W15687  10.637  13.994  11.650
50461W        W15688   4.229  33.350   3.284
50462W        W15689  40.337  44.930  14.550
50463W        W15690   3.269  13.251   0.794
50464W        W15691   8.804  16.562  14.935
50465W        W15692  18.700  31.026  13.966
50466W        W15693  40.910   0.804   3.856
50467W        W15694  32.624   2.832   1.613
50468W        W15695  32.883  22.992   2.342
50469W        W15696  44.218  20.701   3.148
50470W        W15697   2.879  15.291  12.825
50471W        W15698  39.844   9.680   2.225
50472W        W15699  36.528  25.998   0.110
50473W        W15700  30.460  37.890   1.746
50474W        W15701  15.760  17.948  13.561
50475W        W15702  41.953  12.195   1.505
50476W        W15703  12.708   3.347   1.189
50477W        W15704   9.884  16.479   4.559
50478W        W15705  16.727  10.319  12.120
50479W        W15706   4.656   1.783  14.878
50480W        W15707   5.951   8.718   2.858
50481W        W15708  25.512  42.020  11.471
50482W        W15709   1.367   8.284   0.125
50483W        W15710  15.356   8.996  13.104
50484W        W15711  27.677  17.735  12.927
50485W        W15712  16.244  42.555   0.308
50486W        W15713  13.340  20.956  14.030
50487W        W15714  20.660  15.711   1.167
50488W        W15715  37.562   9.559   4.099
50489W        W15716   7.065  39.369  10.945
50490W        W15717  19.623   4.742  13.193
50491W        W15718  33.608  36.431   1.341
50492W        W15719   3.033   9.127   4.579
50493W        W15720  37.953  16.002  13.523
50494W        W15721  35.425  32.446  12.552
50495W        W15722  39.569  11.920   3.778
50496W        W15723  44.883  42.443  12.757
50497W        W15724  10.006  31.112  13.071
50498W        W15725  30.720  43.455   0.928
50499W        W15726  28.676  39.096  12.320
50500W        W15727   7.115  42.795  11.663
50501W        W15728  34.942  36.602  12.412
50502W        W15729  26.623  26.474   5.102
50503W        W15730  30.280  27.627  13.494
50504W        W15731  43.924  16.254   3.685
50505W        W15732  12.421  18.224  11.999
50506W        W15733   4.647  20.371   1.730
50507W        W15734   3.520   9.857   2.794
50508W        W15735   5.062  36.912  11.452
50509W        W15736  31.008  23.689  12.094
50510W        W15737   4.206  36.778   1.279
50511W        W15738  37.892   9.900   9.876
50512W        W15739  15.584  23.384   1.971
50513W        W15740   2.823  28.129   5.070
50514W        W15741  24.246  23.011  14.024
50515W        W15742  37.851   0.759  12.808
50516W        W15743  42.900  30.619   0.187
50517W        W15744  39.030  14.048   2.634
50518W        W15745  11.766  18.122  12.581
50519W        W15746  41.592  43.319   1.365
50520W        W15747   4.923  43.591   3.537
50521W        W15748   3.588   1.545   4.617
50522W        W15749   8.211  18.070   4.500
50523W        W15750  21.296   5.744   4.869
50524W        W15751  43.834   5.191   3.101
50525W        W15752   5.635   6.195  12.516
50526W        W15753  15.277  27.100  12.552
50527W        W15754  13.349   8.739  13.076
50528W        W15755  21.140  38.408   4.057
50529W        W15756   8.389  30.043   1.683
50530W        W15757  44.852  21.216  14.507
50531W        W15758  30.124  23.546  13.957
50532W        W15759  31.437  24.567  12.074
50533W        W15760  20.118  33.920   4.186
50534W        W15761   7.677  32.367  13.415
50535W        W15762   4.420  24.344   0.756
50536W        W15763   2.736   8.215  14.873
50537W        W15764  33.873  29.473  10.806
50538W        W15765  25.044  42.583  10.763
50539W        W15766  18.055  22.744   3.577
50540W        W15767   4.305  13.070  10.572
50541W        W15768  14.345  42.681   9.994
50542W        W15769  24.338  44.681  12.042
50543W        W15770   9.846  36.793  10.820
50544W        W15771   2.105  36.173   2.777
50545W        W15772  17.134   1.909  14.975
50546W        W15773  14.286  10.825   4.506
50547W        W15774  14.798  15.805  12.069
50548W        W15775  36.961  23.044   3.021
50549W        W15776  32.570  21.698   2.855
50550W        W15777   1.719  17.042  12.424
50551W        W15778  12.749   6.359  14.015
50552W        W15779  25.148  20.186   2.812
50553W        W15780  12.635   7.841   2.725
50554W        W15781  33.107  29.706   2.419
50555W        W15782   9.690  12.549  14.988
50556W        W15783  10.562  33.780  12.509
50557W        W15784  35.382  43.738   3.936
50558W        W15785  36.970  19.966  11.804
50559W        W15786   0.260  24.791  12.066
50560W        W15787  30.988   5.316   2.780
50561W        W15788   4.713  39.704   1.778
50562W        W15789  12.120  21.595  14.266
50563W        W15790  44.135   6.325   0.884
50564W        W15791  42.618  38.012   1.703
50565W        W15792  30.569  19.307   4.241
50566W        W15793   4.053  28.197   4.469
50567W        W15794  44.028  30.038  14.311
50568W        W15795  32.026  30.764  14.403
50569W        W15796  13.105  19.155   0.259
50570W        W15797  33.905  24.898   1.779
50571W        W15798  28.290   6.131  12.574
50572W        W15799   8.879  30.178   3.177
50573W        W15800   0.019  25.051  13.733
50574W        W15801   7.221  24.611   4.715
50575W        W15802   4.208  22.022  13.403
50576W        W15803  40.554  30.919   2.829
50577W        W15804  37.345  34.805  14.575
50578W        W15805  13.149   8.197  14.306
50579W        W15806   7.840  22.218  11.730
50580W        W15807  35.304   4.329  14.218
50581W        W15808  11.693   1.823   0.476
50582W        W15809  13.775  34.923   2.947
50583W        W15810  11.658  14.306  14.815
50584W        W15811  15.859  42.784   1.484
50585W        W15812   8.380  27.546  14.576
50586W        W15813   4.435   4.010  10.792
50587W        W15814  16.592  14.762  12.956
50588W        W15815   8.581  18.085   4.120
50589W        W15816  21.479  10.399   3.706
50590W        W15817   5.701  28.082  14.805
50591W        W15818  40.934  38.862  14.059
50592W        W15819  17.860   7.994  13.578
50593W        W15820   8.071   9.901  14.526
50594W        W15821  43.810   3.926   4.371
50595W        W15822  17.553  21.291   2.402
50596W        W15823  39.312  20.630  11.541
50597W        W15824  22.036  42.261   3.659
50598W        W15825  19.568  42.262   4.116
50599W        W15826  20.216  44.027   4.070
50600W        W15827  32.825   2.831  11.124
50601W        W15828  19.613  36.961   0.422
50602W        W15829  33.176  28.652  10.740
50603W        W15830  26.141  44.799  11.701
50604W        W15831  12.548  20.594   4.556
50605W        W15832  35.420  28.411   4.736
50606W        W15833  42.322  31.064   0.759
50607W        W15834  42.026  21.774  13.955
50608W        W15835  15.661  21.011  13.968
50609W        W15836  42.895  12.444  12.219
50610W        W15837   1.343   5.502  10.732
50611W        W15838  16.765   0.580   3.367
50612W        W15839  21.972  28.483   2.888
50613W        W15840  37.433  29.594  14.111
50614W        W15841  40.809  27.034  13.381
50615W        W15842  44.822  16.871  11.179
50616W        W15843  23.074  32.175   4.976
50617W        W15844   6.219   5.003   3.500
50618W        W15845  37.503  41.242   1.755
50619W        W15846  10.338   4.899  14.061
50620W        W15847  11.369  44.604  11.641
50621W        W15848  24.478   8.424   0.351
50622W        W15849  11.949  25.043   4.949
50623W        W15850  35.564  11.635   3.580
50624W        W15851  30.625   9.768  10.746
50625W        W15852  20.775  13.192  10.666
50626W        W15853  26.133   1.423  14.962
50627W        W15854  26.760  21.163  10.242
50628W        W15855  30.510  14.856  12.081
50629W        W15856  32.192  44.339   4.118
50630W        W15857  20.581  19.140   2.705
50631W        W15858  12.294  12.738  10.513
50632W        W15859  42.605  39.750   2.869
50633W        W15860  29.819   6.770   0.810
50634W        W15861  39.789  31.692   3.277
50635W        W15862   1.304  43.437  13.032
50636W        W15863   5.398  30.426   2.184
50637W        W15864  29.566   3.855   2.277
50638W        W15865  15.282  12.295   4.229
50639W        W15866   1.459  26.078   9.947
50640W        W15867  20.140  35.118  10.561
50641W        W15868  43.323   6.144  11.437
50642W        W15869   2.228  43.523   0.641
50643W        W15870  10.622  38.509   1.907
50644W        W15871  42.950  16.658   1.843
50645W        W15872  20.208  34.371  14.223
50646W        W15873  44.985  13.172   4.356
50647W        W15874  44.937  41.574  14.794
50648W        W15875  28.178   7.422   4.527
50649W        W15876  25.703   5.318  14.560
50650W        W15877  38.417  31.094   1.151
50651W        W15878  10.738  28.445  11.343
50652W        W15879  38.008  37.561  11.527
50653W        W15880   8.354  10.347  14.494
50654W        W15881  40.549  24.968  12.938
50655W        W15882  32.160   7.891  13.030
50656W        W15883  19.505  25.096  13.460
50657W        W15884   8.800   9.797   0.511
50658W        W15885  26.593   0.834  12.881
50659W        W15886  30.547  25.072   2.628
50660W        W15887  44.469  40.829  13.988
50661W        W15888  40.517  16.848   2.313
50662W        W15889  15.240  20.026   2.745
50663W        W15890   9.314   4.872  11.703
50664W        W15891  12.205  28.474  14.499
50665W        W15892  17.759   8.889  13.636
50666W        W15893  10.309  10.765  12.451
50667W        W15894  13.049  23.525  12.650
50668W        W15895  32.527  41.014  10.774
50669W        W15896  15.901   9.354  12.552
50670W        W15897   8.834   1.307   4.566
50671W        W15898  10.106  26.123   0.910
50672W        W15899   6.202  28.034  14.934
50673W        W15900   3.900  15.602  10.469
50674W        W15901  41.332  33.443   4.960
50675W        W15902  26.474   2.449   3.777
50676W        W15903   8.763  17.373   4.567
50677W        W15904  44.955  13.870  11.360
50678W        W15905  24.358  18.736   1.710
50679W        W15906  25.742  36.352   0.795
50680W        W15907  14.168  36.645   0.626
50681W        W15908   1.682   3.223  10.652
50682W        W15909   8.282  18.369  12.564
50683W        W15910   5.894  24.948  14.393
50684W        W15911  22.045  10.276   1.794
50685W        W15912  33.401  24.547   1.898
50686W        W15913  42.802   6.839  12.474
50687W        W15914   3.173  24.003   0.038
50688W        W15915  37.116   1.926   3.181
50689W        W15916  34.051  35.005   3.618
50690W        W15917  34.422  23.591   0.304
50691W        W15918  38.927   5.740   0.911
50692W        W15919  20.081  19.566  10.908
50693W        W15920  26.609  29.861   1.815
50694W        W15921  14.939  42.840   1.502
50695W        W15922  32.552  31.250   4.317
50696W        W15923   9.227  10.566   1.382
50697W        W15924  15.732  36.641  11.923
50698W        W15925   6.783  36.439  12.136
50699W        W15926  31.358   4.317  12.998
50700W        W15927   6.954  41.440  14.762
50701W        W15928   3.426  13.535  10.720
50702W        W15929  34.022   0.969   2.192
50703W        W15930  38.416  33.648  11.927
50704W        W15931  30.851   2.483  11.178
50705W        W15932  30.025  40.063   1.288
50706W        W15933  44.484  39.122   0.910
50707W        W15934  33.507  10.406  10.712
50708W        W15935   5.916   5.918   4.596
50709W        W15936  43.260   7.382   4.913
50710W        W15937   8.868  10.760   0.027
50711W        W15938  37.758  35.398   2.714
50712W        W15939  42.236  24.482  14.407
50713W        W15940  26.017  26.664  12.516
50714W        W15941   0.423  29.624  11.175
50715W        W15942  12.708  13.789   3.641
50716W        W15943  20.191  34.628   2.128
50717W        W15944  15.273  16.073   1.733
50718W        W15945  33.422  22.138  11.539
50719W        W15946   9.917  17.951   0.869
50720W        W15947  29.730  19.312  12.950
50721W        W15948  38.991  38.454  13.282
50722W        W15949  36.487  12.186  11.191
50723W        W15950  12.941  12.572  14.061
50724W        W15951  24.456   1.214  10.707
50725W        W15952  21.469  17.704   3.341
50726W        W15953   8.790  20.362  13.512
50727W        W15954  41.551  32.583  10.906
50728W        W15955   4.504  10.834  11.660
50729W        W15956   8.429  24.138   2.295
50730W        W15957  17.286  12.346  11.043
50731W        W15958  33.042  11.076  11.059
50732W        W15959  18.526  41.745  12.441
50733W        W15960  30.444  26.511   3.612
50734W        W15961  31.168  14.861  10.621
50735W        W15962  22.369  36.087  11.144
50736W        W15963  39.997  23.563   0.247
50737W        W15964  18.301  16.690  13.946
50738W        W15965  16.028   3.213   1.771
50739W        W15966  42.835   9.380   3.689
50740W        W15967  11.516   7.385   0.409
50741W        W15968   5.446  31.528   4.519
50742W        W15969   4.430  31.665  10.353
50743W        W15970   8.665  36.461   3.741
50744W        W15971  37.470   3.772  12.828
50745W        W15972  30.996   1.186  14.521
50746W        W15973  10.707   2.037  13.152
50747W        W15974   4.409  43.517   1.012
50748W        W15975  33.135  43.935   4.091
50749W        W15976  39.671  26.049  13.518
50750W        W15977  26.370   6.853  13.898
50751W        W15978  16.161  40.636  14.996
50752W        W15979  23.188  16.618   1.139
50753W        W15980  30.667   8.691  14.771
50754W        W15981  17.435  34.485  13.441
50755W        W15982  18.078  31.668  12.485
50756W        W15983  43.226  44.095   2.426
50757W        W15984   1.767  24.154  13.909
50758W        W15985  36.598  10.051  10.324
50759W        W15986   3.185  31.934   4.414
50760W        W15987   4.705  25.853   4.132
50761W        W15988   4.921  37.545   1.152
50762W        W15989  33.398   3.551  10.352
50763W        W15990   9.127   0.818  12.019
50764W        W15991  10.147   4.313  10.474
50765W        W15992   6.378  11.723   0.039
50766W        W15993  36.620  14.033   1.297
50767W        W15994  24.239  43.412   3.416
50768W        W15995  20.524  21.709  10.504
50769W        W15996   4.888   0.486  12.058
50770W        W15997  40.288  13.856  11.242
50771W        W15998  42.313  36.647   2.072
50772W        W15999   9.302   7.523   3.905
50773W        W16000  25.876  20.430  11.207
50774W        W16001  35.056  40.682   2.337
50775W        W16002  36.895  19.577  11.481
50776W        W16003  36.343  39.999   1.854
50777W        W16004  43.972   2.835  10.760
50778W        W16005  40.845   4.743   3.255
50779W        W16006   8.979  12.109  14.365
50780W        W16007  24.768  28.094  10.710
50781W        W16008  25.776  11.114   1.896
50782W        W16009   6.466  12.404   4.394
50783W        W16010  44.373   0.689  10.714
50784W        W16011  44.799  43.689   9.820
50785W        W16012  35.033  34.099  14.308
50786W        W16013  42.037  40.475   4.214
50787W        W16014  11.856  33.117  14.607
50788W        W16015  34.513   6.671  14.860
50789W        W16016  23.805  14.845   0.815
50790W        W16017  22.941  22.495   0.902
50791W        W16018  18.349  23.704   1.211
50792W        W16019  23.698  27.642  12.991
50793W        W16020  20.120   9.232  14.918
50794W        W16021  32.075   3.183   3.669
50795W        W16022   9.401  29.533  12.451
50796W        W16023  21.589  28.493  10.392
50797W        W16024  28.040   3.229   2.793
50798W        W16025   0.881  19.199   0.262
50799W        W16026  18.545   2.470  13.466
50800W        W16027   7.743  39.008   2.225
50801W        W16028  29.106  34.318  10.729
50802W        W16029   1.872  16.311  10.484
50803W        W16030  37.324  41.753   2.703
50804W        W16031  20.845   2.781  12.962
50805W        W16032   7.861  28.135  10.814
50806W        W16033  41.311  16.641   0.571
50807W        W16034  13.058  44.905  11.692
50808W        W16035   5.398  18.193  10.668
50809W        W16036  44.828  23.898  12.981
50810W        W16037  40.135  15.155  11.952
50811W        W16038  16.513  19.472  13.436
50812W        W16039  42.027   3.555  12.469
50813W        W16040   3.818   0.399  13.960
50814W        W16041  34.564  32.343  12.525
50815W        W16042  16.251   8.534   4.614
50816W        W16043  30.402  16.598  13.484
50817W        W16044  17.790  29.422   4.151
50818W        W16045  44.360  32.121  13.764
50819W        W16046  42.506  23.464  12.105
50820W        W16047  34.926   1.241   4.589
50821W        W16048  27.999  34.783  10.954
50822W        W16049  35.440  28.481   0.808
50823W        W16050  33.935   4.173  13.818
50824W        W16051   7.705  31.137  10.776
50825W        W16052  36.577   1.404  10.714
50826W        W16053   6.110  39.254  11.863
50827W        W16054  44.883  43.948   4.011
50828W        W16055  21.640   9.445  11.067
50829W        W16056  34.228  36.600  12.408
50830W        W16057  10.364  28.109   4.625
50831W        W16058  44.860  31.874  10.718
50832W        W16059   7.320  29.204   1.384
50833W        W16060  35.201   7.843  13.543
50834W        W16061   3.186  37.989   3.650
50835W        W16062  18.968  35.324  11.597
50836W        W16063  42.528  12.105  14.986
50837W        W16064  43.432  28.210  14.213
50838W        W16065   7.034  44.338  13.419
50839W        W16066  29.009  11.256   2.784
50840W        W16067  35.483  15.566  13.896
50841W        W16068  22.439  43.232   3.201
50842W        W16069  15.715  43.261  11.157
50843W        W16070  19.595   8.415  10.760
50844W        W16071  22.460   9.526  14.285
50845W        W16072  22.091  32.640  13.321
50846W        W16073  13.092  11.487  11.152
50847W        W16074  18.218  16.793   2.004
50848W        W16075   3.758  24.196  10.769
50849W        W16076  39.112  18.262   0.704
50850W        W16077   4.913  22.149  12.411
50851W        W16078  20.429  28.759  14.867
50852W        W16079  44.387   3.492  14.286
50853W        W16080  25.249  22.939   0.284
50854W        W16081  11.823  21.163   4.269
50855W        W16082  40.325  25.782   3.123
50856W        W16083  24.395   6.736  10.463
50857W        W16084   6.814  27.705  12.495
50858W        W16085  26.692  39.426   1.319
50859W        W16086  36.079  37.309  11.581
50860W        W16087  26.461  40.591   4.104
50861W        W16088   7.659  29.039  10.573
50862W        W16089  16.176  25.230   3.796
50863W        W16090  18.047  22.092   0.376
50864W        W16091   8.172   9.186   1.706
50865W        W16092  38.365   8.864  12.666
50866W        W16093  43.084  21.605   0.802
50867W        W16094  10.343  42.572  12.129
50868W        W16095   7.315  14.318  14.444
50869W        W16096   3.438  40.308   2.447
50870W        W16097   5.934  40.734  13.890
50871W        W16098   5.129  30.276   4.977
50872W        W16099   9.563  29.433   1.648
50873W        W16100  14.097   2.010   0.776
50874W        W16101  18.230  44.810  13.957
50875W        W16102  18.845  19.433   2.158
50876W        W16103  19.097  41.722  11.654
50877W        W16104  28.005  26.591  13.468
50878W        W16105  40.465  34.773  14.521
50879W        W16106  28.554  14.301   0.347
50880W        W16107   0.354  18.031  10.720
50881W        W16108  44.287  22.903   4.142
50882W        W16109  28.114  29.126  13.546
50883W        W16110  24.322   4.833  14.469
50884W        W16111   9.208  15.193  12.626
50885W        W16112  11.558   9.675  13.431
50886W        W16113  32.025   8.327   0.447
50887W        W16114  39.774  32.061  10.632
50888W        W16115  15.317  44.273  11.435
50889W        W16116  21.564   8.237   4.323
50890W        W16117  18.952  23.592  12.939
50891W        W16118  42.301  17.648  14.739
50892W        W16119  20.678  30.153  12.503
50893W        W16120  32.640  16.840   0.756
50894W        W16121  40.349  16.367   1.439
50895W        W16122  10.755  18.639   3.156
50896W        W16123  37.318  10.101  14.533
50897W        W16124  11.116   9.070   1.904
50898W        W16125  10.346   7.856   2.277
50899W        W16126  36.477  27.280  12.159
50900W        W16127  25.378  21.194   3.636
50901W        W16128  19.521  25.190   3.192
50902W        W16129   8.159  36.857  11.984
50903W        W16130  21.283  31.418   1.300
50904W        W16131   0.555  11.578   4.067
50905W        W16132   4.473   2.465  12.449
50906W        W16133  12.590  14.083   4.078
50907W        W16134  32.893  38.452  12.348
50908W        W16135  43.836  20.277  11.058
50909W        W16136  40.416  11.879   2.155
50910W        W16137   8.646  33.009  13.071
50911W        W16138   5.191  36.152   1.431
50912W        W16139   6.005   7.275   1.870
50913W        W16140  43.485  33.331   0.949
50914W        W16141  25.248  35.262  11.968
50915W        W16142  31.027  42.391  12.646
50916W        W16143  33.202  12.382  12.626
50917W        W16144  17.456  35.620  13.930
50918W        W16145   5.067   7.201  12.681
50919W        W16146  29.564   3.510   2.684
50920W        W16147  34.003  21.582   0.761
50921W        W16148  32.400  34.094  10.794
50922W        W16149   0.162  16.545  11.733
50923W        W16150  25.924  29.481   4.049
50924W        W16151  41.341  44.115   3.422
50925W        W16152  10.776  20.102  13.390
50926W        W16153   0.279  42.092  11.166
50927W        W16154  38.568  18.558  13.552
50928W        W16155  43.796  37.619  14.418
50929W        W16156  42.211  17.670   3.259
50930W        W16157  43.330  14.103   3.552
50931W        W16158  18.148  17.012  11.194
50932W        W16159  20.128  38.379  14.099
50933W        W16160  43.037  39.852   2.515
50934W        W16161  13.877   8.246  13.013
50935W        W16162  38.891  14.683   1.854
50936W        W16163   3.561  12.840  12.932
50937W        W16164  19.529   4.739   3.284
50938W        W16165  15.720  17.592  14.900
50939W        W16166  26.988  42.353   2.970
50940W        W16167   7.928  23.157   0.953
50941W        W16168  15.428   4.240   2.573
50942W        W16169  35.510  38.088  14.527
50943W        W16170  32.852  14.298  12.039
50944W        W16171   0.588  34.920   2.914
50945W        W16172  43.441   9.668  11.250
50946W        W16173  40.761   6.990  13.506
50947W        W16174  33.490  18.998  13.819
50948W        W16175  34.153   4.480  13.451
50949W        W16176   9.239   0.918  14.768
50950W        W16177  32.837  44.747   3.428
50951W        W16178  38.552  39.843   3.148
50952W        W16179  31.405  15.774  12.525
50953W        W16180   1.267  27.037  12.261
50954W        W16181  42.996  31.593   2.452
50955W        W16182  21.562  43.031   3.594
50956W        W16183   8.869  44.566  10.673
50957W        W16184  42.469   5.318   0.694
50958W        W16185  29.110  14.087   5.023
50959W        W16186  35.284  19.990   3.633
50960W        W16187  13.532   6.863   2.974
50961W        W16188   8.566  11.616   3.787
50962W        W16189   4.461  30.331   0.539
50963W        W16190   4.038  15.928  11.256
50964W        W16191   5.707  23.014   1.884
50965W        W16192  26.424  21.539   3.211
50966W        W16193  19.255  17.083  12.577
50967W        W16194  44.778  26.903  13.506
50968W        W16195  11.155  14.974  12.904
50969W        W16196   8.899  26.684  14.250
50970W        W16197  11.596  15.615   3.466
50971W        W16198  26.176  40.758  11.718
50972W        W16199   9.934   3.725   4.470
50973W        W16200  11.679  15.248   2.743
50974W        W16201  19.692  21.628  12.124
50975W        W16202  43.929  31.941   4.308
50976W        W16203  39.894   2.161   4.042
50977W        W16204  10.855   5.654  13.804
50978W        W16205  18.022  12.666   1.916
50979W        W16206  39.905   4.414   0.003
50980W        W16207  13.323  26.183   4.700
50981W        W16208  12.832  41.499  12.884
50982W        W16209  16.603   7.469   4.198
50983W        W16210  41.525  35.543   0.273
50984W        W16211  28.816   1.797   1.796
50985W        W16212  19.761  36.763   3.892
50986W        W16213  15.952  43.393  11.948
50987W        W16214   7.342  41.349  10.706
50988W        W16215   0.816  31.221  13.875
50989W        W16216  36.391  22.007  13.465
50990W        W16217   6.481   1.939   1.137
50991W        W16218  36.143  33.696   4.988
50992W        W16219  25.277  39.031   4.487
50993W        W16220  15.603  31.324   1.254
50994W        W16221  16.597  20.679   0.835
50995W        W16222  30.471  35.651   3.373
50996W        W16223  33.117  24.233  12.068
50997W        W16224   4.936  36.351   0.998
50998W        W16225   7.496  34.078   1.587
50999W        W16226  40.251  19.284   4.953
51000W        W16227  27.871  14.689   2.621
51001W        W16228   6.909  36.816  12.522
51002W        W16229  13.673  37.595  11.959
51003W        W16230  25.706  32.467   2.760
51004W        W16231  38.398  29.135  10.623
51005W        W16232  39.997  26.513  10.899
51006W        W16233   3.070  40.024   0.360
51007W        W16234  38.770  42.577   0.881
51008W        W16235  23.167  11.607  11.545
51009W        W16236  40.806  31.917  10.635
51010W        W16237  29.903   0.780   4.088
51011W        W16238  36.109  27.209  12.597
51012W        W16239  43.085  30.140  11.144
51013W        W16240  27.372  41.943   4.089
51014W        W16241  28.672  21.267   1.939
51015W        W16242  27.082  23.114   0.933
51016W        W16243  42.646  15.069  10.375
51017W        W16244  39.408   9.088  14.064
51018W        W16245  29.925  37.106  13.358
51019W        W16246  34.276   5.292  11.731
51020W        W16247  16.706  31.131   1.212
51021W        W16248  43.915  27.502   1.864
51022W        W16249  15.023  16.719  13.551
51023W        W16250   7.209   8.477  11.542
51024W        W16251  42.601  13.133  11.654
51025W        W16252  26.610  40.429  13.538
51026W        W16253  13.273   0.681   2.199
51027W        W16254  27.586  23.186   2.254
51028W        W16255  28.033   1.727  10.125
51029W        W16256  11.618  31.482   2.377
51030W        W16257   9.151   9.675   3.403
51031W        W16258  22.166  38.767  12.499
51032W        W16259  16.788  32.875  14.818
51033W        W16260  15.833   6.021   2.720
51034W        W16261   0.702  27.457   1.838
51035W        W16262  30.954  44.421  12.839
51036W        W16263   0.325  39.906  11.541
51037W        W16264  26.646  22.018   3.247
51038W        W16265  23.442   4.341   2.993
51039W        W16266  25.033  36.135   4.116
51040W        W16267  33.572  29.493  13.018
51041W        W16268   9.688  28.318   3.530
51042W        W16269   4.479  44.763  11.160
51043W        W16270   8.298  10.563  13.957
51044W        W16271  28.410  19.439   1.650
51045W        W16272  23.022  41.439   4.302
51046W        W16273   4.308  33.849  10.675
51047W        W16274  28.788  14.284  11.240
51048W        W16275  33.935  42.284  11.736
51049W        W16276  15.790   4.745  12.139
51050W        W16277  18.722  37.791   0.828
51051W        W16278  35.189  34.117   1.195
51052W        W16279  34.046  25.486   3.935
51053W        W16280   8.374  13.335  11.592
51054W        W16281  36.809  20.864   0.027
51055W        W16282  12.738   3.166  11.826
51056W        W16283  36.791   2.682   1.610
51057W        W16284  13.133  41.330  10.624
51058W        W16285  16.623   7.791  12.550
51059W        W16286   6.705  12.530   3.244
51060W        W16287  11.269   0.710  10.346
51061W        W16288  27.499  39.694  12.801
51062W        W16289  10.186  10.837  14.242
51063W        W16290  23.638  10.320  10.718
51064W        W16291  39.256  43.303   0.880
51065W        W16292  40.061   2.037   1.257
51066W        W16293  23.653  10.600   4.098
51067W        W16294  39.128  39.890  14.247
51068W        W16295  29.875  17.664  12.537
51069W        W16296  11.756  40.929  10.954
51070W        W16297  44.552  15.611  14.432
51071W        W16298   7.748  32.647   0.434
51072W        W16299   0.480  37.029   0.253
51073W        W16300   0.003  22.163   0.813
51074W        W16301  23.112  30.335  13.137
51075W        W16302  20.533   0.993  13.007
51076W        W16303  25.739  32.009  11.670
51077W        W16304  30.518   4.879   0.330
51078W        W16305  16.846  24.015  10.749
51079W        W16306  32.725   6.237  10.559
51080W        W16307  39.222  37.397   4.963
51081W        W16308  11.182  44.000   3.145
51082W        W16309  18.007  42.044   1.796
51083W        W16310  11.959  20.556  11.732
51084W        W16311  42.585  19.765  13.595
51085W        W16312   8.329  21.837   0.772
51086W        W16313  21.542   0.911   3.136
51087W        W16314  19.124  28.167  14.476
51088W        W16315   6.372  20.688  14.966
51089W        W16316  42.758  14.730   0.754
51090W        W16317  22.178  44.267  12.080
51091W        W16318  41.528  42.352  13.513
51092W        W16319  39.458  36.431  13.592
51093W        W16320   7.124  16.613  13.465
51094W        W16321  42.457  29.046   3.395
51095W        W16322  21.417  42.725   4.161
51096W        W16323  41.103  35.058   0.048
51097W        W16324  37.021  26.505  10.671
51098W        W16325  24.623  11.662   0.851
51099W        W16326  42.347  25.139  13.459
51100W        W16327  43.360   3.373   2.384
51101W        W16328  32.608   7.446  13.883
51102W        W16329  17.573  15.072  13.587
51103W        W16330   4.740  38.942   2.844
51104W        W16331  11.690   9.996   5.139
51105W        W16332  10.840  11.756   2.853
51106W        W16333  20.871  28.010  12.054
51107W        W16334  38.924  43.028   2.833
51108W        W16335  19.307  34.373  11.500
51109W        W16336  17.308  13.249   1.349
51110W        W16337  18.611  31.018   0.749
51111W        W16338   2.644  11.853   3.786
51112W        W16339  10.505  16.487  11.619
51113W        W16340  42.358  23.646   2.307
51114W        W16341  27.714  21.991  10.717
51115W        W16342  21.245  10.761  12.572
51116W        W16343  24.286  24.420  13.682
51117W        W16344  28.051  28.426   1.810
51118W        W16345   1.775  30.552  10.734
51119W        W16346  11.025  20.329  14.738
51120W        W16347  43.788  39.087   2.174
51121W        W16348  24.073  37.296   3.239
51122W        W16349   5.161  14.269  13.409
51123W        W16350  13.830  10.316  10.544
51124W        W16351  41.304  31.921  12.692
51125W        W16352  40.821  38.626  11.127
51126W        W16353  44.320  16.757   2.341
51127W        W16354  11.776  43.304  10.818
51128W        W16355   2.404  34.280   1.876
51129W        W16356  25.738  16.339  13.389
51130W        W16357   6.838  11.891  13.892
51131W        W16358  34.729  43.024  13.526
51132W        W16359  12.349  14.186   3.610
51133W        W16360  41.724   0.863  13.800
51134W        W16361  42.240  37.078  14.455
51135W        W16362  16.656  26.763  13.357
51136W        W16363   3.180   5.880  10.680
51137W        W16364   9.438  19.284  11.140
51138W        W16365  14.744  36.693  11.997
51139W        W16366  16.641  40.691   3.557
51140W        W16367   4.217   2.328   3.731
51141W        W16368  14.701  41.289   4.343
51142W        W16369  23.134  39.979  12.372
51143W        W16370   2.814  19.625   4.538
51144W        W16371  32.020  17.956   1.069
51145W        W16372   0.417  29.232   0.934
51146W        W16373   9.290   0.843  12.500
51147W        W16374  40.314  37.542   2.553
51148W        W16375  18.310  14.669   2.234
51149W        W16376  33.697  36.178   5.029
51150W        W16377  28.128   8.285   1.227
51151W        W16378  35.366  21.460   1.370
51152W        W16379   5.625  38.343   1.915
51153W        W16380  19.595  17.650  14.964
51154W        W16381   5.763  26.021   3.146
51155W        W16382  42.826   5.953  13.008
51156W        W16383  24.048  12.878   3.816
51157W        W16384  41.286  19.980   3.618
51158W        W16385  32.931  25.460   3.127
51159W        W16386  43.259  22.546  11.163
51160W        W16387  24.892  43.893  11.093
51161W        W16388  21.050  17.908   0.969
51162W        W16389  35.136   3.566   4.261
51163W        W16390  29.994  39.903   3.383
51164W        W16391  16.818   0.009   1.381
51165W        W16392  25.591  15.536  12.930
51166W        W16393   6.294   5.355  14.484
51167W        W16394   4.292  11.829   1.553
51168W        W16395   5.494  24.060   4.999
51169W        W16396  43.920  41.440  12.992
51170W        W16397  44.947  30.808  13.617
51171W        W16398   7.732  22.689   1.482
51172W        W16399  27.392  34.983  11.753
51173W        W16400   7.016   1.325   0.438
51174W        W16401  16.159  21.729  11.716
51175W        W16402  25.603   7.136   0.639
51176W        W16403  14.437  37.364   0.089
51177W        W16404  42.820  23.328   4.466
51178W        W16405  40.286   1.054  12.547
51179W        W16406  22.091  41.854   0.497
51180W        W16407   6.695   0.356  11.217
51181W        W16408  15.662  22.635   2.285
51182W        W16409  30.133  32.771  12.930
51183W        W16410  32.013  25.927   4.845
51184W        W16411  12.405  17.935   3.799
51185W        W16412  22.555  36.103   2.406
51186W        W16413   5.908  36.160   2.783
51187W        W16414  11.596  36.946  14.941
51188W        W16415  10.274  15.488   3.647
51189W        W16416  14.244  43.724   2.331
51190W        W16417   1.210   4.967  13.516
51191W        W16418  39.253  19.790   5.056
51192W        W16419   1.261  34.658   2.987
51193W        W16420  21.218  35.389  12.879
51194W        W16421  33.393  42.639   1.541
51195W        W16422  16.189  35.586   2.666
51196W        W16423  22.648  10.123   5.084
51197W        W16424  20.987  12.871  14.251
51198W        W16425   1.257   8.260   4.622
51199W        W16426  38.939  16.176   0.493
51200W        W16427  11.015   9.556  12.489
51201W        W16428  12.384   1.211   0.434
51202W        W16429  20.754  41.817   5.302
51203W        W16430  21.758  26.430   2.363
51204W        W16431   1.306  33.508  11.133
51205W        W16432  10.061  28.851   3.276
51206W        W16433  40.071   1.320   1.806
51207W        W16434  10.049  21.520   0.870
51208W        W16435  43.436  19.379   2.705
51209W        W16436   8.308  17.354  14.918
51210W        W16437   7.399  36.391  10.498
51211W        W16438  28.594  43.932  13.351
51212W        W16439  25.453  31.229   2.213
51213W        W16440  27.041  37.400   2.650
51214W        W16441  21.814  28.231  12.940
51215W        W16442  38.987   4.911   0.123
51216W        W16443  15.151  16.767   2.286
51217W        W16444  32.260  14.909   2.325
51218W        W16445  18.163  39.274   2.728
51219W        W16446   7.780   6.453  13.070
51220W        W16447  26.060  31.631   0.526
51221W        W16448  32.139  10.846   1.260
51222W        W16449  28.101   3.648  13.354
51223W        W16450  24.038  26.454   2.381
51224W        W16451  21.737  44.800   1.091
51225W        W16452  32.199  27.625   3.134
51226W        W16453  34.355  44.989   0.347
51227W        W16454  38.054  30.993   1.778
51228W        W16455  19.215  33.914   4.029
51229W        W16456  19.081  33.714   3.405
51230W        W16457   9.770  20.094  12.608
51231W        W16458   2.015  10.699  10.597
51232W        W16459  40.537  14.412   2.249
51233W        W16460  39.086  27.614  14.699
51234W        W16461  23.505  23.643  13.954
51235W        W16462   1.773  38.453  14.047
51236W        W16463  40.858   9.185  11.015
51237W        W16464  26.564  31.428   0.413
51238W        W16465  29.109  26.872  13.809
51239W        W16466  20.773  31.818  11.493
51240W        W16467  42.776  24.965   1.784
51241W        W16468  24.187  42.879  12.255
51242W        W16469  33.492  24.837  11.556
51243W        W16470  15.135   8.768   1.737
51244W        W16471  34.384  22.048  11.419
51245W        W16472  28.269  36.030   4.945
51246W        W16473  39.612  13.100   3.429
51247W        W16474  44.737  24.914  13.312
51248W        W16475  29.145  14.554  13.170
51249W        W16476  43.215  18.554  11.886
51250W        W16477  26.189  25.185   0.822
51251W        W16478  23.786   5.781   2.818
51252W        W16479  40.218  23.208   1.230
51253W        W16480   3.897  25.268  11.956
51254W        W16481  44.776  38.094   3.459
51255W        W16482   1.744  44.220   2.174
51256W        W16483  22.102   0.364   2.756
51257W        W16484   0.903   5.769  10.710
51258W        W16485  43.724  31.605  13.460
51259W        W16486  42.752  30.330   2.352
51260W        W16487  18.658  27.867  14.388
51261W        W16488  19.227  37.847   4.042
51262W        W16489   6.811  38.203  14.369
51263W        W16490  28.198  23.921   4.424
51264W        W16491  39.001  13.657   4.783
51265W        W16492  10.707   5.864   1.437
51266W        W16493  18.099  17.768   3.012
51267W        W16494  11.163  30.605   1.759
51268W        W16495  30.340  29.392   3.529
51269W        W16496  41.548  13.102  14.015
51270W        W16497  18.224  32.105  14.304
51271W        W16498   2.349  29.548  11.185
51272W        W16499  42.804  18.473  10.859
51273W        W16500  23.946  17.766  10.553
51274W        W16501  24.766  13.406  11.563
51275W        W16502  18.178  43.663  10.598
51276W        W16503   9.950  11.236  14.477
51277W        W16504  43.302  34.461   3.547
51278W        W16505  36.529  23.044   2.751
51279W        W16506  25.636  40.425   1.418
51280W        W16507  22.192  26.027  12.101
51281W        W16508  13.860  24.097  12.466
51282W        W16509   0.332  30.217  14.943
51283W        W16510  29.688  32.340   4.090
51284W        W16511  30.618  19.105  14.500
51285W        W16512  27.141  41.101   4.531
51286W        W16513  22.539  15.163   2.728
51287W        W16514  29.573  25.897  10.348
51288W        W16515  23.545  44.883  11.573
51289W        W16516  12.198  13.709   3.456
51290W        W16517   8.256   7.347   2.483
51291W        W16518  14.250  42.221   1.320
51292W        W16519   4.917  25.500   1.311
51293W        W16520   4.790  38.126  11.252
51294W        W16521   8.214   4.153   0.348
51295W        W16522  13.246  18.511  11.510
51296W        W16523  17.522   9.771   0.928
51297W        W16524  22.498  18.125  10.606
51298W        W16525  42.671   0.739   1.203
51299W        W16526  15.673   6.581  13.653
51300W        W16527  33.659  14.316   1.847
51301W        W16528  44.928   7.460   0.874
51302W        W16529  29.012  27.520   4.996
51303W        W16530   9.362  37.938  14.030
51304W        W16531  20.944  38.046  10.454
51305W        W16532  18.883  38.549  14.687
51306W        W16533  14.624   5.234   4.521
51307W        W16534  32.380  31.990  12.027
51308W        W16535  30.696  30.077   0.260
51309W        W16536  17.193   5.769  14.810
51310W        W16537  23.157  32.916  10.646
51311W        W16538  20.954  36.392   1.906
51312W        W16539   6.271  24.583  11.396
51313W        W16540  27.747  24.521   3.051
51314W        W16541   6.274  12.437   1.750
51315W        W16542  31.411   7.409   1.654
51316W        W16543  14.216  19.154   0.962
51317W        W16544  23.060   8.941  12.892
51318W        W16545  37.794  17.843  13.978
51319W        W16546   2.605  24.699   4.381
51320W        W16547  30.492  34.411  14.848
51321W        W16548  44.419   2.497  12.380
51322W        W16549  27.195  43.389   1.926
51323W        W16550  14.569  18.021  12.398
51324W        W16551   9.370  16.422  11.848
51325W        W16552  27.162  20.433  11.235
51326W        W16553  20.161  32.662   2.637
51327W        W16554   9.801  27.078   0.680
51328W        W16555  44.235   1.271   2.612
51329W        W16556   3.259  11.815  13.425
51330W        W16557  10.691   8.353   1.881
51331W        W16558  35.106   2.969   2.961
51332W        W16559  26.097  34.603  14.238
51333W        W16560   8.101   2.846  14.748
51334W        W16561   0.933  13.094   3.361
51335W        W16562  43.398   7.142  10.502
51336W        W16563  20.060  34.843   0.308
51337W        W16564  21.701  31.376  11.554
51338W        W16565  41.872  22.899  12.600
51339W        W16566  33.131   9.152  14.464
51340W        W16567   9.534  19.533  14.991
51341W        W16568   8.171  44.369   2.602
51342W        W16569  44.265  37.554   0.330
51343W        W16570   5.742  19.695   2.438
51344W        W16571  28.626  42.614  10.796
51345W        W16572  19.199   0.274   3.943
51346W        W16573  12.396  20.479   4.084
51347W        W16574  30.079  17.899  12.021
51348W        W16575  18.595  14.605  13.529
51349W        W16576  10.115  30.420  11.130
51350W        W16577  24.279  31.589  10.532
51351W        W16578  30.195  39.834   2.917
51352W        W16579  12.821  34.100  12.502
51353W        W16580  41.302   7.565  13.012
51354W        W16581  30.428  40.467  12.397
51355W        W16582  34.438  42.096   2.452
51356W        W16583  40.397  27.862   3.815
51357W        W16584   3.493  34.123  13.577
51358W        W16585  13.806  34.047   5.028
51359W        W16586  17.235  30.612   0.853
51360W        W16587  26.977  36.931  13.525
51361W        W16588  37.171  25.551  12.143
51362W        W16589   9.543  44.585  12.881
51363W        W16590   9.913  17.777   4.077
51364W        W16591  19.038  27.612   1.379
51365W        W16592   3.828   2.731  12.789
51366W        W16593   0.966  20.139   2.274
51367W        W16594   6.306   1.828   2.564
51368W        W16595  21.203   0.496   3.155
51369W        W16596  38.149  23.945  13.966
51370W        W16597  16.255  21.672   4.926
51371W        W16598  25.919  32.632   2.323
51372W        W16599  35.493  31.735   4.129
51373W        W16600  37.457   1.793  12.916
51374W        W16601  37.682  33.011   3.522
51375W        W16602  20.044  27.942  11.172
51376W        W16603  27.663   7.394  11.498
51377W        W16604  11.813  17.543  13.911
51378W        W16605   2.496  26.743  13.372
51379W        W16606   2.241   2.314   2.172
51380W        W16607  16.725  29.522   2.335
51381W        W16608   3.561  10.765   2.668
51382W        W16609  36.987   8.161  11.967
51383W        W16610   3.886  33.951   2.119
51384W        W16611  43.094  16.653  14.898
51385W        W16612  41.179  42.475  12.985
51386W        W16613   4.722  34.940  11.378
51387W        W16614   7.159   0.363   1.582
51388W        W16615  39.612  23.587  12.932
51389W        W16616  38.127   2.334   1.071
51390W        W16617  12.480  40.049  11.337
51391W        W16618  27.007  27.410   4.311
51392W        W16619  30.994   2.913   0.866
51393W        W16620  43.250  14.380  13.574
51394W        W16621   8.266  14.070   0.468
51395W        W16622  27.568  37.877  10.737
51396W        W16623  39.200  41.459  11.639
51397W        W16624   9.077   5.979   1.228
51398W        W16625  41.457  20.842   4.184
51399W        W16626  38.683  25.316   3.127
51400W        W16627  17.391  16.109  11.617
51401W        W16628   7.190  16.337   1.986
51402W        W16629  30.907  40.719  13.563
51403W        W16630  44.830  38.658  11.669
51404W        W16631  29.928  22.305   0.286
51405W        W16632  34.741  23.430  13.973
51406W        W16633  36.086  14.095  11.639
51407W        W16634  22.164  21.954  11.228
51408W        W16635  25.575  22.178   0.783
51409W        W16636  25.474  17.051   1.825
51410W        W16637   6.953  40.085  12.929
51411W        W16638  34.043  35.509  13.095
51412W        W16639  34.426  39.637   0.294
51413W        W16640  19.070  30.185   1.462
51414W        W16641  24.018  28.973   1.209
51415W        W16642  21.958   3.581  12.048
51416W        W16643  37.831  18.704  11.781
51417W        W16644  13.010  18.164   0.041
51418W        W16645  38.974  40.510   1.898
51419W        W16646  12.861  36.597  12.935
51420W        W16647  30.407  33.102  14.397
51421W        W16648  28.219   1.770  14.447
51422W        W16649  34.357  37.951  13.441
51423W        W16650  35.377  16.043  12.290
51424W        W16651  13.339  28.884  10.911
51425W        W16652  25.023  15.777   9.645
51426W        W16653  19.411   0.761  11.310
51427W        W16654  44.500   5.937  13.369
51428W        W16655  18.959  43.894  13.171
51429W        W16656   5.935   4.212  12.674
51430W        W16657   0.082  44.393  11.464
51431W        W16658   8.662  28.390  14.126
51432W        W16659  23.490  16.439  12.032
51433W        W16660  27.938  12.830  14.639
51434W        W16661  24.112   4.881  13.845
51435W        W16662  10.295  19.159  11.178
51436W        W16663  44.870  12.666   4.260
51437W        W16664  40.889   1.270   4.053
51438W        W16665  30.860  29.152  13.635
51439W        W16666  19.615   7.357  11.436
51440W        W16667  31.997  21.188   0.365
51441W        W16668  17.117  18.633  12.113
51442W        W16669  15.612  29.142  10.704
51443W        W16670  43.802   4.592   2.382
51444W        W16671   1.164  13.160   0.701
51445W        W16672  43.965  32.446  14.949
51446W        W16673  33.898  33.155   2.503
51447W        W16674  35.400  30.678   3.295
51448W        W16675  35.297  32.602   3.933
51449W        W16676  23.483  32.514   3.062
51450W        W16677  32.183   6.670   1.849
51451W        W16678  23.026  30.575  11.412
51452W        W16679  14.678  32.594  14.523
51453W        W16680  41.069  30.393   0.961
51454W        W16681  32.007  32.133  14.701
51455W        W16682   9.587  18.313  11.342
51456W        W16683  18.451  22.729  12.083
51457W        W16684  37.585  33.158  14.057
51458W        W16685  39.629   4.645   2.316
51459W        W16686  39.230  13.553   2.663
51460W        W16687  11.606   2.016   3.269
51461W        W16688  31.940  33.851   0.775
51462W        W16689  43.406  25.520  13.907
51463W        W16690   4.677  32.663   2.804
51464W        W16691  26.647  10.760  11.173
51465W        W16692   4.809   9.192  10.382
51466W        W16693  29.459  33.904   3.697
51467W        W16694   7.320  12.580   0.833
51468W        W16695  34.119  39.803  12.513
51469W        W16696  29.095  28.057   2.678
51470W        W16697  12.557  42.162   0.502
51471W        W16698  30.502  35.831   0.266
51472W        W16699  14.738  31.667   1.135
51473W        W16700  31.308  34.070  11.575
51474W        W16701  26.308  12.392  11.211
51475W        W16702  36.923  24.456   4.182
51476W        W16703  41.759  16.574   4.645
51477W        W16704  44.999  31.074  13.130
51478W        W16705  10.249  25.128   4.571
51479W        W16706  15.376  20.544   0.277
51480W        W16707  38.183  11.319   3.835
51481W        W16708  31.507  33.673  12.500
51482W        W16709  18.542  44.363  13.969
51483W        W16710   9.691  41.908  12.544
51484W        W16711  40.653  24.218  13.451
51485W        W16712  44.076   9.375  13.529
51486W        W16713  22.919  29.073  14.919
51487W        W16714  42.998   0.892  11.326
51488W        W16715  13.753  21.544  12.827
51489W        W16716  10.151  26.091  11.289
51490W        W16717  43.003   8.882   3.725
51491W        W16718  32.228  15.063  14.731
51492W        W16719  32.685  24.461  11.378
51493W        W16720  10.962  16.745   4.037
51494W        W16721   6.721  29.509  13.862
51495W        W16722  32.184  22.560  11.530
51496W        W16723  30.103  22.063   2.700
51497W        W16724   1.159  20.058   1.809
51498W        W16725  42.306   0.251   4.182
51499W        W16726  38.044  43.071  12.898
51500W        W16727  34.512  27.099  10.838
51501W        W16728  25.456  26.208   1.769
51502W        W16729  36.604   3.699   3.596
51503W        W16730  44.170  41.939   5.024
51504W        W16731  21.580  23.195   4.594
51505W        W16732  39.639   0.062   4.108
51506W        W16733  42.788  25.309   0.295
51507W        W16734  26.991   8.273   4.214
51508W        W16735  44.777  35.049  10.751
51509W        W16736  13.757  32.046   0.225
51510W        W16737  41.549  20.070  14.475
51511W        W16738  19.216  28.392   3.621
51512W        W16739   5.448  18.158   3.316
51513W        W16740   5.266  31.044   0.330
51514W        W16741  26.699  23.647   1.445
51515W        W16742   6.650  17.517   1.378
51516W        W16743  37.477  44.579   0.511
51517W        W16744  11.263  40.668   3.192
51518W        W16745  16.390   7.781  14.010
51519W        W16746   5.227  14.369   3.657
51520W        W16747  33.376   9.349  12.114
51521W        W16748   3.765  25.656  13.133
51522W        W16749  10.700  40.787  12.402
51523W        W16750  36.593  13.843   3.234
51524W        W16751  35.038  33.911   2.400
51525W        W16752  41.294  29.428  14.331
51526W        W16753  25.387  38.311  13.810
51527W        W16754  11.432  38.336  10.754
51528W        W16755  41.503  34.872  12.909
51529W        W16756  37.129  35.707   1.293
51530W        W16757  30.613  32.130   0.920
51531W        W16758  36.045  39.897  11.202
51532W        W16759  44.007  30.139   1.994
51533W        W16760   8.133  29.578   1.157
51534W        W16761  12.299   4.685   3.178
51535W        W16762  35.198  25.689  14.124
51536W        W16763   4.115  31.833   4.233
51537W        W16764   1.740  28.328   1.367
51538W        W16765  15.273  27.230  13.918
51539W        W16766   1.269   1.698   1.218
51540W        W16767   0.808  11.756  13.078
51541W        W16768  10.190  17.930  12.562
51542W        W16769  11.103   6.738  14.057
51543W        W16770  24.040  30.595   3.678
51544W        W16771  39.241  16.191   4.672
51545W        W16772  11.469  30.632   3.708
51546W        W16773  42.164   1.657   2.153
51547W        W16774  40.087  28.270   3.691
51548W        W16775  43.383  34.717   4.697
51549W        W16776  24.092   3.373  13.477
51550W        W16777  43.353  12.503  14.991
51551W        W16778  27.867  14.284  11.574
51552W        W16779  32.649  17.686  12.204
51553W        W16780   2.035   6.124  14.398
51554W        W16781   3.096   6.620  13.049
51555W        W16782  24.198   9.883  13.026
51556W        W16783  35.036  42.056   0.073
51557W        W16784   1.893  20.240   1.294
51558W        W16785  40.573  28.634   3.985
51559W        W16786   9.871  43.555   3.823
51560W        W16787  35.108  35.076   3.831
51561W        W16788  39.880   2.828   1.763
51562W        W16789  42.075  23.467   1.888
51563W        W16790  39.989  13.892   3.184
51564W        W16791  10.602   0.698   1.105
51565W        W16792  17.706  25.648  14.466
51566W        W16793  31.958   4.962  13.923
51567W        W16794  16.121  36.327   0.210
51568W        W16795   8.907  14.803  12.893
51569W        W16796  24.859  23.984  13.014
51570W        W16797  24.594  16.510   3.661
51571W        W16798   9.639  11.093   0.869
51572W        W16799  17.635  16.596  11.521
51573W        W16800  28.499  30.014  10.664
51574W        W16801  32.960  11.529  12.422
51575W        W16802  14.721  26.242   2.627
51576W        W16803   5.680  41.751  10.685
51577W        W16804  35.351  39.075  12.350
51578W        W16805  35.063  14.594  13.986
51579W        W16806  18.262  27.532  14.376
51580W        W16807  22.960  20.314   3.278
51581W        W16808   6.720   2.573   3.504
51582W        W16809  16.854   2.811   0.410
51583W        W16810  37.807  21.048   2.657
51584W        W16811  29.641  16.069   2.727
51585W        W16812  26.211   1.494   3.629
51586W        W16813  34.863  21.706  13.274
51587W        W16814  28.996  24.367   0.315
51588W        W16815   3.713   7.236   2.868
51589W        W16816  43.753  32.047   2.184
51590W        W16817  13.691  33.938  12.890
51591W        W16818  13.754  14.703  13.602
51592W        W16819  39.361  39.610   0.466
51593W        W16820  37.569  30.036   1.931
51594W        W16821  18.628  20.834  11.161
51595W        W16822   4.092  39.405  11.112
51596W        W16823  30.402  10.574  14.921
51597W        W16824  15.389  40.665  11.183
51598W        W16825  27.427  33.127   1.771
51599W        W16826  20.288   8.943  13.907
51600W        W16827  26.243  36.487   0.864
51601W        W16828  23.542  19.983  12.047
51602W        W16829  15.509  26.764  14.441
51603W        W16830   3.646  42.015  12.932
51604W        W16831  21.916   5.634   1.315
51605W        W16832  44.422   4.352   1.662
51606W        W16833  14.005  23.499   4.258
51607W        W16834  10.901   7.947   0.679
51608W        W16835   7.256  37.039  13.337
51609W        W16836   3.511  36.063   2.801
51610W        W16837  31.955   4.170   3.778
51611W        W16838  27.084  44.326  13.825
51612W        W16839  13.647  10.366   4.120
51613W        W16840  33.908  27.929   0.702
51614W        W16841  43.658  17.771   9.933
51615W        W16842  22.598  11.276   3.331
51616W        W16843  13.196  25.618  13.394
51617W        W16844   4.298  31.869  10.803
51618W        W16845  23.404   4.893   1.775
51619W        W16846  10.318  17.874   1.182
51620W        W16847  21.336  19.173  10.746
51621W        W16848  38.097  13.230   2.927
51622W        W16849   5.723  35.566   3.703
51623W        W16850   4.150  15.313  11.407
51624W        W16851   9.199  16.825  12.144
51625W        W16852  39.448  36.118   1.318
51626W        W16853  21.816   6.147  14.299
51627W        W16854   1.540  26.163   0.472
51628W        W16855  33.405  28.418  14.932
51629W        W16856  35.600   4.390  13.234
51630W        W16857  30.048   9.356   2.462
51631W        W16858  28.932  30.999   4.528
51632W        W16859  36.933  23.476   0.748
51633W        W16860   7.155   6.407   1.244
51634W        W16861  18.818  32.954   1.127
51635W        W16862  32.639  24.973   3.891
51636W        W16863   9.588  34.471  14.994
51637W        W16864  21.081  23.990  12.403
51638W        W16865  19.212  39.838   3.601
51639W        W16866  43.493   1.011  11.435
51640W        W16867  37.759   5.852   3.365
51641W        W16868  29.912  11.731   3.838
51642W        W16869  21.045  22.780  14.362
51643W        W16870   8.116   5.493   2.834
51644W        W16871   2.437   5.262  13.981
51645W        W16872  43.429  32.002  14.949
51646W        W16873  19.192  11.831  12.059
51647W        W16874  43.266  27.636   2.497
51648W        W16875  35.011  22.955  12.124
51649W        W16876   8.285  29.685   3.374
51650W        W16877  11.984  13.766  11.634
51651W        W16878  42.064  22.442  12.683
51652W        W16879   8.112   0.974  14.412
51653W        W16880  13.261  41.752  11.841
51654W        W16881  24.139  30.845   4.155
51655W        W16882  42.292  32.251  10.382
51656W        W16883  24.482  29.094   2.079
51657W        W16884  39.890   9.385   0.649
51658W        W16885  28.095   0.346   0.407
51659W        W16886  23.259  43.901  12.007
51660W        W16887  27.552  16.057  10.580
51661W        W16888  37.673   3.343   3.008
51662W        W16889  11.958  11.956  13.830
51663W        W16890  33.543   5.240  14.347
51664W        W16891   5.184  38.120  12.014
51665W        W16892  16.590   6.815   3.343
51666W        W16893   0.242  15.309   1.727
51667W        W16894  36.927  12.358   4.572
51668W        W16895   0.807  28.629  12.559
51669W        W16896  37.942  10.895  10.661
51670W        W16897  12.875  28.819  12.170
51671W        W16898   4.682  32.263   3.212
51672W        W16899  32.863  34.039   0.968
51673W        W16900  32.789   3.014   3.199
51674W        W16901  15.131  15.276   4.651
51675W        W16902  33.625  21.723  14.494
51676W        W16903   0.760  23.233  14.766
51677W        W16904   8.424  10.502   2.294
51678W        W16905   9.273  20.234  14.797
51679W        W16906  18.584  15.514  13.780
51680W        W16907  44.806   2.569   2.239
51681W        W16908  33.642   3.853  13.126
51682W        W16909  21.716  27.711   2.981
51683W        W16910  41.379   1.219   1.254
51684W        W16911  44.974   1.970  12.996
51685W        W16912   4.677   4.355   2.093
51686W        W16913   4.162  32.316   3.202
51687W        W16914  41.895  37.387   2.574
51688W        W16915  38.029  31.134  11.619
51689W        W16916   0.961  13.670   2.534
51690W        W16917  33.901  29.670  12.227
51691W        W16918  28.596   2.096  14.276
51692W        W16919  28.991  34.266   2.443
51693W        W16920   8.644  22.599   4.487
51694W        W16921  34.084  22.273   1.819
51695W        W16922  18.601   9.937  14.741
51696W        W16923   8.847  27.049   3.585
51697W        W16924   4.699  11.224   0.432
51698W        W16925   9.829  33.957  10.623
51699W        W16926   1.208   6.674   2.753
51700W        W16927  39.126  26.204   3.049
51701W        W16928   5.042  44.338  11.470
51702W        W16929   2.832  33.627   1.778
51703W        W16930   7.880  12.765  12.425
51704W        W16931   4.891   9.305   1.449
51705W        W16932   7.566  41.334  12.023
51706W        W16933  10.105  38.998  10.678
51707W        W16934  40.757   4.866   0.055
51708W        W16935   4.978   2.027  11.518
51709W        W16936  38.804  12.643   0.945
51710W        W16937  31.495   2.911  11.475
51711W        W16938  33.915  40.300   0.742
51712W        W16939  17.071  21.625   3.882
51713W        W16940   1.635  20.030   5.360
51714W        W16941   7.305   7.874  13.380
51715W        W16942  14.612   9.587  11.189
51716W        W16943   2.846   0.528   4.427
51717W        W16944  27.607  19.969   2.314
51718W        W16945  34.588   4.456   1.895
51719W        W16946   4.714  32.809   0.286
51720W        W16947  11.141  40.691   4.076
51721W        W16948  35.091  23.080  12.646
51722W        W16949  18.071   0.380  11.254
51723W        W16950  35.030  15.786  12.564
51724W        W16951  28.696  33.537   4.616
51725W        W16952   0.432   4.371  12.849
51726W        W16953  38.050  39.835   3.402
51727W        W16954  35.810   8.872   2.622
51728W        W16955  21.464  24.721   4.525
51729W        W16956  12.751  30.017   2.829
51730W        W16957  22.160  28.224   4.505
51731W        W16958  33.903  25.569   0.001
51732W        W16959  17.906  12.868   4.522
51733W        W16960  19.190  40.434  10.648
51734W        W16961  18.624  24.584  10.676
51735W        W16962  35.312   3.599  12.223
51736W        W16963  39.288  24.531  10.410
51737W        W16964   6.126  42.614  14.201
51738W        W16965  36.877  37.207  13.303
51739W        W16966   8.403  36.349   0.262
51740W        W16967  31.062  10.353   2.009
51741W        W16968  26.664   2.650  11.630
51742W        W16969  11.878   9.549  11.453
51743W        W16970  32.804  11.696   0.424
51744W        W16971  35.866   2.273   2.561
51745W        W16972   3.369   6.918   4.434
51746W        W16973   8.992   7.294  11.204
51747W        W16974   2.272  20.611  12.776
51748W        W16975   9.452  36.552   2.366
51749W        W16976  39.054  27.099  14.861
51750W        W16977  35.989  17.328  12.467
51751W        W16978   3.904  11.117   1.744
51752W        W16979   2.780  13.471  12.010
51753W        W16980  29.740  33.040   3.401
51754W        W16981   1.094   1.450   2.794
51755W        W16982  11.459  29.929   3.329
51756W        W16983  29.100  31.336   2.770
51757W        W16984  15.702  36.498  12.410
51758W        W16985  10.820  25.926  10.556
51759W        W16986   0.890   5.443   1.490
51760W        W16987  29.505  23.258  10.830
51761W        W16988   5.923  39.302   0.192
51762W        W16989  44.369   3.370   0.299
51763W        W16990  28.084   3.944   2.223
51764W        W16991  28.504  34.947  11.749
51765W        W16992  19.937  44.873  13.458
51766W        W16993   0.341   8.173   4.698
51767W        W16994   6.781  11.108   1.347
51768W        W16995   1.493  30.205  10.520
51769W        W16996  16.281  29.968  11.991
51770W        W16997  11.420  29.913  12.547
51771W        W16998   3.335   9.166   3.356
51772W        W16999  33.605   1.948  12.394
51773W        W17000  27.885  13.391   4.801
51774W        W17001  20.085  44.096  13.842
51775W        W17002  22.704  27.956   1.709
51776W        W17003  43.086  28.085   0.404
51777W        W17004  24.090  12.944   4.335
51778W        W17005  31.477  43.384   2.057
51779W        W17006  20.067  20.402   4.169
51780W        W17007  36.619   9.470   4.976
51781W        W17008  18.060   0.704   3.445
51782W        W17009  12.023  31.324  10.205
51783W        W17010  18.779  27.666  13.481
51784W        W17011  27.380   2.331   4.092
51785W        W17012  19.790   5.645  12.158
51786W        W17013  41.393   2.494  13.063
51787W        W17014  31.980   0.257  12.409
51788W        W17015  44.934  21.023   2.648
51789W        W17016  23.020  38.816  11.530
51790W        W17017  42.305  30.546   0.959
51791W        W17018  26.134  37.186   2.208
51792W        W17019   9.159  31.039   1.838
51793W        W17020  38.800   2.159  11.482
51794W        W17021  43.543  40.988   0.343
51795W        W17022  23.285  44.777  10.196
51796W        W17023  36.526   7.397   1.354
51797W        W17024   0.528  31.209   2.205
51798W        W17025  10.171  42.992  10.463
51799W        W17026  16.547  15.224  11.275
51800W        W17027  33.699  20.722  14.370
51801W        W17028  15.192  20.317   3.730
51802W        W17029  10.132  25.521   4.874
51803W        W17030  27.211  25.372  12.520
51804W        W17031  31.502  37.517   1.808
51805W        W17032  44.469   5.278  11.887
51806W        W17033   8.638  21.728   2.121
51807W        W17034  41.901  21.158   4.119
51808W        W17035  35.383  33.531  10.981
51809W        W17036  34.057  40.088  11.288
51810W        W17037   4.265  21.155   4.589
51811W        W17038  29.358  41.065  13.990
51812W        W17039   8.165  44.227   3.653
51813W        W17040  38.553  40.495  11.738
51814W        W17041  16.223  26.537   1.760
51815W        W17042  35.525   7.782   0.758
51816W        W17043  10.615  43.699   0.444
51817W        W17044  23.803  14.143   2.619
51818W        W17045  40.717  16.747  14.314
51819W        W17046   5.514  15.223   1.364
51820W        W17047   0.760  35.924   2.616
51821W        W17048   4.678   8.625  14.092
51822W        W17049   9.181  39.320   4.061
51823W        W17050  38.344  16.742  13.945
51824W        W17051  37.485   2.233  11.957
51825W        W17052  28.245   3.774  14.273
51826W        W17053  23.091  34.948   1.597
51827W        W17054   8.976  39.409   0.911
51828W        W17055  14.811  15.763  11.074
51829W        W17056   0.892   4.270   4.090
51830W        W17057  41.633  25.725  10.686
51831W        W17058  30.827  26.099  14.341
51832W        W17059  28.252  15.732   4.475
51833W        W17060  37.093   3.848  11.367
51834W        W17061  18.651  32.805  12.022
51835W        W17062  10.402  42.717   2.680
51836W        W17063  25.209  17.085  11.653
51837W        W17064  26.435   4.878   3.707
51838W        W17065  41.826  15.841  11.738
51839W        W17066  37.473  21.784   4.374
51840W        W17067  18.522  17.569   1.638
51841W        W17068  16.017   3.490  13.366
51842W        W17069   8.490  14.288  13.952
51843W        W17070  19.285  32.483  10.747
51844W        W17071  38.238  35.344   2.861
51845W        W17072  37.994   2.457   3.873
51846W        W17073   9.555  13.307   1.329
51847W        W17074  35.459  38.888   5.174
51848W        W17075  17.348  31.831  13.200
51849W        W17076  24.658  14.182   2.885
51850W        W17077  40.154  34.544   4.186
51851W        W17078  18.039  44.045   2.559
51852W        W17079  19.406  18.350  14.926
51853W        W17080   5.026  12.600  10.297
51854W        W17081  25.698  19.085   1.203
51855W        W17082  44.579  23.433   0.211
51856W        W17083  33.598  18.142  12.909
51857W        W17084  42.095  44.355   5.237
51858W        W17085  25.062  10.409  10.641
51859W        W17086  27.040  18.400   1.460
51860W        W17087  25.554   8.377  14.525
51861W        W17088  43.651  11.830   3.151
51862W        W17089  42.779  23.291   2.680
51863W        W17090   4.010  30.024  10.664
51864W        W17091  31.012  19.002  10.919
51865W        W17092   2.584  13.573   3.394
51866W        W17093  16.155  36.445  11.683
51867W        W17094  19.202  16.147   2.636
51868W        W17095  38.508  37.742  11.515
51869W        W17096   8.819  23.457  13.420
51870W        W17097  20.059  26.031   0.460
51871W        W17098  18.109  26.186   3.818
51872W        W17099  18.237   3.870  14.987
51873W        W17100  39.533   4.004   0.251
51874W        W17101  44.951  10.355   3.849
51875W        W17102   7.677   0.429   0.825
51876W        W17103  35.385   4.731   3.872
51877W        W17104  15.031  15.331  12.495
51878W        W17105   0.809  34.028  10.869
51879W        W17106  13.383  34.500   0.929
51880W        W17107  29.994  20.620  14.950
51881W        W17108  40.854  35.734   3.302
51882W        W17109  19.327  30.581   3.238
51883W        W17110   6.254  17.709   1.113
51884W        W17111   2.372  19.741   0.840
51885W        W17112  36.288  10.270   4.008
51886W        W17113   0.049  33.106   0.953
51887W        W17114   5.948  39.867   3.339
51888W        W17115  26.620  44.343   0.936
51889W        W17116  34.324   2.740   4.158
51890W        W17117  30.227   5.565   4.135
51891W        W17118  31.859  37.660  13.889
51892W        W17119  31.139  12.109   2.759
51893W        W17120  38.265  19.719   1.353
51894W        W17121   2.691  35.098   0.449
51895W        W17122  23.015  28.421  12.557
51896W        W17123  36.245  19.674  10.663
51897W        W17124  35.806  29.936  10.707
51898W        W17125  43.234  38.380   0.358
51899W        W17126   5.802  25.977   2.105
51900W        W17127  44.453  24.129   3.586
51901W        W17128  18.420   5.216  12.488
51902W        W17129  33.066  13.345  12.350
51903W        W17130  13.211  27.848  12.010
51904W        W17131  31.637  32.026  13.901
51905W        W17132  41.002  16.352   1.846
51906W        W17133   1.458  11.209   4.680
51907W        W17134  41.492  14.077   2.786
51908W        W17135  28.154  42.143  14.978
51909W        W17136  19.061  36.074   4.127
51910W        W17137  40.252  15.732   0.945
51911W        W17138  41.077  37.792   1.857
51912W        W17139  27.977  38.068   4.568
51913W        W17140  36.362  17.424   3.137
51914W        W17141  29.599  38.366   3.080
51915W        W17142  24.053  28.678  10.742
51916W        W17143  22.159  36.858   4.135
51917W        W17144  19.079  19.779   2.999
51918W        W17145  22.280  30.910  11.970
51919W        W17146  14.297  22.897  11.063
51920W        W17147  12.931  18.638  13.008
51921W        W17148   3.142  39.988  12.433
51922W        W17149  12.895   5.177   3.865
51923W        W17150  17.973  11.865  13.235
51924W        W17151  42.038  29.398   0.557
51925W        W17152  23.456   7.789  13.240
51926W        W17153   6.913  32.831   0.888
51927W        W17154  31.175   5.508  11.541
51928W        W17155  34.514  33.940  13.404
51929W        W17156  21.660  11.666   3.494
51930W        W17157  28.139  36.818   1.732
51931W        W17158  20.209  40.459   4.512
51932W        W17159  27.870  33.569  11.698
51933W        W17160  35.273  20.906  11.572
51934W        W17161  15.413  30.003  12.581
51935W        W17162  31.120  33.731  10.905
51936W        W17163  23.964   2.938   3.696
51937W        W17164  17.854  42.497  13.298
51938W        W17165  11.176  22.817   3.505
51939W        W17166   0.701  24.191   1.770
51940W        W17167   1.216  38.911  11.193
51941W        W17168   6.260  11.301   1.357
51942W        W17169  28.499   8.626   4.892
51943W        W17170   9.831   7.287  14.820
51944W        W17171  10.770  18.944   2.729
51945W        W17172  33.529   4.306   3.238
51946W        W17173  29.552  20.494   4.578
51947W        W17174  32.510  22.770  13.119
51948W        W17175  30.052  10.404  13.362
51949W        W17176  36.875  25.122  13.431
51950W        W17177  20.679  33.774   3.965
51951W        W17178  35.018   4.881  11.624
51952W        W17179  42.563  15.722  13.453
51953W        W17180  38.382  26.189   1.343
51954W        W17181  36.392  21.121   0.833
51955W        W17182   4.249   3.229  13.540
51956W        W17183  35.965  29.096   0.259
51957W        W17184  40.555  16.310   0.428
51958W        W17185  23.665  22.230  10.890
51959W        W17186   6.371  34.066   4.316
51960W        W17187  24.211   7.865  11.171
51961W        W17188  18.857  18.669  14.390
51962W        W17189  28.176   0.657   2.885
51963W        W17190  18.711  38.679  13.128
51964W        W17191   4.686  27.251   4.526
51965W        W17192   0.703   6.677  13.614
51966W        W17193  23.566   7.538   1.875
51967W        W17194  15.716  18.577   2.206
51968W        W17195  39.929  16.222   0.787
51969W        W17196  44.924  14.465   2.848
51970W        W17197   4.991   6.682   1.768
51971W        W17198   4.318   3.400  12.606
51972W        W17199  41.551  23.222  14.851
51973W        W17200   1.311   7.393   4.187
51974W        W17201  11.311   2.805  12.936
51975W        W17202  13.132  24.136  14.497
51976W        W17203   8.311  12.172  12.575
51977W        W17204   5.956  30.083   2.300
51978W        W17205  24.113  29.679   1.453
51979W        W17206  31.747  27.152  12.517
51980W        W17207  23.007  38.686   4.021
51981W        W17208  28.811  27.781  13.936
51982W        W17209  33.922  42.236  13.393
51983W        W17210  22.240   5.232   1.308
51984W        W17211  36.120   9.756   1.421
51985W        W17212   4.690   3.453  11.597
51986W        W17213   8.377  25.138  13.306
51987W        W17214  31.101  31.398  11.468
51988W        W17215  39.637  15.172  12.063
51989W        W17216  10.709  21.525  14.099
51990W        W17217   4.555  33.491  13.741
51991W        W17218  24.679   5.427   3.629
51992W        W17219  35.895  19.524  14.276
51993W        W17220  35.750   7.303   4.004
51994W        W17221  22.530  23.372  11.665
51995W        W17222   6.572  13.567   3.313
51996W        W17223  30.352  23.737  14.403
51997W        W17224   2.873   0.384   4.910
51998W        W17225  34.580  14.877   4.912
51999W        W17226   8.175   4.024  12.282
52000W        W17227  21.940  13.137   3.291
52001W        W17228   7.776  24.792  11.210
52002W        W17229  39.417  28.580   4.561
52003W        W17230  28.215   4.939   2.796
52004W        W17231  34.861  26.126  11.258
52005W        W17232  23.805  16.270  13.345
52006W        W17233   2.911  14.532  14.381
52007W        W17234  15.755  40.422   1.726
52008W        W17235   4.873   7.655  10.505
52009W        W17236  31.671  16.168   4.993
52010W        W17237  36.803  13.078   1.985
52011W        W17238  14.536  23.665  13.620
52012W        W17239  23.923  31.033   2.454
52013W        W17240  43.478  10.466   4.029
52014W        W17241  24.522  16.996   3.841
52015W        W17242  13.345  12.339  11.329
52016W        W17243  36.705  37.889   1.321
52017W        W17244  14.356   2.626   4.513
52018W        W17245   6.023  12.913   5.084
52019W        W17246   8.903  30.403   0.336
52020W        W17247   1.042  15.092  11.189
52021W        W17248  10.506  13.694   4.509
52022W        W17249  13.986  27.452  12.705
52023W        W17250  30.995  42.423  11.904
52024W        W17251  18.053  40.930   3.642
52025W        W17252   9.281  26.209  12.553
52026W        W17253  31.147  42.976   2.061
52027W        W17254  10.200  32.548   0.182
52028W        W17255  40.994  29.191  10.755
52029W        W17256  37.965  42.497   4.115
52030W        W17257  34.726  21.816  11.094
52031W        W17258  20.820  23.417  11.644
52032W        W17259  12.151   0.887   0.045
52033W        W17260   2.998  12.751   4.956
52034W        W17261   4.046  32.248   3.730
52035W        W17262  44.101  14.828   1.228
52036W        W17263  19.021   8.146   0.892
52037W        W17264  41.848  21.544  11.137
52038W        W17265  35.690  17.725  11.601
52039W        W17266  35.369   8.732  14.947
52040W        W17267   6.182   5.631  13.072
52041W        W17268  30.511  43.757   1.323
52042W        W17269   9.853  43.183  11.920
52043W        W17270  40.462  11.287   1.766
52044W        W17271  14.033  42.505  11.031
52045W        W17272   8.860  29.522  11.676
52046W        W17273   1.289  16.329   0.562
52047W        W17274  11.064   6.379  12.852
52048W        W17275  41.939  36.999   2.180
52049W        W17276  23.639  34.808  11.155
52050W        W17277  23.154  19.795   2.155
52051W        W17278  30.508  12.811  14.308
52052W        W17279  39.565  44.634  12.134
52053W        W17280   5.094   6.928  14.608
52054W        W17281   1.335  21.084   1.314
52055W        W17282  37.997  20.469  14.745
52056W        W17283  35.405  22.162  14.452
52057W        W17284  40.108  28.811   3.931
52058W        W17285   6.635  41.358  12.137
52059W        W17286  22.951  11.246  11.826
52060W        W17287   8.673  29.002  12.356
52061W        W17288   0.595  16.271   3.281
52062W        W17289   2.650   1.708  11.933
52063W        W17290  44.394  41.753  12.913
52064W        W17291  23.704   5.304   0.148
52065W        W17292  36.565  11.412   2.410
52066W        W17293  22.653  43.237  13.410
52067W        W17294  28.394  10.183   3.102
52068W        W17295   2.219  14.609  10.803
52069W        W17296  44.757   0.227  14.932
52070W        W17297  12.518   6.586   0.305
52071W        W17298  14.205  41.369  11.469
52072W        W17299  37.792  14.581  14.426
52073W        W17300  32.871   7.787  13.598
52074W        W17301  12.249  38.305  11.560
52075W        W17302   1.602  30.058  14.765
52076W        W17303   8.030   3.109  13.424
52077W        W17304   0.397  18.026  13.815
52078W        W17305  36.669  31.641   0.291
52079W        W17306   9.441  41.330  13.039
52080W        W17307  30.623  42.863   3.928
52081W        W17308  31.373  39.318  12.615
52082W        W17309  20.542  36.563   4.431
52083W        W17310  17.156  28.605  14.029
52084W        W17311  34.658  18.305   0.796
52085W        W17312  28.109   4.316  12.697
52086W        W17313  28.571   1.014  10.966
52087W        W17314  29.779  34.099   4.111
52088W        W17315  16.690  22.709   0.220
52089W        W17316  21.999   9.279  12.027
52090W        W17317   0.197  23.432  13.494
52091W        W17318  42.295  36.032   2.910
52092W        W17319   9.096  24.158  12.666
52093W        W17320  38.401   8.333  13.505
52094W        W17321  42.532  21.555  11.665
52095W        W17322  39.511  15.219   2.226
52096W        W17323  41.853   4.012  14.424
52097W        W17324  37.135  27.036   3.406
52098W        W17325  20.899   8.257  14.813
52099W        W17326  44.647   6.374  10.672
52100W        W17327  17.403  36.876   2.227
52101W        W17328   1.498  37.404   2.989
52102W        W17329  40.845   6.714  10.267
52103W        W17330  15.134  30.389  14.373
52104W        W17331  11.673   7.135  13.475
52105W        W17332  38.377  34.391  11.076
52106W        W17333  34.666  25.676   4.811
52107W        W17334  27.939  11.792   0.902
52108W        W17335   6.604   6.898  14.511
52109W        W17336   2.436  26.092  13.114
52110W        W17337  17.691  14.855  14.062
52111W        W17338  10.293  43.889   4.744
52112W        W17339   6.360  40.532   1.181
52113W        W17340  40.168  35.018   1.986
52114W        W17341  38.851  12.339  11.209
52115W        W17342  36.963  29.317   0.423
52116W        W17343  27.984  22.488   3.111
52117W        W17344  15.813  37.334  12.964
52118W        W17345   4.755  22.010  13.981
52119W        W17346  25.805  24.045  11.235
52120W        W17347  37.928   3.214   4.546
52121W        W17348  10.358  42.134  14.821
52122W        W17349  28.923  36.610   0.033
52123W        W17350  23.993  24.405   0.177
52124W        W17351  16.261  18.001  13.322
52125W        W17352  20.313   8.631  14.327
52126W        W17353  24.188   0.219   4.409
52127W        W17354   1.493  40.933   3.649
52128W        W17355   7.602   8.416  12.417
52129W        W17356  24.265  43.591  13.737
52130W        W17357  42.044  26.664  12.558
52131W        W17358   0.784  39.269  12.401
52132W        W17359  35.074  40.948   0.902
52133W        W17360   1.204  37.397  12.266
52134W        W17361  23.288   6.431  14.466
52135W        W17362   1.804  30.215  10.095
52136W        W17363  17.928  38.053  10.775
52137W        W17364  40.885  34.154   0.542
52138W        W17365  22.044   5.926   4.225
52139W        W17366  15.106  40.415  12.626
52140W        W17367   8.099  24.315  12.905
52141W        W17368  20.011  24.574   3.887
52142W        W17369  24.610  36.145   1.749
52143W        W17370  42.403  19.795   3.061
52144W        W17371   1.019  21.162  10.603
52145W        W17372  11.076   7.865  14.408
52146W        W17373  42.771   4.453   2.210
52147W        W17374  35.255  32.862   3.464
52148W        W17375  11.190   5.233   4.145
52149W        W17376   5.363  43.966   0.824
52150W        W17377  17.571  15.595   4.607
52151W        W17378  36.512  19.742  10.199
52152W        W17379  20.616  21.000   0.251
52153W        W17380   8.964  15.687  10.260
52154W        W17381  38.106  35.841  11.837
52155W        W17382  13.519  33.514   0.967
52156W        W17383  41.355   0.475   2.201
52157W        W17384  36.748   5.269   4.146
52158W        W17385  10.725  19.718  10.634
52159W        W17386   1.522  15.919  14.285
52160W        W17387  18.088  40.393  10.776
52161W        W17388  23.773  41.799  13.000
52162W        W17389  15.363  44.068   9.918
52163W        W17390   8.505  30.574  13.977
52164W        W17391  24.519  38.853  14.820
52165W        W17392  36.832  32.115   3.535
52166W        W17393   1.909   4.002   0.928
52167W        W17394  26.362  20.877   2.748
52168W        W17395   6.193  41.654  13.877
52169W        W17396  41.543   4.346  14.728
52170W        W17397  14.355  30.184  11.154
52171W        W17398  38.066   9.276   0.383
52172W        W17399  13.546   0.464   3.729
52173W        W17400  33.507  14.363  13.704
52174W        W17401   6.549   5.221   4.364
52175W        W17402  36.449   7.195  13.395
52176W        W17403  40.124  28.709  11.492
52177W        W17404   3.472  37.360   4.621
52178W        W17405  18.036  35.897  12.102
52179W        W17406   5.722  17.130  12.094
52180W        W17407   2.364  23.026   4.847
52181W        W17408   0.314  22.203   5.444
52182W        W17409   5.651  37.018  14.966
52183W        W17410  43.038  11.451  10.826
52184W        W17411  35.761  13.747   2.197
52185W        W17412  26.727  41.977   3.295
52186W        W17413  30.865   7.494  10.545
52187W        W17414  22.267   9.795   2.611
52188W        W17415  12.805  15.856   2.295
52189W        W17416  13.041  39.576   3.145
52190W        W17417  10.505   9.289  11.828
52191W        W17418  33.094  31.600  12.448
52192W        W17419  33.301  17.396  10.068
52193W        W17420  20.232  36.251  12.994
52194W        W17421   6.431  18.165  12.526
52195W        W17422  28.083  32.122  14.388
52196W        W17423   9.875  31.127   2.742
52197W        W17424   6.510  37.815  12.570
52198W        W17425  21.552   4.669  10.742
52199W        W17426  15.733  10.759   3.806
52200W        W17427  18.532   8.724  12.938
52201W        W17428  39.284  24.008   1.889
52202W        W17429  23.399  35.558  13.574
52203W        W17430  42.610  17.282   0.367
52204W        W17431  14.086  32.420  12.137
52205W        W17432   1.319   7.275  13.253
52206W        W17433   5.179   8.211   1.874
52207W        W17434  35.769  40.073   2.669
52208W        W17435  36.323  24.909   3.745
52209W        W17436  16.163  26.342   3.767
52210W        W17437  43.944  17.886  11.714
52211W        W17438  33.113  33.464  10.699
52212W        W17439   7.881   1.221   2.916
52213W        W17440  40.503   1.478   4.295
52214W        W17441   5.171  35.957  14.500
52215W        W17442  24.389  35.327  11.590
52216W        W17443   1.699  38.014   0.800
52217W        W17444  35.493  35.217  11.999
52218W        W17445  44.797  18.535  13.890
52219W        W17446  24.010  31.099   3.720
52220W        W17447  22.839  18.224  10.981
52221W        W17448  19.103  44.306  14.170
52222W        W17449  25.261  29.469   3.785
52223W        W17450  32.305   6.886   3.762
52224W        W17451  16.584   4.774   2.049
52225W        W17452  30.900  40.209  13.480
52226W        W17453  28.176  32.272  10.693
52227W        W17454   6.629  34.388  14.279
52228W        W17455  17.175  26.248   1.567
52229W        W17456  14.243   8.228  13.395
52230W        W17457  34.841  25.453   2.794
52231W        W17458  10.863   3.724  13.848
52232W        W17459   2.776  20.993   1.749
52233W        W17460  10.538  36.422  12.388
52234W        W17461  26.237  29.516   0.925
52235W        W17462  30.508  10.617  10.477
52236W        W17463  42.797   7.861  10.590
52237W        W17464  16.960  25.313  13.273
52238W        W17465  10.191  34.987   4.131
52239W        W17466  18.946  34.898  12.481
52240W        W17467  18.608  25.685  12.614
52241W        W17468  35.066   8.657  13.058
52242W        W17469   1.315  25.031  10.576
52243W        W17470  37.220  33.499  14.214
52244W        W17471  43.347   0.805   2.863
52245W        W17472   9.200  31.661   4.542
52246W        W17473  37.990  30.089   3.704
52247W        W17474  39.256  37.390   4.121
52248W        W17475   5.959   1.813   9.907
52249W        W17476  21.308  23.168  12.939
52250W        W17477  40.914  14.238   0.763
52251W        W17478  44.772  43.598   3.641
52252W        W17479  11.899   0.428  11.380
52253W        W17480   7.130  19.668  14.991
52254W        W17481  28.418   2.585  14.286
52255W        W17482   9.322   9.519   1.221
52256W        W17483  28.111  16.045  13.455
52257W        W17484  16.779  43.509   3.175
52258W        W17485  40.444  39.522  11.111
52259W        W17486  15.131  16.914   3.670
52260W        W17487  34.644  20.564  14.212
52261W        W17488  44.018  20.503  13.920
52262W        W17489   9.468  24.397   2.871
52263W        W17490   4.158  16.220   1.313
52264W        W17491   1.782   6.211   2.344
52265W        W17492   9.528  33.431   5.122
52266W        W17493  44.225   7.117   5.151
52267W        W17494   8.296  27.170  12.144
52268W        W17495  24.038   7.882   1.120
52269W        W17496  25.645  13.732  10.737
52270W        W17497   0.024   9.317  10.755
52271W        W17498  15.103  29.047   3.907
52272W        W17499  44.041  30.619   3.586
52273W        W17500  34.530  29.126   4.519
52274W        W17501  40.236   2.495  11.549
52275W        W17502  42.662  33.649   3.320
52276W        W17503   5.166  43.020  10.385
52277W        W17504  12.739  44.016   2.264
52278W        W17505  18.788  24.121  14.850
52279W        W17506  19.324   8.305   3.427
52280W        W17507  40.906  12.000   2.360
52281W        W17508  10.494  31.249   1.642
52282W        W17509  37.529  27.143   3.106
52283W        W17510   6.910  39.831   1.441
52284W        W17511  10.862   0.251   3.346
52285W        W17512  10.791  41.343  14.895
52286W        W17513  13.917  43.987   0.686
52287W        W17514   3.313  22.827  14.306
52288W        W17515  21.770   4.343   0.077
52289W        W17516  17.120  33.566  10.078
52290W        W17517  42.035   0.020   2.860
52291W        W17518  14.034  30.154   0.521
52292W        W17519   0.919   5.232   1.941
52293W        W17520  12.282  44.658  12.703
52294W        W17521  37.483  42.725  14.412
52295W        W17522  38.846  35.457  12.600
52296W        W17523  30.785  31.875  10.236
52297W        W17524  28.572  20.173   3.285
52298W        W17525   5.707   2.124  12.169
52299W        W17526  30.187  38.302   0.322
52300W        W17527  39.287  24.632  12.494
52301W        W17528  13.626   8.306   1.422
52302W        W17529  16.825  10.172   0.360
52303W        W17530  25.587   1.218  13.483
52304W        W17531  38.304  30.518   2.423
52305W        W17532  37.616   8.319  11.336
52306W        W17533   9.346  19.575  11.548
52307W        W17534  30.528   0.031  13.381
52308W        W17535  31.683  42.972   0.243
52309W        W17536  34.055  25.908  12.033
52310W        W17537   4.087  44.247  11.313
52311W        W17538  14.614  43.687  10.268
52312W        W17539  13.580  34.028   0.955
52313W        W17540   6.442  27.564  13.831
52314W        W17541  20.328  24.863   3.554
52315W        W17542  17.536  15.138  14.458
52316W        W17543  42.393  15.861  11.255
52317W        W17544  10.368  27.478  14.483
52318W        W17545  28.934  21.022   0.157
52319W        W17546   5.157  11.304   1.299
52320W        W17547  34.329   9.386   0.213
52321W        W17548  44.953  38.523   3.212
52322W        W17549  42.909   1.359  11.113
52323W        W17550   6.730  23.971  11.019
52324W        W17551  26.439  41.528  12.439
52325W        W17552  17.802  24.537  13.847
52326W        W17553  17.099  36.919  10.719
52327W        W17554  16.215  44.003   2.652
52328W        W17555  30.651  21.155   4.238
52329W        W17556   1.975  36.981   4.188
52330W        W17557  12.429  42.838  14.795
52331W        W17558  26.018   9.592   3.072
52332W        W17559  34.940  27.096   2.648
52333W        W17560  24.449  32.360   3.857
52334W        W17561  22.554   2.355   4.531
52335W        W17562  21.281  41.218  13.396
52336W        W17563  44.338  37.103  14.925
52337W        W17564  41.831  24.330  13.797
52338W        W17565  18.533  11.796  13.996
52339W        W17566  41.764   2.685   3.773
52340W        W17567  39.388  26.544  13.070
52341W        W17568   9.968  21.198   3.790
52342W        W17569  19.533   3.993  11.160
52343W        W17570  23.563  39.041  12.319
52344W        W17571  17.686  14.131   1.733
52345W        W17572  11.860  33.438   3.210
52346W        W17573  42.619  34.914   4.943
52347W        W17574  36.929   0.226  13.471
52348W        W17575  26.315   0.903   0.041
52349W        W17576  33.138   4.477  14.436
52350W        W17577  16.207  14.607   4.492
52351W        W17578  17.166   4.895  14.804
52352W        W17579  17.185  37.407  11.619
52353W        W17580  30.053  15.250   3.681
52354W        W17581  33.529  33.146   3.312
52355W        W17582  40.602  42.554  13.915
52356W        W17583  12.137  24.632  13.740
52357W        W17584  22.638  11.947   0.196
52358W        W17585  19.128   8.087   2.917
52359W        W17586   5.151  15.394   1.710
52360W        W17587  26.434  35.523   3.697
52361W        W17588  20.802   2.883   2.222
52362W        W17589  41.701  15.542   0.506
52363W        W17590  25.287  36.135  14.068
52364W        W17591   6.345  20.138   4.696
52365W        W17592  21.076   8.931   4.524
52366W        W17593   7.376   4.292   2.237
52367W        W17594  19.174   6.306   4.685
52368W        W17595  28.378  13.264   1.858
52369W        W17596  42.315  14.113   2.269
52370W        W17597  15.085  26.239  13.932
52371W        W17598  43.459  10.825  11.482
52372W        W17599  16.528  20.013  13.514
52373W        W17600  12.017  38.933  13.051
52374W        W17601  40.485  13.966   0.539
52375W        W17602  13.760  37.929  12.331
52376W        W17603   7.637  21.999   4.443
52377W        W17604   5.478  20.413  14.586
52378W        W17605  24.258  16.251   2.803
52379W        W17606  39.359  36.102  13.972
52380W        W17607  28.920  32.318  12.632
52381W        W17608  20.128   6.198   0.697
52382W        W17609  18.274  10.795   1.440
52383W        W17610   4.313   2.539   4.823
52384W        W17611  13.130  16.510  12.533
52385W        W17612   8.944  20.777  12.522
52386W        W17613   0.645  18.467   1.571
52387W        W17614  24.803  22.281   4.179
52388W        W17615  40.536  13.294  12.666
52389W        W17616  10.398  10.431  12.042
52390W        W17617  40.336   8.984   3.695
52391W        W17618   1.844   9.812  13.968
52392W        W17619  16.652   4.529   3.024
52393W        W17620  32.633  16.590  12.856
52394W        W17621  17.717  15.413   3.344
52395W        W17622  22.527  31.757  13.816
52396W        W17623  33.610  38.984   2.822
52397W        W17624  33.954  19.666   1.963
52398W        W17625   8.805  12.231   4.600
52399W        W17626  38.423   9.483   0.759
52400W        W17627   0.850   9.836   1.490
52401W        W17628  40.885  12.069  12.589
52402W        W17629  17.731  14.681   1.004
52403W        W17630  42.756  17.630   3.186
52404W        W17631  26.652  27.935   1.769
52405W        W17632   6.776  33.377  14.603
52406W        W17633  15.716  19.154  11.053
52407W        W17634  16.175  41.249  13.115
52408W        W17635   4.374  15.834   2.830
52409W        W17636  25.628  15.275   1.756
52410W        W17637  34.506  33.239  13.865
52411W        W17638   2.170   9.299  14.426
52412W        W17639  14.187  18.458   2.429
52413W        W17640  38.446   9.449  13.370
52414W        W17641  32.478  19.499  13.886
52415W        W17642  11.813  36.029   2.569
52416W        W17643   0.858   6.620   4.843
52417W        W17644  44.742  43.882   4.496
52418W        W17645  12.428   4.178  13.180
52419W        W17646  43.529   9.707   0.468
52420W        W17647  37.870  32.788   4.835
52421W        W17648  20.595   9.903  12.089
52422W        W17649  25.664   4.390  11.138
52423W        W17650  31.867   2.193   2.255
52424W        W17651  10.415  14.849  11.602
52425W        W17652  14.046  16.058   1.070
52426W        W17653  18.493   5.417   1.637
52427W        W17654   1.931   1.930  14.337
52428W        W17655  31.960   6.777  14.796
52429W        W17656   0.360  27.101   2.663
52430W        W17657  29.861  10.844  13.091
52431W        W17658  14.651  34.037   2.372
52432W        W17659  33.861  42.397   2.351
52433W        W17660  11.177   3.830  12.070
52434W        W17661  10.239  21.374   1.348
52435W        W17662  43.637  13.309   4.559
52436W        W17663  35.564  38.107   0.343
52437W        W17664  38.966  36.187  10.932
52438W        W17665  19.237   4.229   0.861
52439W        W17666   6.343  32.320  10.653
52440W        W17667  26.920  15.320  14.010
52441W        W17668  39.322  16.853  14.772
52442W        W17669  37.120  12.334  11.619
52443W        W17670  11.204   8.121   1.901
52444W        W17671   9.106  36.692  12.002
52445W        W17672  35.355  13.121   1.642
52446W        W17673  31.633  17.150  11.493
52447W        W17674  28.414  12.771  10.704
52448W        W17675  39.387  23.132   3.211
52449W        W17676  40.755  39.933  12.484
52450W        W17677  26.555   0.977  14.268
52451W        W17678  27.571  27.519  14.079
52452W        W17679   1.352  20.548   1.808
52453W        W17680   3.392  28.758  12.864
52454W        W17681  31.413   8.128   3.186
52455W        W17682  28.153  31.213  10.170
52456W        W17683  18.735  12.678   1.379
52457W        W17684  41.515  40.083  13.018
52458W        W17685  10.797  38.588  11.197
52459W        W17686   9.354  15.718  13.510
52460W        W17687  42.234   0.387  14.940
52461W        W17688  14.383  42.992  14.998
52462W        W17689  15.790  18.358   1.702
52463W        W17690  13.812  23.197   2.264
52464W        W17691  11.063  29.107   3.781
52465W        W17692  37.823  12.186  12.998
52466W        W17693  37.050  29.881  14.284
52467W        W17694  42.088  37.415   3.660
52468W        W17695  26.953  42.418   3.475
52469W        W17696  42.670  42.035  10.681
52470W        W17697  30.470   7.115   3.370
52471W        W17698   9.231  40.725   4.832
52472W        W17699  41.034  28.350  12.565
52473W        W17700  35.866  42.075  12.507
52474W        W17701  43.903  19.727  13.484
52475W        W17702  26.115  42.367   2.722
52476W        W17703  32.030  28.607   3.614
52477W        W17704  27.410  25.746   3.729
52478W        W17705  30.005  20.727  10.703
52479W        W17706  41.057  43.823   0.902
52480W        W17707   5.233  19.533  12.863
52481W        W17708  36.734   7.549   4.052
52482W        W17709   8.432  12.122   3.072
52483W        W17710  11.893  22.332   0.816
52484W        W17711  13.688  43.532  11.488
52485W        W17712   2.894   4.953   2.141
52486W        W17713   7.175  13.541  13.868
52487W        W17714  25.004  30.955   1.245
52488W        W17715  23.660  23.081   0.568
52489W        W17716  41.273  43.186  14.451
52490W        W17717  43.986  13.078  14.472
52491W        W17718  11.854  28.820   0.714
52492W        W17719  17.910   0.848  12.477
52493W        W17720   8.289   9.692   2.841
52494W        W17721  30.005  12.968   0.228
52495W        W17722  27.391  13.175  13.386
52496W        W17723  22.468   2.169  11.498
52497W        W17724  42.843  33.204  14.791
52498W        W17725  22.692  37.420   2.374
52499W        W17726  15.591  19.687   2.952
52500W        W17727  12.900  28.776  10.565
52501W        W17728  11.901  35.090   1.219
52502W        W17729  42.254  22.549  14.424
52503W        W17730  38.887   5.227   1.792
52504W        W17731  11.813   5.906   3.642
52505W        W17732  25.599  12.428   1.330
52506W        W17733  17.205  12.169  11.944
52507W        W17734  32.663  29.156  11.167
52508W        W17735  34.040  36.064  10.730
52509W        W17736  31.916  17.255   3.710
52510W        W17737  33.119  36.649   1.197
52511W        W17738  33.390   3.940   1.679
52512W        W17739  32.691  12.556   9.932
52513W        W17740   4.141   3.921   2.914
52514W        W17741  13.787  17.695  14.235
52515W        W17742   1.524  33.454  14.589
52516W        W17743  11.291  12.734   0.403
52517W        W17744  28.976  44.223   2.402
52518W        W17745  34.351  34.072   3.956
52519W        W17746  37.936  26.469  14.771
52520W        W17747   1.531  18.491  14.396
52521W        W17748  42.392  41.948   3.631
52522W        W17749   2.581   1.746   0.415
52523W        W17750   1.665  30.888  12.210
52524W        W17751  11.152  30.017   2.360
52525W        W17752  37.660  35.154   1.905
52526W        W17753  12.324  17.831  11.225
52527W        W17754  23.166  31.495   4.659
52528W        W17755  15.157   5.765   2.613
52529W        W17756   0.754  15.404   1.760
52530W        W17757  10.235   5.443  11.670
52531W        W17758  40.738  26.671  14.517
52532W        W17759  12.427  26.043   0.727
52533W        W17760  44.962  33.908  13.805
52534W        W17761  26.915   9.157  14.923
52535W        W17762  25.645   8.387  11.525
52536W        W17763   8.249  33.416  12.560
52537W        W17764  38.443  15.846  11.357
52538W        W17765  30.753  42.110  11.564
52539W        W17766  13.084   7.684  14.407
52540W        W17767  33.410   8.724  14.593
52541W        W17768  27.590  19.610  14.271
52542W        W17769   7.170  39.568   0.725
52543W        W17770  39.696   5.172   4.005
52544W        W17771  17.731  14.584  13.629
52545W        W17772  44.001  35.934  13.942
52546W        W17773  39.338  36.364  13.076
52547W        W17774  25.171   9.641  11.437
52548W        W17775  10.710   9.697  12.952
52549W        W17776  21.908  37.875  11.680
52550W        W17777  37.820  21.569  12.448
52551W        W17778  31.174  23.195   3.814
52552W        W17779  29.075  33.367   4.280
52553W        W17780  37.830  23.070  11.552
52554W        W17781  19.113  16.098  14.016
52555W        W17782   9.661  25.650  12.936
52556W        W17783  12.303  43.847   3.466
52557W        W17784  28.992   0.880  13.921
52558W        W17785  20.712  27.778   2.955
52559W        W17786  23.005  38.380   4.435
52560W        W17787   2.684  25.520  12.226
52561W        W17788   0.963  36.571  10.768
52562W        W17789  31.517  35.868  10.376
52563W        W17790   8.751  21.102  13.807
52564W        W17791  18.030  43.136  12.846
52565W        W17792  28.992  36.441   1.891
52566W        W17793  27.667  10.175  14.325
52567W        W17794  36.879  21.856  14.368
52568W        W17795   2.039  17.313  10.728
52569W        W17796  26.055  25.063   4.129
52570W        W17797  30.842  42.896  11.179
52571W        W17798  38.877  27.081  11.999
52572W        W17799  10.105  37.012  10.418
52573W        W17800   8.536  34.012   1.804
52574W        W17801  15.511   5.382  11.056
52575W        W17802  44.565  11.695   4.202
52576W        W17803  31.443  33.821  13.576
52577W        W17804   3.430  31.583  12.042
52578W        W17805  29.585   1.470  12.836
52579W        W17806  25.649  39.086  11.031
52580W        W17807  10.246  33.321   1.779
52581W        W17808  28.611   2.915  13.523
52582W        W17809   8.918  38.436   4.436
52583W        W17810  11.615  29.066  14.274
52584W        W17811  44.735  35.860   2.956
52585W        W17812   9.881  22.676  12.436
52586W        W17813  44.969  33.156  11.163
52587W        W17814  27.706  19.530  13.457
52588W        W17815   6.328  33.182  11.482
52589W        W17816  43.482  13.880   1.382
52590W        W17817  43.532   8.246  13.325
52591W        W17818  11.614  44.503  12.918
52592W        W17819   3.388  36.359   4.985
52593W        W17820  31.829  31.274  11.134
52594W        W17821  39.024   2.950   2.218
52595W        W17822   2.155  28.669   1.355
52596W        W17823  42.985   7.724   0.228
52597W        W17824   2.166  24.067  14.812
52598W        W17825  33.562  42.998   1.214
52599W        W17826  16.179  12.013   0.813
52600W        W17827  10.109  24.386   4.115
52601W        W17828  33.137  41.706  10.733
52602W        W17829  26.481  23.517  14.336
52603W        W17830  11.375   7.350  14.843
52604W        W17831   3.856   2.501   4.578
52605W        W17832  22.617   0.371   1.931
52606W        W17833   5.235  42.480   0.795
52607W        W17834   4.701  19.692  13.867
52608W        W17835  39.761  21.781  13.391
52609W        W17836  23.148   8.082  12.455
52610W        W17837  40.970  26.430   4.621
52611W        W17838  26.613  31.257   0.900
52612W        W17839  14.124  20.640  10.652
52613W        W17840  34.806   2.819   2.434
52614W        W17841  38.646   2.785  12.491
52615W        W17842   5.389  26.502  11.955
52616W        W17843   0.498   7.848  11.972
52617W        W17844  20.139   0.614  12.801
52618W        W17845  19.359  32.997  12.501
52619W        W17846  23.985   8.005   2.216
52620W        W17847  13.582  10.424  11.539
52621W        W17848  21.350  27.880  12.122
52622W        W17849  37.576  16.112   2.724
52623W        W17850   0.596  29.151   0.212
52624W        W17851  18.217  42.653  12.930
52625W        W17852   9.867  24.704   4.965
52626W        W17853  33.632   3.914   2.145
52627W        W17854  15.205  24.518   0.321
52628W        W17855  32.315   5.921   4.592
52629W        W17856  35.372   1.486   4.620
52630W        W17857   9.447  37.359  11.112
52631W        W17858  25.357  23.781  11.234
52632W        W17859  33.602  14.272   3.713
52633W        W17860  43.533  18.230   2.779
52634W        W17861   2.974  35.988   1.579
52635W        W17862  28.121  40.466  12.917
52636W        W17863   3.678  32.557  11.841
52637W        W17864  14.857  13.675   0.917
52638W        W17865  10.704  21.045   5.072
52639W        W17866  41.052   9.282   1.996
52640W        W17867  35.438  18.441  13.280
52641W        W17868   1.788  12.123  14.472
52642W        W17869  19.237  15.376   4.390
52643W        W17870   6.165  37.833   1.304
52644W        W17871  17.176  40.832  14.884
52645W        W17872   3.732   2.015   4.772
52646W        W17873  41.853  43.372   0.901
52647W        W17874   6.159  14.813  12.190
52648W        W17875  38.881  42.842  14.367
52649W        W17876  34.004  33.157  11.474
52650W        W17877  21.250   7.079   1.367
52651W        W17878  34.305  28.849   2.691
52652W        W17879  31.517  36.786  12.164
52653W        W17880  26.140  38.784  12.291
52654W        W17881  24.663  37.784   2.578
52655W        W17882  23.626  21.631   4.090
52656W        W17883  32.450   7.391   3.153
52657W        W17884  18.610  20.518   0.429
52658W        W17885  28.098   1.267   4.625
52659W        W17886   2.373  29.820   4.066
52660W        W17887  37.572  16.057   0.864
52661W        W17888   5.680   2.979   0.373
52662W        W17889   2.397  31.199   2.702
52663W        W17890  42.403   1.442   0.737
52664W        W17891  19.944  35.422   1.789
52665W        W17892   2.382  39.514   1.438
52666W        W17893  14.845   7.986  14.982
52667W        W17894  19.767  16.840  10.712
52668W        W17895   7.408   2.464  13.885
52669W        W17896  20.666  33.641   1.885
52670W        W17897  29.530   1.796   2.241
52671W        W17898  34.356   2.453   3.697
52672W        W17899  36.832  13.607  14.796
52673W        W17900  43.470  39.028  14.424
52674W        W17901  18.792  13.700   2.356
52675W        W17902  31.648  12.193   2.657
52676W        W17903  18.295   7.695   4.179
52677W        W17904  25.085   5.977   0.447
52678W        W17905   6.936   9.198  12.131
52679W        W17906  26.634   4.393   3.710
52680W        W17907  12.737  32.448   2.162
52681W        W17908  19.182   8.392  12.020
52682W        W17909  26.013  28.063  12.023
52683W        W17910  34.673  21.612   4.535
52684W        W17911  19.813  33.254  11.951
52685W        W17912  43.299  36.839   2.845
52686W        W17913  39.094  33.017   1.659
52687W        W17914  26.644  27.216  12.830
52688W        W17915  27.587  11.895   0.218
52689W        W17916  21.630  15.186  11.189
52690W        W17917  17.701  26.022  13.669
52691W        W17918  44.284  20.648  12.445
52692W        W17919  38.459  17.280  14.374
52693W        W17920  15.088  32.999   1.286
52694W        W17921  26.445  33.974   1.892
52695W        W17922  11.960   8.669  14.768
52696W        W17923  11.651   8.655  14.345
52697W        W17924   3.259  14.808  11.952
52698W        W17925  25.223  37.434  13.228
52699W        W17926  43.531   9.281   3.997
52700W        W17927  17.547  17.756  11.123
52701W        W17928  31.630  31.628  10.009
52702W        W17929   0.099  37.775  14.427
52703W        W17930  25.529  26.310   2.647
52704W        W17931   6.351  23.720   4.112
52705W        W17932  39.220  25.813   1.258
52706W        W17933   9.375  43.791   3.100
52707W        W17934  11.410  31.105   2.779
52708W        W17935  36.104  43.370  14.807
52709W        W17936   1.926  16.390   3.157
52710W        W17937  41.437   5.856   2.489
52711W        W17938  26.638  19.719  14.466
52712W        W17939  41.820  25.111  10.725
52713W        W17940  43.202  24.122   0.273
52714W        W17941  21.459   3.068   0.906
52715W        W17942  10.693  39.893  12.885
52716W        W17943  34.527  38.041   1.813
52717W        W17944  12.110  34.822   3.135
52718W        W17945  21.990  25.442  11.209
52719W        W17946  44.488  25.745  13.850
52720W        W17947  17.809  14.347  10.921
52721W        W17948   6.269  23.680  14.669
52722W        W17949  12.894   9.633  14.440
52723W        W17950  21.971  11.950  11.592
52724W        W17951  42.965  40.296  14.063
52725W        W17952  38.634  24.206  11.088
52726W        W17953  34.326  16.900   1.666
52727W        W17954  25.063  21.118  14.047
52728W        W17955   6.959  28.113   0.627
52729W        W17956  36.552  38.356   4.578
52730W        W17957   4.739  30.902   3.352
52731W        W17958  17.812   3.921   1.632
52732W        W17959  39.435  33.051   4.183
52733W        W17960  29.096  34.137   0.908
52734W        W17961  44.023  10.189  14.419
52735W        W17962  29.629  20.287  12.505
52736W        W17963  23.808  18.263   4.060
52737W        W17964  17.865  27.431  13.528
52738W        W17965  27.270  41.610  11.409
52739W        W17966  24.181  17.049  12.891
52740W        W17967  30.152  22.287  10.752
52741W        W17968  44.040  13.318  10.529
52742W        W17969  17.779  26.600   0.804
52743W        W17970  23.039  36.364   4.321
52744W        W17971   4.849  15.098   2.644
52745W        W17972   3.861  14.206  10.845
52746W        W17973  24.916  38.520  14.907
52747W        W17974   4.760  42.721  12.096
52748W        W17975  37.491  39.044  11.168
52749W        W17976  42.055   2.737   1.875
52750W        W17977   5.416  22.341  14.178
52751W        W17978  26.034   5.719   4.601
52752W        W17979  39.329  43.227   4.751
52753W        W17980  27.132  10.692  14.994
52754W        W17981   9.522  27.519   3.234
52755W        W17982  19.557  43.032  12.916
52756W        W17983  22.254   5.831   3.761
52757W        W17984  30.937  24.614  12.120
52758W        W17985   7.776  41.013   1.183
52759W        W17986  27.159  33.003   4.007
52760W        W17987  32.325  22.986   2.299
52761W        W17988  16.017   6.564   1.873
52762W        W17989  44.849  19.539   2.634
52763W        W17990   0.220  29.608   1.287
52764W        W17991  33.850   6.936  13.450
52765W        W17992  30.386  41.850  11.837
52766W        W17993  43.239   2.567   3.286
52767W        W17994  26.254  13.080  12.024
52768W        W17995  43.504  40.598  10.795
52769W        W17996  41.875  30.815  11.751
52770W        W17997  39.319  44.530  10.686
52771W        W17998  21.105  29.998  14.894
52772W        W17999   8.654  33.407  13.647
52773W        W18000  33.241  43.614   1.802
52774W        W18001  18.185  33.470  12.624
52775W        W18002  35.167   1.192  12.059
52776W        W18003  29.606  14.364   3.496
52777W        W18004   3.229  21.033   2.759
52778W        W18005  38.696  29.406   0.294
52779W        W18006   4.312  37.394  10.533
52780W        W18007   9.820  28.992  13.752
52781W        W18008  12.800  16.318   0.698
52782W        W18009  23.612  34.825  13.986
52783W        W18010  29.883  28.450  14.916
52784W        W18011  12.147  26.426  12.610
52785W        W18012  30.580  37.278  13.580
52786W        W18013  18.540  43.447  14.057
52787W        W18014  21.584  26.145  10.413
52788W        W18015   7.360  39.301  14.226
52789W        W18016   5.467  29.986   4.732
52790W        W18017  31.534  36.972   4.004
52791W        W18018  41.618  32.780   1.944
52792W        W18019  20.786  15.659  11.959
52793W        W18020   1.655  43.975  14.364
52794W        W18021  21.702  21.472  12.536
52795W        W18022  37.891  36.986   0.672
52796W        W18023  25.605  21.293  10.414
52797W        W18024  43.357   9.115   3.139
52798W        W18025  25.466  11.768   4.892
52799W        W18026   8.146  43.400   2.734
52800W        W18027   9.455  20.702   1.968
52801W        W18028  28.620  41.752  12.007
52802W        W18029  29.886  26.098   1.052
52803W        W18030  26.981  39.273   4.065
52804W        W18031  19.736  43.785   0.254
52805W        W18032   8.715  30.831  11.961
52806W        W18033  43.426  21.173   4.080
52807W        W18034  19.793   8.815   4.366
52808W        W18035  44.835  38.172  12.932
52809W        W18036  10.224   8.477  12.402
52810W        W18037  19.097  44.976  13.317
52811W        W18038  24.010   0.067  12.030
52812W        W18039  39.177  38.935   4.663
52813W        W18040  22.128  14.039  14.982
52814W        W18041  14.800   3.016   0.830
52815W        W18042  19.712   8.921  13.346
52816W        W18043  21.364  25.665   3.676
52817W        W18044  31.099  25.439   4.405
52818W        W18045  16.841   6.297   0.736
52819W        W18046  15.532  31.843   1.206
52820W        W18047  19.393   4.365  14.475
52821W        W18048  39.922  24.796   0.915
52822W        W18049   2.197  25.058   4.537
52823W        W18050   2.556  12.814   2.897
52824W        W18051  38.685  29.165  14.014
52825W        W18052  30.940  31.545   4.258
52826W        W18053   0.921  44.805  12.270
52827W        W18054  10.588   1.949  11.128
52828W        W18055  27.225   3.979  10.590
52829W        W18056  32.262   4.845  10.626
52830W        W18057  30.778   6.744   2.861
52831W        W18058   4.251  39.429  12.838
52832W        W18059   5.126  38.968  11.882
52833W        W18060  43.487   3.265   4.411
52834W        W18061  18.599   5.832  14.257
52835W        W18062  41.931  41.707  10.345
52836W        W18063  44.736  12.763  13.489
52837W        W18064  44.421  24.736  11.467
52838W        W18065  20.767  22.385   0.834
52839W        W18066   8.052   2.533   1.891
52840W        W18067   2.434  34.053  11.313
52841W        W18068   4.297  33.669  11.156
52842W        W18069  42.918  24.451  14.951
52843W        W18070  22.457  15.243   0.864
52844W        W18071   5.322  41.492  11.688
52845W        W18072   7.658  31.326   0.343
52846W        W18073  23.127  22.213  11.780
52847W        W18074  36.597  16.845   1.459
52848W        W18075   2.394  37.031  11.177
52849W        W18076  21.278  31.877   3.682
52850W        W18077   5.367  13.021   3.442
52851W        W18078  17.291  31.591   3.349
52852W        W18079  43.257  44.439  13.748
52853W        W18080   9.820  39.876  11.231
52854W        W18081  18.141  42.281  14.767
52855W        W18082  33.983  15.349   1.749
52856W        W18083  11.472  37.074  12.242
52857W        W18084   1.709  21.210   2.911
52858W        W18085  32.187  35.041   1.183
52859W        W18086  40.798  39.291   0.334
52860W        W18087  43.035   1.341  10.620
52861W        W18088  16.713   4.784   3.855
52862W        W18089  39.579   0.385   0.841
52863W        W18090  44.889  38.265  14.338
52864W        W18091  38.800  11.588   4.137
52865W        W18092  28.344   6.848   3.695
52866W        W18093  33.147   2.062  13.642
52867W        W18094   4.856  37.156  11.047
52868W        W18095  41.376  24.611   4.059
52869W        W18096  17.229   7.673   4.123
52870W        W18097   0.593  43.382   9.984
52871W        W18098  35.559   8.323   0.873
52872W        W18099   2.313  11.362   2.276
52873W        W18100  15.704  15.753  10.999
52874W        W18101  41.780   4.501   2.127
52875W        W18102  42.089  43.390  12.121
52876W        W18103  12.009   8.249   3.363
52877W        W18104  13.119  15.108   1.620
52878W        W18105  19.656  32.389   2.194
52879W        W18106  39.593  31.134   2.696
52880W        W18107  40.378  19.250   3.296
52881W        W18108   6.275  10.336  11.728
52882W        W18109  44.399  27.645  14.838
52883W        W18110  44.536  22.430   1.884
52884W        W18111  38.565  28.681  12.620
52885W        W18112  40.269  23.310  12.423
52886W        W18113  16.212  18.571   1.337
52887W        W18114  30.755   7.681   2.134
52888W        W18115  27.044  26.747  12.430
52889W        W18116  41.622  20.978  11.959
52890W        W18117  24.480  34.513   4.710
52891W        W18118  42.243  42.285  14.377
52892W        W18119  28.006  18.829   4.113
52893W        W18120  40.836  38.769   1.713
52894W        W18121   1.000  40.831   2.255
52895W        W18122  16.015  11.823  12.032
52896W        W18123  32.522  19.167   1.081
52897W        W18124  26.445  38.552   3.164
52898W        W18125  42.757  23.817   2.596
52899W        W18126  33.866  23.925  13.214
52900W        W18127   8.194  41.166   4.192
52901W        W18128  16.546  44.937   1.817
52902W        W18129  34.551  13.278  14.812
52903W        W18130  37.222  33.969  13.502
52904W        W18131  16.739  29.866   3.484
52905W        W18132  18.188  36.311   3.320
52906W        W18133   0.683  12.341  14.252
52907W        W18134  29.725  18.002  14.355
52908W        W18135  32.354   8.899   5.019
52909W        W18136  19.019  37.361   1.666
52910W        W18137  11.614  22.117   1.212
52911W        W18138  44.734  30.414   3.959
52912W        W18139   7.666   8.630   2.172
52913W        W18140  12.242  16.825  13.737
52914W        W18141  34.686  37.829   4.778
52915W        W18142  39.360   9.909  14.476
52916W        W18143  19.603  21.545   4.499
52917W        W18144  32.956  22.279   3.559
52918W        W18145  19.697  24.720   2.705
52919W        W18146  35.120  21.920   3.157
52920W        W18147  40.486  21.400   3.180
52921W        W18148   8.430  42.785   4.167
52922W        W18149   9.922   8.659  14.983
52923W        W18150  22.468  10.649  10.787
52924W        W18151  31.667  38.882   3.668
52925W        W18152  27.349  34.134  14.541
52926W        W18153  33.327  41.447   4.666
52927W        W18154  16.769   3.157  11.222
52928W        W18155  21.094  25.195  13.749
52929W        W18156  21.068  25.567   2.577
52930W        W18157   1.378   0.709   2.376
52931W        W18158  16.192  16.282  13.971
52932W        W18159  27.839  15.142   2.936
52933W        W18160  19.368  37.781   3.565
52934W        W18161  22.874   0.300  12.089
52935W        W18162  10.198  36.456  12.837
52936W        W18163  16.090   3.988   2.503
52937W        W18164   4.019  27.454   9.691
52938W        W18165  35.016  38.490   1.434
52939W        W18166   9.579  35.533  10.350
52940W        W18167  28.902   8.218   2.344
52941W        W18168  30.216  11.098  14.385
52942W        W18169  23.690  35.992  10.503
52943W        W18170  11.960  36.292   3.588
52944W        W18171  41.764  38.202   0.001
52945W        W18172  37.432  34.302  11.649
52946W        W18173   0.467  12.299   2.737
52947W        W18174  19.214  15.662   2.386
52948W        W18175   5.714  35.702  11.590
52949W        W18176  21.538  30.447  10.935
52950W        W18177  41.019  37.039  13.788
52951W        W18178  11.085  16.458  12.641
52952W        W18179  24.309  24.019   1.320
52953W        W18180   7.987   2.939   0.248
52954W        W18181  28.457   1.411  14.762
52955W        W18182  40.916  18.071   1.575
52956W        W18183   1.273  38.242  14.986
52957W        W18184  10.469  30.210   5.112
52958W        W18185  20.763  28.508  12.051
52959W        W18186   9.751  10.152   1.847
52960W        W18187   8.478  20.641  14.433
52961W        W18188  11.254  25.009  14.738
52962W        W18189   0.709  31.647   0.518
52963W        W18190  27.591  13.824   0.414
52964W        W18191  13.583  14.544   2.836
52965W        W18192  33.103  40.799  14.224
52966W        W18193  33.892  25.124   4.599
52967W        W18194  40.328  33.131   3.882
52968W        W18195  28.334  13.692  11.565
52969W        W18196  33.514  24.762  13.478
52970W        W18197   6.759  24.594   4.970
52971W        W18198   4.173  41.483   1.999
52972W        W18199   7.186   0.195   3.606
52973W        W18200  10.709  38.798  13.950
52974W        W18201  38.581  18.245  10.799
52975W        W18202  35.732   8.847   1.011
52976W        W18203  40.772  26.498   1.734
52977W        W18204  23.644   8.873   5.006
52978W        W18205  40.226  26.470   4.959
52979W        W18206  29.411  39.016  10.581
52980W        W18207  33.955   5.747   0.227
52981W        W18208  27.671  19.182   3.694
52982W        W18209  27.503  37.578   1.439
52983W        W18210  21.753  37.165  11.080
52984W        W18211  36.324   5.904  12.421
52985W        W18212  44.826  22.936   2.711
52986W        W18213   0.918  37.944  13.971
52987W        W18214  28.173  16.182   0.787
52988W        W18215   3.277  44.605   4.892
52989W        W18216  30.379   2.437   0.218
52990W        W18217  21.508  43.366   3.214
52991W        W18218   8.293   5.221   2.341
52992W        W18219   3.026   6.302   0.927
52993W        W18220  22.593  36.011   4.980
52994W        W18221  34.490  23.150  12.980
52995W        W18222   6.298  36.712   4.987
52996W        W18223  30.929  35.927   3.279
52997W        W18224  10.631  11.782   0.285
52998W        W18225  15.257  25.149  10.688
52999W        W18226  34.337  33.975   3.423
53000W        W18227  10.081  43.011   5.085
53001W        W18228  10.330   9.157  10.483
53002W        W18229  38.470  15.046  14.447
53003W        W18230  44.059  37.085   2.276
53004W        W18231  43.950  12.891   0.769
53005W        W18232  23.517  24.169  12.507
53006W        W18233   2.093   0.315   2.823
53007W        W18234   9.368   2.972   0.914
53008W        W18235   8.351  20.361   0.897
53009W        W18236  24.035  31.369   4.154
53010W        W18237  10.776  26.071   4.478
53011W        W18238  11.086   6.860  12.654
53012W        W18239  16.222   9.135   1.709
53013W        W18240  23.040  31.087  11.567
53014W        W18241   1.471  37.945   2.238
53015W        W18242  40.328   7.900   2.950
53016W        W18243  20.856  16.873  10.858
53017W        W18244  36.356   7.265  10.702
53018W        W18245  25.991  43.332  12.866
53019W        W18246   1.990  35.923  13.931
53020W        W18247   3.707  33.017   3.129
53021W        W18248  16.703  13.577   0.943
53022W        W18249  29.694  22.036  10.806
53023W        W18250   0.641  42.007  13.302
53024W        W18251   5.859  41.279  14.004
53025W        W18252  18.592  43.434   3.799
53026W        W18253  30.052  44.848  13.125
53027W        W18254  36.564  32.394   2.580
53028W        W18255  16.472  33.147  14.467
53029W        W18256   8.467   3.343  12.721
53030W        W18257  28.256  34.438   0.796
53031W        W18258  32.432  18.766   1.429
53032W        W18259  24.679  14.803   4.910
53033W        W18260  29.871  15.983   3.201
53034W        W18261   7.456   5.396  12.330
53035W        W18262  33.892  23.016   0.817
53036W        W18263  34.069   0.668  11.272
53037W        W18264   4.770  24.331   0.028
53038W        W18265  17.115  28.966   2.421
53039W        W18266   8.786  19.247  11.577
53040W        W18267  28.501  23.297   0.167
53041W        W18268  36.422  35.428   0.265
53042W        W18269  31.103  26.195   3.180
53043W        W18270  24.560  39.583   1.424
53044W        W18271   4.767  42.231   0.713
53045W        W18272   9.855  31.651   3.720
53046W        W18273  42.859   6.831   4.110
53047W        W18274  11.590  23.852   5.248
53048W        W18275   5.219  23.686   2.312
53049W        W18276  30.009  41.272  13.803
53050W        W18277  15.255  15.213   3.677
53051W        W18278   2.758  32.816  12.131
53052W        W18279  31.216  21.877  14.498
53053W        W18280   6.400  10.439  14.754
53054W        W18281  40.897   6.189  13.951
53055W        W18282  43.042  23.098   1.001
53056W        W18283  17.065  24.719   3.865
53057W        W18284  40.330  40.740  10.610
53058W        W18285  13.865  34.512  14.708
53059W        W18286   0.925  35.336  12.683
53060W        W18287  25.050  18.596  11.917
53061W        W18288  36.131   4.788   5.044
53062W        W18289  36.080  37.745  10.747
53063W        W18290   1.017  15.334   0.388
53064W        W18291   6.061  34.916  11.143
53065W        W18292  39.154  19.665  11.021
53066W        W18293   0.179   4.173  12.002
53067W        W18294   4.702  26.716   0.812
53068W        W18295  14.015  15.141  14.797
53069W        W18296  12.415  22.348   0.717
53070W        W18297  11.153  21.536   2.597
53071W        W18298  22.237  29.194  14.246
53072W        W18299  11.723   2.325  14.421
53073W        W18300  35.411  36.784   0.981
53074W        W18301  35.355  26.568   1.324
53075W        W18302  32.152   8.174  14.323
53076W        W18303  13.861  29.928  11.169
53077W        W18304   4.277  41.660  14.870
53078W        W18305  40.248  23.449  14.766
53079W        W18306  41.946   8.853  13.768
53080W        W18307   0.186  26.995   2.164
53081W        W18308  29.934   9.398  13.557
53082W        W18309  10.158  10.883  13.744
53083W        W18310  19.195  22.321   4.572
53084W        W18311  26.892  13.295  12.822
53085W        W18312  18.356   5.678  11.750
53086W        W18313   8.448   4.647   5.089
53087W        W18314  20.465  34.391  11.500
53088W        W18315  42.824  16.015  11.986
53089W        W18316  16.229  43.739   1.262
53090W        W18317  38.573   9.125  10.926
53091W        W18318  35.313   3.566  14.399
53092W        W18319  35.018   1.343   2.227
53093W        W18320   1.773   7.769  10.910
53094W        W18321  33.697  16.009   4.041
53095W        W18322  41.834  43.216   3.268
53096W        W18323   3.538   2.779  12.344
53097W        W18324   8.142  22.501   0.011
53098W        W18325  38.101  11.143  11.075
53099W        W18326   6.931  39.643  13.986
53100W        W18327  14.116  32.437   9.932
53101W        W18328  42.868  22.841   1.443
53102W        W18329  20.421  40.937  13.054
53103W        W18330  35.403  29.888  14.314
53104W        W18331  41.402  43.406  13.964
53105W        W18332   4.423   9.569   3.637
53106W        W18333  23.934  43.046  10.788
53107W        W18334  13.493  15.185  12.314
53108W        W18335  11.789  38.019  13.293
53109W        W18336   2.897  29.187   2.794
53110W        W18337  14.047   9.206  11.832
53111W        W18338  23.228  25.911  12.613
53112W        W18339  12.255   6.744  11.211
53113W        W18340  17.039   2.674  12.937
53114W        W18341  39.995  20.315   4.201
53115W        W18342   2.040  10.227   4.754
53116W        W18343  32.589   0.518   3.854
53117W        W18344  22.537  29.254   1.439
53118W        W18345   7.366  33.568  12.975
53119W        W18346  27.735  29.541  11.006
53120W        W18347  29.885  12.873   2.585
53121W        W18348  14.060  24.682  13.439
53122W        W18349  28.430  19.146   0.765
53123W        W18350  25.464  38.765  14.076
53124W        W18351  35.810  38.080  10.152
53125W        W18352  36.034  38.266  10.580
53126W        W18353  11.256  31.855   2.365
53127W        W18354  22.038   5.500  14.229
53128W        W18355  19.766  44.574   3.128
53129W        W18356  13.643  42.826  12.460
53130W        W18357  35.480  10.958   1.423
53131W        W18358  40.324   7.852  13.174
53132W        W18359  29.468  33.448  12.580
53133W        W18360  23.653   8.955  10.803
53134W        W18361  28.658  23.664  11.999
53135W        W18362  36.953  23.538  12.184
53136W        W18363  43.404   8.667  10.126
53137W        W18364  38.957  37.583   9.705
53138W        W18365   0.729  42.854   1.367
53139W        W18366  17.137  40.502  10.623
53140W        W18367   2.963   8.064   4.720
53141W        W18368  34.860  31.008   1.397
53142W        W18369  39.555  18.296   0.986
53143W        W18370  27.613   5.472   1.006
53144W        W18371   9.371  13.261  14.444
53145W        W18372  23.022  32.125  14.995
53146W        W18373  33.958  44.901   4.919
53147W        W18374  35.908  21.749   0.316
53148W        W18375  44.553  34.452   1.269
53149W        W18376   7.940  14.087   4.517
53150W        W18377  32.115  22.414   3.606
53151W        W18378  14.278   1.166  11.153
53152W        W18379   7.829   7.814  10.742
53153W        W18380  38.039  11.342  13.281
53154W        W18381  38.424   0.686   2.900
53155W        W18382  20.927   7.975  13.988
53156W        W18383  23.396  11.886   4.516
53157W        W18384  36.719  41.202  13.492
53158W        W18385  39.032   5.012  10.306
53159W        W18386  43.600  29.492   4.523
53160W        W18387  19.785  30.148  12.501
53161W        W18388  26.530   9.723   4.133
53162W        W18389   6.367  42.752  14.779
53163W        W18390  23.502  15.823  11.045
53164W        W18391  26.520  21.166  12.147
53165W        W18392  21.679  15.283  11.671
53166W        W18393  38.505  17.782  14.483
53167W        W18394   8.103  27.557  12.445
53168W        W18395  21.676  40.678   3.214
53169W        W18396  42.024  25.671   1.435
53170W        W18397  16.317  30.961   4.281
53171W        W18398  31.870  40.453   3.247
53172W        W18399   5.821  39.385   0.693
53173W        W18400  26.583  44.993   0.897
53174W        W18401  17.884  20.190  11.962
53175W        W18402   7.236  23.171   0.685
53176W        W18403  11.226  23.513   2.752
53177W        W18404  28.455  40.401   2.871
53178W        W18405   2.368   0.492  10.987
53179W        W18406  40.280   1.900   4.471
53180W        W18407   9.399  35.490  13.500
53181W        W18408  19.734  26.169  11.163
53182W        W18409  33.118   3.811   2.072
53183W        W18410  20.657  12.948  11.998
53184W        W18411  40.071   5.476   1.872
53185W        W18412   5.919  33.690  12.144
53186W        W18413  12.799  14.381  13.807
53187W        W18414   4.655  40.256   2.396
53188W        W18415  27.753   1.364  10.382
53189W        W18416  15.798  20.262   2.256
53190W        W18417  21.520  38.332  13.853
53191W        W18418  35.378  18.280  12.082
53192W        W18419  19.765  20.620  13.722
53193W        W18420  14.072   4.212  13.447
53194W        W18421  17.189  40.453   0.682
53195W        W18422  36.048  28.384  11.519
53196W        W18423   4.038   2.238   5.138
53197W        W18424  39.511   4.123   4.964
53198W        W18425  23.112  19.805  13.402
53199W        W18426   4.994  38.449  14.050
53200W        W18427   7.115  44.281   2.858
53201W        W18428   5.202  14.297  10.724
53202W        W18429   3.914  21.119  13.312
53203W        W18430  33.014  23.956  12.479
53204W        W18431  42.392  21.768   1.958
53205W        W18432  27.766  32.607   1.098
53206W        W18433  34.107   2.568  11.577
53207W        W18434  21.657   7.502   3.315
53208W        W18435  20.850  23.429   3.920
53209W        W18436   1.094   8.223  13.951
53210W        W18437   2.529  36.735   1.154
53211W        W18438  44.714  42.445   2.326
53212W        W18439  43.477  30.986   0.958
53213W        W18440  36.956  26.830   4.745
53214W        W18441   8.129  34.421   5.488
53215W        W18442  29.932  21.902   4.156
53216W        W18443   1.191  42.376  11.101
53217W        W18444  29.906  27.284  12.176
53218W        W18445  41.554  35.832   1.015
53219W        W18446  42.770   1.953   1.397
53220W        W18447   8.635  16.212   0.314
53221W        W18448  27.930  37.166  13.790
53222W        W18449   1.896  14.100  12.080
53223W        W18450  22.379  22.604   3.155
53224W        W18451  31.101  19.623   0.829
53225W        W18452   9.151   8.794   3.376
53226W        W18453  44.894   1.933   1.421
53227W        W18454  25.928  31.484   2.372
53228W        W18455  21.850   7.966  12.161
53229W        W18456   1.166  18.709  13.573
53230W        W18457  16.907  35.313   3.267
53231W        W18458   2.122  41.281  14.299
53232W        W18459   2.520  23.505  10.159
53233W        W18460  38.938  21.155   0.874
53234W        W18461   2.888  22.588  13.087
53235W        W18462  30.550  11.301  13.589
53236W        W18463  14.333  44.406   4.203
53237W        W18464  33.586   6.430   4.845
53238W        W18465  31.678   8.960   4.057
53239W        W18466  14.924  41.469   1.708
53240W        W18467  13.280  44.389  11.545
53241W        W18468  25.274  20.978  10.672
53242W        W18469  20.651  38.847  12.119
53243W        W18470  23.741  18.627   4.471
53244W        W18471   3.113   3.807   3.802
53245W        W18472   3.219  15.342   4.116
53246W        W18473   1.021  14.604  11.541
53247W        W18474  13.348  31.843   1.542
53248W        W18475  17.773  38.384   0.464
53249W        W18476  23.639  28.522  11.998
53250W        W18477  14.174  40.853  11.506
53251W        W18478  31.039  39.975   3.243
53252W        W18479  30.661  42.746  12.990
53253W        W18480   6.313  22.612   4.070
53254W        W18481  26.342  38.464   1.882
53255W        W18482  29.052  34.816  10.710
53256W        W18483  18.793  24.647   0.140
53257W        W18484  19.612  15.827   5.070
53258W        W18485  35.422  18.500  13.782
53259W        W18486   1.988   5.066  11.179
53260W        W18487  30.916  34.557   4.646
53261W        W18488   1.357   5.320   4.602
53262W        W18489  12.464  32.282  13.625
53263W        W18490  39.712  28.263  11.560
53264W        W18491  29.547  22.401  14.419
53265W        W18492  35.351  42.514   2.137
53266W        W18493  14.379  17.861   1.516
53267W        W18494   4.805  29.051   3.020
53268W        W18495  28.196  40.304   9.904
53269W        W18496  11.897  24.115  13.032
53270W        W18497  34.413  26.345   9.914
53271W        W18498  27.517   7.944   2.714
53272W        W18499   4.196   8.853  12.457
53273W        W18500   8.646  22.471   3.110
53274W        W18501  35.900  23.601  11.120
53275W        W18502  13.711  16.536  13.770
53276W        W18503  14.809   4.518  13.491
53277W        W18504  38.678  10.168   4.430
53278W        W18505   9.720  22.971   0.247
53279W        W18506  17.378   5.321   0.040
53280W        W18507  37.681  23.753   3.225
53281W        W18508  17.673   3.759  13.212
53282W        W18509  15.559  43.280  10.666
53283W        W18510   4.441  22.393   4.681
53284W        W18511  27.609  26.534   4.128
53285W        W18512   2.671  24.397  11.905
53286W        W18513  12.141  17.315   4.571
53287W        W18514   3.765   3.859   1.051
53288W        W18515  10.472  28.204  10.247
53289W        W18516  15.072  33.413   1.841
53290W        W18517  40.815  28.060  12.210
53291W        W18518  35.392  26.799   4.822
53292W        W18519  17.704  16.488   3.236
53293W        W18520   0.384  43.078   1.738
53294W        W18521  16.210  35.391   0.818
53295W        W18522  22.792   1.528   2.994
53296W        W18523  18.212   7.471  11.125
53297W        W18524   4.253   0.964  12.471
53298W        W18525  21.529  35.322  13.323
53299W        W18526  34.840  39.675  11.545
53300W        W18527   2.827   1.295  10.518
53301W        W18528  13.666   0.531  11.132
53302W        W18529   9.190  39.551   1.662
53303W        W18530  38.276  13.619   0.728
53304W        W18531  12.352  22.033   4.312
53305W        W18532   0.742  28.718  12.054
53306W        W18533   7.089  12.006  11.155
53307W        W18534  22.582  38.146   1.762
53308W        W18535  22.074  16.618   2.298
53309W        W18536  36.841   0.341   3.206
53310W        W18537  19.613  31.548   3.905
53311W        W18538  34.982   6.154  12.029
53312W        W18539  23.016  16.004  10.940
53313W        W18540  26.075  31.284   0.137
53314W        W18541  41.994  44.679   4.836
53315W        W18542  34.600  43.791  12.151
53316W        W18543   0.778  17.726   3.488
53317W        W18544  18.379  32.600  14.283
53318W        W18545  25.691  14.168  11.031
53319W        W18546  36.337  16.216   0.775
53320W        W18547  35.547  20.499   0.955
53321W        W18548  35.370  39.248   1.838
53322W        W18549  20.820  14.858  12.385
53323W        W18550  22.994  33.125  13.569
53324W        W18551  39.022  17.781   2.096
53325W        W18552  21.530  36.857   3.686
53326W        W18553   5.247   2.187  14.493
53327W        W18554  29.591  23.324  13.323
53328W        W18555  12.378   7.008   1.082
53329W        W18556  18.124  36.573   1.245
53330W        W18557  39.058   9.847   4.566
53331W        W18558  32.894  24.264  14.752
53332W        W18559  36.544  15.327  12.127
53333W        W18560   9.200  17.072  13.912
53334W        W18561   0.449  37.649  11.973
53335W        W18562  32.348  32.175   2.859
53336W        W18563  25.505  26.613  12.476
53337W        W18564   2.366  42.779  12.386
53338W        W18565  30.689   8.956  11.018
53339W        W18566   8.473  25.651  14.372
53340W        W18567  28.758  43.744   4.641
53341W        W18568  35.937  26.405   0.572
53342W        W18569  28.042   4.833  14.803
53343W        W18570  26.541  42.077  14.402
53344W        W18571  16.063  14.938   3.598
53345W        W18572  24.736  28.030  12.459
53346W        W18573  37.553  37.410  12.564
53347W        W18574  12.691  25.564   0.873
53348W        W18575   5.019   9.419  14.345
53349W        W18576  33.301  39.445  13.807
53350W        W18577  15.579  17.172   5.464
53351W        W18578   5.245  14.654  14.406
53352W        W18579  25.150   3.183   3.777
53353W        W18580  21.899   3.454   4.216
53354W        W18581  40.424  26.743  12.612
53355W        W18582   3.839  33.996  10.420
53356W        W18583  39.091  32.569  11.407
53357W        W18584  37.928  41.107  14.009
53358W        W18585  33.598  38.418  13.416
53359W        W18586   4.520   1.812   2.902
53360W        W18587  18.570  33.419   4.562
53361W        W18588  15.549   0.725  14.884
53362W        W18589   6.782  40.917   3.108
53363W        W18590  25.009  30.428   3.445
53364W        W18591   7.935  40.844  11.012
53365W        W18592  32.942  28.171  13.781
53366W        W18593  23.493  13.789  11.190
53367W        W18594  37.071  31.680   2.781
53368W        W18595  26.237  41.793   3.336
53369W        W18596  20.460  42.471   3.241
53370W        W18597  42.871  34.049  13.392
53371W        W18598  32.553  33.653  14.541
53372W        W18599  31.106  30.065   0.594
53373W        W18600   9.219  38.915  11.145
53374W        W18601   5.409  35.615  12.013
53375W        W18602  29.391  41.369   1.600
53376W        W18603  16.030  42.145  12.150
53377W        W18604   9.778  10.195  12.637
53378W        W18605   2.861  43.499   4.551
53379W        W18606  19.808   8.106  13.067
53380W        W18607  13.075  40.091   2.321
53381W        W18608  10.714  18.315  14.343
53382W        W18609   9.958   5.396   1.734
53383W        W18610  20.026   4.125  11.144
53384W        W18611  44.881  10.367   2.360
53385W        W18612   5.589  31.077  13.543
53386W        W18613  36.138  35.901   1.393
53387W        W18614  24.070  10.377  14.738
53388W        W18615  30.413   3.304  11.160
53389W        W18616  15.438  44.008   0.830
53390W        W18617   1.512  37.528   3.487
53391W        W18618  24.260  10.876  14.667
53392W        W18619   5.408  44.357  12.224
53393W        W18620  35.142  34.634   4.132
53394W        W18621  19.980  11.890  14.054
53395W        W18622  20.756  23.086   1.428
53396W        W18623  32.386   9.818   3.323
53397W        W18624  30.992   5.745   3.671
53398W        W18625  34.805  10.628   0.329
53399W        W18626  27.178  37.080   3.933
53400W        W18627  31.994  21.576  12.811
53401W        W18628  25.133  41.590   2.269
53402W        W18629  14.796   1.845  12.888
53403W        W18630  34.067   5.824   4.548
53404W        W18631  14.922   6.999  12.511
53405W        W18632  26.446  32.902   0.840
53406W        W18633  25.712  44.342   1.414
53407W        W18634  30.051  40.487  10.635
53408W        W18635  10.212  14.672  14.897
53409W        W18636  28.260  33.921  14.523
53410W        W18637  11.617   9.606   2.682
53411W        W18638   9.931   0.033  12.993
53412W        W18639  30.395  11.309   1.701
53413W        W18640  13.440  42.742   2.818
53414W        W18641   7.128  37.954   1.429
53415W        W18642  42.777  19.256   2.133
53416W        W18643   3.107  33.165  11.964
53417W        W18644  42.797  23.212  11.604
53418W        W18645   3.823  29.196   3.159
53419W        W18646  28.343  42.870   4.054
53420W        W18647  33.352   7.871   3.697
53421W        W18648   9.302   2.499  12.208
53422W        W18649  16.130  34.439  14.928
53423W        W18650   5.068  10.401  11.090
53424W        W18651   8.891  36.931   3.685
53425W        W18652  13.056  38.406  12.482
53426W        W18653  41.008  10.089  14.506
53427W        W18654  33.464  14.215  13.191
53428W        W18655  44.095   3.318  10.662
53429W        W18656   9.190   5.534   1.007
53430W        W18657  36.659   2.424   0.855
53431W        W18658  33.689  29.058   4.672
53432W        W18659  40.294   3.136   0.058
53433W        W18660   0.613  11.729  11.655
53434W        W18661   3.927  39.507   4.001
53435W        W18662  42.802  32.520   0.829
53436W        W18663   2.745   6.322   1.460
53437W        W18664  42.505   1.799   3.272
53438W        W18665  37.006  26.516  13.258
53439W        W18666  41.959  21.745  14.827
53440W        W18667   0.057  18.216   1.375
53441W        W18668  34.189  24.123  12.424
53442W        W18669  33.098  33.016  11.121
53443W        W18670  27.970  21.742  14.733
53444W        W18671  37.740  24.651   4.526
53445W        W18672  38.092  24.588  10.776
53446W        W18673  28.767  25.139   0.253
53447W        W18674   0.304  25.202   0.257
53448W        W18675  20.558  41.381   3.254
53449W        W18676  27.124   9.162   0.947
53450W        W18677   8.340   5.240   3.249
53451W        W18678  44.900  44.955   0.355
53452W        W18679  42.447  39.239   2.854
53453W        W18680  24.664   6.167  14.075
53454W        W18681  32.356  20.417  13.774
53455W        W18682  33.644   9.441  11.675
53456W        W18683  23.294  24.147   1.415
53457W        W18684  22.969  24.584  13.838
53458W        W18685  42.680   0.735  14.449
53459W        W18686  32.934   1.926   4.637
53460W        W18687   4.024  36.422  12.036
53461W        W18688  38.448  12.598   1.765
53462W        W18689  31.844   0.839   2.945
53463W        W18690  38.361  14.985   3.589
53464W        W18691   4.212  26.932   0.698
53465W        W18692  28.371  41.855   4.055
53466W        W18693  18.765  14.472  11.685
53467W        W18694   4.459  39.124   1.637
53468W        W18695  43.650   7.391  11.773
53469W        W18696  29.868  42.301  14.469
53470W        W18697  22.273  36.346  12.527
53471W        W18698  36.514  34.661  12.508
53472W        W18699   8.732   5.180  12.081
53473W        W18700  17.413  35.628   1.708
53474W        W18701   8.773  21.946  14.542
53475W        W18702  41.742  41.947  14.760
53476W        W18703  27.576  23.649  14.408
53477W        W18704  13.228  18.356   2.724
53478W        W18705   8.642  21.903  14.051
53479W        W18706   6.365  41.446  12.591
53480W        W18707  27.276  31.464  12.644
53481W        W18708   4.818  33.896  11.901
53482W        W18709  44.530   8.656  12.062
53483W        W18710  24.500  40.308   0.361
53484W        W18711  31.147  13.815   3.740
53485W        W18712  20.214  39.330  14.102
53486W        W18713  12.846  43.945  11.352
53487W        W18714  39.815  22.624   1.288
53488W        W18715  10.139  35.132   0.383
53489W        W18716  10.181  21.356  12.802
53490W        W18717   6.607  16.699  13.340
53491W        W18718   8.612  27.118  14.343
53492W        W18719  34.895  41.258  13.844
53493W        W18720   7.391  36.555   0.085
53494W        W18721  17.825  17.193  13.524
53495W        W18722   0.043  25.975  14.358
53496W        W18723   4.377  42.601  14.816
53497W        W18724  21.104  29.027   3.808
53498W        W18725  26.665  16.287  13.130
53499W        W18726   2.063  21.177  14.817
53500W        W18727   8.741  34.351   1.287
53501W        W18728  32.588   0.022  12.954
53502W        W18729  42.092  42.338  12.808
53503W        W18730  15.660   3.481  14.161
53504W        W18731  43.866   5.310   0.832
53505W        W18732   8.944  24.399  14.832
53506W        W18733  25.003  22.197  13.296
53507W        W18734   9.534  10.132   4.391
53508W        W18735  41.777  19.153  14.409
53509W        W18736  17.620  37.145  13.015
53510W        W18737  21.076   9.643  12.902
53511W        W18738  19.478   8.085  14.947
53512W        W18739   9.300  24.148   3.306
53513W        W18740  12.728  13.085  10.549
53514W        W18741  29.886  11.238   3.709
53515W        W18742  38.112  21.279  10.123
53516W        W18743  31.899   6.623  12.505
53517W        W18744  18.181  20.338   4.571
53518W        W18745   7.503  26.018  13.498
53519W        W18746  39.518   2.082  13.444
53520W        W18747  43.772  41.504   3.101
53521W        W18748  20.662  42.728   0.283
53522W        W18749   3.313  39.528   2.769
53523W        W18750   3.984  24.634   2.442
53524W        W18751  37.851  17.859   1.787
53525W        W18752  27.873  23.287   0.895
53526W        W18753  15.397  11.174  14.972
53527W        W18754   9.389   6.662   0.229
53528W        W18755   9.824  42.038   4.958
53529W        W18756   2.980  12.362  13.700
53530W        W18757  21.304  12.649   0.929
53531W        W18758  39.717  17.709   3.882
53532W        W18759  33.601  42.596  10.711
53533W        W18760   2.213  12.603  11.141
53534W        W18761  12.917  27.124  14.052
53535W        W18762  22.410  20.205  10.643
53536W        W18763  28.113  25.931  14.887
53537W        W18764   0.222  16.292  14.406
53538W        W18765   5.365  21.676   2.684
53539W        W18766   5.888  16.495  12.523
53540W        W18767  16.294  17.954  11.171
53541W        W18768   5.265  36.614   2.364
53542W        W18769  24.302   9.781  13.884
53543W        W18770  26.207  34.607  13.039
53544W        W18771  44.387  33.790  12.058
53545W        W18772  42.482  42.327   4.558
53546W        W18773  26.005  22.147   4.120
53547W        W18774  19.168  41.803  13.874
53548W        W18775  33.536  10.807  14.715
53549W        W18776   2.920   9.614  11.619
53550W        W18777  12.811   1.535  11.206
53551W        W18778  29.107   0.995  11.478
53552W        W18779  23.399  20.303   2.914
53553W        W18780   0.915  36.471   0.543
53554W        W18781   4.969   7.696  12.817
53555W        W18782  19.143  31.534  13.876
53556W        W18783  16.237   7.615  14.953
53557W        W18784  21.164  24.291  13.923
53558W        W18785  29.553   5.384  13.039
53559W        W18786   5.098  20.194   1.561
53560W        W18787  11.381  44.825  12.427
53561W        W18788  23.916   9.638   3.901
53562W        W18789  16.675   5.276   1.926
53563W        W18790  37.517  16.813   1.429
53564W        W18791  21.993  32.680  11.924
53565W        W18792  30.910  20.704  10.940
53566W        W18793  30.686  21.470  13.992
53567W        W18794   4.980  18.016   4.226
53568W        W18795  29.142   4.382   0.144
53569W        W18796  23.246  29.373   4.892
53570W        W18797  20.579  38.788  13.482
53571W        W18798  17.060   0.663   4.841
53572W        W18799  20.345   2.187  14.211
53573W        W18800  24.764   4.198   2.428
53574W        W18801  28.165  35.651  13.919
53575W        W18802   8.288   1.557   1.780
53576W        W18803  37.418  31.105   4.248
53577W        W18804   2.405  20.617   1.855
53578W        W18805  30.615  20.199   4.034
53579W        W18806  23.698  11.147  13.446
53580W        W18807   4.657  31.052  10.694
53581W        W18808  25.469  31.814   4.499
53582W        W18809   3.016  30.021   2.638
53583W        W18810  18.745  23.321  11.969
53584W        W18811  10.848  33.975  10.046
53585W        W18812  12.794  30.049  10.720
53586W        W18813  39.084   2.003  13.819
53587W        W18814  13.767  40.094   0.487
53588W        W18815  11.644  39.221   5.174
53589W        W18816  22.546  17.170  14.990
53590W        W18817  41.320   9.914  12.826
53591W        W18818  35.595  25.282  13.420
53592W        W18819  12.754  29.306   4.106
53593W        W18820  16.836  19.487   0.291
53594W        W18821  34.166   4.432  12.583
53595W        W18822  30.618  13.622   2.402
53596W        W18823  18.462  19.078  13.329
53597W        W18824  13.643  44.049  11.387
53598W        W18825  43.271   3.741   1.751
53599W        W18826   9.157   3.067   2.729
53600W        W18827  16.166  42.077  10.771
53601W        W18828  24.547  28.577  10.646
53602W        W18829   9.169   0.539   3.835
53603W        W18830  15.696   4.400   4.776
53604W        W18831  14.692  29.364  11.267
53605W        W18832  37.375  39.937  11.302
53606W        W18833  23.179  26.515   1.206
53607W        W18834  19.062  14.095  14.753
53608W        W18835   5.143  32.677   2.528
53609W        W18836  10.342  16.002  11.728
53610W        W18837  43.803  26.533   1.632
53611W        W18838  26.156  10.721  14.290
53612W        W18839  41.489  30.422   1.708
53613W        W18840   1.845  36.947   2.133
53614W        W18841  39.347  38.059  11.360
53615W        W18842  29.494  29.354  11.464
53616W        W18843  18.601  16.752  10.500
53617W        W18844  38.583  22.462  12.969
53618W        W18845  15.018   9.765  11.475
53619W        W18846  43.721  37.030  11.190
53620W        W18847  36.447   9.662  11.879
53621W        W18848  43.574  30.777  12.436
53622W        W18849  10.568  16.104   2.338
53623W        W18850  27.790  30.684   0.039
53624W        W18851  22.575   5.104   4.947
53625W        W18852   3.050   0.418   2.759
53626W        W18853   3.133   3.342  10.478
53627W        W18854  33.643  14.282   0.449
53628W        W18855   0.343  40.115   0.172
53629W        W18856   5.532  44.953   4.116
53630W        W18857   5.583  27.126   0.821
53631W        W18858  32.435  16.799   4.007
53632W        W18859  17.324   4.453   2.224
53633W        W18860  23.698  10.558   1.881
53634W        W18861  37.038  28.452   3.723
53635W        W18862  14.084  26.915   4.313
53636W        W18863  24.156  10.084  14.288
53637W        W18864  27.965  30.133   0.807
53638W        W18865  41.276  42.126   1.394
53639W        W18866  21.154   7.093   3.187
53640W        W18867  34.413  44.453   0.664
53641W        W18868   0.176  11.708  14.002
53642W        W18869  39.304  24.651  14.152
53643W        W18870   2.980  15.734   1.447
53644W        W18871  29.233  19.849   5.068
53645W        W18872  43.947  43.445   4.158
53646W        W18873  40.009  39.832   1.332
53647W        W18874  30.195   8.823   2.339
53648W        W18875  22.261  43.157  12.545
53649W        W18876  28.653  29.889  12.649
53650W        W18877  18.193  12.062   2.511
53651W        W18878  38.535  34.402  11.614
53652W        W18879  14.326  33.167  13.511
53653W        W18880  15.083  29.091  11.611
53654W        W18881  25.213  42.415   1.214
53655W        W18882   7.137   5.639  13.146
53656W        W18883   0.287   5.215   2.563
53657W        W18884  25.831  31.389   3.738
53658W        W18885  10.692  13.169   3.733
53659W        W18886  13.976   6.821  12.235
53660W        W18887  35.424  10.011  12.818
53661W        W18888  18.735  24.053  13.810
53662W        W18889  43.250   4.032  13.649
53663W        W18890  31.492  23.142   1.765
53664W        W18891  22.073   1.428   0.796
53665W        W18892   7.314  34.413  11.943
53666W        W18893  34.831  41.370  13.070
53667W        W18894  31.890  32.858  10.783
53668W        W18895  42.759  39.756  14.436
53669W        W18896  14.329   4.740   0.770
53670W        W18897  25.095   9.382  10.058
53671W        W18898  26.408  15.847   3.147
53672W        W18899  31.410  29.376  10.696
53673W        W18900   5.175  33.911  12.622
53674W        W18901  20.079  17.383  14.868
53675W        W18902  10.220  23.177   3.385
53676W        W18903   5.342  40.401  12.558
53677W        W18904   9.396  32.839   0.203
53678W        W18905  23.965  29.611   1.927
53679W        W18906  31.872  14.292  12.499
53680W        W18907  32.883  35.786   4.644
53681W        W18908  39.679  28.434  14.373
53682W        W18909  42.773   0.004   4.122
53683W        W18910   7.194   9.271   4.676
53684W        W18911  14.104  22.401   0.674
53685W        W18912  21.439  40.509  11.037
53686W        W18913  20.723  32.453   4.135
53687W        W18914  15.372  39.863  10.932
53688W        W18915  13.086  40.615  12.900
53689W        W18916  40.391  40.151   1.485
53690W        W18917   4.864   8.150  13.996
53691W        W18918  27.153  13.256   2.963
53692W        W18919  18.171   0.330   2.100
53693W        W18920  23.790  17.578   2.026
53694W        W18921  19.350   8.712  12.451
53695W        W18922  29.409   4.487  10.369
53696W        W18923   9.238  34.681  12.997
53697W        W18924  12.092  20.788  14.456
53698W        W18925  15.160   6.893  14.471
53699W        W18926   5.259  28.679  13.362
53700W        W18927  42.976  44.973  14.255
53701W        W18928  41.554  11.584  12.964
53702W        W18929  12.366  13.631  13.500
53703W        W18930   0.389  33.642   2.528
53704W        W18931  41.445  10.646  14.843
53705W        W18932   3.650  14.381   3.268
53706W        W18933  18.221  14.606   0.864
53707W        W18934  10.233  22.464  14.816
53708W        W18935   5.587  43.473  14.050
53709W        W18936   4.854   3.950  13.347
53710W        W18937  35.668  15.689   0.414
53711W        W18938  32.582  17.566   5.514
53712W        W18939  21.596  34.531  12.116
53713W        W18940  42.045   2.243  10.695
53714W        W18941  12.142   8.346   1.457
53715W        W18942   6.367   7.350  12.549
53716W        W18943   8.728   8.092   1.289
53717W        W18944  15.285   3.636   1.920
53718W        W18945  33.207  11.843   1.829
53719W        W18946  21.210   9.106  13.374
53720W        W18947  10.678  33.566   1.913
53721W        W18948  30.034  31.223   0.105
53722W        W18949  13.878  31.398  11.115
53723W        W18950  30.212  21.261   5.006
53724W        W18951  20.624  11.693   4.764
53725W        W18952  34.955  36.091   3.632
53726W        W18953  40.624  29.453  14.746
53727W        W18954  29.424  22.209  11.562
53728W        W18955  33.447   5.164   2.712
53729W        W18956  23.714  17.237  12.609
53730W        W18957  32.714  29.768   0.856
53731W        W18958  24.725  27.406   1.324
53732W        W18959   0.253  36.496  11.714
53733W        W18960  40.633  30.167   1.482
53734W        W18961  21.027   2.343  13.652
53735W        W18962  40.608  37.818  14.274
53736W        W18963  20.312  43.722  11.561
53737W        W18964  40.158   0.790   1.691
53738W        W18965  22.362  19.371  14.489
53739W        W18966   3.206  16.717   0.234
53740W        W18967  20.671  35.428  10.778
53741W        W18968   4.325  10.131   1.293
53742W        W18969  42.844  11.857   0.296
53743W        W18970  23.940  37.475   4.092
53744W        W18971  12.178  28.634  11.099
53745W        W18972  39.086   1.764   0.190
53746W        W18973  12.667  36.009   4.040
53747W        W18974  42.841  30.100  10.234
53748W        W18975  28.505  28.534  12.833
53749W        W18976  18.502  19.614  11.753
53750W        W18977  35.723  19.765  13.267
53751W        W18978   5.855  26.444   2.339
53752W        W18979  22.978  28.655  13.468
53753W        W18980   7.778  36.703  10.719
53754W        W18981  35.413  29.999   4.777
53755W        W18982  22.476  38.519  14.958
53756W        W18983  19.522   4.423   2.630
53757W        W18984  21.583   3.920  14.833
53758W        W18985  34.385  16.245  12.803
53759W        W18986   6.848  33.731   2.209
53760W        W18987  42.899   3.183  11.530
53761W        W18988   1.968  41.327  10.353
53762W        W18989  24.987  29.218  12.929
53763W        W18990  12.112  31.383   4.092
53764W        W18991   5.248  18.603   0.891
53765W        W18992   2.791  44.271   0.445
53766W        W18993  35.036  16.027   2.401
53767W        W18994  25.159  41.557   4.728
53768W        W18995  28.123  32.512   4.547
53769W        W18996   6.396  25.699  10.796
53770W        W18997   2.830   5.660  12.881
53771W        W18998  26.000   6.271   1.391
53772W        W18999  39.250  11.628  13.436
53773W        W19000  35.882  40.107   1.630
53774W        W19001  24.087  32.043  10.737
53775W        W19002  43.472   1.864   2.017
53776W        W19003  16.745  36.477   0.885
53777W        W19004  22.210   0.171  14.288
53778W        W19005  42.506  38.919   1.624
53779W        W19006  14.021  38.290  10.781
53780W        W19007  17.168  35.793   4.158
53781W        W19008  12.914   5.222   4.395
53782W        W19009  44.696  34.997  11.652
53783W        W19010   7.496  35.535  12.446
53784W        W19011  41.919   4.711  10.711
53785W        W19012  14.725  42.456   2.883
53786W        W19013   0.346  14.149  14.128
53787W        W19014  28.575   3.286  12.321
53788W        W19015  40.317  36.566   1.778
53789W        W19016   7.832  19.223   4.864
53790W        W19017  39.343  31.407  14.518
53791W        W19018  23.755  17.205  13.141
53792W        W19019  22.148  35.672  13.557
53793W        W19020  41.574  37.457   3.723
53794W        W19021  27.590  32.109   2.965
53795W        W19022  21.371  22.512   3.938
53796W        W19023   4.694  14.325   4.881
53797W        W19024  35.475   4.889  11.395
53798W        W19025  33.328   5.739  14.470
53799W        W19026  21.433  28.369  11.848
53800W        W19027   6.432  11.988  13.135
53801W        W19028  43.345  10.328  11.417
53802W        W19029  22.947  42.214   5.030
53803W        W19030  40.271   9.122   1.856
53804W        W19031  11.709  14.827  10.561
53805W        W19032  30.411   4.389  11.257
53806W        W19033  32.458  38.558  13.039
53807W        W19034  42.921  33.367   2.117
53808W        W19035  30.533   7.561   3.095
53809W        W19036   0.458   8.498  14.781
53810W        W19037  33.029  24.895   4.584
53811W        W19038  24.439   3.004   2.331
53812W        W19039   5.902  17.825   4.193
53813W        W19040  11.602  10.361   4.210
53814W        W19041  41.279   1.440  11.272
53815W        W19042  12.125  17.217   0.736
53816W        W19043   5.835   3.188  11.071
53817W        W19044  14.620   1.318  14.518
53818W        W19045   5.849   5.724   2.863
53819W        W19046  33.957  36.870  12.065
53820W        W19047  27.157  23.378  11.197
53821W        W19048   4.161  20.518  10.713
53822W        W19049  27.884   5.502   1.515
53823W        W19050   9.913  26.731   4.305
53824W        W19051  23.239  18.547   4.648
53825W        W19052  28.451  29.466  12.443
53826W        W19053   0.320  20.361  13.912
53827W        W19054  16.324  34.351   2.569
53828W        W19055  28.663  27.179   3.063
53829W        W19056  17.675  35.553   2.685
53830W        W19057  40.058  13.555   2.251
53831W        W19058   7.010  16.707   2.344
53832W        W19059  20.776  11.914  13.418
53833W        W19060  34.844  10.251   2.916
53834W        W19061  10.872  33.514   2.857
53835W        W19062  38.604   0.998  12.100
53836W        W19063  40.257  33.612   0.233
53837W        W19064  25.474  30.514   3.243
53838W        W19065  20.040   0.489  14.021
53839W        W19066  13.591  14.872   1.885
53840W        W19067  26.636  31.325  10.263
53841W        W19068  41.960  24.494   3.738
53842W        W19069  43.192  19.915  14.975
53843W        W19070  33.684  30.278   1.292
53844W        W19071  43.070  24.535   1.858
53845W        W19072  30.564   8.039  10.549
53846W        W19073  25.211  28.377   0.717
53847W        W19074  35.988  14.153   2.487
53848W        W19075   7.770   3.995  12.593
53849W        W19076  43.818  29.416  14.823
53850W        W19077  11.778  13.552   2.324
53851W        W19078  35.411  14.356  14.882
53852W        W19079  18.769   0.933  12.107
53853W        W19080  18.803  22.264   0.800
53854W        W19081  12.954  24.383   1.867
53855W        W19082   3.452  41.428  14.636
53856W        W19083  41.464  23.050   3.999
53857W        W19084  17.128   7.776  13.479
53858W        W19085  41.894  27.401   4.487
53859W        W19086  10.760  20.328   0.982
53860W        W19087  16.579  37.404   0.807
53861W        W19088  37.760  16.586   2.807
53862W        W19089  37.546   7.080   3.910
53863W        W19090  15.035  12.204  10.415
53864W        W19091   7.688  30.037   0.924
53865W        W19092  37.590  28.140   4.120
53866W        W19093  37.335   9.607   0.377
53867W        W19094  37.586  21.647  11.327
53868W        W19095  33.599   8.405  11.643
53869W        W19096  17.425   4.617  12.995
53870W        W19097  22.163   6.896  14.930
53871W        W19098  36.827  11.520  12.445
53872W        W19099  13.280  37.308   0.873
53873W        W19100   2.414  33.984   3.555
53874W        W19101   8.850   9.225   3.407
53875W        W19102   1.606  21.006   1.740
53876W        W19103   9.306   0.421   0.664
53877W        W19104  43.052  37.165   3.806
53878W        W19105  13.398  13.073   1.244
53879W        W19106  19.465  35.590   2.005
53880W        W19107  36.416  42.066   3.323
53881W        W19108  28.490  19.124   2.059
53882W        W19109   6.571  35.568   2.728
53883W        W19110  24.682  19.638  11.362
53884W        W19111  36.429  44.973   0.542
53885W        W19112  27.177  40.681  11.638
53886W        W19113  15.836  33.572  10.614
53887W        W19114  23.189   0.495   2.128
53888W        W19115  36.494  38.061   3.235
53889W        W19116   8.902  22.576   0.246
53890W        W19117  29.614  42.691   1.442
53891W        W19118  23.997  27.523   0.246
53892W        W19119  15.019  11.902  12.114
53893W        W19120  12.373  40.261  10.505
53894W        W19121  30.224  22.249  13.223
53895W        W19122   6.405  44.882  13.795
53896W        W19123   8.882  12.592  13.500
53897W        W19124   4.178  43.037  13.641
53898W        W19125   9.647  10.102  13.875
53899W        W19126  42.570  28.122  14.482
53900W        W19127   3.464  28.549  14.655
53901W        W19128  32.631  28.925   1.377
53902W        W19129  43.242   5.768   1.319
53903W        W19130  24.505  34.837  13.767
53904W        W19131  42.593  44.405  11.561
53905W        W19132   5.166  17.127   4.413
53906W        W19133   1.736   4.830  13.385
53907W        W19134  35.338  12.375  11.157
53908W        W19135  28.267  43.944   4.825
53909W        W19136  41.897  16.521   1.353
53910W        W19137   9.495  17.678  13.308
53911W        W19138  34.105  32.715   1.588
53912W        W19139  33.330  17.691  12.948
53913W        W19140  41.979   7.453   1.186
53914W        W19141   9.917  43.212  12.542
53915W        W19142  17.016   3.454  13.575
53916W        W19143  36.342  42.744  10.636
53917W        W19144  26.943  22.964  14.915
53918W        W19145  20.081   9.471  11.660
53919W        W19146  26.428  16.830   0.832
53920W        W19147  39.121  31.109  12.446
53921W        W19148  29.401  42.715   2.782
53922W        W19149  37.531  41.464   3.675
53923W        W19150  15.844   7.675   2.748
53924W        W19151  30.583  17.459   2.147
53925W        W19152  16.509  43.976   1.749
53926W        W19153  35.524  16.701  14.034
53927W        W19154   5.795  15.693  10.126
53928W        W19155   7.431  15.851   0.040
53929W        W19156  38.361  23.091   3.218
53930W        W19157  11.188  19.421  11.090
53931W        W19158  37.811  18.620  12.584
53932W        W19159  10.604   1.467  13.027
53933W        W19160   5.532  33.849  13.063
53934W        W19161  30.037  23.542  11.117
53935W        W19162  21.019  34.184  11.673
53936W        W19163  38.715   8.033   3.341
53937W        W19164  22.970  39.035  10.624
53938W        W19165   2.753  33.740  11.096
53939W        W19166  13.220   6.283   3.395
53940W        W19167  38.914  39.658   0.775
53941W        W19168   2.400   2.960  12.447
53942W        W19169  35.431  26.246  13.304
53943W        W19170   7.184  36.616   2.239
53944W        W19171  28.400  30.438   0.836
53945W        W19172   9.436  42.928   1.012
53946W        W19173  42.982  43.330  10.759
53947W        W19174  16.368  41.801   4.114
53948W        W19175   9.896  41.252   1.870
53949W        W19176   3.358  36.561  11.172
53950W        W19177  14.708  41.319  13.290
53951W        W19178  40.911  19.863  13.762
53952W        W19179  34.135   7.426   3.365
53953W        W19180  25.669  34.107   2.387
53954W        W19181  38.915  19.217  11.101
53955W        W19182  24.918  19.541   0.420
53956W        W19183  25.852  16.788  14.940
53957W        W19184   9.580   8.210  11.549
53958W        W19185  20.492  36.869  12.604
53959W        W19186  20.774  13.183   3.649
53960W        W19187  33.872  16.894  13.404
53961W        W19188   0.673  22.750  14.018
53962W        W19189  17.215  43.840   3.587
53963W        W19190  19.312  17.205   2.696
53964W        W19191  22.982  39.435   4.498
53965W        W19192   3.961  10.124  14.907
53966W        W19193   3.075  19.617  10.852
53967W        W19194  40.893  34.154   0.020
53968W        W19195  20.674   1.411  13.339
53969W        W19196  24.744   4.830  10.903
53970W        W19197  25.575   9.891  12.506
53971W        W19198  17.242  19.339  11.634
53972W        W19199  23.993  27.226   3.262
53973W        W19200  19.002  30.604  11.882
53974W        W19201  12.098  23.253   0.828
53975W        W19202   1.796  31.827   0.848
53976W        W19203  38.140   8.005  12.642
53977W        W19204   3.922  43.876  14.504
53978W        W19205  13.198  22.312   1.040
53979W        W19206   2.796   7.912  13.419
53980W        W19207  32.321   1.346   5.095
53981W        W19208  15.837  43.008  13.108
53982W        W19209  34.974  30.504   1.794
53983W        W19210   9.329  30.591  14.525
53984W        W19211  21.776  24.650   0.798
53985W        W19212  10.230   1.444   0.712
53986W        W19213   7.986  37.036   1.453
53987W        W19214  15.285  26.294   2.416
53988W        W19215  28.645  39.600  14.044
53989W        W19216  20.682  20.204  13.559
53990W        W19217  26.689   0.226  11.176
53991W        W19218  16.308  34.807  12.730
53992W        W19219  24.129  13.354   4.001
53993W        W19220  30.148  19.540   0.883
53994W        W19221  38.755  14.615   5.246
53995W        W19222  14.233  18.140   4.263
53996W        W19223  43.989  28.660  12.762
53997W        W19224  22.671  34.162   4.284
53998W        W19225  20.161  19.458   1.856
53999W        W19226   6.941  27.632   3.682
54000W        W19227   7.107  29.923  11.184
54001W        W19228  10.868   6.789   0.434
54002W        W19229  22.501   7.357  14.539
54003W        W19230  36.929   3.031  13.592
54004W        W19231  22.150  23.935  12.249
54005W        W19232  29.123   9.660  10.704
54006W        W19233  42.808   1.461   1.114
54007W        W19234  24.100   2.778   3.218
54008W        W19235  15.704  42.509  11.809
54009W        W19236  28.514  37.069  11.874
54010W        W19237   4.787  36.506  13.397
54011W        W19238   6.379   5.151   4.858
54012W        W19239  31.212  43.243  11.120
54013W        W19240  37.095  13.131   1.415
54014W        W19241   1.512  31.031  13.362
54015W        W19242  27.591  41.293   1.695
54016W        W19243  27.512  19.227  14.980
54017W        W19244  36.704   3.367   2.245
54018W        W19245   0.442  25.485   3.849
54019W        W19246  22.134  28.136  14.273
54020W        W19247   4.621  28.429   2.729
54021W        W19248  13.616   4.689  10.338
54022W        W19249  11.319  40.599  11.257
54023W        W19250  22.005  19.976  13.883
54024W        W19251   6.700  15.799   0.513
54025W        W19252   2.903  40.478   4.567
54026W        W19253  37.869   0.743  10.882
54027W        W19254   2.809   3.716  13.014
54028W        W19255  40.745  35.479  14.887
54029W        W19256  26.711  20.547   0.780
54030W        W19257  34.632  13.740   3.130
54031W        W19258  12.839  33.806   0.430
54032W        W19259  43.046   5.383  14.394
54033W        W19260  11.867  20.665   0.880
54034W        W19261  44.406   9.987   9.739
54035W        W19262  31.789   2.628   1.417
54036W        W19263  21.695  28.283   1.214
54037W        W19264  30.166  26.070  13.044
54038W        W19265  42.925  44.487   0.511
54039W        W19266  32.710  28.535   4.059
54040W        W19267  32.431  11.791   2.250
54041W        W19268  20.983  25.740   0.503
54042W        W19269  12.172   6.976   3.757
54043W        W19270   2.906  41.504  14.443
54044W        W19271   4.390  21.017   0.267
54045W        W19272  28.534  32.621   4.850
54046W        W19273  26.369  38.937  13.344
54047W        W19274  16.868   4.113  14.260
54048W        W19275   3.410   1.149   9.930
54049W        W19276  26.070  16.237   4.642
54050W        W19277  34.706  39.421  11.127
54051W        W19278  39.855  43.405  14.945
54052W        W19279  31.731  41.446  11.130
54053W        W19280  40.617  15.530  11.291
54054W        W19281   5.279  32.312   2.154
54055W        W19282  17.702  28.438   4.398
54056W        W19283  26.663  14.916  10.782
54057W        W19284   7.603   5.711   1.251
54058W        W19285  39.219  24.382   4.094
54059W        W19286  11.863  31.463   4.532
54060W        W19287  33.363   8.653   2.248
54061W        W19288   6.726  44.122  13.054
54062W        W19289  19.867  24.567  14.471
54063W        W19290  36.172  23.360  13.253
54064W        W19291  20.791  17.918  13.715
54065W        W19292  41.544  42.456   2.651
54066W        W19293  36.545  17.854   2.383
54067W        W19294   6.144   8.859   2.390
54068W        W19295  18.774   7.003   1.655
54069W        W19296  29.085  20.667  11.601
54070W        W19297  14.246  40.170  14.729
54071W        W19298   2.282  19.615  12.337
54072W        W19299   5.682   4.616  12.432
54073W        W19300  29.458  44.839  14.313
54074W        W19301  38.682  24.278   4.166
54075W        W19302  22.866  34.844  14.095
54076W        W19303  33.622   0.305   0.943
54077W        W19304   1.817  34.585  12.380
54078W        W19305  10.264  17.658   1.650
54079W        W19306  10.632   6.330   0.326
54080W        W19307  15.503  10.699  13.345
54081W        W19308   3.465   1.498  11.147
54082W        W19309   6.214  20.221   0.100
54083W        W19310   1.953  36.582  12.432
54084W        W19311  19.025  22.508  10.841
54085W        W19312  35.891   4.624  11.175
54086W        W19313  34.824  33.270   1.138
54087W        W19314  41.148  34.520   2.792
54088W        W19315  21.724  14.304   0.237
54089W        W19316  19.944   9.966  14.255
54090W        W19317   2.714  11.413   0.506
54091W        W19318  37.874  20.574   2.912
54092W        W19319  38.593   6.261   1.593
54093W        W19320  33.991  18.020  11.752
54094W        W19321  10.615  40.504   1.702
54095W        W19322   6.871   3.593  14.268
54096W        W19323   4.426  36.313   1.358
54097W        W19324  30.258  33.933   3.209
54098W        W19325  30.081  30.212   3.863
54099W        W19326  12.991   5.897  13.825
54100W        W19327   6.897  21.454  13.359
54101W        W19328   2.735  42.063   5.308
54102W        W19329  43.472   3.391   2.895
54103W        W19330   3.803  30.489   1.241
54104W        W19331  16.090  42.536   2.782
54105W        W19332  14.578  40.602  13.842
54106W        W19333  36.869  31.226   1.393
54107W        W19334  20.624  13.630  13.935
54108W        W19335   5.982   6.415   0.457
54109W        W19336   0.387  28.612  14.867
54110W        W19337  17.606   5.348  11.472
54111W        W19338   5.669  43.954   2.465
54112W        W19339  13.467   7.836   1.265
54113W        W19340  26.111   2.755  10.663
54114W        W19341  22.807  16.338   2.825
54115W        W19342  15.068  23.442   1.960
54116W        W19343  31.375  32.974  10.900
54117W        W19344  12.787  24.925   0.949
54118W        W19345  38.747  26.514  13.664
54119W        W19346  37.788  18.010   2.693
54120W        W19347  17.362  33.707   2.339
54121W        W19348  43.443  38.709  12.491
54122W        W19349  42.397  18.281   0.000
54123W        W19350  22.008   4.436  10.602
54124W        W19351  39.934  28.592   4.715
54125W        W19352  42.038  14.305   4.590
54126W        W19353  22.626  23.698   3.249
54127W        W19354  43.229  30.533   3.985
54128W        W19355  33.750  22.040  14.104
54129W        W19356  37.660  32.857  14.969
54130W        W19357  31.907  31.512  13.826
54131W        W19358   1.997  43.929   0.384
54132W        W19359  17.814  32.998   3.622
54133W        W19360  44.226  18.639   9.896
54134W        W19361  21.794  29.447   2.399
54135W        W19362  38.947  36.987   1.002
54136W        W19363   3.761  36.365  10.896
54137W        W19364  12.281  34.099  12.974
54138W        W19365   7.705  36.604   4.327
54139W        W19366  32.511  20.269  14.241
54140W        W19367  28.569  36.149  11.284
54141W        W19368  17.536  39.880   0.774
54142W        W19369  36.446  40.829   3.038
54143W        W19370   9.777  30.357   1.249
54144W        W19371   0.929  27.883   0.518
54145W        W19372  38.170  33.106   2.634
54146W        W19373  39.200   9.924   0.848
54147W        W19374  14.540  44.762  11.319
54148W        W19375  19.636   0.023   1.786
54149W        W19376  18.580  15.593   3.767
54150W        W19377  23.635  25.439   0.391
54151W        W19378  37.688  12.534   0.086
54152W        W19379  25.681  11.411  13.357
54153W        W19380  43.112  24.211   3.591
54154W        W19381  41.258  18.324  12.008
54155W        W19382  36.934  44.056   2.645
54156W        W19383   5.020   1.831   3.635
54157W        W19384  21.599  30.030  11.236
54158W        W19385  32.862   9.448   2.482
54159W        W19386  20.077  38.072  12.472
54160W        W19387  28.157  32.006  13.256
54161W        W19388   4.972  21.866  14.831
54162W        W19389  26.095  36.040   2.108
54163W        W19390  44.202  20.431  11.969
54164W        W19391  10.714  21.516   1.530
54165W        W19392  20.474   0.891  10.234
54166W        W19393  41.317  39.968   3.662
54167W        W19394  27.823  23.045  14.490
54168W        W19395  25.907  28.196   3.610
54169W        W19396  10.438  31.458  12.098
54170W        W19397  18.725  23.281   0.905
54171W        W19398  24.922  44.805   0.326
54172W        W19399   5.362  20.060  12.109
54173W        W19400  27.272  39.422   2.749
54174W        W19401  39.202  11.509   3.155
54175W        W19402  41.561  42.236  11.147
54176W        W19403  20.606  33.825  10.541
54177W        W19404   2.873   1.453  14.829
54178W        W19405   1.243  11.330  13.514
54179W        W19406  26.396  38.482  14.750
54180W        W19407  31.633  34.403   4.255
54181W        W19408  23.677  10.744  12.014
54182W        W19409  36.911  23.046  10.601
54183W        W19410  21.554   1.352  10.362
54184W        W19411  17.564   0.830  12.873
54185W        W19412  11.288  38.365  11.234
54186W        W19413  10.467  25.912   2.900
54187W        W19414   1.801  40.694   4.587
54188W        W19415  13.847  26.095  12.109
54189W        W19416  25.477  18.345   0.745
54190W        W19417  43.591  30.271  11.264
54191W        W19418  19.121  18.284  11.385
54192W        W19419  10.925  28.733  14.860
54193W        W19420  41.335  12.565   4.503
54194W        W19421  29.410  27.723   3.018
54195W        W19422  41.419  40.995   3.597
54196W        W19423  20.650  11.258   3.376
54197W        W19424  23.206  20.304  13.458
54198W        W19425  20.082  33.107  10.654
54199W        W19426   7.595  14.447   1.217
54200W        W19427  41.850   5.589   3.227
54201W        W19428  27.509  33.964   3.749
54202W        W19429  25.835  27.121  14.999
54203W        W19430   7.327  18.666   2.878
54204W        W19431  22.417  13.812   2.660
54205W        W19432  44.347  32.748  12.067
54206W        W19433  41.015  13.382  12.793
54207W        W19434  43.890  44.448  13.057
54208W        W19435   9.608  34.929   1.766
54209W        W19436  36.902  29.356  13.443
54210W        W19437   3.428   9.111  12.750
54211W        W19438  41.621  37.769  14.152
54212W        W19439   8.709  42.867   1.174
54213W        W19440   8.219  10.412  11.923
54214W        W19441  28.394  23.202   0.846
54215W        W19442  15.346   9.625   3.987
54216W        W19443  44.288   6.220  12.977
54217W        W19444   1.239  10.920  12.238
54218W        W19445   1.215  21.339   4.507
54219W        W19446  30.932   6.270   3.043
54220W        W19447   6.153  38.261   4.504
54221W        W19448   3.761  33.899   3.643
54222W        W19449  37.765   3.425   2.105
54223W        W19450  20.259  14.414  12.654
54224W        W19451  24.418  26.640   1.489
54225W        W19452  42.949  13.824  14.540
54226W        W19453  11.521  41.937   2.214
54227W        W19454  28.531   4.475  13.035
54228W        W19455  26.273  18.069   0.292
54229W        W19456   9.123   8.916  14.310
54230W        W19457  44.463  16.402  13.966
54231W        W19458  29.641   6.331  12.954
54232W        W19459  27.169   6.716  11.659
54233W        W19460  43.880  16.290   1.147
54234W        W19461   6.932  27.147  13.546
54235W        W19462  18.389  39.538   2.328
54236W        W19463   6.210  14.624   1.765
54237W        W19464  34.376  23.141   3.593
54238W        W19465  30.353  15.146   2.281
54239W        W19466  35.800  28.055   4.759
54240W        W19467  41.887  39.134   3.965
54241W        W19468  15.625  34.551   5.073
54242W        W19469  33.203  23.625   3.496
54243W        W19470   8.779  16.926  11.349
54244W        W19471  31.128   0.973   0.837
54245W        W19472  25.998  22.281  12.378
54246W        W19473  23.750  10.486  12.456
54247W        W19474  32.221  34.083  14.428
54248W        W19475   6.621   7.722  12.868
54249W        W19476   3.258  23.689  13.751
54250W        W19477   8.086   7.085   4.149
54251W        W19478  20.947   5.457   1.778
54252W        W19479  15.607  33.038   2.253
54253W        W19480  18.041  19.809  11.557
54254W        W19481  35.915  18.395  12.608
54255W        W19482  18.606   6.793   3.620
54256W        W19483  28.247   8.896   1.412
54257W        W19484   5.353  41.310  12.575
54258W        W19485   5.341  44.913  10.811
54259W        W19486   2.318  39.055   2.845
54260W        W19487  32.875  38.132  13.318
54261W        W19488  29.880  27.938   1.274
54262W        W19489   0.160  21.720   2.362
54263W        W19490  36.620  16.108   1.973
54264W        W19491  17.720  29.642   0.756
54265W        W19492  13.313  42.510  12.909
54266W        W19493   6.719   8.512  11.682
54267W        W19494  14.789   3.710   1.748
54268W        W19495  33.888  44.296  14.464
54269W        W19496  20.907  13.682   3.692
54270W        W19497  10.697   3.029   0.483
54271W        W19498  41.901  26.227   0.033
54272W        W19499   8.467  11.366   3.340
54273W        W19500  18.656  35.828   4.755
54274W        W19501  40.539  14.269   2.766
54275W        W19502  44.167  11.399   4.099
54276W        W19503  22.533  23.185  14.762
54277W        W19504  33.410  39.131   4.047
54278W        W19505  23.331  34.727  12.507
54279W        W19506  43.209  20.741  12.599
54280W        W19507  30.470  34.241   4.683
54281W        W19508  33.444  36.780  12.102
54282W        W19509  13.355  28.266  14.359
54283W        W19510  11.283  16.934   0.437
54284W        W19511   1.017   8.650   0.169
54285W        W19512  11.389  24.721   1.286
54286W        W19513  30.264  22.695  11.568
54287W        W19514   3.746  42.132  10.443
54288W        W19515  41.764  38.227  10.976
54289W        W19516   9.336  23.175  14.954
54290W        W19517  30.028  16.274   0.468
54291W        W19518  18.887  23.057   2.745
54292W        W19519  20.407  22.008  11.694
54293W        W19520   7.289   3.738   3.881
54294W        W19521   5.046  28.466   0.433
54295W        W19522  13.971  18.224  14.292
54296W        W19523  22.286  21.860  13.387
54297W        W19524  25.425  31.747  12.951
54298W        W19525  17.059  22.548   3.224
54299W        W19526  38.323  44.311  10.726
54300W        W19527  36.842  33.862  11.202
54301W        W19528  20.668   0.634   0.260
54302W        W19529  32.621  27.263   2.321
54303W        W19530  35.545   7.727   4.686
54304W        W19531  25.147  34.046   3.333
54305W        W19532  21.274  25.163  10.693
54306W        W19533  26.215  42.227   1.252
54307W        W19534  34.306  31.487  14.884
54308W        W19535  41.007  40.557   2.690
54309W        W19536  17.212  24.657   2.708
54310W        W19537   6.320  42.225   1.824
54311W        W19538  35.491  28.627   3.158
54312W        W19539  13.096  15.712  11.526
54313W        W19540  31.017   8.917   4.195
54314W        W19541  43.462  35.566   3.314
54315W        W19542  13.018  26.481  11.207
54316W        W19543  35.397   4.695   0.829
54317W        W19544  20.790  20.273   2.674
54318W        W19545   6.274  33.199   2.921
54319W        W19546  25.026  15.268   1.007
54320W        W19547  23.336   3.716   2.202
54321W        W19548   3.820  32.937  14.641
54322W        W19549  36.682  40.388   3.415
54323W        W19550   5.284  10.899  13.995
54324W        W19551  16.753  35.604  10.992
54325W        W19552   6.527  31.543   0.486
54326W        W19553   5.508  31.454  13.177
54327W        W19554  41.371  17.647   0.261
54328W        W19555  27.657  23.891   3.432
54329W        W19556  21.615  38.156   4.242
54330W        W19557  34.346  27.946  12.751
54331W        W19558  23.963  11.463  13.844
54332W        W19559  41.744  41.540   1.844
54333W        W19560  11.014  40.319  11.613
54334W        W19561  41.355   3.437  12.908
54335W        W19562  18.567  34.942   3.163
54336W        W19563  38.454  11.846   0.756
54337W        W19564   2.169  33.301  10.039
54338W        W19565  13.126  13.345  11.550
54339W        W19566  11.172  22.032  12.611
54340W        W19567  27.277  15.284   2.770
54341W        W19568  17.056  23.218   1.430
54342W        W19569  16.174   5.521   2.767
54343W        W19570  29.796   5.142  11.081
54344W        W19571   4.479  16.324   2.821
54345W        W19572  43.928  27.400   0.006
54346W        W19573  15.198  18.273   1.728
54347W        W19574   7.921  29.432   0.189
54348W        W19575  37.440  34.674  12.017
54349W        W19576  29.639  20.231   4.086
54350W        W19577  10.422  21.142  10.213
54351W        W19578   0.722  42.329   1.278
54352W        W19579  24.465  25.454  14.332
54353W        W19580  27.445   8.646   3.590
54354W        W19581  24.145  17.964  12.557
54355W        W19582  27.019  33.432  13.984
54356W        W19583   9.391  27.404   1.877
54357W        W19584  43.191   1.420  14.777
54358W        W19585  34.352  44.712   3.447
54359W        W19586  35.994   7.312  10.320
54360W        W19587  36.527  20.029  10.902
54361W        W19588  21.057   6.709   1.727
54362W        W19589  39.866  31.770   0.286
54363W        W19590   2.962  23.845   1.231
54364W        W19591   6.556  43.693   4.275
54365W        W19592  24.667  32.624   0.810
54366W        W19593  35.399  43.819   1.835
54367W        W19594  24.709  34.111   1.488
54368W        W19595  42.587   8.830   4.650
54369W        W19596  18.835  41.454   4.571
54370W        W19597  37.517   0.571  14.879
54371W        W19598   4.889  25.228  12.986
54372W        W19599  14.810  40.790   4.505
54373W        W19600  38.570   4.316   1.921
54374W        W19601  32.000  11.749  13.754
54375W        W19602  11.525  10.066   2.889
54376W        W19603  39.888  30.939  12.074
54377W        W19604  35.280   5.828  12.668
54378W        W19605  37.872  29.476  13.853
54379W        W19606  21.308  37.498  13.868
54380W        W19607  11.480  39.669  14.753
54381W        W19608  26.201  15.239   4.603
54382W        W19609  23.114  24.962   4.289
54383W        W19610  25.246  25.035   1.280
54384W        W19611   5.152  42.286   2.830
54385W        W19612  32.670  28.972   0.495
54386W        W19613  29.823   6.653   2.673
54387W        W19614  29.086  18.971   1.260
54388W        W19615  17.842  24.556   1.159
54389W        W19616  22.038  35.729  14.882
54390W        W19617  44.310  42.780   1.689
54391W        W19618  12.103  37.666   0.366
54392W        W19619  18.092  39.168  11.360
54393W        W19620  40.840  41.933  14.703
54394W        W19621  17.679  17.773  14.860
54395W        W19622  36.086   6.124   3.238
54396W        W19623  40.578  41.310  12.456
54397W        W19624  35.393  38.963  11.388
54398W        W19625   2.704  43.728   1.291
54399W        W19626  24.014  40.232   3.876
54400W        W19627  13.560  14.359   1.839
54401W        W19628  12.829   7.409   0.443
54402W        W19629   7.675  21.484   2.284
54403W        W19630  30.641  20.912   4.693
54404W        W19631  22.940   2.828   3.823
54405W        W19632  39.406  28.410  12.077
54406W        W19633  28.915  35.276   2.778
54407W        W19634  34.849  23.271   3.809
54408W        W19635   1.323  24.125   4.687
54409W        W19636  20.590  12.437  12.000
54410W        W19637  18.477  38.817  11.471
54411W        W19638  34.379  31.630   2.955
54412W        W19639   2.947  29.015  12.883
54413W        W19640  38.619  11.838   4.566
54414W        W19641  13.273   8.916   2.158
54415W        W19642   8.362  40.120  14.427
54416W        W19643   0.167  41.598   2.077
54417W        W19644   3.181  36.408   0.689
54418W        W19645   8.834  33.088  11.995
54419W        W19646  16.672  28.064   1.798
54420W        W19647  37.353  39.359   4.426
54421W        W19648  35.367  39.520   1.362
54422W        W19649  16.615  41.991   3.305
54423W        W19650  28.440  23.465   4.453
54424W        W19651  42.783  17.399  14.863
54425W        W19652  31.373  21.574  12.094
54426W        W19653  29.495  32.074   2.660
54427W        W19654  21.113  37.498   0.824
54428W        W19655  13.195   9.888  11.116
54429W        W19656  28.953  40.464  12.359
54430W        W19657   2.623  20.599  11.626
54431W        W19658   5.008  36.678  11.010
54432W        W19659   2.806   1.539  13.868
54433W        W19660  38.646   4.531  14.392
54434W        W19661   0.017  33.990   1.920
54435W        W19662  23.006  37.371  12.962
54436W        W19663   0.130  16.671   4.678
54437W        W19664  43.779  35.444   3.697
54438W        W19665  36.376  25.875   1.856
54439W        W19666  16.116  31.958  11.934
54440W        W19667  43.558  13.681  14.717
54441W        W19668  32.781   4.198  14.132
54442W        W19669  31.811   5.377  14.483
54443W        W19670  33.664  15.025  12.479
54444W        W19671   5.888  35.807  12.906
54445W        W19672  31.895  11.867   1.428
54446W        W19673  33.557   7.789  14.424
54447W        W19674  20.462  32.665  11.183
54448W        W19675  12.398  15.558   3.250
54449W        W19676  42.520  44.924  10.697
54450W        W19677  44.914  31.126   1.717
54451W        W19678  24.778  20.210  13.992
54452W        W19679   4.502  35.955   5.123
54453W        W19680  28.711  11.256  10.777
54454W        W19681  19.647  31.799  11.200
54455W        W19682  27.514   5.167   4.752
54456W        W19683  41.719  43.531   0.398
54457W        W19684  29.471  33.891   0.629
54458W        W19685  30.459  19.219  13.633
54459W        W19686  41.337  31.461  12.130
54460W        W19687  15.023   7.772  13.424
54461W        W19688   4.516   3.471  10.744
54462W        W19689  40.408   6.978   2.679
54463W        W19690   2.727  31.604   2.732
54464W        W19691  25.637  31.566  13.415
54465W        W19692  33.556   3.021  13.380
54466W        W19693  26.014  33.383  10.604
54467W        W19694  32.946  41.371  14.882
54468W        W19695  31.921  21.033   4.930
54469W        W19696   4.695  34.722  14.980
54470W        W19697  31.610  29.350   0.478
54471W        W19698  28.736   6.361  12.708
54472W        W19699  39.165  36.423   5.038
54473W        W19700  30.223  18.193  11.578
54474W        W19701  42.973   1.908   1.897
54475W        W19702  17.156  33.431   1.510
54476W        W19703   5.150  22.954  13.468
54477W        W19704  31.703  33.385   4.147
54478W        W19705  42.789   2.283  12.589
54479W        W19706  29.512  24.695  12.002
54480W        W19707   0.967  31.176   3.147
54481W        W19708  41.263  27.171   4.509
54482W        W19709  22.307   2.125  10.393
54483W        W19710  21.282  17.287  14.316
54484W        W19711  22.838  39.242  13.966
54485W        W19712  17.346  22.219  13.968
54486W        W19713  28.538  28.237  10.541
54487W        W19714  10.889  21.155  14.416
54488W        W19715  23.090  18.796   3.125
54489W        W19716  26.319  26.620  11.222
54490W        W19717  23.422  22.131  12.254
54491W        W19718   5.073  11.777   4.299
54492W        W19719   7.919  12.209  10.784
54493W        W19720  44.732  16.303  13.529
54494W        W19721  34.606   4.566   4.831
54495W        W19722  44.188  19.904  11.865
54496W        W19723  25.521  25.803   1.408
54497W        W19724  10.171  12.738  10.785
54498W        W19725   7.730  42.330   1.161
54499W        W19726  29.516  37.023  14.295
54500W        W19727  22.285   7.400   0.775
54501W        W19728  18.813  18.592  11.114
54502W        W19729   4.999   4.743  14.551
54503W        W19730  40.017  25.135  11.139
54504W        W19731  11.617  31.995  12.697
54505W        W19732  24.397   1.465  14.776
54506W        W19733  25.166  25.210  10.784
54507W        W19734  13.245  37.107   3.310
54508W        W19735  10.070  21.805  13.029
54509W        W19736  22.470  25.446  12.600
54510W        W19737  11.359  26.438  11.180
54511W        W19738   3.317  24.587  12.666
54512W        W19739   1.266  15.728  12.043
54513W        W19740   9.450  28.017  10.523
54514W        W19741  18.194  18.648   0.110
54515W        W19742   5.403  19.561  12.287
54516W        W19743  31.715  10.247  13.951
54517W        W19744  28.189  42.932  13.243
54518W        W19745  40.552  30.656  12.850
54519W        W19746  25.761   2.370   1.231
54520W        W19747  44.260  32.252   5.041
54521W        W19748   6.105  26.730   4.491
54522W        W19749  31.316   6.210  11.649
54523W        W19750  44.739   6.138   4.924
54524W        W19751  25.193  34.018   4.798
54525W        W19752  16.628  44.969  13.024
54526W        W19753  29.000  28.579   0.710
54527W        W19754  40.065  17.149  13.447
54528W        W19755  37.982  20.822   1.354
54529W        W19756  44.819   7.192  12.554
54530W        W19757  32.773  19.844  12.980
54531W        W19758  29.687  21.057   0.845
54532W        W19759  11.389   5.715   2.889
54533W        W19760   1.344  40.280  12.234
54534W        W19761  36.836  40.325   4.387
54535W        W19762  12.776  44.209  14.779
54536W        W19763  20.625  14.046  14.918
54537W        W19764  20.738  19.051  11.189
54538W        W19765  36.383  40.077   0.169
54539W        W19766   7.639  21.502  12.362
54540W        W19767  12.295  38.822  11.693
54541W        W19768  17.654  14.682   0.409
54542W        W19769   7.260  38.356   1.154
54543W        W19770   4.015  19.244  12.087
54544W        W19771  43.471  19.700  13.795
54545W        W19772  39.775  31.641   4.189
54546W        W19773   1.394  29.885  11.392
54547W        W19774  20.367  24.618  14.343
54548W        W19775  37.521  20.789   0.310
54549W        W19776  33.950   2.701   2.652
54550W        W19777  36.454  35.895   0.485
54551W        W19778   9.989   9.839  12.328
54552W        W19779  10.742   8.679  11.317
54553W        W19780  14.849   1.934   1.210
54554W        W19781  37.030  22.186   1.908
54555W        W19782  15.101  11.822   2.661
54556W        W19783  19.108  38.298   1.408
54557W        W19784  37.962  14.960  12.363
54558W        W19785   4.228  35.939  14.851
54559W        W19786  41.877  11.755   1.229
54560W        W19787  21.291  33.956   4.659
54561W        W19788  22.493  19.229  14.981
54562W        W19789  44.067  21.725  14.806
54563W        W19790  27.432  40.949  13.960
54564W        W19791  36.783  23.000   3.828
54565W        W19792  22.206  23.415   2.339
54566W        W19793  15.882  18.333  10.605
54567W        W19794  12.288   0.752  13.345
54568W        W19795  37.656  28.475  14.122
54569W        W19796  27.403  12.787  14.300
54570W        W19797  38.574  37.409  12.453
54571W        W19798  40.787   4.137  12.418
54572W        W19799   4.704  17.603   1.388
54573W        W19800  22.113  30.648   1.259
54574W        W19801  13.586  18.623   3.366
54575W        W19802   3.504  23.895   4.931
54576W        W19803  27.669  11.817  11.049
54577W        W19804  21.678  14.780   0.946
54578W        W19805  33.607  35.538   0.937
54579W        W19806  12.727  17.075   3.765
54580W        W19807  15.889   9.033  14.760
54581W        W19808  13.623  31.230  11.538
54582W        W19809   2.030  25.436  14.382
54583W        W19810  39.577  32.688   1.179
54584W        W19811  39.628  38.032   3.188
54585W        W19812  13.615  21.222   4.786
54586W        W19813  15.437  11.869   4.460
54587W        W19814   6.873  23.125  12.126
54588W        W19815  22.062  39.415  14.818
54589W        W19816  42.124   9.908   2.104
54590W        W19817  14.370   2.307  12.517
54591W        W19818  41.396  28.389  14.342
54592W        W19819   5.172  29.067  14.764
54593W        W19820   1.378  14.079   0.165
54594W        W19821  37.497  42.992   4.473
54595W        W19822  31.494  28.903   0.204
54596W        W19823  34.848  22.739  12.976
54597W        W19824  28.207  36.590  11.962
54598W        W19825  25.193  13.706   3.883
54599W        W19826  42.765  22.667   3.197
54600W        W19827   0.531  10.296  14.747
54601W        W19828  29.019  20.798  14.562
54602W        W19829  18.585  19.337   1.246
54603W        W19830  23.108   0.010  13.557
54604W        W19831  29.188  18.794   1.726
54605W        W19832  44.921  18.009  11.519
54606W        W19833  13.445  28.362  13.840
54607W        W19834  20.031  19.256   1.399
54608W        W19835   5.896  41.416   3.634
54609W        W19836  24.308  25.838  10.527
54610W        W19837  10.806  40.498  11.178
54611W        W19838  32.953  42.777   1.772
54612W        W19839  41.048  41.076  12.926
54613W        W19840  22.651   8.400  13.477
54614W        W19841  16.657  12.134  12.205
54615W        W19842  26.507  12.365   3.165
54616W        W19843  37.406  21.906   3.156
54617W        W19844  18.075  16.924   1.531
54618W        W19845  26.655  15.539  11.448
54619W        W19846  41.087  24.291  13.741
54620W        W19847  27.332  23.662  11.659
54621W        W19848  11.659  32.166   0.847
54622W        W19849  31.904  35.849  13.164
54623W        W19850  27.813  16.977  14.425
54624W        W19851  39.750  30.617  13.046
54625W        W19852  36.013  31.129  11.052
54626W        W19853  21.752  22.797   2.910
54627W        W19854   8.445  19.010  13.563
54628W        W19855   5.146  21.245  11.485
54629W        W19856   8.315  29.347  14.843
54630W        W19857  36.589  12.776  10.819
54631W        W19858  13.534  38.359   4.112
54632W        W19859  18.690  26.234   1.797
54633W        W19860  10.638  28.962   4.681
54634W        W19861  18.761   6.934   4.094
54635W        W19862  15.135  19.484  14.249
54636W        W19863   3.238  35.123   0.496
54637W        W19864  28.920   9.733   1.181
54638W        W19865  29.553   6.924   2.293
54639W        W19866  25.721  21.244   0.799
54640W        W19867  32.906  36.635  12.114
54641W        W19868  13.293  12.350   4.189
54642W        W19869   5.255  28.892   4.159
54643W        W19870  13.415  18.790   0.948
54644W        W19871   2.797   3.709  10.725
54645W        W19872   9.536  19.386  14.012
54646W        W19873  15.617  25.556  12.177
54647W        W19874  18.892   9.539  13.412
54648W        W19875  17.212  25.115   0.351
54649W        W19876  42.706   5.844   1.295
54650W        W19877  24.388   4.384  12.943
54651W        W19878  14.261   5.523   1.882
54652W        W19879  20.516  25.026  13.150
54653W        W19880   2.414   6.922  14.408
54654W        W19881  22.225  10.575   0.214
54655W        W19882  16.230  37.549  11.187
54656W        W19883   8.816  17.002   0.800
54657W        W19884  23.744  22.690   4.844
54658W        W19885   7.391  35.082   2.514
54659W        W19886   1.427  30.206   4.337
54660W        W19887  26.078  15.215  13.484
54661W        W19888  18.772  33.390  14.797
54662W        W19889  30.539  43.257   1.435
54663W        W19890  15.822   4.183   2.913
54664W        W19891  24.268   0.191  14.587
54665W        W19892  16.681  38.934  10.682
54666W        W19893  38.947  42.895   4.837
54667W        W19894  21.504  22.885   0.906
54668W        W19895  27.645  24.726  14.123
54669W        W19896  33.530  37.646  13.068
54670W        W19897  38.502  13.515   3.096
54671W        W19898  44.690  26.197  14.030
54672W        W19899  31.524   7.436  12.553
54673W        W19900  24.879  36.938   2.498
54674W        W19901  23.091  35.966  14.465
54675W        W19902  19.563  41.977  14.437
54676W        W19903  12.544  12.584  14.421
54677W        W19904   5.639  35.565  14.822
54678W        W19905  11.059  39.532   1.778
54679W        W19906  35.864  12.865   2.436
54680W        W19907  17.757   5.426  14.224
54681W        W19908  25.957  23.184  14.436
54682W        W19909   3.164  32.034  13.768
54683W        W19910  34.395  31.536   1.116
54684W        W19911  22.189   8.904  14.061
54685W        W19912  23.420  26.826   0.732
54686W        W19913  32.425  20.786  12.923
54687W        W19914   1.683  22.073   2.819
54688W        W19915   4.147  21.589  11.124
54689W        W19916   1.911  42.826  14.896
54690W        W19917  30.659  40.303  10.853
54691W        W19918   9.716  25.407  13.389
54692W        W19919  37.570  10.460   1.335
54693W        W19920  18.020  37.080   1.330
54694W        W19921   6.396  33.181   9.979
54695W        W19922  35.481   5.426  14.360
54696W        W19923   5.775   4.845   4.234
54697W        W19924   9.556  32.728  10.459
54698W        W19925   0.520  11.832   5.066
54699W        W19926  16.527   3.389   1.843
54700W        W19927  11.027   5.678  11.295
54701W        W19928   9.302   5.741   4.079
54702W        W19929  16.015  44.757  11.031
54703W        W19930  24.982  11.395   4.547
54704W        W19931  12.592  29.524   2.799
54705W        W19932  35.118  13.334  14.273
54706W        W19933  32.085  14.689   1.196
54707W        W19934  33.257  12.717  13.511
54708W        W19935  40.722  23.899   1.772
54709W        W19936  43.251  17.312   0.671
54710W        W19937  12.378   5.185  13.037
54711W        W19938  34.725  11.023  11.906
54712W        W19939   2.705  17.044  11.848
54713W        W19940  18.209  20.537  11.049
54714W        W19941  25.079  43.629  10.684
54715W        W19942  23.689  32.871   4.760
54716W        W19943  40.510  31.553  12.612
54717W        W19944   2.822  41.534   5.356
54718W        W19945   7.698  17.205  11.570
54719W        W19946  32.742   8.741  11.771
54720W        W19947  33.166   4.695   0.839
54721W        W19948   9.293   9.133  11.399
54722W        W19949   8.203   1.969  14.662
54723W        W19950  29.512  30.795   0.816
54724W        W19951  27.762  29.188   0.904
54725W        W19952   0.941  26.128   1.822
54726W        W19953  35.973  27.857  11.471
54727W        W19954  14.828   5.679  12.039
54728W        W19955  10.506  26.329  10.447
54729W        W19956  14.548  30.060   4.741
54730W        W19957  23.900  14.249  14.581
54731W        W19958  29.869  36.893  12.887
54732W        W19959  22.170  12.572  10.591
54733W        W19960  25.003  30.265  11.726
54734W        W19961  29.430   2.344  11.490
54735W        W19962  11.088  44.853   0.372
54736W        W19963  14.764  36.655  13.274
54737W        W19964  32.051  25.982  14.948
54738W        W19965  20.632  29.447  13.775
54739W        W19966   7.018  31.628   0.377
54740W        W19967  23.056  15.067   3.736
54741W        W19968  11.735   2.548  11.628
54742W        W19969  22.521  14.260   0.877
54743W        W19970  35.053  37.595  12.464
54744W        W19971  44.983  39.477   0.883
54745W        W19972  31.849  32.153   1.845
54746W        W19973  14.227  17.136  12.137
54747W        W19974   0.857  12.723   1.451
54748W        W19975  15.063  35.594  10.653
54749W        W19976  25.656  26.144   3.460
54750W        W19977  38.116  36.095  11.370
54751W        W19978  11.199  20.450  10.783
54752W        W19979  20.771  21.692   0.007
54753W        W19980   5.211  40.814  13.366
54754W        W19981  41.306  22.974   0.783
54755W        W19982  35.551  24.948  11.489
54756W        W19983  11.313   6.306  13.837
54757W        W19984   6.677  41.364   1.404
54758W        W19985   5.742  40.359   0.817
54759W        W19986   1.026  41.522  13.447
54760W        W19987  20.761   5.286  13.892
54761W        W19988  34.591  15.172   1.154
54762W        W19989  36.813   1.430   0.659
54763W        W19990   7.923  28.740   3.255
54764W        W19991  17.298  17.899   0.965
54765W        W19992  23.154  39.227   2.239
54766W        W19993  25.596   9.631  14.971
54767W        W19994  18.346  15.780   4.175
54768W        W19995  30.896  11.753  11.041
54769W        W19996   9.458  37.339   3.295
54770W        W19997  42.193   5.269  11.587
54771W        W19998  17.252   9.884   4.405
54772W        W19999  20.126  17.050   0.286
54773W        W20000  11.037  13.087   4.978
54774W        W20001  30.562  33.867  13.327
54775W        W20002  11.207  19.545  14.474
54776W        W20003  38.471  24.435  13.021
54777W        W20004  16.625  18.341   3.676
54778W        W20005  40.450   9.238  11.347
54779W        W20006  17.188  14.304   2.869
54780W        W20007  24.430  34.341   0.275
54781W        W20008  30.973  26.286   4.589
54782W        W20009   7.592  42.854  11.503
54783W        W20010   4.999  39.332  11.532
54784W        W20011  43.849  11.670  13.307
54785W        W20012   6.247  17.797   2.606
54786W        W20013  22.262  29.977  12.402
54787W        W20014  29.113  35.082  14.871
54788W        W20015   0.913  27.744   1.436
54789W        W20016  20.239  30.924  14.237
54790W        W20017  23.992   4.060   4.399
54791W        W20018  10.733  42.620   0.301
54792W        W20019   8.360   6.929  12.513
54793W        W20020  15.254  15.181  12.974
54794W        W20021  25.642  14.191  13.979
54795W        W20022  15.228  26.523   1.896
54796W        W20023  38.422  15.377   3.255
54797W        W20024  41.844  38.428   0.469
54798W        W20025  43.328  20.213  12.615
54799W        W20026   1.112  14.349  12.093
54800W        W20027   4.351  11.662   3.706
54801W        W20028  33.431  32.071   4.391
54802W        W20029  20.700  38.368   2.140
54803W        W20030  14.851   6.404  13.609
54804W        W20031  32.948  27.197   1.268
54805W        W20032  30.101  40.353   1.740
54806W        W20033  11.220  25.322  13.035
54807W        W20034  18.294  42.365  12.402
54808W        W20035  23.523  24.753   0.975
54809W        W20036  23.963  36.427  10.423
54810W        W20037  21.639  27.041   1.725
54811W        W20038  28.447  37.823  13.442
54812W        W20039  25.535  27.130   1.876
54813W        W20040  33.020  18.064  10.745
54814W        W20041  31.651  36.423  12.510
54815W        W20042   0.371  42.056   0.387
54816W        W20043   8.582  26.566   2.830
54817W        W20044   5.903   4.645  11.369
54818W        W20045   8.307   3.004  13.863
54819W        W20046  24.711  10.389  11.226
54820W        W20047  28.521  44.816   4.993
54821W        W20048  42.143   3.778  10.319
54822W        W20049  42.520  10.214   1.960
54823W        W20050  21.201  20.753  13.929
54824W        W20051  26.161   6.961   3.245
54825W        W20052  17.043  25.747  14.668
54826W        W20053  26.990  30.439  14.033
54827W        W20054   8.541  27.981  14.878
54828W        W20055  30.211  15.626   3.361
54829W        W20056   3.687  21.269   2.836
54830W        W20057  37.900  31.593  14.323
54831W        W20058  11.159  34.367  12.882
54832W        W20059  12.867  14.752  13.405
54833W        W20060  20.839  44.706   1.435
54834W        W20061  12.096   9.167   4.728
54835W        W20062  44.722  18.013  12.802
54836W        W20063   5.664  23.518  12.479
54837W        W20064  32.480  40.870   2.752
54838W        W20065  11.293   3.007  10.605
54839W        W20066  35.116  39.377  14.373
54840W        W20067   7.815  37.850  12.602
54841W        W20068  29.317  24.572  13.505
54842W        W20069  10.627   5.748   4.562
54843W        W20070  13.700  33.343   0.512
54844W        W20071  37.816   2.850  13.438
54845W        W20072  42.077  41.376  14.489
54846W        W20073  38.611  11.086   0.550
54847W        W20074  36.693   6.560   4.876
54848W        W20075  35.567  32.257   4.175
54849W        W20076  15.368  19.042   2.650
54850W        W20077  17.611  37.473   0.973
54851W        W20078   3.011  12.096   1.172
54852W        W20079  30.174  13.244  14.839
54853W        W20080   4.179  17.950  12.066
54854W        W20081   6.366  39.059  14.992
54855W        W20082  15.127  25.380   2.174
54856W        W20083   4.823  41.156  13.433
54857W        W20084  12.395  19.809  13.946
54858W        W20085   3.589  26.040  11.490
54859W        W20086   9.645  30.488   2.636
54860W        W20087  17.244  39.446   9.960
54861W        W20088  40.775  24.555  10.905
54862W        W20089   6.192  41.506   1.276
54863W        W20090  30.499   1.355   0.275
54864W        W20091  33.979   1.666   1.070
54865W        W20092  27.338  34.323   4.543
54866W        W20093  36.276  25.657  11.624
54867W        W20094  38.934   7.210  11.046
54868W        W20095  35.617  42.288  11.919
54869W        W20096   2.175   4.783   2.865
54870W        W20097  30.132   5.353  10.772
54871W        W20098  22.548  17.581   1.308
54872W        W20099  21.208  22.465  13.376
54873W        W20100   0.142  38.420  10.880
54874W        W20101  24.642  10.406  12.543
54875W        W20102  15.320   8.880  11.496
54876W        W20103  28.125  40.202  11.529
54877W        W20104   2.676  20.141   5.068
54878W        W20105  11.224  34.459  14.099
54879W        W20106   7.328   4.698  12.910
54880W        W20107   0.034  25.094  14.729
54881W        W20108   8.297  37.098  11.540
54882W        W20109  31.586  30.022   5.128
54883W        W20110  12.266  24.740  12.248
54884W        W20111  30.368  39.563   3.477
54885W        W20112  36.267   5.415  11.179
54886W        W20113   7.757  39.750  14.969
54887W        W20114  12.759  33.919  12.973
54888W        W20115  35.470  35.934   4.962
54889W        W20116   0.717   8.794   2.711
54890W        W20117  22.873  23.004  11.568
54891W        W20118  27.983  13.319  11.481
54892W        W20119  43.948  25.207   3.841
54893W        W20120  43.017  31.405  12.281
54894W        W20121  37.079  33.503   0.234
54895W        W20122   2.869  33.258  11.065
54896W        W20123  36.438  34.619  14.658
54897W        W20124  24.196   3.405   3.801
54898W        W20125  31.933  42.982   3.229
54899W        W20126   9.399  10.131  10.464
54900W        W20127  19.997  31.754   4.175
54901W        W20128  16.011  35.425   0.257
54902W        W20129  43.066  13.823   2.249
54903W        W20130  25.251  44.525   3.786
54904W        W20131  11.279  21.543  10.728
54905W        W20132  23.355  10.316  11.174
54906W        W20133   9.823   1.293   4.628
54907W        W20134  20.297  37.950  13.375
54908W        W20135  44.455  18.968  10.881
54909W        W20136  32.558   1.137  11.622
54910W        W20137  13.243  27.010   0.584
54911W        W20138  42.280  10.071   3.286
54912W        W20139  11.266  19.668   0.835
54913W        W20140  16.247  38.810   3.399
54914W        W20141  16.658  41.789   0.375
54915W        W20142  15.697  26.968  12.274
54916W        W20143  44.468  12.024   3.142
54917W        W20144  10.274  33.373  11.653
54918W        W20145  39.682  26.916  10.918
54919W        W20146  18.177   5.222  12.927
54920W        W20147  23.673  11.669  11.546
54921W        W20148   9.075  36.585   1.403
54922W        W20149   9.107  34.774  11.486
54923W        W20150  23.650  11.873   3.721
54924W        W20151   7.168  23.224  13.139
54925W        W20152   4.192  20.576   1.633
54926W        W20153  15.757  36.138  14.757
54927W        W20154   7.393   6.623   2.907
54928W        W20155  21.206  10.413   2.237
54929W        W20156  40.540  11.115   0.814
54930W        W20157  29.072  35.806   0.381
54931W        W20158  22.152  15.104   1.904
54932W        W20159  27.739   4.593   0.144
54933W        W20160  42.896   5.478  14.901
54934W        W20161  18.157  13.824  13.376
54935W        W20162  16.096  30.458   5.055
54936W        W20163  11.081  17.959   3.726
54937W        W20164  33.177   6.639  12.119
54938W        W20165  43.409  21.935   0.584
54939W        W20166  34.727  33.499   5.107
54940W        W20167   7.141  11.861   3.543
54941W        W20168  37.527  25.111   4.304
54942W        W20169  21.074  39.613   1.804
54943W        W20170  24.049  12.774   2.878
54944W        W20171   6.846   9.683  13.975
54945W        W20172  17.993  40.398  14.291
54946W        W20173  10.941  26.548   1.931
54947W        W20174   0.174  21.092  12.282
54948W        W20175  42.384  22.252   1.766
54949W        W20176  17.768  37.520   1.463
54950W        W20177  43.982  42.151   4.589
54951W        W20178   9.336  12.244   5.457
54952W        W20179  40.086  38.851   4.646
54953W        W20180  33.524   1.240   4.802
54954W        W20181  30.285  36.858  13.674
54955W        W20182  16.552  37.915   1.487
54956W        W20183  16.563  38.398   1.255
54957W        W20184   4.464  42.749   4.253
54958W        W20185   5.298   3.381  10.741
54959W        W20186  22.947  36.138  13.593
54960W        W20187  40.737  42.692  12.548
54961W        W20188   7.406  12.989  12.563
54962W        W20189  39.507  40.030   2.743
54963W        W20190  11.745  26.327  14.840
54964W        W20191  27.471   2.261   0.364
54965W        W20192  36.825   8.887  13.722
54966W        W20193  26.491   9.554   2.700
54967W        W20194  37.113  15.527  12.506
54968W        W20195  38.802  13.633  14.504
54969W        W20196  42.798  27.450   2.827
54970W        W20197  33.463  15.061   3.151
54971W        W20198  34.312  28.561   0.110
54972W        W20199  29.499  35.863   2.225
54973W        W20200  22.457   8.341   0.781
54974W        W20201  14.489  21.434   3.598
54975W        W20202  14.024  36.072   2.536
54976W        W20203  28.767  26.157   9.738
54977W        W20204  31.447  30.208  11.264
54978W        W20205  10.328  10.415   4.660
54979W        W20206   7.396  11.596   1.757
54980W        W20207  22.784  25.318   2.293
54981W        W20208  35.374  20.995   2.715
54982W        W20209  23.979   1.136   2.330
54983W        W20210  11.337  15.648   1.945
54984W        W20211  44.377  23.788  13.793
54985W        W20212  37.640   3.702  14.428
54986W        W20213  29.509  36.366   2.049
54987W        W20214  35.027  43.581   2.699
54988W        W20215  16.192  16.714  11.796
54989W        W20216  13.647  27.640  11.778
54990W        W20217   5.757  40.885  11.143
54991W        W20218  28.409   1.355   2.705
54992W        W20219  22.217   4.288   3.263
54993W        W20220  31.719  12.366  12.434
54994W        W20221  38.498  20.839   0.895
54995W        W20222  42.074  17.152  12.166
54996W        W20223   3.004  28.753   1.716
54997W        W20224  23.157  29.635   2.778
54998W        W20225  43.031  23.617   0.315
54999W        W20226  42.203  25.448   1.006
55000W        W20227   0.812   4.767   1.719
55001W        W20228  38.060   0.726  10.378
55002W        W20229  32.144  14.286  10.242
55003W        W20230   9.839  40.508  14.774
55004W        W20231  42.920  44.274  11.923
55005W        W20232  24.473  15.929  13.581
55006W        W20233  27.510  19.170   1.783
55007W        W20234  18.637  34.822   3.655
55008W        W20235  21.116  29.990   2.821
55009W        W20236   1.768  34.834   0.557
55010W        W20237  38.150  41.296  11.666
55011W        W20238  40.315  29.453  10.230
55012W        W20239  21.355  27.886  12.934
55013W        W20240  40.765  19.316   5.057
55014W        W20241   0.234  37.513   1.327
55015W        W20242  27.553   9.896   0.851
55016W        W20243  36.744  21.260   2.744
55017W        W20244  35.098   9.407  14.280
55018W        W20245  37.602   5.486   1.856
55019W        W20246  10.310  19.131   1.911
55020W        W20247  44.785  34.813  12.956
55021W        W20248  21.121  38.344  10.875
55022W        W20249  40.080  15.385   3.204
55023W        W20250  43.054  41.532   1.891
55024W        W20251  18.348  24.266   4.113
55025W        W20252  30.567  44.345   2.658
55026W        W20253  37.932   3.987  13.586
55027W        W20254  12.691  22.829  11.083
55028W        W20255  40.785  32.003  12.818
55029W        W20256  20.805   8.658   0.469
55030W        W20257  40.894   9.386   0.412
55031W        W20258  26.599  25.949  12.284
55032W        W20259  27.625  21.036   0.856
55033W        W20260  10.038  44.499  12.975
55034W        W20261   6.240  30.752   3.377
55035W        W20262  37.459  19.228  12.159
55036W        W20263  26.168  42.717   1.423
55037W        W20264  30.421  10.270   4.973
55038W        W20265  11.134   7.148   0.686
55039W        W20266   8.896  34.545  14.175
55040W        W20267   0.756   5.803  14.255
55041W        W20268  12.211  39.666   4.424
55042W        W20269  11.176  27.730   4.507
55043W        W20270   5.160   0.918  14.122
55044W        W20271  38.077  43.913  11.498
55045W        W20272  35.931   8.144  14.748
55046W        W20273  38.334  14.617   2.690
55047W        W20274  12.601  22.920   2.846
55048W        W20275  29.401  27.212  12.050
55049W        W20276   0.494  44.234  10.672
55050W        W20277   9.916   6.315  13.579
55051W        W20278   1.475   0.547   3.735
55052W        W20279  19.244  32.248  11.623
55053W        W20280   2.462  18.913  11.253
55054W        W20281  43.022  30.291   3.548
55055W        W20282  43.861   9.087   4.829
55056W        W20283  16.228   0.783   1.542
55057W        W20284  31.987   6.170   0.507
55058W        W20285  25.552  13.387  14.488
55059W        W20286  23.061   6.267   2.235
55060W        W20287  41.600  29.497   1.829
55061W        W20288  12.252   6.184  13.874
55062W        W20289   2.805  23.475  11.168
55063W        W20290   9.291   9.145   4.256
55064W        W20291  40.541  21.248  12.592
55065W        W20292  15.551  41.808   3.589
55066W        W20293  20.442  27.086   3.978
55067W        W20294   4.488  31.168  13.044
55068W        W20295  24.452  16.619  11.653
55069W        W20296  17.197  11.934   1.192
55070W        W20297   3.459   3.256   3.883
55071W        W20298   4.339  25.489   4.220
55072W        W20299  28.976  17.020  14.964
55073W        W20300  18.371  21.894   4.653
55074W        W20301  20.033  26.932   2.814
55075W        W20302   5.306  22.819  12.955
55076W        W20303   3.018  25.068   1.842
55077W        W20304   7.785  17.581   1.712
55078W        W20305  26.829  15.737   2.205
55079W        W20306   5.724  20.123  14.072
55080W        W20307  33.359   9.302  11.221
55081W        W20308   0.156   6.147   4.543
55082W        W20309   8.282   9.648  14.926
55083W        W20310  10.235   1.955   0.735
55084W        W20311  43.035  33.159  14.279
55085W        W20312  26.904  32.797  12.482
55086W        W20313  33.392  22.443   2.271
55087W        W20314  37.883   7.916   2.726
55088W        W20315  29.548  40.389  12.954
55089W        W20316  37.514  42.024  14.063
55090W        W20317  28.392   1.873   2.648
55091W        W20318  30.069   7.422   4.310
55092W        W20319  21.292  32.547   0.038
55093W        W20320  36.609   3.014   4.720
55094W        W20321  40.456  35.889  14.976
55095W        W20322   3.457  28.054  14.786
55096W        W20323  38.639  42.831   1.544
55097W        W20324  34.573   8.396  10.825
55098W        W20325  22.758  31.491   2.965
55099W        W20326  42.085   8.705  11.712
55100W        W20327  23.596   4.687  13.930
55101W        W20328  35.699  11.962  11.617
55102W        W20329  15.527  43.416  13.401
55103W        W20330  36.882  15.022  14.654
55104W        W20331  18.123  16.383   0.877
55105W        W20332  37.480  19.764   5.021
55106W        W20333  13.730  36.487   1.547
55107W        W20334  44.309  32.958  14.465
55108W        W20335  21.001  39.674  13.940
55109W        W20336   1.014   6.254  11.931
55110W        W20337  43.953  36.019   1.269
55111W        W20338  18.471   2.771  11.656
55112W        W20339  44.322  17.085  13.656
55113W        W20340   0.195  24.113   1.709
55114W        W20341   1.948  41.894   4.965
55115W        W20342  28.342  30.352   9.841
55116W        W20343  42.021  10.590  13.876
55117W        W20344   8.205  23.696   2.500
55118W        W20345  28.908  44.209   3.877
55119W        W20346  35.004  32.223   1.273
55120W        W20347  39.515  24.063   4.690
55121W        W20348   5.672  16.582   3.660
55122W        W20349  11.721   6.709   2.715
55123W        W20350   8.096  18.754  10.910
55124W        W20351  25.528   4.652  12.010
55125W        W20352  24.875  10.865   2.758
55126W        W20353  43.007  29.836   3.204
55127W        W20354  29.185  23.682   4.130
55128W        W20355  22.566  41.331  11.652
55129W        W20356  40.851   4.227  11.563
55130W        W20357  14.839  16.155  13.791
55131W        W20358   3.890  17.985  14.924
55132W        W20359  41.394  29.148   1.502
55133W        W20360  14.082  21.153   3.957
55134W        W20361  11.232  23.847   0.423
55135W        W20362  31.692  30.500   4.931
55136W        W20363  33.143   4.238   4.669
55137W        W20364  22.830  10.860  12.237
55138W        W20365  16.829  24.653   4.381
55139W        W20366  11.783   4.462   0.390
55140W        W20367  42.800   9.319   4.569
55141W        W20368  38.740   5.597  12.713
55142W        W20369  43.239  36.328  12.113
55143W        W20370  34.498   5.375  12.692
55144W        W20371   5.125   2.311   3.407
55145W        W20372  10.332   1.473  11.637
55146W        W20373  16.533   3.741  14.561
55147W        W20374  23.179  41.109  14.366
55148W        W20375  27.104  19.317   0.984
55149W        W20376  38.164  30.789   2.981
55150W        W20377  43.341   7.758  13.330
55151W        W20378  16.813  18.414   1.592
55152W        W20379  36.380  33.750  14.052
55153W        W20380  24.701  12.522  13.416
55154W        W20381  19.287   6.642  11.696
55155W        W20382   3.793  33.994  12.810
55156W        W20383  43.673  24.447  14.010
55157W        W20384  14.626  13.327  11.346
55158W        W20385  39.453   5.933   0.820
55159W        W20386  28.146  37.641  13.882
55160W        W20387  12.777   6.342  12.460
55161W        W20388   9.678  32.083  12.147
55162W        W20389  42.151  21.898   0.713
55163W        W20390  27.863  14.306   4.500
55164W        W20391  34.229   2.745  13.755
55165W        W20392  31.043   1.919  14.015
55166W        W20393  27.940  33.481   2.345
55167W        W20394  41.926   1.526   0.438
55168W        W20395  12.226   0.823  11.379
55169W        W20396  35.508  26.476   1.831
55170W        W20397  37.750  35.329  11.654
55171W        W20398  44.973  37.823  12.073
55172W        W20399   6.241  17.225  12.129
55173W        W20400  25.753  19.031   1.724
55174W        W20401  17.390  29.648  12.309
55175W        W20402   3.938  22.524   2.400
55176W        W20403   8.766  27.955  12.015
55177W        W20404  32.560   9.807  12.671
55178W        W20405   5.989  31.544   0.655
55179W        W20406  19.740   0.847  14.304
55180W        W20407  23.805   4.144  13.886
55181W        W20408   1.157   4.714  10.416
55182W        W20409  24.070  13.548   3.147
55183W        W20410  37.616  10.831  14.883
55184W        W20411  37.160   2.448  14.865
55185W        W20412  40.832   7.259  14.798
55186W        W20413   4.975  20.505   0.442
55187W        W20414  37.178  28.371  13.280
55188W        W20415  24.178  15.861  10.647
55189W        W20416  28.062  34.206  12.476
55190W        W20417  38.155  23.703   0.349
55191W        W20418  31.375   7.292   0.194
55192W        W20419  17.218   4.644   0.328
55193W        W20420  21.735  29.953   4.034
55194W        W20421  20.690  16.076  14.763
55195W        W20422  22.674   3.942   2.425
55196W        W20423  37.017  27.187   2.939
55197W        W20424  21.810  41.974  12.524
55198W        W20425  14.022   2.782   3.579
55199W        W20426  41.832   1.246  14.989
55200W        W20427   3.224   3.112  12.002
55201W        W20428  38.017  27.446   0.964
55202W        W20429  15.098   4.269  12.336
55203W        W20430  23.990  28.116   3.418
55204W        W20431   8.030  26.150  12.430
55205W        W20432  33.692  19.147   3.323
55206W        W20433  41.305  10.773  10.779
55207W        W20434  37.303   7.429  13.870
55208W        W20435  39.778  27.332   0.502
55209W        W20436  37.283  39.022  12.993
55210W        W20437  14.758  35.133   1.554
55211W        W20438  20.001   0.987   3.209
55212W        W20439  39.961  18.060  12.608
55213W        W20440  39.765  17.570  13.434
55214W        W20441  17.264  23.669   2.929
55215W        W20442  29.600  14.703   3.066
55216W        W20443  23.153  14.158   3.439
55217W        W20444  26.330  12.265   3.649
55218W        W20445  39.339   0.284   4.483
55219W        W20446  44.191   9.669   2.887
55220W        W20447  35.052  28.446  14.374
55221W        W20448  41.741  15.870  10.467
55222W        W20449  35.630   7.919   1.241
55223W        W20450  31.272   0.049  11.466
55224W        W20451  27.313  15.585   3.216
55225W        W20452   1.237  40.905  11.166
55226W        W20453  28.015  44.718   1.668
55227W        W20454   7.987  38.070  12.115
55228W        W20455   6.713  21.686  12.420
55229W        W20456  41.301  13.224  14.898
55230W        W20457   4.426   7.718  14.854
55231W        W20458   5.811  22.795  12.057
55232W        W20459   6.364   2.326   4.382
55233W        W20460  16.117   7.439  11.631
55234W        W20461  10.325  43.542  11.639
55235W        W20462  44.435  40.296  14.921
55236W        W20463  31.934  16.545  11.542
55237W        W20464  28.008  16.863  12.822
55238W        W20465  22.023  16.362  12.536
55239W        W20466  44.871  29.039   3.968
55240W        W20467  34.892  40.910   2.798
55241W        W20468  44.153  16.260   2.764
55242W        W20469  19.122  12.100  12.802
55243W        W20470   8.493  43.904   2.456
55244W        W20471  32.064  11.760   3.288
55245W        W20472  19.283  37.351   0.286
55246W        W20473  35.168  18.190  10.767
55247W        W20474   7.232  24.959  13.052
55248W        W20475   2.999  26.355  11.798
55249W        W20476  35.438  20.897   0.633
55250W        W20477  26.207  21.166  10.753
55251W        W20478  15.230   8.476  10.615
55252W        W20479  13.179  22.688   1.913
55253W        W20480  13.743  39.024   3.190
55254W        W20481  32.558  31.107   3.824
55255W        W20482  27.046   3.655   1.182
55256W        W20483  41.043  23.067  14.000
55257W        W20484   9.814  12.657   2.452
55258W        W20485  41.632  35.083   0.960
55259W        W20486  44.381  31.000  14.227
55260W        W20487  14.063   9.214  13.128
55261W        W20488  29.654   7.496   0.378
55262W        W20489  28.991  29.808  14.001
55263W        W20490  44.443  10.090   3.826
55264W        W20491  44.680  28.588  11.515
55265W        W20492  25.593  40.085   4.378
55266W        W20493  22.564  28.180  12.525
55267W        W20494  34.935  25.423  12.521
55268W        W20495  24.355   2.244   4.521
55269W        W20496  38.602   8.454  14.883
55270W        W20497   3.777  31.810   3.852
55271W        W20498   4.978  41.773  12.518
55272W        W20499  28.224  15.704   1.214
55273W        W20500  12.336  42.458   2.242
55274W        W20501  33.448  21.998   4.101
55275W        W20502  19.546   3.434  14.923
55276W        W20503  32.108  37.418   2.421
55277W        W20504   8.483  17.408   5.267
55278W        W20505  37.403  18.288  12.477
55279W        W20506  30.043  37.623   2.297
55280W        W20507  41.902   3.644   3.721
55281W        W20508  40.504  23.831  12.042
55282W        W20509   9.836  41.050   2.754
55283W        W20510  12.866  38.373  13.921
55284W        W20511   3.333   1.446   3.526
55285W        W20512  12.665  24.033   3.601
55286W        W20513  22.144  38.934   4.121
55287W        W20514  33.737   4.697   4.038
55288W        W20515  44.254   6.194  10.968
55289W        W20516  39.782  20.077   2.225
55290W        W20517  40.800  13.237   1.821
55291W        W20518  17.050  10.223  12.990
55292W        W20519  44.618   2.929   0.057
55293W        W20520  25.976  25.989   2.798
55294W        W20521  18.528   2.783  14.397
55295W        W20522  41.804  42.691  11.162
55296W        W20523   6.390  32.396   0.779
55297W        W20524  42.416  42.343   3.187
55298W        W20525  11.480   3.471  11.348
55299W        W20526  37.834  25.201   3.380
55300W        W20527  34.375   9.349  11.701
55301W        W20528   4.488   7.502  13.535
55302W        W20529   6.015  25.086   0.783
55303W        W20530  40.813  26.431  10.795
55304W        W20531  24.325  12.296  10.695
55305W        W20532  27.162  17.946   0.333
55306W        W20533  37.594  37.676  13.030
55307W        W20534  23.012  43.958   0.057
55308W        W20535   9.985  16.900  11.085
55309W        W20536  34.542  22.316  11.016
55310W        W20537  17.672   2.634  11.230
55311W        W20538   1.997  26.019   1.857
55312W        W20539  41.985   5.862  12.988
55313W        W20540  32.150  39.587   3.734
55314W        W20541  36.810  26.260  11.575
55315W        W20542  10.778  29.713  13.700
55316W        W20543  40.761  18.132  11.188
55317W        W20544  11.758  16.816  10.227
55318W        W20545  18.522  17.604  13.510
55319W        W20546  31.467  12.976  14.592
55320W        W20547  31.936  43.156  10.391
55321W        W20548  24.424  42.852   0.391
55322W        W20549  34.862  33.317  11.202
55323W        W20550   1.268   5.594   3.642
55324W        W20551   7.494  23.001  12.788
55325W        W20552  17.316  40.823  13.473
55326W        W20553   4.912  19.272   3.846
55327W        W20554  34.285   9.668   3.638
55328W        W20555  32.592  31.099   3.301
55329W        W20556  17.077  32.823   2.843
55330W        W20557   7.476  24.923  12.011
55331W        W20558   8.447  43.816   1.178
55332W        W20559   1.272   4.824   2.557
55333W        W20560  22.182  30.989   1.814
55334W        W20561  32.096  35.806   4.119
55335W        W20562  25.743  28.491  11.967
55336W        W20563  32.399  27.505   1.693
55337W        W20564  24.582  42.757  13.807
55338W        W20565  14.535  31.015   0.382
55339W        W20566  42.866   4.677  13.903
55340W        W20567   6.289  14.226  11.645
55341W        W20568  27.982  12.474  12.877
55342W        W20569  10.049  29.555  10.738
55343W        W20570  31.385   5.769  13.383
55344W        W20571   0.358  24.335  11.814
55345W        W20572  11.769  20.813   2.348
55346W        W20573  29.680  30.257   4.258
55347W        W20574  28.562   8.572   1.175
55348W        W20575  30.473  43.987   4.854
55349W        W20576   8.189  38.744   2.145
55350W        W20577  33.599  22.576   1.764
55351W        W20578  11.533  30.948   1.395
55352W        W20579  32.789  18.319  12.600
55353W        W20580  24.000   8.797   4.591
55354W        W20581  41.706   9.317  13.847
55355W        W20582  30.974  30.649  12.468
55356W        W20583  33.421   7.704  12.402
55357W        W20584  10.294  28.534  14.365
55358W        W20585  38.810   1.627   1.185
55359W        W20586  14.546  40.380   2.659
55360W        W20587  43.461  14.995   4.110
55361W        W20588  28.587  26.176  14.217
55362W        W20589  24.513  38.879  11.595
55363W        W20590  11.350   5.936  11.608
55364W        W20591  36.839  22.818  13.592
55365W        W20592   0.791  29.457  14.792
55366W        W20593  42.625  41.013  14.820
55367W        W20594   1.067  14.669   2.739
55368W        W20595  40.498   8.646   1.779
55369W        W20596  43.702   4.022  14.933
55370W        W20597  23.510  41.766  11.565
55371W        W20598   0.972  42.860  11.200
55372W        W20599   1.859  36.101  13.458
55373W        W20600   7.582   0.327  10.731
55374W        W20601  19.709  24.341  11.278
55375W        W20602  34.198  35.876   2.728
55376W        W20603   4.636  14.249  12.520
55377W        W20604  21.302  30.665  12.068
55378W        W20605  41.574  27.407   2.104
55379W        W20606  44.859  28.946  13.720
55380W        W20607  41.154  34.909   3.885
55381W        W20608  39.092  23.532   4.345
55382W        W20609  29.637   4.256   1.882
55383W        W20610  21.204  33.938  14.018
55384W        W20611  28.664  20.528  13.327
55385W        W20612  17.780  32.894  13.973
55386W        W20613  36.125  38.795  13.919
55387W        W20614  26.020  21.044   2.348
55388W        W20615   4.372  11.115  11.139
55389W        W20616   1.457   4.379  14.267
55390W        W20617  23.641  40.489  11.196
55391W        W20618  42.446   3.648   1.057
55392W        W20619  33.604   3.595   0.380
55393W        W20620  38.615   6.193  12.126
55394W        W20621  22.454   7.691   3.369
55395W        W20622  42.125  27.545   0.780
55396W        W20623  35.649   5.075   2.721
55397W        W20624  10.377  30.557  13.838
55398W        W20625  24.287  33.048  13.094
55399W        W20626  10.150  36.794   1.809
55400W        W20627  37.805  27.020  10.675
55401W        W20628  37.218  23.506   3.075
55402W        W20629  40.500   6.866  12.910
55403W        W20630   5.911  28.427   1.323
55404W        W20631  19.455  32.783  11.151
55405W        W20632  23.046  40.919   1.878
55406W        W20633  13.636   5.755  13.111
55407W        W20634  32.091  42.082  10.868
55408W        W20635  40.421  16.259   0.942
55409W        W20636  15.151   0.802   4.646
55410W        W20637   5.243  15.432   2.690
55411W        W20638  19.273  17.591  12.440
55412W        W20639  43.353  44.549  11.904
55413W        W20640   8.765  17.349  13.961
55414W        W20641  29.380   4.291  13.824
55415W        W20642  28.660   2.795   0.088
55416W        W20643   7.724  31.989  12.472
55417W        W20644  43.535   4.111  12.875
55418W        W20645   4.688   6.824  12.954
55419W        W20646   0.273   8.524  12.499
55420W        W20647  42.206  33.875   1.026
55421W        W20648   1.154   1.279  12.863
55422W        W20649  36.439  14.642   0.513
55423W        W20650   7.486   0.781   1.808
55424W        W20651  36.638  21.780   4.678
55425W        W20652  22.061  33.130  13.129
55426W        W20653   5.758  10.734   0.805
55427W        W20654  28.125  38.152   5.051
55428W        W20655  42.144  33.523  12.068
55429W        W20656   6.097  19.614  11.732
55430W        W20657   1.534   7.644  14.526
55431W        W20658  26.966  28.475   0.607
55432W        W20659  12.164  27.174   3.189
55433W        W20660  21.113  43.485   2.450
55434W        W20661  42.434  24.095   1.412
55435W        W20662  11.963  16.850   3.088
55436W        W20663  30.369  11.126   2.767
55437W        W20664   6.754   0.604   9.877
55438W        W20665  28.066  20.851   4.954
55439W        W20666   8.813  20.266  12.526
55440W        W20667  12.389  14.984   2.337
55441W        W20668  18.107  23.568   3.700
55442W        W20669  30.482   5.387   1.955
55443W        W20670  16.442   2.591   4.610
55444W        W20671  34.619  28.639   3.094
55445W        W20672  14.410  22.353   3.624
55446W        W20673  14.982   8.100  12.818
55447W        W20674  33.998   9.762   0.351
55448W        W20675  19.931  18.351  12.768
55449W        W20676  11.070  30.459   2.656
55450W        W20677  25.543   5.931   4.594
55451W        W20678  44.730  32.379  11.667
55452W        W20679  23.569  11.640   3.241
55453W        W20680  14.410  10.747   2.093
55454W        W20681  35.756  39.311  11.484
55455W        W20682  20.581  42.607   4.618
55456W        W20683  13.281  27.919  13.003
55457W        W20684  15.866  37.797   2.943
55458W        W20685  10.594  42.740   1.345
55459W        W20686  33.573  22.943   0.294
55460W        W20687  26.814  36.126  12.440
55461W        W20688  12.608  38.802   3.081
55462W        W20689   7.213  16.543   1.035
55463W        W20690  14.148  37.114  12.615
55464W        W20691  19.691   9.488  14.277
55465W        W20692  37.837   6.929   1.877
55466W        W20693  11.611  23.444   0.625
55467W        W20694  36.438   3.574  11.517
55468W        W20695  26.584  28.197  12.033
55469W        W20696  38.507  41.280   4.261
55470W        W20697   9.310  42.904  13.127
55471W        W20698  43.829  13.057  12.090
55472W        W20699  10.389  38.422  14.656
55473W        W20700   1.327  22.290   1.904
55474W        W20701   0.526  11.414  12.804
55475W        W20702  27.986  28.903  14.017
55476W        W20703  11.792   1.330  14.684
55477W        W20704  39.510  16.357   0.436
55478W        W20705   8.192  41.817  11.498
55479W        W20706   9.420  26.502  12.969
55480W        W20707  44.951  39.933   1.661
55481W        W20708  42.441  38.941  11.593
55482W        W20709   5.831  23.640  11.122
55483W        W20710  22.747  40.180  12.634
55484W        W20711   0.853  41.593  13.957
55485W        W20712   8.717  23.496   3.244
55486W        W20713   4.901   0.501   3.658
55487W        W20714  10.692  17.040  14.357
55488W        W20715   9.167  40.278   2.862
55489W        W20716  31.964   1.375  12.251
55490W        W20717  12.595  12.100  10.743
55491W        W20718  40.895  15.155   0.886
55492W        W20719  20.768   7.580  14.888
55493W        W20720  29.172  30.974   1.217
55494W        W20721  19.555  20.074   0.799
55495W        W20722   7.412  22.015   3.555
55496W        W20723  30.308  42.595  14.378
55497W        W20724  32.285  21.673   0.308
55498W        W20725  25.875   2.417   4.986
55499W        W20726  25.972  42.962   0.155
55500W        W20727  16.251  42.016  14.221
55501W        W20728  13.599  36.795   0.185
55502W        W20729   5.800   3.669   1.760
55503W        W20730  13.828  11.193   3.630
55504W        W20731  21.333  37.450  14.810
55505W        W20732  29.888  39.550   2.209
55506W        W20733  18.679  21.718   3.285
55507W        W20734  34.455  10.935   3.093
55508W        W20735  18.524  40.611   5.181
55509W        W20736  36.524   8.698   0.007
55510W        W20737  32.897  41.463   4.141
55511W        W20738   7.060  33.493  10.790
55512W        W20739   1.335  19.373  12.414
55513W        W20740   2.715  19.288  12.541
55514W        W20741   7.207  13.161   1.678
55515W        W20742  30.545   1.994  11.043
55516W        W20743  35.421   1.853  12.972
55517W        W20744  23.094  31.327   3.308
55518W        W20745   7.883  12.152   0.439
55519W        W20746   2.689   2.995   1.262
55520W        W20747   5.185   6.631   0.130
55521W        W20748  21.748  42.043   2.751
55522W        W20749  27.432   7.851  11.503
55523W        W20750  30.074  36.580  12.048
55524W        W20751  23.098  41.966  11.271
55525W        W20752  18.263  28.140   3.954
55526W        W20753  19.673  24.165  13.738
55527W        W20754  23.376  14.138  12.300
55528W        W20755  40.556  33.072   2.933
55529W        W20756  25.184  19.925   3.258
55530W        W20757  41.428  40.919  11.674
55531W        W20758  17.990  11.491   3.204
55532W        W20759  21.475  10.797  14.035
55533W        W20760   7.066  27.296  13.016
55534W        W20761  12.861  28.771  11.111
55535W        W20762  37.017  42.492   3.325
55536W        W20763  29.674  18.614   1.750
55537W        W20764  37.061  36.910  10.656
55538W        W20765  43.753  29.256   4.069
55539W        W20766  23.435  27.829  11.450
55540W        W20767   9.129  30.084   4.123
55541W        W20768  28.450   0.121   0.780
55542W        W20769  44.318  24.003   4.092
55543W        W20770   2.163  24.238  11.981
55544W        W20771   4.248  13.301   4.576
55545W        W20772  37.262  39.909  11.833
55546W        W20773  30.482  31.799  13.706
55547W        W20774  20.533   5.136   4.219
55548W        W20775   6.017   8.628   0.803
55549W        W20776  28.575   9.540   0.850
55550W        W20777  44.402  14.244   0.642
55551W        W20778  25.080  25.680  12.622
55552W        W20779   4.274  40.008   1.735
55553W        W20780  26.236   8.499  12.151
55554W        W20781  41.415  31.951   4.105
55555W        W20782  21.739   9.721  12.549
55556W        W20783  43.936  19.496   3.600
55557W        W20784   1.490   5.917   3.205
55558W        W20785  13.593  37.727   0.804
55559W        W20786  19.951  21.781  11.707
55560W        W20787  29.790  25.707  10.811
55561W        W20788  18.054  43.917   4.170
55562W        W20789  25.461  27.325   2.874
55563W        W20790  43.836  39.356   3.648
55564W        W20791  24.998  14.659  10.721
55565W        W20792  12.220  16.799   2.627
55566W        W20793  38.875   1.145   1.364
55567W        W20794  23.069  30.409   4.861
55568W        W20795  26.716  32.496  10.552
55569W        W20796  35.785  34.065   3.772
55570W        W20797  36.557  14.510   1.919
55571W        W20798  19.585  25.278  11.300
55572W        W20799   7.634  30.640   1.858
55573W        W20800   2.841  11.293  10.873
55574W        W20801   0.348  14.762  13.582
55575W        W20802  35.521  29.665   0.761
55576W        W20803  19.184  15.528  10.721
55577W        W20804   5.608  41.318   5.081
55578W        W20805  27.090  19.678  10.636
55579W        W20806  31.927   4.910   1.965
55580W        W20807  37.350  14.115   2.875
55581W        W20808  14.950  26.778   0.384
55582W        W20809  13.522  30.389   1.481
55583W        W20810  19.199  25.465   2.542
55584W        W20811  34.381  11.871  11.195
55585W        W20812  42.337   9.567  11.096
55586W        W20813  34.544  22.960   1.893
55587W        W20814  28.088   9.917  12.952
55588W        W20815  27.137  35.995   4.678
55589W        W20816  10.779   8.369  10.880
55590W        W20817  28.152  34.824  13.557
55591W        W20818  31.749   0.955  15.000
55592W        W20819  19.572  24.721   0.380
55593W        W20820   9.334  40.098  11.539
55594W        W20821  18.303   3.411  12.808
55595W        W20822  38.355  41.388   2.271
55596W        W20823  24.126  34.569  11.225
55597W        W20824  10.649  36.448  11.475
55598W        W20825  12.296  36.519  12.100
55599W        W20826  22.245  38.545   1.323
55600W        W20827  24.812  14.407   0.725
55601W        W20828  41.657  18.138  10.752
55602W        W20829   9.159  38.389   2.136
55603W        W20830  31.256  14.730   4.088
55604W        W20831   8.385  43.918  12.391
55605W        W20832  23.525   7.779   2.345
55606W        W20833   4.141  24.247  11.189
55607W        W20834   2.525  29.462  12.093
55608W        W20835   2.422   1.810  10.643
55609W        W20836  15.755   3.577  10.671
55610W        W20837  20.819  32.907  12.979
55611W        W20838   2.873  29.810  14.555
55612W        W20839  29.248   6.425  12.598
55613W        W20840  26.173  10.588   4.801
55614W        W20841  37.150  23.965  12.895
55615W        W20842   7.673  18.745  11.232
55616W        W20843  32.410   3.214  10.388
55617W        W20844  28.560   2.955   2.715
55618W        W20845  25.492   5.183   9.949
55619W        W20846   9.811  17.269  13.084
55620W        W20847  24.185  22.415   5.047
55621W        W20848   9.232   5.117  11.163
55622W        W20849  35.878  38.124  11.040
55623W        W20850  10.851  35.870  13.941
55624W        W20851  24.727  24.615  13.466
55625W        W20852  25.501  11.709   1.080
55626W        W20853  24.743   2.563   5.656
55627W        W20854  35.686  20.669  13.566
55628W        W20855  38.915   8.803  12.593
55629W        W20856  13.878  44.964  11.934
55630W        W20857  30.540  31.892   4.152
55631W        W20858  40.004  38.343  11.700
55632W        W20859  13.156   8.876  12.614
55633W        W20860  19.682  30.194   2.778
55634W        W20861  22.746  10.167  14.542
55635W        W20862  24.462  11.276  13.881
55636W        W20863   7.065  29.186  10.720
55637W        W20864  18.474   1.885   1.498
55638W        W20865  32.642  19.115   4.117
55639W        W20866  28.668  27.106  13.072
55640W        W20867   8.145  36.109   3.205
55641W        W20868  16.299   4.764  11.954
55642W        W20869  21.386  39.862  12.629
55643W        W20870  23.675  43.997  12.947
55644W        W20871  40.233  22.784  12.380
55645W        W20872  13.698  33.814   2.775
55646W        W20873   5.711  27.166   3.788
55647W        W20874  36.780  37.552   3.216
55648W        W20875  24.630   3.370   4.516
55649W        W20876  18.317  41.882   0.743
55650W        W20877  20.848   7.644  13.603
55651W        W20878   8.263   4.359   3.595
55652W        W20879  21.737  22.625   2.425
55653W        W20880  32.134   2.568  12.456
55654W        W20881  15.167   9.500   0.376
55655W        W20882  42.588   0.204   3.264
55656W        W20883   5.395  11.652   3.592
55657W        W20884  23.167  35.234  12.362
55658W        W20885  35.058   9.859   4.603
55659W        W20886  25.486   5.201   0.590
55660W        W20887  30.533  32.597  14.535
55661W        W20888   6.896  11.772   2.767
55662W        W20889  17.456  22.307  11.044
55663W        W20890   0.426  18.814  14.955
55664W        W20891  17.712  37.912   0.714
55665W        W20892  30.048  23.872   0.257
55666W        W20893  21.989   4.366   4.518
55667W        W20894   0.906  27.608   2.306
55668W        W20895   1.328  41.438  12.043
55669W        W20896  40.757  11.268  12.075
55670W        W20897  41.935  37.498   3.145
55671W        W20898   4.698  21.007  10.707
55672W        W20899   7.766   7.951  14.662
55673W        W20900  38.791  28.742  11.562
55674W        W20901  12.823  44.079  11.843
55675W        W20902  19.323   8.154  12.430
55676W        W20903   1.452  28.528  11.268
55677W        W20904  32.902  44.880   2.168
55678W        W20905  35.436  43.880   3.432
55679W        W20906   4.671  26.126  11.972
55680W        W20907   7.851  21.643   0.752
55681W        W20908  31.468   8.825   4.938
55682W        W20909   5.841  39.472   3.036
55683W        W20910  34.736  40.639  13.289
55684W        W20911  29.133  42.027  11.096
55685W        W20912  26.272   5.634  12.618
55686W        W20913  44.130  35.064  13.629
55687W        W20914  15.825   6.681  11.788
55688W        W20915  36.371  33.859   2.532
55689W        W20916  29.603  25.467  13.924
55690W        W20917   8.188  13.112   3.244
55691W        W20918  11.906  10.381  12.989
55692W        W20919   6.699  25.594  13.444
55693W        W20920  34.958  13.224   2.601
55694W        W20921  25.928  41.372   1.770
55695W        W20922   2.859   2.075   1.242
55696W        W20923   0.286  34.737   0.919
55697W        W20924   1.497  42.470  12.071
55698W        W20925  30.709   9.453  14.305
55699W        W20926  18.716  34.282  14.836
55700W        W20927   5.292  19.781  11.340
55701W        W20928   0.760  35.453  14.141
55702W        W20929  22.256  19.777  12.527
55703W        W20930  42.997  28.832   2.140
55704W        W20931  27.162  32.512  10.841
55705W        W20932  30.193  21.030   2.967
55706W        W20933  16.538   9.565  13.424
55707W        W20934   3.501  30.312  12.298
55708W        W20935  22.324  22.689   3.699
55709W        W20936  44.835  32.419   4.144
55710W        W20937  16.202  32.937  14.028
55711W        W20938  25.992  10.241  14.948
55712W        W20939   3.157  32.419   1.248
55713W        W20940  20.519   3.999  10.992
55714W        W20941  16.654  43.286   0.076
55715W        W20942  25.752   1.441   0.741
55716W        W20943  33.528  10.632   2.256
55717W        W20944  41.895  31.154   3.099
55718W        W20945  15.219  37.290   2.144
55719W        W20946   7.580  43.843   0.356
55720W        W20947  40.220  38.333   1.857
55721W        W20948  32.403  35.936   3.363
55722W        W20949  25.670  33.505  12.797
55723W        W20950  36.359   7.133   2.668
55724W        W20951  33.629   3.284  12.578
55725W        W20952  19.989  35.981   4.992
55726W        W20953  31.078  19.190  13.570
55727W        W20954  27.499  18.543  13.475
55728W        W20955  38.693  26.490   0.798
55729W        W20956  30.072  42.328   0.963
55730W        W20957  20.546  41.942  14.253
55731W        W20958   7.804  22.227  11.222
55732W        W20959   5.918  16.355  10.690
55733W        W20960  28.317  27.120  12.722
55734W        W20961  38.565  37.651  12.921
55735W        W20962  29.678  35.086   3.573
55736W        W20963  12.583  44.928  11.841
55737W        W20964  32.888  13.537  14.416
55738W        W20965   6.161   3.957   1.271
55739W        W20966  27.690  31.159   0.939
55740W        W20967  17.489  28.280   3.082
55741W        W20968   7.291   6.096   2.886
55742W        W20969  19.397  28.081   2.240
55743W        W20970  15.103  18.526   0.298
55744W        W20971  16.060   8.421   3.713
55745W        W20972   2.677  10.836  11.067
55746W        W20973  14.375   0.473   3.315
55747W        W20974  14.489   8.331  13.844
55748W        W20975  13.702   4.859   0.239
55749W        W20976  34.545   8.850  11.672
55750W        W20977  29.000   7.138  10.613
55751W        W20978  28.579  33.033  14.436
55752W        W20979  36.024  12.418   3.158
55753W        W20980  27.163   3.376  12.464
55754W        W20981  31.633  23.105   3.603
55755W        W20982  35.070  17.102   3.744
55756W        W20983  35.490   4.034   4.802
55757W        W20984  28.693   0.660   2.951
55758W        W20985  42.286  23.068   2.667
55759W        W20986  30.663  25.255   1.268
55760W        W20987  14.376  37.007   2.307
55761W        W20988  36.545  36.297  11.208
55762W        W20989  24.762  11.708  13.841
55763W        W20990   6.923   2.881   2.458
55764W        W20991  30.923   1.377   2.907
55765W        W20992  27.683   0.404   2.196
55766W        W20993  22.579  21.137   2.300
55767W        W20994   6.691   7.747   0.555
55768W        W20995   6.653  43.820   0.681
55769W        W20996  28.208  30.192   2.153
55770W        W20997  27.114  38.091  10.645
55771W        W20998  34.744  22.865  14.731
55772W        W20999  18.439   9.115   1.702
55773W        W21000  22.048  21.084   4.332
55774W        W21001  43.392  33.604   2.263
55775W        W21002   5.702  32.161  11.121
55776W        W21003  43.482  39.386  12.054
55777W        W21004  38.120  13.349  11.670
55778W        W21005  21.503  14.366  13.884
55779W        W21006  19.599  23.601   0.493
55780W        W21007  15.694  11.088  13.805
55781W        W21008  16.120  25.632   2.435
55782W        W21009  44.865   9.733   1.188
55783W        W21010  34.413  20.131  11.255
55784W        W21011  44.704  21.767  10.893
55785W        W21012  42.120  43.399  13.489
55786W        W21013  40.875  23.575  11.088
55787W        W21014  19.228  13.789   2.058
55788W        W21015  19.297  38.082   0.168
55789W        W21016   2.081  33.414  14.541
55790W        W21017  34.151  21.267   0.334
55791W        W21018   2.271  29.309   2.726
55792W        W21019  14.056  15.806  14.965
55793W        W21020  22.562  16.219  10.776
55794W        W21021  19.649  27.110   1.610
55795W        W21022  27.259  33.183  11.044
55796W        W21023  36.977   4.102   4.279
55797W        W21024  22.780  40.526   1.709
55798W        W21025   1.805   8.310   4.097
55799W        W21026  39.460  23.938   4.194
55800W        W21027   1.777  38.864   1.127
55801W        W21028  30.172   9.999  11.137
55802W        W21029  35.616  29.434   2.340
55803W        W21030  12.460  37.144   2.829
55804W        W21031  27.533  38.552  11.958
55805W        W21032   2.124   5.352   0.436
55806W        W21033  14.230  13.154   4.515
55807W        W21034  38.086  27.969   4.151
55808W        W21035   3.712  37.251   0.738
55809W        W21036  42.019  36.337  10.703
55810W        W21037  37.986  28.369  13.362
55811W        W21038  29.452  11.206   3.043
55812W        W21039   3.349   9.329   4.207
55813W        W21040  37.513  42.938  13.911
55814W        W21041  27.328  18.117   1.950
55815W        W21042  26.240  17.083  11.670
55816W        W21043  17.062  18.167   2.884
55817W        W21044  30.362  17.666  11.666
55818W        W21045  16.806  29.429   3.240
55819W        W21046  33.613   9.668  13.282
55820W        W21047  14.455  35.396   1.924
55821W        W21048  23.029  12.787  14.225
55822W        W21049  43.562   5.386  14.450
55823W        W21050  25.897  36.616   1.255
55824W        W21051  26.923  35.773  13.808
55825W        W21052   7.183   5.228  14.154
55826W        W21053  18.996   5.514   1.761
55827W        W21054   1.337   7.738   4.593
55828W        W21055  16.709  16.986  11.152
55829W        W21056  25.558  39.505  14.487
55830W        W21057  36.017  44.745   4.634
55831W        W21058  35.883  34.664   2.683
55832W        W21059  25.258  29.682  12.432
55833W        W21060  12.432  19.044   0.701
55834W        W21061  19.639   4.152  10.676
55835W        W21062  42.331  41.578  13.851
55836W        W21063  17.178  32.617   4.138
55837W        W21064  13.652  22.404   3.787
55838W        W21065  24.428  30.410   1.181
55839W        W21066  36.347  14.697  10.827
55840W        W21067  33.245  38.921   1.429
55841W        W21068  17.625  17.963   4.603
55842W        W21069  34.001  16.553  11.371
55843W        W21070  43.481  40.248  11.762
55844W        W21071   4.217  12.269   4.617
55845W        W21072  40.519   3.096   2.805
55846W        W21073  31.178   6.707   3.224
55847W        W21074  42.037   4.753  12.473
55848W        W21075   8.078  14.330   3.582
55849W        W21076  42.037  24.994   0.842
55850W        W21077  29.680  30.481   3.626
55851W        W21078  18.505  41.159  10.156
55852W        W21079  32.533  11.566   3.132
55853W        W21080  41.372   6.255  11.859
55854W        W21081   2.736   2.038  13.990
55855W        W21082   9.294  44.050  11.963
55856W        W21083   3.592  34.664   1.324
55857W        W21084  43.291  18.305  11.046
55858W        W21085  21.699  29.179  13.903
55859W        W21086  31.937  31.209  12.626
55860W        W21087  37.155  37.259   1.821
55861W        W21088  29.000  36.167  11.625
55862W        W21089  34.809  31.636   5.187
55863W        W21090  27.192  40.921  10.783
55864W        W21091   3.866  31.032  10.733
55865W        W21092  11.487  23.825  12.913
55866W        W21093  10.456   9.089   0.428
55867W        W21094  17.800   0.960  14.256
55868W        W21095  37.000  10.985   0.791
55869W        W21096  27.143  44.430   1.794
55870W        W21097  11.158  42.542   3.927
55871W        W21098  37.383  19.711  14.479
55872W        W21099  13.598  30.017   0.292
55873W        W21100  11.169  24.277   1.408
55874W        W21101  36.302  36.105   0.927
55875W        W21102   8.823  29.893   0.434
55876W        W21103   4.250   6.368   0.168
55877W        W21104  34.668  33.078  12.088
55878W        W21105  25.561  24.467   2.103
55879W        W21106   4.433   8.540  14.545
55880W        W21107   0.298  40.587   0.467
55881W        W21108  27.667  41.259  13.068
55882W        W21109  26.707  30.196  11.154
55883W        W21110  32.375  22.391   2.310
55884W        W21111  24.075  39.863   0.745
55885W        W21112  33.639  20.994  12.574
55886W        W21113  33.485  15.182   1.856
55887W        W21114  34.610   0.478  14.367
55888W        W21115  12.636  14.803  14.896
55889W        W21116   2.534  20.803  10.629
55890W        W21117   1.504  16.121   1.864
55891W        W21118  25.554  18.754   0.441
55892W        W21119  36.233  33.812   3.027
55893W        W21120  41.596  38.428   2.353
55894W        W21121  17.343  15.098   4.613
55895W        W21122   3.375  32.884  11.611
55896W        W21123  15.885   0.184   2.779
55897W        W21124  21.649  43.834  11.179
55898W        W21125  30.529  24.664   0.578
55899W        W21126  34.390   0.432  13.093
55900W        W21127  19.705  12.586  13.324
55901W        W21128  40.338  39.567  12.155
55902W        W21129   3.673  27.090  12.054
55903W        W21130  43.760  20.715  11.997
55904W        W21131  41.170   5.214  11.638
55905W        W21132  37.223  24.735   4.516
55906W        W21133  15.541  14.115   4.843
55907W        W21134  16.003   9.449   0.082
55908W        W21135   4.676  13.669  13.059
55909W        W21136  11.967   7.483   2.223
55910W        W21137  32.889  16.387   0.778
55911W        W21138   5.210  37.053  10.624
55912W        W21139  30.108  20.640   2.598
55913W        W21140  28.804   3.637  12.998
55914W        W21141  44.999  11.424   3.605
55915W        W21142  42.923  35.478   3.222
55916W        W21143  11.160  33.374   0.767
55917W        W21144   0.732  10.670   2.388
55918W        W21145  31.398   9.399   2.702
55919W        W21146  20.644  29.363   0.738
55920W        W21147  41.255   0.929  10.671
55921W        W21148   9.434   1.553  14.389
55922W        W21149   3.310  39.904  14.912
55923W        W21150   3.534  41.767   5.012
55924W        W21151   5.742  29.976   0.291
55925W        W21152   0.108  28.978   0.194
55926W        W21153   0.482  44.043  11.648
55927W        W21154  35.559   6.260  13.506
55928W        W21155  18.869  34.786  14.884
55929W        W21156  29.039   7.701   2.331
55930W        W21157  37.261  24.844   0.225
55931W        W21158  32.462  18.123   3.769
55932W        W21159  34.148  13.234   0.923
55933W        W21160  41.454  17.817  11.221
55934W        W21161  15.323  36.737  11.650
55935W        W21162   6.131  24.500   2.705
55936W        W21163  25.247   4.024   4.529
55937W        W21164  26.108   8.142   2.085
55938W        W21165  43.115  14.250  14.255
55939W        W21166  28.963  21.749  12.156
55940W        W21167  27.768  33.475  10.816
55941W        W21168   3.418  17.247   4.566
55942W        W21169  14.154   6.431   2.312
55943W        W21170  29.369   0.731   4.089
55944W        W21171  29.896  21.280   0.376
55945W        W21172  44.967  37.614  13.716
55946W        W21173  29.085  33.161  10.970
55947W        W21174   3.030  38.590  12.657
55948W        W21175  30.467  34.923  14.998
55949W        W21176  14.652  40.609  11.358
55950W        W21177   1.346  19.971  10.031
55951W        W21178  17.738  33.074   4.696
55952W        W21179  29.752  43.933   4.409
55953W        W21180  41.561  24.589  11.470
55954W        W21181  16.985   2.771   1.372
55955W        W21182  23.687  33.452  11.225
55956W        W21183  17.255  27.117   2.051
55957W        W21184  36.380  40.797   3.561
55958W        W21185  42.238  13.702   1.884
55959W        W21186  13.927  33.615  13.906
55960W        W21187  29.500  32.880  14.019
55961W        W21188  16.474  34.013  13.591
55962W        W21189  19.630  15.613   3.735
55963W        W21190  10.686  17.673   1.950
55964W        W21191  41.108   7.047  10.582
55965W        W21192   4.696   5.363   0.916
55966W        W21193   0.878  37.600   5.251
55967W        W21194   4.748  31.029   4.268
55968W        W21195  42.912  36.964  13.859
55969W        W21196   3.716  25.833   1.755
55970W        W21197  18.123   8.754  10.971
55971W        W21198  27.855  35.458   0.805
55972W        W21199  43.975  17.934   5.402
55973W        W21200   6.390  28.672  10.607
55974W        W21201  16.313  31.708  12.476
55975W        W21202   1.290  18.922   5.492
55976W        W21203  30.843   2.379  14.955
55977W        W21204  39.837  19.881   4.435
55978W        W21205  15.115  17.014   0.545
55979W        W21206  28.431   5.839  11.489
55980W        W21207   2.318   3.633  10.961
55981W        W21208   8.954  14.299  13.038
55982W        W21209  39.425  18.362  13.844
55983W        W21210   4.943  40.400   2.819
55984W        W21211  33.543  33.172  12.747
55985W        W21212   4.607  39.539  11.079
55986W        W21213  22.081   3.054  14.749
55987W        W21214  25.832  20.098   3.670
55988W        W21215  10.599  29.728  12.772
55989W        W21216   6.103  18.802  10.047
55990W        W21217  15.431  25.181   2.539
55991W        W21218  11.031  25.433  10.611
55992W        W21219   7.988  34.424  13.102
55993W        W21220  28.030  20.050   1.244
55994W        W21221  31.628  22.018   4.476
55995W        W21222  21.715  11.281  14.021
55996W        W21223  36.328  22.218  12.511
55997W        W21224  32.937   9.566  12.368
55998W        W21225  10.808  39.315  11.919
55999W        W21226  40.777  29.003   0.923
56000W        W21227  36.931  28.577   2.730
56001W        W21228  23.108  35.805  13.232
56002W        W21229  42.883  24.682  11.663
56003W        W21230   3.754  30.900  14.381
56004W        W21231   1.764   3.193   3.280
56005W        W21232  21.645  15.791  10.667
56006W        W21233  34.042  44.378  13.029
56007W        W21234   8.943  26.337  11.298
56008W        W21235  36.582  40.730  10.266
56009W        W21236   0.944   8.135   2.617
56010W        W21237   0.787  37.258  11.946
56011W        W21238   8.688   3.823   4.192
56012W        W21239  40.298  20.094   4.568
56013W        W21240  37.816   6.491   2.702
56014W        W21241  21.346  31.216   4.229
56015W        W21242  22.006   0.447  13.893
56016W        W21243  26.965  18.862  14.525
56017W        W21244  11.890  37.098   0.437
56018W        W21245   2.911  33.992  11.532
56019W        W21246   9.629  28.978   0.912
56020W        W21247  24.099  11.354  11.676
56021W        W21248  25.298  17.237  13.697
56022W        W21249  24.583   2.528   2.242
56023W        W21250   3.707  14.549   1.748
56024W        W21251  35.601  14.413  10.597
56025W        W21252  14.608  43.158   3.466
56026W        W21253  26.543  29.943   4.577
56027W        W21254  23.122   7.150  12.390
56028W        W21255  17.068  28.009  13.383
56029W        W21256  34.994  18.569  13.012
56030W        W21257  27.095  25.360   4.556
56031W        W21258  20.455  18.075  11.114
56032W        W21259  21.076  28.022  12.537
56033W        W21260   5.978   8.171  13.526
56034W        W21261   6.660   7.237   3.278
56035W        W21262  19.374  28.666  11.101
56036W        W21263  31.784  37.111   2.647
56037W        W21264  13.473  23.240  12.626
56038W        W21265  21.253  34.287  10.469
56039W        W21266  29.163  15.379  14.280
56040W        W21267  35.778  34.926   1.333
56041W        W21268  33.877  18.109  10.740
56042W        W21269  10.271  24.748  11.333
56043W        W21270  30.568  30.996  14.850
56044W        W21271  44.426  39.191  12.971
56045W        W21272  14.809   5.533   1.323
56046W        W21273  13.639  24.103   3.665
56047W        W21274  33.062  33.015   0.771
56048W        W21275  34.214  16.554   3.443
56049W        W21276  27.700  30.345   2.087
56050W        W21277  23.592  17.853  14.286
56051W        W21278  12.875  26.099   0.982
56052W        W21279  16.196  43.797  13.878
56053W        W21280  17.296  12.256   2.384
56054W        W21281  43.538  10.759   2.554
56055W        W21282  32.619  16.534   1.238
56056W        W21283  17.126  25.777   2.749
56057W        W21284  28.413   0.792   3.938
56058W        W21285  29.139   3.756   1.967
56059W        W21286  36.425   3.617   4.080
56060W        W21287  26.191   3.484   2.605
56061W        W21288  25.564  44.567   4.748
56062W        W21289  11.484  13.743  12.568
56063W        W21290  19.345  11.525   3.224
56064W        W21291  14.387   5.717   4.110
56065W        W21292  18.728  39.652  12.959
56066W        W21293  16.838  40.664  11.056
56067W        W21294   7.938  41.676   1.920
56068W        W21295   2.856  28.806   3.671
56069W        W21296  28.333  15.232   3.242
56070W        W21297  19.798  34.142   0.357
56071W        W21298  42.545  39.598  14.983
56072W        W21299   5.339  34.138  14.618
56073W        W21300  24.608  10.088   3.216
56074W        W21301  28.585   1.298   0.429
56075W        W21302   4.040  12.865   1.966
56076W        W21303  43.480  41.750   4.666
56077W        W21304   8.967  26.620   0.281
56078W        W21305  20.089  19.045  11.981
56079W        W21306  30.093  40.784  11.504
56080W        W21307  37.378  44.074   0.420
56081W        W21308  12.183   3.489  13.844
56082W        W21309  18.524  36.597   2.064
56083W        W21310  38.835  25.586   0.758
56084W        W21311  31.112  10.387  13.279
56085W        W21312  10.671   3.750   4.131
56086W        W21313  36.473  40.865   0.752
56087W        W21314  16.143  19.047   0.414
56088W        W21315   7.224  22.256   2.274
56089W        W21316  27.166   6.340  12.929
56090W        W21317  21.759  17.633   4.646
56091W        W21318  32.119  23.792  11.143
56092W        W21319  29.757  39.865   2.610
56093W        W21320   1.326  26.272   0.011
56094W        W21321   4.198  17.937   4.607
56095W        W21322  10.750   6.909   0.935
56096W        W21323  27.121   0.441   0.328
56097W        W21324  10.343  10.799   2.140
56098W        W21325  19.083  26.174  10.978
56099W        W21326  28.127  15.266  10.594
56100W        W21327  22.249  32.053  11.250
56101W        W21328  20.461   5.395  11.030
56102W        W21329  24.576   3.775  14.437
56103W        W21330  11.779   0.814  11.696
56104W        W21331  42.171   3.037   3.695
56105W        W21332  36.125  34.861  11.117
56106W        W21333   9.433   5.928  13.952
56107W        W21334  19.696  38.025   2.729
56108W        W21335  14.610  44.812   2.606
56109W        W21336  32.085  11.314  14.338
56110W        W21337   9.919   3.334  12.014
56111W        W21338  41.908   6.802  11.695
56112W        W21339  17.810  18.660   0.886
56113W        W21340  16.138   6.761   0.397
56114W        W21341  29.650  37.329   0.979
56115W        W21342  33.570  12.723  14.396
56116W        W21343   3.354  32.888   2.762
56117W        W21344  22.860  43.396  12.958
56118W        W21345  10.625  41.860   3.723
56119W        W21346  24.496  27.347   0.271
56120W        W21347  41.784  10.639  11.675
56121W        W21348  17.349   1.879   4.133
56122W        W21349   5.762  39.748   1.825
56123W        W21350  19.826  38.887   3.134
56124W        W21351  41.624   3.316   4.679
56125W        W21352  14.253  29.111  11.086
56126W        W21353  42.397  15.546   4.160
56127W        W21354  22.327   0.640  12.576
56128W        W21355   5.908  39.122  13.477
56129W        W21356   8.141  25.362  12.909
56130W        W21357   3.823  31.944   3.354
56131W        W21358  40.227  40.486  11.335
56132W        W21359   1.947  10.374  10.996
56133W        W21360  13.771  39.274  13.426
56134W        W21361  31.912  38.743   1.222
56135W        W21362   0.513  12.166   0.075
56136W        W21363  35.594  39.688   4.255
56137W        W21364   8.686  18.792  14.919
56138W        W21365  19.710  13.156   1.819
56139W        W21366   2.841  22.349   9.777
56140W        W21367  27.232   7.978   1.241
56141W        W21368  16.636  18.763  11.212
56142W        W21369  42.499  23.275   0.167
56143W        W21370  36.420   8.604  12.655
56144W        W21371  25.112   3.017  14.417
56145W        W21372  31.958  41.906  11.338
56146W        W21373   9.649  33.579   3.889
56147W        W21374   8.366  30.541   1.401
56148W        W21375  37.290  23.707   4.574
56149W        W21376   3.227   6.245  12.588
56150W        W21377  33.917   9.343  13.983
56151W        W21378  35.432  28.178   3.471
56152W        W21379   7.781  11.927   1.861
56153W        W21380  16.282   3.038  12.506
56154W        W21381  29.791  33.468   3.677
56155W        W21382  39.902  26.683   1.910
56156W        W21383  22.696   1.364   0.351
56157W        W21384  23.576  16.543   2.129
56158W        W21385  26.945  21.383  13.001
56159W        W21386  40.153  24.313   5.074
56160W        W21387  38.092  11.841   3.661
56161W        W21388  19.047   1.271  14.035
56162W        W21389   5.396   2.383  14.977
56163W        W21390  28.531   8.692  14.725
56164W        W21391  21.584  10.827  14.997
56165W        W21392  37.116   4.502  13.955
56166W        W21393   7.261   6.777   0.189
56167W        W21394  38.607  16.605   1.628
56168W        W21395  26.641  40.636   0.996
56169W        W21396  14.305  31.131   0.864
56170W        W21397  28.983   8.114  11.683
56171W        W21398  41.529  41.058   1.744
56172W        W21399  18.046  37.880  12.851
56173W        W21400  37.365   4.549  11.190
56174W        W21401  15.161  18.790  13.494
56175W        W21402  14.654  41.768   0.094
56176W        W21403  18.789  14.022   0.326
56177W        W21404  36.244  13.842  13.929
56178W        W21405  22.150  19.658   5.084
56179W        W21406  35.562  13.623   3.017
56180W        W21407  37.480   6.658   1.028
56181W        W21408   8.529  33.856  12.446
56182W        W21409  11.227  38.893   4.562
56183W        W21410   1.972   7.118   4.874
56184W        W21411   6.343  21.269   4.783
56185W        W21412  23.910   4.926  14.809
56186W        W21413   0.407  17.339  11.342
56187W        W21414  14.284  19.527  13.930
56188W        W21415  40.533  38.334  12.637
56189W        W21416  43.381   4.415   4.018
56190W        W21417  38.383   5.307   0.540
56191W        W21418  41.103  31.887  11.952
56192W        W21419  31.961  28.567  13.259
56193W        W21420  26.116   3.400   2.100
56194W        W21421  19.806  38.097  13.654
56195W        W21422  14.231  30.660  12.387
56196W        W21423  20.120   1.803  14.930
56197W        W21424  19.355  12.115   0.429
56198W        W21425  39.106  32.813  13.921
56199W        W21426  17.684  14.252   4.109
56200W        W21427  38.858   4.358   1.454
56201W        W21428  15.488   9.352   1.849
56202W        W21429  24.053   2.626  13.990
56203W        W21430  11.657   1.025  10.158
56204W        W21431  39.131  41.328   0.296
56205W        W21432  35.887  15.330   3.708
56206W        W21433  33.938   1.435  10.695
56207W        W21434  14.607  42.305  14.434
56208W        W21435  38.995  22.060  14.049
56209W        W21436  21.584  37.854   1.099
56210W        W21437  18.596  18.111  14.430
56211W        W21438  19.534   2.992   3.153
56212W        W21439  14.156  20.712  11.692
56213W        W21440  26.160   8.811  13.178
56214W        W21441  36.036   8.339  13.836
56215W        W21442  32.352  40.885   9.848
56216W        W21443  36.771  36.634   3.022
56217W        W21444  41.458  41.806   4.508
56218W        W21445  14.929  15.544  11.630
56219W        W21446  23.576  42.028  14.477
56220W        W21447   9.581   7.944   0.328
56221W        W21448  40.838   8.721   4.313
56222W        W21449  18.793   4.619  10.247
56223W        W21450  16.798  16.098  12.639
56224W        W21451  16.828   3.865  12.849
56225W        W21452  38.033  14.817  13.947
56226W        W21453  32.382   0.408  12.682
56227W        W21454  32.915  36.877   0.775
56228W        W21455  13.124   8.258   4.248
56229W        W21456   3.833   6.165   0.401
56230W        W21457  25.770  29.460   0.169
56231W        W21458  32.151   1.732   2.292
56232W        W21459  15.514  44.038   4.215
56233W        W21460  42.178  20.584  12.556
56234W        W21461   6.471  13.744   2.110
56235W        W21462  29.536   4.852  13.920
56236W        W21463  23.574  10.396  14.948
56237W        W21464  36.554   8.128  13.853
56238W        W21465  42.060   8.214  10.813
56239W        W21466  20.123   7.416  11.584
56240W        W21467   4.373  36.532   3.159
56241W        W21468  18.290  17.556   2.588
56242W        W21469  31.422  39.982   0.864
56243W        W21470  21.554  31.642  12.877
56244W        W21471  36.967  39.387  14.726
56245W        W21472  32.980  26.980  13.051
56246W        W21473  36.656  31.638  14.401
56247W        W21474  11.397  36.352   3.548
56248W        W21475  35.999  24.659   3.244
56249W        W21476   2.288  40.903  13.990
56250W        W21477  20.288   9.271   1.534
56251W        W21478  22.202  32.209   3.477
56252W        W21479  33.571  10.339  12.014
56253W        W21480  18.729  25.668   1.001
56254W        W21481  34.212  31.199   2.717
56255W        W21482  34.691  20.719   4.745
56256W        W21483   4.342  43.207  12.398
56257W        W21484  39.051  25.376   2.751
56258W        W21485  29.727  17.166   0.781
56259W        W21486   2.187  19.784  11.329
56260W        W21487  32.032  10.356   0.289
56261W        W21488  19.525  27.011   4.016
56262W        W21489  17.348   0.352  13.924
56263W        W21490  21.878   7.382   2.623
56264W        W21491  12.720   6.203   0.021
56265W        W21492  16.238  11.775  11.546
56266W        W21493  36.577  36.912  12.039
56267W        W21494  15.236  14.517  13.511
56268W        W21495   0.936  21.698   4.273
56269W        W21496   5.831  32.779  11.751
56270W        W21497   9.756  34.412  14.101
56271W        W21498  21.010   1.406  11.393
56272W        W21499   2.314  35.448   0.322
56273W        W21500  16.791  12.828   4.647
56274W        W21501   6.399  41.529   4.189
56275W        W21502  32.113  28.160   2.291
56276W        W21503  35.871  31.763  10.931
56277W        W21504  11.262   3.342   4.420
56278W        W21505  12.052  19.586  13.612
56279W        W21506  21.188  21.506  14.725
56280W        W21507  30.692   2.145   0.917
56281W        W21508  31.942  17.793   9.855
56282W        W21509   1.892  32.441  13.229
56283W        W21510  16.296  10.937   2.343
56284W        W21511  27.094  18.700   4.189
56285W        W21512  22.187   0.339   1.635
56286W        W21513  27.543  31.379   0.401
56287W        W21514  29.098  18.955   4.109
56288W        W21515  33.977  25.128   3.077
56289W        W21516  31.422  10.475   1.567
56290W        W21517  16.804  44.768   2.797
56291W        W21518   9.458  34.918  12.307
56292W        W21519   5.511  28.497   9.960
56293W        W21520  39.762  24.024   2.822
56294W        W21521  17.395  24.609   0.940
56295W        W21522  43.028   2.349  13.903
56296W        W21523  40.432  23.666  13.522
56297W        W21524  10.338  21.039   0.962
56298W        W21525  30.079  39.794   0.305
56299W        W21526   9.262  18.264   2.471
56300W        W21527  23.102  33.024   1.265
56301W        W21528  17.313  35.861  12.021
56302W        W21529  37.634  33.362   0.935
56303W        W21530  23.207  25.042   2.416
56304W        W21531   4.781  26.407  11.020
56305W        W21532  27.641   0.444   0.176
56306W        W21533  31.197  30.443  12.888
56307W        W21534   1.264  16.241  11.837
56308W        W21535   3.500   1.358   3.997
56309W        W21536  14.235  41.889   0.371
56310W        W21537  22.198   1.509   5.442
56311W        W21538   7.055   8.695   0.797
56312W        W21539  35.401   0.048   1.397
56313W        W21540  20.150  10.610  12.032
56314W        W21541   2.863   9.647  12.251
56315W        W21542  10.343  16.468  13.931
56316W        W21543  36.684  38.643  14.399
56317W        W21544  18.863  17.733   4.355
56318W        W21545  38.356  44.446   1.906
56319W        W21546  43.319  16.460   1.160
56320W        W21547  43.032  42.823   1.060
56321W        W21548  28.547  24.126   2.467
56322W        W21549   0.800   0.912  13.007
56323W        W21550  12.802  23.289  10.788
56324W        W21551  37.309  18.132  14.887
56325W        W21552  31.404  14.486   3.658
56326W        W21553  43.139  23.107   5.033
56327W        W21554  19.095  20.987   2.151
56328W        W21555   7.410   1.026   2.250
56329W        W21556  20.217   3.108  11.970
56330W        W21557  35.387   3.197  13.026
56331W        W21558  21.657  29.208  12.534
56332W        W21559  24.400  23.183   3.042
56333W        W21560  28.629  33.077  11.211
56334W        W21561  42.884  26.083  10.447
56335W        W21562  28.189   3.849  11.894
56336W        W21563  30.618  18.854  11.240
56337W        W21564  25.775  14.039   1.471
56338W        W21565   1.409  11.898   2.174
56339W        W21566  37.125  19.067   2.596
56340W        W21567   8.710  10.118   5.396
56341W        W21568  21.671  21.013   4.680
56342W        W21569  24.171  19.593   4.582
56343W        W21570  25.518  37.811   2.615
56344W        W21571   0.390  24.717  10.921
56345W        W21572  28.648  19.828   0.183
56346W        W21573   3.013   1.192  13.391
56347W        W21574  22.230  39.102  11.175
56348W        W21575  23.478  41.860  10.903
56349W        W21576   9.877  12.283  12.016
56350W        W21577  21.987  38.966  14.534
56351W        W21578  30.563   2.075  12.015
56352W        W21579  19.091   0.267   1.052
56353W        W21580   1.274  20.318   0.881
56354W        W21581  18.188   3.021   0.252
56355W        W21582   5.439  11.834   3.089
56356W        W21583  19.676  26.996  14.709
56357W        W21584   6.225  38.616  13.060
56358W        W21585   5.421  29.677  12.529
56359W        W21586  14.592  18.596  10.557
56360W        W21587  12.902   3.594  14.367
56361W        W21588  14.185  21.244  14.757
56362W        W21589  11.291  32.515   0.186
56363W        W21590  24.470   5.172  11.501
56364W        W21591  28.143   9.315   1.681
56365W        W21592  17.740  16.847  13.944
56366W        W21593  25.119   5.190   3.619
56367W        W21594   1.071  39.539  10.931
56368W        W21595   3.255   4.214  14.217
56369W        W21596  33.219  31.034   2.662
56370W        W21597  23.857  15.071  11.519
56371W        W21598  36.972   2.278  12.547
56372W        W21599  31.304   2.083   0.325
56373W        W21600  31.977  24.446   2.645
56374W        W21601   4.416   9.893   3.223
56375W        W21602  19.830  41.296   4.655
56376W        W21603  40.052  14.544   0.038
56377W        W21604   8.700  43.789  14.304
56378W        W21605  22.015  43.939  14.796
56379W        W21606  24.135  35.531  11.987
56380W        W21607  21.700  34.873  14.798
56381W        W21608  40.959  25.948  12.814
56382W        W21609  40.479  38.425   4.642
56383W        W21610   0.178   7.662  13.793
56384W        W21611   7.443  37.951   1.855
56385W        W21612   0.039  41.317  14.338
56386W        W21613  29.891  43.272  12.009
56387W        W21614  32.654  15.974   0.530
56388W        W21615  13.286  19.754   0.731
56389W        W21616  30.489   8.094   3.303
56390W        W21617  16.151  33.903   2.347
56391W        W21618   1.314  32.183   4.553
56392W        W21619  11.809  36.329  12.199
56393W        W21620   1.172   7.575   2.695
56394W        W21621  43.763  22.631   1.073
56395W        W21622  41.025  36.534  13.620
56396W        W21623   5.761  30.200   2.757
56397W        W21624  14.253  37.911   2.879
56398W        W21625  21.014  24.525   1.265
56399W        W21626  22.447  18.507  11.185
56400W        W21627  28.978   3.799  12.530
56401W        W21628  13.272   7.839  13.952
56402W        W21629  37.092   7.035  11.244
56403W        W21630  43.804  29.987   2.894
56404W        W21631  20.657  22.127  11.278
56405W        W21632  21.021  12.484   3.257
56406W        W21633  19.278  41.919  10.941
56407W        W21634  24.035  22.142   4.642
56408W        W21635  15.217  17.075  14.269
56409W        W21636  39.098  33.502  14.853
56410W        W21637  33.124   4.375  13.539
56411W        W21638   1.552   6.309  14.473
56412W        W21639  15.926  21.275  13.518
56413W        W21640  32.885  23.516  13.317
56414W        W21641  10.343  28.930  13.146
56415W        W21642  15.614  23.952   2.685
56416W        W21643  24.190   6.556  12.078
56417W        W21644  13.727  28.407  12.515
56418W        W21645   6.655   6.325  12.629
56419W        W21646  34.559  40.482   2.102
56420W        W21647  11.805   4.352   4.621
56421W        W21648  40.916  21.574  14.944
56422W        W21649   4.295  12.841   1.519
56423W        W21650  42.493  31.594   2.349
56424W        W21651   9.648  41.838   3.154
56425W        W21652   9.767  24.446  11.573
56426W        W21653  42.959   1.391  13.718
56427W        W21654  28.700  27.989   0.791
56428W        W21655  25.064  42.915   1.274
56429W        W21656   6.208   6.359  14.492
56430W        W21657  39.785  37.765   1.210
56431W        W21658  22.190  37.359   3.237
56432W        W21659  28.025  13.656  13.608
56433W        W21660  41.467  18.416  13.849
56434W        W21661  12.792  42.065   0.975
56435W        W21662   6.970  42.314  11.942
56436W        W21663  34.840  29.214  12.483
56437W        W21664  36.028  35.917  12.959
56438W        W21665  10.756  25.176  14.679
56439W        W21666   7.759  41.812  14.837
56440W        W21667   9.404  16.580  13.019
56441W        W21668  31.471   4.939   4.532
56442W        W21669  18.122   0.894  10.743
56443W        W21670   6.685  16.568   0.986
56444W        W21671   1.445  27.064   3.549
56445W        W21672   0.856  30.700   1.755
56446W        W21673  28.088  23.123   4.272
56447W        W21674  21.516  23.046   2.212
56448W        W21675  43.457  30.618   1.418
56449W        W21676   9.282   7.251  13.036
56450W        W21677   7.964  14.753   3.247
56451W        W21678  11.289  12.818   2.229
56452W        W21679  16.334  28.026   1.409
56453W        W21680  31.479  32.043  10.687
56454W        W21681  35.528   1.938   1.505
56455W        W21682  26.631  24.531  11.156
56456W        W21683  20.194   2.220   1.251
56457W        W21684   2.756  41.852   4.501
56458W        W21685   2.535  31.391   3.165
56459W        W21686  34.145  34.242  12.438
56460W        W21687  11.580  41.833   1.309
56461W        W21688  39.104  34.571   4.277
56462W        W21689  18.301  38.489   4.579
56463W        W21690   2.216  25.018   1.403
56464W        W21691  15.056  30.097   0.437
56465W        W21692  15.606  38.773   0.149
56466W        W21693  21.825  27.141   4.147
56467W        W21694  32.067  39.279   2.877
56468W        W21695   1.207  10.121   1.791
56469W        W21696  20.009  41.828  13.033
56470W        W21697  20.148  35.841   0.895
56471W        W21698  37.251  39.994  13.971
56472W        W21699  40.031  25.435   4.734
56473W        W21700  28.008  42.416   3.832
56474W        W21701  39.430  15.649  12.115
56475W        W21702  25.676  30.969   3.014
56476W        W21703  33.972  23.770  11.159
56477W        W21704  30.540  29.978   1.666
56478W        W21705  17.576   6.777   0.979
56479W        W21706  44.900  23.577   0.594
56480W        W21707  29.815   2.555   0.350
56481W        W21708  39.971  35.052  11.490
56482W        W21709   7.472   1.836   4.701
56483W        W21710   7.961  10.219  13.746
56484W        W21711   3.890  20.185   1.457
56485W        W21712  39.401   3.740   2.755
56486W        W21713  25.704  37.285   2.856
56487W        W21714  37.510  12.868   1.523
56488W        W21715  26.561  34.092  11.934
56489W        W21716  39.134  15.965   1.827
56490W        W21717  36.587   3.836   0.359
56491W        W21718  34.372  13.025   1.882
56492W        W21719   8.168  12.499   2.122
56493W        W21720  41.496  14.646   1.312
56494W        W21721  44.716   4.529   4.014
56495W        W21722  15.710  11.869  11.555
56496W        W21723  11.280  35.109  13.628
56497W        W21724  13.619  30.887  14.934
56498W        W21725   6.564  44.955   3.271
56499W        W21726   4.975  37.403   4.015
56500W        W21727   8.591  43.757   0.697
56501W        W21728  25.177   7.210   1.851
56502W        W21729  34.264   2.622   0.850
56503W        W21730  31.444  34.509  13.876
56504W        W21731  16.585   8.321   1.685
56505W        W21732  29.102  44.480   1.486
56506W        W21733  12.379  44.887   4.489
56507W        W21734  33.036   7.743  14.603
56508W        W21735   5.633   0.156   2.851
56509W        W21736  14.355  27.482   2.813
56510W        W21737  39.286   0.497  13.391
56511W        W21738  20.308  37.541   4.579
56512W        W21739  11.599  33.093   1.813
56513W        W21740   5.428  40.934   3.136
56514W        W21741  33.478  31.056   4.569
56515W        W21742   5.539  34.403   4.713
56516W        W21743  24.295  39.106  11.994
56517W        W21744  15.139  16.672  14.581
56518W        W21745  13.276   4.977   4.720
56519W        W21746  27.961   0.755  14.060
56520W        W21747  43.134  40.544  13.651
56521W        W21748   4.785  34.138  12.371
56522W        W21749  30.537  29.496  10.517
56523W        W21750  24.494   1.060   2.232
56524W        W21751   4.974   0.313   2.188
56525W        W21752  23.466  19.794   2.842
56526W        W21753   2.147  24.582  13.091
56527W        W21754  30.723   8.112   3.778
56528W        W21755  21.241  35.332   0.442
56529W        W21756   7.679  13.194  14.206
56530W        W21757  17.332  22.079   0.921
56531W        W21758   5.661  37.952   1.275
56532W        W21759  32.441  22.433   4.139
56533W        W21760   6.387  17.256   1.762
56534W        W21761  42.320  14.582   1.722
56535W        W21762  38.815  26.710   1.269
56536W        W21763  38.125  20.562   1.776
56537W        W21764  31.317  10.695  11.690
56538W        W21765  14.161  34.878   0.737
56539W        W21766  16.751  12.635  14.947
56540W        W21767  19.273  13.287   0.295
56541W        W21768  32.469  35.588   3.735
56542W        W21769  25.793  27.684   2.012
56543W        W21770  15.308  32.505  12.915
56544W        W21771   0.728  41.684   2.837
56545W        W21772  43.219  23.334   3.568
56546W        W21773  16.015  13.590   0.349
56547W        W21774  15.891   1.723  14.980
56548W        W21775   3.337   4.630   4.150
56549W        W21776  40.867  11.797   1.232
56550W        W21777   0.475  43.553   2.658
56551W        W21778  33.849   4.851  12.542
56552W        W21779   6.261  31.113  11.765
56553W        W21780   9.379   4.249  13.369
56554W        W21781  17.028   7.260  11.456
56555W        W21782  27.617  39.245  14.856
56556W        W21783  22.773  42.792   3.229
56557W        W21784  34.428  27.549  13.074
56558W        W21785  36.429   3.526   4.658
56559W        W21786  41.770  41.963   2.710
56560W        W21787  37.684  28.059   2.694
56561W        W21788  19.052  40.940   3.985
56562W        W21789  37.958  20.347   4.649
56563W        W21790  23.951   9.130  13.490
56564W        W21791  42.550  29.347   0.407
56565W        W21792  37.963  22.499   2.749
56566W        W21793  30.381  27.821   1.279
56567W        W21794  10.750   4.163   2.795
56568W        W21795  12.366  31.482  14.777
56569W        W21796   0.338  10.944  13.022
56570W        W21797   3.463  44.126  12.113
56571W        W21798  30.689   8.639   2.205
56572W        W21799  18.082  20.065   1.239
56573W        W21800   1.285  19.803   0.941
56574W        W21801   6.506   3.896  14.564
56575W        W21802   6.701  21.405   4.367
56576W        W21803  26.101  15.328   3.641
56577W        W21804  13.986  23.645   3.756
56578W        W21805  44.230  10.187   1.757
56579W        W21806   2.853  36.073   3.900
56580W        W21807  29.349  25.927  13.347
56581W        W21808  14.547  36.487   3.201
56582W        W21809  12.038  28.970  11.781
56583W        W21810   4.833  28.443   9.543
56584W        W21811  10.217  31.531   2.603
56585W        W21812  31.943  19.813  12.261
56586W        W21813  22.982  11.392   3.971
56587W        W21814  36.562  39.831   1.398
56588W        W21815  31.034  25.195  14.979
56589W        W21816  28.039  33.065   0.874
56590W        W21817  36.677  15.065  13.029
56591W        W21818   7.930  16.675   4.406
56592W        W21819   9.449  42.829   4.096
56593W        W21820   2.740   6.934   2.667
56594W        W21821  20.469  16.539  14.744
56595W        W21822  20.380   4.704  13.678
56596W        W21823  32.186  11.620   1.807
56597W        W21824  23.742  38.450   2.002
56598W        W21825  29.179  37.490  13.888
56599W        W21826  12.514  28.380  12.143
56600W        W21827  34.532  18.602   3.332
56601W        W21828  10.396   7.186  13.925
56602W        W21829  34.732  44.065   5.011
56603W        W21830   1.858  35.344  14.552
56604W        W21831  16.828   7.183   4.615
56605W        W21832  41.008   1.481   0.947
56606W        W21833  38.960  36.432   9.739
56607W        W21834   7.907  14.940  11.646
56608W        W21835   9.707  29.965   2.758
56609W        W21836  29.340  44.775  12.562
56610W        W21837   3.143  34.932   3.466
56611W        W21838  30.288  13.703   2.808
56612W        W21839   9.645  39.042   3.172
56613W        W21840   6.323  30.943   4.314
56614W        W21841  44.432  11.672  12.179
56615W        W21842  40.985  31.492   3.663
56616W        W21843  20.959   2.967   0.849
56617W        W21844  40.986  36.361   0.629
56618W        W21845   9.827  15.192   2.949
56619W        W21846  40.558  30.550  14.708
56620W        W21847  18.914  40.593  14.339
56621W        W21848   0.942  29.476  13.811
56622W        W21849  33.489  18.179   3.790
56623W        W21850  22.151   5.890  14.578
56624W        W21851  10.812  37.097   5.480
56625W        W21852  25.948  33.642  11.922
56626W        W21853  23.051  20.774  11.568
56627W        W21854  31.195  28.887   1.896
56628W        W21855  13.763  35.844  12.412
56629W        W21856   2.877   2.749   3.311
56630W        W21857  35.340  39.452   0.809
56631W        W21858  21.746  18.041  12.716
56632W        W21859  31.183  35.981   0.053
56633W        W21860  28.621  18.076  11.467
56634W        W21861  21.596  27.083  14.687
56635W        W21862  29.706  44.869   3.426
56636W        W21863   9.427  20.194   1.014
56637W        W21864   7.056  33.610   2.713
56638W        W21865  28.709   9.429  14.978
56639W        W21866   5.456  27.550  14.981
56640W        W21867  39.234  14.387  12.125
56641W        W21868  23.684  16.546  14.267
56642W        W21869  18.217  41.806   4.070
56643W        W21870  19.490   8.203  11.655
56644W        W21871   9.163  18.679   0.723
56645W        W21872  24.592  38.798   2.757
56646W        W21873   7.860   7.668   3.819
56647W        W21874  25.494  26.707   2.248
56648W        W21875  15.626  25.678   4.149
56649W        W21876  23.452  18.753   2.762
56650W        W21877   4.641  14.630   9.920
56651W        W21878  32.404  17.386  11.002
56652W        W21879  20.744  17.612  14.161
56653W        W21880  19.732  23.022  10.851
56654W        W21881   8.216  39.608   1.307
56655W        W21882   7.556  38.413  12.141
56656W        W21883  28.869  13.831   1.375
56657W        W21884  32.708  29.485   0.330
56658W        W21885   3.120  32.985  12.943
56659W        W21886  40.435  16.306  13.530
56660W        W21887  29.253  26.220   3.078
56661W        W21888   8.092  12.836   3.717
56662W        W21889   0.703  38.054   4.692
56663W        W21890   8.409   7.175   0.830
56664W        W21891  41.087   4.925   3.682
56665W        W21892  30.738  22.560  11.515
56666W        W21893  29.539  35.487   1.748
56667W        W21894  21.008  27.621  14.473
56668W        W21895   1.014  29.946   4.999
56669W        W21896   4.117  29.773   2.244
56670W        W21897  40.889  16.919   0.761
56671W        W21898  14.308  37.451   4.639
56672W        W21899  43.090   8.812   4.616
56673W        W21900  19.863  31.695   0.240
56674W        W21901  43.155  12.124   4.650
56675W        W21902  40.777  33.467   4.052
56676W        W21903  18.837   4.446  12.049
56677W        W21904  30.979  26.868   4.413
56678W        W21905  28.923  44.310  13.503
56679W        W21906  30.500  10.118  12.567
56680W        W21907   1.629   8.219  13.906
56681W        W21908  20.124  31.557   3.673
56682W        W21909   4.712  28.718   2.301
56683W        W21910   3.723  15.667  14.750
56684W        W21911   4.724  16.849  13.685
56685W        W21912  18.679  33.587   3.095
56686W        W21913  29.733  35.581  11.848
56687W        W21914  20.267  13.275   0.450
56688W        W21915  38.390  34.834  11.315
56689W        W21916  41.747  24.139   3.195
56690W        W21917   1.490  35.587   0.391
56691W        W21918  25.018  26.219  10.859
56692W        W21919  41.830  41.102  12.447
56693W        W21920   9.441  18.192  14.889
56694W        W21921   1.269   6.582  12.892
56695W        W21922  38.962  39.358   0.217
56696W        W21923  43.115  35.852   3.544
56697W        W21924   8.204  39.773   0.803
56698W        W21925   5.379  31.029   1.401
56699W        W21926  39.386  11.208   2.447
56700W        W21927  29.429  39.846   3.605
56701W        W21928  16.625  14.039  12.546
56702W        W21929  39.111  38.471  12.754
56703W        W21930  15.050  13.102   4.981
56704W        W21931  29.502   0.639  12.111
56705W        W21932  22.808  13.218  14.896
56706W        W21933  32.331  31.848  14.977
56707W        W21934  14.404  28.902   0.835
56708W        W21935  21.484  26.466  13.782
56709W        W21936   2.102  27.694  14.369
56710W        W21937   3.416  30.527   0.051
56711W        W21938  34.029   1.584   3.531
56712W        W21939  16.925  23.579   1.841
56713W        W21940  38.075  40.786   2.347
56714W        W21941  37.927  36.056   0.165
56715W        W21942  39.481   7.771   2.332
56716W        W21943   9.616  10.491  13.016
56717W        W21944  19.170  43.775  12.685
56718W        W21945   9.629  44.249   4.539
56719W        W21946  16.283   0.326  11.689
56720W        W21947   5.754  31.664  14.810
56721W        W21948  22.189  13.627  10.784
56722W        W21949  39.125  33.399   3.344
56723W        W21950  11.796   6.472   2.254
56724W        W21951  32.901  20.260  14.615
56725W        W21952  36.043  33.333  14.115
56726W        W21953  34.884   6.887   1.800
56727W        W21954   2.216  20.311   5.297
56728W        W21955  27.027   6.090   9.753
56729W        W21956  19.781  25.024  13.883
56730W        W21957  23.752  10.455   1.342
56731W        W21958  30.224   0.251  14.013
56732W        W21959  40.305  22.184   2.047
56733W        W21960  21.706   8.621  11.495
56734W        W21961   9.000  20.830   2.254
56735W        W21962  21.456  26.659  11.061
56736W        W21963  20.771   4.331   2.261
56737W        W21964  15.716   5.431  11.537
56738W        W21965  34.561  14.197   2.348
56739W        W21966  23.266  43.659   3.047
56740W        W21967  44.626  41.393  10.807
56741W        W21968  14.215  26.754   2.122
56742W        W21969  31.705   2.828  12.394
56743W        W21970   8.326  17.020   3.459
56744W        W21971  33.254  10.448  13.947
56745W        W21972  26.782   9.346   2.308
56746W        W21973  15.549  29.192   3.648
56747W        W21974  26.037  33.675   3.752
56748W        W21975  44.060  40.108  11.231
56749W        W21976   7.969  25.561  10.851
56750W        W21977   6.495  19.564   3.640
56751W        W21978  38.803  11.647   1.394
56752W        W21979   5.466  33.839  13.777
56753W        W21980  40.810  21.267  14.473
56754W        W21981  33.868   7.460  12.519
56755W        W21982   2.032  14.856   0.110
56756W        W21983  31.487  22.009  13.656
56757W        W21984  33.816  25.181  11.703
56758W        W21985  18.000  21.632   4.404
56759W        W21986  39.935  11.252  12.910
56760W        W21987   4.826  20.189   3.250
56761W        W21988  11.029  13.649  13.985
56762W        W21989  37.019   4.334  12.539
56763W        W21990  38.831  18.651  11.657
56764W        W21991  22.710  26.883  13.181
56765W        W21992  34.333  35.121  11.496
56766W        W21993  23.124  44.756   4.074
56767W        W21994  29.787  23.705   2.221
56768W        W21995  31.241  18.043  11.021
56769W        W21996   8.353  25.231  11.543
56770W        W21997  38.751  35.269   4.117
56771W        W21998   9.678  20.965   0.268
56772W        W21999  11.816   8.747  13.495
56773W        W22000  19.031  19.959   2.475
56774W        W22001  41.728  39.000  14.572
56775W        W22002  14.514   1.025   0.880
56776W        W22003  38.938  10.416  10.742
56777W        W22004  29.054  40.499   4.745
56778W        W22005  43.298  34.602   0.090
56779W        W22006   2.874  43.181  10.778
56780W        W22007  13.667  30.157   4.389
56781W        W22008  41.713  17.239   3.643
56782W        W22009  11.561  44.817   2.270
56783W        W22010  11.204  20.896   4.965
56784W        W22011  40.060  24.271  14.750
56785W        W22012  17.232  20.607  14.886
56786W        W22013  43.894  34.582   2.300
56787W        W22014  31.973  30.461   0.981
56788W        W22015  31.934  13.887   3.318
56789W        W22016  35.199  42.604   1.646
56790W        W22017  21.231  10.142   0.912
56791W        W22018  34.211  41.852  10.753
56792W        W22019  37.872  41.239   2.457
56793W        W22020  38.207  21.300   1.388
56794W        W22021  21.257  12.159  13.504
56795W        W22022  14.607   5.991   2.768
56796W        W22023  34.931  29.000   4.239
56797W        W22024  34.211  41.347  11.335
56798W        W22025  38.688   7.453   2.973
56799W        W22026   4.406  40.599   4.140
56800W        W22027  26.964   7.297  14.526
56801W        W22028   8.921  18.164  14.937
56802W        W22029  15.667  37.184  10.698
56803W        W22030  28.376   2.040   4.915
56804W        W22031  27.557  13.607  10.607
56805W        W22032  17.471  37.678   3.817
56806W        W22033   4.372  28.489  14.944
56807W        W22034  25.531   8.141   3.669
56808W        W22035  20.756  25.720  11.414
56809W        W22036  23.226  17.884  11.151
56810W        W22037  30.094  40.939  14.594
56811W        W22038  40.139  32.927   2.653
56812W        W22039  15.210  31.500   0.966
56813W        W22040  43.929  28.136  14.034
56814W        W22041  30.563  30.994  12.710
56815W        W22042   6.621  21.329  14.393
56816W        W22043  33.955  14.565   1.262
56817W        W22044  28.423  27.732   1.241
56818W        W22045  36.666  30.255  11.916
56819W        W22046   9.623  38.588  11.960
56820W        W22047  38.062  30.171   0.339
56821W        W22048  38.078  11.150   0.600
56822W        W22049  13.536   7.042  12.559
56823W        W22050  40.493  20.832   3.085
56824W        W22051  43.700   2.139  11.460
56825W        W22052   7.871  41.975  14.353
56826W        W22053  27.509  33.628   3.305
56827W        W22054   2.733  30.495   1.286
56828W        W22055  32.342  42.339  13.948
56829W        W22056  26.089  38.075   4.588
56830W        W22057  19.967   3.930   3.353
56831W        W22058   6.349  36.451   3.004
56832W        W22059   5.769  13.259   2.687
56833W        W22060  18.022  29.218   1.857
56834W        W22061  39.494   6.817   2.533
56835W        W22062   7.831  29.780   4.769
56836W        W22063  31.602   9.623  10.321
56837W        W22064  39.288  26.936   4.768
56838W        W22065  13.998  17.782   1.866
56839W        W22066  40.929  36.967   2.851
56840W        W22067  40.285  18.758   2.558
56841W        W22068  10.622   1.662   4.098
56842W        W22069   6.397   7.453  12.041
56843W        W22070  20.289  14.866  12.358
56844W        W22071   3.939   5.818  14.623
56845W        W22072  15.126   2.894  12.161
56846W        W22073  38.563  12.528  14.108
56847W        W22074  11.718   3.814  13.566
56848W        W22075  33.304  44.840  12.815
56849W        W22076  11.513  44.511  10.215
56850W        W22077  39.850  23.650   1.123
56851W        W22078  23.887  21.590   0.255
56852W        W22079  41.310  18.701  14.996
56853W        W22080  31.843  42.528  10.752
56854W        W22081  14.415  30.681   3.108
56855W        W22082  41.838  29.604   1.385
56856W        W22083   9.448  43.446   0.890
56857W        W22084  20.132  44.928   0.850
56858W        W22085  38.551  40.328   1.107
56859W        W22086  19.732   6.243   1.913
56860W        W22087  37.038  10.832  14.919
56861W        W22088  40.111  17.562  13.808
56862W        W22089  25.960  24.961   0.361
56863W        W22090   4.063  44.632   0.509
56864W        W22091  17.086  39.937  10.513
56865W        W22092  18.688   5.363   3.414
56866W        W22093  32.947  24.051  13.408
56867W        W22094  41.905   7.526   3.627
56868W        W22095  11.443   0.321   2.329
56869W        W22096  16.096  23.699  13.308
56870W        W22097  26.280  36.243   1.344
56871W        W22098  26.254   9.790  12.646
56872W        W22099  10.396  24.680   1.335
56873W        W22100  38.961  14.294  13.147
56874W        W22101  43.329  21.015  12.119
56875W        W22102  27.479  17.186  13.558
56876W        W22103   3.580  35.071   3.699
56877W        W22104  17.259  32.435   3.161
56878W        W22105  32.944  19.174   1.933
56879W        W22106  44.845  38.371   4.346
56880W        W22107  40.534  42.470   1.708
56881W        W22108  22.453  35.633   2.643
56882W        W22109   7.387  34.918   3.834
56883W        W22110  26.564  30.027  12.532
56884W        W22111  23.217  21.257  11.745
56885W        W22112   5.938  23.957  12.544
56886W        W22113   8.929  43.817   2.827
56887W        W22114  39.426  23.320  13.797
56888W        W22115  20.806  19.555  11.955
56889W        W22116   2.252  27.173   2.267
56890W        W22117  37.393  32.084   3.741
56891W        W22118  28.495  31.450   0.953
56892W        W22119  10.708  29.360  14.517
56893W        W22120   7.861  10.196  13.236
56894W        W22121  34.535  13.685   3.637
56895W        W22122  22.422  20.631  10.308
56896W        W22123  18.352  34.429   1.162
56897W        W22124  10.512  13.833  13.957
56898W        W22125  44.061  38.046  14.587
56899W        W22126  29.417  32.911   3.819
56900W        W22127   5.412  13.351  14.069
56901W        W22128  24.570  26.314   4.733
56902W        W22129  32.528  20.865  12.069
56903W        W22130  44.196  19.550   4.501
56904W        W22131  15.010  42.465   0.382
56905W        W22132  25.997   2.114   2.719
56906W        W22133  20.971   0.946   3.096
56907W        W22134  11.782  13.385   5.023
56908W        W22135  37.624  43.586   2.266
56909W        W22136  17.372  10.222  10.663
56910W        W22137  37.548  21.184   2.219
56911W        W22138  25.616  15.269  14.329
56912W        W22139  19.067  12.566   0.580
56913W        W22140  14.698  18.783  11.880
56914W        W22141   8.043   8.172  10.447
56915W        W22142  30.107  43.420   2.884
56916W        W22143  44.555  17.822   0.308
56917W        W22144  35.548  22.174  12.838
56918W        W22145  33.475  39.482   2.743
56919W        W22146  18.678   3.323   5.165
56920W        W22147   5.333  22.999   3.337
56921W        W22148  28.326  26.414   2.708
56922W        W22149  27.685  33.441   0.706
56923W        W22150  17.642  25.491   1.345
56924W        W22151  29.041  38.612  13.469
56925W        W22152   8.963  30.725  10.611
56926W        W22153   7.760  36.344   1.876
56927W        W22154   4.752  15.008   1.706
56928W        W22155  17.025  26.904  10.697
56929W        W22156  42.962  13.296  13.415
56930W        W22157  16.135  40.227   0.931
56931W        W22158  42.021   5.507  11.163
56932W        W22159   0.891  40.983   1.193
56933W        W22160   3.249  39.830   2.367
56934W        W22161  39.891  30.696   1.199
56935W        W22162  41.082  36.595  11.142
56936W        W22163   2.366   4.518   4.696
56937W        W22164  29.360  12.349  13.898
56938W        W22165  31.450  27.688   9.843
56939W        W22166  16.576   6.475  12.455
56940W        W22167  35.889  29.740  14.418
56941W        W22168  30.734  14.511  14.769
56942W        W22169  17.085  23.108   4.246
56943W        W22170  20.662  21.974  14.093
56944W        W22171  39.644  17.220  11.180
56945W        W22172   7.711  27.720   2.178
56946W        W22173  30.139  39.280   0.296
56947W        W22174  41.449  30.809  13.493
56948W        W22175  42.582  28.622  14.775
56949W        W22176  40.476  32.223   4.134
56950W        W22177  15.059  24.772  11.406
56951W        W22178   0.077   6.239  14.652
56952W        W22179   6.276  22.096  14.106
56953W        W22180  22.677  13.086  12.605
56954W        W22181  27.923  17.342   4.084
56955W        W22182  42.806   8.723  12.534
56956W        W22183   6.530  43.614   3.265
56957W        W22184   4.999  31.984   4.064
56958W        W22185  18.447  26.121   1.195
56959W        W22186   7.816  30.815  11.194
56960W        W22187  15.371  20.743  11.149
56961W        W22188  35.948  35.547  13.579
56962W        W22189  23.850  41.403  12.614
56963W        W22190   4.252  30.771  14.508
56964W        W22191  16.319   7.658  12.108
56965W        W22192  34.579  28.413  11.079
56966W        W22193   2.444  23.122   3.722
56967W        W22194   5.389  11.784  10.758
56968W        W22195  41.176  11.241  12.447
56969W        W22196   3.019  31.610  14.122
56970W        W22197  28.165  16.625  14.651
56971W        W22198  41.351  33.075  10.744
56972W        W22199  40.063   7.035   1.842
56973W        W22200  42.352  27.136  11.501
56974W        W22201  41.513  43.828  14.885
56975W        W22202  22.692  41.341  14.017
56976W        W22203  29.517  36.812   9.890
56977W        W22204  34.669   5.823   2.755
56978W        W22205  11.833  34.152   3.545
56979W        W22206  42.775   8.745   4.175
56980W        W22207  25.057  11.908   4.594
56981W        W22208  16.389  12.348   1.718
56982W        W22209  31.629  31.477  13.353
56983W        W22210  42.486  16.053  14.829
56984W        W22211   0.490  13.857  12.535
56985W        W22212  26.015  33.911  10.713
56986W        W22213  36.388   7.802   2.218
56987W        W22214  43.413  25.216  14.873
56988W        W22215  39.914  43.553   3.042
56989W        W22216  27.730  33.188  11.245
56990W        W22217  34.902  21.288   3.532
56991W        W22218  34.901   7.402   3.662
56992W        W22219   5.504  32.888   3.840
56993W        W22220  29.441  19.519  14.379
56994W        W22221  29.418  26.257  14.245
56995W        W22222  43.602   9.207   0.528
56996W        W22223   4.269  27.127   2.334
56997W        W22224   2.905  44.912  10.612
56998W        W22225  43.472  10.616   3.545
56999W        W22226  40.330  24.153   4.610
57000W        W22227  34.009  27.725  12.447
57001W        W22228  35.004  36.749  10.116
57002W        W22229   2.188  39.943  12.022
57003W        W22230  25.694  39.562  11.220
57004W        W22231  13.576   5.350   0.179
57005W        W22232  18.072  18.323   1.482
57006W        W22233  37.339  17.758  12.454
57007W        W22234  10.691  10.396  10.748
57008W        W22235  22.397  28.645  11.661
57009W        W22236  34.419  14.483   4.534
57010W        W22237  40.026   3.595   2.683
57011W        W22238  33.643  15.993   0.488
57012W        W22239  17.592  30.075  10.726
57013W        W22240  10.348  29.139   1.537
57014W        W22241  27.066  14.641  11.008
57015W        W22242  36.032  23.240  12.037
57016W        W22243  10.552  15.919  10.799
57017W        W22244  21.523   7.014   0.383
57018W        W22245  11.289  31.590   1.674
57019W        W22246  16.482  35.069  14.364
57020W        W22247   2.047  10.199   3.741
57021W        W22248   6.299  37.710   5.214
57022W        W22249  14.081  32.475   1.922
57023W        W22250  35.911  41.030   3.641
57024W        W22251  37.284  36.469  14.682
57025W        W22252  22.221  34.411   4.405
57026W        W22253   5.914  19.240  14.872
57027W        W22254  24.017  16.571  12.044
57028W        W22255  15.436  18.334  13.474
57029W        W22256  24.417  25.753   1.169
57030W        W22257  11.236  22.890  12.505
57031W        W22258  42.485   1.436  13.914
57032W        W22259  42.958  25.624  14.161
57033W        W22260  17.775  43.233   3.164
57034W        W22261   9.066  44.413   2.032
57035W        W22262  15.351   3.855  10.819
57036W        W22263  18.799  35.342   3.476
57037W        W22264  12.239   9.239   4.232
57038W        W22265  23.479  22.654  12.156
57039W        W22266  15.663   4.165   3.845
57040W        W22267   3.819  12.513   4.877
57041W        W22268  20.965   3.803   9.954
57042W        W22269  27.638  30.510  13.252
57043W        W22270   8.194  24.096   1.657
57044W        W22271  38.271   6.342  12.490
57045W        W22272  40.073   3.551  12.410
57046W        W22273  20.089   5.782   4.600
57047W        W22274  15.883   8.590  12.099
57048W        W22275  26.347  41.780  11.198
57049W        W22276  33.620  29.149   1.981
57050W        W22277   4.805  31.757   3.087
57051W        W22278   5.998  12.286   2.663
57052W        W22279   3.387   8.908  10.958
57053W        W22280  15.683  31.993  14.585
57054W        W22281  22.980  38.996  14.387
57055W        W22282   7.455  26.653   4.163
57056W        W22283  20.157  34.669   1.180
57057W        W22284  34.654   7.868  13.550
57058W        W22285   7.345  31.020   2.885
57059W        W22286   1.526   7.703  11.971
57060W        W22287  23.015  14.237   0.081
57061W        W22288   4.870  34.367   0.764
57062W        W22289  28.633  14.717  11.529
57063W        W22290  22.612  13.194   1.425
57064W        W22291  22.251  31.601   4.121
57065W        W22292  33.978  30.924   3.292
57066W        W22293  42.298  42.806   0.235
57067W        W22294   2.304  15.524  14.889
57068W        W22295  14.150   8.053  14.552
57069W        W22296   3.487  39.145  13.481
57070W        W22297   9.488   8.021  14.452
57071W        W22298   7.691  39.859  12.468
57072W        W22299  20.872   4.259  14.512
57073W        W22300  32.139   6.906   4.818
57074W        W22301   4.233  20.547   2.154
57075W        W22302  15.219   7.928  10.757
57076W        W22303   6.721  44.722   3.712
57077W        W22304   7.228  37.076   1.831
57078W        W22305  10.789  43.308  10.759
57079W        W22306  30.569   3.716  13.822
57080W        W22307  23.682  24.768  14.339
57081W        W22308  19.009  15.049   1.716
57082W        W22309   6.694  29.727  14.336
57083W        W22310   2.322  39.039   4.318
57084W        W22311   0.526   8.844   4.083
57085W        W22312  23.621   3.747   5.217
57086W        W22313   1.476  10.715   4.504
57087W        W22314  42.197  33.115  14.689
57088W        W22315  20.186  35.401  13.857
57089W        W22316  42.371   6.198  13.169
57090W        W22317  41.358  21.044   0.209
57091W        W22318  38.472  24.027   3.753
57092W        W22319  29.979  33.945   3.650
57093W        W22320   6.000  21.493  13.278
57094W        W22321  16.672  19.898  11.121
57095W        W22322  31.550   3.154   2.331
57096W        W22323  27.452  20.346   4.507
57097W        W22324  31.328  35.811   4.992
57098W        W22325  41.259  28.082   4.053
57099W        W22326  17.555  29.090   2.708
57100W        W22327  43.426  15.453  12.632
57101W        W22328   2.392  13.570  14.950
57102W        W22329   4.342   8.995   3.252
57103W        W22330   3.877  38.944   3.196
57104W        W22331  17.650   2.128  11.096
57105W        W22332  29.185  11.852   1.176
57106W        W22333  32.305  34.918   4.620
57107W        W22334  37.869  26.256   2.803
57108W        W22335  19.184  15.500   1.492
57109W        W22336  29.619  14.861  11.402
57110W        W22337  10.849   2.971  12.722
57111W        W22338   2.329   3.269  14.423
57112W        W22339  30.078  20.805  11.655
57113W        W22340  21.753  19.615  13.133
57114W        W22341  36.021   4.808  13.104
57115W        W22342   2.847  18.309  13.479
57116W        W22343  16.531   2.156  13.722
57117W        W22344   8.816  23.711   4.536
57118W        W22345   7.738   0.422  11.204
57119W        W22346   6.134  33.514   4.726
57120W        W22347  29.388   2.454   1.709
57121W        W22348  23.638  18.526   3.197
57122W        W22349  22.157  25.942   4.133
57123W        W22350  27.631  39.044   2.741
57124W        W22351  12.197   3.428   3.261
57125W        W22352  13.348  15.736  11.063
57126W        W22353   2.630  29.187  13.783
57127W        W22354  34.699  11.028   4.221
57128W        W22355  23.144  36.333  13.136
57129W        W22356  26.269  30.620  10.373
57130W        W22357  11.579  43.535   2.451
57131W        W22358   1.774  34.371  14.964
57132W        W22359  29.024  43.777  13.628
57133W        W22360  15.900  44.408   0.122
57134W        W22361   4.889  19.455  10.099
57135W        W22362  27.135  26.331  10.865
57136W        W22363  41.282  27.552   0.583
57137W        W22364  34.368  44.254  14.912
57138W        W22365  23.154  40.492   0.383
57139W        W22366  43.521  39.143   1.651
57140W        W22367  40.333  20.501  14.622
57141W        W22368  17.347  13.609  12.974
57142W        W22369  15.662  19.045  12.699
57143W        W22370  36.591  37.721   5.347
57144W        W22371  21.064  31.839   3.228
57145W        W22372   4.531  41.844   3.228
57146W        W22373  33.088  23.199  10.746
57147W        W22374  19.599  10.390  12.886
57148W        W22375  23.875  14.315  11.991
57149W        W22376   5.931  31.315  12.883
57150W        W22377  37.908  27.482  14.911
57151W        W22378  32.418   1.834  12.125
57152W        W22379  24.749  41.421  12.871
57153W        W22380  27.366  12.672  12.369
57154W        W22381  12.023  11.165   3.331
57155W        W22382  43.008  26.485   4.689
57156W        W22383   8.050   0.011  11.267
57157W        W22384  18.553  30.140   3.244
57158W        W22385  26.641  36.444   0.429
57159W        W22386   3.925  16.035  10.762
57160W        W22387  13.543  39.361   3.524
57161W        W22388  28.565  12.691  14.343
57162W        W22389  10.287  19.404   2.361
57163W        W22390  40.480  35.808   0.865
57164W        W22391  11.310  37.806   1.061
57165W        W22392   2.326  25.462  12.627
57166W        W22393  30.397   1.052  10.691
57167W        W22394  28.027  41.371   1.292
57168W        W22395  16.238  30.244   2.326
57169W        W22396  23.809  29.465  12.078
57170W        W22397   5.238  25.615  13.081
57171W        W22398  10.102  22.609   5.041
57172W        W22399  36.554   3.442   1.763
57173W        W22400  19.618  14.700   0.086
57174W        W22401  17.517   5.982  10.676
57175W        W22402  40.045  40.047   0.848
57176W        W22403  12.252  10.245  13.946
57177W        W22404  32.145   3.109  12.444
57178W        W22405  40.331  26.980  13.112
57179W        W22406  23.744  31.570   0.260
57180W        W22407  35.133  12.991   4.103
57181W        W22408  15.438  28.899   1.620
57182W        W22409   6.772  39.110  11.283
57183W        W22410  18.322  39.438   4.050
57184W        W22411  11.099  16.814  14.936
57185W        W22412  31.165   1.498  10.985
57186W        W22413  23.553  32.003  11.924
57187W        W22414  10.753  34.342  13.839
57188W        W22415  37.355   3.511  10.437
57189W        W22416  39.035   4.756   3.001
57190W        W22417  29.581  39.568  14.029
57191W        W22418  21.741  44.320   2.412
57192W        W22419  26.032  33.828  12.409
57193W        W22420  31.015  16.150   2.286
57194W        W22421  11.133   7.043   2.259
57195W        W22422  22.989  12.701  12.356
57196W        W22423   7.700  36.529   1.390
57197W        W22424  31.764  17.769   2.737
57198W        W22425  42.801  10.562  10.708
57199W        W22426  18.795   6.395   0.185
57200W        W22427   1.718   2.286   4.535
57201W        W22428   4.311   7.703   4.875
57202W        W22429  24.152  42.556   3.993
57203W        W22430  27.901  10.287   1.683
57204W        W22431  25.257  19.365  13.020
57205W        W22432  38.587  43.533   3.230
57206W        W22433  37.545   8.483  13.780
57207W        W22434  18.246  42.569  13.817
57208W        W22435  11.495  25.506   1.466
57209W        W22436  17.975  16.617   2.814
57210W        W22437   5.742  37.565  14.074
57211W        W22438  16.989  23.996  13.785
57212W        W22439  18.601  28.211  11.160
57213W        W22440   2.897   7.724   1.624
57214W        W22441  16.731  31.348  11.997
57215W        W22442  38.838  43.378   4.639
57216W        W22443   4.124  43.960  14.015
57217W        W22444   1.524  10.884  13.577
57218W        W22445   6.847  41.391   4.391
57219W        W22446  40.829   8.231  12.135
57220W        W22447  25.204  29.094   2.802
57221W        W22448   7.335  35.157  13.339
57222W        W22449  28.984   1.418  14.706
57223W        W22450  44.366   0.962  11.715
57224W        W22451  43.276  37.080   3.319
57225W        W22452  23.199  14.730  14.930
57226W        W22453  40.866  32.174  11.501
57227W        W22454  26.811  43.799   0.858
57228W        W22455  20.542  14.302   3.238
57229W        W22456  32.562  24.217  12.474
57230W        W22457  33.627  10.134  13.790
57231W        W22458   2.835  25.504  14.091
57232W        W22459  43.949  15.968   2.380
57233W        W22460  24.063   3.298   9.858
57234W        W22461  20.596   6.809   4.755
57235W        W22462  32.936  18.653  12.012
57236W        W22463  31.157   4.354  14.873
57237W        W22464  13.838  19.022   0.665
57238W        W22465  42.023   1.214   2.399
57239W        W22466   6.337  17.597  14.285
57240W        W22467   1.453  10.306   2.212
57241W        W22468  18.214  39.261  10.205
57242W        W22469  38.900  16.634  14.574
57243W        W22470  18.160   3.177  14.214
57244W        W22471  36.836  18.794  12.659
57245W        W22472  15.215   3.972  14.803
57246W        W22473   2.398  38.738  13.090
57247W        W22474  32.402  11.197  13.777
57248W        W22475  42.586  35.429   4.040
57249W        W22476   4.970  44.652  11.066
57250W        W22477   4.697  35.346  13.280
57251W        W22478  19.857   4.049   4.371
57252W        W22479  38.491  19.349  10.329
57253W        W22480  24.306  40.401  12.645
57254W        W22481  41.950  35.189   3.150
57255W        W22482  18.356  21.964   0.796
57256W        W22483  25.974   3.506  13.928
57257W        W22484  42.454  27.733  12.591
57258W        W22485  22.361  29.468  12.056
57259W        W22486  24.005   8.828   3.224
57260W        W22487  24.619  31.604  14.036
57261W        W22488   6.276  43.037   4.337
57262W        W22489  19.603  37.520   4.106
57263W        W22490   0.821  11.123  14.347
57264W        W22491  44.031  23.072   0.288
57265W        W22492  31.890  24.194  13.863
57266W        W22493   8.424  11.145   4.815
57267W        W22494  24.681  19.268   2.334
57268W        W22495   9.540  29.541  10.613
57269W        W22496   1.989  29.082  11.868
57270W        W22497  34.131  13.321   9.919
57271W        W22498  36.290  44.820   2.823
57272W        W22499  11.201  26.676  14.079
57273W        W22500  15.983  20.995   3.064
57274W        W22501  39.730  19.050   1.779
57275W        W22502  11.297   4.347  11.427
57276W        W22503  43.989  13.309  11.554
57277W        W22504   2.322  31.416   2.195
57278W        W22505  39.308  21.595  13.170
57279W        W22506  20.014   5.139  12.157
57280W        W22507  30.668   0.510   2.307
57281W        W22508   6.218  10.323   1.314
57282W        W22509  36.639   8.308  12.986
57283W        W22510  25.960  24.816  12.493
57284W        W22511  38.102  10.300  10.365
57285W        W22512  38.881  18.509   1.525
57286W        W22513  36.977  43.958  10.739
57287W        W22514  14.604  36.921   4.672
57288W        W22515   8.410  36.082  11.518
57289W        W22516  18.193  29.904  12.027
57290W        W22517  37.936  39.037  14.215
57291W        W22518  10.907  12.428  11.640
57292W        W22519  27.143  24.610   1.400
57293W        W22520  39.324  19.678  11.515
57294W        W22521  11.400  23.336  11.253
57295W        W22522  24.457   8.340  14.009
57296W        W22523  13.098  14.744  12.074
57297W        W22524   4.732   7.978  11.964
57298W        W22525  39.869  40.572  11.667
57299W        W22526   3.316  33.616  14.093
57300W        W22527   3.751  22.331  12.011
57301W        W22528  30.661   6.188   4.464
57302W        W22529  43.733  35.594   2.208
57303W        W22530   0.456  25.258  11.653
57304W        W22531  44.366  12.277   3.599
57305W        W22532  36.503  23.235  12.834
57306W        W22533   0.213   3.769  11.694
57307W        W22534  21.659   7.943  14.384
57308W        W22535  36.498  40.732   2.526
57309W        W22536  22.322  16.757  12.401
57310W        W22537   8.913  19.530  13.301
57311W        W22538  42.067  10.290  13.260
57312W        W22539  32.457  18.522  13.921
57313W        W22540  30.159  44.850   0.793
57314W        W22541  25.809  13.129   2.696
57315W        W22542   5.782  30.236   1.838
57316W        W22543   9.448  12.500   4.063
57317W        W22544  13.696  43.880  11.883
57318W        W22545   0.473  15.061   4.527
57319W        W22546  26.667  21.496   5.002
57320W        W22547  27.054  42.538   4.870
57321W        W22548  25.611  32.147  14.486
57322W        W22549  16.154  27.571   3.200
57323W        W22550  35.078  32.940   4.318
57324W        W22551   0.714  40.382   3.262
57325W        W22552  28.519  17.271  12.033
57326W        W22553  33.634  21.133   4.103
57327W        W22554   7.769  34.961  14.278
57328W        W22555  38.428  23.311   2.209
57329W        W22556   6.894   2.318   2.554
57330W        W22557   2.398   3.679   2.137
57331W        W22558  43.089  39.921   3.023
57332W        W22559  43.906  31.866   1.725
57333W        W22560  40.216  25.104   1.799
57334W        W22561   5.821   7.567   4.520
57335W        W22562  17.274  42.570  14.850
57336W        W22563  18.190   7.349   3.781
57337W        W22564   0.477  25.677   2.894
57338W        W22565   1.835  19.184  14.892
57339W        W22566  22.581  16.803  11.947
57340W        W22567  42.375  26.933   4.515
57341W        W22568  18.536  30.190   4.096
57342W        W22569  14.492   2.620  11.570
57343W        W22570  14.366  34.470   0.498
57344W        W22571   8.165   8.826   3.472
57345W        W22572  31.463   8.620   1.390
57346W        W22573  30.345  37.044  13.067
57347W        W22574   3.949  27.980  10.493
57348W        W22575   3.243   3.699  13.299
57349W        W22576  14.156  21.271  13.036
57350W        W22577  31.847  23.239   0.817
57351W        W22578  15.816  14.149   1.055
57352W        W22579  20.966  44.476  14.087
57353W        W22580  22.987  35.459   4.215
57354W        W22581  10.005  14.120   0.964
57355W        W22582  10.207   4.007  13.389
57356W        W22583   6.684  42.732   3.650
57357W        W22584  15.522   1.350   4.047
57358W        W22585  24.601  26.943   0.594
57359W        W22586  11.784  39.283   2.918
57360W        W22587  34.362  21.703   4.135
57361W        W22588  27.157  43.851  12.427
57362W        W22589  34.012  15.539  13.889
57363W        W22590  44.190  16.495  11.097
57364W        W22591  23.571  22.350   4.484
57365W        W22592   8.272   8.389   3.819
57366W        W22593  29.073  14.359  14.044
57367W        W22594  38.110  35.399   3.646
57368W        W22595  20.516   6.934  12.910
57369W        W22596  30.362  43.833  14.920
57370W        W22597  44.729  19.565   1.078
57371W        W22598  20.894   6.267   2.838
57372W        W22599  40.463  28.408   1.503
57373W        W22600  27.463  37.016  11.085
57374W        W22601  43.584  28.346  13.699
57375W        W22602  13.745   3.625  11.552
57376W        W22603  40.526   6.557  13.332
57377W        W22604  27.187  25.935   1.844
57378W        W22605  13.202  29.584   4.106
57379W        W22606  21.081  28.500   2.781
57380W        W22607  10.245  24.202  11.529
57381W        W22608  25.650  33.839   1.459
57382W        W22609   0.765  10.734   1.084
57383W        W22610  38.798  34.730  14.389
57384W        W22611  30.377  44.722  13.870
57385W        W22612  17.813  42.540  11.517
57386W        W22613  14.648  20.125  13.383
57387W        W22614  34.578  27.691   0.089
57388W        W22615  34.168  17.089   5.045
57389W        W22616   7.293   9.475  11.884
57390W        W22617  24.782   6.362  10.565
57391W        W22618   0.371  20.732   2.654
57392W        W22619  42.674  26.816   4.922
57393W        W22620  44.350   1.321   2.074
57394W        W22621  36.039  12.674  11.656
57395W        W22622  24.264  27.125  13.820
57396W        W22623  37.958  34.171   4.160
57397W        W22624  44.793  15.016   2.812
57398W        W22625  10.806  10.282   4.808
57399W        W22626  34.959  44.222   9.926
57400W        W22627  32.539  23.778  13.577
57401W        W22628  13.128  39.316  11.926
57402W        W22629  40.775   8.017   1.146
57403W        W22630   3.934  43.900  13.467
57404W        W22631   2.415  11.863   2.361
57405W        W22632  10.797  17.782  11.146
57406W        W22633  35.634  38.075  11.503
57407W        W22634  43.866  25.121  12.568
57408W        W22635  11.093  30.112   4.464
57409W        W22636  35.144  15.398   0.587
57410W        W22637  31.253  29.428  12.482
57411W        W22638   7.586  44.984   3.311
57412W        W22639  36.783  33.884   3.842
57413W        W22640  23.146  34.468   1.391
57414W        W22641  19.282   5.270   2.111
57415W        W22642  27.841  16.873   5.074
57416W        W22643  42.950  35.863  14.739
57417W        W22644  18.945  10.840  14.379
57418W        W22645  25.796  28.073  10.734
57419W        W22646  35.012  14.783   4.005
57420W        W22647  22.017  33.911   0.357
57421W        W22648  12.654  18.736  10.786
57422W        W22649  28.140   2.899   4.212
57423W        W22650  16.966  14.756   3.364
57424W        W22651  18.246  24.590   0.847
57425W        W22652  12.768  10.156  11.204
57426W        W22653  33.120  27.237   1.768
57427W        W22654   7.369  32.598   0.796
57428W        W22655  30.386  33.855  11.423
57429W        W22656  25.791  25.588   1.780
57430W        W22657   5.975  19.191  11.420
57431W        W22658   8.428  40.069   1.230
57432W        W22659  41.869  33.967   2.270
57433W        W22660  11.563  22.992  14.172
57434W        W22661  18.208  10.677   3.533
57435W        W22662  30.616  37.499   0.987
57436W        W22663   2.973   4.941   4.639
57437W        W22664  12.782  12.038  13.195
57438W        W22665  20.207  38.441  10.959
57439W        W22666  12.362   4.943   2.712
57440W        W22667  40.618   4.356   4.082
57441W        W22668  41.685  34.596  14.512
57442W        W22669  10.272  37.512   0.029
57443W        W22670   4.617  36.099  12.468
57444W        W22671  35.872  33.360   2.203
57445W        W22672  29.854  36.355  11.164
57446W        W22673  14.158  19.670  14.645
57447W        W22674  11.584  28.663  10.697
57448W        W22675  10.134  44.085   1.627
57449W        W22676  34.470  18.934  11.882
57450W        W22677  22.417  12.114  10.404
57451W        W22678  39.455  36.318  11.201
57452W        W22679  40.120   1.709   2.612
57453W        W22680  41.446  39.502  11.816
57454W        W22681  25.360  16.523  10.777
57455W        W22682  13.629  29.916  12.594
57456W        W22683  16.685  30.546   0.198
57457W        W22684  28.285  20.595  12.502
57458W        W22685  27.424  36.325  11.525
57459W        W22686  16.354  25.186  12.409
57460W        W22687  25.086  31.534   4.254
57461W        W22688  25.260  39.237  12.261
57462W        W22689  19.417   9.412   3.733
57463W        W22690   6.926  14.213  10.354
57464W        W22691  24.356  14.073  11.032
57465W        W22692   5.918  19.651   3.393
57466W        W22693   1.766  29.354   3.617
57467W        W22694  39.284  43.631   4.381
57468W        W22695   1.640   8.046   0.998
57469W        W22696   9.126  12.663  11.480
57470W        W22697  43.118  24.435  12.612
57471W        W22698  44.446  38.939  10.537
57472W        W22699   4.202  42.973  11.095
57473W        W22700  40.422   4.377  10.751
57474W        W22701  17.303  42.762   2.334
57475W        W22702  12.450  33.676   4.913
57476W        W22703  28.792  27.501  11.622
57477W        W22704  20.126  35.827   4.197
57478W        W22705  20.565  23.181   2.963
57479W        W22706  31.430   8.074  14.828
57480W        W22707  43.901   1.312   3.731
57481W        W22708  32.065  27.044  11.705
57482W        W22709   1.425  37.659   4.861
57483W        W22710  30.880   6.948   0.967
57484W        W22711  35.102   6.673   4.093
57485W        W22712  38.661  30.108  12.340
57486W        W22713  25.600  41.920  11.961
57487W        W22714  32.473  29.332  11.632
57488W        W22715  30.385  38.579   2.935
57489W        W22716  37.269  19.013  14.007
57490W        W22717   6.589   6.692   2.469
57491W        W22718   3.058  36.899   3.122
57492W        W22719  13.616   0.024  14.745
57493W        W22720  34.655  34.194   1.978
57494W        W22721  16.345   1.676   2.280
57495W        W22722  18.289  39.819  11.651
57496W        W22723   4.285   9.226  12.079
57497W        W22724   8.362  22.025  14.947
57498W        W22725  25.443   5.679  11.907
57499W        W22726  36.617  36.008  13.741
57500W        W22727  14.724  29.703  13.123
57501W        W22728  25.447  21.693   0.907
57502W        W22729  24.047  34.666  12.115
57503W        W22730  43.052  32.869  11.119
57504W        W22731  36.098  39.834   4.149
57505W        W22732  26.099  23.960   2.106
57506W        W22733  17.127  21.052   0.526
57507W        W22734  24.573  30.526  11.840
57508W        W22735  39.557   5.056   2.635
57509W        W22736  18.591   3.827   4.669
57510W        W22737  13.100  39.130  11.254
57511W        W22738  29.502  18.132   1.661
57512W        W22739  36.046  37.529  14.107
57513W        W22740  39.581  28.225   3.370
57514W        W22741   1.509   0.814   3.272
57515W        W22742   2.963  13.672   0.903
57516W        W22743  19.331  39.245  12.687
57517W        W22744   9.713  25.468   3.536
57518W        W22745   8.214  10.176  14.961
57519W        W22746  11.689  40.960  10.437
57520W        W22747  24.132  31.194   0.310
57521W        W22748  13.304  37.182  12.434
57522W        W22749  19.680   0.980  10.521
57523W        W22750  28.160  22.668   2.633
57524W        W22751  30.138   1.199   3.774
57525W        W22752   8.325  13.152  12.925
57526W        W22753  32.193  33.085   3.322
57527W        W22754  35.409  23.967   0.254
57528W        W22755  41.347  25.505  13.374
57529W        W22756   6.891  12.876   1.978
57530W        W22757  36.865  38.994  11.044
57531W        W22758  31.770  21.217   1.722
57532W        W22759  37.913   6.686  13.128
57533W        W22760  10.581  26.529   3.703
57534W        W22761  14.049  15.740   4.002
57535W        W22762  11.385  17.058  13.424
57536W        W22763   6.153  28.147  11.960
57537W        W22764   0.924  25.192   1.882
57538W        W22765  23.490   1.365   2.271
57539W        W22766  35.755   2.354  13.756
57540W        W22767  15.064  13.844   1.436
57541W        W22768  43.148  10.322   0.640
57542W        W22769  42.278   7.495   1.862
57543W        W22770  13.450  13.878   1.005
57544W        W22771  24.693  12.450   1.194
57545W        W22772  14.250   8.606   1.872
57546W        W22773  19.569   2.755   1.197
57547W        W22774  29.082  18.839   2.614
57548W        W22775  11.152  30.631   1.249
57549W        W22776  37.232  28.720  13.962
57550W        W22777  16.020  20.013  14.394
57551W        W22778  16.414  36.415   4.414
57552W        W22779  16.795  34.400   3.281
57553W        W22780  40.393  19.224   1.450
57554W        W22781  14.122  32.073   0.705
57555W        W22782  36.450  12.984  11.634
57556W        W22783  12.044  41.665   3.328
57557W        W22784  36.050   1.980   3.524
57558W        W22785  15.647  11.955   0.803
57559W        W22786  25.496  36.478   1.561
57560W        W22787  42.917  25.446   1.817
57561W        W22788  23.482  27.097   1.791
57562W        W22789   4.859  15.521   0.350
57563W        W22790  30.863  31.354   3.363
57564W        W22791  20.357  37.750  12.791
57565W        W22792  20.383  40.285  13.493
57566W        W22793  27.959   1.948   3.317
57567W        W22794   0.881   7.168  13.495
57568W        W22795  17.179  25.252   1.502
57569W        W22796   6.355  24.485  13.082
57570W        W22797  12.693  37.779  13.532
57571W        W22798  36.035  17.768  13.392
57572W        W22799  34.073   8.623  11.742
57573W        W22800  18.670  14.786  14.771
57574W        W22801  12.613  26.871  14.846
57575W        W22802  22.505  39.746   0.495
57576W        W22803   7.753  27.649   4.381
57577W        W22804  26.852  40.114  13.207
57578W        W22805   3.175  11.908  14.874
57579W        W22806  12.022  44.429  10.102
57580W        W22807  30.127  25.970   2.388
57581W        W22808  11.577  22.665  11.973
57582W        W22809  31.972  38.142   3.610
57583W        W22810  26.049  41.814   3.809
57584W        W22811  40.434   2.794   1.836
57585W        W22812  25.651  37.903  14.606
57586W        W22813  41.887  28.871  13.916
57587W        W22814   8.915  32.333  12.700
57588W        W22815  15.553  38.600  11.163
57589W        W22816   0.975  12.383   2.824
57590W        W22817  21.682  11.828  14.860
57591W        W22818  39.092  23.100   4.683
57592W        W22819  17.440  23.124  10.361
57593W        W22820  15.999  17.328   3.368
57594W        W22821  27.008   9.120  13.503
57595W        W22822  43.410  27.627   2.005
57596W        W22823  35.282  41.438   0.279
57597W        W22824  28.388   5.361   1.663
57598W        W22825  26.297   1.431   0.815
57599W        W22826   4.142  36.979   1.758
57600W        W22827  32.580  20.533   0.407
57601W        W22828  43.094  33.942   3.331
57602W        W22829  10.569  16.679   1.722
57603W        W22830  43.825  31.391  14.825
57604W        W22831  29.534  40.697   4.791
57605W        W22832  23.151  18.749  12.020
57606W        W22833  34.765  10.024  12.138
57607W        W22834   7.648  33.381   4.649
57608W        W22835  29.797  33.690  12.974
57609W        W22836   2.060  24.506   0.071
57610W        W22837  10.745  28.193   0.001
57611W        W22838  12.787  15.274   3.432
57612W        W22839  27.412  35.112   1.204
57613W        W22840  25.469  30.197   2.387
57614W        W22841  19.093   6.847   2.821
57615W        W22842  21.141  24.279  14.571
57616W        W22843  14.407  39.437  14.074
57617W        W22844  24.599  33.390  14.288
57618W        W22845  42.912  30.553   1.620
57619W        W22846  21.231   6.628   2.689
57620W        W22847  29.183  37.841  13.097
57621W        W22848  18.641  24.632   2.610
57622W        W22849  44.398  14.866  12.477
57623W        W22850  35.980  35.063   3.604
57624W        W22851  27.209  20.090  13.442
57625W        W22852   1.014  15.848  14.288
57626W        W22853  28.753  21.509  12.612
57627W        W22854  15.136   4.095   1.689
57628W        W22855   6.372  20.475   4.307
57629W        W22856   4.000  33.510  12.889
57630W        W22857  32.868  43.665   0.686
57631W        W22858  33.324   5.645   4.611
57632W        W22859  32.246   0.343   0.414
57633W        W22860  43.028  40.907  14.014
57634W        W22861  40.494  28.546   0.960
57635W        W22862   5.663  17.757  10.716
57636W        W22863  29.495   6.113  10.248
57637W        W22864  34.151  38.221   4.898
57638W        W22865  23.140  16.863   0.659
57639W        W22866   8.525  26.803  13.001
57640W        W22867  38.459  36.451   0.400
57641W        W22868  15.650  18.507   9.828
57642W        W22869  12.780  40.020  14.820
57643W        W22870  38.030  18.643   0.045
57644W        W22871  31.556  22.783   4.871
57645W        W22872  17.397  29.582  11.782
57646W        W22873  22.602   1.447  14.503
57647W        W22874   4.337   9.925  13.937
57648W        W22875  31.187   7.800   0.233
57649W        W22876  42.377  12.703   0.318
57650W        W22877  22.808  26.599   3.117
57651W        W22878  41.436   9.869   4.648
57652W        W22879  38.744  29.638  14.250
57653W        W22880  40.099  34.899  10.614
57654W        W22881  11.038  34.623   4.080
57655W        W22882  39.188   2.866  13.204
57656W        W22883   0.148   4.703   4.553
57657W        W22884  15.236   0.696   1.340
57658W        W22885  35.517  40.937   2.215
57659W        W22886  23.115   0.896  13.469
57660W        W22887  24.997  27.940  11.152
57661W        W22888  25.193  28.597  13.807
57662W        W22889   4.366  28.427   4.815
57663W        W22890   5.591  28.352   4.331
57664W        W22891   7.960  42.979  13.313
57665W        W22892  18.211  21.537  14.512
57666W        W22893  14.467   9.262   3.681
57667W        W22894  14.072  28.230   4.610
57668W        W22895  29.084   4.902   4.804
57669W        W22896  34.877   1.896  13.827
57670W        W22897  32.535  29.026   2.601
57671W        W22898  33.995  37.535  13.575
57672W        W22899   7.868  21.796   3.611
57673W        W22900   7.226  41.317  14.277
57674W        W22901  17.620  40.446  13.281
57675W        W22902   9.897  20.295  11.125
57676W        W22903  14.134   3.949   4.529
57677W        W22904   0.791   1.443  13.748
57678W        W22905  10.954   9.323   4.877
57679W        W22906  33.696  29.679  11.236
57680W        W22907   2.318  24.735   2.891
57681W        W22908  38.393  22.282   2.528
57682W        W22909  32.697  33.266  10.916
57683W        W22910  39.799  13.709   4.043
57684W        W22911  14.283  18.767  14.977
57685W        W22912  33.558  41.551   0.345
57686W        W22913  44.660  23.634   1.950
57687W        W22914  22.028  16.166   3.733
57688W        W22915  25.674  32.528   3.272
57689W        W22916  35.690  39.538  11.043
57690W        W22917  11.987  24.200   4.378
57691W        W22918   5.702   8.927  11.989
57692W        W22919  32.840  26.509   9.772
57693W        W22920  44.764  32.688   0.821
57694W        W22921  26.822   3.713   3.223
57695W        W22922  25.015  37.402   0.947
57696W        W22923  15.301   0.134   3.650
57697W        W22924   7.206  42.432  10.625
57698W        W22925  38.991  33.033  12.354
57699W        W22926  18.690   2.998  13.493
57700W        W22927   3.328   5.701  11.627
57701W        W22928  20.026  39.373   3.160
57702W        W22929  23.752   6.437  10.354
57703W        W22930  22.804  32.961   0.817
57704W        W22931  19.392  35.206   1.144
57705W        W22932   5.509   8.851   4.300
57706W        W22933  22.975  17.669  12.677
57707W        W22934   3.864  13.162   0.718
57708W        W22935  33.940  29.286   1.256
57709W        W22936   4.269  18.869  10.984
57710W        W22937  19.112  42.490   4.229
57711W        W22938  26.220  21.090   1.867
57712W        W22939  24.118  43.844  10.307
57713W        W22940  40.975  43.675  10.848
57714W        W22941  12.183  37.565  12.192
57715W        W22942  32.812   8.687   3.591
57716W        W22943  29.244  35.670  12.465
57717W        W22944  11.400   6.184   4.503
57718W        W22945  19.617  40.805   1.783
57719W        W22946  44.036  18.115  14.484
57720W        W22947  21.588   6.991   3.531
57721W        W22948  13.992  11.882  12.924
57722W        W22949   9.621  34.012  13.364
57723W        W22950  39.338  19.667   3.810
57724W        W22951  22.906   0.721   1.698
57725W        W22952   8.044   5.454   0.399
57726W        W22953   5.081  10.451  13.802
57727W        W22954  34.972  19.040   4.525
57728W        W22955  31.725  16.394  11.997
57729W        W22956  32.910  22.623  14.046
57730W        W22957  16.233  20.567   2.270
57731W        W22958  13.041  29.945  11.570
57732W        W22959  19.121  10.919   3.362
57733W        W22960   0.760  29.567  12.085
57734W        W22961   5.069  16.605  12.704
57735W        W22962  22.687  17.133   3.815
57736W        W22963   0.358  13.278   2.672
57737W        W22964  19.077  31.001  10.664
57738W        W22965  15.102  18.598  14.485
57739W        W22966  13.380  18.188   2.273
57740W        W22967   8.411  39.271   3.625
57741W        W22968  40.194   1.301   3.228
57742W        W22969  34.721  16.193  11.042
57743W        W22970  14.656  18.945  13.453
57744W        W22971  38.934  11.757  11.181
57745W        W22972  40.900  19.141   0.671
57746W        W22973  10.518  10.510   3.990
57747W        W22974  30.450   0.766   0.352
57748W        W22975  23.985  26.326   0.241
57749W        W22976  43.974   5.130   3.649
57750W        W22977   3.410  42.141   3.697
57751W        W22978  28.248  44.471  12.157
57752W        W22979  20.804  30.195   4.315
57753W        W22980  30.273  40.013  11.090
57754W        W22981  26.067   9.752  14.789
57755W        W22982   8.780  20.262   4.372
57756W        W22983  25.642   9.655   2.479
57757W        W22984  24.026  17.235   4.267
57758W        W22985  35.900  15.182  14.862
57759W        W22986   5.340  24.573  12.980
57760W        W22987  11.832   4.819  10.189
57761W        W22988  34.660  35.813  11.948
57762W        W22989   2.947   9.030   2.676
57763W        W22990   6.352  11.289   3.862
57764W        W22991  25.227  20.269   0.924
57765W        W22992   4.290  30.373   1.032
57766W        W22993  41.861  12.734   4.561
57767W        W22994   4.056  10.770   2.794
57768W        W22995  17.593  30.911  14.957
57769W        W22996  10.101   4.792  14.925
57770W        W22997   4.166  29.697   3.687
57771W        W22998  44.941   5.807  10.940
57772W        W22999  18.114  31.289   2.766
57773W        W23000  10.778  40.818  14.956
57774W        W23001  33.030  42.375  12.285
57775W        W23002  39.888   4.752  10.266
57776W        W23003  16.743  30.070   2.458
57777W        W23004  31.659  44.543  14.054
57778W        W23005  44.034   8.832   3.659
57779W        W23006  41.672  41.349   4.571
57780W        W23007   4.121  43.024  14.983
57781W        W23008   4.365  15.063   2.421
57782W        W23009  19.179   7.477  14.157
57783W        W23010  10.409  39.441   0.748
57784W        W23011   8.078  23.969   1.132
57785W        W23012   7.486  17.050  11.114
57786W        W23013   9.093  20.332   2.298
57787W        W23014   7.456  18.233  10.535
57788W        W23015   4.958  43.390   1.850
57789W        W23016  16.746  44.504   1.111
57790W        W23017  43.754  19.471  11.196
57791W        W23018  17.705  11.618  14.503
57792W        W23019   6.336  23.200  11.209
57793W        W23020   8.742  33.582  14.124
57794W        W23021  36.851   7.866  12.797
57795W        W23022  39.659  41.310   0.252
57796W        W23023  16.293  24.195  13.283
57797W        W23024   3.552  16.297   4.057
57798W        W23025  30.186  23.487   4.188
57799W        W23026  26.564  17.520  10.538
57800W        W23027  19.236   5.926  13.404
57801W        W23028   9.885  12.592   0.981
57802W        W23029  33.543  31.913  13.394
57803W        W23030   0.409  12.920   4.556
57804W        W23031  25.925  21.752  14.850
57805W        W23032   9.809  29.593   2.087
57806W        W23033  33.178  43.357  13.901
57807W        W23034   3.638  10.175  13.380
57808W        W23035  38.681  12.255   5.026
57809W        W23036  25.614  44.366   3.038
57810W        W23037  41.136  18.312  13.022
57811W        W23038  39.989  11.734   2.452
57812W        W23039  19.003  10.363  11.507
57813W        W23040  18.545   2.045  14.830
57814W        W23041  10.421   6.294   4.566
57815W        W23042  11.268  28.504  12.448
57816W        W23043  41.968  35.771  12.927
57817W        W23044   0.413  10.832  12.130
57818W        W23045  23.191  18.774  14.558
57819W        W23046  12.170  41.424   0.770
57820W        W23047   3.771  11.131  12.585
57821W        W23048   1.038   4.174   0.035
57822W        W23049  44.813  13.749   3.446
57823W        W23050   5.865  29.525   3.081
57824W        W23051  13.591  39.194   1.373
57825W        W23052  15.210  23.502  11.591
57826W        W23053   0.228  23.958  12.156
57827W        W23054  35.539  37.085   0.446
57828W        W23055  17.274  43.434  12.433
57829W        W23056  36.083  24.737  12.331
57830W        W23057  42.474   7.791   1.205
57831W        W23058   8.923   6.501   4.607
57832W        W23059  32.407   0.860   2.932
57833W        W23060   3.904  18.199  10.736
57834W        W23061   0.401  17.811  11.530
57835W        W23062   9.768   0.611   4.658
57836W        W23063  36.781  24.966   0.352
57837W        W23064  21.725  11.910  14.348
57838W        W23065  10.158   2.469  13.936
57839W        W23066  33.830  16.827   1.954
57840W        W23067  23.567  44.733  13.641
57841W        W23068  38.280  43.738  13.656
57842W        W23069  35.359   5.897   4.443
57843W        W23070  14.152  17.691  12.498
57844W        W23071   7.991   2.789  14.222
57845W        W23072  43.067   8.168  13.555
57846W        W23073  34.117  38.417  13.542
57847W        W23074  35.520   0.387  13.612
57848W        W23075  23.034   4.982   4.074
57849W        W23076  26.875  14.399  11.427
57850W        W23077  30.361  24.009  13.937
57851W        W23078  34.401  18.075  13.548
57852W        W23079  23.549  30.359   3.542
57853W        W23080  11.632  32.689  14.836
57854W        W23081  31.742  43.740   4.312
57855W        W23082   0.424  39.376   3.534
57856W        W23083  26.483  44.036  13.835
57857W        W23084   2.756  30.612   3.000
57858W        W23085  10.791  40.221   1.295
57859W        W23086  19.313  12.567   2.722
57860W        W23087  34.996  35.736   5.111
57861W        W23088  41.484   7.301  10.881
57862W        W23089  21.309   9.770   2.813
57863W        W23090  19.230  32.129   2.381
57864W        W23091   4.352  36.081  13.898
57865W        W23092  37.642  36.834   4.119
57866W        W23093  36.836  14.659   2.324
57867W        W23094  14.225  40.050   0.223
57868W        W23095  15.200   6.814  13.602
57869W        W23096  42.442  22.067   2.774
57870W        W23097   6.798   3.792   0.279
57871W        W23098  35.968  26.422   1.521
57872W        W23099  29.843  41.475   4.870
57873W        W23100  10.979  40.153   4.078
57874W        W23101  30.041  38.138   2.278
57875W        W23102  41.026  20.158  12.122
57876W        W23103  29.138  20.383   4.266
57877W        W23104  13.122  19.179   2.060
57878W        W23105  39.790  11.864  10.741
57879W        W23106  16.241   2.320  11.153
57880W        W23107  25.199  31.009  14.910
57881W        W23108  44.874  24.979   1.558
57882W        W23109  40.848   1.993   0.927
57883W        W23110   9.386  22.227   2.197
57884W        W23111   7.520  26.160  12.462
57885W        W23112  28.144  12.624   0.120
57886W        W23113  15.312  10.131  12.552
57887W        W23114  15.380  22.627  12.984
57888W        W23115  30.945  13.059  11.293
57889W        W23116  21.554  40.433   2.160
57890W        W23117  14.243   5.230   0.975
57891W        W23118  14.267   5.260   2.328
57892W        W23119  18.686  32.044   1.072
57893W        W23120   2.973  37.600   1.623
57894W        W23121  11.619   1.016   3.984
57895W        W23122  14.959   7.446  10.903
57896W        W23123  34.012  42.435  12.215
57897W        W23124   2.308  15.149  11.571
57898W        W23125   5.665   3.755   2.637
57899W        W23126  31.477   3.788  13.451
57900W        W23127   5.755  20.449   2.283
57901W        W23128   4.627  14.803   5.044
57902W        W23129  19.377  32.386   4.193
57903W        W23130  33.449   6.764  10.594
57904W        W23131  29.474  40.057  13.839
57905W        W23132  18.018   1.364  12.544
57906W        W23133  27.142  40.629   3.805
57907W        W23134  34.536  36.821   3.438
57908W        W23135  24.200  13.566  12.353
57909W        W23136  41.772  19.628  14.612
57910W        W23137   9.598  10.205   3.883
57911W        W23138  28.132   8.482   1.699
57912W        W23139  33.024  28.226   4.526
57913W        W23140   3.905  33.043  13.092
57914W        W23141  19.951   2.007   3.221
57915W        W23142   0.366   9.174   4.615
57916W        W23143  18.168  25.939  12.445
57917W        W23144  20.259  41.936   4.100
57918W        W23145  34.585   4.900  11.965
57919W        W23146  27.505  18.009  10.791
57920W        W23147  41.808  34.084  14.610
57921W        W23148  18.713  16.826  14.258
57922W        W23149  34.467  30.666   4.186
57923W        W23150   0.458  10.313  14.225
57924W        W23151  40.762  33.568   1.689
57925W        W23152  23.155  21.134   1.486
57926W        W23153   6.315   2.910  11.981
57927W        W23154   9.574  13.645   0.366
57928W        W23155   6.700  24.564  14.302
57929W        W23156  12.065   7.613  14.299
57930W        W23157  35.063  18.180   0.499
57931W        W23158  29.405   5.043  14.850
57932W        W23159  12.780   1.367  14.988
57933W        W23160  42.766  42.013   0.040
57934W        W23161  24.041  26.126   4.724
57935W        W23162   8.612   0.956  11.994
57936W        W23163  37.490  28.960   0.349
57937W        W23164  26.112  44.292   0.693
57938W        W23165  41.054   2.206  10.578
57939W        W23166  44.253  37.323   1.369
57940W        W23167  15.125  39.921  12.441
57941W        W23168  21.386  29.468   1.427
57942W        W23169  30.610   7.213  13.638
57943W        W23170  14.837  14.869   3.316
57944W        W23171  39.097  32.330  10.051
57945W        W23172   3.351   3.229  12.504
57946W        W23173  16.757  12.681   1.798
57947W        W23174  41.002  44.727   1.971
57948W        W23175  11.684  43.425  13.074
57949W        W23176  31.914   5.691   3.721
57950W        W23177  26.408   9.955  13.494
57951W        W23178  23.614  34.728  14.488
57952W        W23179   6.183  34.504  14.052
57953W        W23180  35.969  17.700  14.881
57954W        W23181   8.283  29.278  11.765
57955W        W23182  38.663  25.064  13.446
57956W        W23183  35.489  38.562  10.227
57957W        W23184  10.225  12.997  13.718
57958W        W23185  26.571  30.311   4.927
57959W        W23186   4.384  17.090  12.000
57960W        W23187  20.028  12.746   1.837
57961W        W23188  23.567   5.909   4.254
57962W        W23189  40.085   7.725   0.720
57963W        W23190  35.341  17.705   0.509
57964W        W23191  24.415  34.696   2.144
57965W        W23192  35.107  15.110   1.048
57966W        W23193  29.787   8.954   3.706
57967W        W23194  18.140  31.199   4.021
57968W        W23195   0.520  27.694  12.027
57969W        W23196  37.333  24.068  10.703
57970W        W23197  13.523  32.343   2.745
57971W        W23198  14.676  33.618   0.509
57972W        W23199  35.874  12.859   3.824
57973W        W23200   7.635  32.914   1.800
57974W        W23201  34.579  39.047   1.795
57975W        W23202   3.713  15.158  10.667
57976W        W23203  34.549  14.521  13.930
57977W        W23204   8.906  35.442  14.446
57978W        W23205  33.013  19.195  13.621
57979W        W23206  35.454  38.558  12.195
57980W        W23207  26.696  11.428   4.437
57981W        W23208  32.272   6.230  12.492
57982W        W23209   8.705  43.338   4.562
57983W        W23210  17.009  10.312   3.772
57984W        W23211  42.745  31.601   0.989
57985W        W23212   4.973  35.334  11.112
57986W        W23213  19.266   5.916   1.443
57987W        W23214  14.233  21.880   3.763
57988W        W23215   1.223  28.561  14.909
57989W        W23216  31.072  12.626   9.764
57990W        W23217  18.331   5.734   4.512
57991W        W23218  26.935   3.134  13.871
57992W        W23219  35.083  19.761  10.935
57993W        W23220  37.054  10.040  12.456
57994W        W23221  22.105  22.731  14.341
57995W        W23222  19.076   2.062   3.218
57996W        W23223  20.115   3.913  10.647
57997W        W23224  25.965  23.939   1.129
57998W        W23225  43.921   8.061  13.049
57999W        W23226   8.881  22.326  12.556
58000W        W23227  19.671  11.896  11.879
58001W        W23228   3.692  24.641  12.331
58002W        W23229  24.479  40.995  13.575
58003W        W23230  15.787  10.335  14.331
58004W        W23231  28.747  25.932   2.863
58005W        W23232  34.456  29.651  11.678
58006W        W23233  43.332  27.419  11.427
58007W        W23234   2.527   4.339  12.852
58008W        W23235  15.541  35.030   3.873
58009W        W23236  15.172  39.091   1.782
58010W        W23237  44.391  34.134  13.513
58011W        W23238  44.325  37.300  12.434
58012W        W23239  15.315  27.744   0.305
58013W        W23240  14.739  36.050  10.701
58014W        W23241  44.268   7.144  10.965
58015W        W23242   8.541  31.574   1.316
58016W        W23243  25.693  43.007  11.216
58017W        W23244  19.210  14.858   3.012
58018W        W23245  12.726  16.354   1.570
58019W        W23246   4.397  20.672  11.970
58020W        W23247  12.633  27.038   1.391
58021W        W23248  38.536  30.929   4.551
58022W        W23249  35.759  37.230  11.079
58023W        W23250   2.473   3.459   1.409
58024W        W23251  24.081   1.806   0.029
58025W        W23252  10.617  32.401  13.388
58026W        W23253  11.680  30.271  13.922
58027W        W23254  27.058  38.554   2.344
58028W        W23255  22.578  30.388   3.554
58029W        W23256  38.458  36.053   0.067
58030W        W23257  10.439   1.456  14.399
58031W        W23258  27.371  34.112  12.121
58032W        W23259  44.622  24.997   2.434
58033W        W23260  33.105   3.475   0.341
58034W        W23261  12.110  31.346  14.313
58035W        W23262  32.601  16.172  14.644
58036W        W23263  20.190  36.474  12.496
58037W        W23264   3.679  12.641   1.659
58038W        W23265  40.214  21.147  12.989
58039W        W23266   8.920   6.844   0.190
58040W        W23267  13.378   8.686   3.067
58041W        W23268  34.909   6.419  11.594
58042W        W23269  26.900   4.791   2.187
58043W        W23270  15.233  31.999  10.955
58044W        W23271  37.289  19.031   4.450
58045W        W23272  18.560  14.238   3.561
58046W        W23273  31.771  23.565  10.695
58047W        W23274  43.090  14.690   0.153
58048W        W23275  36.810  13.095   2.642
58049W        W23276  41.222  41.189   0.281
58050W        W23277  16.970  42.940  11.530
58051W        W23278  24.212   0.918   3.356
58052W        W23279  24.088  24.296  11.682
58053W        W23280  23.455   9.772  14.346
58054W        W23281  29.531  15.726  12.479
58055W        W23282  17.350  18.755   0.671
58056W        W23283  24.005  42.406  11.613
58057W        W23284  43.585   0.444   3.268
58058W        W23285  28.054   4.592   3.181
58059W        W23286  19.598  28.350  14.971
58060W        W23287  16.084   3.341  13.876
58061W        W23288  21.263  23.132  14.028
58062W        W23289  16.587  20.776   3.757
58063W        W23290   2.338  23.541   0.381
58064W        W23291  19.204  29.079   0.002
58065W        W23292  44.756  25.259   2.860
58066W        W23293   8.883  14.229  12.142
58067W        W23294  18.497  34.776  11.974
58068W        W23295  34.346  40.582   0.782
58069W        W23296  37.349  29.863   4.514
58070W        W23297  29.098  40.134   0.170
58071W        W23298   1.111   9.509  12.482
58072W        W23299  33.429  31.704   4.010
58073W        W23300  43.792  14.291  11.799
58074W        W23301  28.013  33.924  12.947
58075W        W23302  12.322  36.799   1.386
58076W        W23303  29.341  16.632  12.035
58077W        W23304  34.586   3.955   1.747
58078W        W23305  33.451  28.634   0.439
58079W        W23306  18.950  20.613   1.813
58080W        W23307   8.469  34.817   5.414
58081W        W23308   9.321   7.319  10.798
58082W        W23309  40.234  33.391  13.440
58083W        W23310  22.580  19.770   2.624
58084W        W23311  36.774  35.630   2.682
58085W        W23312  38.377  25.277  12.508
58086W        W23313  17.594  18.510  11.611
58087W        W23314  11.885  44.177   4.174
58088W        W23315  16.784  27.827  14.143
58089W        W23316  22.682  44.730   2.383
58090W        W23317  25.562  10.172   0.839
58091W        W23318  10.643  33.441  12.904
58092W        W23319  13.121   5.222   2.420
58093W        W23320   1.813  37.638  13.543
58094W        W23321  42.491  42.755   2.187
58095W        W23322  32.507  11.154  11.041
58096W        W23323   7.227  12.620   1.714
58097W        W23324  32.435   0.479   0.876
58098W        W23325  11.312  18.807  12.831
58099W        W23326  27.161   3.925  12.557
58100W        W23327  35.840   6.710  13.353
58101W        W23328  26.382  12.942  11.250
58102W        W23329  28.129  10.436   0.317
58103W        W23330  38.471  19.659   4.184
58104W        W23331  12.362  20.565  14.099
58105W        W23332  20.605  10.865  11.081
58106W        W23333  15.270  38.777  12.454
58107W        W23334  44.726  30.970  14.593
58108W        W23335  13.319  28.685   2.377
58109W        W23336   1.306  25.189  14.894
58110W        W23337  10.640  25.208  12.458
58111W        W23338  24.654  33.132   3.155
58112W        W23339  19.019  18.540  12.659
58113W        W23340  15.758  26.967   3.635
58114W        W23341   1.764  33.790  11.983
58115W        W23342  24.268  16.525  14.162
58116W        W23343   6.691  23.298   3.512
58117W        W23344  30.987   2.406   1.271
58118W        W23345  37.019  15.743  13.827
58119W        W23346  16.251  30.681   0.442
58120W        W23347  42.363  26.091   0.241
58121W        W23348  23.129  14.345  14.099
58122W        W23349  27.972  28.096   3.753
58123W        W23350   8.834  14.723   2.772
58124W        W23351   2.935  30.646  13.550
58125W        W23352  10.756  15.289  12.017
58126W        W23353   7.939  26.121  13.801
58127W        W23354   5.780   2.950   2.311
58128W        W23355  16.277  23.501   4.534
58129W        W23356  14.814  42.258   4.695
58130W        W23357  13.651  21.810  10.622
58131W        W23358  44.180  34.345   3.714
58132W        W23359   3.031   6.897   3.086
58133W        W23360  41.351  14.317  11.134
58134W        W23361  17.561  10.946   0.276
58135W        W23362  32.986  36.266  12.462
58136W        W23363  30.606  38.833  12.034
58137W        W23364  31.607  33.036  13.039
58138W        W23365  35.499  16.448  12.016
58139W        W23366  41.520  21.026   1.660
58140W        W23367  42.772   6.446   2.377
58141W        W23368  28.227  28.717  14.442
58142W        W23369  40.039  28.012   3.173
58143W        W23370   7.137   7.411   3.279
58144W        W23371  15.801  38.463  10.690
58145W        W23372  36.044  21.179  12.094
58146W        W23373   8.405  22.618   0.467
58147W        W23374  42.694   8.604   3.206
58148W        W23375   2.225  42.018   1.917
58149W        W23376  28.707   5.895  11.905
58150W        W23377  12.127  43.368   4.716
58151W        W23378   6.345  21.073   0.295
58152W        W23379  11.233  11.344   0.962
58153W        W23380  34.471  19.120   3.133
58154W        W23381   3.014   6.496   2.771
58155W        W23382  39.105  42.779  10.581
58156W        W23383  22.548  33.115  13.295
58157W        W23384  20.544  25.985   4.632
58158W        W23385  37.932  44.524   1.637
58159W        W23386   4.472  38.394  10.598
58160W        W23387  34.108  10.607   1.455
58161W        W23388  22.614  37.305  11.463
58162W        W23389   3.233  26.065   3.655
58163W        W23390  39.220  34.032  10.541
58164W        W23391  11.599  37.097   1.831
58165W        W23392  44.745  11.776   1.184
58166W        W23393  38.781  33.800   4.067
58167W        W23394  43.550  26.506  12.500
58168W        W23395  15.775  14.090   2.345
58169W        W23396   5.339  25.956  14.104
58170W        W23397   7.528  12.829  11.493
58171W        W23398  28.721  25.438  14.842
58172W        W23399  44.279   5.346   2.154
58173W        W23400   7.264  22.006   1.311
58174W        W23401  26.116  30.130   4.815
58175W        W23402  24.446   3.953   0.752
58176W        W23403  35.915  15.311  13.490
58177W        W23404  21.542  28.516  13.297
58178W        W23405  26.524  39.843  13.525
58179W        W23406  32.164  40.942  11.700
58180W        W23407  31.370   5.465   4.583
58181W        W23408   9.588   5.323   2.896
58182W        W23409   3.270   7.456  13.915
58183W        W23410  18.198  39.178   1.007
58184W        W23411  40.375  34.123   2.101
58185W        W23412  27.677  39.498   0.357
58186W        W23413  37.303  18.191   2.403
58187W        W23414  29.437   5.241   0.345
58188W        W23415   6.389   9.604   3.227
58189W        W23416  36.109   7.357  14.386
58190W        W23417  23.218   3.716   1.325
58191W        W23418  38.334  16.993  12.083
58192W        W23419  41.984   3.002   0.438
58193W        W23420  17.268  42.919  13.931
58194W        W23421  22.646  15.664  11.538
58195W        W23422  36.077  35.401  12.781
58196W        W23423  41.254  40.002  11.660
58197W        W23424  34.817   5.838  12.430
58198W        W23425  16.519  41.298   4.127
58199W        W23426  42.337  39.377   1.410
58200W        W23427  28.400   6.793   2.833
58201W        W23428  12.675  19.655  14.894
58202W        W23429  34.233  18.154  14.849
58203W        W23430  43.389   4.917  10.650
58204W        W23431   5.923  25.001   4.347
58205W        W23432   2.280  20.106  12.554
58206W        W23433  43.882   4.872  10.901
58207W        W23434  18.543  36.739  10.740
58208W        W23435  16.519  29.036  12.831
58209W        W23436   1.076  16.621  12.204
58210W        W23437  31.255  20.145  14.033
58211W        W23438  27.100  43.042   4.964
58212W        W23439   2.803  26.046  12.166
58213W        W23440  43.029  42.307  11.417
58214W        W23441  43.876  37.430   2.661
58215W        W23442  43.638  41.741  10.798
58216W        W23443  24.175  23.208  14.524
58217W        W23444  42.631  44.201   3.685
58218W        W23445   4.532  13.613   2.674
58219W        W23446  39.836   9.353  13.832
58220W        W23447  44.952   5.797   3.228
58221W        W23448  26.085  42.266   1.846
58222W        W23449  30.169  35.526   4.945
58223W        W23450  35.931  39.878   3.128
58224W        W23451  11.413  16.275   2.786
58225W        W23452  13.107  18.526  10.988
58226W        W23453  19.043  35.615  14.850
58227W        W23454  27.021   7.077  13.895
58228W        W23455  12.318  13.061  14.797
58229W        W23456  23.595   6.250   2.098
58230W        W23457   2.904  34.563  10.691
58231W        W23458  28.022  28.893  14.964
58232W        W23459  34.306  18.243   1.743
58233W        W23460  10.707   7.235  12.582
58234W        W23461  27.152  43.262   0.979
58235W        W23462  34.967   0.947  14.872
58236W        W23463  27.420  19.096  11.560
58237W        W23464  20.675   4.291  13.587
58238W        W23465  29.931   4.245   2.316
58239W        W23466  27.218  41.006  13.042
58240W        W23467  11.806   4.060  10.505
58241W        W23468  11.327  16.539  13.621
58242W        W23469  34.089  18.841   3.325
58243W        W23470  26.975   4.156   1.278
58244W        W23471  42.049  43.866   1.031
58245W        W23472   0.578   1.506   2.801
58246W        W23473  41.827  24.643  12.958
58247W        W23474  21.345   4.212  14.283
58248W        W23475  34.600  11.122   1.634
58249W        W23476  34.885  17.597  11.491
58250W        W23477  28.610  12.917   2.334
58251W        W23478   9.158  41.170   3.163
58252W        W23479  14.877  12.588   5.115
58253W        W23480  27.003  34.480   3.080
58254W        W23481  39.767  43.415  11.597
58255W        W23482  26.780  10.185   4.103
58256W        W23483   5.632  40.276   3.179
58257W        W23484  10.273  33.147   0.889
58258W        W23485   2.757   8.760  13.507
58259W        W23486   5.856  11.408  11.345
58260W        W23487  44.786  40.455   0.876
58261W        W23488  19.269   0.828   3.548
58262W        W23489  11.161  31.092   3.669
58263W        W23490   7.199  11.355  14.986
58264W        W23491  36.154  27.657  11.023
58265W        W23492  43.838  12.542  14.770
58266W        W23493  44.963  22.498   0.423
58267W        W23494  29.898   2.402  12.273
58268W        W23495  11.213  32.426   0.679
58269W        W23496  37.278   6.417   4.832
58270W        W23497  37.545  16.696  12.447
58271W        W23498  13.192   4.990  13.978
58272W        W23499  41.906   0.242   1.049
58273W        W23500  20.753  41.976  11.346
58274W        W23501  19.787  42.341   1.773
58275W        W23502  33.667  25.222   2.214
58276W        W23503   1.879  23.770   0.462
58277W        W23504  26.050  28.727   2.687
58278W        W23505  17.738  23.789  11.530
58279W        W23506  21.895  24.659  12.193
58280W        W23507   1.916   4.365  13.988
58281W        W23508   7.719  31.312   2.430
58282W        W23509  33.423   9.159   2.141
58283W        W23510   5.169  31.398  13.546
58284W        W23511  40.832   7.787   2.790
58285W        W23512  42.047  13.107  10.759
58286W        W23513  41.811   7.413  13.018
58287W        W23514   6.174  10.759  10.891
58288W        W23515  28.571  12.964   4.524
58289W        W23516  27.505  38.830   0.948
58290W        W23517   1.616  37.186   0.923
58291W        W23518  32.059  39.472  13.357
58292W        W23519   4.103  18.684  10.546
58293W        W23520  26.713  41.467   0.712
58294W        W23521   5.734  15.354   2.781
58295W        W23522   3.954  36.504  12.946
58296W        W23523  44.759   6.190  12.118
58297W        W23524  43.655   7.625  12.944
58298W        W23525  37.178  27.682  14.929
58299W        W23526  15.706   7.911   5.010
58300W        W23527  16.153   8.681  11.363
58301W        W23528  29.153   6.349   4.673
58302W        W23529  19.866   9.006   0.933
58303W        W23530  33.522  13.852   0.734
58304W        W23531  44.196  15.347  12.392
58305W        W23532  35.334  41.962  10.772
58306W        W23533  28.176  17.115   2.369
58307W        W23534  36.547  21.093   3.265
58308W        W23535  34.725  41.876  10.822
58309W        W23536  34.626  17.400   0.421
58310W        W23537  30.691  21.773  14.457
58311W        W23538  14.581  12.329  13.253
58312W        W23539  41.438  41.841  14.064
58313W        W23540  31.665  11.634   4.060
58314W        W23541  22.047  38.166   4.843
58315W        W23542  10.940  18.665  10.210
58316W        W23543  39.288  26.630   3.322
58317W        W23544   2.771   8.459   4.109
58318W        W23545   7.353  38.331   4.903
58319W        W23546  43.499   4.658  11.649
58320W        W23547   2.502  40.060   2.956
58321W        W23548   2.508  12.212   1.218
58322W        W23549   7.277  30.992  13.963
58323W        W23550  44.999  44.851  13.501
58324W        W23551  21.471   5.759   1.571
58325W        W23552  24.601   3.239   1.495
58326W        W23553  39.147  12.153  13.324
58327W        W23554  31.531  11.141   4.120
58328W        W23555  19.243  12.956   4.330
58329W        W23556  19.011  21.644  14.706
58330W        W23557  23.677  10.246  14.404
58331W        W23558  34.811  40.134  13.147
58332W        W23559  34.049  14.786   4.350
58333W        W23560  43.166  23.827  13.472
58334W        W23561  40.036  29.470  13.874
58335W        W23562  34.083  30.225   4.684
58336W        W23563  28.233  30.001   3.995
58337W        W23564  20.194  35.602   1.351
58338W        W23565  31.474  15.005   2.736
58339W        W23566  25.942   0.327   1.374
58340W        W23567  29.571  15.295  10.626
58341W        W23568  22.955   2.420   4.175
58342W        W23569  37.812   8.921   3.310
58343W        W23570  13.760  28.797  13.800
58344W        W23571  12.655   9.878  14.860
58345W        W23572  24.203  14.326  13.285
58346W        W23573   6.495   2.199   1.604
58347W        W23574  35.314  39.972   0.766
58348W        W23575  37.391  11.600   0.408
58349W        W23576   6.824  42.412  10.951
58350W        W23577  27.151  12.005   2.641
58351W        W23578   1.898  14.762  13.915
58352W        W23579  18.551   6.410  11.267
58353W        W23580  37.016  43.377   1.471
58354W        W23581  17.989   6.863  13.086
58355W        W23582  32.179  33.982   2.740
58356W        W23583  11.326  22.015   2.536
58357W        W23584  43.954  38.234  10.640
58358W        W23585   6.669  13.722  12.944
58359W        W23586  29.758  33.704  11.160
58360W        W23587   2.892  37.029  13.850
58361W        W23588  34.778   3.751   3.481
58362W        W23589  23.221  26.485   3.843
58363W        W23590  20.787  27.801   4.584
58364W        W23591  12.725  15.229  13.570
58365W        W23592  15.171   0.547  11.998
58366W        W23593  38.561  40.050  11.999
58367W        W23594  43.365  44.808   0.352
58368W        W23595  18.602  29.674  14.653
58369W        W23596   3.848   4.889   1.042
58370W        W23597  10.625  25.963  13.062
58371W        W23598  15.814   0.188  13.525
58372W        W23599  17.512  21.693   2.774
58373W        W23600  28.784  29.168   0.230
58374W        W23601  44.853   7.118   3.059
58375W        W23602  22.097  21.801  12.551
58376W        W23603  14.793   3.815   2.808
58377W        W23604   7.051  42.833   4.535
58378W        W23605  27.919  12.276  13.360
58379W        W23606  32.264   7.356   1.328
58380W        W23607  20.138  37.888   1.480
58381W        W23608  33.861  32.479  14.718
58382W        W23609   7.076  44.250   4.558
58383W        W23610   3.999  36.089   5.048
58384W        W23611   8.178  29.149  12.235
58385W        W23612  17.456  36.905   1.311
58386W        W23613  16.808  23.618   2.714
58387W        W23614  40.266  36.476  12.503
58388W        W23615  14.723  12.715   3.654
58389W        W23616  27.539  14.097  10.454
58390W        W23617  12.837   5.822   0.323
58391W        W23618  30.975   2.451  13.977
58392W        W23619   0.468  15.857  13.595
58393W        W23620  42.733  19.158   0.373
58394W        W23621  34.699   3.781   2.914
58395W        W23622  31.055  12.634   3.642
58396W        W23623  20.387  30.659  13.355
58397W        W23624  11.763  15.297  10.324
58398W        W23625  11.271  40.952   0.799
58399W        W23626  20.619  30.241   2.898
58400W        W23627  20.182  44.792  14.374
58401W        W23628  11.152  40.850  11.656
58402W        W23629  42.564   2.437   4.904
58403W        W23630  11.696  19.518   1.858
58404W        W23631  36.960  37.598  14.233
58405W        W23632  22.995  37.952   0.923
58406W        W23633  34.533   1.724   0.934
58407W        W23634  20.223  30.123  14.917
58408W        W23635  13.634  32.139  14.230
58409W        W23636   0.834  43.161  12.124
58410W        W23637  41.461   7.373  12.087
58411W        W23638  30.439  38.637  12.519
58412W        W23639   0.513  40.764   1.961
58413W        W23640  13.202  11.257   1.039
58414W        W23641  23.203   9.714   2.214
58415W        W23642  12.594  31.243  12.824
58416W        W23643  16.572  22.576   1.973
58417W        W23644   4.803  42.269   3.197
58418W        W23645   0.489   0.744   1.469
58419W        W23646  13.045  16.999  12.613
58420W        W23647   7.411   8.422  13.331
58421W        W23648  37.122  12.558   1.358
58422W        W23649  28.929  18.559   0.875
58423W        W23650   3.981  15.259   2.151
58424W        W23651   7.176  41.858  11.515
58425W        W23652  25.423  11.310  12.115
58426W        W23653  25.220  22.003  14.122
58427W        W23654  40.771  40.320  12.058
58428W        W23655   6.272  29.470   3.733
58429W        W23656  30.886   9.958   4.303
58430W        W23657   5.382  38.811   1.712
58431W        W23658  33.353  25.960   2.907
58432W        W23659   4.720  18.158  11.064
58433W        W23660  17.760  18.327  14.907
58434W        W23661  17.055  24.385   3.455
58435W        W23662  20.668  12.125   3.705
58436W        W23663   3.544  21.541  13.589
58437W        W23664  28.769  27.503  14.786
58438W        W23665   7.056  23.151  14.509
58439W        W23666  40.750  27.948  14.843
58440W        W23667   5.757  38.178   2.847
58441W        W23668  14.739   9.446   0.752
58442W        W23669   1.185  16.358  11.343
58443W        W23670  21.502   6.206   0.765
58444W        W23671  31.446   5.516   2.788
58445W        W23672  22.160  12.133  12.028
58446W        W23673  22.217  23.973   1.633
58447W        W23674  33.659  27.682   4.167
58448W        W23675  32.671  31.972  13.805
58449W        W23676  29.724  35.126  13.226
58450W        W23677   7.566  37.544   0.257
58451W        W23678   6.733  37.548  12.000
58452W        W23679  16.500  40.343  13.483
58453W        W23680   9.127   9.087  14.796
58454W        W23681  29.058  42.137  13.993
58455W        W23682   7.387   2.324   3.293
58456W        W23683  34.181  11.652  13.023
58457W        W23684  38.824  28.138  14.012
58458W        W23685   6.384  44.807   2.830
58459W        W23686  10.569  30.176  11.111
58460W        W23687  32.927   2.280   4.239
58461W        W23688  13.327  19.391  12.943
58462W        W23689  32.875  13.596   2.322
58463W        W23690  28.698  27.630  13.365
58464W        W23691  26.215  17.246   1.831
58465W        W23692   1.374  39.881  14.217
58466W        W23693   9.584  26.041   0.791
58467W        W23694  21.527  31.928   1.967
58468W        W23695  28.837  44.660  12.655
58469W        W23696  28.084  44.854  14.485
58470W        W23697  43.896  43.906   0.321
58471W        W23698  11.841   1.271   3.584
58472W        W23699  20.675  25.765  10.903
58473W        W23700  21.287  31.170  11.886
58474W        W23701  40.849  19.249   2.343
58475W        W23702  18.749  29.572   3.656
58476W        W23703   5.756  40.885   0.822
58477W        W23704  13.340   5.480  13.782
58478W        W23705  43.797  18.802  13.754
58479W        W23706  42.442  40.982  11.482
58480W        W23707   3.402   1.268  12.451
58481W        W23708   4.712  40.658  13.378
58482W        W23709  23.990   9.430  14.891
58483W        W23710  28.511  15.174  14.912
58484W        W23711  41.030  13.281  13.304
58485W        W23712   5.925   0.183  14.355
58486W        W23713  34.515  16.078   1.476
58487W        W23714  42.487   2.914   1.660
58488W        W23715   6.318  26.646   0.826
58489W        W23716  26.089   3.840   3.956
58490W        W23717   7.929  20.484  14.836
58491W        W23718  42.125  39.797  13.022
58492W        W23719   1.411   0.598  12.118
58493W        W23720  14.037  10.707  11.580
58494W        W23721  44.297  32.756   4.827
58495W        W23722  18.471  20.712   1.689
58496W        W23723  23.163  35.134   0.113
58497W        W23724  29.417  41.066   0.418
58498W        W23725  37.071  19.492   4.364
58499W        W23726   9.369  30.994   4.159
58500W        W23727  43.105  39.659  11.278
58501W        W23728  10.773  32.106  14.353
58502W        W23729  43.740  22.805  11.003
58503W        W23730  32.727  20.664   3.761
58504W        W23731   0.400  18.646  11.226
58505W        W23732  31.829  35.416  13.448
58506W        W23733  42.254  20.152  13.499
58507W        W23734  29.404  17.622   1.519
58508W        W23735  15.855  29.052   0.537
58509W        W23736  26.743  34.626  10.579
58510W        W23737   2.923   8.776  14.856
58511W        W23738  39.098  17.375  11.258
58512W        W23739   2.360  31.070  11.461
58513W        W23740  29.084  41.110  12.326
58514W        W23741  16.777  30.048  11.777
58515W        W23742   0.545  24.827   3.248
58516W        W23743   8.146  43.819  12.843
58517W        W23744  39.366  15.024   2.939
58518W        W23745  13.503   6.238   0.889
58519W        W23746  44.215   3.338   2.181
58520W        W23747  35.872  12.371   3.989
58521W        W23748  12.649  39.430   4.638
58522W        W23749  42.846  21.014  12.334
58523W        W23750  29.775  33.555  14.133
58524W        W23751  34.121  17.454   0.414
58525W        W23752  43.774  15.110  13.525
58526W        W23753  41.795  34.982  11.641
58527W        W23754  43.357  15.763  14.839
58528W        W23755  38.131  39.412  14.554
58529W        W23756  15.312  27.444   1.760
58530W        W23757  23.669  41.797  13.900
58531W        W23758  27.978  28.879  13.060
58532W        W23759   2.623  40.847  12.238
58533W        W23760   2.229  35.358  12.533
58534W        W23761  31.196  31.579   2.392
58535W        W23762  41.998  28.484  12.660
58536W        W23763  29.873  40.480  14.486
58537W        W23764  28.718  32.160   2.291
58538W        W23765  20.566   4.911  14.185
58539W        W23766  30.063  24.615   2.417
58540W        W23767  11.094  33.899   1.818
58541W        W23768  21.145   0.818   0.365
58542W        W23769  28.646  16.456   2.339
58543W        W23770  11.143  14.938  12.060
58544W        W23771  42.262  18.417   2.893
58545W        W23772   1.508   4.877   1.133
58546W        W23773  18.681  18.590   2.557
58547W        W23774   6.797  13.757   1.024
58548W        W23775  37.879  30.560  13.429
58549W        W23776  11.771   5.808  11.856
58550W        W23777  37.478  13.365   4.582
58551W        W23778  34.701  25.892   1.122
58552W        W23779  41.772  21.586  14.380
58553W        W23780   5.486  16.848  12.489
58554W        W23781  34.873  32.459   4.170
58555W        W23782  27.028  27.931  12.926
58556W        W23783  23.511  41.834  12.119
58557W        W23784  40.775  13.573  14.101
58558W        W23785   9.615   1.392   4.147
58559W        W23786  17.454   3.786   1.204
58560W        W23787  24.677  13.823  14.017
58561W        W23788  39.761  42.836  12.578
58562W        W23789   7.935  28.708   4.636
58563W        W23790  39.427  30.909   1.220
58564W        W23791  13.800  26.505   4.601
58565W        W23792  10.102  22.069  13.480
58566W        W23793  11.817  29.066   2.777
58567W        W23794  41.639  42.256   4.666
58568W        W23795  20.324  28.689   2.096
58569W        W23796  10.843  30.182  11.956
58570W        W23797   2.852  31.118  13.380
58571W        W23798  40.506  25.548   0.534
58572W        W23799  25.245  16.833  11.188
58573W        W23800  40.005  21.261  12.511
58574W        W23801  27.523  25.441  13.793
58575W        W23802   7.847  24.396   1.931
58576W        W23803  37.011  15.431   2.609
58577W        W23804  22.230  15.868   3.378
58578W        W23805  33.558   6.418   4.065
58579W        W23806  33.413   5.680   0.836
58580W        W23807  37.867  17.346   1.718
58581W        W23808   8.284   6.888   1.532
58582W        W23809   9.678  39.320  13.850
58583W        W23810  20.791  23.966   4.878
58584W        W23811  42.615  40.457   0.796
58585W        W23812  37.048  41.560   3.435
58586W        W23813  15.157  20.361   3.218
58587W        W23814  25.489  22.279  13.566
58588W        W23815  26.719  33.818  13.837
58589W        W23816  11.577  20.500  12.520
58590W        W23817  26.956  28.944   4.246
58591W        W23818  32.698   0.210   4.301
58592W        W23819  11.380  35.623   4.086
58593W        W23820  18.448  12.015   0.181
58594W        W23821  27.494  14.605  10.733
58595W        W23822  27.861   7.822  11.187
58596W        W23823   2.355  23.513   5.165
58597W        W23824   1.754  21.273  12.517
58598W        W23825  14.997  10.669  13.403
58599W        W23826  38.214  38.056   1.416
58600W        W23827   1.417  34.625   0.885
58601W        W23828  42.233  41.001   4.845
58602W        W23829  29.798   5.264   4.334
58603W        W23830   2.937  17.854   2.765
58604W        W23831  27.181   9.080  12.751
58605W        W23832  33.198  32.994  13.082
58606W        W23833  33.288  24.104  12.913
58607W        W23834  13.364  26.604   0.290
58608W        W23835  35.355  44.308   3.109
58609W        W23836  34.934  41.631   3.269
58610W        W23837  31.273  24.760  10.313
58611W        W23838  10.628  11.179  13.805
58612W        W23839   4.385  34.886   2.668
58613W        W23840   9.618  34.507   1.466
58614W        W23841  26.952  27.255  13.591
58615W        W23842  25.067  16.647  14.503
58616W        W23843  15.133  28.665   1.255
58617W        W23844  36.499  43.027   1.566
58618W        W23845  14.667  16.372   4.157
58619W        W23846  31.537   4.229   3.112
58620W        W23847  39.955  17.691  11.504
58621W        W23848  12.611  24.146  11.232
58622W        W23849  35.181  11.329  13.573
58623W        W23850  23.719  16.121   1.855
58624W        W23851  20.043  30.991  10.682
58625W        W23852   7.409   4.444  13.757
58626W        W23853   2.979  12.123   0.337
58627W        W23854   6.247   5.508   0.800
58628W        W23855  17.874  13.888   2.218
58629W        W23856   8.224  39.130  11.601
58630W        W23857  23.816  24.248   1.351
58631W        W23858   4.701   8.935  12.160
58632W        W23859  34.035  21.111  14.302
58633W        W23860  42.245  29.895  12.056
58634W        W23861  41.842  18.884  11.621
58635W        W23862  41.441  13.587  12.983
58636W        W23863  13.823  21.492  14.509
58637W        W23864  26.645   2.224  14.734
58638W        W23865  15.283  10.703  14.754
58639W        W23866  16.089  10.836   2.834
58640W        W23867  44.201  24.512   3.335
58641W        W23868  31.137  35.380  12.943
58642W        W23869   5.878  40.714   3.293
58643W        W23870  18.556  39.455  13.407
58644W        W23871  29.978   5.263   3.024
58645W        W23872  13.494   1.662  13.548
58646W        W23873   9.409  16.622  14.346
58647W        W23874  20.081  24.100   2.055
58648W        W23875   5.713  30.979  12.537
58649W        W23876  11.335   3.502  13.789
58650W        W23877  34.370  37.008   1.700
58651W        W23878   3.547  11.776  12.956
58652W        W23879  34.067   2.398  14.114
58653W        W23880   3.305   3.211   4.400
58654W        W23881   2.883   4.253   3.272
58655W        W23882  32.305  31.395   1.197
58656W        W23883   6.234   1.707   0.199
58657W        W23884  33.475  21.523   3.814
58658W        W23885  19.100  22.009  14.353
58659W        W23886  10.519  16.831   3.194
58660W        W23887   4.373  12.257  12.084
58661W        W23888  28.172  36.912   1.168
58662W        W23889  43.371   0.512  12.182
58663W        W23890  41.412  18.169   3.802
58664W        W23891   1.662   9.261   2.689
58665W        W23892  41.580   1.400   2.187
58666W        W23893  26.293   7.827  12.928
58667W        W23894   3.353  29.008   2.990
58668W        W23895  13.345  14.243  10.245
58669W        W23896   0.074  35.005  13.560
58670W        W23897  20.652  10.833   4.248
58671W        W23898   5.896  30.137  14.432
58672W        W23899  30.113  32.206   3.809
58673W        W23900  42.199  40.599  10.224
58674W        W23901  37.766  40.569  12.579
58675W        W23902  22.676   1.779  14.114
58676W        W23903  14.701  28.396   1.338
58677W        W23904  20.176  39.820   0.441
58678W        W23905  44.333  13.805   0.915
58679W        W23906  22.760  22.479  14.906
58680W        W23907   2.358   1.845  13.621
58681W        W23908  16.689  10.984  10.814
58682W        W23909  37.899  33.937   2.206
58683W        W23910   6.678  11.329   1.823
58684W        W23911   0.010  41.886   2.482
58685W        W23912  39.419   6.785   3.038
58686W        W23913  35.703  40.896  13.339
58687W        W23914  31.717  20.280  12.480
58688W        W23915  33.862  21.233   3.648
58689W        W23916  23.517  28.070  13.738
58690W        W23917  42.757  25.098   3.107
58691W        W23918  14.767  39.470   2.887
58692W        W23919   9.174  44.772   1.214
58693W        W23920  40.351   3.346   2.363
58694W        W23921  13.657   6.458   2.141
58695W        W23922  29.239  14.214  13.559
58696W        W23923  14.804  15.746   1.733
58697W        W23924  17.752   4.213  12.952
58698W        W23925  33.492   7.379   9.754
58699W        W23926  40.918  37.226   3.321
58700W        W23927  18.585  17.761   3.567
58701W        W23928  25.697  20.112   2.218
58702W        W23929  35.016  26.553   5.119
58703W        W23930  29.891  27.985  13.860
58704W        W23931  41.915  20.517  13.036
58705W        W23932  22.353  26.261  11.226
58706W        W23933   9.684  42.332  10.897
58707W        W23934  23.087   3.220   1.285
58708W        W23935   8.056  39.103   2.693
58709W        W23936  40.056   2.134   0.345
58710W        W23937  44.083  28.214   4.600
58711W        W23938  29.361  20.503  14.307
58712W        W23939  21.539  16.121   3.357
58713W        W23940   7.917  40.997   4.682
58714W        W23941   6.287  13.883   1.200
58715W        W23942   0.969  27.377   0.417
58716W        W23943  38.374   2.724   1.684
58717W        W23944   1.322  32.089   2.733
58718W        W23945   9.719   7.514  14.385
58719W        W23946  21.688  35.413   3.769
58720W        W23947  20.331  22.315   4.093
58721W        W23948  43.474  13.121  13.423
58722W        W23949  12.992  42.523  11.094
58723W        W23950  35.393   5.772  10.750
58724W        W23951  41.203   5.667   0.239
58725W        W23952  25.732   2.174  10.854
58726W        W23953   4.347  42.579  13.855
58727W        W23954  37.267  27.099   0.679
58728W        W23955  18.278   8.886   3.545
58729W        W23956   7.779   3.197  13.863
58730W        W23957  34.909   6.142  12.866
58731W        W23958  20.618   9.828   0.465
58732W        W23959   5.256  38.887  14.884
58733W        W23960  15.036  41.615   4.112
58734W        W23961  12.338   0.292  12.117
58735W        W23962  11.453   7.806  12.587
58736W        W23963  23.650  11.741   1.237
58737W        W23964  17.035   2.023  12.149
58738W        W23965   5.220  33.845   3.636
58739W        W23966  43.995  15.538   2.100
58740W        W23967  11.182  39.104   3.204
58741W        W23968  35.880  11.172   2.209
58742W        W23969  17.347  15.338  14.916
58743W        W23970   6.919   2.634  13.791
58744W        W23971  11.268  44.441   0.997
58745W        W23972  36.286  40.917   1.764
58746W        W23973  13.426  26.116  12.447
58747W        W23974   3.918   9.753   3.653
58748W        W23975   9.218   5.916  11.709
58749W        W23976  32.051  14.335  14.254
58750W        W23977   6.266  18.517   3.180
58751W        W23978  14.777  10.640   3.723
58752W        W23979   0.059  12.225   0.361
58753W        W23980   1.392  18.622  14.882
58754W        W23981  32.917   3.247   4.599
58755W        W23982  42.456  33.406   3.726
58756W        W23983  22.694  39.946   1.380
58757W        W23984  15.493  32.982   3.659
58758W        W23985  44.269  22.553  11.926
58759W        W23986  36.278  37.561   3.296
58760W        W23987  43.438  12.366  12.963
58761W        W23988  26.165   9.653   0.298
58762W        W23989  36.828  12.381  13.941
58763W        W23990  28.853  38.809   2.963
58764W        W23991  34.055  25.461  10.952
58765W        W23992  22.285  12.338   0.242
58766W        W23993  26.014   0.950  12.178
58767W        W23994  25.028   9.230   1.885
58768W        W23995   7.447  40.376  14.302
58769W        W23996  32.015  32.192   4.553
58770W        W23997  20.098  43.318  12.926
58771W        W23998  26.485  29.057   3.213
58772W        W23999  16.189  11.136   0.209
58773W        W24000  13.043  35.078  13.841
58774W        W24001   7.073  42.199   1.752
58775W        W24002  44.973  33.559   3.262
58776W        W24003  29.430  40.220   4.973
58777W        W24004  28.582  44.768  11.805
58778W        W24005  16.738  11.189   2.419
58779W        W24006   3.259   4.495   0.364
58780W        W24007  21.089  43.470  14.945
58781W        W24008  24.461  40.732  14.534
58782W        W24009  12.094  16.487   0.208
58783W        W24010  24.381  24.560   5.017
58784W        W24011  40.780  20.054  11.185
58785W        W24012  31.359  14.703   0.130
58786W        W24013  34.487  21.179  10.008
58787W        W24014  30.359  10.709   9.703
58788W        W24015   4.789  11.907  12.033
58789W        W24016  12.790  37.306   3.192
58790W        W24017   6.295  43.837   1.042
58791W        W24018   8.781  11.480  10.747
58792W        W24019   9.683  23.287   3.595
58793W        W24020   2.406  35.817  12.603
58794W        W24021  13.190  34.423  12.339
58795W        W24022  40.133   3.996   2.326
58796W        W24023   0.485  31.907  14.708
58797W        W24024  18.715  30.081  12.426
58798W        W24025  27.232  31.602   4.540
58799W        W24026   0.462  39.799   1.752
58800W        W24027  24.013   7.213   2.818
58801W        W24028   0.944  39.505  11.960
58802W        W24029  26.705  33.867   1.444
58803W        W24030   3.316  23.610  10.541
58804W        W24031   1.828  10.670   2.661
58805W        W24032   1.470  36.460  12.639
58806W        W24033   6.075   2.866  14.466
58807W        W24034  30.546  32.927   4.120
58808W        W24035  32.080   2.921   2.212
58809W        W24036  37.933  25.732   0.731
58810W        W24037  38.096   6.648   2.267
58811W        W24038  35.465  17.308   4.035
58812W        W24039  27.026  19.858  12.881
58813W        W24040  24.103   7.143  10.658
58814W        W24041  12.312  41.458  14.831
58815W        W24042  13.120  15.299  12.760
58816W        W24043   0.409  23.886  14.235
58817W        W24044   7.275  27.482  12.405
58818W        W24045   0.340  44.281  10.192
58819W        W24046  27.208   7.326   4.622
58820W        W24047  32.529   8.366   3.295
58821W        W24048   5.340  24.576  13.827
58822W        W24049  16.351  23.623  14.031
58823W        W24050  32.107  39.381  11.506
58824W        W24051   8.926  26.571   4.063
58825W        W24052  10.824  22.572  12.465
58826W        W24053  27.313  26.696   4.517
58827W        W24054  28.343  13.947  12.000
58828W        W24055  41.947   7.417  11.117
58829W        W24056  35.110  14.934   0.343
58830W        W24057   9.253   8.120  13.945
58831W        W24058  13.610  34.435   2.848
58832W        W24059  23.551  40.577   4.239
58833W        W24060  34.456  17.746  13.944
58834W        W24061  42.504  43.622   1.854
58835W        W24062  41.910  16.628  13.788
58836W        W24063  36.670  30.390   4.516
58837W        W24064  16.832  33.793  12.093
58838W        W24065  12.299   4.430  11.450
58839W        W24066   6.424  31.168   4.758
58840W        W24067  40.597  30.587  13.355
58841W        W24068   8.176  16.341  13.436
58842W        W24069  32.503  18.303  14.410
58843W        W24070  12.379  19.022   1.638
58844W        W24071   9.441  11.233  14.480
58845W        W24072  39.132  42.471  11.594
58846W        W24073  19.085  44.418  10.364
58847W        W24074  38.914  33.018  14.832
58848W        W24075   5.800  38.050   3.787
58849W        W24076  23.687  37.974  14.575
58850W        W24077  12.871   4.627  14.399
58851W        W24078  26.960  11.117  14.225
58852W        W24079  10.358  42.107  10.796
58853W        W24080   0.255  12.786  13.390
58854W        W24081  15.348  10.534   2.401
58855W        W24082  25.510  22.438  14.525
58856W        W24083  24.429  28.562  12.421
58857W        W24084  31.470   5.446   0.399
58858W        W24085  31.355  20.313  10.865
58859W        W24086  32.195  35.323   4.892
58860W        W24087  11.691  27.323   1.966
58861W        W24088  25.904  40.424  13.901
58862W        W24089  34.178  10.882   4.148
58863W        W24090  11.365  12.669  11.689
58864W        W24091   2.449   4.436   1.956
58865W        W24092  23.152  39.981  12.888
58866W        W24093   5.276  43.977   3.381
58867W        W24094  42.827  25.187  11.526
58868W        W24095  24.210  26.655   3.838
58869W        W24096  30.033  20.782   1.274
58870W        W24097  19.836   8.274  11.197
58871W        W24098  17.296  36.086   4.570
58872W        W24099  18.639  31.523  10.674
58873W        W24100   3.805  27.936  14.418
58874W        W24101  42.429  36.072  12.114
58875W        W24102  24.456  40.137  14.422
58876W        W24103  24.249  19.307   4.126
58877W        W24104  41.560  37.316   1.274
58878W        W24105  16.324  25.979  11.802
58879W        W24106  40.738  40.159  11.496
58880W        W24107  11.379   0.496  14.560
58881W        W24108  26.071  42.113   0.749
58882W        W24109  33.467   0.405   3.630
58883W        W24110  23.483  42.916   4.115
58884W        W24111  13.870  19.494   1.916
58885W        W24112  16.503  43.299   2.709
58886W        W24113  21.011   2.321  13.145
58887W        W24114   1.072   5.663   4.104
58888W        W24115  33.585  26.034   4.242
58889W        W24116   1.504  28.488   3.100
58890W        W24117  43.404  11.662  13.566
58891W        W24118  21.998   1.307  10.038
58892W        W24119  25.554  34.894  14.944
58893W        W24120  11.062   9.603   3.680
58894W        W24121  19.774  32.059  11.625
58895W        W24122  14.702  20.465   3.824
58896W        W24123  39.012   1.377  10.557
58897W        W24124  21.028  34.103   4.220
58898W        W24125  22.059   8.569   2.181
58899W        W24126  43.629  31.621   4.567
58900W        W24127  13.519  29.512   0.262
58901W        W24128  22.730  43.988   0.499
58902W        W24129   4.762  16.620   3.682
58903W        W24130  32.581  20.808  11.211
58904W        W24131  19.653  25.711   0.519
58905W        W24132  18.639   0.898   2.830
58906W        W24133  28.869   2.951   0.523
58907W        W24134  32.589  17.483  13.998
58908W        W24135  41.567  38.079   2.774
58909W        W24136   2.704  19.233   3.244
58910W        W24137  21.994  38.040   0.506
58911W        W24138  16.375  38.293  13.951
58912W        W24139  29.275  13.143  14.351
58913W        W24140  20.006   2.810   5.161
58914W        W24141   3.972   0.517   0.384
58915W        W24142   3.043  15.610   0.439
58916W        W24143  28.417  31.477  11.978
58917W        W24144   6.469  34.967   1.641
58918W        W24145   9.794  44.071   1.202
58919W        W24146  13.404  22.730   1.451
58920W        W24147   7.790   3.681  12.179
58921W        W24148  22.932  22.268  12.262
58922W        W24149  12.726  37.996  12.700
58923W        W24150   8.732  11.104   0.877
58924W        W24151  30.089  10.296  10.482
58925W        W24152  27.778   6.410   1.432
58926W        W24153  19.659  21.937   1.289
58927W        W24154  30.942  17.135   4.843
58928W        W24155  40.051  11.387   1.454
58929W        W24156  16.089   8.663  10.852
58930W        W24157   0.006   9.283   1.432
58931W        W24158  39.601  30.351   4.570
58932W        W24159  44.884  38.984  14.865
58933W        W24160  38.017  14.179   2.800
58934W        W24161  36.358  43.907   1.919
58935W        W24162   0.142  21.193  14.952
58936W        W24163  40.787   2.797  11.537
58937W        W24164  39.043  31.941   1.648
58938W        W24165  36.941  31.578  11.539
58939W        W24166  22.170   9.265   2.658
58940W        W24167  39.376  27.001   2.147
58941W        W24168  14.022   1.284   4.390
58942W        W24169  24.036  35.415   1.672
58943W        W24170  11.305  29.268   0.025
58944W        W24171  14.379  14.791   4.146
58945W        W24172   3.329  38.347  13.040
58946W        W24173  25.088  18.455   3.403
58947W        W24174  32.694   6.289   4.637
58948W        W24175  17.327  10.627   2.258
58949W        W24176  36.923  18.141  13.329
58950W        W24177  43.544   5.230  12.380
58951W        W24178  27.170   4.946   1.774
58952W        W24179   0.265  18.691   1.293
58953W        W24180  34.093  25.990   4.125
58954W        W24181  17.610  25.042  11.288
58955W        W24182  40.773  20.692  14.393
58956W        W24183  26.770  36.956   4.324
58957W        W24184   6.488  29.878   9.899
58958W        W24185   2.019  38.438  12.514
58959W        W24186  34.362   3.609  11.742
58960W        W24187  28.487  13.758   3.391
58961W        W24188  31.370  16.362   4.619
58962W        W24189   1.844  39.330  12.651
58963W        W24190  22.708  29.636  10.073
58964W        W24191  22.703  23.992   0.075
58965W        W24192   2.454  22.503  13.855
58966W        W24193  19.051  12.983   3.320
58967W        W24194  22.026   9.106  11.142
58968W        W24195  39.490  20.584  12.594
58969W        W24196  27.981  17.077   4.565
58970W        W24197  37.885  18.099  12.585
58971W        W24198  37.928   9.872   4.845
58972W        W24199  34.460  43.416   1.016
58973W        W24200  25.184  43.269   3.078
58974W        W24201  26.239  17.668   1.525
58975W        W24202  19.679  37.726  13.991
58976W        W24203   7.239   5.696  14.452
58977W        W24204  36.242  32.053   2.844
58978W        W24205  38.560  32.540   2.003
58979W        W24206  18.735  29.939  11.476
58980W        W24207  43.042  38.883   0.357
58981W        W24208  30.700  25.825  12.551
58982W        W24209  39.414  40.537  11.889
58983W        W24210  22.402  29.725  14.263
58984W        W24211  26.656  11.564   0.015
58985W        W24212  11.717  23.706  14.675
58986W        W24213  19.810  39.849   4.611
58987W        W24214  22.228  10.084  11.308
58988W        W24215  34.583  20.801   2.108
58989W        W24216  22.541   0.766  13.033
58990W        W24217  27.244   0.739  14.907
58991W        W24218   5.325  38.931  12.834
58992W        W24219  11.748  10.329   4.728
58993W        W24220  26.171  24.988   2.741
58994W        W24221   7.268   7.040  11.569
58995W        W24222   9.242  21.222  13.931
58996W        W24223  15.307  10.960  11.177
58997W        W24224  30.023  43.023  14.363
58998W        W24225  23.476   9.673   2.932
58999W        W24226   4.444   0.248   1.268
59000W        W24227  26.726   8.822  11.044
59001W        W24228  20.713  20.717  14.800
59002W        W24229  22.266  31.081  14.398
59003W        W24230  14.827   6.041  12.450
59004W        W24231  33.293  27.717   1.836
59005W        W24232   9.185  27.717   2.293
59006W        W24233  39.555  15.789  14.776
59007W        W24234  32.603   6.441   3.693
59008W        W24235  27.862  27.436  10.539
59009W        W24236  43.735  35.838  11.652
59010W        W24237  37.365   6.907  10.448
59011W        W24238  15.694  24.532  13.493
59012W        W24239  39.729   8.668   2.456
59013W        W24240   4.552  10.682   2.853
59014W        W24241   7.898  32.390   0.969
59015W        W24242  20.291   9.865  12.537
59016W        W24243  15.812  19.619  11.711
59017W        W24244   6.915  35.992   2.690
59018W        W24245  44.249  28.858   1.664
59019W        W24246   6.588  15.199  14.830
59020W        W24247   5.917   2.275  10.662
59021W        W24248  31.589  28.209  13.253
59022W        W24249  27.891  30.723  13.740
59023W        W24250  43.920   1.998   9.848
59024W        W24251  10.918  30.008   1.854
59025W        W24252  34.535  22.167   1.360
59026W        W24253  42.386  43.281   3.287
59027W        W24254   4.812   3.157   2.390
59028W        W24255  18.301   5.362  14.048
59029W        W24256  18.283  44.487  12.486
59030W        W24257  32.951  40.567   4.164
59031W        W24258  10.176  44.902   2.647
59032W        W24259  30.503  42.208  12.550
59033W        W24260   0.349  34.428   2.810
59034W        W24261  34.802  34.059   3.718
59035W        W24262  19.394  29.672   4.233
59036W        W24263  17.288  30.664  11.486
59037W        W24264   7.234  31.074  13.426
59038W        W24265  33.394   4.356   1.325
59039W        W24266  35.790  34.765  13.414
59040W        W24267  14.887   0.744   1.785
59041W        W24268  16.590  38.321  14.757
59042W        W24269   4.886  36.981   4.310
59043W        W24270  30.622  34.431  13.205
59044W        W24271  32.077  37.570  14.844
59045W        W24272  18.048   0.235   0.252
59046W        W24273  20.088  32.562   4.482
59047W        W24274   6.894  10.295  14.636
59048W        W24275   0.852  35.627   4.937
59049W        W24276  16.160  35.882   0.487
59050W        W24277   8.230  15.709   1.682
59051W        W24278   1.609   8.431   3.211
59052W        W24279  30.001  38.919   2.796
59053W        W24280  28.370   4.647  13.499
59054W        W24281   8.216   3.269   3.316
59055W        W24282  30.599  29.632  13.116
59056W        W24283  38.992  26.318   4.217
59057W        W24284   6.178  14.739   9.939
59058W        W24285  18.578  31.532  14.497
59059W        W24286  28.392   5.255   4.486
59060W        W24287  27.775  31.577   1.278
59061W        W24288  17.963  19.518  11.129
59062W        W24289  25.650  35.309  11.568
59063W        W24290  43.960  27.151   2.331
59064W        W24291   5.892  26.513  12.120
59065W        W24292   6.879  13.587  14.279
59066W        W24293  25.594  15.491  10.966
59067W        W24294  35.334  32.603  13.568
59068W        W24295  30.305  31.715   4.580
59069W        W24296  44.740  17.317  13.453
59070W        W24297  18.709   4.378   0.875
59071W        W24298   5.217  44.552  13.509
59072W        W24299  17.128  25.955   0.607
59073W        W24300  10.359  43.185   3.045
59074W        W24301  11.200  17.577  14.346
59075W        W24302   0.204  13.898   0.202
59076W        W24303   3.779  44.434   5.323
59077W        W24304  16.343  20.886  13.545
59078W        W24305  20.230  28.536   5.084
59079W        W24306  44.184   0.959   4.948
59080W        W24307  27.464  30.676  11.820
59081W        W24308  37.461  41.935  11.725
59082W        W24309  25.009  37.781  11.200
59083W        W24310  20.523  34.459  13.822
59084W        W24311  43.356  21.561  12.045
59085W        W24312  22.850  42.504   3.662
59086W        W24313  32.135  37.749  10.417
59087W        W24314   6.405  42.744   1.834
59088W        W24315  44.182  43.715   2.023
59089W        W24316  32.550   6.967   2.856
59090W        W24317   3.078  12.780  10.269
59091W        W24318  34.437  30.635   3.276
59092W        W24319  38.551  38.612  11.691
59093W        W24320  40.244  14.211   5.140
59094W        W24321  18.510  43.266  10.773
59095W        W24322  33.242  38.548  11.451
59096W        W24323  26.962  20.723   2.035
59097W        W24324  13.863  16.522   2.710
59098W        W24325  18.545   1.303   0.811
59099W        W24326  11.284  40.808  12.648
59100W        W24327  15.179  24.137   3.560
59101W        W24328  20.422  19.320  13.401
59102W        W24329  17.061  25.037   2.380
59103W        W24330  37.472  43.381   1.182
59104W        W24331  44.031   7.317   1.859
59105W        W24332  22.625  23.855  10.787
59106W        W24333  42.796  17.053   0.859
59107W        W24334  44.620  25.451   1.406
59108W        W24335   0.408  42.922  10.212
59109W        W24336  37.110  39.544  13.444
59110W        W24337  42.919   9.041   0.799
59111W        W24338   4.213  14.395  13.435
59112W        W24339  38.311  18.627  11.641
59113W        W24340  12.782  10.649   1.222
59114W        W24341  20.485  15.763   1.869
59115W        W24342  31.594  36.455  11.559
59116W        W24343  35.020   3.064   4.234
59117W        W24344  26.330   2.894  11.313
59118W        W24345   5.648   2.506  14.521
59119W        W24346  24.183  37.524  10.244
59120W        W24347  21.483  35.428  11.431
59121W        W24348  35.460  21.778  12.551
59122W        W24349   3.120  11.237  14.557
59123W        W24350  11.373  40.194  14.905
59124W        W24351  38.593  24.411  12.065
59125W        W24352  41.526  40.536   2.735
59126W        W24353  10.757  35.936  12.503
59127W        W24354  27.308  23.093  10.753
59128W        W24355   2.197  19.561  14.805
59129W        W24356  38.112  20.182  11.531
59130W        W24357  31.617  11.622  11.658
59131W        W24358   4.400  16.986   3.739
59132W        W24359  28.351   5.397  10.270
59133W        W24360  42.210   5.632   1.439
59134W        W24361  19.727  18.799   2.375
59135W        W24362   9.980  27.647  12.571
59136W        W24363  15.847  44.916  14.309
59137W        W24364  34.298  33.537   4.177
59138W        W24365  21.735  40.080  13.609
59139W        W24366  13.626  38.926  14.908
59140W        W24367  34.865  13.611   0.600
59141W        W24368  26.424  27.924   4.588
59142W        W24369  12.139   7.930   2.739
59143W        W24370  12.735  23.600   3.861
59144W        W24371  30.181   8.997  13.314
59145W        W24372  25.714  41.474  13.193
59146W        W24373   4.123   3.462  14.355
59147W        W24374  41.446  14.316  13.931
59148W        W24375  30.899  18.284   2.007
59149W        W24376  37.522   5.122   1.483
59150W        W24377  28.117  41.516  12.977
59151W        W24378  42.475   7.555  14.444
59152W        W24379  23.837  12.105   3.294
59153W        W24380  13.632  32.131  12.926
59154W        W24381  19.283  42.495   1.699
59155W        W24382  32.641  43.827  13.265
59156W        W24383   0.238  27.028   0.694
59157W        W24384  19.329   1.322  10.662
59158W        W24385   7.198  44.782   0.299
59159W        W24386  10.926  14.622  12.569
59160W        W24387  39.814  19.053  10.865
59161W        W24388  22.239  25.548  13.453
59162W        W24389   1.875  19.123  10.199
59163W        W24390  41.842  35.536   1.334
59164W        W24391  25.751  22.949   0.400
59165W        W24392  36.193  43.374   3.580
59166W        W24393  27.373  39.310  14.390
59167W        W24394  33.418   9.161  14.002
59168W        W24395   6.909  18.606   0.538
59169W        W24396   1.353  44.988  11.437
59170W        W24397  31.065   7.506   4.559
59171W        W24398  44.527  20.854   5.362
59172W        W24399  25.699   1.694  10.628
59173W        W24400  18.679  11.581   0.389
59174W        W24401   2.151   6.779   1.760
59175W        W24402  22.056   2.458   4.336
59176W        W24403  27.808  38.967   4.520
59177W        W24404  22.389   7.713   1.399
59178W        W24405  16.545  23.226  11.337
59179W        W24406  30.020  38.779   0.435
59180W        W24407  33.331   3.925   3.548
59181W        W24408   2.259  31.779   2.961
59182W        W24409  36.873  11.452  11.518
59183W        W24410  25.534   3.833   4.151
59184W        W24411  22.580   6.534   2.233
59185W        W24412  30.369  43.328  12.913
59186W        W24413  31.460  33.302  13.575
59187W        W24414  13.777  20.490  14.714
59188W        W24415  23.817  34.662  12.675
59189W        W24416  29.003  29.348   1.558
59190W        W24417  22.034  44.861   2.823
59191W        W24418  37.573  40.734   4.165
59192W        W24419   9.417  38.986   1.673
59193W        W24420  30.742  24.128  11.916
59194W        W24421  16.622  16.148   0.735
59195W        W24422   8.113  44.797   1.289
59196W        W24423   9.139  23.303   3.622
59197W        W24424  41.854   2.110   1.175
59198W        W24425   6.805  44.845   1.667
59199W        W24426   8.942  29.117   4.058
59200W        W24427   2.007  10.298  12.259
59201W        W24428  43.014  14.277   0.899
59202W        W24429  36.890  31.946  12.132
59203W        W24430  44.395  41.776  10.434
59204W        W24431   5.157  13.301  12.584
59205W        W24432  11.058  25.635   4.588
59206W        W24433  37.119  21.135  11.837
59207W        W24434  44.367  22.888   2.393
59208W        W24435   9.325   1.747  10.456
59209W        W24436  44.893  42.991  13.045
59210W        W24437  42.460  13.624  11.683
59211W        W24438  20.941  32.881   0.762
59212W        W24439  20.168   3.981   4.772
59213W        W24440  35.439  20.105  11.169
59214W        W24441  22.438  15.740  11.064
59215W        W24442  17.495  10.615  14.507
59216W        W24443  34.256  12.093   4.779
59217W        W24444   9.421  29.771   4.903
59218W        W24445  17.119  29.647   1.491
59219W        W24446  29.156  17.609   4.400
59220W        W24447  26.531  16.154  11.766
59221W        W24448   2.665   7.894  12.536
59222W        W24449  25.025  19.651   2.843
59223W        W24450  39.689  30.552  14.844
59224W        W24451  17.257  36.039   1.984
59225W        W24452  23.806  28.900   1.709
59226W        W24453  33.934   3.274   1.676
59227W        W24454  17.104   0.731  10.788
59228W        W24455  12.650  37.411   4.905
59229W        W24456  22.000  30.369  11.145
59230W        W24457  20.531  14.345  13.511
59231W        W24458  35.661  24.457  13.034
59232W        W24459  20.112  27.037  10.926
59233W        W24460  17.054  43.765   0.326
59234W        W24461  14.403  44.020   0.958
59235W        W24462  33.095  36.705   0.273
59236W        W24463  23.576  10.244   5.018
59237W        W24464  42.466  24.635   0.702
59238W        W24465  25.912  33.698  10.192
59239W        W24466  16.785  15.681  13.450
59240W        W24467  44.422  40.021   1.680
59241W        W24468  43.958  24.002  12.463
59242W        W24469  14.596  30.979  12.136
59243W        W24470  38.812   6.906  13.979
59244W        W24471  32.496  13.925   2.223
59245W        W24472  40.054  41.758   1.699
59246W        W24473   8.599  14.238   2.667
59247W        W24474  35.101  18.733  10.779
59248W        W24475  39.917  21.368   3.571
59249W        W24476   7.567  10.212   3.268
59250W        W24477   8.422  23.025   0.941
59251W        W24478  30.153  26.303  11.795
59252W        W24479  31.129  20.146   4.153
59253W        W24480  20.714  31.561  13.424
59254W        W24481  34.595   8.383   1.315
59255W        W24482  20.064  12.120   3.166
59256W        W24483  37.671  29.429   0.037
59257W        W24484  15.382   0.874   1.817
59258W        W24485  15.855  19.752  14.875
59259W        W24486   6.474  39.622  12.084
59260W        W24487  13.684  11.102  12.571
59261W        W24488  21.043  16.279   3.289
59262W        W24489  13.837  24.450  10.805
59263W        W24490  20.733  34.880   1.788
59264W        W24491  25.477  22.073  13.103
59265W        W24492  36.974  17.566   1.317
59266W        W24493  21.543  42.296  14.369
59267W        W24494   5.137  32.592   1.715
59268W        W24495  25.452  43.209   3.688
59269W        W24496  10.193  27.147  11.536
59270W        W24497  11.322  19.894  14.843
59271W        W24498  23.557  42.684  11.489
59272W        W24499   5.685  35.187  13.862
59273W        W24500  16.621  35.491   3.633
59274W        W24501  13.185  19.695  10.543
59275W        W24502  44.032  40.095  11.849
59276W        W24503  22.124  23.715  11.763
59277W        W24504   2.194   0.747   0.326
59278W        W24505  13.644  12.632  11.664
59279W        W24506   1.249  34.759   4.804
59280W        W24507  15.215  10.911   1.421
59281W        W24508  10.623  25.526   0.480
59282W        W24509  13.839  38.504   2.059
59283W        W24510  30.862   4.771  14.880
59284W        W24511  11.625  11.420  13.002
59285W        W24512   3.694  16.287  12.615
59286W        W24513  25.233   8.211   1.329
59287W        W24514  13.923  34.525   0.216
59288W        W24515  10.192  26.509   0.022
59289W        W24516  40.374  14.038  13.347
59290W        W24517   5.322  11.313  14.328
59291W        W24518  14.215  18.329  10.250
59292W        W24519  10.095  22.264  11.796
59293W        W24520  22.175  16.305  11.161
59294W        W24521  21.114  40.417  10.623
59295W        W24522  21.552  41.849   4.577
59296W        W24523  21.109  31.725   1.692
59297W        W24524  11.291  28.247  11.949
59298W        W24525  44.026  31.538   2.105
59299W        W24526  21.415   1.970   4.092
59300W        W24527  41.705   8.851  12.061
59301W        W24528   8.740   5.482   2.306
59302W        W24529  35.168  42.633  12.580
59303W        W24530  16.239  33.858  11.647
59304W        W24531  22.953  34.045   2.985
59305W        W24532   8.773  13.271  12.641
59306W        W24533  26.749  40.562  10.742
59307W        W24534  30.807  41.228  11.596
59308W        W24535   2.623  16.089   1.259
59309W        W24536  22.232  37.020  14.557
59310W        W24537  31.088   2.241   4.566
59311W        W24538  38.981  28.773  14.237
59312W        W24539  28.994  18.467   1.381
59313W        W24540  42.319   6.370   0.818
59314W        W24541  30.065  28.271   0.371
59315W        W24542  34.895  19.700   3.810
59316W        W24543  37.518  42.784  11.797
59317W        W24544  12.782   3.422   4.133
59318W        W24545  43.275  41.036  10.614
59319W        W24546   1.608  22.444  13.946
59320W        W24547  33.302  10.135   4.913
59321W        W24548   2.968  30.671  14.845
59322W        W24549  28.883  24.047  13.506
59323W        W24550  13.734   6.553   0.540
59324W        W24551  32.424  34.844  11.447
59325W        W24552  41.778  10.809   1.649
59326W        W24553  24.205  43.442  10.599
59327W        W24554   4.794   2.255   1.884
59328W        W24555  13.000  24.782  13.247
59329W        W24556  30.255  43.014   2.190
59330W        W24557  15.975  43.589  10.625
59331W        W24558  19.851  17.822   3.699
59332W        W24559  12.903  35.113   1.372
59333W        W24560  29.198  15.548   1.477
59334W        W24561   1.729  29.462   2.806
59335W        W24562  10.672  12.480  10.727
59336W        W24563  13.147  20.137   2.421
59337W        W24564  35.364  25.957  11.440
59338W        W24565   3.916  25.031   2.122
59339W        W24566  15.147  21.505  11.544
59340W        W24567  22.486   3.223  14.445
59341W        W24568  38.921  36.275   3.648
59342W        W24569  33.926  10.193   1.172
59343W        W24570   8.306  32.266   1.420
59344W        W24571  37.284  26.942  10.720
59345W        W24572  37.547  15.229  12.521
59346W        W24573  32.580   2.388   1.892
59347W        W24574   5.399   3.303  10.151
59348W        W24575  40.855  16.048  13.695
59349W        W24576  35.579   8.995  13.148
59350W        W24577  39.874   3.678   0.481
59351W        W24578  32.132  28.556  14.778
59352W        W24579  18.997  33.199  12.011
59353W        W24580   8.793  39.835  14.422
59354W        W24581  43.977  44.673   2.644
59355W        W24582  13.778  13.628  10.827
59356W        W24583  13.152  22.171  12.638
59357W        W24584   3.645  18.488   3.174
59358W        W24585  43.505  44.412   2.774
59359W        W24586   2.738  34.148  12.356
59360W        W24587  36.978   8.512   3.842
59361W        W24588  30.315  19.294   3.760
59362W        W24589  38.942   3.398   4.792
59363W        W24590  23.429   9.743  11.925
59364W        W24591   8.729  18.077  12.340
59365W        W24592  36.389  34.126  14.796
59366W        W24593  41.306  28.517   4.642
59367W        W24594  14.989   9.652  10.444
59368W        W24595   1.911   4.282  11.701
59369W        W24596  10.066  32.186   4.543
59370W        W24597  17.779  21.766  14.336
59371W        W24598  16.010  20.561   1.006
59372W        W24599  27.461   1.182   2.382
59373W        W24600  13.901  40.317  10.730
59374W        W24601   0.722  34.556  14.945
59375W        W24602   8.216  13.077   4.156
59376W        W24603   7.084  10.244   1.494
59377W        W24604  11.760  42.863   1.818
59378W        W24605  37.973  41.946  13.753
59379W        W24606  15.718   5.728  10.138
59380W        W24607  25.347  34.787   1.719
59381W        W24608   0.251  25.309  12.151
59382W        W24609  22.598  38.622   4.684
59383W        W24610  15.274   9.047   2.543
59384W        W24611   7.935   3.973   3.055
59385W        W24612  35.486  40.578   3.888
59386W        W24613  30.497  20.462  14.221
59387W        W24614  35.393  36.135  10.522
59388W        W24615  36.788  44.278   3.185
59389W        W24616  19.237  14.278   2.294
59390W        W24617  37.465  23.333   0.771
59391W        W24618  35.500  18.504  10.530
59392W        W24619   8.154  24.625   4.354
59393W        W24620   1.871  17.706  13.948
59394W        W24621  25.085  13.364   2.206
59395W        W24622  31.974  33.890  12.447
59396W        W24623  20.882  31.536   3.767
59397W        W24624  30.552  39.327   1.066
59398W        W24625  44.835   0.170  12.065
59399W        W24626  28.363  13.829   9.865
59400W        W24627  11.469  39.156  14.548
59401W        W24628  15.595  43.233   1.385
59402W        W24629  16.694  29.545  13.078
59403W        W24630  29.854   3.936   1.361
59404W        W24631  18.032  15.141   2.155
59405W        W24632   4.689  32.143   4.868
59406W        W24633  26.196  40.753  14.444
59407W        W24634   4.802  37.526  10.694
59408W        W24635   6.653  41.976   0.730
59409W        W24636   4.084  36.082   2.761
59410W        W24637  10.531  32.963  13.411
59411W        W24638  20.885  14.387   4.291
59412W        W24639   8.587  43.847   0.206
59413W        W24640  22.916  32.002  14.016
59414W        W24641   2.667   1.899   4.745
59415W        W24642  42.540  37.029  11.666
59416W        W24643   1.226  25.846   2.168
59417W        W24644  34.121  13.538   1.341
59418W        W24645   2.855   1.049   5.149
59419W        W24646  39.451  27.425   3.702
59420W        W24647   0.174   1.676  14.932
59421W        W24648   6.864  41.679  14.317
59422W        W24649  33.850  30.959   4.923
59423W        W24650  27.132  42.808   0.249
59424W        W24651  42.308  18.095   4.380
59425W        W24652   5.057   8.603   4.230
59426W        W24653  24.935  33.687   2.583
59427W        W24654  32.029   8.710  13.467
59428W        W24655   2.013  43.551   2.700
59429W        W24656  25.593  31.902  11.185
59430W        W24657  15.218   9.911  13.007
59431W        W24658  14.523  40.178   1.504
59432W        W24659  13.238  20.743  11.207
59433W        W24660   0.817  41.305  12.111
59434W        W24661  28.653  24.185  11.932
59435W        W24662  25.544   5.174   0.080
59436W        W24663  44.943  32.947   4.205
59437W        W24664   0.809  26.866  12.916
59438W        W24665   2.456  44.056  14.527
59439W        W24666  19.685  30.134  10.987
59440W        W24667  43.962  35.326  10.804
59441W        W24668  18.028  15.336   1.666
59442W        W24669   5.970  35.980  13.404
59443W        W24670  18.860   9.147  14.278
59444W        W24671  44.513  40.339  13.957
59445W        W24672  18.089  15.179   3.079
59446W        W24673  22.323  27.016   4.124
59447W        W24674  14.486  19.240  14.793
59448W        W24675  16.154  35.776  12.881
59449W        W24676  27.672  26.955   0.898
59450W        W24677   9.891   1.832  14.398
59451W        W24678  31.315  29.121   4.921
59452W        W24679  10.254  36.424  11.081
59453W        W24680  33.821  17.406  10.130
59454W        W24681  19.763  27.627   3.292
59455W        W24682  28.352  37.311  13.519
59456W        W24683   6.644   0.508  10.733
59457W        W24684  11.691  31.431   1.378
59458W        W24685  42.138   8.367  13.843
59459W        W24686  32.860  39.495   3.204
59460W        W24687  43.800  34.833  10.794
59461W        W24688  38.093  14.226   3.802
59462W        W24689  35.685  39.145   0.218
59463W        W24690  33.293   0.365   4.553
59464W        W24691  30.845  39.905   3.719
59465W        W24692  36.552  14.810   4.167
59466W        W24693   7.082  13.141   2.467
59467W        W24694  23.192  32.463  10.355
59468W        W24695  44.784  10.796  13.758
59469W        W24696   2.037   2.942   4.140
59470W        W24697   4.700  31.076   2.510
59471W        W24698  22.575   3.662   4.144
59472W        W24699   1.243  44.196   1.380
59473W        W24700  36.930   0.841  14.895
59474W        W24701   9.314  12.008   4.132
59475W        W24702  24.737  12.862  14.822
59476W        W24703  33.121  13.852   3.107
59477W        W24704  13.658   8.175  11.164
59478W        W24705  43.382  26.567   1.327
59479W        W24706  10.691  39.813   3.811
59480W        W24707  38.492  39.945   2.642
59481W        W24708  11.776   6.367  14.607
59482W        W24709  31.575  16.164  11.563
59483W        W24710   8.193  11.693   1.691
59484W        W24711  42.368   4.033  14.585
59485W        W24712  31.483  30.244   0.895
59486W        W24713   9.845  41.757   1.826
59487W        W24714  41.770  14.740   4.464
59488W        W24715  23.699  38.483  13.227
59489W        W24716   3.965  43.861   0.947
59490W        W24717  36.026  31.776   1.345
59491W        W24718  28.679  39.954  14.429
59492W        W24719  42.369  43.883  14.696
59493W        W24720  30.676  38.914   3.660
59494W        W24721  17.763  12.842  14.432
59495W        W24722  17.915  27.111   2.176
59496W        W24723  29.354  29.013   3.658
59497W        W24724  40.274  40.293  10.869
59498W        W24725  22.848  25.422  10.422
59499W        W24726  20.815  21.084  13.806
59500W        W24727  33.689  40.967  10.806
59501W        W24728  20.851  23.796   2.666
59502W        W24729  37.506   0.318   1.600
59503W        W24730   8.411  31.034  13.738
59504W        W24731  26.014  20.074   2.633
59505W        W24732  10.609  32.184  13.847
59506W        W24733  43.686  44.895   2.077
59507W        W24734   9.730  41.865  11.674
59508W        W24735   9.802  44.465  13.928
59509W        W24736  11.135  21.109  13.025
59510W        W24737  31.033   9.221   4.846
59511W        W24738  38.534   1.000  14.356
59512W        W24739  12.941  21.619   3.732
59513W        W24740  38.457  41.481  13.470
59514W        W24741  16.637  27.597   2.492
59515W        W24742   4.626  25.477   1.733
59516W        W24743  13.156  34.465   3.726
59517W        W24744   1.123  18.597   1.704
59518W        W24745   0.390   5.709  10.713
59519W        W24746  21.137  27.675   1.729
59520W        W24747  20.465   7.479   1.366
59521W        W24748  37.313  15.173   4.665
59522W        W24749  41.435  16.845  11.152
59523W        W24750  32.501  22.259   1.430
59524W        W24751   8.657  19.247   0.344
59525W        W24752   1.735  11.755   1.358
59526W        W24753  16.880   6.888  12.498
59527W        W24754   7.636  35.914   3.239
59528W        W24755  32.887  28.641   2.740
59529W        W24756  20.267  37.984   3.235
59530W        W24757  44.236   9.423  14.011
59531W        W24758  10.708   7.002  14.336
59532W        W24759  27.527  26.694   0.334
59533W        W24760  17.532  28.618  12.911
59534W        W24761  42.020  35.765  11.986
59535W        W24762  33.971  25.038   3.631
59536W        W24763  43.461  32.534  14.924
59537W        W24764  30.446  16.519   3.165
59538W        W24765  27.470  29.059   2.296
59539W        W24766  27.086   2.763  11.872
59540W        W24767  31.590  30.573  12.089
59541W        W24768  11.809  31.700  10.497
59542W        W24769  29.866  30.588   1.206
59543W        W24770  15.113  27.275   0.376
59544W        W24771  35.362  42.187  12.409
59545W        W24772   3.463  43.413  13.230
59546W        W24773  16.990  43.642  12.820
59547W        W24774  37.548  17.368   4.127
59548W        W24775  44.919  11.754   3.200
59549W        W24776   0.475  24.878  14.795
59550W        W24777  23.586  28.183   2.566
59551W        W24778  24.636   0.074  11.557
59552W        W24779  35.135  44.806   0.186
59553W        W24780  43.656  10.121   4.396
59554W        W24781  20.098  28.366  12.434
59555W        W24782  38.789  14.673   3.663
59556W        W24783  29.677   8.975  13.394
59557W        W24784  20.714  17.348  11.587
59558W        W24785  36.335  16.779  14.499
59559W        W24786  13.975  26.659   3.169
59560W        W24787   2.251  38.144  11.178
59561W        W24788  13.569   3.799  11.077
59562W        W24789  34.110   1.407   4.015
59563W        W24790  34.346  21.286  11.821
59564W        W24791   9.400  21.990   1.261
59565W        W24792   8.745  35.536  12.104
59566W        W24793  37.756  27.404   4.655
59567W        W24794  37.914  33.980   1.251
59568W        W24795  20.659  36.145  13.901
59569W        W24796  43.057  34.775   1.349
59570W        W24797  27.455  18.842  12.033
59571W        W24798  12.941   7.774   4.203
59572W        W24799  18.792  36.982  13.419
59573W        W24800  22.716   8.308  12.637
59574W        W24801  24.205  38.492   0.709
59575W        W24802  35.004  11.792   4.746
59576W        W24803   4.487  17.871   4.174
59577W        W24804  28.592  11.425  11.246
59578W        W24805  27.653   9.874  12.682
59579W        W24806  13.461  28.445   3.824
59580W        W24807  14.238   7.230  12.064
59581W        W24808   7.209  31.862   1.441
59582W        W24809  38.953  29.639   1.413
59583W        W24810  10.407  44.827   4.452
59584W        W24811  39.325  11.131  10.850
59585W        W24812  36.499  18.576  12.126
59586W        W24813  17.555  10.223   4.720
59587W        W24814  43.616  41.417  13.417
59588W        W24815  29.915   7.702   0.796
59589W        W24816  19.771  43.528   2.832
59590W        W24817  34.808  30.053   2.265
59591W        W24818   4.495  44.299  13.918
59592W        W24819  43.921   4.313  12.583
59593W        W24820  35.501  14.123   3.555
59594W        W24821   5.375  18.559   3.667
59595W        W24822   9.773  39.836   2.428
59596W        W24823  25.746  23.301   1.254
59597W        W24824   8.407  11.319  12.516
59598W        W24825  26.866  13.216   1.699
59599W        W24826   6.520  14.636  14.940
59600W        W24827   5.882   7.032   4.426
59601W        W24828   6.876  44.609  13.011
59602W        W24829  13.398  16.902   1.805
59603W        W24830  17.048  30.557  12.425
59604W        W24831  24.147  16.767   0.871
59605W        W24832   5.815  12.189   1.635
59606W        W24833  24.108  19.504   1.105
59607W        W24834  27.342  15.561  13.900
59608W        W24835  12.598  13.675  10.659
59609W        W24836  35.445  33.677   2.195
59610W        W24837  25.609  19.210   0.708
59611W        W24838   1.400  28.913   2.287
59612W        W24839   8.926  34.947   2.701
59613W        W24840   6.575  34.016  11.530
59614W        W24841  26.722  27.923   3.809
59615W        W24842  36.001   4.204  12.014
59616W        W24843  32.311  40.289   1.714
59617W        W24844   3.252   4.848  14.911
59618W        W24845  35.525   9.760   0.017
59619W        W24846  41.472  39.417   2.185
59620W        W24847  32.255  43.324   1.256
59621W        W24848  37.371   7.853   0.806
59622W        W24849  11.311   6.289  14.342
59623W        W24850  22.664  27.538   0.499
59624W        W24851  11.666  35.890  13.472
59625W        W24852  27.922  21.773  11.244
59626W        W24853  20.480  29.036   4.546
59627W        W24854  21.917  36.303   2.375
59628W        W24855  32.407  25.138  13.847
59629W        W24856  20.471   3.808   3.286
59630W        W24857   1.508  36.080  13.886
59631W        W24858  11.097  40.952   2.468
59632W        W24859   5.258  16.635   4.593
59633W        W24860  36.021  34.298   4.172
59634W        W24861  22.100  41.239  11.909
59635W        W24862  17.644  22.973   0.481
59636W        W24863   4.565  11.612   0.106
59637W        W24864   9.930  41.555   2.761
59638W        W24865  29.071  32.320  10.638
59639W        W24866   2.020  25.043  11.577
59640W        W24867   4.363  32.828   2.435
59641W        W24868  40.518  15.987  11.047
59642W        W24869   8.024  38.583  12.049
59643W        W24870  10.930  14.999  11.585
59644W        W24871   8.413   7.605   2.934
59645W        W24872   1.897  23.134  11.466
59646W        W24873  30.033  44.027   2.542
59647W        W24874  41.897  16.062  11.279
59648W        W24875  39.327  33.621   0.351
59649W        W24876  25.459   7.421  11.718
59650W        W24877  13.179  35.868   4.156
59651W        W24878  36.517  20.150  12.346
59652W        W24879  39.344  23.161  13.298
59653W        W24880  34.035  37.950   1.764
59654W        W24881  11.529   7.826  11.761
59655W        W24882  33.159  10.747   1.183
59656W        W24883  32.519  41.947   0.416
59657W        W24884  16.771  36.075   2.294
59658W        W24885  10.146  35.582  11.924
59659W        W24886  14.276  39.992   4.499
59660W        W24887  22.532  30.365  11.306
59661W        W24888   6.469  29.074   2.217
59662W        W24889  24.492   8.713   2.855
59663W        W24890  13.576  41.311  14.465
59664W        W24891   6.241  22.804   1.218
59665W        W24892  25.076  31.472   2.957
59666W        W24893  38.770  33.261   1.325
59667W        W24894  18.875  15.292  11.295
59668W        W24895   0.836  39.300   0.263
59669W        W24896  10.679  27.676  14.109
59670W        W24897  42.826  12.271   0.632
59671W        W24898  28.362  36.754  12.615
59672W        W24899  14.681  17.359   0.685
59673W        W24900  27.447  29.687   4.184
59674W        W24901  43.962   4.702  12.927
59675W        W24902  22.193  20.277  13.448
59676W        W24903  35.862  24.939  14.752
59677W        W24904  35.067  28.567   1.198
59678W        W24905  27.964  39.760  12.589
59679W        W24906  24.113  20.906   3.186
59680W        W24907  24.740  22.228   3.255
59681W        W24908  38.040   6.413  12.046
59682W        W24909   9.256  13.454  12.066
59683W        W24910  40.520  25.720  13.398
59684W        W24911  43.848  24.021   2.336
59685W        W24912  26.081  27.608  13.372
59686W        W24913  16.739  40.522  14.860
59687W        W24914  23.890   7.826  14.833
59688W        W24915  26.556   2.518  12.114
59689W        W24916  31.914  19.133   4.594
59690W        W24917  38.445  42.010   3.253
59691W        W24918  42.505  44.661  11.137
59692W        W24919   0.392  40.761   3.106
59693W        W24920  18.146  33.232   3.266
59694W        W24921  14.893  23.661   1.499
59695W        W24922  32.458  32.551   0.271
59696W        W24923  28.044  33.110   1.793
59697W        W24924  22.110  12.846   4.562
59698W        W24925   3.335  33.226   0.870
59699W        W24926   2.640  23.442   2.149
59700W        W24927  25.846  40.357  11.825
59701W        W24928  17.250  17.249  12.723
59702W        W24929  43.040  13.115   2.762
59703W        W24930   7.277   1.390  11.535
59704W        W24931   7.228  18.441  14.301
59705W        W24932  37.038  37.462  11.409
59706W        W24933  41.471  19.017  10.647
59707W        W24934  17.816  19.319  11.986
59708W        W24935  42.726  32.625   1.690
59709W        W24936  33.208  15.764  12.956
59710W        W24937  10.549  17.556  14.415
59711W        W24938  32.144   5.817   3.264
59712W        W24939  36.011  18.048   3.752
59713W        W24940  20.846  30.589   4.674
59714W        W24941  27.873  44.917   2.165
59715W        W24942   4.243   3.901  12.540
59716W        W24943  25.090   1.909   0.330
59717W        W24944  18.688  18.763  12.991
59718W        W24945  10.246  18.057   3.722
59719W        W24946  44.898  40.921   1.295
59720W        W24947  10.390  22.690  10.645
59721W        W24948   6.696  28.427  11.259
59722W        W24949  21.548  40.904  10.718
59723W        W24950  29.862  35.545  14.029
59724W        W24951  38.754  15.338  14.098
59725W        W24952  38.945   4.722  10.746
59726W        W24953  26.457  41.295   3.941
59727W        W24954  16.819  20.749  10.866
59728W        W24955  43.947  37.948  13.819
59729W        W24956   3.892  32.107   2.325
59730W        W24957   6.873   4.181   1.046
59731W        W24958  26.980  12.315  11.564
59732W        W24959  41.416  12.829  11.885
59733W        W24960   7.658   1.464   3.334
59734W        W24961  14.531  10.355   4.133
59735W        W24962  39.290  20.017   0.520
59736W        W24963  44.340  40.931  11.217
59737W        W24964  28.464  21.627  10.840
59738W        W24965   5.718   1.177   2.782
59739W        W24966  24.154  25.968  13.535
59740W        W24967  44.253  24.890  13.543
59741W        W24968  40.837  27.879  13.324
59742W        W24969  11.920   9.693  10.480
59743W        W24970   6.794  10.780  14.828
59744W        W24971  28.478  22.262   1.717
59745W        W24972  42.025  29.991  14.571
59746W        W24973  31.099  43.438   3.357
59747W        W24974  38.639  32.477   0.394
59748W        W24975  28.582  36.820   3.248
59749W        W24976  18.658  16.837   3.308
59750W        W24977  41.430  14.269   0.889
59751W        W24978  30.656  25.699   0.985
59752W        W24979   2.194  28.932  13.974
59753W        W24980   0.182   0.540  12.118
59754W        W24981   0.760  12.674  13.436
59755W        W24982  26.359   7.281   3.662
59756W        W24983  22.751  33.142   2.600
59757W        W24984  21.160  18.171  12.008
59758W        W24985  38.340  37.643  12.030
59759W        W24986  39.559  28.331   2.496
59760W        W24987  15.745  37.615  10.352
59761W        W24988  32.895   7.786   2.623
59762W        W24989  20.314  40.963  14.532
59763W        W24990  13.255  12.172  13.376
59764W        W24991   3.250   9.607   1.379
59765W        W24992   5.925  22.194   3.183
59766W        W24993  41.949  16.870   1.799
59767W        W24994   5.296   0.756  11.961
59768W        W24995  24.177  13.706   0.393
59769W        W24996   3.029  20.184  13.005
59770W        W24997   1.483  33.977   2.480
59771W        W24998   9.793   7.629   4.321
59772W        W24999  41.276  42.690   3.038
59773W        W25000   5.407   7.358  10.937
59774W        W25001  29.364   3.419   3.138
59775W        W25002   1.312   3.170  12.048
59776W        W25003   5.863  42.064  13.628
59777W        W25004   3.883  22.265  12.512
59778W        W25005  25.106  41.941  12.125
59779W        W25006  16.662  35.824  12.918
59780W        W25007   6.267   6.636  10.326
59781W        W25008   5.380  19.836   1.209
59782W        W25009  20.923  35.375   4.844
59783W        W25010  32.004   3.662  13.286
59784W        W25011   1.308   1.587  11.171
59785W        W25012  43.920  39.509   4.684
59786W        W25013  15.854  44.237   2.935
59787W        W25014  27.919   7.333  11.027
59788W        W25015  35.265  15.076  13.951
59789W        W25016  41.556  10.710  11.223
59790W        W25017   6.893   3.972  12.613
59791W        W25018  44.819  39.091   1.316
59792W        W25019   5.914  21.211  11.130
59793W        W25020  33.427  31.163   2.195
59794W        W25021   9.448  18.164  13.073
59795W        W25022  10.785  15.354   2.536
59796W        W25023  13.304  28.182   4.680
59797W        W25024  40.164   7.678  14.019
59798W        W25025  13.146  24.607  14.814
59799W        W25026  33.091  15.331   0.844
59800W        W25027  19.685  25.259  12.962
59801W        W25028  19.856   7.495  10.997
59802W        W25029   5.136  29.173  13.472
59803W        W25030   6.514  34.099  13.826
59804W        W25031  11.326  38.527  14.465
59805W        W25032  13.132   3.997  12.375
59806W        W25033  28.325   0.142  10.985
59807W        W25034  28.292  10.852  13.419
59808W        W25035  26.638   0.327   3.150
59809W        W25036  30.549  39.041   4.157
59810W        W25037  43.905  12.706  11.160
59811W        W25038  13.198   9.044  11.604
59812W        W25039  35.026   2.923   0.278
59813W        W25040  27.706  10.709  12.225
59814W        W25041   9.740   9.304   3.976
59815W        W25042  38.413  16.781  14.475
59816W        W25043  19.507   2.245  11.155
59817W        W25044  29.082  44.254   4.381
59818W        W25045  41.981  18.754   2.108
59819W        W25046  10.599  23.769   4.537
59820W        W25047  27.971  41.917   2.679
59821W        W25048  18.264  33.101  13.976
59822W        W25049  23.661  16.855   3.581
59823W        W25050  10.735  24.959   3.961
59824W        W25051  35.046   1.506   4.154
59825W        W25052  40.011   1.911  13.390
59826W        W25053   9.788  23.490  13.162
59827W        W25054   1.676  25.242   2.787
59828W        W25055  27.534  21.478  13.796
59829W        W25056   0.258  16.445   3.631
59830W        W25057  40.676   8.962   2.157
59831W        W25058  28.027  15.319   1.510
59832W        W25059  22.301  42.485  13.839
59833W        W25060  30.755  22.437  14.592
59834W        W25061  41.446  36.958  10.746
59835W        W25062   7.819  36.406   0.843
59836W        W25063  34.786  10.308   4.661
59837W        W25064   3.430  28.454   3.551
59838W        W25065   9.580  28.477  13.009
59839W        W25066   9.869  26.738   1.481
59840W        W25067  32.382   5.734  11.126
59841W        W25068  26.007  35.650  11.626
59842W        W25069  12.071   0.436  12.989
59843W        W25070  35.791  18.815   4.113
59844W        W25071  22.986  37.140  11.155
59845W        W25072  40.626  14.208   4.230
59846W        W25073  18.817   8.397  11.237
59847W        W25074   0.653  37.419  14.952
59848W        W25075  24.773  20.185  10.738
59849W        W25076  16.664  24.249   4.674
59850W        W25077  11.660   6.842  14.815
59851W        W25078  40.631  42.760  14.704
59852W        W25079  24.010   4.706  12.038
59853W        W25080  43.158  30.152   9.805
59854W        W25081  20.803  28.710   0.735
59855W        W25082  42.753  30.623  13.298
59856W        W25083  39.381  17.786  14.883
59857W        W25084  23.104  37.458   0.820
59858W        W25085   7.851  44.131   3.220
59859W        W25086   3.323  22.710   3.657
59860W        W25087   5.815  42.524  10.669
59861W        W25088  22.035  23.072   4.247
59862W        W25089  14.624  37.553  14.275
59863W        W25090   8.837  20.603   0.931
59864W        W25091   1.972  39.903  12.875
59865W        W25092  37.077  25.720   2.371
59866W        W25093   1.825  26.939   0.252
59867W        W25094  34.318  16.158  10.019
59868W        W25095  22.129  12.159   1.796
59869W        W25096  32.734   5.058   2.232
59870W        W25097   5.714  10.872   3.188
59871W        W25098   6.036  34.553  13.293
59872W        W25099   0.999  40.701  11.576
59873W        W25100  17.791  12.234   1.730
59874W        W25101  35.057  21.115  13.078
59875W        W25102  29.767   2.507  13.994
59876W        W25103   1.924  39.890  14.465
59877W        W25104  32.930  24.182   2.749
59878W        W25105  35.304  21.326   3.859
59879W        W25106  28.542   8.452   3.306
59880W        W25107  24.138  35.887  10.776
59881W        W25108  30.153   8.988  11.105
59882W        W25109  24.356  42.875   4.390
59883W        W25110  40.757  43.409   1.763
59884W        W25111  30.222  18.113   3.361
59885W        W25112   4.875  40.735  12.046
59886W        W25113  32.970  17.481   3.210
59887W        W25114   6.137  14.289   4.990
59888W        W25115  24.212  28.422  12.873
59889W        W25116   3.347  10.731  12.253
59890W        W25117  24.294  20.620   2.768
59891W        W25118  17.358  42.734   3.236
59892W        W25119  29.984  17.486  14.899
59893W        W25120   7.366  36.623   0.996
59894W        W25121  12.092   8.743  10.941
59895W        W25122  28.437  26.815   3.742
59896W        W25123  31.986   7.857   1.345
59897W        W25124  29.535  24.853   3.505
59898W        W25125  12.561  19.149   2.569
59899W        W25126  29.150  20.110   0.184
59900W        W25127  17.734  43.386  11.425
59901W        W25128  15.611   5.226  12.114
59902W        W25129  17.810  35.632   0.006
59903W        W25130   2.969  17.799   4.117
59904W        W25131  31.836   9.935   5.099
59905W        W25132  15.924  16.419  12.129
59906W        W25133  18.354   0.823  11.193
59907W        W25134  26.681  26.878  10.241
59908W        W25135  19.886  10.616   1.184
59909W        W25136   8.427  35.656  12.529
59910W        W25137  19.407  11.180  13.179
59911W        W25138   9.344  38.910  13.781
59912W        W25139  10.883  40.896   1.987
59913W        W25140  28.327  22.235  10.458
59914W        W25141  43.535   4.834  10.064
59915W        W25142  13.347   7.242  13.287
59916W        W25143  10.139  33.593   9.836
59917W        W25144   8.371  31.669  11.974
59918W        W25145  21.757  38.567  13.422
59919W        W25146   1.316  31.659   4.718
59920W        W25147   1.871  21.724   3.780
59921W        W25148  17.019  11.790   4.041
59922W        W25149   6.916  30.202   2.380
59923W        W25150  24.548  12.395  12.921
59924W        W25151  39.236  42.802  14.759
59925W        W25152  33.517  16.608   0.550
59926W        W25153  12.958  20.904   2.821
59927W        W25154  33.058  32.307  11.495
59928W        W25155   7.676  13.647  11.930
59929W        W25156  23.784  38.116   2.428
59930W        W25157   5.082  10.037  10.146
59931W        W25158  28.464  16.785   1.393
59932W        W25159  16.126  18.835  12.551
59933W        W25160  33.050   3.464   3.207
59934W        W25161  40.739  13.856  11.552
59935W        W25162   3.594  37.901   3.953
59936W        W25163   9.217  31.131   3.348
59937W        W25164  21.696  27.755   1.026
59938W        W25165   8.592  44.739  11.855
59939W        W25166  22.485  15.501   3.122
59940W        W25167   5.679  16.145   4.649
59941W        W25168  14.737  33.619   4.532
59942W        W25169  31.145  31.493  10.180
59943W        W25170  38.775   9.723   4.129
59944W        W25171  33.067  39.141   2.865
59945W        W25172  14.941  17.553   3.529
59946W        W25173  36.389  11.177  11.455
59947W        W25174   4.456   2.738  14.907
59948W        W25175  37.911  11.427  10.701
59949W        W25176  16.043  24.044  14.053
59950W        W25177  21.136  29.871   5.060
59951W        W25178  15.261  36.653  13.065
59952W        W25179  10.790   9.678   4.151
59953W        W25180  17.706  40.100   2.834
59954W        W25181  14.291   9.666   0.589
59955W        W25182  18.587  16.822  14.773
59956W        W25183  36.396  12.674  12.050
59957W        W25184  36.582  23.969  13.922
59958W        W25185   9.613  12.080  14.748
59959W        W25186  31.581  44.728   3.340
59960W        W25187  18.826  27.640   4.687
59961W        W25188   0.471  44.077  13.403
59962W        W25189  36.352  35.798   5.163
59963W        W25190  24.276  24.554   1.384
59964W        W25191  20.713   9.253   3.435
59965W        W25192  12.153   4.638   1.644
59966W        W25193  35.788  20.018  14.162
59967W        W25194  34.829  13.789   2.198
59968W        W25195  39.940  23.443   1.645
59969W        W25196  15.013   1.289   4.093
59970W        W25197  15.660  37.869   0.559
59971W        W25198  31.564  34.774  14.322
59972W        W25199  28.703  11.979  11.854
59973W        W25200  21.176  21.744   0.390
59974W        W25201  16.075   2.311   3.450
59975W        W25202  23.757  25.723   2.213
59976W        W25203  10.613  16.710   0.836
59977W        W25204  38.897   4.239   2.372
59978W        W25205  15.614   5.165   2.589
59979W        W25206  43.235   3.935   2.241
59980W        W25207  16.249   1.248  12.847
59981W        W25208  38.365  25.832  12.536
59982W        W25209  41.946  32.103   4.032
59983W        W25210   1.613  40.704  13.136
59984W        W25211  11.659  35.552  13.882
59985W        W25212   1.778  25.963   1.362
59986W        W25213  23.438  26.583   1.689
59987W        W25214  43.759  31.916  13.044
59988W        W25215  23.002  34.875   1.091
59989W        W25216  10.655  27.686  11.977
59990W        W25217  28.082  18.628  12.841
59991W        W25218  32.570   9.230  12.516
59992W        W25219  27.096  38.911  12.584
59993W        W25220   7.235  37.556  13.464
59994W        W25221  11.110   1.251   0.878
59995W        W25222  42.994  16.788  10.693
59996W        W25223  39.821  30.825  11.220
59997W        W25224  30.572   2.673   3.192
59998W        W25225  43.085  22.706   0.479
59999W        W25226  22.045  41.150  11.408
60000W        W25227  37.474   1.320  10.708
60001W        W25228  42.571  10.875  12.558
60002W        W25229  12.318  21.552   1.547
60003W        W25230   6.605   4.934  12.436
60004W        W25231  36.403  35.083  14.410
60005W        W25232  37.443  22.354   5.041
60006W        W25233  41.908  14.504   3.101
60007W        W25234   7.479  24.775   2.779
60008W        W25235  28.911  25.715  13.025
60009W        W25236  44.277  26.745  12.964
60010W        W25237  26.067  23.207  13.377
60011W        W25238  25.484   0.844   2.436
60012W        W25239  27.138   3.253   2.572
60013W        W25240   2.079   6.461  11.190
60014W        W25241   5.806  24.535   3.998
60015W        W25242  23.260  21.495   2.771
60016W        W25243  23.413  33.822  11.017
60017W        W25244  23.509   6.590  10.869
60018W        W25245  40.048  42.916  12.995
60019W        W25246   1.741  31.927   4.603
60020W        W25247  17.989  13.435   0.545
60021W        W25248  26.427  11.944   1.886
60022W        W25249  26.268  12.033   2.797
60023W        W25250  13.800  24.275   0.260
60024W        W25251  36.533  32.600   4.128
60025W        W25252  27.298  35.079  13.464
60026W        W25253  14.295  21.143   0.615
60027W        W25254  26.701  10.292   0.301
60028W        W25255  28.147  24.688   2.755
60029W        W25256  43.850   0.089  11.163
60030W        W25257  37.960   2.343   0.579
60031W        W25258  23.975   6.264  12.974
60032W        W25259   1.702  18.446   2.355
60033W        W25260  34.830  32.717  13.779
60034W        W25261  39.983  19.158   0.661
60035W        W25262  20.459  25.745  13.973
60036W        W25263  19.799  40.515   3.579
60037W        W25264  35.048  18.811   2.003
60038W        W25265  13.645  43.879  13.848
60039W        W25266  33.346   1.536  11.131
60040W        W25267   2.271  38.771   3.274
60041W        W25268  44.222  41.866   1.754
60042W        W25269   8.477  39.306   0.951
60043W        W25270  40.268   2.857  13.435
60044W        W25271   2.784  32.996   0.232
60045W        W25272  20.554  12.257   3.217
60046W        W25273   5.852  29.636   2.054
60047W        W25274  34.851   2.415   1.346
60048W        W25275  14.117  30.191  13.403
60049W        W25276  36.569  40.624  12.921
60050W        W25277  22.687  26.523   4.638
60051W        W25278  17.260  22.586  12.854
60052W        W25279  40.282   6.114  13.276
60053W        W25280  21.226  27.877   2.759
60054W        W25281   1.909  41.536  13.876
60055W        W25282  26.670   4.275  12.497
60056W        W25283  44.772  30.421   1.430
60057W        W25284   5.815  17.787  13.427
60058W        W25285  41.019  41.353  10.681
60059W        W25286   4.866  16.862   0.941
60060W        W25287  42.204  24.978   4.994
60061W        W25288  16.290  31.656   0.004
60062W        W25289  26.654  12.656   3.730
60063W        W25290  22.568  41.373   2.139
60064W        W25291   2.797  42.879  13.917
60065W        W25292  11.298  35.814   3.543
60066W        W25293   7.752  12.138   4.150
60067W        W25294   3.866  40.388  12.330
60068W        W25295  20.760  27.485   2.121
60069W        W25296   5.548  28.625   0.411
60070W        W25297   2.987  13.567   2.653
60071W        W25298  36.946  35.418  13.889
60072W        W25299   6.262   7.519  10.779
60073W        W25300  38.962  23.238  14.570
60074W        W25301  29.727   0.060   1.685
60075W        W25302  26.403  13.245  10.789
60076W        W25303  30.753  18.088  10.853
60077W        W25304   1.995  32.158   0.489
60078W        W25305  23.245  11.631   2.712
60079W        W25306  33.962  33.928   4.266
60080W        W25307  44.967  25.938  13.692
60081W        W25308   9.355  19.225   1.673
60082W        W25309  28.135   9.283   3.425
60083W        W25310  33.923  10.260   0.139
60084W        W25311   3.875  40.465  12.836
60085W        W25312   8.357  30.125   4.429
60086W        W25313   4.762  37.849   3.722
60087W        W25314  21.250  15.141   4.294
60088W        W25315  10.912   8.434   0.969
60089W        W25316  23.428  23.552   0.317
60090W        W25317  44.873   9.807  12.393
60091W        W25318  34.769  29.285   0.499
60092W        W25319  30.503  35.411  13.422
60093W        W25320   0.313  44.360   0.281
60094W        W25321  39.269   6.612  14.709
60095W        W25322  18.134  27.006  12.083
60096W        W25323  29.994  44.446   3.248
60097W        W25324  18.252  33.467  14.606
60098W        W25325  10.776  20.498  14.012
60099W        W25326  25.895  31.996   0.922
60100W        W25327   0.906  18.713   3.090
60101W        W25328   6.227  26.448   2.682
60102W        W25329  36.457  39.190   3.209
60103W        W25330  16.948  42.544   1.671
60104W        W25331  20.731  42.280  12.995
60105W        W25332  31.944  37.998   4.096
60106W        W25333  20.653  39.862   4.391
60107W        W25334  25.148  43.884  12.203
60108W        W25335  33.206  40.115   4.277
60109W        W25336  38.012  32.162   3.013
60110W        W25337   4.887   9.670   3.335
60111W        W25338   6.834  36.700   1.882
60112W        W25339   7.934  22.710  11.599
60113W        W25340  23.780  10.851   0.892
60114W        W25341  17.694  25.199  12.542
60115W        W25342  13.764  27.409   4.701
60116W        W25343   5.377   8.746  11.409
60117W        W25344  24.107  41.451   1.378
60118W        W25345  34.362  27.989  10.272
60119W        W25346  30.985  39.370   0.742
60120W        W25347  17.670  39.016  10.395
60121W        W25348  43.578  15.566   3.290
60122W        W25349   7.819  22.007  14.924
60123W        W25350  24.126  15.643  13.853
60124W        W25351  27.473  15.118  11.188
60125W        W25352  26.221   9.171  12.794
60126W        W25353  41.425  36.637   2.106
60127W        W25354  40.712   4.867   1.414
60128W        W25355  28.910  13.802  14.806
60129W        W25356  25.915  20.562  12.420
60130W        W25357  31.262   6.807  11.226
60131W        W25358  14.841  31.499  14.013
60132W        W25359  14.743  25.997   4.676
60133W        W25360  29.034  28.966  14.766
60134W        W25361  26.482   0.185  11.671
60135W        W25362  43.181   0.561   2.426
60136W        W25363  42.165  33.473  13.797
60137W        W25364  21.859  39.336  11.539
60138W        W25365   2.874  39.895  13.228
60139W        W25366   5.297  31.583   0.215
60140W        W25367  18.610   3.828  12.473
60141W        W25368  38.317  33.940  11.528
60142W        W25369  34.885  43.167   0.817
60143W        W25370  10.548  22.561  11.965
60144W        W25371   6.821  40.834   1.212
60145W        W25372  41.344   5.337   2.603
60146W        W25373  25.497  36.843  11.615
60147W        W25374  13.225  35.320  11.949
60148W        W25375   8.282  23.153  10.740
60149W        W25376   5.185  30.382  11.949
60150W        W25377  35.162   3.224  12.550
60151W        W25378  16.082  31.964  12.866
60152W        W25379   9.657   9.255   0.812
60153W        W25380  11.899   1.832   3.671
60154W        W25381  34.539  27.013  12.378
60155W        W25382   7.324  38.401   1.643
60156W        W25383  21.962  41.806  14.495
60157W        W25384  20.519  43.649   4.698
60158W        W25385  13.517  25.240  14.979
60159W        W25386  29.182  23.856   0.374
60160W        W25387  24.595  27.562   3.882
60161W        W25388  11.759  13.364  10.634
60162W        W25389  28.687  15.863  13.350
60163W        W25390  24.739  20.862   2.906
60164W        W25391  36.510  11.292  10.201
60165W        W25392  23.710  33.381   4.663
60166W        W25393  17.120  27.454  13.794
60167W        W25394  11.893   5.613   0.968
60168W        W25395  35.576  40.803  14.858
60169W        W25396   9.428  12.419   3.226
60170W        W25397   3.278  43.489   0.039
60171W        W25398  42.313  35.779   2.457
60172W        W25399  13.355  41.474   4.579
60173W        W25400  12.544  12.730  12.048
60174W        W25401   5.004  41.074  11.665
60175W        W25402  11.261   7.861   0.324
60176W        W25403  41.433  44.568   2.402
60177W        W25404   3.479   3.986  12.098
60178W        W25405  22.423  26.447   1.975
60179W        W25406  15.797   0.325   3.684
60180W        W25407  32.643  39.444  11.489
60181W        W25408  10.357  31.987   9.710
60182W        W25409  18.898  40.837   1.349
60183W        W25410  36.712  29.724  11.721
60184W        W25411   8.339  43.531   1.859
60185W        W25412   1.324   3.578   3.117
60186W        W25413  41.584  35.956   1.517
60187W        W25414  29.556  15.375  12.106
60188W        W25415  20.430  19.792  11.668
60189W        W25416   2.208  12.162  14.809
60190W        W25417  34.906  15.812  14.879
60191W        W25418  24.640   0.571   2.085
60192W        W25419   8.602  27.778  13.778
60193W        W25420  29.875  13.384   2.688
60194W        W25421  36.953  32.244  11.715
60195W        W25422  35.846  39.535   3.789
60196W        W25423  44.878  25.003   0.508
60197W        W25424  21.564   6.995   2.536
60198W        W25425  39.429  12.631   3.290
60199W        W25426  21.318   5.841  13.437
60200W        W25427  37.102  42.781   2.275
60201W        W25428  13.286  26.918  12.144
60202W        W25429   0.830  27.235   1.358
60203W        W25430  35.454  31.722  14.188
60204W        W25431   7.165  23.889  12.858
60205W        W25432  20.181  17.883   4.410
60206W        W25433  42.431   0.533   3.739
60207W        W25434  14.601  17.131  11.223
60208W        W25435  12.134  23.954  12.446
60209W        W25436  17.524  12.044  13.491
60210W        W25437  27.703  23.111  13.506
60211W        W25438  20.156   2.092  12.045
60212W        W25439  37.812  12.197   1.845
60213W        W25440  30.029  24.517  11.292
60214W        W25441  35.511  13.760  13.444
60215W        W25442  19.698  16.873  12.085
60216W        W25443  12.362  38.119   3.253
60217W        W25444  26.419  24.737   2.378
60218W        W25445  14.701  29.623  14.502
60219W        W25446  11.565  25.077   4.586
60220W        W25447  40.122  17.971   4.076
60221W        W25448   3.316  26.288  14.534
60222W        W25449   0.744  14.326  14.392
60223W        W25450  11.669  13.674  13.056
60224W        W25451   9.542  30.846  10.113
60225W        W25452  21.459  24.636   2.769
60226W        W25453  29.248  27.434  12.503
60227W        W25454   0.804  36.379   2.360
60228W        W25455   6.158   6.253  12.531
60229W        W25456   1.945  11.281  11.069
60230W        W25457  26.447  14.898  12.213
60231W        W25458  25.463  27.210   2.375
60232W        W25459  27.020  33.326  11.968
60233W        W25460  13.138  14.649   4.828
60234W        W25461  15.094  16.833   0.066
60235W        W25462  36.769   9.678   2.144
60236W        W25463   3.353   6.389   3.156
60237W        W25464  19.518   4.670   1.738
60238W        W25465  33.819  35.643  11.689
60239W        W25466  39.827  43.236   1.828
60240W        W25467  33.874   0.473  11.688
60241W        W25468   2.263   6.943  11.210
60242W        W25469   5.731  17.989   2.734
60243W        W25470  33.852  20.218  14.571
60244W        W25471  26.983  43.410  13.559
60245W        W25472  42.389  36.557  11.818
60246W        W25473  20.249   6.788  10.787
60247W        W25474  36.342  26.621   3.205
60248W        W25475  14.566  10.894   2.588
60249W        W25476  43.993  30.536   4.487
60250W        W25477  38.037  24.056   2.931
60251W        W25478   0.811  20.575   0.917
60252W        W25479  22.643  24.036   2.856
60253W        W25480  43.465   8.116  12.826
60254W        W25481  14.888  39.027  10.322
60255W        W25482  33.637  13.812  12.854
60256W        W25483  23.500  27.641   1.863
60257W        W25484  25.488  27.564  12.514
60258W        W25485  34.494  15.533   1.717
60259W        W25486  32.712  33.455   0.465
60260W        W25487   1.429  44.892  12.418
60261W        W25488  41.380  42.623   1.272
60262W        W25489   6.609   8.287  13.740
60263W        W25490  31.004   8.820  10.141
60264W        W25491  43.394   1.430  13.417
60265W        W25492  24.373  35.090  12.081
60266W        W25493  14.559  40.055   4.921
60267W        W25494  29.027  42.728  14.493
60268W        W25495  38.375  10.369   2.332
60269W        W25496   6.202  31.097   0.488
60270W        W25497  17.099  17.647   2.872
60271W        W25498  39.829  19.522   4.051
60272W        W25499  25.993  38.338  12.520
60273W        W25500  13.826  22.541   1.241
60274W        W25501   1.931  28.412  13.999
60275W        W25502   7.241  13.026  13.928
60276W        W25503   8.121  28.928   2.358
60277W        W25504   8.661   0.520   0.770
60278W        W25505  25.034   3.020  12.003
60279W        W25506  38.391  27.620   4.498
60280W        W25507  29.419   1.428   1.849
60281W        W25508  33.129  27.796  10.358
60282W        W25509  29.106   6.162  14.330
60283W        W25510  13.273  35.855  11.732
60284W        W25511  40.726  36.426   3.853
60285W        W25512   7.698  23.755  12.076
60286W        W25513  23.917  33.844  12.464
60287W        W25514  22.640   7.872   3.811
60288W        W25515   1.226  10.221   3.220
60289W        W25516  43.354   8.175   2.648
60290W        W25517   9.645   4.484  12.966
60291W        W25518  28.548  21.415   3.671
60292W        W25519   2.084  10.183  14.560
60293W        W25520   5.730  31.111   2.745
60294W        W25521  17.408  23.911   4.121
60295W        W25522  16.795  12.292  13.060
60296W        W25523   3.304   4.951   5.117
60297W        W25524  28.992   1.211  13.514
60298W        W25525  23.693   4.679   1.331
60299W        W25526  42.911   2.876   0.893
60300W        W25527  35.178  43.631  13.296
60301W        W25528  25.349  31.184   0.916
60302W        W25529  15.226   0.303   4.528
60303W        W25530  23.941  28.127   0.937
60304W        W25531  40.282   9.870  12.920
60305W        W25532  25.435  13.373  13.570
60306W        W25533  41.283  28.042  13.074
60307W        W25534  40.927   0.866   4.365
60308W        W25535  22.272   3.193   0.673
60309W        W25536   5.716   0.592  12.996
60310W        W25537  28.534  13.781  13.951
60311W        W25538  41.709  28.068   3.749
60312W        W25539  13.307  17.376   2.857
60313W        W25540  37.106  27.759   4.516
60314W        W25541  27.508  20.103   3.228
60315W        W25542   5.555  41.937  11.966
60316W        W25543   1.137  31.892  13.362
60317W        W25544  24.394  36.591  11.293
60318W        W25545   0.696  38.806  11.492
60319W        W25546   3.918  21.230   0.075
60320W        W25547  20.484  31.934  10.647
60321W        W25548  14.804   0.848   4.255
60322W        W25549  26.242  20.685  11.547
60323W        W25550  26.838  17.574   3.195
60324W        W25551  38.114  25.630  13.792
60325W        W25552  10.340  36.830   3.131
60326W        W25553  16.633  37.918  11.103
60327W        W25554   0.793  15.132  11.655
60328W        W25555  18.277  26.667  11.109
60329W        W25556  28.453   1.921  12.952
60330W        W25557   6.704  41.895  12.078
60331W        W25558  25.754   2.585  13.962
60332W        W25559  31.068  23.987   0.767
60333W        W25560  26.083  10.091   3.173
60334W        W25561   4.990   7.835   4.971
60335W        W25562  26.194  44.351   2.172
60336W        W25563  29.931  34.736  14.917
60337W        W25564  39.632   3.871  10.054
60338W        W25565   9.790  36.968   4.739
60339W        W25566   3.912   2.272  12.555
60340W        W25567  11.613  42.542  12.207
60341W        W25568  33.442  17.817   0.917
60342W        W25569  12.225  35.378   3.605
60343W        W25570  18.937  11.914   3.253
60344W        W25571   9.807  37.827  13.655
60345W        W25572  23.963  19.059   0.874
60346W        W25573   6.750  31.473   3.938
60347W        W25574  34.663  14.160   0.228
60348W        W25575  23.751   8.093  11.243
60349W        W25576  34.647  38.661  11.945
60350W        W25577  43.657  23.098   3.700
60351W        W25578   2.630  41.396   0.238
60352W        W25579  23.961  40.636  10.830
60353W        W25580  14.778   8.359   4.065
60354W        W25581  32.687   8.257  13.496
60355W        W25582  35.212   2.366  12.945
60356W        W25583  40.746   0.822  12.461
60357W        W25584  41.385  26.987   1.218
60358W        W25585  29.209  19.489   3.787
60359W        W25586  10.269  11.114   1.755
60360W        W25587  36.581  13.132   1.462
60361W        W25588  16.212  40.029   4.705
60362W        W25589  44.783   8.158   1.309
60363W        W25590  20.005   4.873   1.759
60364W        W25591  36.385  11.539   0.506
60365W        W25592   2.459   7.855  13.007
60366W        W25593  22.221   8.319   1.743
60367W        W25594   0.365   9.206  11.681
60368W        W25595  22.989   8.147   0.162
60369W        W25596  28.407  38.328   4.667
60370W        W25597   1.209  29.000  11.307
60371W        W25598  27.200  27.645   1.281
60372W        W25599  22.683  23.214  13.788
60373W        W25600  14.758  20.300   1.437
60374W        W25601   3.045  29.845   9.927
60375W        W25602   2.869  24.620  10.517
60376W        W25603  15.816  27.734  14.415
60377W        W25604  27.697  35.440  13.834
60378W        W25605  42.472   6.492  11.055
60379W        W25606  44.379  33.387  14.206
60380W        W25607   1.425  16.809  11.422
60381W        W25608  40.051   4.660   4.929
60382W        W25609  26.949  17.845  11.472
60383W        W25610  10.163  31.936  13.889
60384W        W25611  28.615   2.410  14.738
60385W        W25612   6.226  29.687   1.393
60386W        W25613  38.333  12.465  11.221
60387W        W25614  36.026  18.793  12.149
60388W        W25615  25.100   0.582   0.668
60389W        W25616  23.725  29.579   2.791
60390W        W25617  37.679  31.851   3.329
60391W        W25618  36.795  26.621   2.308
60392W        W25619  19.094  36.082  13.475
60393W        W25620  20.499  27.472  14.480
60394W        W25621   4.797   3.867  12.491
60395W        W25622  26.521  14.791   1.385
60396W        W25623  12.030  29.020   2.279
60397W        W25624  30.423  30.937  11.237
60398W        W25625  42.792  25.142  14.304
60399W        W25626  44.974  31.668   0.891
60400W        W25627  16.065  35.074  10.853
60401W        W25628  31.647   0.971   4.159
60402W        W25629  27.045  43.369   2.854
60403W        W25630  20.112  42.496  11.732
60404W        W25631   0.075   2.418   2.734
60405W        W25632  22.159  29.918   4.367
60406W        W25633  19.219  44.285  12.793
60407W        W25634  41.667  26.275   1.752
60408W        W25635  37.345  17.289  11.647
60409W        W25636  40.171  13.559   0.983
60410W        W25637   7.782  25.678  11.607
60411W        W25638   3.828  35.998   4.553
60412W        W25639  19.631  33.251   4.179
60413W        W25640  29.177  27.692  13.509
60414W        W25641  30.097   8.114  14.506
60415W        W25642  26.986  36.729   1.845
60416W        W25643  29.574  30.515   0.318
60417W        W25644  25.286  16.220  14.315
60418W        W25645  31.012  33.470   3.754
60419W        W25646  44.106  27.691   9.867
60420W        W25647  28.662  15.085   0.769
60421W        W25648  35.549  44.199  10.754
60422W        W25649  22.871   6.426   0.362
60423W        W25650  17.234   7.735  11.597
60424W        W25651  15.139  15.006  13.466
60425W        W25652   2.520   2.335  13.607
60426W        W25653  20.247  28.796  11.499
60427W        W25654  16.234   0.273   1.390
60428W        W25655   8.848  20.213   3.872
60429W        W25656  35.386   8.895   2.314
60430W        W25657  16.263  25.330   2.901
60431W        W25658  11.612  42.504  13.894
60432W        W25659  21.037   9.675   3.249
60433W        W25660   4.410   5.618  14.858
60434W        W25661  39.657  16.685   3.338
60435W        W25662   8.813  37.912   4.711
60436W        W25663  23.772   5.426  14.655
60437W        W25664  42.975  11.328   4.279
60438W        W25665  30.387  36.116   3.099
60439W        W25666  13.352  33.034   1.708
60440W        W25667  21.308  37.943  14.169
60441W        W25668  10.145  32.748   3.189
60442W        W25669   0.670  18.709  13.400
60443W        W25670  29.056   8.976  10.392
60444W        W25671  16.821   8.183  11.605
60445W        W25672  36.567   3.406  10.733
60446W        W25673  22.727   2.342  14.214
60447W        W25674  27.426  35.586  13.415
60448W        W25675  27.426  43.950  11.066
60449W        W25676  30.526  21.274  14.452
60450W        W25677  16.813  40.864  13.463
60451W        W25678   6.186  44.797   1.425
60452W        W25679   5.767  41.882  13.153
60453W        W25680   3.608  14.170  12.658
60454W        W25681  42.537  27.656   1.175
60455W        W25682  30.814  27.237   3.156
60456W        W25683  15.144  12.683   3.948
60457W        W25684   1.956  44.078   1.715
60458W        W25685  29.519  15.710   4.203
60459W        W25686   6.327  40.863   1.991
60460W        W25687  41.977  38.266  14.077
60461W        W25688   4.969   4.171   3.049
60462W        W25689  30.594  22.134  12.594
60463W        W25690  15.249  20.738   4.011
60464W        W25691  15.225   0.352  13.015
60465W        W25692   5.320  20.805  14.276
60466W        W25693  14.734  41.965  13.598
60467W        W25694  20.158  44.990   4.913
60468W        W25695  39.420  24.596   3.222
60469W        W25696  21.243   4.819   4.687
60470W        W25697  45.000   5.654   0.858
60471W        W25698  22.552   4.864  14.930
60472W        W25699  20.124  41.046   0.872
60473W        W25700   9.617  31.150  12.228
60474W        W25701  15.309   3.416   1.457
60475W        W25702   6.184  26.082  11.947
60476W        W25703  28.092  35.649  12.580
60477W        W25704   0.401  22.140   3.303
60478W        W25705   3.519  21.063  11.957
60479W        W25706  21.357  23.545   3.373
60480W        W25707   8.992  31.923   4.149
60481W        W25708  43.642  14.071  13.462
60482W        W25709  29.924  25.134  13.692
60483W        W25710  22.228  18.101  12.476
60484W        W25711  11.379  29.117  10.482
60485W        W25712  11.084  36.914  10.700
60486W        W25713  24.170   8.370   3.100
60487W        W25714   6.687   4.213   3.874
60488W        W25715  35.717  16.496   1.416
60489W        W25716  40.399  26.993   2.766
60490W        W25717  18.573  16.232  12.381
60491W        W25718  20.031   1.670  11.160
60492W        W25719   1.956  10.744  13.852
60493W        W25720  22.205   4.258   2.375
60494W        W25721  38.351   1.008  11.159
60495W        W25722  19.564  16.442  12.325
60496W        W25723  22.223  13.857  14.465
60497W        W25724   4.071  42.085   5.449
60498W        W25725  25.596  29.925  14.965
60499W        W25726  26.733   2.453  14.277
60500W        W25727  25.677   7.731  12.945
60501W        W25728   9.119  43.816   0.435
60502W        W25729  29.454  14.239   4.578
60503W        W25730   0.320  36.115   2.428
60504W        W25731  36.165  22.577   2.317
60505W        W25732  22.565  35.052   0.863
60506W        W25733  41.464  18.615   3.517
60507W        W25734  24.092  23.173   0.904
60508W        W25735  19.464  20.936   0.785
60509W        W25736  38.851  26.897  11.013
60510W        W25737  38.389  29.073  11.497
60511W        W25738  19.065  32.523  12.033
60512W        W25739  33.944   6.905   1.178
60513W        W25740   0.922  22.868   4.612
60514W        W25741   6.686   5.720  13.497
60515W        W25742  28.529  21.025   4.050
60516W        W25743  25.155   6.962   3.183
60517W        W25744   9.312   6.175  12.148
60518W        W25745  27.680  23.778  13.045
60519W        W25746  20.653   5.865   4.657
60520W        W25747   7.755  27.148  13.996
60521W        W25748  34.078  24.735  12.935
60522W        W25749  13.751   1.486   3.626
60523W        W25750  18.811   7.816   1.251
60524W        W25751   2.325  10.990  11.569
60525W        W25752  26.524  42.096   2.822
60526W        W25753  10.191  40.190  11.361
60527W        W25754  21.701  18.581   0.943
60528W        W25755  29.006  30.008   0.851
60529W        W25756  20.615  18.188   0.894
60530W        W25757  42.541  23.106   1.136
60531W        W25758   3.981   1.849  12.940
60532W        W25759  38.289  20.494   2.261
60533W        W25760  34.689  14.239   9.901
60534W        W25761   7.423  43.816   2.828
60535W        W25762  14.674  21.565   3.113
60536W        W25763  25.432  39.701  12.146
60537W        W25764  26.203   4.862  14.097
60538W        W25765  18.649   8.589   3.286
60539W        W25766  30.435  42.379   0.163
60540W        W25767   8.539  26.926   3.202
60541W        W25768   0.269  25.974   0.744
60542W        W25769   1.955  31.119   0.372
60543W        W25770  37.860  21.048   1.813
60544W        W25771  20.154  13.552   2.228
60545W        W25772  30.677  26.023  13.041
60546W        W25773  21.573  29.388   1.905
60547W        W25774   9.119  26.218  14.372
60548W        W25775  10.689  20.889   4.189
60549W        W25776  15.653  14.819  13.438
60550W        W25777   6.593  42.526  13.985
60551W        W25778  41.469  24.005  14.498
60552W        W25779  21.992   5.731  12.932
60553W        W25780  12.035  12.592  10.929
60554W        W25781  32.885  12.322  13.052
60555W        W25782   3.505  10.047   1.385
60556W        W25783  44.936  25.408   2.369
60557W        W25784  27.091  19.386   1.511
60558W        W25785  22.398  17.309  11.053
60559W        W25786  39.543  31.055  14.827
60560W        W25787  20.901  27.457   2.614
60561W        W25788  44.296   3.101  11.091
60562W        W25789   6.280  36.996   0.686
60563W        W25790  42.127  11.983  13.780
60564W        W25791   6.608  11.128   4.667
60565W        W25792  20.833   4.509  14.975
60566W        W25793  11.101  42.898  10.632
60567W        W25794   4.146  15.120   3.266
60568W        W25795  11.752  22.492   4.575
60569W        W25796   4.761  15.797   3.504
60570W        W25797  38.644  11.548  14.921
60571W        W25798  27.388  16.431  11.997
60572W        W25799  20.154  35.282   0.075
60573W        W25800  17.577  32.584   2.796
60574W        W25801  10.723  42.488   3.038
60575W        W25802  15.207  36.077  10.479
60576W        W25803  33.631  35.925  13.902
60577W        W25804  18.176  21.738  11.145
60578W        W25805  12.354   0.359  11.604
60579W        W25806  26.268  41.289   9.684
60580W        W25807  15.573  17.632  13.162
60581W        W25808  15.639  20.663   4.823
60582W        W25809  29.640  13.584   0.909
60583W        W25810  30.507  40.057   0.520
60584W        W25811  29.507  41.675  11.187
60585W        W25812  21.069  43.994   1.187
60586W        W25813  22.188  13.096  11.656
60587W        W25814  30.011  36.838  14.122
60588W        W25815  14.895   9.098   3.428
60589W        W25816  18.887  20.269   2.893
60590W        W25817  14.627   1.013  12.604
60591W        W25818   1.456  40.558   4.218
60592W        W25819  27.182  13.895   3.677
60593W        W25820  42.488  28.047  11.672
60594W        W25821   3.151  34.475   2.614
60595W        W25822  34.005  11.321  10.575
60596W        W25823  27.024   0.954   2.242
60597W        W25824  20.550  42.212   2.210
60598W        W25825   3.199  44.372  14.568
60599W        W25826  30.075  24.564  13.983
60600W        W25827  30.413   1.595  11.937
60601W        W25828  16.448  36.104  13.321
60602W        W25829  34.556   7.850  10.781
60603W        W25830   6.916  30.176  11.574
60604W        W25831  25.242  14.786   3.764
60605W        W25832  24.623  22.211  13.867
60606W        W25833  20.340  15.741   3.310
60607W        W25834  34.404  23.813  13.158
60608W        W25835  32.131   5.863  10.702
60609W        W25836  29.595  18.559   4.910
60610W        W25837   8.541  32.216  14.381
60611W        W25838  41.711  19.330  12.308
60612W        W25839  10.788  31.207   1.077
60613W        W25840  37.266  26.578  11.122
60614W        W25841  31.182  42.209   4.120
60615W        W25842  20.186  20.304  13.771
60616W        W25843   9.314  36.759   0.306
60617W        W25844  10.683  12.449   2.212
60618W        W25845  34.574   3.956   0.406
60619W        W25846   3.374   8.261   2.767
60620W        W25847   7.722   3.713  14.027
60621W        W25848  30.428  20.615   1.565
60622W        W25849   0.932  35.453   1.799
60623W        W25850  12.692  44.125   0.883
60624W        W25851   3.608   7.569   0.312
60625W        W25852   9.844   3.474   0.386
60626W        W25853   5.695   0.442   0.831
60627W        W25854  10.872  26.246   2.799
60628W        W25855   2.954  44.939  13.882
60629W        W25856   3.914  17.719  12.641
60630W        W25857  16.707  33.471   1.240
60631W        W25858  11.583  17.658  11.668
60632W        W25859  29.938  31.582   0.853
60633W        W25860  28.597  25.586  14.033
60634W        W25861  26.553  27.713   0.539
60635W        W25862  10.431  25.261  13.667
60636W        W25863  10.198   4.713   4.122
60637W        W25864  14.571   2.563  14.075
60638W        W25865  12.730   2.982  13.467
60639W        W25866  22.124  39.405   0.377
60640W        W25867  33.629  30.357  13.626
60641W        W25868   0.749  36.831   2.619
60642W        W25869  14.593  43.382   0.298
60643W        W25870  42.767  28.164  11.254
60644W        W25871  25.270  16.626   2.271
60645W        W25872   3.894  10.241  11.402
60646W        W25873   5.329  42.785   3.661
60647W        W25874  19.783   2.680  11.236
60648W        W25875   7.406  29.491   4.769
60649W        W25876  29.250  34.010   3.241
60650W        W25877  19.289  14.694   0.471
60651W        W25878  44.137   6.811   1.699
60652W        W25879  20.673  44.965   4.975
60653W        W25880  15.685  12.253  12.127
60654W        W25881   1.274  11.678  10.946
60655W        W25882  41.886  34.902   4.472
60656W        W25883   5.935  41.024  12.072
60657W        W25884  30.663  39.893  14.655
60658W        W25885  10.759  39.044   0.740
60659W        W25886  26.743   9.308   1.268
60660W        W25887  36.567  17.084   0.971
60661W        W25888   1.449   6.218   1.852
60662W        W25889  35.589  19.329  13.511
60663W        W25890   4.816   9.101  10.889
60664W        W25891  28.329  43.311   3.750
60665W        W25892   7.731  36.593  11.994
60666W        W25893   0.252  37.446  12.610
60667W        W25894  24.646  23.969  14.459
60668W        W25895  38.786  20.696   2.699
60669W        W25896  41.983  35.407   1.824
60670W        W25897   1.457  15.279  13.106
60671W        W25898   2.869  30.479  10.144
60672W        W25899  17.308   5.980  12.984
60673W        W25900  15.196  43.355   0.226
60674W        W25901  44.974   9.837   3.104
60675W        W25902  38.512   3.017   2.129
60676W        W25903  14.339   8.421  10.766
60677W        W25904  21.774  10.899   0.485
60678W        W25905  15.664  24.803  10.679
60679W        W25906  37.425  29.684   3.163
60680W        W25907  34.984  23.180   2.003
60681W        W25908  26.433  41.111   1.844
60682W        W25909  28.733  14.446   1.992
60683W        W25910  34.112   1.054  14.987
60684W        W25911  33.366  10.140   5.432
60685W        W25912   5.876  11.480   2.368
60686W        W25913  19.193  31.983  13.081
60687W        W25914  41.600  11.838  12.145
60688W        W25915  34.613  41.879  12.129
60689W        W25916  10.895  22.620   0.770
60690W        W25917  25.180  37.587   4.700
60691W        W25918   4.652  17.664  11.177
60692W        W25919   5.161  29.923  14.700
60693W        W25920  16.263  21.716  11.175
60694W        W25921   5.932  16.519  13.888
60695W        W25922  36.334  26.274  14.274
60696W        W25923   6.267  42.330   4.556
60697W        W25924  19.346  32.031   3.812
60698W        W25925  29.675   6.745   3.176
60699W        W25926  24.081   4.066   0.238
60700W        W25927   6.302  31.008  14.479
60701W        W25928  19.163   3.145  13.664
60702W        W25929  30.941  29.682  12.135
60703W        W25930  33.163  35.619   1.170
60704W        W25931   2.526  25.011  12.495
60705W        W25932  32.566  27.871  11.625
60706W        W25933   1.015  41.980  13.662
60707W        W25934  44.113  16.691  11.592
60708W        W25935  28.705  12.149   4.207
60709W        W25936  12.844   3.761   3.724
60710W        W25937   5.730  32.400   3.905
60711W        W25938   4.352  25.130   0.394
60712W        W25939   4.984  41.129  14.285
60713W        W25940   0.388  44.002   0.919
60714W        W25941  22.089  16.595  13.160
60715W        W25942  43.888  35.389  11.834
60716W        W25943  16.773  41.341   2.191
60717W        W25944  27.814  21.759  12.889
60718W        W25945  35.536  41.962   3.917
60719W        W25946   8.149  32.043  11.691
60720W        W25947  11.311  14.091  10.442
60721W        W25948  18.684   6.703  13.831
60722W        W25949  41.812  33.065  11.924
60723W        W25950   2.697  28.149   3.101
60724W        W25951   5.162   3.889   4.680
60725W        W25952  15.802  21.820   1.410
60726W        W25953  42.763  18.126   0.340
60727W        W25954  44.354   0.535   1.647
60728W        W25955  14.042  15.119   1.697
60729W        W25956   9.626  10.898   1.369
60730W        W25957  38.174  16.209  14.974
60731W        W25958  39.292  28.583   0.568
60732W        W25959  32.450  32.520  12.130
60733W        W25960  22.821  25.974   2.751
60734W        W25961  41.983  26.426   3.147
60735W        W25962  14.236  11.250  11.913
60736W        W25963  42.777  33.824   4.590
60737W        W25964   6.160   7.407   3.219
60738W        W25965  38.953  18.020   3.096
60739W        W25966   1.931  33.934   2.743
60740W        W25967  38.527  15.663  13.321
60741W        W25968   6.496  12.180  14.841
60742W        W25969   7.849  14.986  12.557
60743W        W25970  15.695  13.850  13.808
60744W        W25971  27.930  19.742  13.894
60745W        W25972  16.192  44.340   2.276
60746W        W25973  26.570  25.543   4.879
60747W        W25974  39.547  29.681  13.902
60748W        W25975   7.877  36.352  12.431
60749W        W25976   9.595  39.295   0.381
60750W        W25977   2.981  25.060   0.903
60751W        W25978  12.306  10.389   1.318
60752W        W25979   4.984   2.718   2.627
60753W        W25980  24.914  31.676   3.788
60754W        W25981  41.432  35.011   4.976
60755W        W25982  33.819  33.506   0.967
60756W        W25983   0.568  35.052   0.098
60757W        W25984  34.904   2.486   2.882
60758W        W25985   0.825  28.905  14.819
60759W        W25986  21.094  12.500   2.409
60760W        W25987   4.871   2.975   4.181
60761W        W25988  28.954  23.103  12.411
60762W        W25989  34.258  37.407   0.768
60763W        W25990  19.783  19.998  10.874
60764W        W25991  23.590  24.939   1.844
60765W        W25992  41.451  10.577   3.782
60766W        W25993  15.752  34.044   5.044
60767W        W25994  26.189  32.290   2.662
60768W        W25995  34.299  12.666  11.620
60769W        W25996  15.608   5.221  10.167
60770W        W25997  19.055  20.717  10.525
60771W        W25998   4.355  27.718  12.539
60772W        W25999  20.304  18.153  13.708
60773W        W26000  43.375  42.494   2.407
60774W        W26001  20.579   4.471  11.180
60775W        W26002  43.017   4.871   3.312
60776W        W26003  14.807  16.549   0.923
60777W        W26004   1.731  32.397  10.654
60778W        W26005  32.904  12.819   2.028
60779W        W26006  16.801  31.581  12.471
60780W        W26007  41.358  29.653   2.782
60781W        W26008   8.616  44.852  13.469
60782W        W26009  25.623  11.764  14.787
60783W        W26010  38.964   9.457  12.962
60784W        W26011  17.760  43.337  13.571
60785W        W26012  31.524  31.132  10.224
60786W        W26013  43.235   9.191  13.903
60787W        W26014   6.425   1.221  11.191
60788W        W26015  24.167  36.878  13.451
60789W        W26016  27.494  30.641  10.875
60790W        W26017  11.819   9.746   0.057
60791W        W26018   2.440  35.852   3.490
60792W        W26019  31.961  37.413  12.549
60793W        W26020   3.453  37.526  11.396
60794W        W26021  37.976   8.434  14.063
60795W        W26022  39.315  43.950  14.490
60796W        W26023   1.743  14.890  10.644
60797W        W26024  19.080  22.065   0.388
60798W        W26025  23.447  41.966   4.763
60799W        W26026  22.323  26.473   5.024
60800W        W26027  43.871  15.959   4.615
60801W        W26028   0.527  10.848  11.630
60802W        W26029  12.241  29.850   1.677
60803W        W26030  32.072  34.088   0.341
60804W        W26031  41.598  31.128   0.503
60805W        W26032  41.049  42.986  12.982
60806W        W26033  43.514   3.842  11.168
60807W        W26034  44.986  39.069  13.081
60808W        W26035  22.791  13.467   4.531
60809W        W26036  17.681  34.006  10.712
60810W        W26037  39.001  42.361  12.107
60811W        W26038  24.107  43.462  11.105
60812W        W26039   4.653   1.903   0.388
60813W        W26040  25.830  35.702   4.457
60814W        W26041  11.078  11.661  11.864
60815W        W26042  31.130  12.918   3.216
60816W        W26043   2.689   1.013   4.180
60817W        W26044  11.940  40.639  13.896
60818W        W26045   1.177   0.115   4.501
60819W        W26046   0.528  33.464  12.524
60820W        W26047   7.446  30.054   0.447
60821W        W26048  44.859  38.841  10.837
60822W        W26049  22.855   3.555   3.303
60823W        W26050  41.389  23.067  12.616
60824W        W26051   4.376  39.763  10.682
60825W        W26052   6.872  27.422  12.088
60826W        W26053  26.984  28.530  14.398
60827W        W26054  44.454  32.604  14.812
60828W        W26055  18.394  20.912   3.238
60829W        W26056   9.909  27.985   1.141
60830W        W26057  35.131  37.386   0.352
60831W        W26058   0.256   1.912   1.964
60832W        W26059  33.984  29.012  11.011
60833W        W26060   1.622  40.716  12.120
60834W        W26061  10.267  19.645   2.818
60835W        W26062  28.141   9.132  12.547
60836W        W26063  22.459  24.506   2.739
60837W        W26064  26.169   4.137  14.432
60838W        W26065  26.874  43.915  12.869
60839W        W26066  43.465  16.559  10.730
60840W        W26067  17.329  41.105  14.443
60841W        W26068  19.408  40.473  14.524
60842W        W26069  44.923  17.792   4.602
60843W        W26070  25.832   1.359  12.704
60844W        W26071   9.242  19.742   3.156
60845W        W26072  39.400  18.068   4.554
60846W        W26073  23.898  41.368  14.825
60847W        W26074  33.348  37.964  13.446
60848W        W26075  19.916  28.682  12.854
60849W        W26076  43.866  44.205   4.588
60850W        W26077  15.441  34.282   9.789
60851W        W26078  44.798  39.423  12.713
60852W        W26079  20.514  33.083   0.418
60853W        W26080  25.396  25.566   4.116
60854W        W26081  15.194  13.789   0.526
60855W        W26082  10.723  30.912  11.464
60856W        W26083  42.989   0.759   0.789
60857W        W26084  16.244  27.737   1.827
60858W        W26085  26.278  25.387  14.818
60859W        W26086   8.683   4.735   2.846
60860W        W26087  30.937  16.226   3.250
60861W        W26088  14.497   4.225   3.144
60862W        W26089   0.778   8.115  13.548
60863W        W26090   9.292   2.318   2.221
60864W        W26091  19.570  34.216  14.588
60865W        W26092  31.949   5.678   0.338
60866W        W26093  25.619  15.380  14.842
60867W        W26094  10.389  44.806  13.186
60868W        W26095  11.237  18.474   3.219
60869W        W26096   5.424  28.448   3.007
60870W        W26097  38.159  12.859   3.977
60871W        W26098  39.842  29.013   2.325
60872W        W26099  42.937  40.881  11.638
60873W        W26100  39.080  38.990   3.145
60874W        W26101  39.241  22.624  13.500
60875W        W26102   4.334  40.394  11.047
60876W        W26103  32.925  40.943   1.911
60877W        W26104  31.578  22.987   4.104
60878W        W26105  23.941  25.670  11.864
60879W        W26106  19.704  34.059  13.580
60880W        W26107  19.037   8.794  12.918
60881W        W26108   4.293  24.006  13.463
60882W        W26109   4.804  10.629   1.915
60883W        W26110  11.744   5.911   0.543
60884W        W26111  24.251   4.635   3.688
60885W        W26112  15.125  13.371   1.237
60886W        W26113  19.816  30.023  10.512
60887W        W26114  42.974  34.573  14.662
60888W        W26115  32.766   1.100   2.194
60889W        W26116  35.372  43.337   0.924
60890W        W26117  19.426   7.313  10.793
60891W        W26118   0.877  40.346   5.108
60892W        W26119   3.433   8.957  13.982
60893W        W26120   5.846  29.329  14.685
60894W        W26121  23.083  20.980  14.971
60895W        W26122   6.482  22.567  13.806
60896W        W26123  18.665  40.450   2.667
60897W        W26124   2.700   7.734   3.368
60898W        W26125   1.528  24.181  11.209
60899W        W26126  30.171  15.768   1.298
60900W        W26127   4.753  19.846  14.804
60901W        W26128   6.491  43.955  13.847
60902W        W26129  39.894  42.940  11.650
60903W        W26130  29.078   6.077   3.209
60904W        W26131  36.570  31.168  12.724
60905W        W26132  36.615  39.191  12.245
60906W        W26133   9.157  30.080  13.058
60907W        W26134  10.033  13.888   0.273
60908W        W26135   9.016  15.517   2.761
60909W        W26136  14.064  15.201   3.070
60910W        W26137  11.714  35.384  13.401
60911W        W26138  40.763  33.451  13.476
60912W        W26139  32.356   1.216  12.564
60913W        W26140  24.701  13.728  14.515
60914W        W26141  18.212  29.408  12.339
60915W        W26142   8.378  24.235  10.739
60916W        W26143  44.924  25.708   4.662
60917W        W26144  13.080  43.541  10.407
60918W        W26145  21.188  25.736  12.901
60919W        W26146  15.753  22.525  14.804
60920W        W26147  24.611   3.212  13.536
60921W        W26148  22.056  15.308  12.022
60922W        W26149  12.976  28.534  13.932
60923W        W26150  17.227  11.426   1.232
60924W        W26151  22.541   3.714   2.896
60925W        W26152   6.703  39.141   3.608
60926W        W26153  23.008  41.028  11.086
60927W        W26154  20.570  26.732   3.617
60928W        W26155  18.439   2.081   4.038
60929W        W26156  26.653  23.758  12.906
60930W        W26157  12.244   6.724  12.128
60931W        W26158   4.435  18.546  13.224
60932W        W26159  29.743  42.422   1.882
60933W        W26160  29.472  17.215  14.804
60934W        W26161  40.916  44.346  13.063
60935W        W26162  26.283  28.079  13.331
60936W        W26163   4.023  13.036   3.253
60937W        W26164  15.761  43.481   1.901
60938W        W26165  27.412   9.683   0.403
60939W        W26166  22.129  10.708   1.194
60940W        W26167  12.868  11.917  13.686
60941W        W26168  28.450  38.067   9.695
60942W        W26169  34.934  22.735   5.189
60943W        W26170  12.325  17.206  12.024
60944W        W26171  16.583  16.545   2.660
60945W        W26172   5.837  11.856   3.428
60946W        W26173  33.399   3.461   3.777
60947W        W26174  41.889  12.888  11.582
60948W        W26175  18.570   3.982   4.145
60949W        W26176  29.024  16.095   0.574
60950W        W26177  11.837   5.829  13.858
60951W        W26178   1.449  12.115   1.664
60952W        W26179  37.461  23.978   3.704
60953W        W26180  29.123  21.087   3.173
60954W        W26181  23.078  25.089   3.788
60955W        W26182  24.079  28.953   2.940
60956W        W26183  23.040  32.361   3.334
60957W        W26184  13.147   1.581  11.588
60958W        W26185  39.486  38.083   1.845
60959W        W26186  30.122  19.553  12.179
60960W        W26187   2.868  12.731  12.492
60961W        W26188  43.129   0.930   1.440
60962W        W26189  15.381  36.893  13.503
60963W        W26190  10.283   9.164   2.674
60964W        W26191   7.437  42.247  14.711
60965W        W26192  36.091   2.665  13.999
60966W        W26193  32.271  22.081  14.406
60967W        W26194  21.237  38.339  12.846
60968W        W26195  22.477  11.355   3.820
60969W        W26196  38.360  33.584   2.716
60970W        W26197  26.409  32.405   3.886
60971W        W26198  28.531  23.909   2.939
60972W        W26199  27.335  31.985   4.159
60973W        W26200  33.074  34.110  14.079
60974W        W26201  27.419  13.292   5.042
60975W        W26202   9.843  22.114   2.418
60976W        W26203  17.379  34.092  14.730
60977W        W26204  30.905  37.872   1.465
60978W        W26205  35.831  42.277  13.407
60979W        W26206   8.171  25.658   3.743
60980W        W26207  39.567  15.606  13.002
60981W        W26208  44.239  44.291   0.348
60982W        W26209  38.479  34.939  14.986
60983W        W26210  30.536   7.542  12.090
60984W        W26211  24.675  23.481  11.683
60985W        W26212  27.761   0.907   2.088
60986W        W26213  16.082  19.571  14.118
60987W        W26214  15.513  10.582   4.264
60988W        W26215   7.764  26.102   4.550
60989W        W26216  31.108  44.554   3.154
60990W        W26217  29.431   9.023  12.612
60991W        W26218  44.445  39.784   4.278
60992W        W26219  10.372   2.272  12.044
60993W        W26220  39.604  30.193   2.143
60994W        W26221  32.765   1.498   3.666
60995W        W26222  13.676  41.277  13.958
60996W        W26223  25.150  14.956   4.740
60997W        W26224   1.114   8.989  11.154
60998W        W26225  23.650  18.579  10.631
60999W        W26226  44.457  43.258   1.858
61000W        W26227   2.935   7.144   0.970
61001W        W26228  15.755  35.332   3.495
61002W        W26229  14.828  22.663  12.831
61003W        W26230   2.869  12.277  13.218
61004W        W26231  41.904  13.742   0.503
61005W        W26232  25.971  36.529   3.820
61006W        W26233  12.224   0.077  10.699
61007W        W26234  35.676  17.946   2.853
61008W        W26235  19.072  31.704   2.055
61009W        W26236  39.826  12.616  12.874
61010W        W26237  30.933   3.462  14.906
61011W        W26238  16.265  31.939  11.112
61012W        W26239  32.889  38.047  12.040
61013W        W26240  35.086  33.045   0.747
61014W        W26241   9.081  19.754  14.790
61015W        W26242  41.745   5.305   4.088
61016W        W26243   4.097  42.146  14.758
61017W        W26244  43.994  12.843  12.975
61018W        W26245  34.774  26.010   0.286
61019W        W26246   3.257  14.767  11.338
61020W        W26247  10.735   5.147  13.835
61021W        W26248  29.869  31.516  13.144
61022W        W26249  33.482   7.278  10.744
61023W        W26250   6.997   4.060  14.483
61024W        W26251   9.799  12.419  10.606
61025W        W26252  22.163  28.659   0.499
61026W        W26253   2.227  12.008   3.240
61027W        W26254  29.855  20.582   3.050
61028W        W26255  24.433   9.815   3.776
61029W        W26256  15.219   7.345   0.408
61030W        W26257  15.864  15.525   0.414
61031W        W26258  12.190  31.337  12.482
61032W        W26259   3.454  31.140  11.052
61033W        W26260  11.267  20.197   2.704
61034W        W26261  40.984   6.312   3.139
61035W        W26262  24.626  39.334   4.358
61036W        W26263  30.450  30.897   2.114
61037W        W26264  14.741  17.551   1.310
61038W        W26265  21.568  21.725   0.025
61039W        W26266  36.031   3.875  14.431
61040W        W26267  29.501  11.882   1.613
61041W        W26268  22.966   9.641   2.919
61042W        W26269  23.985  28.486   1.383
61043W        W26270  14.555   0.567   4.596
61044W        W26271   0.949  37.890   2.202
61045W        W26272   4.827   6.442  11.732
61046W        W26273  31.190  34.821  10.144
61047W        W26274  39.486  12.856  11.535
61048W        W26275   3.856  34.888   2.646
61049W        W26276  12.593  14.332  13.310
61050W        W26277  35.894  25.352  13.947
61051W        W26278  18.539  33.088   2.970
61052W        W26279  22.989  36.760   4.645
61053W        W26280  14.133   8.888   4.603
61054W        W26281   2.693  19.446  10.120
61055W        W26282  35.586  28.213   0.376
61056W        W26283  23.812   1.117   3.623
61057W        W26284  43.817  12.214  10.531
61058W        W26285  31.073  18.428   5.097
61059W        W26286   8.765  13.675  10.445
61060W        W26287  44.358  24.592  14.927
61061W        W26288  14.743  10.260  13.633
61062W        W26289  17.406   2.220   4.911
61063W        W26290  30.087   6.236  12.070
61064W        W26291  32.370  35.070   3.734
61065W        W26292  27.298   5.768  14.081
61066W        W26293  12.191  41.846  12.432
61067W        W26294  10.828  21.782  10.551
61068W        W26295  23.034  30.832  10.655
61069W        W26296   2.651   5.860  12.448
61070W        W26297  25.418  21.593  14.958
61071W        W26298  34.661   2.934   1.926
61072W        W26299  11.710   5.329  12.055
61073W        W26300  19.592  16.613   3.750
61074W        W26301  24.702   7.599  12.954
61075W        W26302   9.128   5.693   4.558
61076W        W26303   2.803   2.915   2.661
61077W        W26304  18.209  39.861   3.754
61078W        W26305   5.877  21.175   0.505
61079W        W26306  25.538  40.084  14.579
61080W        W26307  43.836   8.366  12.552
61081W        W26308   9.479  17.197  13.499
61082W        W26309  36.015   9.859  14.850
61083W        W26310  12.217  29.994  14.126
61084W        W26311  23.801   6.704   1.678
61085W        W26312  28.496  38.888   4.029
61086W        W26313   0.863  37.214   1.689
61087W        W26314  33.426  10.337  13.367
61088W        W26315  14.207   8.679  14.531
61089W        W26316   5.867   9.141  14.903
61090W        W26317   7.516   8.229  10.889
61091W        W26318  13.607   0.726   0.736
61092W        W26319   2.079  30.068  11.968
61093W        W26320  10.166  41.823  14.457
61094W        W26321   4.854  15.891  13.434
61095W        W26322  15.202  22.806  11.031
61096W        W26323  25.009  22.480   0.422
61097W        W26324  17.082  21.473  13.845
61098W        W26325  12.989   2.264   4.171
61099W        W26326  10.399  15.821   0.355
61100W        W26327   2.811   0.326   3.630
61101W        W26328  42.422   0.879  14.888
61102W        W26329  28.280  22.213  14.681
61103W        W26330  21.543  20.587  14.308
61104W        W26331  38.454  11.185  14.021
61105W        W26332  13.457  32.123   5.285
61106W        W26333  29.712  25.503  11.609
61107W        W26334   0.825  11.890   2.767
61108W        W26335  40.444  41.984   0.976
61109W        W26336  22.036  38.876  14.008
61110W        W26337  26.841  32.961  14.126
61111W        W26338   5.289   4.659  13.281
61112W        W26339  24.266   0.483  12.434
61113W        W26340  10.093  23.849  11.178
61114W        W26341  44.431  41.446  12.072
61115W        W26342  40.234  39.325   0.254
61116W        W26343  36.076  33.484   4.511
61117W        W26344   0.999  12.679   0.889
61118W        W26345   4.648  18.598  14.963
61119W        W26346  27.443  10.251   3.285
61120W        W26347  41.003  17.282  10.719
61121W        W26348   8.304  28.017   0.381
61122W        W26349  25.443  36.320  11.602
61123W        W26350  40.494  26.648  13.512
61124W        W26351  26.315  24.683  13.888
61125W        W26352  31.496  33.157  11.676
61126W        W26353   9.630   3.226   1.777
61127W        W26354   3.208  38.365   3.306
61128W        W26355  41.511  27.961   0.315
61129W        W26356  15.925  29.123  13.583
61130W        W26357  33.177  18.278   0.945
61131W        W26358  25.643  38.556   1.436
61132W        W26359  13.100  21.662   3.229
61133W        W26360  29.447  21.714   1.828
61134W        W26361  29.028  31.072  11.306
61135W        W26362  43.839  14.194   4.612
61136W        W26363   5.291  17.590  13.272
61137W        W26364  12.302  12.329   4.983
61138W        W26365  31.448  32.439   3.333
61139W        W26366  30.113  30.406  13.370
61140W        W26367   4.784   2.766   1.586
61141W        W26368  16.871  23.239   0.871
61142W        W26369  17.769  20.980  12.097
61143W        W26370  32.489   5.788  14.770
61144W        W26371  42.547  32.412   3.659
61145W        W26372  44.402  14.263  14.762
61146W        W26373  10.924   3.364  12.010
61147W        W26374  39.757   5.160  11.215
61148W        W26375   7.699   4.714   0.838
61149W        W26376   0.427  10.713   3.574
61150W        W26377  42.887  35.000  12.356
61151W        W26378  28.483  35.776  12.262
61152W        W26379  39.010  36.008  14.334
61153W        W26380  22.526  10.777  13.975
61154W        W26381   6.662  38.481  14.793
61155W        W26382   4.823   5.177  12.120
61156W        W26383  41.464  25.287  12.478
61157W        W26384   3.977  18.315   1.251
61158W        W26385  24.151   3.902  13.044
61159W        W26386  15.301  16.936   2.770
61160W        W26387   2.483  41.777   3.072
61161W        W26388   8.681  26.027   2.854
61162W        W26389  42.590   5.345   1.229
61163W        W26390  19.110  12.432   3.259
61164W        W26391  42.755  32.030   1.331
61165W        W26392   9.262  39.289   2.572
61166W        W26393  24.616  36.399   4.590
61167W        W26394  34.535  42.347  12.922
61168W        W26395  29.043  10.254  12.435
61169W        W26396  41.782  38.628  11.285
61170W        W26397  10.305  43.068   3.574
61171W        W26398  28.008  35.601   3.189
61172W        W26399  36.886   8.235  13.447
61173W        W26400   2.326  33.086  14.998
61174W        W26401   2.570  43.244  11.210
61175W        W26402  16.553   4.291   4.040
61176W        W26403  44.086   0.864   1.913
61177W        W26404   3.188  44.705   4.102
61178W        W26405  24.870  23.892  11.167
61179W        W26406  25.723  33.008   0.308
61180W        W26407  20.596   9.353  11.813
61181W        W26408  20.271  27.767  13.239
61182W        W26409   5.221  25.173  10.768
61183W        W26410  38.918  21.055  11.099
61184W        W26411  27.579  18.533   0.596
61185W        W26412  25.090  28.841   3.225
61186W        W26413  11.074  22.256  10.808
61187W        W26414  18.424  42.867  12.149
61188W        W26415  17.231  44.519   0.858
61189W        W26416  18.059   7.236  13.597
61190W        W26417  38.604   9.648   2.823
61191W        W26418  12.191   5.184  11.258
61192W        W26419  44.094   8.898   1.167
61193W        W26420   3.177  26.623  14.942
61194W        W26421   8.788  20.577  11.662
61195W        W26422   5.175   4.476   2.266
61196W        W26423  30.815  15.671   4.903
61197W        W26424  42.091  31.316   0.307
61198W        W26425  34.654  35.862   4.417
61199W        W26426  21.976   7.419   4.488
61200W        W26427  26.838  43.704   2.160
61201W        W26428  21.122  26.148  12.118
61202W        W26429  24.490  30.898   1.337
61203W        W26430  40.263   9.312  13.459
61204W        W26431   5.608  13.524  11.203
61205W        W26432  12.657  27.614  11.606
61206W        W26433  30.184   4.689   0.753
61207W        W26434  30.487   2.761  10.956
61208W        W26435  21.352  23.872  11.907
61209W        W26436  36.793  24.457  12.039
61210W        W26437  43.429   4.838  11.168
61211W        W26438  36.552  25.054  12.580
61212W        W26439  38.908  25.075   4.461
61213W        W26440  10.820  29.632   2.164
61214W        W26441   6.293   0.059   5.167
61215W        W26442   2.947  20.086  13.832
61216W        W26443   0.212  40.265   3.224
61217W        W26444  40.324  41.325   3.262
61218W        W26445  43.033  36.804  12.552
61219W        W26446   5.571  23.019  11.650
61220W        W26447   7.982  43.822  10.724
61221W        W26448  32.484  33.839   3.373
61222W        W26449  32.695  33.003  12.948
61223W        W26450  14.673   6.662   0.469
61224W        W26451   0.730  33.268   4.124
61225W        W26452  23.534   0.931   0.927
61226W        W26453   3.848  27.871  12.480
61227W        W26454   3.913   9.160  13.934
61228W        W26455  28.174  22.723  13.868
61229W        W26456  35.088  13.701   2.789
61230W        W26457  13.808  31.946  13.389
61231W        W26458  15.527  44.997  13.911
61232W        W26459   2.320   5.830   0.626
61233W        W26460  16.044   0.225  11.240
61234W        W26461  11.192   4.054  12.897
61235W        W26462  20.105   0.954   4.130
61236W        W26463  44.490   1.837   3.329
61237W        W26464   7.390  44.651  13.288
61238W        W26465  13.044  35.977   0.497
61239W        W26466  20.618  29.790   3.658
61240W        W26467  19.732  22.035  10.531
61241W        W26468  12.224  42.054   4.276
61242W        W26469   3.833  21.104   2.378
61243W        W26470  23.331  16.833   0.165
61244W        W26471  43.273  39.054   2.099
61245W        W26472  24.545  26.027   0.741
61246W        W26473  36.671  44.747  12.486
61247W        W26474  37.642  18.605  11.290
61248W        W26475  44.276  30.004  13.321
61249W        W26476  42.783   9.582  13.441
61250W        W26477   8.683  31.454   3.934
61251W        W26478  31.982  16.353   4.606
61252W        W26479  24.658  28.726   4.203
61253W        W26480   9.100  18.093   4.350
61254W        W26481   7.153  38.459  11.839
61255W        W26482  38.993  14.595   4.658
61256W        W26483  12.090  35.109   0.730
61257W        W26484  17.252  16.610  10.743
61258W        W26485  35.878   8.332  10.320
61259W        W26486  27.181  21.673   4.360
61260W        W26487  38.825  15.506   2.949
61261W        W26488  41.876  35.647   3.393
61262W        W26489  34.601  25.822  10.020
61263W        W26490  17.420  23.840   0.466
61264W        W26491  35.595  21.763  10.769
61265W        W26492   3.855  44.031  10.866
61266W        W26493   1.479  18.002  10.587
61267W        W26494  16.046  32.160  10.702
61268W        W26495  23.031  10.470  13.797
61269W        W26496  13.099  23.770  10.797
61270W        W26497  10.868   0.659  14.333
61271W        W26498  11.531  23.993  13.385
61272W        W26499  41.788  41.538   4.121
61273W        W26500  12.172  43.307  13.304
61274W        W26501  15.818   4.501   3.390
61275W        W26502  22.801  20.853   3.193
61276W        W26503  24.132  23.097   4.188
61277W        W26504  24.465  20.914   4.575
61278W        W26505  34.299  32.134   0.543
61279W        W26506  19.189  40.383  13.928
61280W        W26507   7.601  35.586   0.661
61281W        W26508  40.667  31.570   4.730
61282W        W26509  25.619   5.941  10.608
61283W        W26510  43.874  13.069   2.734
61284W        W26511  17.123  22.845   0.465
61285W        W26512  29.224  35.455  11.114
61286W        W26513  40.558  27.470  13.163
61287W        W26514  38.010   8.352   3.915
61288W        W26515  11.880   7.908  13.913
61289W        W26516  36.064  19.318  11.016
61290W        W26517  15.830  12.740  10.836
61291W        W26518   3.883  40.160  10.908
61292W        W26519  15.796  21.694  12.566
61293W        W26520   2.534  41.487  11.131
61294W        W26521  28.081   9.400  12.984
61295W        W26522  25.410  20.553  12.555
61296W        W26523  16.145   1.346  14.284
61297W        W26524  29.842  19.495  11.305
61298W        W26525  13.282   1.007  10.766
61299W        W26526  16.626  35.545  12.478
61300W        W26527  13.795  43.516   2.199
61301W        W26528   0.971  26.183  10.109
61302W        W26529  25.748  28.155  11.568
61303W        W26530   9.363  26.895   0.479
61304W        W26531  42.451  34.365   2.910
61305W        W26532  36.335  44.242  11.205
61306W        W26533  41.105   5.191  14.867
61307W        W26534  22.538  32.501   3.198
61308W        W26535   9.868  30.912   3.973
61309W        W26536   8.081  18.160  11.136
61310W        W26537  37.450  27.186   2.105
61311W        W26538  33.265  42.749  13.340
61312W        W26539  22.219  30.118   3.853
61313W        W26540   2.784  12.912   2.098
61314W        W26541  44.496  33.424   3.052
61315W        W26542   8.846  26.331   2.438
61316W        W26543  19.753  38.158   3.789
61317W        W26544   7.704   9.788  13.565
61318W        W26545   9.443  36.166   1.790
61319W        W26546  12.649   4.584  12.990
61320W        W26547  20.923  43.361   1.985
61321W        W26548   6.229  38.827   3.710
61322W        W26549   4.450  38.563  12.866
61323W        W26550  38.409  38.936   2.955
61324W        W26551  18.605  19.379  13.948
61325W        W26552  22.175   7.866  11.792
61326W        W26553   2.479  12.276   0.324
61327W        W26554  43.100   4.251  14.082
61328W        W26555   2.457  13.050  11.617
61329W        W26556  31.574  32.459  14.690
61330W        W26557  27.873   3.134  11.133
61331W        W26558  37.939   2.015  12.141
61332W        W26559  41.932  19.384  11.479
61333W        W26560  11.112  38.437   3.685
61334W        W26561  15.152  31.612   1.471
61335W        W26562  11.061  35.158   0.989
61336W        W26563  39.942  13.741  12.839
61337W        W26564  19.673   8.307   0.387
61338W        W26565   9.037  14.892   1.437
61339W        W26566  20.340  41.229   4.572
61340W        W26567  29.576   9.456   3.682
61341W        W26568  33.054   8.917  13.661
61342W        W26569  33.878  16.218   3.197
61343W        W26570  37.612  42.005   4.560
61344W        W26571  39.422  37.614  13.021
61345W        W26572  15.238   4.636   1.665
61346W        W26573  21.518  25.170  11.174
61347W        W26574  25.209  21.058  12.084
61348W        W26575  22.676  32.087  14.475
61349W        W26576  18.989  38.729   4.177
61350W        W26577  13.306  26.424  14.446
61351W        W26578  16.180  36.600  12.170
61352W        W26579  13.588   3.703   0.358
61353W        W26580  22.573  15.102   2.206
61354W        W26581  24.027  38.816  11.506
61355W        W26582  35.875  21.345  14.468
61356W        W26583  12.590  18.312   0.301
61357W        W26584  25.094   5.623   3.889
61358W        W26585  30.436  23.069  14.058
61359W        W26586   6.726  35.833   3.153
61360W        W26587  21.295  18.520   2.349
61361W        W26588  27.172  14.712   4.118
61362W        W26589  28.394  42.461  13.325
61363W        W26590  11.179  44.438  14.600
61364W        W26591  37.901  34.888  12.140
61365W        W26592  28.606  19.516  13.349
61366W        W26593  20.187   3.337  12.438
61367W        W26594  39.463   6.132   1.316
61368W        W26595  44.149  18.892   2.654
61369W        W26596  14.048  20.025   1.011
61370W        W26597   4.995  38.789   0.812
61371W        W26598  26.013  18.241  14.831
61372W        W26599  23.662  13.834   3.017
61373W        W26600  25.232   6.103   3.695
61374W        W26601  23.295  44.994   2.382
61375W        W26602   9.300   1.935   0.820
61376W        W26603  19.108  25.939   4.565
61377W        W26604  32.998  26.648  13.914
61378W        W26605  21.559   0.816   1.299
61379W        W26606  38.886  13.193   2.298
61380W        W26607  30.208  25.662  12.483
61381W        W26608  10.167   0.440   0.966
61382W        W26609  17.951  22.510  10.743
61383W        W26610  11.704   2.190  14.928
61384W        W26611  28.972  27.722  12.889
61385W        W26612  43.699  44.379   2.281
61386W        W26613   3.957  31.070  13.038
61387W        W26614   3.847   2.505   4.065
61388W        W26615   5.849  13.388  13.705
61389W        W26616   4.214  38.424   3.207
61390W        W26617  11.854   7.748   3.557
61391W        W26618   2.176  31.675   0.451
61392W        W26619   1.717   5.976   3.654
61393W        W26620  25.179   8.158  14.880
61394W        W26621  43.552   0.292   0.449
61395W        W26622   2.307   4.378   4.200
61396W        W26623  41.904  29.217  13.066
61397W        W26624  24.021  42.475  12.558
61398W        W26625  39.949  32.996  10.679
61399W        W26626  30.004  36.632   2.227
61400W        W26627  14.712  13.749  12.084
61401W        W26628   4.012  26.681   4.440
61402W        W26629  22.961  41.972  14.120
61403W        W26630  14.756   6.035   3.904
61404W        W26631  19.481  39.286  11.890
61405W        W26632  39.026  36.873   4.134
61406W        W26633  42.974  41.377  14.994
61407W        W26634   2.991  43.293  13.026
61408W        W26635  43.237  23.971  11.054
61409W        W26636  36.493  28.021   1.957
61410W        W26637  42.105   9.935   5.019
61411W        W26638  12.912  41.250   4.845
61412W        W26639  10.710  39.023  13.489
61413W        W26640  17.125  30.937  11.988
61414W        W26641  24.708  14.558  13.924
61415W        W26642  38.761   9.106  11.988
61416W        W26643  15.083  13.122   3.708
61417W        W26644  19.083  43.977  14.593
61418W        W26645  24.984  27.568  13.472
61419W        W26646  44.318  21.903   2.125
61420W        W26647   9.777  23.083  12.796
61421W        W26648  44.726  30.892   3.118
61422W        W26649  27.084  14.123  11.014
61423W        W26650  39.476  21.523   2.968
61424W        W26651  13.657  24.714  14.980
61425W        W26652   4.199  16.195  14.943
61426W        W26653  34.547   8.170   3.075
61427W        W26654  22.241  35.446   1.366
61428W        W26655   8.811  19.788   4.187
61429W        W26656   9.715  30.573  10.809
61430W        W26657   3.555  14.510  11.662
61431W        W26658   9.887   9.391  14.491
61432W        W26659  32.177  38.585   4.520
61433W        W26660  34.868  24.025  12.231
61434W        W26661  44.455  13.789   0.003
61435W        W26662  32.083  44.999  12.875
61436W        W26663   9.281   2.834  12.875
61437W        W26664  43.329  13.252  12.065
61438W        W26665   4.417  25.937   0.805
61439W        W26666  36.160  30.476   4.578
61440W        W26667  28.411  36.372   0.169
61441W        W26668  30.033  21.624   4.636
61442W        W26669   4.750  39.080  14.221
61443W        W26670   7.119  18.053   0.294
61444W        W26671  28.159  41.625  14.870
61445W        W26672  32.381  34.498   0.335
61446W        W26673  20.026  31.919  10.876
61447W        W26674  32.644  26.123   0.766
61448W        W26675  43.074   8.381   9.824
61449W        W26676  29.155  39.101   0.805
61450W        W26677  14.106  19.461   2.405
61451W        W26678   8.141  13.138  14.451
61452W        W26679   4.240  17.495  12.295
61453W        W26680  34.210   4.677   1.064
61454W        W26681  12.546  38.451  12.492
61455W        W26682  43.552  30.049   0.924
61456W        W26683  39.207   7.825  14.446
61457W        W26684  44.891   8.418  14.050
61458W        W26685  35.314  15.341  12.682
61459W        W26686  25.939  38.094   2.658
61460W        W26687  11.692  11.835   0.339
61461W        W26688  23.948   9.615  12.044
61462W        W26689  24.493  35.650   1.645
61463W        W26690   9.393  16.013   0.305
61464W        W26691   3.281  29.939   3.097
61465W        W26692  36.964  42.515  10.790
61466W        W26693  10.278   1.095   4.431
61467W        W26694  36.714  24.646   4.629
61468W        W26695  19.214   6.935  14.039
61469W        W26696  12.541  29.977   1.257
61470W        W26697  44.829   5.172   0.797
61471W        W26698  25.301  35.448  11.230
61472W        W26699   9.214   7.586  14.436
61473W        W26700  11.057  43.918   0.268
61474W        W26701   5.825  43.467   0.051
61475W        W26702  33.021   1.084  13.352
61476W        W26703   6.805  30.835   4.542
61477W        W26704  13.287   1.798   3.840
61478W        W26705  28.367  33.630   4.231
61479W        W26706  39.095  37.789   3.756
61480W        W26707  32.723  14.623  12.603
61481W        W26708  36.371  21.327  14.377
61482W        W26709   2.459   8.296  10.545
61483W        W26710  13.357  14.717  11.019
61484W        W26711  36.967  11.804  12.837
61485W        W26712  14.668  21.165   2.748
61486W        W26713  39.223  19.695   2.806
61487W        W26714  39.102  42.810  13.117
61488W        W26715  33.158  19.224  12.452
61489W        W26716  24.054   5.487   3.171
61490W        W26717   4.781  32.108  11.549
61491W        W26718  29.208  36.830  12.988
61492W        W26719  22.113  27.953  11.133
61493W        W26720   7.886  19.144  14.858
61494W        W26721  42.446   0.821  12.544
61495W        W26722  14.055  21.999   2.779
61496W        W26723  28.970   7.406   3.676
61497W        W26724  17.160  16.661   1.493
61498W        W26725  35.526  35.286   2.623
61499W        W26726  11.705  11.183   0.795
61500W        W26727  19.966  24.553   3.308
61501W        W26728  29.790  38.011   0.458
61502W        W26729  39.806  28.988  12.680
61503W        W26730  26.209  34.952   0.705
61504W        W26731  21.062  18.404   4.607
61505W        W26732  26.475   7.862   1.714
61506W        W26733   4.740  27.773   2.211
61507W        W26734  29.473  37.318  10.004
61508W        W26735  30.531   9.883   0.467
61509W        W26736   4.023  21.878   0.318
61510W        W26737  18.882  15.741   4.183
61511W        W26738  13.703  27.092  12.476
61512W        W26739  39.194  32.981   2.615
61513W        W26740  27.723  43.525  14.830
61514W        W26741   0.920  21.870  12.827
61515W        W26742   9.931  16.673  14.291
61516W        W26743   6.427  41.081  10.778
61517W        W26744  39.771   3.444   0.937
61518W        W26745   7.074   6.529  14.763
61519W        W26746  10.012  18.052  12.087
61520W        W26747  13.643   3.046  13.080
61521W        W26748  39.782  39.041   2.104
61522W        W26749  38.979  19.223   0.730
61523W        W26750  35.772   9.043  14.879
61524W        W26751   0.349  16.845  11.192
61525W        W26752  28.495  42.429  14.726
61526W        W26753  34.045  41.182  13.336
61527W        W26754  16.049   1.732   1.860
61528W        W26755  39.574   8.122  14.670
61529W        W26756  34.635   7.088   3.263
61530W        W26757   5.232   8.100  11.935
61531W        W26758   6.820  11.064   2.260
61532W        W26759  41.769  14.554  11.272
61533W        W26760   9.326  27.169  13.565
61534W        W26761  20.798  12.381  13.652
61535W        W26762  27.949  19.834   4.308
61536W        W26763   0.229  34.883   4.139
61537W        W26764  19.789  25.499  14.401
61538W        W26765   3.563   9.919  12.403
61539W        W26766  32.264  12.852   1.379
61540W        W26767  20.666  17.033  12.000
61541W        W26768  24.893  30.256  11.232
61542W        W26769   4.106  39.919   0.444
61543W        W26770  35.904  12.183   0.325
61544W        W26771  33.958  32.909   3.514
61545W        W26772  36.158   9.282   2.675
61546W        W26773  15.212  16.498   0.452
61547W        W26774  28.164  32.062  13.870
61548W        W26775  10.137  25.598   2.609
61549W        W26776  33.186  33.370   4.753
61550W        W26777  29.656  39.767  12.276
61551W        W26778  32.970  38.413  14.153
61552W        W26779   3.831   1.550   3.226
61553W        W26780  14.339  31.339  11.558
61554W        W26781  19.663   6.085  10.778
61555W        W26782  37.015   8.377   3.319
61556W        W26783  15.534  14.071  10.419
61557W        W26784   3.287  42.098   2.786
61558W        W26785  17.645  33.437   3.119
61559W        W26786   2.488  24.420  11.131
61560W        W26787  34.393  27.638   1.780
61561W        W26788  44.232   3.422  11.633
61562W        W26789  27.636  10.499  13.875
61563W        W26790  22.276  20.108   1.805
61564W        W26791   2.708  11.797  11.105
61565W        W26792  44.789  33.499   0.725
61566W        W26793  13.095  26.986   4.394
61567W        W26794  31.203  13.200   4.497
61568W        W26795  23.720  10.121   2.698
61569W        W26796  18.120  30.635  14.483
61570W        W26797   3.277   3.869  13.788
61571W        W26798  38.073  26.749  14.249
61572W        W26799  24.691  38.319  14.436
61573W        W26800  17.328   0.533   3.942
61574W        W26801  28.224  30.062  12.363
61575W        W26802  14.364  43.051  10.389
61576W        W26803  27.943  12.527   1.918
61577W        W26804  37.261   9.585   2.297
61578W        W26805  41.553   7.248   3.358
61579W        W26806  14.239  35.228  14.460
61580W        W26807   6.275   7.910  13.838
61581W        W26808  13.764   1.035  11.138
61582W        W26809  42.878  36.363  10.592
61583W        W26810   5.880  31.400   3.784
61584W        W26811   6.398  20.575   0.479
61585W        W26812  18.570  43.095  14.459
61586W        W26813  15.852  39.389  14.000
61587W        W26814  16.729  15.604  12.555
61588W        W26815   0.301  19.233  12.623
61589W        W26816   1.258  17.693   0.782
61590W        W26817  27.927  41.066  12.120
61591W        W26818  33.821  43.983   0.898
61592W        W26819   0.879  37.664  11.597
61593W        W26820  28.175  18.294  10.720
61594W        W26821  12.760  42.031  12.992
61595W        W26822  40.619  29.169  11.175
61596W        W26823  40.884  23.889  12.874
61597W        W26824  19.014  41.941   4.689
61598W        W26825  18.734   5.945   0.814
61599W        W26826  33.587  14.121   2.332
61600W        W26827  35.021  30.149   2.742
61601W        W26828  11.171   5.740   4.359
61602W        W26829  10.881  42.240   0.617
61603W        W26830  28.687   9.654  11.042
61604W        W26831  24.074  25.695  13.965
61605W        W26832   6.843  44.429   3.292
61606W        W26833  11.174  37.126   3.157
61607W        W26834   9.085  14.811  14.114
61608W        W26835  29.682  19.000  11.189
61609W        W26836  40.738  12.194   1.890
61610W        W26837   9.656  16.310   3.106
61611W        W26838   0.305  16.442  12.383
61612W        W26839   0.472  36.219   3.313
61613W        W26840  41.493  17.514  11.664
61614W        W26841  27.093  44.603  12.099
61615W        W26842  42.093  26.534   3.638
61616W        W26843  34.360   7.876   2.640
61617W        W26844  43.918  16.934   1.737
61618W        W26845   9.341  34.468   1.912
61619W        W26846  12.032  33.454   0.942
61620W        W26847  24.301  32.609   3.103
61621W        W26848   6.141  21.420  10.720
61622W        W26849  37.989   4.226  11.410
61623W        W26850  32.385  39.376  14.192
61624W        W26851  42.936  24.613  11.164
61625W        W26852  34.666  44.618   1.111
61626W        W26853  16.317  19.026  14.825
61627W        W26854  36.056  44.135  12.076
61628W        W26855  27.451  43.948  13.959
61629W        W26856  42.219  19.236  12.462
61630W        W26857  24.773  35.023  11.728
61631W        W26858  18.273  13.241  13.282
61632W        W26859  27.171  10.439  12.928
61633W        W26860  13.949  21.479   3.570
61634W        W26861   8.796   0.701  12.407
61635W        W26862  33.639   9.713  11.219
61636W        W26863  36.046  41.720   0.932
61637W        W26864  23.658  23.280   4.129
61638W        W26865   0.549  12.323  13.748
61639W        W26866  19.975   9.737   1.464
61640W        W26867  18.655  22.894   2.279
61641W        W26868  39.408  30.417  14.405
61642W        W26869  27.728  38.026  12.915
61643W        W26870  16.692  20.578  11.753
61644W        W26871  39.515  35.620  11.752
61645W        W26872  25.260  32.064  11.551
61646W        W26873  37.465  17.315  10.740
61647W        W26874  10.758  32.572   0.364
61648W        W26875  14.575  18.387  12.782
61649W        W26876  17.357  14.965   3.859
61650W        W26877  29.669  29.092  11.874
61651W        W26878  10.247   1.859  13.032
61652W        W26879  34.557  40.586  14.284
61653W        W26880  11.814   9.689   3.177
61654W        W26881   0.809  27.303  14.728
61655W        W26882  40.912   5.956  14.389
61656W        W26883  13.021  18.735   1.796
61657W        W26884  22.928   3.400   2.188
61658W        W26885   7.820  34.481   1.441
61659W        W26886  41.107  18.797   2.342
61660W        W26887  23.901  29.960   4.856
61661W        W26888  32.115  33.971   2.192
61662W        W26889  22.663  21.120   0.286
61663W        W26890   6.670  16.919  10.707
61664W        W26891  30.031  43.301  14.806
61665W        W26892  23.418  23.360   0.955
61666W        W26893  25.522   7.710   4.536
61667W        W26894  31.532  36.078  12.869
61668W        W26895  17.366   9.761  13.744
61669W        W26896   8.201   4.909  12.348
61670W        W26897  40.101   9.703   2.718
61671W        W26898  30.483  28.551  11.174
61672W        W26899  35.957  39.851  12.163
61673W        W26900  39.303   2.443  12.930
61674W        W26901  14.403  19.657   0.114
61675W        W26902  44.912  22.204   3.147
61676W        W26903  19.956  32.219   0.283
61677W        W26904  19.800  28.909  10.882
61678W        W26905   3.635  21.051  13.758
61679W        W26906  35.516   6.436  14.501
61680W        W26907  20.012   1.371   2.821
61681W        W26908  12.598  14.880   2.799
61682W        W26909  37.317  40.347   1.055
61683W        W26910  40.171  35.930  14.541
61684W        W26911   2.877  41.066  10.376
61685W        W26912  40.445  16.684   3.792
61686W        W26913  38.661   2.336  10.534
61687W        W26914   1.522  29.212   4.057
61688W        W26915  28.078  14.300  11.114
61689W        W26916   4.397  14.728  12.519
61690W        W26917  35.781  37.125  13.940
61691W        W26918  35.000  18.999   2.515
61692W        W26919  30.162  23.396   2.087
61693W        W26920   4.665  24.683   4.839
61694W        W26921  10.983  18.373  12.853
61695W        W26922  40.068   9.293   4.532
61696W        W26923  25.228  42.407   0.219
61697W        W26924  26.855   8.330   1.405
61698W        W26925  39.373  29.864   1.246
61699W        W26926  26.077   1.011  14.067
61700W        W26927  25.030  11.431   1.060
61701W        W26928   7.953  10.619   0.995
61702W        W26929  12.940  38.407   3.223
61703W        W26930  12.858  20.757  10.526
61704W        W26931  20.578  18.695  12.453
61705W        W26932  22.248  19.872  14.356
61706W        W26933   2.250  44.792   2.710
61707W        W26934   1.268  24.624   4.547
61708W        W26935  29.025  35.621   2.246
61709W        W26936   7.424  14.181   4.520
61710W        W26937  25.588  40.591   1.912
61711W        W26938  19.517  40.768   4.156
61712W        W26939  15.709  34.729   1.861
61713W        W26940  13.244  12.732   2.845
61714W        W26941  39.494  17.873  12.523
61715W        W26942  28.066  20.481  11.475
61716W        W26943   1.759  41.442   4.031
61717W        W26944   8.927  44.172  11.523
61718W        W26945   4.685  30.559   3.779
61719W        W26946  13.915  20.321  13.863
61720W        W26947   6.820  32.560  12.463
61721W        W26948  15.645  44.495   0.986
61722W        W26949  33.003  31.980   1.155
61723W        W26950  39.075  44.377  13.396
61724W        W26951  17.806  21.618  11.491
61725W        W26952   9.521  37.878  12.700
61726W        W26953  37.043  40.770  10.618
61727W        W26954  39.103   7.696   3.166
61728W        W26955   5.470  30.807  14.869
61729W        W26956  29.809  34.289   2.001
61730W        W26957  12.650  22.456   2.626
61731W        W26958  10.750  40.345   4.505
61732W        W26959  12.268  15.927  10.164
61733W        W26960  30.510   5.626   0.726
61734W        W26961   2.981  35.970   4.921
61735W        W26962  33.173   4.821  11.438
61736W        W26963   7.773  38.476   1.355
61737W        W26964  26.225  37.232   0.369
61738W        W26965  40.469  36.462   0.348
61739W        W26966  40.358  26.732  11.649
61740W        W26967   3.778  38.629   4.134
61741W        W26968  42.324  43.674   4.341
61742W        W26969  18.370  40.757  14.261
61743W        W26970  19.744   8.656  11.515
61744W        W26971  36.021  24.475  14.932
61745W        W26972  18.514  22.496  10.785
61746W        W26973  12.584  38.922  14.840
61747W        W26974  18.196   0.050  11.644
61748W        W26975  21.727  36.917   1.974
61749W        W26976  31.650  35.885  12.387
61750W        W26977   0.327  14.213   2.269
61751W        W26978  21.873  12.277   3.300
61752W        W26979  34.662  44.121   1.308
61753W        W26980  12.819  39.669   3.938
61754W        W26981  19.521  43.025  10.684
61755W        W26982  38.840  12.314  12.047
61756W        W26983  30.688  35.431   5.109
61757W        W26984   5.543  13.657   4.466
61758W        W26985  22.487  31.636   1.273
61759W        W26986  41.108   8.865   3.394
61760W        W26987  36.963  37.374  10.392
61761W        W26988   3.287   2.210  14.387
61762W        W26989   7.261  18.418  13.277
61763W        W26990  18.021  20.683   2.945
61764W        W26991   5.054  41.361  12.136
61765W        W26992  36.868  39.392   4.670
61766W        W26993   2.974  34.489   0.954
61767W        W26994  35.527  13.045  14.405
61768W        W26995   3.488  17.704   4.209
61769W        W26996  42.322  10.295   3.743
61770W        W26997  10.592  12.177  14.931
61771W        W26998  16.103  14.578  12.880
61772W        W26999  29.479  28.261  10.302
61773W        W27000  26.611  38.710   4.409
61774W        W27001  21.130  40.323  12.806
61775W        W27002  35.010  15.131   2.336
61776W        W27003  30.335  41.496  13.471
61777W        W27004  37.840  21.178   3.548
61778W        W27005   8.594  32.762  13.584
61779W        W27006  42.332  29.538  14.467
61780W        W27007  12.892   0.275   1.329
61781W        W27008  42.149   7.991   2.009
61782W        W27009  43.747   9.134  14.292
61783W        W27010  29.850  35.722   2.553
61784W        W27011  15.611  41.431  10.771
61785W        W27012  27.028  38.994   4.504
61786W        W27013  16.423  13.622   0.045
61787W        W27014  17.014  32.072   0.909
61788W        W27015  41.332  38.577   1.881
61789W        W27016  42.830  26.060   4.431
61790W        W27017  32.362   9.438  14.876
61791W        W27018  16.277  15.686   3.336
61792W        W27019   3.821  36.984   0.324
61793W        W27020  22.164   1.092  12.375
61794W        W27021   2.460  10.076  13.658
61795W        W27022  43.556  16.084   4.229
61796W        W27023  22.633   4.213  14.246
61797W        W27024  12.393   8.320   1.008
61798W        W27025   2.096   9.253  13.263
61799W        W27026   7.101   6.297   4.168
61800W        W27027   4.211  10.836  12.554
61801W        W27028  30.953  41.631  14.845
61802W        W27029  25.718  26.739  14.120
61803W        W27030  34.736  10.230  14.467
61804W        W27031  19.593  43.272   0.196
61805W        W27032  42.195  30.892  12.135
61806W        W27033  38.550  41.362  14.373
61807W        W27034  10.625   0.577  13.500
61808W        W27035  24.703  14.301  12.411
61809W        W27036  30.651   3.491   4.907
61810W        W27037  38.849  15.611  11.578
61811W        W27038  26.723  44.561   1.412
61812W        W27039  14.829  26.437  13.504
61813W        W27040  10.237   5.468   4.831
61814W        W27041   0.933   2.046  11.549
61815W        W27042  18.864  10.850  11.586
61816W        W27043  14.257  22.521   3.094
61817W        W27044  20.119   5.031   0.822
61818W        W27045  19.202  27.234   2.304
61819W        W27046  41.748  36.929  14.480
61820W        W27047  32.174  12.555  12.663
61821W        W27048  39.518  29.585   0.762
61822W        W27049  34.400   7.341  10.801
61823W        W27050   7.888  42.019  11.137
61824W        W27051  33.899  20.210  11.317
61825W        W27052  11.276   5.329  13.909
61826W        W27053  26.303  38.187  13.896
61827W        W27054   8.820  10.933  11.458
61828W        W27055  23.059  17.614   1.490
61829W        W27056   8.771  31.050  11.431
61830W        W27057  37.805  17.797   0.741
61831W        W27058   1.483   6.876   1.326
61832W        W27059  33.843  17.171   0.743
61833W        W27060   7.143  38.833  12.996
61834W        W27061  32.131  19.014  13.529
61835W        W27062  24.662  28.841   0.451
61836W        W27063  13.720  29.412  13.484
61837W        W27064  17.695  15.241  11.141
61838W        W27065  11.870   5.013   2.565
61839W        W27066  43.950   2.880  13.603
61840W        W27067   6.351  21.479  12.905
61841W        W27068  36.537  28.587   2.298
61842W        W27069  24.841  13.288   3.553
61843W        W27070  43.091  24.155  13.059
61844W        W27071  20.126  19.461   0.909
61845W        W27072  25.705  42.218   0.352
61846W        W27073  18.197  39.396  13.844
61847W        W27074   4.816  34.047   3.331
61848W        W27075  38.421   4.350   4.093
61849W        W27076   3.818  30.813   1.689
61850W        W27077   9.284   3.725   1.258
61851W        W27078  31.971  37.809   0.993
61852W        W27079   6.704  15.185  13.412
61853W        W27080   9.191   9.078   0.912
61854W        W27081  32.855  31.935  10.659
61855W        W27082  37.856  25.459   4.005
61856W        W27083   3.458  23.707   1.870
61857W        W27084  34.921  37.796  11.138
61858W        W27085  36.290  24.126  10.742
61859W        W27086   9.543  39.603  11.638
61860W        W27087  21.180  14.734  14.735
61861W        W27088  26.048  29.502  11.918
61862W        W27089  22.379  10.310   1.397
61863W        W27090  17.167   2.820   2.957
61864W        W27091  11.753  42.201   1.000
61865W        W27092  23.564  12.886  12.481
61866W        W27093  27.629  28.376  12.436
61867W        W27094  36.497   9.276  13.553
61868W        W27095  18.550   1.788   4.848
61869W        W27096  31.930  33.059   1.368
61870W        W27097   6.069  34.385  11.050
61871W        W27098  27.930  23.566  13.424
61872W        W27099   9.541  41.097  12.081
61873W        W27100  42.466  12.258  12.462
61874W        W27101  31.391  43.839   4.755
61875W        W27102  10.288  34.286   2.410
61876W        W27103  44.325  39.251   4.932
61877W        W27104  33.611  11.913   2.626
61878W        W27105  18.209  15.724   3.301
61879W        W27106   9.779  18.243   3.824
61880W        W27107  26.802  31.139  14.415
61881W        W27108   6.967  28.515  14.585
61882W        W27109  17.545  43.954   4.215
61883W        W27110  42.849  26.974  13.207
61884W        W27111   5.953  34.823   0.309
61885W        W27112   8.567  13.365   2.944
61886W        W27113  23.884  33.927  14.482
61887W        W27114  18.606  35.005   2.661
61888W        W27115  15.555  13.191   4.979
61889W        W27116  31.840  44.502   1.676
61890W        W27117  22.695  17.287  10.641
61891W        W27118  38.014   4.636   2.754
61892W        W27119  26.599  32.821   0.353
61893W        W27120  29.024  15.578   4.055
61894W        W27121  35.764  26.749  12.065
61895W        W27122  39.095  32.845  11.886
61896W        W27123  35.309  34.981  12.964
61897W        W27124  10.343  33.520   1.290
61898W        W27125  15.931  36.942  13.858
61899W        W27126  16.778  18.057  12.590
61900W        W27127  27.516   9.895   1.612
61901W        W27128  43.720  43.127  12.714
61902W        W27129   2.484  29.370   3.192
61903W        W27130  21.253   1.255  14.491
61904W        W27131  19.751   5.678   0.043
61905W        W27132   0.813  42.280  12.379
61906W        W27133  12.410  32.127  11.679
61907W        W27134   4.863  25.140   0.836
61908W        W27135  44.688  29.455   0.434
61909W        W27136  30.714  24.267  12.423
61910W        W27137  28.116  22.026  12.387
61911W        W27138  13.851  25.296  14.536
61912W        W27139  16.757  33.063   2.099
61913W        W27140  17.396  14.544  11.588
61914W        W27141  37.379  44.191  12.386
61915W        W27142   2.878   4.451   2.282
61916W        W27143   7.204   5.078   2.705
61917W        W27144   5.354  24.738   3.817
61918W        W27145  21.186  28.709   2.293
61919W        W27146  23.290  20.707  10.581
61920W        W27147   0.061  17.893  12.427
61921W        W27148  30.500  10.535   4.503
61922W        W27149  35.051  11.247   1.392
61923W        W27150  34.129  28.426   4.185
61924W        W27151  17.470  26.323  12.866
61925W        W27152  22.112  43.419   3.853
61926W        W27153  32.809  12.586   0.091
61927W        W27154  15.089  23.657   3.352
61928W        W27155  24.133  36.495   1.718
61929W        W27156  12.784  38.466   2.705
61930W        W27157  22.592   4.599   3.146
61931W        W27158  33.877  11.221  13.014
61932W        W27159  36.134  31.541  14.463
61933W        W27160   6.182  20.527  11.723
61934W        W27161  30.555  32.560   0.552
61935W        W27162  14.651   8.878   4.192
61936W        W27163  15.627  36.895   3.166
61937W        W27164  24.722  31.682   4.575
61938W        W27165  43.290   1.980   4.546
61939W        W27166  35.048  43.303  10.583
61940W        W27167  18.738  15.702  10.457
61941W        W27168  34.086  17.775   1.821
61942W        W27169  39.294  18.950  10.828
61943W        W27170  12.343  19.482   4.074
61944W        W27171  11.350   5.914   3.385
61945W        W27172  26.663   6.250  12.927
61946W        W27173   4.742  42.192   2.321
61947W        W27174  19.166  12.754  12.071
61948W        W27175  24.925  24.361  11.419
61949W        W27176   5.156  37.363   1.839
61950W        W27177  35.196  37.171  13.274
61951W        W27178   6.513  37.423   0.472
61952W        W27179  42.711  22.794  14.261
61953W        W27180  43.176  15.060  14.131
61954W        W27181  16.995   4.168   3.819
61955W        W27182   5.757  12.563  13.042
61956W        W27183   7.630  39.273   3.163
61957W        W27184  21.175   0.017   2.836
61958W        W27185  27.604  28.777   5.936
61959W        W27186  33.130   4.381  12.160
61960W        W27187  38.044   2.304   1.573
61961W        W27188  40.742  22.090   4.571
61962W        W27189  23.537   0.257  13.773
61963W        W27190   8.112  31.506   3.880
61964W        W27191  11.826  38.589  10.544
61965W        W27192  15.341  40.261   3.686
61966W        W27193  17.822  39.336  12.436
61967W        W27194  30.637  25.323  12.497
61968W        W27195  18.627   8.238   2.891
61969W        W27196  35.341  23.884   3.328
61970W        W27197  34.653  29.325  13.489
61971W        W27198  38.844   3.421   5.313
61972W        W27199   1.502  30.213   1.780
61973W        W27200  26.612  30.004  14.688
61974W        W27201  11.648  36.591   4.483
61975W        W27202  36.614   3.415  14.820
61976W        W27203   4.915   0.788   3.180
61977W        W27204  41.107   7.772  11.957
61978W        W27205  12.739  41.230   1.791
61979W        W27206  34.601  26.745  13.626
61980W        W27207  30.624  42.774   1.911
61981W        W27208  26.687  23.245   2.247
61982W        W27209  32.606  22.712   2.692
61983W        W27210   7.867  17.017   4.031
61984W        W27211  35.328  27.549  14.062
61985W        W27212  12.973  29.714   1.140
61986W        W27213  37.481  32.607   1.307
61987W        W27214   6.761  26.939   0.938
61988W        W27215  20.181  23.144   4.139
61989W        W27216  36.945  11.323   2.899
61990W        W27217  18.754   2.156   2.829
61991W        W27218  12.830  37.886   3.188
61992W        W27219   7.695  40.211   1.991
61993W        W27220  35.495  25.693   1.175
61994W        W27221  33.402  26.599   2.236
61995W        W27222   7.267  11.571  12.751
61996W        W27223  21.556   9.665   4.328
61997W        W27224  44.064  15.561  11.101
61998W        W27225  29.125  23.086  13.384
61999W        W27226  37.040   0.330  14.907
62000W        W27227  43.813  13.824   0.729
62001W        W27228  35.550  15.346   0.862
62002W        W27229  38.543  31.035  11.595
62003W        W27230  43.278  18.547   1.678
62004W        W27231   9.403  40.874   0.455
62005W        W27232  22.399  11.872  11.222
62006W        W27233   7.283   2.724   4.207
62007W        W27234   2.794  26.586   2.830
62008W        W27235  23.305  41.468  11.189
62009W        W27236  17.034   6.769  13.341
62010W        W27237  42.220   0.662   0.379
62011W        W27238  43.178  32.526  10.719
62012W        W27239  39.947  33.550  14.198
62013W        W27240  28.841  35.548   0.763
62014W        W27241  31.491  34.505  11.844
62015W        W27242  37.777  28.623   2.762
62016W        W27243   5.141  36.575   4.115
62017W        W27244  35.032  37.037   4.551
62018W        W27245  27.555  38.131   2.934
62019W        W27246  28.045  10.148  10.286
62020W        W27247  19.491  23.234   2.329
62021W        W27248  33.639  21.220   0.842
62022W        W27249  12.505  21.294   0.373
62023W        W27250  14.662  13.309   4.736
62024W        W27251   1.359  36.606   2.119
62025W        W27252   5.704  13.312   3.692
62026W        W27253  37.152  21.458   4.053
62027W        W27254   7.975  36.350  11.566
62028W        W27255   1.240  24.937  13.675
62029W        W27256  23.762  39.512  12.457
62030W        W27257  33.963   8.071   4.937
62031W        W27258   0.211   9.786  10.562
62032W        W27259   8.374  28.406  14.559
62033W        W27260  22.955  23.230   1.202
62034W        W27261  22.255  40.803  12.858
62035W        W27262   0.091  25.648  11.788
62036W        W27263  35.003  16.316   1.694
62037W        W27264  31.017  28.686   0.267
62038W        W27265  26.569  13.539   4.595
62039W        W27266   2.384   8.783  10.731
62040W        W27267  27.583  25.240  12.090
62041W        W27268  26.136   3.219   1.365
62042W        W27269   3.812  34.379  13.973
62043W        W27270  27.657  32.622   2.873
62044W        W27271  34.926  19.328  12.634
62045W        W27272  29.262  40.474  11.931
62046W        W27273  19.147  19.200   4.674
62047W        W27274  38.902  29.047  12.419
62048W        W27275  24.867  31.131   0.761
62049W        W27276  44.173  26.959  12.239
62050W        W27277  25.863  40.895   4.859
62051W        W27278   5.408   6.903  12.358
62052W        W27279  41.344   2.184  12.653
62053W        W27280  18.755  32.963  11.544
62054W        W27281   2.665  32.996   4.714
62055W        W27282  27.006  37.666   0.824
62056W        W27283  36.463   2.922   2.515
62057W        W27284  43.826  11.818   4.177
62058W        W27285  21.727   8.275  14.775
62059W        W27286  29.331   8.734   5.045
62060W        W27287  33.946  12.212   2.881
62061W        W27288  23.641   9.581   1.777
62062W        W27289  12.827  33.320  11.882
62063W        W27290  41.904  24.124   1.071
62064W        W27291  21.185  15.574   0.312
62065W        W27292  29.373   6.528   4.181
62066W        W27293  14.436  21.148  11.328
62067W        W27294  31.917  43.886   3.066
62068W        W27295  17.271  17.367  12.200
62069W        W27296  40.866  32.571  13.312
62070W        W27297   5.358  23.618  14.841
62071W        W27298  44.501   1.335   4.578
62072W        W27299   6.753  38.741  11.637
62073W        W27300  23.229  43.827  10.446
62074W        W27301  27.629  18.103  11.499
62075W        W27302  22.595  35.872  11.587
62076W        W27303  28.776  23.827   4.380
62077W        W27304  22.685  37.361   0.054
62078W        W27305  22.906  21.057  10.458
62079W        W27306  40.234  14.105   0.961
62080W        W27307  13.289  17.266   5.038
62081W        W27308  18.859  34.474   1.764
62082W        W27309   7.812  18.935  10.250
62083W        W27310  41.938  26.404   0.900
62084W        W27311   4.894  27.173   9.971
62085W        W27312   8.642  33.479  10.691
62086W        W27313   8.515  14.082   5.368
62087W        W27314   7.043   3.142  13.681
62088W        W27315  30.738   6.352  13.399
62089W        W27316  39.303  15.353   3.735
62090W        W27317  15.266   4.300   0.683
62091W        W27318  41.594  44.712  14.371
62092W        W27319  21.462   7.750   1.670
62093W        W27320  18.033  21.117   2.353
62094W        W27321  34.545   5.895   1.351
62095W        W27322  13.317  12.463  14.861
62096W        W27323   2.354  23.910   4.856
62097W        W27324  26.193  31.338  11.658
62098W        W27325   6.690  38.965   4.625
62099W        W27326  43.323  38.883   1.238
62100W        W27327   6.944  42.791   3.208
62101W        W27328   6.003   4.367  13.645
62102W        W27329  42.427  24.240  14.836
62103W        W27330  37.563  40.358   1.892
62104W        W27331   2.051  32.607  12.484
62105W        W27332  43.490   6.814   9.718
62106W        W27333  35.970  11.116   2.710
62107W        W27334  13.698  34.029   0.160
62108W        W27335  35.551  26.570   2.759
62109W        W27336  39.826  29.648   3.486
62110W        W27337   4.573  31.417   3.410
62111W        W27338   3.173  11.588  11.149
62112W        W27339  34.907  22.488   0.469
62113W        W27340  36.119   6.944   4.120
62114W        W27341  23.578  23.776   1.213
62115W        W27342  22.783  34.988  11.638
62116W        W27343  29.638  44.234   2.792
62117W        W27344  14.187  10.369   1.338
62118W        W27345  42.813  20.924   1.984
62119W        W27346  18.594  23.116  13.760
62120W        W27347  18.551  31.002  10.650
62121W        W27348  35.768  10.042  10.252
62122W        W27349  18.614  28.169   0.825
62123W        W27350  23.386  26.064   3.587
62124W        W27351  44.343  29.586   1.486
62125W        W27352  39.829  44.697  11.574
62126W        W27353  41.331  30.821  12.622
62127W        W27354  13.851  44.481   0.478
62128W        W27355  33.593   8.762   1.801
62129W        W27356  29.953  41.070   3.649
62130W        W27357  27.557  36.900  14.903
62131W        W27358  11.489   8.704   2.751
62132W        W27359   0.658  12.822   2.771
62133W        W27360  19.321   2.250  14.283
62134W        W27361  12.638  15.697  13.829
62135W        W27362  14.604  17.524  13.841
62136W        W27363  36.918  35.442   2.236
62137W        W27364  23.134  44.175  10.807
62138W        W27365  33.679  34.703  10.793
62139W        W27366  42.570   3.249   0.738
62140W        W27367  27.743  20.696  12.453
62141W        W27368  37.321  15.937  10.329
62142W        W27369   2.681  17.260   2.307
62143W        W27370   3.558  20.143   4.269
62144W        W27371  13.205  43.962   1.930
62145W        W27372   9.187  10.387  13.912
62146W        W27373  35.111  36.433  11.975
62147W        W27374  38.200  31.730   3.241
62148W        W27375  12.679  33.329   0.530
62149W        W27376  22.012  37.077   3.692
62150W        W27377  41.056  42.268  11.093
62151W        W27378   5.577  24.311   2.732
62152W        W27379  41.230  16.001   1.137
62153W        W27380   5.844  29.106  13.851
62154W        W27381  39.584  38.593  12.579
62155W        W27382  10.852   6.658  11.557
62156W        W27383  14.166  32.567   0.860
62157W        W27384  15.688  10.817   0.165
62158W        W27385  20.818  33.074  11.092
62159W        W27386  21.648   7.190  11.753
62160W        W27387   4.746  31.661   1.672
62161W        W27388  21.990  11.349   0.399
62162W        W27389  27.678  12.559   3.699
62163W        W27390  38.792  14.647  14.459
62164W        W27391   4.682  22.639  14.435
62165W        W27392   8.965  19.034  13.439
62166W        W27393  36.566  29.478  13.025
62167W        W27394   9.850   2.750   1.734
62168W        W27395  44.331  35.431  12.475
62169W        W27396  15.601  33.395   1.866
62170W        W27397   7.791  26.424   4.960
62171W        W27398   5.200  19.047   3.471
62172W        W27399  30.926  24.969   0.917
62173W        W27400   9.288  12.185   0.153
62174W        W27401  33.647   6.713  14.392
62175W        W27402  23.420   1.397   3.163
62176W        W27403  26.570  28.370  10.358
62177W        W27404  16.339  16.095  12.374
62178W        W27405  14.847   1.035  14.139
62179W        W27406   2.670  42.619  13.478
62180W        W27407  35.925   2.011  11.687
62181W        W27408  12.204   9.366   1.191
62182W        W27409  27.720   0.940   0.020
62183W        W27410  21.933   0.578   3.204
62184W        W27411  15.526   4.282   4.311
62185W        W27412  19.854  35.871  13.012
62186W        W27413  19.598   5.410  13.388
62187W        W27414  29.071  18.187  12.176
62188W        W27415  28.924  12.448  10.311
62189W        W27416  13.782  19.572  14.265
62190W        W27417   9.599  21.892   4.087
62191W        W27418  30.580  30.037  12.220
62192W        W27419   3.338  26.192  12.150
62193W        W27420   1.075  44.354   3.157
62194W        W27421   3.356  16.325   4.535
62195W        W27422  21.171  40.688   0.069
62196W        W27423  23.121  17.265   1.883
62197W        W27424  31.749  39.979   4.985
62198W        W27425  39.507  20.699   1.313
62199W        W27426  19.530  27.100  12.661
62200W        W27427  22.719   7.004   2.451
62201W        W27428  35.103  11.836   3.323
62202W        W27429   9.003   8.571  13.924
62203W        W27430  12.154  26.463   1.005
62204W        W27431  25.094   9.371   0.836
62205W        W27432  30.704  27.443   1.137
62206W        W27433   6.071  21.076   2.689
62207W        W27434  13.733  25.397   2.340
62208W        W27435   8.394  24.453  12.045
62209W        W27436  23.999  14.593   1.690
62210W        W27437   9.733  21.021   3.374
62211W        W27438   4.020   2.773   2.241
62212W        W27439  33.112  42.757  10.713
62213W        W27440  16.848  16.138   2.492
62214W        W27441  25.445  26.821   2.758
62215W        W27442  44.335  32.219   1.017
62216W        W27443   1.473  34.978   0.145
62217W        W27444  34.668   7.864   1.310
62218W        W27445   8.703  28.172  11.135
62219W        W27446  10.695  29.454   4.558
62220W        W27447   3.418   7.916  11.421
62221W        W27448   4.237   7.763   2.411
62222W        W27449  23.320  25.487   3.192
62223W        W27450  15.500  42.339  14.283
62224W        W27451  34.492  13.611   0.938
62225W        W27452   9.652   0.806   2.355
62226W        W27453  10.394  34.444  13.418
62227W        W27454   0.493  32.387  14.896
62228W        W27455  26.505  22.015   4.121
62229W        W27456  11.168  37.187  13.593
62230W        W27457   4.296   1.301  13.154
62231W        W27458  29.087  37.550   3.016
62232W        W27459  32.395  25.530  11.174
62233W        W27460  26.098  31.001   4.368
62234W        W27461  24.316  18.082  10.317
62235W        W27462  17.767  40.961   0.829
62236W        W27463  28.168  29.882   0.389
62237W        W27464  43.069  43.766   0.930
62238W        W27465  17.588   8.362   4.602
62239W        W27466  40.398  41.814  10.568
62240W        W27467  18.624  44.689  11.577
62241W        W27468  17.693  42.473  11.041
62242W        W27469  34.452  10.980  14.413
62243W        W27470  42.468  23.588   1.316
62244W        W27471   9.974  23.498   0.976
62245W        W27472   3.084   8.783   1.216
62246W        W27473  33.995   1.531  11.546
62247W        W27474  24.284   5.819   0.833
62248W        W27475  37.356  23.988  11.561
62249W        W27476   1.490  15.067   0.412
62250W        W27477   4.413  20.191  13.448
62251W        W27478  11.617  42.806  12.645
62252W        W27479  28.110  43.294   4.255
62253W        W27480   0.800  40.302  13.084
62254W        W27481  31.963  39.801  10.907
62255W        W27482   1.921   9.144   1.318
62256W        W27483  33.104  10.549  14.451
62257W        W27484   0.393  27.472   2.283
62258W        W27485  20.515   2.710   0.817
62259W        W27486  37.537   6.205   1.323
62260W        W27487  31.040  31.752  12.529
62261W        W27488  35.113   1.449  12.940
62262W        W27489  13.064   8.936   0.803
62263W        W27490   9.350  41.990   2.727
62264W        W27491  20.177  19.151  11.257
62265W        W27492  41.476  21.978   1.751
62266W        W27493  43.529  22.284  13.481
62267W        W27494  39.837  27.784   3.594
62268W        W27495   8.660  20.046   2.308
62269W        W27496   6.930  12.484  10.746
62270W        W27497  42.780  20.840  13.186
62271W        W27498  26.811   9.633  13.530
62272W        W27499  29.005  26.659   4.020
62273W        W27500  25.861  23.573   1.865
62274W        W27501  12.291  14.973   5.191
62275W        W27502  40.479  42.277   3.308
62276W        W27503   6.261   1.883  12.854
62277W        W27504   7.122  33.410   4.582
62278W        W27505   1.350   0.343  13.234
62279W        W27506  12.253  44.332  14.973
62280W        W27507  33.068  17.690   1.805
62281W        W27508   0.255   8.166  14.356
62282W        W27509  36.780   5.256  12.871
62283W        W27510  42.316  15.336  12.156
62284W        W27511   5.414   0.863   0.899
62285W        W27512  12.754  23.903   3.105
62286W        W27513  29.313  14.782   3.858
62287W        W27514  16.774  26.255   0.359
62288W        W27515  22.512  43.003   4.516
62289W        W27516  26.203   2.280  14.442
62290W        W27517  11.217   0.841  12.468
62291W        W27518  28.241  28.691   2.727
62292W        W27519   3.316  36.058   4.524
62293W        W27520  11.912  33.984  11.277
62294W        W27521  13.012  32.250   2.778
62295W        W27522  39.999  38.951   3.095
62296W        W27523  17.630  20.240   4.168
62297W        W27524  38.502  39.812   4.119
62298W        W27525  43.370   1.845  11.167
62299W        W27526  15.961  36.822   3.644
62300W        W27527   0.036  34.945  10.304
62301W        W27528  14.986   1.851  13.371
62302W        W27529  34.967   8.248  13.804
62303W        W27530  15.323   4.848  12.380
62304W        W27531  24.766  31.931  13.477
62305W        W27532  10.683  16.062  13.492
62306W        W27533   8.863  14.367   3.177
62307W        W27534  33.678  35.119   0.102
62308W        W27535  13.270  32.129   0.453
62309W        W27536  18.199  19.167   0.249
62310W        W27537  16.167  27.870  12.933
62311W        W27538  17.079  31.927  12.197
62312W        W27539  13.199  43.865   3.432
62313W        W27540  26.156   4.384   2.371
62314W        W27541  38.085  32.819   1.754
62315W        W27542   0.852  12.882   4.234
62316W        W27543  37.364  39.109   3.133
62317W        W27544  35.648  31.891  14.957
62318W        W27545   8.704   8.071  11.685
62319W        W27546  43.315  28.582   0.459
62320W        W27547  27.440  15.138   9.823
62321W        W27548   2.822  17.987  12.189
62322W        W27549  34.438  28.520  11.591
62323W        W27550  42.036  26.002  10.887
62324W        W27551   2.775   3.522   1.823
62325W        W27552   3.439  27.589  11.535
62326W        W27553   8.707   7.999   4.774
62327W        W27554   6.865   5.613  11.100
62328W        W27555   8.141  10.831  10.891
62329W        W27556  13.226  10.458  11.163
62330W        W27557  14.162   0.342   4.350
62331W        W27558  10.907  20.730   0.686
62332W        W27559  42.755  14.371  13.337
62333W        W27560   5.818   4.181   1.760
62334W        W27561  12.877  30.919   4.326
62335W        W27562   5.704  30.552  12.819
62336W        W27563  34.034  14.722  13.080
62337W        W27564  17.816  29.233   1.353
62338W        W27565  24.477  27.563   1.770
62339W        W27566  43.644   9.222  11.104
62340W        W27567  35.014  21.695   0.720
62341W        W27568  22.222   7.225  12.975
62342W        W27569  23.187  18.798  13.265
62343W        W27570   0.557  39.608  11.121
62344W        W27571   2.723  41.542   2.690
62345W        W27572  35.893  18.522   2.271
62346W        W27573  15.517   0.565   4.975
62347W        W27574  37.429   0.091  14.656
62348W        W27575  20.984  15.286  14.005
62349W        W27576  31.066  37.370   3.214
62350W        W27577  13.053   6.482  12.895
62351W        W27578  14.714  12.053  11.210
62352W        W27579  25.641  19.030  12.996
62353W        W27580  26.548  36.997  11.279
62354W        W27581  13.552  12.119  10.560
62355W        W27582  15.585   9.823   0.710
62356W        W27583  27.984  27.061   3.611
62357W        W27584  39.546  13.957   2.757
62358W        W27585  29.027   7.120   4.135
62359W        W27586  23.323  32.884   0.355
62360W        W27587   8.030  31.021   3.667
62361W        W27588  13.753  37.415  12.429
62362W        W27589  30.311  44.376   0.840
62363W        W27590  11.439  35.654  12.127
62364W        W27591   8.651   3.357  11.920
62365W        W27592  42.013   2.672  11.551
62366W        W27593  29.504  17.464  14.299
62367W        W27594  14.634  37.562  13.362
62368W        W27595  29.769  36.755  12.416
62369W        W27596  13.102  29.474  10.059
62370W        W27597  30.097  11.375  10.359
62371W        W27598  10.279   9.924   1.242
62372W        W27599  17.325  38.494   0.688
62373W        W27600   3.330  35.279   4.923
62374W        W27601  11.668  23.174   1.134
62375W        W27602  43.490  20.160  13.561
62376W        W27603   4.096  40.493   3.210
62377W        W27604   8.327  12.675  14.149
62378W        W27605  14.125  22.754   1.623
62379W        W27606  10.199   8.067   1.167
62380W        W27607  41.624  14.566   2.654
62381W        W27608   1.896  14.550  13.419
62382W        W27609  12.342  37.320   4.343
62383W        W27610  24.545   3.999   5.057
62384W        W27611   5.731  44.359  14.779
62385W        W27612  42.547  12.093  13.477
62386W        W27613  13.592   5.983   3.173
62387W        W27614  34.766  44.881  14.807
62388W        W27615  39.466   0.272  12.883
62389W        W27616  22.166  20.247   0.588
62390W        W27617  30.448  24.905   4.524
62391W        W27618  28.909  26.025   3.409
62392W        W27619  28.919  39.776  14.847
62393W        W27620  17.722  36.384   3.063
62394W        W27621   0.488  40.135  11.112
62395W        W27622  14.786  39.708  11.492
62396W        W27623   3.471  39.569   0.721
62397W        W27624  39.919   5.118  14.221
62398W        W27625  25.207  32.346   1.916
62399W        W27626  38.086  40.370   0.194
62400W        W27627   6.851  34.890  14.331
62401W        W27628  42.296  28.048   0.769
62402W        W27629  12.115  10.340   2.206
62403W        W27630   2.015  16.772  10.786
62404W        W27631   0.402   4.445   4.129
62405W        W27632  37.404  37.896   2.609
62406W        W27633  26.355   6.629  12.815
62407W        W27634  24.748  26.234   3.997
62408W        W27635  43.609  27.485   3.717
62409W        W27636   1.225  25.958   4.077
62410W        W27637  15.587  23.069   0.954
62411W        W27638   8.901  16.359  13.071
62412W        W27639   5.193   9.884  14.490
62413W        W27640  18.268   6.782   2.247
62414W        W27641  38.597  32.938   1.691
62415W        W27642  39.494  40.081  13.139
62416W        W27643  37.446  35.180  11.233
62417W        W27644  35.835   7.859   2.778
62418W        W27645   2.911   7.599   3.810
62419W        W27646  16.056  21.659  13.879
62420W        W27647  42.503   9.951  12.380
62421W        W27648  38.394  30.149   1.214
62422W        W27649  32.648   5.270  13.406
62423W        W27650  20.621  18.564   0.489
62424W        W27651   1.388  21.058  11.437
62425W        W27652  21.547  24.986  13.953
62426W        W27653   7.244  16.681   3.691
62427W        W27654  26.140  17.303  13.669
62428W        W27655  40.466  44.693   0.687
62429W        W27656  44.131   9.124   0.586
62430W        W27657  44.019  14.341  14.354
62431W        W27658   0.544  11.162  14.783
62432W        W27659  13.002  15.811   2.777
62433W        W27660  27.936   0.330   4.320
62434W        W27661  23.070  30.539   3.691
62435W        W27662  37.164   3.365   3.079
62436W        W27663   6.876  10.276  10.969
62437W        W27664  25.122  41.284  11.251
62438W        W27665   5.407  15.356   0.453
62439W        W27666  23.541  30.630   0.989
62440W        W27667  19.298  28.912  12.641
62441W        W27668   9.244  38.318   3.613
62442W        W27669  35.472   0.188   4.193
62443W        W27670  34.283  16.689   4.328
62444W        W27671   3.165  20.665  13.200
62445W        W27672  12.276  43.334  14.808
62446W        W27673  17.716  28.945  10.995
62447W        W27674   9.363   6.857  13.379
62448W        W27675  38.365  32.053   0.276
62449W        W27676  10.637  40.019  14.382
62450W        W27677  21.582  39.728  13.976
62451W        W27678  11.830   1.284   2.688
62452W        W27679  20.302  29.361   4.176
62453W        W27680  18.186  38.989   1.839
62454W        W27681  23.682  25.656  12.677
62455W        W27682   4.652  30.854  12.382
62456W        W27683  14.045   7.208  11.204
62457W        W27684  30.642  41.652  14.324
62458W        W27685   6.386   3.255   1.885
62459W        W27686  27.535  35.064   2.964
62460W        W27687  25.606  12.350  10.753
62461W        W27688  17.706  36.437  10.668
62462W        W27689  34.377  37.277   2.165
62463W        W27690   2.730   0.511   2.207
62464W        W27691  13.325  20.782   9.874
62465W        W27692  11.083  28.267   2.743
62466W        W27693  10.540   7.703  12.080
62467W        W27694  44.207   2.205  13.346
62468W        W27695  16.884  12.615   0.874
62469W        W27696  17.316  42.506  10.701
62470W        W27697  29.960  39.387  10.986
62471W        W27698  27.083   4.175  11.200
62472W        W27699  15.259  19.056  13.044
62473W        W27700  36.535   5.777   1.259
62474W        W27701  41.241  26.710  14.527
62475W        W27702   2.890  21.244  11.124
62476W        W27703  19.162   8.889   2.305
62477W        W27704  32.871  30.186  11.512
62478W        W27705  31.705  44.839  11.638
62479W        W27706  37.411  25.938  11.902
62480W        W27707  11.554  27.378   1.428
62481W        W27708  19.748  10.269  10.940
62482W        W27709  12.312  42.322  14.719
62483W        W27710  11.803  20.368  14.292
62484W        W27711  11.278   9.409   1.077
62485W        W27712   7.548  44.205  12.577
62486W        W27713  17.126  23.173   4.780
62487W        W27714  37.610  17.884   4.152
62488W        W27715   9.883   8.698  13.446
62489W        W27716  34.727  43.635  10.881
62490W        W27717  14.254  43.870  10.626
62491W        W27718  24.494  41.890  13.456
62492W        W27719  21.726  36.721  12.802
62493W        W27720  11.955   2.021   2.418
62494W        W27721   4.861   9.800  13.116
62495W        W27722  37.058  42.272   2.328
62496W        W27723  28.264  37.087   0.670
62497W        W27724   5.499   3.963   3.094
62498W        W27725   4.324  42.416   1.831
62499W        W27726  36.096   0.011  10.752
62500W        W27727  31.860   1.293  12.767
62501W        W27728  10.208  44.716   3.152
62502W        W27729   0.405  28.969  12.541
62503W        W27730  12.990  23.452  12.153
62504W        W27731  23.897   5.071  14.282
62505W        W27732   3.978   2.745   9.837
62506W        W27733  39.480  20.554   0.438
62507W        W27734  20.101  18.078  10.432
62508W        W27735  34.537  44.678   4.260
62509W        W27736  32.686   1.096  12.948
62510W        W27737  16.205  25.488  14.322
62511W        W27738  42.527  20.388   0.895
62512W        W27739  32.067  17.431   5.518
62513W        W27740   3.315  29.829  12.387
62514W        W27741  30.619   0.446  11.264
62515W        W27742   8.906  25.008   0.503
62516W        W27743  34.377  36.585  14.056
62517W        W27744  38.219  18.331   2.741
62518W        W27745  33.423   4.784  10.648
62519W        W27746  12.687   7.809   1.865
62520W        W27747  18.989  17.944   3.869
62521W        W27748  42.122  40.551   0.864
62522W        W27749  11.549  36.441  11.008
62523W        W27750  15.784  26.955   4.866
62524W        W27751  34.932  14.099   3.409
62525W        W27752  40.830  42.690   3.369
62526W        W27753   4.517  27.301  10.331
62527W        W27754   5.228  16.352   3.753
62528W        W27755  12.781  30.039  13.822
62529W        W27756  33.196  12.324  14.840
62530W        W27757  28.336  30.123   5.121
62531W        W27758  27.929  14.843   1.654
62532W        W27759  16.426  37.043   1.481
62533W        W27760  28.628   7.440  14.594
62534W        W27761  20.772  17.189  13.388
62535W        W27762  38.866  40.199   3.383
62536W        W27763  39.963  13.378   3.072
62537W        W27764  16.322   4.160  11.157
62538W        W27765  25.855   0.981  14.808
62539W        W27766  20.533  40.507   1.426
62540W        W27767  28.202  28.159  14.434
62541W        W27768  31.392   0.718   2.655
62542W        W27769   5.203   9.231   0.671
62543W        W27770  34.778  17.681   3.695
62544W        W27771  15.661  44.274   3.748
62545W        W27772  34.955  38.324   1.920
62546W        W27773  35.133  34.357   2.149
62547W        W27774  38.923  19.467   3.176
62548W        W27775  31.272   6.347  12.544
62549W        W27776   6.793  34.531   0.796
62550W        W27777  21.931  35.350  11.676
62551W        W27778   0.731  10.824  11.152
62552W        W27779   5.748  23.125   4.689
62553W        W27780  27.528  13.670  14.934
62554W        W27781  17.824  28.629   2.885
62555W        W27782   8.969  41.477  11.379
62556W        W27783  39.609   8.419   4.505
62557W        W27784  25.249  38.803   0.256
62558W        W27785  30.793  44.958   3.094
62559W        W27786  10.303  36.881  12.522
62560W        W27787  14.596   0.709   2.230
62561W        W27788  36.088  14.773   1.825
62562W        W27789  25.917  39.838   1.129
62563W        W27790  29.431  18.598   3.137
62564W        W27791  42.365  42.467  10.755
62565W        W27792  12.866   8.307  11.922
62566W        W27793  26.053  32.878  13.457
62567W        W27794   7.647  21.163   0.024
62568W        W27795  21.827   3.269   3.579
62569W        W27796  43.787  34.598   0.865
62570W        W27797  15.518  21.245   3.179
62571W        W27798  34.476  24.904   0.488
62572W        W27799  40.035  27.523   2.247
62573W        W27800   8.866   9.195   1.310
62574W        W27801   3.346  14.548   2.892
62575W        W27802  35.657  15.618   1.295
62576W        W27803  38.820  17.698   0.251
62577W        W27804   3.402  14.874   0.155
62578W        W27805   8.419  16.602  13.040
62579W        W27806  24.171   9.175   1.415
62580W        W27807  24.090  33.482  14.316
62581W        W27808   0.132  29.050   4.428
62582W        W27809  19.138  19.186  14.754
62583W        W27810  33.017  38.290  14.665
62584W        W27811   5.783  40.546  11.932
62585W        W27812   2.804  33.451  14.982
62586W        W27813  43.323   6.826  13.391
62587W        W27814   5.230  25.064   2.216
62588W        W27815  37.606  40.859  10.966
62589W        W27816  10.182   8.113  13.750
62590W        W27817  20.397   1.035  11.564
62591W        W27818  41.830  25.441  11.602
62592W        W27819  20.539  23.129  12.655
62593W        W27820  43.679  15.869  13.948
62594W        W27821  44.337   9.259  12.844
62595W        W27822  43.229   8.282   1.276
62596W        W27823   5.134   5.008   3.276
62597W        W27824  39.287  10.614  11.592
62598W        W27825  40.785  19.580   0.925
62599W        W27826  14.656  39.034  12.244
62600W        W27827   1.354  24.067   1.028
62601W        W27828  35.917  35.428   1.386
62602W        W27829   6.664  32.245   3.231
62603W        W27830  26.591  35.379   2.235
62604W        W27831  23.530  44.212  13.620
62605W        W27832  10.471   1.184   3.928
62606W        W27833   5.111  34.843  11.029
62607W        W27834  21.916  14.223   2.187
62608W        W27835  28.003  37.191   0.223
62609W        W27836  40.001  16.173  11.978
62610W        W27837   3.714  36.041  11.264
62611W        W27838  30.656   0.668   4.520
62612W        W27839  43.945  18.138   3.101
62613W        W27840  26.113  28.395  12.881
62614W        W27841  29.687  10.833   3.953
62615W        W27842  18.087  16.883  12.513
62616W        W27843  44.366  27.448   2.184
62617W        W27844  28.698  23.084  10.789
62618W        W27845  42.399  20.238  14.934
62619W        W27846  35.472   5.799  11.720
62620W        W27847   1.172  21.877   2.709
62621W        W27848  11.906  30.592  11.169
62622W        W27849  24.096   9.354   1.891
62623W        W27850  29.683   8.152  13.059
62624W        W27851  13.311  29.214   4.461
62625W        W27852  23.508  32.612  13.543
62626W        W27853  11.090  24.542   4.513
62627W        W27854   3.181  18.654   0.837
62628W        W27855   0.642   9.332  11.261
62629W        W27856  39.552   1.432  10.483
62630W        W27857  28.618   3.906   3.144
62631W        W27858  16.369  17.378  11.228
62632W        W27859  21.932   3.827  13.850
62633W        W27860  36.956   6.182  13.421
62634W        W27861  39.830  14.018   2.286
62635W        W27862  11.996  38.333  12.009
62636W        W27863   2.076   6.488   4.920
62637W        W27864  38.273  21.524  10.565
62638W        W27865   9.938  24.011   0.997
62639W        W27866  12.185   0.727   4.750
62640W        W27867  21.286  41.289  11.997
62641W        W27868  43.194  18.560   9.814
62642W        W27869  29.867  19.788   3.122
62643W        W27870  25.405   6.114  12.845
62644W        W27871  27.322   5.450  11.936
62645W        W27872  40.094   9.332   4.001
62646W        W27873  12.844  42.375   3.218
62647W        W27874  43.498  42.992   1.269
62648W        W27875   5.768  30.525   3.338
62649W        W27876  44.689   8.355   2.192
62650W        W27877  16.931   7.908  13.953
62651W        W27878  32.944  11.966   2.293
62652W        W27879   2.962  36.442  10.312
62653W        W27880  22.263  13.154  13.954
62654W        W27881  19.250  36.432  13.822
62655W        W27882  24.952  22.702   3.884
62656W        W27883  20.772  33.046  14.268
62657W        W27884  13.654  10.794   2.617
62658W        W27885  22.448  38.102   4.513
62659W        W27886  35.406  24.473  11.256
62660W        W27887  35.220  17.870  11.787
62661W        W27888  21.080  34.842   3.183
62662W        W27889  29.006  30.598  12.751
62663W        W27890  21.998  31.343  11.966
62664W        W27891  28.261  15.190   1.941
62665W        W27892  14.589  42.824  12.235
62666W        W27893  31.159  15.422   1.787
62667W        W27894  25.255   8.699  13.787
62668W        W27895   1.803   6.217  12.449
62669W        W27896  37.412  27.357   4.246
62670W        W27897  26.457  29.945   2.421
62671W        W27898   2.530  23.664  10.638
62672W        W27899  44.415  21.725  11.315
62673W        W27900   0.992  43.131   0.019
62674W        W27901   5.936  15.234   5.354
62675W        W27902  25.885  38.511   0.943
62676W        W27903  28.407  44.881  14.956
62677W        W27904  42.287  23.142   3.612
62678W        W27905   0.118   3.465   4.032
62679W        W27906  21.035  32.400  12.946
62680W        W27907   1.383  19.212  13.426
62681W        W27908  44.005   9.333   2.420
62682W        W27909   4.852  39.463   0.322
62683W        W27910  44.358  22.292   9.973
62684W        W27911  22.577  30.220   1.247
62685W        W27912  14.352  29.849   0.834
62686W        W27913  13.598  18.561  11.948
62687W        W27914   3.473   4.845   4.606
62688W        W27915  32.058   5.456  14.031
62689W        W27916  12.524  23.856   0.287
62690W        W27917  14.759  28.020  14.367
62691W        W27918  37.546  18.661  14.387
62692W        W27919  44.612  44.865   3.560
62693W        W27920  38.342  26.291  10.384
62694W        W27921   9.187  27.320   4.699
62695W        W27922  24.054  28.925  12.190
62696W        W27923  37.845  24.600   2.865
62697W        W27924   2.150  15.189  12.454
62698W        W27925   3.474  36.585   2.822
62699W        W27926  21.504  15.264  12.141
62700W        W27927  14.450  35.834   3.782
62701W        W27928  31.232  10.756   2.335
62702W        W27929   5.685   9.098   4.769
62703W        W27930  25.067  43.397  11.959
62704W        W27931   3.749  39.866   2.245
62705W        W27932  35.844  31.084   2.784
62706W        W27933  36.627  11.827  10.830
62707W        W27934  23.593  44.129   9.683
62708W        W27935  22.602  21.520  10.648
62709W        W27936  38.563  12.852  12.552
62710W        W27937  38.237  19.076   4.285
62711W        W27938  20.060  33.415   3.927
62712W        W27939  39.523  26.887   3.720
62713W        W27940  39.299   3.295   3.922
62714W        W27941  40.094  43.850  14.889
62715W        W27942  38.816  14.401   4.179
62716W        W27943  20.195   8.616   3.865
62717W        W27944   0.857  28.610  11.246
62718W        W27945   0.173   7.695   2.774
62719W        W27946  36.506  28.261   0.853
62720W        W27947  34.402   0.251  14.833
62721W        W27948   8.161  41.112  14.344
62722W        W27949  26.267  18.706  14.941
62723W        W27950  40.867  36.826   0.468
62724W        W27951   2.269  13.311  12.052
62725W        W27952  20.771  43.541   2.856
62726W        W27953  35.465  31.247   1.990
62727W        W27954  12.220   0.371  14.995
62728W        W27955  38.239   9.440  14.903
62729W        W27956  39.306   1.434   3.632
62730W        W27957  21.283  30.164   1.802
62731W        W27958   1.833   0.405   0.244
62732W        W27959   6.764  34.358   4.097
62733W        W27960   8.108  29.667   4.324
62734W        W27961  18.768  33.800   3.801
62735W        W27962  41.914  37.536   1.587
62736W        W27963  40.655  19.336   1.886
62737W        W27964  12.850  33.645  12.272
62738W        W27965   1.024  11.303  12.917
62739W        W27966  12.238  37.928   1.815
62740W        W27967   3.469  33.019   3.583
62741W        W27968   6.472  36.405  15.000
62742W        W27969  40.338  10.898   1.426
62743W        W27970  43.889   3.089   4.147
62744W        W27971  29.352  44.607   5.173
62745W        W27972  33.788  33.455   2.076
62746W        W27973  42.951  13.314   2.278
62747W        W27974  43.987  19.421   0.938
62748W        W27975  11.810  23.581  11.541
62749W        W27976  31.915  42.453   2.167
62750W        W27977  32.651  26.999   2.762
62751W        W27978  29.779  17.154  12.422
62752W        W27979  22.938  14.647  11.792
62753W        W27980  17.352  16.953  11.870
62754W        W27981  41.332  35.405   4.137
62755W        W27982   7.706  30.815  12.135
62756W        W27983   6.169   5.860   4.139
62757W        W27984  18.292  35.943  11.146
62758W        W27985  36.649  44.067  13.438
62759W        W27986  34.533   9.138   1.754
62760W        W27987  33.359  20.729  12.979
62761W        W27988  18.788  38.059  14.834
62762W        W27989  10.397  25.630  14.080
62763W        W27990   2.033  34.010  11.603
62764W        W27991  31.117   6.133  14.514
62765W        W27992  21.997  40.267   4.855
62766W        W27993  15.603  37.300  14.390
62767W        W27994   6.246   9.139   2.945
62768W        W27995  30.950   0.221  14.415
62769W        W27996  27.064   3.707  10.988
62770W        W27997   7.823   7.271  11.890
62771W        W27998  11.882  11.179  13.378
62772W        W27999  31.139  28.716  11.957
62773W        W28000  30.150  18.465   3.724
62774W        W28001  20.561  44.040   0.910
62775W        W28002  40.925  24.101   2.193
62776W        W28003  24.394  28.535   2.684
62777W        W28004   1.213  24.894   0.337
62778W        W28005   0.718  25.327   3.167
62779W        W28006  40.317  17.160  11.905
62780W        W28007  13.654  34.094   3.236
62781W        W28008  36.996  40.360  13.044
62782W        W28009  17.833  21.155   2.843
62783W        W28010  34.219  38.343  11.074
62784W        W28011   8.280  28.188  13.823
62785W        W28012  33.178  20.274  11.669
62786W        W28013  28.609   0.975  12.651
62787W        W28014   3.222  14.287   4.110
62788W        W28015  19.588   5.711   1.849
62789W        W28016  36.638  24.882   1.987
62790W        W28017  42.738  44.195  12.389
62791W        W28018  44.790  37.332   3.602
62792W        W28019   7.707  41.738   2.382
62793W        W28020   8.091   8.736  11.601
62794W        W28021  33.073  39.041  11.623
62795W        W28022  12.330  13.849   0.261
62796W        W28023  22.485   7.934   2.931
62797W        W28024  12.370  43.973   2.836
62798W        W28025  36.288  24.127  12.381
62799W        W28026  43.331  19.849  12.270
62800W        W28027  31.729  42.633   4.039
62801W        W28028  13.441  40.924   4.505
62802W        W28029  33.530  27.945  11.601
62803W        W28030   1.969  36.651  14.532
62804W        W28031  36.330   2.291   4.296
62805W        W28032  34.542  37.423  12.497
62806W        W28033  43.799  24.425   2.666
62807W        W28034  27.900  39.361   3.616
62808W        W28035  43.602  18.249   4.898
62809W        W28036  19.791  29.349  14.003
62810W        W28037  20.927   3.939  14.109
62811W        W28038  32.194   0.800  10.687
62812W        W28039  14.274  11.368   4.474
62813W        W28040   4.007  17.672   4.198
62814W        W28041   4.032  33.330  14.903
62815W        W28042  23.991  37.473   1.820
62816W        W28043   3.453  27.978   1.125
62817W        W28044  34.888  14.632  11.088
62818W        W28045  24.776   5.108  14.308
62819W        W28046  22.985  43.849   3.430
62820W        W28047  34.104  21.602  14.452
62821W        W28048  16.183  25.791  14.741
62822W        W28049   0.024  19.566   3.158
62823W        W28050  42.050  16.302  13.108
62824W        W28051  19.170  19.279   3.083
62825W        W28052  16.141   1.384   1.475
62826W        W28053   9.603  15.248  13.426
62827W        W28054  12.820  18.140   1.248
62828W        W28055   3.331  37.324   4.109
62829W        W28056  38.358   8.970   0.717
62830W        W28057  44.565  34.387   3.353
62831W        W28058   1.107  22.216  14.864
62832W        W28059  44.309  36.897   0.414
62833W        W28060  43.764   5.373   2.238
62834W        W28061  37.542  30.895  10.797
62835W        W28062  23.433  38.130   1.696
62836W        W28063  25.039  23.226  12.554
62837W        W28064  42.396  36.435  13.293
62838W        W28065  44.820   0.337  13.389
62839W        W28066  20.002  36.520  13.384
62840W        W28067  28.241  25.132   0.419
62841W        W28068  21.312  38.994   3.184
62842W        W28069  37.513  42.868   0.992
62843W        W28070  26.332  31.074  13.062
62844W        W28071  11.624  28.777  13.834
62845W        W28072  28.847  16.186  14.565
62846W        W28073  36.523  33.431   3.780
62847W        W28074  12.144  16.635  14.224
62848W        W28075  14.338  25.230  14.403
62849W        W28076  31.998  21.053  13.044
62850W        W28077  17.142   3.827  14.962
62851W        W28078  33.087  29.693  13.443
62852W        W28079  34.023  18.171   3.715
62853W        W28080  15.107  28.961   3.388
62854W        W28081   2.545  23.397  13.159
62855W        W28082  31.414  22.456   3.154
62856W        W28083  15.596  35.355   4.460
62857W        W28084   6.410   6.010   0.651
62858W        W28085   5.695  14.199   2.719
62859W        W28086  19.542  17.093  14.011
62860W        W28087  11.829   3.690   0.859
62861W        W28088  33.202  28.501   3.153
62862W        W28089  41.377  12.655  14.343
62863W        W28090  10.420  22.172  10.023
62864W        W28091  13.364  14.705  13.279
62865W        W28092   9.258  11.416   3.153
62866W        W28093  15.391  27.050   0.779
62867W        W28094  18.663  11.766   4.723
62868W        W28095  29.782  30.031   0.449
62869W        W28096  43.617  23.695   4.658
62870W        W28097   4.468   2.194   4.171
62871W        W28098  23.185   3.529  10.876
62872W        W28099   7.454  40.180   3.347
62873W        W28100   0.246   6.278   1.433
62874W        W28101  26.168  40.548   0.757
62875W        W28102  26.977  38.601   3.150
62876W        W28103  32.211  14.847   3.460
62877W        W28104  18.290  33.236   1.867
62878W        W28105  13.613   5.677  10.732
62879W        W28106   6.491  30.394   9.748
62880W        W28107  39.131  11.742  14.958
62881W        W28108   2.153  22.671  11.496
62882W        W28109  12.723  10.534  13.332
62883W        W28110  33.324  22.123  14.393
62884W        W28111  37.512  35.139  14.992
62885W        W28112  44.342  38.041   0.034
62886W        W28113  35.173   9.809   1.417
62887W        W28114  32.763  25.047  11.087
62888W        W28115  15.238  15.811  13.859
62889W        W28116  15.969  30.128  14.617
62890W        W28117  35.827  18.276   4.238
62891W        W28118  10.901  23.447  13.544
62892W        W28119  11.435  26.934  11.173
62893W        W28120  24.611  27.675  14.462
62894W        W28121   5.893  26.299   0.639
62895W        W28122  17.003  15.459  11.198
62896W        W28123  32.169  41.095  10.313
62897W        W28124   1.842  44.288  13.781
62898W        W28125   6.621  14.659   1.453
62899W        W28126   5.642  22.670  11.166
62900W        W28127  39.399  21.306  13.590
62901W        W28128  35.093  40.962  11.960
62902W        W28129  10.181  20.824  12.968
62903W        W28130  44.316  20.515  11.103
62904W        W28131  29.913   2.984   1.744
62905W        W28132  10.246  23.005  14.842
62906W        W28133   2.645   2.842   4.998
62907W        W28134  25.761   4.214  12.929
62908W        W28135  11.884  21.011  13.441
62909W        W28136  33.596  36.829   0.407
62910W        W28137   4.085  16.055   0.812
62911W        W28138  23.052  15.808   0.311
62912W        W28139   9.589  29.091   3.198
62913W        W28140  21.417  18.489   1.378
62914W        W28141   9.339  32.414  12.959
62915W        W28142  13.140  14.021  12.934
62916W        W28143  23.047  37.795   2.383
62917W        W28144  31.307   5.386   0.890
62918W        W28145  40.158  26.009   1.436
62919W        W28146  13.684   3.306   0.730
62920W        W28147   7.371   1.313   4.757
62921W        W28148  11.353  10.391  11.190
62922W        W28149   6.697   6.413  14.364
62923W        W28150  12.372  21.510  10.447
62924W        W28151  20.187  38.817  11.886
62925W        W28152   0.691  37.118  14.272
62926W        W28153  43.053  40.370   1.073
62927W        W28154  28.048  23.417   3.452
62928W        W28155  11.907  13.071  11.028
62929W        W28156   2.523  31.071  11.944
62930W        W28157   4.804  40.873   3.979
62931W        W28158  25.886  26.370   2.267
62932W        W28159  42.420  23.153   1.633
62933W        W28160   8.762  11.799   3.328
62934W        W28161  34.617  38.483  14.500
62935W        W28162  40.942   7.523  14.376
62936W        W28163  43.474  13.377   2.832
62937W        W28164  39.863   4.933  14.954
62938W        W28165   6.293  41.924  13.410
62939W        W28166  23.764  29.991  12.055
62940W        W28167   1.683   9.943  10.926
62941W        W28168   5.496  22.515   4.910
62942W        W28169  17.148   9.789  10.463
62943W        W28170  41.332  40.255  12.104
62944W        W28171  35.118  34.168   3.232
62945W        W28172   4.349  34.208   1.380
62946W        W28173  24.625   5.756   0.439
62947W        W28174   4.820   1.250  13.255
62948W        W28175  28.045  19.557  12.514
62949W        W28176  39.381  14.540   1.934
62950W        W28177  24.310   9.319   3.873
62951W        W28178  27.151   2.861   1.802
62952W        W28179  32.362  25.170   0.630
62953W        W28180  13.431   2.790   4.764
62954W        W28181   8.086   8.218  11.606
62955W        W28182  42.440   6.449   5.395
62956W        W28183  30.326  42.451   2.867
62957W        W28184  28.166  23.164  11.108
62958W        W28185  22.063   9.644  13.455
62959W        W28186  29.672  27.443   1.348
62960W        W28187  23.835  37.201  12.534
62961W        W28188  29.059  28.510   3.509
62962W        W28189   6.047  24.023  13.956
62963W        W28190   6.474  15.613   1.689
62964W        W28191   9.136  18.723   2.212
62965W        W28192   6.676  43.279   3.711
62966W        W28193  15.965  11.553   0.943
62967W        W28194  12.154  12.724   1.469
62968W        W28195  20.715   2.683   1.294
62969W        W28196  37.173  37.013   2.279
62970W        W28197  37.323  22.782  13.335
62971W        W28198   0.714   1.319  11.087
62972W        W28199  17.678  20.383   1.401
62973W        W28200  25.219  31.696  12.404
62974W        W28201  23.058  14.488  13.123
62975W        W28202  36.624  24.689   0.781
62976W        W28203  33.430  28.097   0.449
62977W        W28204   6.614  21.088   2.658
62978W        W28205  17.420  25.481  11.461
62979W        W28206  24.464   2.972   3.723
62980W        W28207   0.714  27.805  14.569
62981W        W28208  17.309  17.276   3.278
62982W        W28209  31.410  37.461  13.968
62983W        W28210  40.346  23.824   5.011
62984W        W28211  17.732  32.379  13.946
62985W        W28212  12.207   2.893   3.210
62986W        W28213   5.298  13.724  11.558
62987W        W28214   3.645  29.577   2.352
62988W        W28215   3.522  30.975  13.920
62989W        W28216  27.421  24.926   3.176
62990W        W28217  16.812  19.592  11.516
62991W        W28218  15.647  35.464   9.430
62992W        W28219  25.148  31.969  10.578
62993W        W28220  31.514  20.030  12.063
62994W        W28221  37.798  20.223  13.451
62995W        W28222  34.357  34.552   1.185
62996W        W28223   1.761   0.407   1.394
62997W        W28224  19.962   2.332   2.756
62998W        W28225   8.851  13.710  13.434
62999W        W28226  24.898  33.873  12.739
63000W        W28227   6.684  42.877  10.723
63001W        W28228  12.580  20.265  14.765
63002W        W28229  44.674   3.282  13.873
63003W        W28230  17.288  14.241  14.493
63004W        W28231  37.817  31.935   4.049
63005W        W28232   0.010  43.897  11.588
63006W        W28233  22.512  27.913   0.185
63007W        W28234  43.356  30.429  14.928
63008W        W28235  34.631  18.691  14.810
63009W        W28236   4.239  29.370   4.513
63010W        W28237  20.473  34.594  11.000
63011W        W28238  34.314  15.627  12.169
63012W        W28239  28.674   7.967   0.458
63013W        W28240  29.431  35.958  12.052
63014W        W28241  41.941  17.045  10.912
63015W        W28242  24.682  41.709  12.449
63016W        W28243  18.818  11.146  11.162
63017W        W28244  18.534  37.000   4.297
63018W        W28245  29.699   8.232   1.238
63019W        W28246   2.319  15.645  11.637
63020W        W28247  17.369  44.510  14.954
63021W        W28248  18.243  36.777  14.746
63022W        W28249  25.835   8.388  12.502
63023W        W28250  12.864  16.832   4.202
63024W        W28251  44.394   7.886  13.416
63025W        W28252  19.783  13.293   0.269
63026W        W28253  29.017  32.283   2.708
63027W        W28254  10.935  11.187  14.240
63028W        W28255  44.564  41.534  14.406
63029W        W28256  21.235   4.748  10.066
63030W        W28257  32.497  33.058  12.457
63031W        W28258   4.367   6.991  13.541
63032W        W28259   6.880  19.348   3.240
63033W        W28260  44.101  34.598  11.146
63034W        W28261  19.029  18.411   1.269
63035W        W28262  37.186  29.225  13.848
63036W        W28263  17.840  26.785   1.298
63037W        W28264  33.143  35.813   4.165
63038W        W28265   1.335   8.831  11.852
63039W        W28266   8.331  28.747  11.934
63040W        W28267  13.499  42.597   0.312
63041W        W28268   7.724  30.618  14.252
63042W        W28269  16.438  22.004  13.731
63043W        W28270  29.521  34.040  10.841
63044W        W28271  32.363  30.559  13.821
63045W        W28272  22.615  14.751   0.736
63046W        W28273  15.762  41.047  12.909
63047W        W28274   9.874  41.494  14.902
63048W        W28275  37.357  31.088  11.239
63049W        W28276  22.196  41.353   1.753
63050W        W28277  15.138  33.531  12.752
63051W        W28278  16.336  40.702   2.827
63052W        W28279   2.189  33.901  14.296
63053W        W28280  13.879  38.542  13.989
63054W        W28281  13.557   4.723  11.369
63055W        W28282  13.762  35.949   0.975
63056W        W28283  15.689  18.538   1.201
63057W        W28284  34.457  38.966  11.275
63058W        W28285  15.286  41.506   1.346
63059W        W28286  10.879  43.389   0.171
63060W        W28287  31.918  22.622   2.378
63061W        W28288  40.016  43.072   3.854
63062W        W28289  12.961  12.327   2.663
63063W        W28290  20.709   4.606   1.349
63064W        W28291   8.340  38.831  11.177
63065W        W28292  21.154  19.257  13.856
63066W        W28293  21.196   9.144  11.116
63067W        W28294  44.955   1.995   2.396
63068W        W28295  15.134  21.974  10.720
63069W        W28296  12.796   1.311  13.912
63070W        W28297  16.858  34.030  14.548
63071W        W28298  28.201   7.722   0.372
63072W        W28299  11.144  36.669   4.029
63073W        W28300  35.640  37.872   4.368
63074W        W28301  21.881  27.695  14.129
63075W        W28302  42.426   6.985   1.708
63076W        W28303   0.366  21.997  13.879
63077W        W28304  26.158  11.809  11.797
63078W        W28305  36.797  12.087   3.610
63079W        W28306   9.598  19.642   1.297
63080W        W28307  19.585  11.780   3.639
63081W        W28308   1.541  37.765   0.300
63082W        W28309  32.201  28.618   4.124
63083W        W28310  12.917  34.328  13.716
63084W        W28311  18.976  29.738  14.319
63085W        W28312  32.727  20.276  13.422
63086W        W28313  27.335  21.271   1.245
63087W        W28314   9.797   4.201  11.670
63088W        W28315   2.873  38.498   3.792
63089W        W28316  15.265   9.993   1.285
63090W        W28317   1.119  30.464   5.071
63091W        W28318   2.499  37.245  14.131
63092W        W28319  16.042   6.943  13.520
63093W        W28320  22.748   3.450  13.547
63094W        W28321  38.904  22.567   2.556
63095W        W28322   8.641  21.487   0.982
63096W        W28323  16.829   6.097   0.264
63097W        W28324  37.486   1.315   2.971
63098W        W28325  20.430  12.689  12.514
63099W        W28326  25.442  15.861  14.952
63100W        W28327  14.579  18.496   4.870
63101W        W28328  36.130  16.269  11.949
63102W        W28329   1.779   2.951  12.060
63103W        W28330  23.594  43.492  11.080
63104W        W28331   9.660  27.021  11.481
63105W        W28332  14.960  44.850   4.663
63106W        W28333  41.049  39.578  12.790
63107W        W28334   3.864   6.285   3.917
63108W        W28335  17.688  43.296   0.399
63109W        W28336  32.823   6.033  11.051
63110W        W28337  34.945  15.466  10.687
63111W        W28338  31.065  15.138  14.252
63112W        W28339  33.509  11.588  13.045
63113W        W28340  41.267  32.487   4.228
63114W        W28341  42.434   5.692  12.240
63115W        W28342  44.256   3.867  10.738
63116W        W28343  44.415  21.679   3.564
63117W        W28344  43.855  22.459   4.195
63118W        W28345  11.937   4.221  13.347
63119W        W28346  23.612   8.124  14.463
63120W        W28347  21.327  37.008   2.338
63121W        W28348  17.277   7.586  14.208
63122W        W28349  18.534  23.594  13.944
63123W        W28350  32.150  24.811  13.486
63124W        W28351  10.216   9.656  11.579
63125W        W28352  14.167  37.055   4.939
63126W        W28353  29.183  24.853   0.373
63127W        W28354  32.905  20.996  12.911
63128W        W28355  11.196   2.913  11.984
63129W        W28356   5.233   9.814  10.606
63130W        W28357  24.224  40.638   2.002
63131W        W28358  40.774  25.635   2.355
63132W        W28359  21.412  14.051  13.460
63133W        W28360  39.573   5.344  14.857
63134W        W28361  29.922   9.899   0.834
63135W        W28362  35.920   1.386   3.258
63136W        W28363  29.007   2.025   1.392
63137W        W28364  40.568  40.865   1.923
63138W        W28365  27.473   7.363  12.521
63139W        W28366  16.501  11.443   3.252
63140W        W28367  27.249  29.802   3.712
63141W        W28368  15.165  36.412  13.539
63142W        W28369   8.409  31.926  10.511
63143W        W28370  33.476  43.449   2.699
63144W        W28371  37.293  29.174  12.927
63145W        W28372  42.909  10.883   4.537
63146W        W28373  39.072   0.880  13.764
63147W        W28374  26.057  34.348  12.574
63148W        W28375  20.989  22.763  11.988
63149W        W28376  42.529  36.906  13.502
63150W        W28377  41.498  42.242   3.148
63151W        W28378  22.315   9.800  13.864
63152W        W28379  13.309  13.075   2.150
63153W        W28380   0.988  24.129  12.586
63154W        W28381  36.926   1.725   0.241
63155W        W28382  36.521  43.460   1.248
63156W        W28383  38.735  35.324  14.745
63157W        W28384   0.905  32.175  12.995
63158W        W28385   5.855   9.161   3.885
63159W        W28386  25.373  44.734  11.936
63160W        W28387   7.756  21.078   4.628
63161W        W28388   4.243  11.364  12.492
63162W        W28389  33.849  27.225   1.298
63163W        W28390  23.797   1.634   3.498
63164W        W28391  18.048  42.152   3.706
63165W        W28392   6.345   4.376   2.866
63166W        W28393  40.645  24.924  14.993
63167W        W28394  34.846  33.190   3.409
63168W        W28395   8.869  43.806   3.690
63169W        W28396  11.873  21.242  14.555
63170W        W28397   2.814  22.652   2.277
63171W        W28398  42.751  36.770  11.292
63172W        W28399  34.869   6.893   3.681
63173W        W28400  29.097  30.185  12.418
63174W        W28401  40.990   1.960   0.404
63175W        W28402   2.576  17.713   3.190
63176W        W28403  15.242  36.532  12.115
63177W        W28404  25.059   5.463   0.180
63178W        W28405   5.085  14.078   0.532
63179W        W28406  43.864  39.023   4.871
63180W        W28407  40.011   6.409  10.785
63181W        W28408  23.044   5.894   4.204
63182W        W28409  16.012  18.671   4.234
63183W        W28410  10.458  37.978  14.891
63184W        W28411   7.400   0.935  13.790
63185W        W28412  35.247  44.560  13.287
63186W        W28413   2.559  23.884  11.892
63187W        W28414  33.206  41.043   3.288
63188W        W28415  14.378  30.918   3.902
63189W        W28416   5.810  10.843   4.493
63190W        W28417  28.686  22.123  10.826
63191W        W28418  17.182  31.345  12.737
63192W        W28419  26.449  12.241  13.364
63193W        W28420  44.607  13.304   4.693
63194W        W28421  12.220  24.669  14.290
63195W        W28422  22.712   6.769   2.900
63196W        W28423  26.909  37.396   4.578
63197W        W28424  15.249   8.712   0.828
63198W        W28425   2.522  35.928  14.042
63199W        W28426  10.110  42.454   5.094
63200W        W28427  25.942  33.980   0.262
63201W        W28428  42.752   6.955  11.053
63202W        W28429  33.173  32.336   2.835
63203W        W28430  37.606  42.488   1.464
63204W        W28431  27.462  34.958   4.156
63205W        W28432  23.201   0.300   1.656
63206W        W28433  22.010  14.881   3.306
63207W        W28434  21.175  21.012   2.675
63208W        W28435   4.893  38.288   0.784
63209W        W28436  35.898   4.426   1.697
63210W        W28437  34.443  29.636   1.756
63211W        W28438   6.190   6.062  10.783
63212W        W28439  42.146   8.100  14.688
63213W        W28440  33.520  18.147  14.196
63214W        W28441  36.600  27.176   4.117
63215W        W28442  42.262  34.028  12.151
63216W        W28443  33.746  37.606  14.023
63217W        W28444  33.181  20.210   4.399
63218W        W28445   4.193  12.081  13.863
63219W        W28446   1.878  40.976  13.461
63220W        W28447   4.576   4.928  11.325
63221W        W28448  40.756  29.176  12.563
63222W        W28449  32.048  30.971   2.181
63223W        W28450   3.986  33.052   3.626
63224W        W28451  44.822  22.560  12.224
63225W        W28452  39.948  34.567  11.019
63226W        W28453  24.091  23.579  13.177
63227W        W28454  42.799  34.524   4.031
63228W        W28455  35.081  20.769  14.406
63229W        W28456  19.277  11.664   0.697
63230W        W28457  43.459  27.242  14.720
63231W        W28458   8.349  16.343  10.341
63232W        W28459  24.585  11.436   1.386
63233W        W28460   9.202  32.094   2.393
63234W        W28461  20.971  35.983  10.789
63235W        W28462  40.982  23.000   4.747
63236W        W28463  35.429  18.026  13.611
63237W        W28464  11.070  10.932   4.137
63238W        W28465   6.855  37.380  12.507
63239W        W28466  13.065   9.280   1.234
63240W        W28467  15.232  34.383   1.031
63241W        W28468   2.284  23.870  12.328
63242W        W28469  32.448  18.780   2.365
63243W        W28470   2.921  43.957  11.309
63244W        W28471   2.327  13.152   2.152
63245W        W28472   9.606  17.737   3.657
63246W        W28473  10.293  39.601  13.062
63247W        W28474  19.535  29.995  12.970
63248W        W28475  11.633  12.874   2.677
63249W        W28476  43.503  33.099   0.488
63250W        W28477  37.078   7.724   0.297
63251W        W28478   9.691  43.397  13.847
63252W        W28479   7.851  42.454   0.204
63253W        W28480  15.092  41.820   2.300
63254W        W28481  33.389  20.331  14.341
63255W        W28482  28.709  19.315   0.312
63256W        W28483  36.077  41.322  11.730
63257W        W28484  25.682  31.490  11.592
63258W        W28485  18.230   4.424  11.006
63259W        W28486   4.960  31.541   1.187
63260W        W28487  39.839  42.703  12.105
63261W        W28488  17.214  36.532   4.313
63262W        W28489  41.040  36.013  13.470
63263W        W28490  29.886  21.388  13.630
63264W        W28491  10.059  16.420  12.527
63265W        W28492  32.618  35.332   4.552
63266W        W28493  15.618   2.304   3.716
63267W        W28494  31.040  20.788   4.216
63268W        W28495  38.427  17.362  12.531
63269W        W28496  23.984  42.049  12.034
63270W        W28497   5.383  30.182  12.634
63271W        W28498  15.170  42.615  13.136
63272W        W28499   1.350  22.748   1.242
63273W        W28500  28.495  44.518  14.450
63274W        W28501  36.071   0.194   1.747
63275W        W28502  25.852  20.265   4.597
63276W        W28503  39.520  13.876  10.660
63277W        W28504  43.177  25.667   0.328
63278W        W28505  26.383   8.858  13.967
63279W        W28506   1.277  10.876  14.460
63280W        W28507  24.414  38.357  14.882
63281W        W28508  20.310  37.739   1.945
63282W        W28509  44.872  28.491  12.040
63283W        W28510   2.246   2.245   3.991
63284W        W28511  13.113  15.602  13.567
63285W        W28512   1.770  23.873  12.165
63286W        W28513   2.902  23.315  10.671
63287W        W28514  11.194   9.116  13.950
63288W        W28515  33.999  22.158   2.873
63289W        W28516  28.474  21.493  13.535
63290W        W28517  33.089  29.116   1.546
63291W        W28518  28.570  35.979   0.499
63292W        W28519  33.014  39.884   0.524
63293W        W28520  19.238  31.450   3.073
63294W        W28521   5.904  23.479   4.245
63295W        W28522  29.309   1.958   1.810
63296W        W28523  23.052  19.542   2.601
63297W        W28524   8.922  26.391  12.864
63298W        W28525  10.577  39.940  10.513
63299W        W28526  20.214  29.477   2.842
63300W        W28527  40.580  28.445  14.943
63301W        W28528   6.775  41.271   0.218
63302W        W28529   8.459  29.134  10.937
63303W        W28530  23.517  26.411  10.707
63304W        W28531   6.899   1.150   0.929
63305W        W28532   7.671  35.891   1.365
63306W        W28533  37.294  32.999   3.850
63307W        W28534  35.097  34.643  10.709
63308W        W28535   5.106  42.695  13.413
63309W        W28536   7.621  43.766  11.505
63310W        W28537  21.194  44.620  12.155
63311W        W28538   3.873  42.195   2.383
63312W        W28539   8.152   3.485   3.766
63313W        W28540  34.648  21.436  11.434
63314W        W28541  20.056  20.574  12.882
63315W        W28542  38.723  35.394  13.418
63316W        W28543  42.321  13.821   2.782
63317W        W28544  40.899  11.387  14.018
63318W        W28545  11.037   6.707  10.666
63319W        W28546   4.487   6.129  13.854
63320W        W28547  37.483  26.323   1.335
63321W        W28548   1.931  16.676  11.310
63322W        W28549  26.923  34.262  14.074
63323W        W28550   9.752   5.893  12.899
63324W        W28551  13.137  26.606   1.218
63325W        W28552  37.581  17.509  12.054
63326W        W28553  23.495  31.359   0.731
63327W        W28554  30.052  40.582  14.968
63328W        W28555  22.068  42.308  14.346
63329W        W28556  11.833  39.359  11.029
63330W        W28557  12.860  37.297  14.807
63331W        W28558  29.620  16.088  14.133
63332W        W28559  34.185  28.362  12.996
63333W        W28560  33.227   1.327   2.098
63334W        W28561  32.566  13.263  12.116
63335W        W28562   4.246   8.930   4.523
63336W        W28563  21.443  19.178  12.483
63337W        W28564   6.044  33.764  10.637
63338W        W28565  40.129  41.237  12.174
63339W        W28566  25.075  24.779  14.583
63340W        W28567  25.171  24.519  12.360
63341W        W28568  29.734  14.153   1.338
63342W        W28569  20.825  40.841   1.191
63343W        W28570  32.854   2.253  11.147
63344W        W28571  34.224  14.463   9.910
63345W        W28572   6.740  36.264  13.024
63346W        W28573  13.807   2.386  10.989
63347W        W28574  26.111  31.377   1.008
63348W        W28575  33.901  19.946   2.418
63349W        W28576  42.307  33.416  14.291
63350W        W28577  41.795  18.594   4.519
63351W        W28578  38.028  40.255  13.071
63352W        W28579  36.651  28.745  11.934
63353W        W28580   8.926  30.664   0.778
63354W        W28581  15.274  14.597  14.383
63355W        W28582  30.753   7.731   2.660
63356W        W28583  16.895  21.273  14.315
63357W        W28584  28.059   8.638  12.611
63358W        W28585  42.864  12.922   4.447
63359W        W28586  41.717   1.277  11.490
63360W        W28587   0.413  26.567  12.218
63361W        W28588   8.286  30.543   4.732
63362W        W28589  26.600  21.203  12.657
63363W        W28590  23.554  36.440   0.236
63364W        W28591  39.928  17.801   1.873
63365W        W28592  42.298  25.196  12.326
63366W        W28593  16.104  38.547   4.507
63367W        W28594  12.134  25.192   1.748
63368W        W28595  18.629  23.606   3.448
63369W        W28596  33.085  38.640   0.056
63370W        W28597  12.938  40.220   0.879
63371W        W28598   3.792  31.975   5.019
63372W        W28599  17.291  41.206   0.296
63373W        W28600   3.323  32.846  14.566
63374W        W28601   7.674  21.628   0.267
63375W        W28602  20.132   5.780  10.810
63376W        W28603  28.406  12.740   1.882
63377W        W28604  22.105  28.723   2.449
63378W        W28605  18.547  20.604   3.686
63379W        W28606   0.716   9.917  14.012
63380W        W28607  26.210  21.667   0.261
63381W        W28608  40.071  25.589   2.703
63382W        W28609  42.398  17.751   0.242
63383W        W28610  40.964  13.488   2.491
63384W        W28611   0.224  30.966  12.020
63385W        W28612  16.166  22.671  10.727
63386W        W28613  22.872  17.137  11.117
63387W        W28614  17.628  41.486   1.790
63388W        W28615   4.682   7.416   4.205
63389W        W28616  37.314  27.701   1.353
63390W        W28617  26.547  36.518   3.737
63391W        W28618  17.792  41.806  12.898
63392W        W28619   7.328   1.916  14.132
63393W        W28620  27.798   2.602  14.069
63394W        W28621  33.728  18.763   2.966
63395W        W28622  44.744  13.134   1.808
63396W        W28623   5.907  14.182   0.278
63397W        W28624  37.424  43.532  11.219
63398W        W28625   9.630  17.865   2.766
63399W        W28626  41.865  33.519   1.211
63400W        W28627   8.372  15.364  10.803
63401W        W28628  30.990  43.953  10.730
63402W        W28629  33.328   8.680   3.545
63403W        W28630   2.401   8.575   1.865
63404W        W28631  28.620  31.445  11.508
63405W        W28632  11.817  31.421   0.461
63406W        W28633   7.869  16.490   3.914
63407W        W28634  11.499  39.505   0.551
63408W        W28635  39.510  36.512  12.036
63409W        W28636  34.901   6.632   0.296
63410W        W28637  11.253   8.395  11.773
63411W        W28638   0.606  41.201   1.604
63412W        W28639  15.148  34.027   2.206
63413W        W28640  16.482   3.839   1.600
63414W        W28641  28.895  14.154   2.380
63415W        W28642  31.419  29.982   1.883
63416W        W28643  13.331  39.396  10.574
63417W        W28644  38.351  39.255  14.990
63418W        W28645  17.786  14.219  13.294
63419W        W28646  30.438  11.112  10.640
63420W        W28647  23.110  38.782  14.846
63421W        W28648   6.846  21.688   1.613
63422W        W28649  10.845  10.140  12.017
63423W        W28650  25.086  17.178  12.655
63424W        W28651  15.165  12.801   2.912
63425W        W28652  19.565   0.243   4.337
63426W        W28653  42.045  31.023  10.813
63427W        W28654   7.347  38.382   2.147
63428W        W28655  22.530  28.230  11.174
63429W        W28656  26.524   4.380   1.335
63430W        W28657   4.083  40.958  13.114
63431W        W28658   2.462  14.168   5.039
63432W        W28659  42.178  14.121   4.131
63433W        W28660  13.713  15.787   2.259
63434W        W28661  23.741  21.543  13.391
63435W        W28662   5.342   4.322   1.308
63436W        W28663   7.209  37.433   3.557
63437W        W28664   9.171  11.031   1.164
63438W        W28665  14.927   7.127   1.306
63439W        W28666   6.846   6.822   0.488
63440W        W28667  23.446  10.870   1.286
63441W        W28668  38.845  24.421  10.666
63442W        W28669  37.779  43.396   3.591
63443W        W28670  33.503  39.317  11.553
63444W        W28671  19.717  28.949   1.339
63445W        W28672  33.709   7.840   0.327
63446W        W28673  26.960   6.451   4.567
63447W        W28674  28.687  14.103   4.217
63448W        W28675  24.618   1.079  11.538
63449W        W28676  27.525  33.877   4.766
63450W        W28677  24.545  37.551  14.760
63451W        W28678  39.403  42.461   1.443
63452W        W28679  36.983  21.291   2.270
63453W        W28680  31.107   0.283  12.011
63454W        W28681  15.074  19.711   3.113
63455W        W28682  36.990   6.122   0.469
63456W        W28683  20.539  39.841   3.869
63457W        W28684  26.985  20.203   0.467
63458W        W28685  43.309   5.229   3.122
63459W        W28686  37.059   8.686   0.148
63460W        W28687  32.376   2.820  12.838
63461W        W28688  23.163  44.424   4.959
63462W        W28689  24.061  21.143   2.277
63463W        W28690  22.757  36.285   3.680
63464W        W28691   6.148  12.195   4.051
63465W        W28692  23.004  13.273  14.392
63466W        W28693  17.232  16.343  12.509
63467W        W28694  28.172  28.043   0.908
63468W        W28695   4.120  26.882  14.777
63469W        W28696  26.805   2.769  11.164
63470W        W28697  15.722  25.786  14.448
63471W        W28698  37.965   9.961   4.331
63472W        W28699   4.011  16.240  13.432
63473W        W28700   2.790   5.892   1.740
63474W        W28701   5.502  41.565   2.330
63475W        W28702  15.057   7.856  14.526
63476W        W28703  15.810  10.105   4.244
63477W        W28704  34.348  33.743  13.895
63478W        W28705  31.064   8.623   4.683
63479W        W28706  34.015  27.296   2.546
63480W        W28707  39.939   9.377  14.738
63481W        W28708  14.785   5.057   3.682
63482W        W28709  43.328  12.325  11.952
63483W        W28710  11.828  40.512  11.587
63484W        W28711   4.874  19.240   2.782
63485W        W28712  35.039  43.537  14.230
63486W        W28713  33.028  14.047  13.429
63487W        W28714  26.821  34.479   4.570
63488W        W28715  40.261  21.106  13.992
63489W        W28716  16.025  31.973  13.873
63490W        W28717  24.522  14.653   0.325
63491W        W28718  37.105  12.703   2.787
63492W        W28719  34.946  35.567  13.399
63493W        W28720  40.315  40.392   1.956
63494W        W28721   2.089   3.431  13.960
63495W        W28722  20.938   8.797   3.208
63496W        W28723   0.734  24.079   4.077
63497W        W28724  21.096  28.393   0.464
63498W        W28725  41.650  35.465  13.876
63499W        W28726  25.953   8.679   3.350
63500W        W28727  33.064  12.459   2.408
63501W        W28728  17.288  21.097   0.027
63502W        W28729  24.555  21.286  13.806
63503W        W28730  32.226  29.583   0.761
63504W        W28731   0.781  32.726  14.632
63505W        W28732  41.098   2.447   0.238
63506W        W28733  17.697  43.475  10.438
63507W        W28734  15.803   7.536  11.235
63508W        W28735  40.417   0.328   1.256
63509W        W28736  34.492  36.132  11.566
63510W        W28737  29.839  20.315  11.606
63511W        W28738  24.775   4.907  13.479
63512W        W28739  28.522  12.583   2.734
63513W        W28740   9.679  19.269  14.491
63514W        W28741  34.711  27.132  12.874
63515W        W28742  15.019   3.806  12.581
63516W        W28743  40.954  16.075   3.315
63517W        W28744  32.428  43.813   2.959
63518W        W28745  24.188   2.307   3.012
63519W        W28746  30.475   5.634   1.242
63520W        W28747  24.343  30.481  13.764
63521W        W28748  17.047  12.737  13.134
63522W        W28749  24.455   4.268   3.374
63523W        W28750  33.877  34.389   4.986
63524W        W28751  39.502  13.401   0.508
63525W        W28752  30.411  30.471  11.536
63526W        W28753  39.077  39.594  13.800
63527W        W28754  21.902  29.284   1.524
63528W        W28755  32.172  18.306  12.913
63529W        W28756  43.568   4.802   3.330
63530W        W28757  29.550   5.389  13.939
63531W        W28758  12.799  17.593   3.768
63532W        W28759  10.142  34.469   1.452
63533W        W28760  36.938  30.211  12.372
63534W        W28761  35.491  24.471  10.745
63535W        W28762  42.830  28.992   2.906
63536W        W28763  26.539  43.495  13.816
63537W        W28764   4.814  23.041   4.589
63538W        W28765  26.762   2.967   0.076
63539W        W28766  28.177   6.347  13.096
63540W        W28767  44.668  12.625   3.032
63541W        W28768   6.614   4.045   1.461
63542W        W28769  37.804  31.730  12.289
63543W        W28770  39.610  35.104   3.726
63544W        W28771  28.045  37.699   4.150
63545W        W28772  13.157  21.153  12.918
63546W        W28773  27.433  21.558  10.669
63547W        W28774  14.488   8.720  13.479
63548W        W28775  12.127  38.821   1.207
63549W        W28776  35.603  43.789   0.850
63550W        W28777  17.720   8.413  14.407
63551W        W28778  31.050  43.975   3.767
63552W        W28779  26.878  12.220   0.737
63553W        W28780  14.649  40.168   2.202
63554W        W28781  38.737   7.652  14.362
63555W        W28782  15.074  36.890   3.842
63556W        W28783   6.392  12.076  12.570
63557W        W28784  28.439  25.679   4.523
63558W        W28785  30.237  21.810  12.423
63559W        W28786  26.109   2.612   2.814
63560W        W28787  17.538  42.395  11.926
63561W        W28788   8.280  18.315   1.713
63562W        W28789  38.893  34.553  12.002
63563W        W28790  33.955  12.194  10.548
63564W        W28791  29.169  43.157  14.750
63565W        W28792  12.801   7.363   2.770
63566W        W28793  19.580  29.072   3.542
63567W        W28794  36.533  31.133  11.719
63568W        W28795  22.309  19.850   1.327
63569W        W28796   9.821   4.399  11.197
63570W        W28797  40.935  23.810  13.573
63571W        W28798  22.173  40.719  13.360
63572W        W28799  38.962  14.219  10.038
63573W        W28800  25.477   7.898   5.041
63574W        W28801   9.748  27.025  14.253
63575W        W28802  25.179  10.714   1.801
63576W        W28803   9.506  26.884   1.897
63577W        W28804  20.706  34.691   2.343
63578W        W28805  18.522  38.515   4.123
63579W        W28806  28.076  12.683  14.157
63580W        W28807   2.070  10.627  11.878
63581W        W28808   2.465  18.542  14.020
63582W        W28809   1.165   3.774  12.838
63583W        W28810  35.525  32.434   3.512
63584W        W28811  38.562  30.273   4.471
63585W        W28812  15.121  35.100   3.580
63586W        W28813  12.329  24.665   0.249
63587W        W28814  10.089   8.777  10.738
63588W        W28815  26.059  13.698   2.126
63589W        W28816  12.849  19.359  13.515
63590W        W28817  31.860   6.257   1.884
63591W        W28818  18.669  12.797   2.415
63592W        W28819   9.836   5.939  14.799
63593W        W28820  15.318   1.474   0.292
63594W        W28821   8.354  15.106   3.161
63595W        W28822  18.500  31.741  14.006
63596W        W28823  10.343  19.673   0.196
63597W        W28824   8.517  19.749   0.474
63598W        W28825  34.432  43.638  12.696
63599W        W28826  20.051  14.513  14.861
63600W        W28827  35.846  31.358  14.012
63601W        W28828   1.208  21.576   1.313
63602W        W28829   2.454  44.238   1.830
63603W        W28830  17.064   2.546   0.829
63604W        W28831  44.261  38.105   3.608
63605W        W28832  16.151  23.008   4.408
63606W        W28833   1.780   0.662  13.305
63607W        W28834  10.055  10.450   3.742
63608W        W28835   1.997  23.479  10.211
63609W        W28836  20.142  42.575  10.692
63610W        W28837  43.589  26.415   2.985
63611W        W28838  13.174  33.936  13.317
63612W        W28839  17.678  25.706   2.015
63613W        W28840   3.555  22.259   0.681
63614W        W28841  16.679  37.074   3.787
63615W        W28842   8.330  21.787  13.539
63616W        W28843  34.440  35.822  12.445
63617W        W28844  15.327  15.564   2.455
63618W        W28845  12.091  36.862   4.158
63619W        W28846   7.284  20.469   2.680
63620W        W28847  12.442  26.444   4.228
63621W        W28848   5.936  12.330   2.132
63622W        W28849  34.928  27.440  10.710
63623W        W28850  10.789  28.083   3.707
63624W        W28851  36.024  10.203   3.594
63625W        W28852  14.049   7.371   4.663
63626W        W28853   4.004  28.948   1.704
63627W        W28854   0.209  30.155   1.306
63628W        W28855  32.424  43.373  12.221
63629W        W28856  41.527  21.762  11.644
63630W        W28857  17.108  10.884   2.644
63631W        W28858  44.762  11.991  13.862
63632W        W28859  17.270  16.040   4.593
63633W        W28860   2.795  33.916   2.655
63634W        W28861   6.456  33.508  14.976
63635W        W28862   5.435  32.972  10.764
63636W        W28863  29.126  31.850   1.360
63637W        W28864   6.290  13.053  11.005
63638W        W28865  34.015  14.410   2.623
63639W        W28866  43.838   4.752  13.426
63640W        W28867  37.150  15.208  12.075
63641W        W28868  36.402  11.062  10.679
63642W        W28869  42.648  18.430   4.121
63643W        W28870  43.415  32.534  12.167
63644W        W28871  18.534   3.827   2.252
63645W        W28872  28.180  29.158  11.648
63646W        W28873   7.636   5.555  12.891
63647W        W28874  22.122  17.727  11.156
63648W        W28875  21.746   1.977  13.077
63649W        W28876   4.660   7.491   3.656
63650W        W28877  30.354  27.437   3.407
63651W        W28878  34.811  23.468   2.719
63652W        W28879   5.071  27.168   1.693
63653W        W28880   0.313  26.122  11.903
63654W        W28881  43.407   8.783  11.274
63655W        W28882  30.081  30.527   2.260
63656W        W28883   5.330   9.773   2.244
63657W        W28884   4.937  25.616  10.695
63658W        W28885  40.380  36.820   3.861
63659W        W28886  16.617  16.026  13.105
63660W        W28887  35.825   7.590  11.626
63661W        W28888  42.788  29.134  12.228
63662W        W28889   0.964   8.835   4.359
63663W        W28890  22.155  36.919  13.062
63664W        W28891  43.790  44.933  10.672
63665W        W28892  16.849  36.894   0.012
63666W        W28893   2.611   2.449   2.504
63667W        W28894  10.629  22.542  11.070
63668W        W28895  24.012  16.294   2.349
63669W        W28896   7.564  38.865   2.759
63670W        W28897  35.000  25.441  11.992
63671W        W28898  37.530   7.448   1.642
63672W        W28899  23.063  34.413  12.188
63673W        W28900  36.571  26.424  14.751
63674W        W28901  15.222  31.685   4.528
63675W        W28902   9.612   1.394  13.492
63676W        W28903  38.621  18.972   2.362
63677W        W28904  22.370  18.454  12.959
63678W        W28905  30.199   0.761   0.801
63679W        W28906   3.493  31.196   0.345
63680W        W28907   6.302  40.384   4.629
63681W        W28908  11.258  30.939  11.953
63682W        W28909  35.133   1.865   3.705
63683W        W28910  26.177  11.235  12.465
63684W        W28911   4.337   4.618   1.078
63685W        W28912  20.503   5.718  11.581
63686W        W28913   4.507  37.886  13.484
63687W        W28914   4.814   7.411   1.343
63688W        W28915  10.770   9.676   3.223
63689W        W28916  42.006  19.253  14.893
63690W        W28917  14.288   1.460  12.061
63691W        W28918  30.444   0.018   4.028
63692W        W28919  19.417  42.766   0.893
63693W        W28920  23.598  38.819   1.676
63694W        W28921  26.394  40.355   3.221
63695W        W28922  22.006   0.440  12.952
63696W        W28923  10.869   6.990   2.752
63697W        W28924  15.659  15.833  13.280
63698W        W28925  22.872  29.816  14.049
63699W        W28926   9.116   3.831  13.131
63700W        W28927  42.547  26.586  12.551
63701W        W28928  44.069   2.518  14.858
63702W        W28929  27.493  22.167   1.247
63703W        W28930  37.965  22.632   4.284
63704W        W28931  36.033  26.467   4.940
63705W        W28932  20.285  10.671   2.706
63706W        W28933  21.080  21.470   4.907
63707W        W28934  20.727  15.316   0.321
63708W        W28935  23.248  13.243   4.477
63709W        W28936  24.722  43.983   4.492
63710W        W28937  43.521  26.903   3.107
63711W        W28938   1.454   9.803  12.753
63712W        W28939  44.391  16.255   2.303
63713W        W28940  32.821  19.079  14.089
63714W        W28941  18.682  42.229  10.785
63715W        W28942  41.080  18.050  11.587
63716W        W28943  20.514   3.677   1.779
63717W        W28944  33.137  30.774  12.561
63718W        W28945  19.553  24.501   3.637
63719W        W28946  16.273  23.619   4.022
63720W        W28947   0.427  32.059  12.133
63721W        W28948  41.799   6.683  12.603
63722W        W28949  11.845  44.044  13.332
63723W        W28950   3.905  11.188  14.111
63724W        W28951  36.265  40.044  11.787
63725W        W28952  19.553   6.823  12.105
63726W        W28953  37.575  31.389  11.908
63727W        W28954   8.572   5.491   0.426
63728W        W28955  43.049  37.037  11.615
63729W        W28956  21.769   6.271  12.799
63730W        W28957  38.336  33.363   1.783
63731W        W28958  39.064  32.734   0.253
63732W        W28959   5.066  31.372  11.141
63733W        W28960  18.741   7.272  12.894
63734W        W28961  27.810   5.518  10.364
63735W        W28962  33.633  21.014  13.947
63736W        W28963  11.605   0.383  13.180
63737W        W28964  17.057  17.718  12.870
63738W        W28965  19.026  32.859  13.460
63739W        W28966  41.580  27.911  14.463
63740W        W28967  10.302  39.509  10.585
63741W        W28968  10.480  44.391   1.867
63742W        W28969  26.389  31.348   4.630
63743W        W28970   1.406  34.295  12.478
63744W        W28971  28.654  25.257  12.909
63745W        W28972  37.043   6.984  13.107
63746W        W28973  18.248   7.575  11.657
63747W        W28974  18.339  44.902   2.949
63748W        W28975  37.798  38.168   2.380
63749W        W28976  15.448  35.614   2.724
63750W        W28977  40.986  11.279   4.353
63751W        W28978  43.224   8.632   3.325
63752W        W28979   9.292  14.628   2.967
63753W        W28980  24.059  44.329   2.270
63754W        W28981   9.651  11.606   0.775
63755W        W28982   7.438  28.127   2.325
63756W        W28983  17.895  20.118   1.777
63757W        W28984   7.845  17.562  14.702
63758W        W28985  32.616   6.661   4.258
63759W        W28986  35.147   5.131   4.110
63760W        W28987  16.007  25.057  11.103
63761W        W28988   3.324  44.340   2.357
63762W        W28989   3.139  40.508   0.977
63763W        W28990   5.268  44.957  11.353
63764W        W28991  12.136  27.006  14.718
63765W        W28992  22.219  26.746   4.562
63766W        W28993   4.832  41.946   1.866
63767W        W28994  13.782  28.780   3.563
63768W        W28995   1.735  33.263  11.988
63769W        W28996   7.850  13.217  12.715
63770W        W28997   8.350   8.187   4.401
63771W        W28998  44.208  22.996   1.388
63772W        W28999   1.476  12.708   0.717
63773W        W29000  10.606  25.375   3.668
63774W        W29001  19.961  10.991   2.109
63775W        W29002  38.691  29.123  11.929
63776W        W29003  37.660  37.142   2.382
63777W        W29004   0.491  12.838  14.366
63778W        W29005  11.807  17.369  12.062
63779W        W29006  21.260  31.440   4.699
63780W        W29007   6.104  37.027   1.196
63781W        W29008   1.399  23.084   0.352
63782W        W29009  28.212  38.958   4.850
63783W        W29010  28.880  43.312  13.838
63784W        W29011   8.131  23.365   3.928
63785W        W29012  37.275  12.015   1.283
63786W        W29013  14.286   6.917   4.577
63787W        W29014  16.634   8.674   3.702
63788W        W29015   5.435  16.041   0.883
63789W        W29016  42.309  16.714  12.513
63790W        W29017  20.708   1.977  13.851
63791W        W29018  20.196  19.046   3.921
63792W        W29019  18.122   0.997   0.415
63793W        W29020   7.608  24.682   2.282
63794W        W29021  19.869  12.233   0.381
63795W        W29022   4.346  44.943   0.825
63796W        W29023  10.338  42.223   2.833
63797W        W29024  33.056   4.738  13.033
63798W        W29025  30.535  32.668   3.193
63799W        W29026   5.661   1.357   1.893
63800W        W29027  20.531  41.134   2.770
63801W        W29028  38.508  36.494   1.278
63802W        W29029   8.503  14.348   0.850
63803W        W29030   1.027   1.186   1.899
63804W        W29031  22.820  16.117  11.741
63805W        W29032  15.352  38.957  10.049
63806W        W29033   8.403  34.865  10.138
63807W        W29034  13.730  25.012   3.716
63808W        W29035  11.832  41.797   4.112
63809W        W29036   8.341  42.823   3.301
63810W        W29037  30.858  25.795   4.692
63811W        W29038  29.374  10.932   3.553
63812W        W29039   9.729  12.630   4.767
63813W        W29040  35.348  12.380   2.597
63814W        W29041  19.980   0.864  10.084
63815W        W29042   5.673  26.955   4.299
63816W        W29043  10.001  37.540   5.071
63817W        W29044  39.838  30.852   2.287
63818W        W29045  18.136   9.300   3.251
63819W        W29046   7.163  29.452   2.462
63820W        W29047  39.814  42.696   4.197
63821W        W29048  32.152   1.535  11.798
63822W        W29049  30.724  19.701  10.802
63823W        W29050  21.944  43.290   1.876
63824W        W29051  36.913  39.863   2.370
63825W        W29052   9.204  16.747  13.462
63826W        W29053   2.433  14.329   3.569
63827W        W29054   6.179  22.623  12.480
63828W        W29055  26.567   8.906  11.534
63829W        W29056  19.087  21.035   1.248
63830W        W29057  31.652   5.627  12.367
63831W        W29058  33.915  15.137   2.239
63832W        W29059  13.886  35.995   1.516
63833W        W29060   8.279  31.817   1.683
63834W        W29061   4.195   2.509   3.243
63835W        W29062   1.722  23.848   3.868
63836W        W29063  33.006  22.018  13.428
63837W        W29064  14.219  27.695  14.569
63838W        W29065   7.531  42.435   1.619
63839W        W29066  42.431  39.491  10.594
63840W        W29067  32.047  26.426  13.979
63841W        W29068  22.403   5.334   4.516
63842W        W29069  17.671   2.411   2.915
63843W        W29070  34.791   4.825  14.825
63844W        W29071  24.161   3.469  14.434
63845W        W29072  22.312   0.350  11.246
63846W        W29073  32.823  44.012   0.243
63847W        W29074  14.355  26.003  14.858
63848W        W29075  38.467  26.122  12.947
63849W        W29076   8.373  20.754   0.539
63850W        W29077   5.758  28.101   0.318
63851W        W29078  17.431   9.062   1.917
63852W        W29079  20.856  33.166  12.502
63853W        W29080  36.658  24.004   4.115
63854W        W29081  30.656  20.153   0.200
63855W        W29082  24.571  24.518   1.809
63856W        W29083  11.307  14.725   3.229
63857W        W29084   2.016  33.902  10.733
63858W        W29085  27.151  21.287  11.504
63859W        W29086  13.716   9.814   1.625
63860W        W29087   8.560  24.288  13.462
63861W        W29088  21.511  44.829  11.086
63862W        W29089  38.853  32.799  14.367
63863W        W29090  42.345  43.837  12.360
63864W        W29091   7.710  19.751  13.817
63865W        W29092  12.124  18.673   0.928
63866W        W29093  27.502  40.592   0.267
63867W        W29094  43.487  19.347  12.357
63868W        W29095  40.337   0.705   0.751
63869W        W29096   4.670  29.679   4.592
63870W        W29097  39.707  40.440   0.803
63871W        W29098  34.128  35.286   4.465
63872W        W29099  14.584  37.049   1.416
63873W        W29100  10.001  37.890   0.797
63874W        W29101  31.745   8.838  11.677
63875W        W29102   2.853  43.995  14.206
63876W        W29103  30.949  25.615  14.611
63877W        W29104  28.865  21.325  13.848
63878W        W29105   9.692  20.768   3.872
63879W        W29106  22.460  40.937  14.938
63880W        W29107  33.391   7.910   2.372
63881W        W29108  22.015  23.480   0.816
63882W        W29109   6.916  44.273   0.537
63883W        W29110  39.944  32.089   1.667
63884W        W29111  26.635  30.644   3.624
63885W        W29112  22.557  33.472  10.311
63886W        W29113   7.497   2.781  12.086
63887W        W29114  10.535  14.625   5.392
63888W        W29115  32.994  18.130   0.351
63889W        W29116   8.209   7.191  14.715
63890W        W29117  42.670  40.021   3.830
63891W        W29118  22.054   4.951  14.473
63892W        W29119  39.344   9.254  13.597
63893W        W29120  23.191  23.876  14.923
63894W        W29121  26.637  44.653  11.833
63895W        W29122  31.963  22.196   3.167
63896W        W29123  30.734  26.122   1.269
63897W        W29124  23.189   4.378  12.087
63898W        W29125  26.029  31.058  13.879
63899W        W29126  29.320  15.285  11.262
63900W        W29127  44.014  18.623   4.823
63901W        W29128   3.974  15.290   1.320
63902W        W29129  35.064  34.306   2.719
63903W        W29130   5.118   7.781  14.286
63904W        W29131   4.523  23.494   0.078
63905W        W29132  33.965  37.413   3.118
63906W        W29133  25.438  24.731  10.790
63907W        W29134  39.863  25.183   4.027
63908W        W29135  23.014  28.934  12.597
63909W        W29136  44.862  14.086  14.876
63910W        W29137  34.101  37.597   0.295
63911W        W29138  21.437   4.016  12.984
63912W        W29139   0.679   7.290   3.354
63913W        W29140  16.778  16.537  13.125
63914W        W29141  20.617  29.594   4.537
63915W        W29142   1.280   9.287   4.929
63916W        W29143  41.803  14.638   1.730
63917W        W29144  21.685  20.102   0.375
63918W        W29145  24.886  25.894   0.335
63919W        W29146  15.987  25.808  13.134
63920W        W29147   4.395  19.260  14.387
63921W        W29148  32.365  36.126   0.798
63922W        W29149  10.322  12.377   3.308
63923W        W29150  16.688   6.887  14.798
63924W        W29151  17.876  24.694  14.782
63925W        W29152  35.479   3.969   2.371
63926W        W29153  32.457  19.665   0.380
63927W        W29154  30.622  31.700  14.199
63928W        W29155   0.590   2.397   5.233
63929W        W29156   4.786  12.827  14.235
63930W        W29157  18.174  23.372   3.220
63931W        W29158  40.043  42.457  11.723
63932W        W29159  39.467   3.629  11.539
63933W        W29160  23.001   5.701  11.635
63934W        W29161   3.935   5.124   2.775
63935W        W29162   1.968   8.120   0.608
63936W        W29163  44.899  23.594   9.787
63937W        W29164  33.992  43.961   1.404
63938W        W29165  35.111  10.830   2.266
63939W        W29166   1.654   8.796   2.455
63940W        W29167  19.981   5.872   2.178
63941W        W29168  11.450  38.873   2.802
63942W        W29169   9.843  19.695   0.378
63943W        W29170  43.829   7.412  10.446
63944W        W29171  34.584   2.772  11.541
63945W        W29172  44.550   7.778  10.738
63946W        W29173  41.319  23.824  11.135
63947W        W29174  22.556  15.392  14.510
63948W        W29175   4.163  33.126  11.169
63949W        W29176  11.118  19.606  11.558
63950W        W29177  25.965  44.900  12.523
63951W        W29178  38.891  42.412   1.358
63952W        W29179  22.424  17.290  10.196
63953W        W29180  27.329  19.167  13.548
63954W        W29181  17.910   7.500   4.472
63955W        W29182  19.443  40.525   1.396
63956W        W29183   3.809  37.696   0.422
63957W        W29184  36.492  44.704  10.872
63958W        W29185   0.913   0.721   2.187
63959W        W29186  24.059  19.257  13.502
63960W        W29187   4.586  38.086   3.289
63961W        W29188  30.942  40.049   2.394
63962W        W29189   6.225  14.368  14.339
63963W        W29190   2.626  39.544  11.991
63964W        W29191  27.105  34.772  12.576
63965W        W29192  26.101  16.369   3.711
63966W        W29193   2.346  41.207   2.372
63967W        W29194  32.060   4.824   2.982
63968W        W29195  14.656   2.892   4.167
63969W        W29196  39.985   9.649   0.206
63970W        W29197  29.031   1.501  11.637
63971W        W29198  30.899  43.323  10.691
63972W        W29199  32.719  16.848   4.455
63973W        W29200  24.467  28.136   0.868
63974W        W29201  37.418  17.326   3.115
63975W        W29202  33.726  21.621   3.349
63976W        W29203  19.568   2.954  13.020
63977W        W29204  28.216  31.019   0.960
63978W        W29205  13.915  22.943  11.469
63979W        W29206  37.361  39.177   1.552
63980W        W29207  12.653   3.125   4.565
63981W        W29208  19.144   9.730   0.442
63982W        W29209   1.835  38.402   3.907
63983W        W29210  21.699   0.287   1.307
63984W        W29211  22.687   5.062   2.261
63985W        W29212  23.942  14.336   2.158
63986W        W29213  32.325  22.527  12.691
63987W        W29214  16.278   0.374   1.888
63988W        W29215   1.120   8.091   0.965
63989W        W29216  22.066  22.572  10.593
63990W        W29217  22.026  33.517  10.381
63991W        W29218  40.591   4.807   3.728
63992W        W29219  11.283  42.402   4.399
63993W        W29220  21.263  44.846  11.647
63994W        W29221   8.653  43.177  12.429
63995W        W29222   5.742  41.102   2.332
63996W        W29223   7.155  34.164  11.088
63997W        W29224  20.994  20.682  13.013
63998W        W29225   2.267   5.321   1.418
63999W        W29226  44.962   0.906   3.263
64000W        W29227   6.014  35.527   1.875
64001W        W29228   1.202   0.025  10.429
64002W        W29229  40.583  12.834   2.261
64003W        W29230  42.977  26.045  13.210
64004W        W29231  12.779  36.502   0.768
64005W        W29232  25.517  21.000   1.359
64006W        W29233   2.817  31.068   1.814
64007W        W29234  25.784   1.860   1.356
64008W        W29235   4.839  17.397   3.093
64009W        W29236  44.399  25.939   4.523
64010W        W29237  32.081  16.312   2.280
64011W        W29238  44.850  24.224   4.453
64012W        W29239  16.336  17.785  13.775
64013W        W29240  27.663  34.698  13.460
64014W        W29241  30.864  29.282   1.741
64015W        W29242  20.244  34.930   3.054
64016W        W29243  42.248  28.199  11.228
64017W        W29244  34.568  42.308   4.709
64018W        W29245  32.123  41.436  13.999
64019W        W29246  28.422  42.446   2.064
64020W        W29247  14.695  41.982  12.075
64021W        W29248   7.998  14.411  13.974
64022W        W29249   2.398  14.632  11.546
64023W        W29250  21.341  29.093   4.812
64024W        W29251  36.215  31.026  14.843
64025W        W29252  32.389  18.662   4.083
64026W        W29253  32.591  21.505   0.680
64027W        W29254   9.132   1.053  11.208
64028W        W29255  38.464  21.266  10.969
64029W        W29256  16.573  32.595  13.913
64030W        W29257   0.387  13.663   3.284
64031W        W29258  36.145  35.950   2.228
64032W        W29259  25.629  11.403   1.483
64033W        W29260   8.943  11.146  13.494
64034W        W29261   4.905   3.509  11.108
64035W        W29262  14.558   7.853  13.630
64036W        W29263  20.428  27.353   2.834
64037W        W29264  41.863  40.989   2.694
64038W        W29265   9.912   6.309   2.358
64039W        W29266  14.740  27.899   3.544
64040W        W29267  18.450  35.352  11.746
64041W        W29268  28.916  27.397   0.534
64042W        W29269  32.159  31.986  13.839
64043W        W29270  16.259   6.269  14.521
64044W        W29271  25.158  34.118  14.820
64045W        W29272  32.485  32.304  14.801
64046W        W29273   3.961   3.514  10.085
64047W        W29274  22.047  30.148   1.376
64048W        W29275  19.671  18.772  13.011
64049W        W29276  14.798   4.899   4.168
64050W        W29277   0.014  36.954  14.278
64051W        W29278  11.663  19.000   1.798
64052W        W29279  16.254   7.147   0.772
64053W        W29280  12.271   9.976  12.981
64054W        W29281  22.045  43.215   0.303
64055W        W29282  18.302  17.660  10.673
64056W        W29283   4.884  35.726  12.940
64057W        W29284  41.841  37.425  13.834
64058W        W29285  18.110   9.497   1.594
64059W        W29286  36.851  12.242   1.060
64060W        W29287  31.160  34.356  12.899
64061W        W29288  25.661  15.943   4.748
64062W        W29289   0.758  29.078   3.335
64063W        W29290  34.077   5.776  11.733
64064W        W29291  25.205  42.320  11.186
64065W        W29292  13.641   3.107  11.669
64066W        W29293   8.776  16.037  14.839
64067W        W29294  16.809  27.489   0.976
64068W        W29295  21.614  36.124   4.101
64069W        W29296  17.318   8.608   1.732
64070W        W29297  31.954  19.731  13.250
64071W        W29298  43.726  21.153   4.573
64072W        W29299  39.438   3.364   4.492
64073W        W29300  13.020  38.969  10.769
64074W        W29301  22.108  20.877   2.343
64075W        W29302  21.619  39.695   0.027
64076W        W29303  13.867   5.626  11.181
64077W        W29304   7.866  12.928   4.983
64078W        W29305   7.696  36.514  11.186
64079W        W29306  39.960  14.663  11.061
64080W        W29307  17.621  40.838   2.391
64081W        W29308   4.496  11.312   2.226
64082W        W29309  28.921  15.808  10.726
64083W        W29310  13.187  16.098   4.076
64084W        W29311  22.897  33.275   3.498
64085W        W29312  38.868  35.100  11.279
64086W        W29313  42.193  15.283  14.351
64087W        W29314   8.953  37.471  14.858
64088W        W29315  42.218  19.213   5.322
64089W        W29316  43.580  11.869   0.768
64090W        W29317   0.718  43.059  11.625
64091W        W29318  38.363  35.636   3.265
64092W        W29319  11.900   4.798   2.104
64093W        W29320  39.382  18.750   1.149
64094W        W29321  32.846   2.400  12.425
64095W        W29322  39.023  30.532   1.114
64096W        W29323   1.638   9.602   0.968
64097W        W29324  23.179   4.706  11.662
64098W        W29325  43.765   4.441  11.174
64099W        W29326  13.075  20.241  12.395
64100W        W29327  11.254  33.081  12.201
64101W        W29328  35.028   3.742   2.521
64102W        W29329  32.914  32.375  14.522
64103W        W29330  38.521   4.156  12.970
64104W        W29331  17.730  19.420   0.195
64105W        W29332  10.280  30.393   3.241
64106W        W29333  39.512  27.640  13.934
64107W        W29334  30.951  22.689  13.797
64108W        W29335  13.986  25.046   2.817
64109W        W29336  36.006  43.574   2.675
64110W        W29337  23.638  19.653   0.952
64111W        W29338  15.528  13.393   3.693
64112W        W29339  34.928  37.397  14.896
64113W        W29340  11.756  12.991  11.516
64114W        W29341  20.585   5.410  14.406
64115W        W29342  20.444  18.631   4.127
64116W        W29343  32.371  20.649   0.875
64117W        W29344   3.789  42.313  12.033
64118W        W29345  15.996  41.021  13.965
64119W        W29346  14.305  39.682   1.783
64120W        W29347   7.680  36.793  13.624
64121W        W29348   2.471  38.608  14.400
64122W        W29349  38.018  16.271  13.100
64123W        W29350   2.253   4.704  12.607
64124W        W29351  31.616   3.906  11.535
64125W        W29352   7.407   8.901  12.415
64126W        W29353  10.736  10.176   1.496
64127W        W29354  19.525  31.054   3.238
64128W        W29355  34.762   7.381   1.137
64129W        W29356  11.679  31.604  14.473
64130W        W29357   9.183  42.270   1.380
64131W        W29358   8.092  34.968   3.267
64132W        W29359  36.444  42.689  11.937
64133W        W29360  37.803  18.486   3.853
64134W        W29361  19.693  19.144   1.973
64135W        W29362  26.407   0.400  10.795
64136W        W29363  39.515  24.963  14.506
64137W        W29364  15.841  27.963   1.519
64138W        W29365  27.868   6.245   2.832
64139W        W29366  38.057  19.042   1.201
64140W        W29367  24.232  38.325  11.413
64141W        W29368  33.545  38.333   4.881
64142W        W29369  15.240  17.526   1.441
64143W        W29370  31.095  40.828  14.453
64144W        W29371  32.924  44.898   0.393
64145W        W29372  42.918  24.268  13.547
64146W        W29373  19.083  34.940  10.670
64147W        W29374  34.415  30.065  14.391
64148W        W29375   7.883  39.274  13.253
64149W        W29376  44.705   9.280   1.894
64150W        W29377  29.106   1.793   0.047
64151W        W29378  22.227  26.739   0.360
64152W        W29379  14.749  31.469   3.444
64153W        W29380  34.779  43.396   3.141
64154W        W29381  44.133   3.456   0.791
64155W        W29382  43.256  41.428   3.156
64156W        W29383  22.795   8.753   1.939
64157W        W29384  44.594  16.010   5.059
64158W        W29385  20.688  41.120  11.502
64159W        W29386  17.599  30.070   3.990
64160W        W29387  33.552  13.312  13.527
64161W        W29388  36.502  23.128   4.283
64162W        W29389  17.039  16.780   2.494
64163W        W29390  26.938   6.795  12.105
64164W        W29391  35.246   5.735   1.958
64165W        W29392   4.836  21.576   2.789
64166W        W29393  25.172  38.554   1.677
64167W        W29394   1.901   1.398   1.709
64168W        W29395  20.155  39.009   0.033
64169W        W29396  28.857  36.499  13.894
64170W        W29397  37.192  14.684  11.305
64171W        W29398  36.084  27.066   3.196
64172W        W29399   2.084  24.427  10.319
64173W        W29400  17.533  43.458   1.847
64174W        W29401  40.590  16.075   4.327
64175W        W29402   5.407  15.090  11.176
64176W        W29403  24.783   3.850   4.610
64177W        W29404  44.272  29.180  13.518
64178W        W29405  15.691  32.367   9.735
64179W        W29406  26.985  38.273  14.303
64180W        W29407   7.956  31.486  11.621
64181W        W29408   3.283  27.579   1.908
64182W        W29409  23.765   1.210  11.622
64183W        W29410  40.281  16.654  13.154
64184W        W29411  34.541   7.669  14.448
64185W        W29412  12.138  27.647  11.766
64186W        W29413  22.165  24.570   4.245
64187W        W29414   7.286  24.720  11.324
64188W        W29415  11.301  10.638  13.407
64189W        W29416  39.467   4.704   9.606
64190W        W29417  29.570   6.033   4.686
64191W        W29418  18.389  29.915  11.076
64192W        W29419   6.666   9.671  12.608
64193W        W29420  41.637   7.621  12.557
64194W        W29421  15.490  33.576  11.018
64195W        W29422  36.640  21.211   4.702
64196W        W29423  37.065  15.969  11.647
64197W        W29424  41.828  29.879  10.665
64198W        W29425  22.206  32.756  12.368
64199W        W29426   7.270  24.007  14.774
64200W        W29427   1.742  28.164   3.984
64201W        W29428  42.250  17.237   3.606
64202W        W29429  16.051  30.530   1.364
64203W        W29430  21.536   4.166  10.661
64204W        W29431  20.419  42.901  11.706
64205W        W29432   3.198   7.450  12.146
64206W        W29433  10.201  20.152  14.978
64207W        W29434  32.119  33.142   4.347
64208W        W29435  21.792  29.987   3.528
64209W        W29436  13.519  28.646   0.421
64210W        W29437  11.586  30.085   4.632
64211W        W29438  33.020  28.610   0.737
64212W        W29439   2.326  28.053  13.593
64213W        W29440  15.612  38.081   2.371
64214W        W29441  23.523  43.957   0.206
64215W        W29442  34.653  14.764   9.803
64216W        W29443   4.872  11.239  11.051
64217W        W29444  42.305   5.228  12.442
64218W        W29445  12.618   7.851  13.056
64219W        W29446  28.180  44.841   0.441
64220W        W29447  23.453  17.607  10.464
64221W        W29448  26.033  24.422   2.308
64222W        W29449   2.227  37.445  14.990
64223W        W29450  19.047   8.438  14.830
64224W        W29451   1.022  39.360   4.417
64225W        W29452  35.229  44.487   3.576
64226W        W29453   7.633  19.080  14.383
64227W        W29454  28.056  21.828   3.825
64228W        W29455  35.842   3.365   0.254
64229W        W29456  15.617  32.129  11.921
64230W        W29457  19.248  25.065  10.452
64231W        W29458  34.807  10.776  10.810
64232W        W29459  24.146   9.178  12.567
64233W        W29460   1.776  28.049   0.340
64234W        W29461  40.938  32.984  13.639
64235W        W29462   7.192  28.221  13.072
64236W        W29463  14.603  44.717   0.391
64237W        W29464  25.940   5.391   0.372
64238W        W29465  41.980  17.327  14.491
64239W        W29466  35.445   2.177  13.365
64240W        W29467  18.658  25.435   3.294
64241W        W29468   4.127  36.390   4.362
64242W        W29469  13.703   3.435   4.033
64243W        W29470   2.570  34.802   1.404
64244W        W29471   1.973  44.592   0.063
64245W        W29472   5.734   5.850  12.916
64246W        W29473  13.078  38.081  11.216
64247W        W29474   2.378  24.050   3.218
64248W        W29475  39.832  37.895  11.545
64249W        W29476  21.314  36.111  14.424
64250W        W29477  13.593  39.805  14.156
64251W        W29478   1.433   1.520  14.922
64252W        W29479  35.857  41.810  10.798
64253W        W29480  12.799   8.723   3.141
64254W        W29481  40.770  37.457   2.812
64255W        W29482   8.976  10.526   3.155
64256W        W29483  22.647  31.927  11.888
64257W        W29484  14.666  23.990   3.559
64258W        W29485  28.157  16.736   3.223
64259W        W29486  37.727  22.788   5.033
64260W        W29487  27.146  26.678  10.071
64261W        W29488  37.713  40.952   3.715
64262W        W29489  33.817  12.837   0.785
64263W        W29490   0.436  22.144   0.488
64264W        W29491  12.293  29.740  12.372
64265W        W29492  21.011  10.561   3.205
64266W        W29493   7.326  32.867   3.135
64267W        W29494  12.193  21.211   3.376
64268W        W29495  22.493   6.904  11.811
64269W        W29496  18.114  31.466   4.469
64270W        W29497  33.935   4.940  10.634
64271W        W29498  26.527   1.883  11.204
64272W        W29499  32.508  29.953   2.583
64273W        W29500  16.826  11.706   3.552
64274W        W29501   6.026  26.385  13.835
64275W        W29502  44.965  11.607  12.116
64276W        W29503   1.501  36.035   3.293
64277W        W29504  40.403  34.026  10.568
64278W        W29505  24.740  37.368   1.385
64279W        W29506  38.989  40.436  10.161
64280W        W29507  33.829   1.257   1.341
64281W        W29508  16.708  39.836  10.866
64282W        W29509  17.626   5.859  13.364
64283W        W29510  37.640  22.745   3.714
64284W        W29511  26.653  12.361  12.014
64285W        W29512  44.477  18.245   1.925
64286W        W29513   0.345  38.463   4.170
64287W        W29514  17.329  14.124  13.072
64288W        W29515  31.962  40.449   4.195
64289W        W29516  29.962   1.293  11.225
64290W        W29517  17.148   6.626   2.905
64291W        W29518  30.183  28.563  10.742
64292W        W29519   1.021  14.692   0.678
64293W        W29520   5.584  27.499   3.288
64294W        W29521   1.006  34.205   4.146
64295W        W29522  43.312  28.086   2.230
64296W        W29523  10.536  40.889  10.418
64297W        W29524   9.138   3.766  12.098
64298W        W29525  32.348  33.923  14.937
64299W        W29526  30.195  22.531   1.585
64300W        W29527  39.361  30.153  14.872
64301W        W29528  29.464  20.570   0.845
64302W        W29529  32.315  37.554  11.669
64303W        W29530   5.222  10.780   3.328
64304W        W29531  26.654  30.220  12.071
64305W        W29532  22.004  21.106   3.145
64306W        W29533  13.193  44.008  10.584
64307W        W29534  35.408  15.242  13.481
64308W        W29535  24.066  13.215   0.498
64309W        W29536  31.859   6.610  13.392
64310W        W29537  13.419  24.624   1.659
64311W        W29538  28.383  19.368   5.116
64312W        W29539  27.424  33.256  11.644
64313W        W29540  33.043  16.790  11.222
64314W        W29541   3.500   9.432  13.786
64315W        W29542  40.102  26.132  14.895
64316W        W29543  12.608  21.229   3.721
64317W        W29544  43.285  23.490   0.770
64318W        W29545  29.413   1.725   0.486
64319W        W29546  37.903  20.191   0.580
64320W        W29547  25.669  24.303   0.918
64321W        W29548  14.692   4.218   1.950
64322W        W29549  25.071  42.076   4.654
64323W        W29550  37.304  37.519   2.277
64324W        W29551  36.801  28.212   4.548
64325W        W29552   7.344   8.218   4.570
64326W        W29553  29.197  17.806   1.966
64327W        W29554  10.685  27.226  10.674
64328W        W29555  23.639  33.411  12.582
64329W        W29556  11.715  12.520   2.300
64330W        W29557  14.118  41.307   2.807
64331W        W29558  28.562   9.029   0.937
64332W        W29559  27.720   9.424  11.721
64333W        W29560  18.602  12.809  10.362
64334W        W29561  43.685  33.508  14.972
64335W        W29562  34.583  13.065  11.465
64336W        W29563   4.088   1.633   4.726
64337W        W29564   9.191  44.422   0.775
64338W        W29565  23.255   4.034   4.524
64339W        W29566  20.850  31.299  11.531
64340W        W29567  33.294  19.209  14.264
64341W        W29568  19.713  44.007   1.427
64342W        W29569  29.487   3.368  11.267
64343W        W29570   3.019  20.006  12.159
64344W        W29571   6.844  40.962   4.111
64345W        W29572  26.966  10.865   3.773
64346W        W29573  14.178  17.439   3.647
64347W        W29574  12.257  31.651   0.279
64348W        W29575   2.272  41.941  12.393
64349W        W29576   5.675   0.900   2.333
64350W        W29577  25.535  27.918  10.307
64351W        W29578  37.560  41.843  11.213
64352W        W29579  38.538  16.594  14.949
64353W        W29580   9.325  40.066   1.882
64354W        W29581  28.193  24.339   3.213
64355W        W29582  18.228   9.922  11.611
64356W        W29583  18.817  34.444  11.656
64357W        W29584  11.819  42.271  10.850
64358W        W29585  35.642  21.248  11.461
64359W        W29586  39.219  36.599  11.629
64360W        W29587  17.809  27.538   4.739
64361W        W29588  35.091   9.332  13.754
64362W        W29589  21.757  10.812   3.584
64363W        W29590  43.063  35.460  11.271
64364W        W29591   6.424  43.309   5.382
64365W        W29592  29.553  33.958   1.131
64366W        W29593  34.970   1.978  11.632
64367W        W29594  33.094  18.900   4.143
64368W        W29595  36.037  12.915  13.649
64369W        W29596  40.260  21.700   0.291
64370W        W29597   9.731  41.637   4.600
64371W        W29598  44.336  12.683   3.969
64372W        W29599  10.877  36.124   3.569
64373W        W29600  40.210   3.157   0.935
64374W        W29601   8.974  19.211   2.440
64375W        W29602   6.444  18.630   5.222
64376W        W29603  18.230   8.496  14.404
64377W        W29604   2.575  28.916   2.507
64378W        W29605  37.541  41.061   1.276
64379W        W29606  33.099   4.623  10.188
64380W        W29607   6.429   7.679   1.876
64381W        W29608  32.274  37.012  12.536
64382W        W29609   6.884  33.593  12.089
64383W        W29610  18.631  14.278  12.435
64384W        W29611  20.634  29.504  14.301
64385W        W29612  14.558   8.233   4.513
64386W        W29613  13.653   6.774  14.070
64387W        W29614  23.322  34.536  13.370
64388W        W29615   0.919  37.792  12.071
64389W        W29616  16.809  18.725   4.437
64390W        W29617  17.296  20.444  14.402
64391W        W29618   4.345   7.187  14.799
64392W        W29619  33.151  28.091  10.787
64393W        W29620  18.416  38.973   4.292
64394W        W29621   9.295  25.645  12.560
64395W        W29622   1.681  16.105   0.930
64396W        W29623  26.689  17.723  12.801
64397W        W29624  29.471  40.520  14.838
64398W        W29625   9.755  13.743   2.247
64399W        W29626  17.206  16.276   1.847
64400W        W29627  14.139  18.598   5.193
64401W        W29628  40.662  28.579  11.500
64402W        W29629  34.569  23.193  14.392
64403W        W29630  26.028   8.268  10.686
64404W        W29631  20.730  12.763  12.991
64405W        W29632  21.612   8.907  11.943
64406W        W29633  12.229   1.211   4.585
64407W        W29634  25.611  25.995   4.893
64408W        W29635   5.132  10.223  13.079
64409W        W29636  30.524  27.451   1.619
64410W        W29637   3.840   9.045   4.931
64411W        W29638   9.761  10.811   0.458
64412W        W29639  41.317  10.751   3.210
64413W        W29640  25.142  31.536   2.462
64414W        W29641  32.083  34.962   2.102
64415W        W29642  44.796   4.726   1.466
64416W        W29643   0.677  21.165   3.077
64417W        W29644  22.620  19.518  11.173
64418W        W29645  29.002  22.282   4.531
64419W        W29646  26.259   3.662   1.664
64420W        W29647  10.825   8.825   4.683
64421W        W29648  18.717   0.477  11.215
64422W        W29649  38.354  43.793   2.684
64423W        W29650  42.173  31.137   3.967
64424W        W29651  42.404  24.699   3.031
64425W        W29652  20.972  16.638  11.733
64426W        W29653  34.381   2.622  12.007
64427W        W29654   7.749   4.208   0.821
64428W        W29655  37.906   5.027  13.859
64429W        W29656  10.711  38.352   2.683
64430W        W29657  24.681  24.964   2.983
64431W        W29658  43.900  30.950   0.657
64432W        W29659   7.331  42.733  13.482
64433W        W29660  36.951  26.667   2.821
64434W        W29661  24.468   8.358  12.509
64435W        W29662  19.677  38.931  10.692
64436W        W29663  20.682  44.960  12.862
64437W        W29664  43.804  23.943  14.023
64438W        W29665  21.797  25.177   1.923
64439W        W29666   7.583  29.660   4.308
64440W        W29667  16.302  37.100  12.083
64441W        W29668  25.066  17.743   3.973
64442W        W29669  11.681   3.811  10.943
64443W        W29670  44.189  12.552  10.064
64444W        W29671  44.025  19.049   4.523
64445W        W29672  16.012   4.929  13.386
64446W        W29673  27.944  18.941  11.396
64447W        W29674  20.235  42.921   3.473
64448W        W29675   6.361   7.345  14.436
64449W        W29676  35.087  13.778  12.533
64450W        W29677  29.866  31.119   4.769
64451W        W29678  34.490  35.408   4.105
64452W        W29679  38.854  43.588   0.004
64453W        W29680  40.403  23.095   4.063
64454W        W29681  30.688  28.019  10.350
64455W        W29682  30.954   0.209   0.760
64456W        W29683  41.999   8.257   4.699
64457W        W29684  38.716   3.877   4.890
64458W        W29685  11.465  34.932  11.041
64459W        W29686  19.062  16.198   4.366
64460W        W29687  10.116   6.896  10.758
64461W        W29688   1.892  34.434   1.815
64462W        W29689   1.919  14.811  11.627
64463W        W29690  28.831  39.564  12.572
64464W        W29691   5.815  38.539   3.652
64465W        W29692  32.599  18.870  11.678
64466W        W29693   0.371  33.843  10.993
64467W        W29694  40.924  30.984  13.856
64468W        W29695  43.883  25.559   1.609
64469W        W29696   3.243   0.924   2.831
64470W        W29697  43.941  36.784   0.801
64471W        W29698  33.964  38.989  14.744
64472W        W29699  22.689  41.025   0.813
64473W        W29700  40.460   2.382   1.278
64474W        W29701  35.066  41.684  11.149
64475W        W29702  34.404  17.552   3.351
64476W        W29703  34.918  16.356   3.832
64477W        W29704  36.724   2.526   4.580
64478W        W29705  37.142  16.241   1.841
64479W        W29706  27.625  22.145   1.807
64480W        W29707  23.137  42.818   4.496
64481W        W29708  17.775   1.817   0.697
64482W        W29709  27.633  25.220  14.279
64483W        W29710   8.084  26.528  11.147
64484W        W29711  34.879  43.463  12.491
64485W        W29712  28.512  42.361   3.979
64486W        W29713   7.524  33.889   3.917
64487W        W29714  39.245  10.130   0.367
64488W        W29715  27.724  43.304  14.348
64489W        W29716  11.316  13.693  14.873
64490W        W29717  37.581  36.947  14.712
64491W        W29718  18.446  11.115   4.079
64492W        W29719  26.171  30.039  11.994
64493W        W29720  24.532  43.348   4.257
64494W        W29721   0.841  25.265   4.113
64495W        W29722  44.927  10.210  10.626
64496W        W29723  40.435  26.212  14.485
64497W        W29724  44.782  40.027  13.045
64498W        W29725   9.928  22.538  10.515
64499W        W29726  16.168   5.721  14.820
64500W        W29727   7.505   7.226   0.305
64501W        W29728  18.877  42.557  14.468
64502W        W29729  23.236  24.282  12.075
64503W        W29730  34.054  12.253   0.397
64504W        W29731  10.666  44.911  10.341
64505W        W29732  11.681  16.963   0.876
64506W        W29733  10.653  23.484   4.106
64507W        W29734  13.187  13.504  12.953
64508W        W29735   5.542  10.764  11.524
64509W        W29736   0.331  40.954  13.612
64510W        W29737  11.258   2.538  14.503
64511W        W29738   8.126  22.685   4.496
64512W        W29739  36.890  35.013  14.245
64513W        W29740  38.069  21.707  12.912
64514W        W29741   3.253  24.732  11.140
64515W        W29742  39.326  38.509   3.254
64516W        W29743   1.886  37.927  12.855
64517W        W29744  21.035  17.720  12.526
64518W        W29745  40.331   9.754  10.641
64519W        W29746  31.011  35.085   5.421
64520W        W29747  30.173  40.304   0.852
64521W        W29748   2.087  34.640  10.151
64522W        W29749  32.568  20.881  13.892
64523W        W29750   0.179   7.746  12.871
64524W        W29751  22.723  35.262  13.806
64525W        W29752   1.771   6.802  13.470
64526W        W29753  25.472  13.327   0.887
64527W        W29754  38.936  13.854  14.059
64528W        W29755   8.776  24.672  12.510
64529W        W29756  34.781  28.620  14.856
64530W        W29757  41.338  10.748   4.305
64531W        W29758   6.453  27.992   4.636
64532W        W29759  28.550   0.689   1.294
64533W        W29760  23.779  42.375  14.843
64534W        W29761  16.558   2.414  14.764
64535W        W29762  28.542  42.707   3.128
64536W        W29763  36.418   2.549  12.405
64537W        W29764  16.304   3.382   0.842
64538W        W29765  27.461   3.279  12.948
64539W        W29766  38.064  19.125  14.317
64540W        W29767  43.732  40.393  12.181
64541W        W29768  39.232   6.613  14.043
64542W        W29769  12.017  32.942   3.193
64543W        W29770  25.532  25.556  10.978
64544W        W29771  13.316  22.179   4.224
64545W        W29772  22.496  44.401   3.743
64546W        W29773  23.542  16.412  14.764
64547W        W29774   9.353  14.223   4.210
64548W        W29775  32.381  38.854   4.136
64549W        W29776  29.947  23.778  13.462
64550W        W29777   8.222  33.466   4.480
64551W        W29778  25.246  11.240   2.856
64552W        W29779  34.576   9.257   3.729
64553W        W29780   5.333   5.898   3.891
64554W        W29781  25.542   8.759  13.318
64555W        W29782  39.086  25.236   3.452
64556W        W29783  42.695  24.097  12.708
64557W        W29784  15.716  25.195   3.203
64558W        W29785  12.826   1.341  13.012
64559W        W29786  25.511  20.789  10.217
64560W        W29787   0.731  18.063  12.937
64561W        W29788  13.295  16.889   2.677
64562W        W29789  28.093  22.647  11.171
64563W        W29790  38.276   9.092   3.585
64564W        W29791  31.602  20.751   0.034
64565W        W29792  20.174  39.729   5.113
64566W        W29793  18.317  10.874  13.338
64567W        W29794  34.328   8.823   2.738
64568W        W29795  13.741  35.605   4.156
64569W        W29796  25.383  38.300   4.055
64570W        W29797  15.303  26.650  11.644
64571W        W29798  20.145  34.436   1.650
64572W        W29799  32.645  35.081  13.536
64573W        W29800  12.661  30.788  12.029
64574W        W29801  41.212   3.169  10.709
64575W        W29802  25.430  18.233   2.714
64576W        W29803  39.847  24.437  11.763
64577W        W29804  40.025  11.821  12.925
64578W        W29805  34.409   6.694   4.191
64579W        W29806  16.995  10.747  13.360
64580W        W29807  22.701  25.696   0.764
64581W        W29808  33.810  22.648   3.206
64582W        W29809  30.854  40.239   4.213
64583W        W29810  22.204  35.472  12.618
64584W        W29811  11.348  39.378   1.028
64585W        W29812  42.996  36.200   1.860
64586W        W29813  20.182  32.179   2.416
64587W        W29814  15.105  31.468   3.029
64588W        W29815  39.757  36.971  10.647
64589W        W29816  33.421  29.329   1.155
64590W        W29817  24.627  35.917  13.464
64591W        W29818  12.033   0.483   0.876
64592W        W29819  23.182  26.067  12.143
64593W        W29820   4.309  21.523   2.790
64594W        W29821  41.202   1.191  11.780
64595W        W29822  33.071   3.444  14.471
64596W        W29823  33.365  17.111   0.432
64597W        W29824   9.761  10.364  11.637
64598W        W29825   1.544  14.447  11.826
64599W        W29826  40.219  22.230  14.376
64600W        W29827  32.554  39.548  10.080
64601W        W29828  18.748  37.400   2.384
64602W        W29829  12.281  28.762  13.469
64603W        W29830  13.661  17.009  12.870
64604W        W29831  24.199  41.185  14.452
64605W        W29832   6.446  43.342   0.884
64606W        W29833  29.951  13.639  12.009
64607W        W29834  10.713  11.432  10.746
64608W        W29835  24.997  23.243  13.429
64609W        W29836  30.367  34.962  12.594
64610W        W29837  20.593  39.047  11.645
64611W        W29838  31.526  40.980  12.299
64612W        W29839  42.243  18.377   1.888
64613W        W29840  41.073  14.269  11.568
64614W        W29841  34.088  21.153  13.747
64615W        W29842  15.554  34.600  12.088
64616W        W29843  32.296  42.005  14.899
64617W        W29844   7.432  40.485  11.616
64618W        W29845  35.007   9.719   0.206
64619W        W29846  36.021  41.789  13.461
64620W        W29847  26.394   6.930   4.748
64621W        W29848  20.084  37.157   0.571
64622W        W29849   1.925  14.921   4.048
64623W        W29850  37.449  32.333  10.577
64624W        W29851   7.212  42.259  13.330
64625W        W29852  41.729  36.645   3.720
64626W        W29853  43.235   0.776   4.158
64627W        W29854  10.852  22.653  11.554
64628W        W29855   2.259  37.400   5.010
64629W        W29856  37.415  44.033  13.732
64630W        W29857  30.663   7.016  12.064
64631W        W29858  21.308  24.211   0.446
64632W        W29859   1.277  36.132  14.372
64633W        W29860  23.522  14.071  14.279
64634W        W29861   5.909   2.086  11.423
64635W        W29862  16.299  14.765  10.744
64636W        W29863  16.231  26.312  11.443
64637W        W29864  44.543  32.955  13.958
64638W        W29865  35.841  11.101  14.561
64639W        W29866  12.876  36.092  12.069
64640W        W29867  31.481  24.057   2.990
64641W        W29868  24.553  24.953  14.472
64642W        W29869  34.282  29.966  12.673
64643W        W29870  23.653  43.610   2.707
64644W        W29871  39.802   1.312   0.528
64645W        W29872   5.981  17.885  11.612
64646W        W29873  19.572  30.044  12.003
64647W        W29874  12.901   6.774   1.770
64648W        W29875  36.529   6.590  11.977
64649W        W29876  42.328   8.502  12.546
64650W        W29877   3.159  16.783  10.582
64651W        W29878   1.977  26.544  12.515
64652W        W29879  34.075  40.877  14.418
64653W        W29880  42.700   6.010   0.762
64654W        W29881  31.602  34.489  11.321
64655W        W29882  13.156   2.439  14.591
64656W        W29883   0.175  31.699   1.363
64657W        W29884  34.990  42.175  11.159
64658W        W29885  12.302  43.703  12.504
64659W        W29886  16.124  14.574  11.988
64660W        W29887   7.464  36.557  14.034
64661W        W29888  11.661  21.203   2.024
64662W        W29889  24.675  23.455  14.464
64663W        W29890  42.579  30.067   3.343
64664W        W29891  15.139  35.013  12.085
64665W        W29892  41.175   8.027   0.185
64666W        W29893   5.120  24.410  11.776
64667W        W29894  28.578   1.337  13.810
64668W        W29895  14.424  15.355  11.658
64669W        W29896   6.723  33.525  11.586
64670W        W29897   2.683  13.980   2.591
64671W        W29898  32.453   2.205   0.058
64672W        W29899  40.604   7.287  12.559
64673W        W29900  44.764  42.967  11.971
64674W        W29901  28.042  14.738   4.296
64675W        W29902   2.756  21.238   2.752
64676W        W29903  15.882  14.570  11.534
64677W        W29904   1.831  12.444   1.842
64678W        W29905  28.644  33.507   0.322
64679W        W29906  41.099  20.148  13.056
64680W        W29907  19.697   4.257  12.869
64681W        W29908  20.714  37.483  11.610
64682W        W29909  25.014  43.630   0.748
64683W        W29910  42.610  32.489  14.003
64684W        W29911  27.725  29.932  12.384
64685W        W29912  23.854   5.508  12.535
64686W        W29913  35.165  19.980   4.158
64687W        W29914   9.990  43.019  13.052
64688W        W29915  44.674   2.416  13.132
64689W        W29916  44.970   7.789   4.633
64690W        W29917   3.196   2.575  11.980
64691W        W29918  12.847   0.758   4.073
64692W        W29919  17.502  34.640   0.942
64693W        W29920  19.318  12.919  13.401
64694W        W29921  25.518   0.056  14.929
64695W        W29922  13.605   7.903  11.608
64696W        W29923  32.437   6.450  13.781
64697W        W29924  18.664  34.788  14.406
64698W        W29925  11.997  15.596  10.701
64699W        W29926  36.590   0.911   4.059
64700W        W29927   0.151   3.313  11.419
64701W        W29928  10.473  27.048  11.121
64702W        W29929  44.021  17.162   2.201
64703W        W29930  29.891   1.230   4.548
64704W        W29931  29.992  30.687  12.452
64705W        W29932  15.521   6.105   3.843
64706W        W29933  21.484  27.008  10.681
64707W        W29934  22.335  20.135  11.653
64708W        W29935  31.754  16.168  14.275
64709W        W29936  41.433  21.263   3.165
64710W        W29937  25.061  37.100  11.742
64711W        W29938   4.847  31.036  14.749
64712W        W29939  28.624  24.822   1.279
64713W        W29940   1.692  36.770   4.647
64714W        W29941  35.428  13.021   4.649
64715W        W29942  44.779   4.640  13.571
64716W        W29943  25.010  15.015  14.816
64717W        W29944  20.228  24.115  13.774
64718W        W29945   5.222   6.565   1.285
64719W        W29946  17.773  32.930   3.106
64720W        W29947  33.009  14.317  13.886
64721W        W29948  19.463  17.737   3.177
64722W        W29949  20.144  41.993   1.913
64723W        W29950  35.612  43.063  13.888
64724W        W29951   0.950  28.147  12.434
64725W        W29952  28.250  31.836   1.277
64726W        W29953  31.153  12.295  11.682
64727W        W29954  17.216  40.996  10.746
64728W        W29955  11.377  14.379  14.375
64729W        W29956   5.661  38.091  13.671
64730W        W29957  26.058  13.185   0.330
64731W        W29958  27.734  16.857   2.331
64732W        W29959  36.741  10.869   1.882
64733W        W29960  31.655  42.910   2.212
64734W        W29961  20.813  23.925   1.844
64735W        W29962   9.322   9.825  14.171
64736W        W29963  32.344  10.080  11.161
64737W        W29964  22.782  31.095  14.405
64738W        W29965  18.269   5.258  14.913
64739W        W29966  37.292  20.695   3.120
64740W        W29967  20.028   5.452  12.557
64741W        W29968  16.358  19.635  12.978
64742W        W29969  20.991   1.523   4.528
64743W        W29970   9.248   2.702   0.459
64744W        W29971  18.180  25.851  11.555
64745W        W29972  33.446   0.435  12.940
64746W        W29973  34.090  17.950   1.296
64747W        W29974  14.621  26.595  14.591
64748W        W29975  23.560  41.897   1.944
64749W        W29976  27.943  16.277   3.263
64750W        W29977  28.122  43.505  12.572
64751W        W29978  25.873  36.161  10.949
64752W        W29979  16.759   7.013  10.866
64753W        W29980  17.307  44.798  12.733
64754W        W29981  24.204  39.192  13.142
64755W        W29982  27.909  12.819   9.496
64756W        W29983  15.756  16.326   1.763
64757W        W29984  31.691  23.947   3.905
64758W        W29985  31.507  18.501  12.078
64759W        W29986   9.264  17.357   1.866
64760W        W29987   3.716  10.603  12.609
64761W        W29988  12.666   5.714  11.531
64762W        W29989  39.254  34.841   1.975
64763W        W29990  34.994  38.177  14.652
64764W        W29991  34.765   2.243  14.585
64765W        W29992  43.203  30.961  14.879
64766W        W29993  34.829   6.953   0.853
64767W        W29994  43.982  19.667   0.394
64768W        W29995  30.552  31.159   3.006
64769W        W29996   2.055  42.723   3.240
64770W        W29997  19.585  43.348   1.616
64771W        W29998  16.075  30.978  11.975
64772W        W29999  20.647  12.764   2.332
64773W        W30000  25.687  41.086  14.464
64774W        W30001   0.620  33.109  12.895
64775W        W30002  29.106   7.405   4.582
64776W        W30003   2.141  20.093   4.458
64777W        W30004  38.400  43.903   4.537
64778W        W30005  15.182  22.125   1.906
64779W        W30006  19.755  36.405   4.801
64780W        W30007  17.683  31.978  12.807
64781W        W30008   2.344  31.011  13.332
64782W        W30009   5.467  30.991  12.985
64783W        W30010   0.965  18.072   1.727
64784W        W30011  19.723  25.602   2.350
64785W        W30012  38.884   6.742   0.043
64786W        W30013  44.016  21.605   0.712
64787W        W30014  33.372  33.170  14.316
64788W        W30015  20.288  16.057  11.150
64789W        W30016  28.725  29.784   1.398
64790W        W30017  25.187  32.557  13.870
64791W        W30018   0.451  36.675  14.347
64792W        W30019  41.528  43.970   1.918
64793W        W30020  44.730  12.993  13.971
64794W        W30021  32.651  43.869   3.777
64795W        W30022  25.547  43.857   1.455
64796W        W30023  24.189  15.772   1.112
64797W        W30024  29.397   8.119   2.199
64798W        W30025  16.126  37.515  10.673
64799W        W30026  10.163  33.669  12.914
64800W        W30027  35.646  38.840   4.701
64801W        W30028  40.301  37.942   1.369
64802W        W30029  13.469  12.257   2.811
64803W        W30030   1.251  17.910  12.823
64804W        W30031  26.611   7.658  11.081
64805W        W30032  40.096  43.416   2.577
64806W        W30033   3.520  30.904   1.266
64807W        W30034  40.100   5.629   3.120
64808W        W30035   1.152  11.510   3.904
64809W        W30036  19.617  10.940   4.034
64810W        W30037  31.365  13.956   2.834
64811W        W30038  24.182  33.176  13.873
64812W        W30039  15.526  11.088   4.164
64813W        W30040  27.132   9.841   4.858
64814W        W30041  44.865  12.263   3.358
64815W        W30042  27.392  25.738   2.288
64816W        W30043  16.193  41.971   1.626
64817W        W30044  20.568  39.299   3.106
64818W        W30045  23.968  24.014   0.925
64819W        W30046  11.138  32.573  13.328
64820W        W30047  18.634  27.714  11.218
64821W        W30048   5.369  38.613   3.880
64822W        W30049  18.629  37.272   0.749
64823W        W30050  20.634   0.273  11.959
64824W        W30051  29.578  16.908   2.302
64825W        W30052   1.394  37.370  13.330
64826W        W30053  22.787  32.841  12.895
64827W        W30054  32.083  20.772   3.191
64828W        W30055   1.456   9.791  12.228
64829W        W30056  35.405  33.340  10.490
64830W        W30057   0.352  39.008  10.730
64831W        W30058  37.337  44.035   2.254
64832W        W30059  14.840  43.208  10.268
64833W        W30060   3.803  39.737  11.688
64834W        W30061  30.692  24.908   9.625
64835W        W30062  15.493  44.384   5.456
64836W        W30063  36.895  33.862  14.029
64837W        W30064  40.558  25.144   4.977
64838W        W30065  36.942  23.143  12.527
64839W        W30066  18.141  28.580  11.240
64840W        W30067   2.497  44.664   0.111
64841W        W30068   3.338   2.922  10.240
64842W        W30069   6.819   8.711  13.951
64843W        W30070  33.752  26.568  14.344
64844W        W30071  34.376  29.373   2.679
64845W        W30072  37.456  20.673   2.639
64846W        W30073  26.949  39.035   2.173
64847W        W30074   7.817  11.780  13.898
64848W        W30075  44.536   0.834   4.395
64849W        W30076  28.025   8.056  12.155
64850W        W30077  21.594   5.251  14.837
64851W        W30078  18.602  19.924  14.926
64852W        W30079  15.087  40.998  12.454
64853W        W30080  16.181  19.055  11.237
64854W        W30081   7.901   3.458   0.324
64855W        W30082  26.782  42.689  12.852
64856W        W30083  12.225  41.340   2.159
64857W        W30084  11.123   0.016  11.458
64858W        W30085   7.397  30.164  10.800
64859W        W30086  16.716  34.428   3.792
64860W        W30087  10.415  44.547  10.624
64861W        W30088  16.285   3.900  11.972
64862W        W30089   0.416   5.379   4.591
64863W        W30090  14.730  15.292  11.240
64864W        W30091  37.522  10.231   3.638
64865W        W30092  38.826  32.536   3.260
64866W        W30093   3.778  41.724   3.690
64867W        W30094  10.340  18.599   2.828
64868W        W30095  31.377  34.324   3.771
64869W        W30096  12.631  19.646   4.464
64870W        W30097  12.217  22.539  13.917
64871W        W30098  31.773  41.041   0.012
64872W        W30099  33.140   7.951   1.276
64873W        W30100  32.078  11.660  14.724
64874W        W30101  44.751  23.835   3.905
64875W        W30102  15.259  34.159   4.971
64876W        W30103  19.008   1.725  12.278
64877W        W30104  22.351   8.183   4.148
64878W        W30105  31.654  19.294  11.644
64879W        W30106  17.317  41.630  12.858
64880W        W30107  25.408  35.403   0.835
64881W        W30108  44.351  35.837   4.692
64882W        W30109   2.697   2.694   0.408
64883W        W30110  41.872   6.630   0.730
64884W        W30111  38.902  21.584   2.778
64885W        W30112  24.184  24.833  10.829
64886W        W30113  10.736  37.675   3.248
64887W        W30114   8.564  34.437  10.814
64888W        W30115   9.293  14.281   1.505
64889W        W30116   5.881  41.724   1.684
64890W        W30117  44.537  12.259   0.235
64891W        W30118  23.165  25.666   0.501
64892W        W30119   8.927   8.111   2.362
64893W        W30120  15.293  34.643   0.059
64894W        W30121   2.456  38.412  11.562
64895W        W30122  38.000  41.482  13.007
64896W        W30123  14.609   6.152   2.265
64897W        W30124  29.845  23.208  12.431
64898W        W30125  12.856   1.845  12.445
64899W        W30126  28.953  31.562  12.167
64900W        W30127  24.877  41.484  12.034
64901W        W30128  28.884  35.910   4.113
64902W        W30129  40.333   5.920   1.377
64903W        W30130   6.404  16.331  14.068
64904W        W30131   4.474  37.410   3.643
64905W        W30132   5.873  24.499  13.818
64906W        W30133   2.136   4.847   1.947
64907W        W30134  41.564  41.146  12.962
64908W        W30135   8.295  15.232  13.940
64909W        W30136  19.589  35.050   3.771
64910W        W30137   3.875  15.565   1.729
64911W        W30138  15.720  15.389  12.027
64912W        W30139   0.270  15.308  10.770
64913W        W30140  11.091  30.173  14.793
64914W        W30141  36.342  20.605   2.584
64915W        W30142  43.845  11.924  13.753
64916W        W30143  41.995   4.673  13.647
64917W        W30144  33.563  39.110   0.043
64918W        W30145  26.049   0.539   9.874
64919W        W30146  27.546  22.067  11.571
64920W        W30147  19.980  12.767   0.469
64921W        W30148  28.761  33.554  10.975
64922W        W30149  35.782  25.570  12.652
64923W        W30150  42.758  15.623   0.697
64924W        W30151  31.607  22.616   1.864
64925W        W30152  43.961  39.332   3.155
64926W        W30153  34.412  42.389  14.040
64927W        W30154  24.953  29.672   4.153
64928W        W30155  22.319  44.700  14.435
64929W        W30156  32.406   3.850   3.102
64930W        W30157   7.648   0.880   3.833
64931W        W30158  22.503   2.688   4.107
64932W        W30159  14.617  34.703  13.322
64933W        W30160  11.801  18.586  14.772
64934W        W30161  43.108  15.708  10.698
64935W        W30162   1.276  39.075   0.417
64936W        W30163  25.037  13.876  12.362
64937W        W30164  38.770   2.900   4.664
64938W        W30165  18.688  44.980   1.271
64939W        W30166  35.100   8.682   3.188
64940W        W30167   6.433  17.678  12.360
64941W        W30168  10.056  42.581  13.980
64942W        W30169  33.529  19.384  14.685
64943W        W30170  16.723  13.275  11.931
64944W        W30171  38.594   1.218   4.148
64945W        W30172  28.708  29.003   0.709
64946W        W30173  19.121  17.269   0.348
64947W        W30174  37.931   0.476   2.722
64948W        W30175  13.907  36.542   4.290
64949W        W30176  18.040  34.559  10.640
64950W        W30177   2.889   4.913  11.520
64951W        W30178  32.033  21.095   2.168
64952W        W30179  22.999  24.658   0.148
64953W        W30180  18.820   1.310  10.670
64954W        W30181  22.005   2.751  13.852
64955W        W30182  38.753  44.898   0.108
64956W        W30183  17.327  29.170   4.082
64957W        W30184  28.148  39.958  13.033
64958W        W30185   4.417  17.360   1.846
64959W        W30186  39.906  21.099  14.809
64960W        W30187  38.062   6.969   4.736
64961W        W30188  26.906  13.721  14.342
64962W        W30189  28.091  38.463   5.464
64963W        W30190  34.297  14.617   3.534
64964W        W30191  25.676  23.193   3.152
64965W        W30192   2.642   1.509  11.415
64966W        W30193  18.174  37.427   0.959
64967W        W30194  26.049  17.707   0.007
64968W        W30195  27.257  42.251   4.482
64969W        W30196  42.008   8.291   4.190
64970W        W30197  33.918  43.553  12.847
64971W        W30198  42.915  35.899  12.896
64972W        W30199  37.056  16.547  12.327
64973W        W30200   9.373  44.801  11.187
64974W        W30201   4.927  23.832   3.226
64975W        W30202  32.159  44.327   1.311
64976W        W30203  44.909  41.878  12.604
64977W        W30204  27.525  36.100   1.516
64978W        W30205   2.422  35.378   4.600
64979W        W30206  23.061  17.932  10.632
64980W        W30207  17.251   6.376   1.046
64981W        W30208  36.579  34.153  14.320
64982W        W30209  25.271  15.091  13.086
64983W        W30210  15.724  34.047  13.069
64984W        W30211  24.190  24.617   3.511
64985W        W30212  22.525   7.788  12.686
64986W        W30213  36.903  40.909  12.635
64987W        W30214  38.396  24.714   4.941
64988W        W30215  38.786  32.986  12.906
64989W        W30216   0.073  36.426   2.769
64990W        W30217  33.953  26.796   5.092
64991W        W30218  35.860  15.559   4.758
64992W        W30219  34.795  42.015  14.609
64993W        W30220  37.978  25.951  10.903
64994W        W30221  33.829  41.110   0.256
64995W        W30222  31.013  10.635  12.848
64996W        W30223  13.718  41.512  11.730
64997W        W30224  16.508  29.678  14.440
64998W        W30225   9.260  16.438   5.509
64999W        W30226  14.814  20.055   3.461
65000W        W30227  10.317   1.636   3.670
65001W        W30228   0.046  14.607   3.774
65002W        W30229   7.982  43.105   5.058
65003W        W30230  24.594  17.529   3.763
65004W        W30231  39.283   0.437  12.046
65005W        W30232  23.139  43.508   2.154
65006W        W30233  28.565   5.399   0.758
65007W        W30234   3.229  29.727   3.638
65008W        W30235  19.205  15.307  13.090
65009W        W30236  32.874  23.662   2.701
65010W        W30237  42.827  29.675   1.201
65011W        W30238  22.200   3.778   3.287
65012W        W30239   3.018  41.541  11.092
65013W        W30240  22.193   9.682   0.711
65014W        W30241   6.369   4.353  10.608
65015W        W30242  13.311   1.999  14.316
65016W        W30243  44.990   9.583  13.418
65017W        W30244  21.164  19.703  10.537
65018W        W30245   6.374  35.375  14.617
65019W        W30246  25.509   4.232   0.204
65020W        W30247   2.469  14.268  14.722
65021W        W30248   3.341  36.201  11.564
65022W        W30249  37.746   5.737  13.587
65023W        W30250  28.088  40.980   3.675
65024W        W30251  22.815  29.105   4.961
65025W        W30252   5.502  28.156   3.732
65026W        W30253   3.283  38.783   3.961
65027W        W30254  38.743  17.289  12.126
65028W        W30255  43.779   3.741  12.530
65029W        W30256  13.765  35.814  13.290
65030W        W30257   1.206  23.021  14.878
65031W        W30258  34.315  18.330   4.651
65032W        W30259  15.758   2.697   0.413
65033W        W30260  36.860  39.517   3.125
65034W        W30261  26.391  34.788   4.618
65035W        W30262   3.275   4.131  11.638
65036W        W30263  43.239  23.078  13.064
65037W        W30264  10.294   7.291   0.971
65038W        W30265  41.788  39.476   1.269
65039W        W30266   2.850  15.809   2.479
65040W        W30267   1.953  39.380   2.678
65041W        W30268  36.155  22.312   4.206
65042W        W30269  23.161  31.943  11.183
65043W        W30270  34.313  28.343   2.793
65044W        W30271  26.263   0.245   4.761
65045W        W30272   0.326  16.837   0.194
65046W        W30273  10.869  42.521   2.529
65047W        W30274  36.370  30.041  11.532
65048W        W30275  44.971   9.311   0.370
65049W        W30276  15.547  32.528  12.244
65050W        W30277  36.838  44.404  11.166
65051W        W30278  38.814   3.743  12.165
65052W        W30279   4.795  43.987  13.152
65053W        W30280  24.248  33.561   3.817
65054W        W30281  39.850  44.271   4.596
65055W        W30282  26.973  35.685  10.438
65056W        W30283   4.477  44.908   4.198
65057W        W30284  42.010  35.905  13.912
65058W        W30285  22.717  42.560   4.699
65059W        W30286   4.971   8.300   4.749
65060W        W30287  21.658  24.138   2.832
65061W        W30288  34.818  19.980   3.374
65062W        W30289  12.267  29.158  14.945
65063W        W30290  22.520  37.525  11.915
65064W        W30291  11.458  38.252   4.025
65065W        W30292  28.512   2.184   2.225
65066W        W30293  38.304  20.632   3.823
65067W        W30294  40.346  24.959  13.947
65068W        W30295   9.658  10.893  10.834
65069W        W30296  41.705   4.484   3.132
65070W        W30297  27.473  30.107   3.274
65071W        W30298  34.041  19.528  10.793
65072W        W30299  14.743  10.421   2.740
65073W        W30300  42.626  16.150   4.319
65074W        W30301  41.219  33.979  12.052
65075W        W30302  31.238  27.973   0.069
65076W        W30303  14.671  40.462  14.691
65077W        W30304  24.720  44.325  13.619
65078W        W30305  15.397  24.626  13.084
65079W        W30306  36.700  37.534   1.857
65080W        W30307  39.334  23.053  12.772
65081W        W30308  21.428  39.453  11.856
65082W        W30309  14.125  39.380   2.234
65083W        W30310  24.094  22.068  10.657
65084W        W30311  10.417  37.392  10.586
65085W        W30312  36.543  40.236   2.348
65086W        W30313  20.947   4.490   1.799
65087W        W30314  17.958  41.609   3.665
65088W        W30315   4.732  17.401  12.444
65089W        W30316  27.441  19.668  12.549
65090W        W30317  14.379  32.429   5.054
65091W        W30318  33.514   1.563  13.139
65092W        W30319  26.400   7.785  14.816
65093W        W30320  44.319  31.879   0.328
65094W        W30321  18.116  15.235   4.213
65095W        W30322   1.932  26.328   3.550
65096W        W30323  15.288  32.082   4.833
65097W        W30324  44.032   4.905  12.437
65098W        W30325  16.900  33.101   3.583
65099W        W30326  35.920  34.667   3.216
65100W        W30327  34.970  36.398  14.381
65101W        W30328  10.903  17.007   4.504
65102W        W30329  24.493  43.844  14.326
65103W        W30330  31.571  15.134   0.320
65104W        W30331  31.107  22.721   1.441
65105W        W30332  14.582  43.778  13.608
65106W        W30333  15.669  35.307  12.928
65107W        W30334   7.760  19.534  12.483
65108W        W30335  14.209  44.268  12.465
65109W        W30336  27.174   7.889   0.330
65110W        W30337  25.601  16.885   0.732
65111W        W30338  32.164  43.917   9.929
65112W        W30339  11.829  12.995   3.706
65113W        W30340   2.338  28.093  14.112
65114W        W30341  23.423  23.132   3.346
65115W        W30342   4.605  20.842   1.906
65116W        W30343  19.703   0.996  11.683
65117W        W30344  24.334  43.322  12.504
65118W        W30345   4.392  11.054   0.057
65119W        W30346  25.936  35.482  12.543
65120W        W30347  19.711  22.720   1.732
65121W        W30348  21.308  43.794   0.270
65122W        W30349   8.700  18.489   0.889
65123W        W30350  39.115  44.005   1.839
65124W        W30351  38.563  27.928   1.900
65125W        W30352  35.225  25.555  14.631
65126W        W30353   0.196  27.020  12.097
65127W        W30354  28.834  28.103   4.228
65128W        W30355  12.406  19.807   3.682
65129W        W30356  24.255  27.475  14.794
65130W        W30357   5.870   4.745   2.607
65131W        W30358   1.749  36.976  10.537
65132W        W30359  20.494   7.650  12.694
65133W        W30360  13.612  41.020   3.294
65134W        W30361  21.463  18.080   4.656
65135W        W30362  39.341  22.204   0.304
65136W        W30363  20.939  41.796  12.876
65137W        W30364  41.998   8.536   0.465
65138W        W30365  31.034  26.923  14.102
65139W        W30366  27.513  22.153  14.308
65140W        W30367  40.345   2.236  11.104
65141W        W30368  27.137   9.213   3.683
65142W        W30369  33.775  31.992  12.102
65143W        W30370  37.667   2.442  14.860
65144W        W30371  43.760  41.571   2.207
65145W        W30372  35.041  19.984   2.911
65146W        W30373  28.360   9.424   0.391
65147W        W30374  19.933  22.646   4.226
65148W        W30375  44.495  37.618   2.715
65149W        W30376  29.833  11.765  13.351
65150W        W30377   4.818  44.006   0.382
65151W        W30378  19.331  11.230   0.965
65152W        W30379  30.600  40.579   0.849
65153W        W30380   6.750  31.523   1.304
65154W        W30381  18.720  25.686  12.111
65155W        W30382  18.439  25.272   2.007
65156W        W30383  22.256  11.028  14.477
65157W        W30384  29.965  20.086   0.027
65158W        W30385  22.294  43.677  14.408
65159W        W30386   8.373  35.446   1.802
65160W        W30387  42.759  21.069   3.377
65161W        W30388  36.614   4.446  10.666
65162W        W30389  15.214   0.896   2.697
65163W        W30390  10.766  26.466  13.875
65164W        W30391  16.083  19.279   0.889
65165W        W30392  42.321  20.730   1.912
65166W        W30393   4.642  11.152   1.334
65167W        W30394  35.561  30.313  11.206
65168W        W30395  33.769  15.908  13.622
65169W        W30396  33.967   4.925   3.616
65170W        W30397  18.335  29.650   3.326
65171W        W30398  38.887   8.412   1.392
65172W        W30399  13.330  40.547   3.240
65173W        W30400  13.927  34.081   4.110
65174W        W30401  39.510  10.957   1.960
65175W        W30402  18.140   8.438   0.720
65176W        W30403  23.298   5.608  14.820
65177W        W30404  41.441  30.310  13.344
65178W        W30405  18.240  18.816   1.621
65179W        W30406  40.227  16.751  14.402
65180W        W30407  43.771   8.948  10.405
65181W        W30408  31.034  38.862   1.468
65182W        W30409  26.510  20.211   0.218
65183W        W30410  12.281  31.657   2.617
65184W        W30411  14.257  26.213   0.367
65185W        W30412  10.456  38.637  10.436
65186W        W30413  31.547  34.721   2.400
65187W        W30414  18.125   9.890  14.494
65188W        W30415  32.425   4.794   4.474
65189W        W30416  34.659  18.816  11.026
65190W        W30417  35.838  32.879   1.322
65191W        W30418  36.991  43.528   0.986
65192W        W30419  41.492   5.839   3.511
65193W        W30420  30.443  30.415  13.960
65194W        W30421  43.965  42.360  13.800
65195W        W30422  14.689   8.618  14.378
65196W        W30423  20.589  44.534  10.617
65197W        W30424   7.898  32.065  13.768
65198W        W30425  40.415  39.595   3.687
65199W        W30426  29.424  43.628   4.112
65200W        W30427  28.454  31.984  11.942
65201W        W30428  43.503  25.587   1.284
65202W        W30429   5.356  10.588   1.094
65203W        W30430  23.829  44.600  11.874
65204W        W30431  38.566  19.256   1.947
65205W        W30432   3.976  13.385   2.154
65206W        W30433   1.337  38.949   1.437
65207W        W30434  35.657  44.572   1.198
65208W        W30435  25.178   4.417   2.657
65209W        W30436  33.000  11.825  14.940
65210W        W30437  31.206  29.904   3.333
65211W        W30438  30.641  22.500   1.292
65212W        W30439  18.342   1.449   0.345
65213W        W30440  20.753  27.027  13.109
65214W        W30441  27.893  38.572   9.894
65215W        W30442   1.285   2.647  12.081
65216W        W30443   9.353  13.447  14.944
65217W        W30444  38.474  34.589  13.995
65218W        W30445  37.068  37.486   2.759
65219W        W30446   2.354   6.262  14.773
65220W        W30447   0.450   7.312   1.988
65221W        W30448  31.519  10.106  14.446
65222W        W30449  34.036  20.248   4.417
65223W        W30450   9.554  26.984  13.090
65224W        W30451  36.420   9.153  12.776
65225W        W30452  11.718  38.046   0.375
65226W        W30453  40.034  36.789  12.868
65227W        W30454   4.250  38.326  14.356
65228W        W30455  32.280  35.298   1.610
65229W        W30456  40.111   5.706  13.018
65230W        W30457   3.745   7.554  11.205
65231W        W30458  10.556  30.570   2.581
65232W        W30459  44.485   5.704   2.471
65233W        W30460  25.667  39.874   3.384
65234W        W30461  20.863  10.373   1.287
65235W        W30462  14.166   9.317  11.329
65236W        W30463   2.209  29.386  13.468
65237W        W30464   4.493   7.379   0.301
65238W        W30465  41.971   0.758   4.576
65239W        W30466  31.390  23.839  11.630
65240W        W30467  27.275  37.763  14.317
65241W        W30468  38.422  13.540   3.664
65242W        W30469  36.155  10.284  10.505
65243W        W30470  22.102   3.938   4.214
65244W        W30471  12.472  39.682   0.161
65245W        W30472  13.354  11.789   1.047
65246W        W30473  44.404  22.352   2.386
65247W        W30474   7.866  22.330   2.773
65248W        W30475  42.465   8.784   0.739
65249W        W30476   7.150  26.075  12.128
65250W        W30477   8.283  37.838   4.443
65251W        W30478  35.180  22.387   4.283
65252W        W30479  37.522  30.149  10.286
65253W        W30480   9.416  18.783   4.877
65254W        W30481  27.628  20.742  10.169
65255W        W30482  21.547  22.193   4.679
65256W        W30483  35.491  40.645  13.993
65257W        W30484   4.129  26.943  10.287
65258W        W30485  37.898  25.952  12.044
65259W        W30486  41.418  23.280   3.036
65260W        W30487  29.917  25.642  12.953
65261W        W30488  21.566   3.526  12.932
65262W        W30489  21.193  38.741   2.725
65263W        W30490  10.567  43.373  14.758
65264W        W30491  30.152   8.405   1.011
65265W        W30492  11.217  12.560   2.662
65266W        W30493  28.088  43.935   0.326
65267W        W30494   2.773  12.782   4.472
65268W        W30495   0.489  15.592  11.424
65269W        W30496  43.319  11.810  12.062
65270W        W30497   2.232  24.864  11.141
65271W        W30498   3.386   6.499  11.250
65272W        W30499  17.981  26.251  12.838
65273W        W30500   0.623  27.875   3.159
65274W        W30501  23.525  37.996  13.085
65275W        W30502   0.680  16.148  11.100
65276W        W30503  10.309  16.104  12.216
65277W        W30504  16.080  29.405  14.437
65278W        W30505  11.868  36.070  13.930
65279W        W30506  44.662  31.127  10.252
65280W        W30507  30.587  22.787   0.866
65281W        W30508  28.413  30.967   5.138
65282W        W30509  37.333   2.740  13.576
65283W        W30510  14.245  14.825  10.763
65284W        W30511  21.058  10.697  11.967
65285W        W30512  38.993  19.135  12.595
65286W        W30513  24.695  31.984   4.128
65287W        W30514   9.226  44.088   3.915
65288W        W30515  31.912  23.920   2.714
65289W        W30516  14.379  42.302  12.481
65290W        W30517  28.433  13.088   2.789
65291W        W30518  23.296  18.067  12.708
65292W        W30519  44.795  13.380  11.298
65293W        W30520   8.604  23.193   3.682
65294W        W30521   6.366  24.081  10.679
65295W        W30522   5.373  11.397   4.140
65296W        W30523  33.844  38.865  13.458
65297W        W30524  13.282  15.511   3.250
65298W        W30525  28.142   7.008   3.233
65299W        W30526  40.316  43.804   1.274
65300W        W30527  18.731  39.279   2.802
65301W        W30528  33.920  16.566  14.795
65302W        W30529  17.305   9.451  12.979
65303W        W30530  18.712   1.876   1.963
65304W        W30531  12.928  40.801   4.569
65305W        W30532  15.322   6.408   1.272
65306W        W30533  44.572  38.552  14.005
65307W        W30534  17.820  20.149   3.679
65308W        W30535   5.167   7.876   2.306
65309W        W30536  26.502  19.133  11.581
65310W        W30537  33.074  44.096   1.751
65311W        W30538  32.269  44.465  12.427
65312W        W30539  39.036   0.204   1.807
65313W        W30540  31.972  32.848   0.905
65314W        W30541  44.456  37.703  13.824
65315W        W30542  23.544  34.071   2.323
65316W        W30543  36.387  12.114  13.875
65317W        W30544  16.642  14.755   2.972
65318W        W30545  36.940  32.516  10.650
65319W        W30546  41.479   3.170   1.654
65320W        W30547  33.334  11.268  14.908
65321W        W30548  19.341   4.969  12.821
65322W        W30549  39.412  44.967  11.785
65323W        W30550  23.091  14.871   3.281
65324W        W30551  44.440  35.888  10.402
65325W        W30552  27.911  13.448   1.681
65326W        W30553  19.933  43.926   2.578
65327W        W30554   0.820  30.328  10.070
65328W        W30555   6.037   0.670  12.571
65329W        W30556  30.574  20.943  14.026
65330W        W30557  23.035  32.444  14.473
65331W        W30558   9.934  44.809  14.879
65332W        W30559  19.645  29.226   4.948
65333W        W30560  22.558  42.301   1.004
65334W        W30561  18.158   4.752  12.489
65335W        W30562  37.898  33.615  10.740
65336W        W30563  19.060  36.939  12.950
65337W        W30564  36.853  25.465  12.987
65338W        W30565  19.469  27.326   0.486
65339W        W30566  20.273  34.506  12.456
65340W        W30567  41.653  27.712  12.951
65341W        W30568  19.008   2.190   4.128
65342W        W30569  35.711  18.945   0.672
65343W        W30570   8.672  17.093   4.160
65344W        W30571   9.743  44.867   2.970
65345W        W30572  39.639  40.986  12.586
65346W        W30573  18.191  21.645  12.036
65347W        W30574  18.624  34.006  11.475
65348W        W30575  33.448   7.800   0.791
65349W        W30576   3.777  27.585  14.002
65350W        W30577  23.465  37.070  12.890
65351W        W30578  13.229  38.501   0.940
65352W        W30579  35.496  16.942  12.239
65353W        W30580  16.198  14.230   4.960
65354W        W30581   2.755  34.302   0.054
65355W        W30582   7.178   1.207  13.400
65356W        W30583  22.271  25.223   2.184
65357W        W30584  16.672  22.068  10.767
65358W        W30585   0.253   1.345   3.206
65359W        W30586   8.514  33.484   1.214
65360W        W30587  40.384  37.981   4.370
65361W        W30588  19.205  28.611  14.762
65362W        W30589  16.317   7.249  10.671
65363W        W30590  36.836  42.241  12.520
65364W        W30591  39.531  13.596  14.943
65365W        W30592   5.281  23.204  13.898
65366W        W30593  35.391  22.822   2.278
65367W        W30594   2.483  15.837   1.698
65368W        W30595  15.551  30.968   0.137
65369W        W30596  28.439  21.739   1.726
65370W        W30597  39.161  23.597   2.208
65371W        W30598  24.022   7.229  14.821
65372W        W30599  41.140  41.440   3.609
65373W        W30600  11.325  18.722  14.866
65374W        W30601   7.975   0.883  11.604
65375W        W30602   4.823  27.885  12.348
65376W        W30603  26.471   5.996   4.482
65377W        W30604  30.042  22.144  12.759
65378W        W30605  15.104  29.203   2.175
65379W        W30606  41.933  15.504   4.632
65380W        W30607  38.308  31.438   1.940
65381W        W30608   3.006  33.523  10.639
65382W        W30609   6.496  12.114   2.708
65383W        W30610   0.533  22.474   2.715
65384W        W30611  35.348  11.270   0.899
65385W        W30612  44.518  16.051   0.397
65386W        W30613  22.993  36.849  12.397
65387W        W30614  29.007  31.424   1.068
65388W        W30615  27.744  15.800  13.726
65389W        W30616  16.888  28.002   1.333
65390W        W30617  35.115   5.830   2.474
65391W        W30618  28.174   3.017  11.541
65392W        W30619  28.435  36.005   1.513
65393W        W30620  37.137  42.501   4.314
65394W        W30621  28.579  22.308   2.669
65395W        W30622  43.557  17.161   4.863
65396W        W30623  34.625  18.200   2.691
65397W        W30624  35.825  34.778  11.533
65398W        W30625   4.632  23.761   0.895
65399W        W30626  40.016  13.164   0.688
65400W        W30627  24.733  39.822  11.605
65401W        W30628   0.388  21.214  13.843
65402W        W30629  16.046   2.090  11.630
65403W        W30630  23.214  16.145   1.951
65404W        W30631  43.304  38.965   2.621
65405W        W30632  16.670  36.056  12.468
65406W        W30633   1.054  25.964   0.345
65407W        W30634  37.397   2.757  13.074
65408W        W30635  35.059  28.567  11.137
65409W        W30636  40.354   5.405   0.539
65410W        W30637   1.451  14.594  13.721
65411W        W30638   9.892  37.288   4.331
65412W        W30639   7.433  28.810  12.029
65413W        W30640  13.973  21.740   1.508
65414W        W30641  12.258  36.452  11.222
65415W        W30642  21.711  30.897  11.702
65416W        W30643  17.418  27.918   2.269
65417W        W30644  29.027  43.807   1.671
65418W        W30645  40.309  43.300  11.114
65419W        W30646  33.545  20.120   2.778
65420W        W30647  19.596  23.049   2.794
65421W        W30648  24.603   5.144   2.415
65422W        W30649   2.474   0.604   3.050
65423W        W30650  44.308  36.905   5.232
65424W        W30651  37.670  18.520   9.918
65425W        W30652   6.190  30.462   1.017
65426W        W30653   5.873   6.674  12.461
65427W        W30654  37.309   8.758   0.707
65428W        W30655  28.738  42.052   2.256
65429W        W30656  41.625   6.343   3.277
65430W        W30657  33.065   6.342   1.860
65431W        W30658  12.836   8.676   4.172
65432W        W30659   8.682  43.305  11.139
65433W        W30660  17.187  27.675   1.820
65434W        W30661   4.654  38.347  13.668
65435W        W30662   2.088  39.379  14.507
65436W        W30663   2.374  10.870   1.335
65437W        W30664  23.215   7.872   1.032
65438W        W30665  38.632  37.154   3.982
65439W        W30666  32.179  14.372   2.356
65440W        W30667   9.224   1.831   5.152
65441W        W30668  27.703  24.788   3.574
65442W        W30669  33.137  39.877  14.035
65443W        W30670  35.008  26.816  12.540
65444W        W30671  40.027  27.743  10.813
65445W        W30672   3.998  28.257  10.967
65446W        W30673   0.747  24.908  11.236
65447W        W30674  19.129  12.506  13.181
65448W        W30675   1.429   5.368   1.873
65449W        W30676  23.111  29.904   4.709
65450W        W30677  13.590  18.728   4.360
65451W        W30678   6.578  33.600   1.205
65452W        W30679  34.804   2.842  12.393
65453W        W30680  19.375  12.555  11.502
65454W        W30681  36.476   1.642   1.924
65455W        W30682   2.451  17.322   1.845
65456W        W30683  19.300  33.526   2.404
65457W        W30684   4.685  34.344  11.679
65458W        W30685  21.487  32.009   0.324
65459W        W30686  24.805  27.129  13.764
65460W        W30687   6.328  42.492  10.790
65461W        W30688  35.087   1.177  14.401
65462W        W30689  31.508  31.490  12.500
65463W        W30690  11.323  10.178   3.736
65464W        W30691  30.916  32.544   4.167
65465W        W30692  12.770  26.183   3.812
65466W        W30693   5.766  44.549   3.102
65467W        W30694  21.124  41.003  11.048
65468W        W30695  32.840  31.523  12.000
65469W        W30696   1.846  32.060   1.803
65470W        W30697  14.536  36.581  11.538
65471W        W30698  36.913   4.934   3.151
65472W        W30699  31.679  40.367   4.657
65473W        W30700  28.404  30.675  13.838
65474W        W30701  16.585   4.812   1.539
65475W        W30702  18.210   9.206   1.188
65476W        W30703   8.279  44.970  12.663
65477W        W30704  18.708   3.731   2.761
65478W        W30705  13.048  13.545  13.996
65479W        W30706   8.618   7.686  12.888
65480W        W30707  23.010  17.965   2.798
65481W        W30708  22.622   3.268  11.606
65482W        W30709  33.049  12.219  11.725
65483W        W30710   7.111  34.486  13.092
65484W        W30711  40.587  12.713   0.659
65485W        W30712  36.714  28.868   3.667
65486W        W30713  12.086  22.192   0.324
65487W        W30714  34.653  16.680  12.941
65488W        W30715   6.899  20.213   3.643
65489W        W30716  24.575  13.194  10.810
65490W        W30717  11.949  11.593  14.891
65491W        W30718  16.826  29.555   0.163
65492W        W30719  42.877  27.500   3.339
65493W        W30720  27.234  16.105  12.523
65494W        W30721   8.337  40.140   3.318
65495W        W30722   1.889  20.209   3.590
65496W        W30723  40.819  25.066  10.913
65497W        W30724  28.539  24.017   4.808
65498W        W30725  42.374  37.405  12.427
65499W        W30726  44.331  24.977   3.589
65500W        W30727  29.708  17.085   2.762
65501W        W30728  37.039  26.990  13.527
65502W        W30729  43.335   2.862  12.105
65503W        W30730  26.743  28.981  13.381
65504W        W30731   3.981  25.564  12.373
65505W        W30732  26.960  35.588  14.319
65506W        W30733   1.443  39.069   4.323
65507W        W30734  30.419  21.286   0.415
65508W        W30735  28.146  32.910   4.150
65509W        W30736   1.968  17.276   1.668
65510W        W30737  10.207  29.959  14.998
65511W        W30738  43.711  12.764   0.290
65512W        W30739  35.550  12.213  13.348
65513W        W30740   5.728  33.922   2.914
65514W        W30741  19.478  16.052  13.287
65515W        W30742  30.378  12.324  11.526
65516W        W30743  42.294  34.930  14.033
65517W        W30744   7.730  31.492  14.339
65518W        W30745  39.442  25.490  10.781
65519W        W30746  25.497  12.796   4.585
65520W        W30747  25.562  10.515  11.637
65521W        W30748  23.187  34.492   2.900
65522W        W30749  15.831  13.201   3.320
65523W        W30750   2.513   2.962   0.003
65524W        W30751  12.002  44.304   3.691
65525W        W30752  21.317  15.132   0.036
65526W        W30753  28.007  36.765  13.452
65527W        W30754  22.022   1.943   1.759
65528W        W30755   1.166  43.837   3.117
65529W        W30756  26.464  23.602   0.999
65530W        W30757  35.370  41.878   4.424
65531W        W30758  10.852  16.691   1.293
65532W        W30759  37.914   5.633  12.399
65533W        W30760  42.897   2.730  11.835
65534W        W30761  31.362  24.126  14.882
65535W        W30762  43.727  22.165   4.607
65536W        W30763  28.025   9.910   4.234
65537W        W30764  36.690  38.539   1.057
65538W        W30765  15.779   4.330   0.488
65539W        W30766  41.846  39.651   3.882
65540W        W30767   7.788  42.887  12.837
65541W        W30768   1.694  21.788  12.519
65542W        W30769  38.612  44.411  11.212
65543W        W30770  29.801  31.656   1.336
65544W        W30771  23.583  24.454  12.985
65545W        W30772  33.024  28.143  11.617
65546W        W30773  43.806  37.870   3.816
65547W        W30774  20.083  19.186   4.861
65548W        W30775  35.403   5.436  11.157
65549W        W30776  24.478  33.655   1.319
65550W        W30777  21.292   8.341  11.598
65551W        W30778  24.202  21.754  13.152
65552W        W30779  23.289   6.798   1.266
65553W        W30780  14.660  25.016   4.725
65554W        W30781  31.093  26.069  12.323
65555W        W30782  11.815  28.974   0.173
65556W        W30783  37.785  28.544  14.782
65557W        W30784  29.341  20.714  14.950
65558W        W30785  35.884  43.872   1.706
65559W        W30786  18.139  11.192   2.408
65560W        W30787   8.853  39.047   0.034
65561W        W30788  30.832  11.167   1.925
65562W        W30789  36.647  14.207  13.093
65563W        W30790  30.668   6.122  14.820
65564W        W30791  14.075   2.917   1.253
65565W        W30792  44.159   3.840  13.864
65566W        W30793  43.804   4.212  11.620
65567W        W30794  34.039  13.554   3.639
65568W        W30795  14.725  33.275   2.741
65569W        W30796  12.768  13.692  12.715
65570W        W30797  11.585  14.358   4.047
65571W        W30798  24.437  20.002  11.092
65572W        W30799  39.570  29.202   2.720
65573W        W30800  14.201  36.503   2.173
65574W        W30801   8.585  37.412   4.530
65575W        W30802  37.326  19.247   1.316
65576W        W30803   6.230  29.908   2.765
65577W        W30804  42.137  16.242  12.598
65578W        W30805  21.644  26.135   1.885
65579W        W30806  40.502  32.136   5.119
65580W        W30807  44.134  33.874  11.569
65581W        W30808  28.462  24.643   4.645
65582W        W30809   9.121  29.211   2.269
65583W        W30810  34.649  15.059   3.734
65584W        W30811   7.064  41.465   1.085
65585W        W30812   4.548   8.772   4.135
65586W        W30813  43.226  38.975  10.354
65587W        W30814   0.823  43.278  13.769
65588W        W30815  13.160  21.384   4.552
65589W        W30816  32.072  39.842   0.340
65590W        W30817  26.970  11.810  11.680
65591W        W30818   3.353  29.606  14.754
65592W        W30819  31.472   8.909  11.212
65593W        W30820   9.371   8.064   2.657
65594W        W30821  43.085   3.311  13.245
65595W        W30822  38.527  27.707   3.998
65596W        W30823  18.732  15.591  13.295
65597W        W30824  25.979  44.320  11.637
65598W        W30825  32.902  36.133   2.741
65599W        W30826  32.435  30.607   3.180
65600W        W30827   0.477   1.262   0.718
65601W        W30828  25.593   6.183  11.105
65602W        W30829  14.327  40.381  14.256
65603W        W30830  33.814   8.824   2.739
65604W        W30831  18.374  39.986   1.915
65605W        W30832  43.561  10.116   1.378
65606W        W30833   7.606  38.720  10.942
65607W        W30834  18.688   5.173  13.121
65608W        W30835  42.277   5.632  14.632
65609W        W30836  33.341  27.611  10.802
65610W        W30837  36.093  12.737   4.320
65611W        W30838  28.048  16.544   1.161
65612W        W30839  39.098  11.267   1.221
65613W        W30840  35.517  28.414  14.874
65614W        W30841  42.782   7.188   5.013
65615W        W30842  11.284  43.760   3.590
65616W        W30843  26.204  16.127  13.334
65617W        W30844  34.124  21.136   4.999
65618W        W30845  28.357   6.359   0.309
65619W        W30846  29.117   9.608   3.251
65620W        W30847   6.161  19.965  13.812
65621W        W30848  43.629  16.443   4.605
65622W        W30849  17.553  33.710   3.980
65623W        W30850  19.703  23.406   1.367
65624W        W30851   2.453  20.551   0.371
65625W        W30852  29.355  43.377  13.681
65626W        W30853  10.089  16.492  10.416
65627W        W30854   2.266  10.186  13.168
65628W        W30855  38.348  32.675   3.143
65629W        W30856  13.506  20.072  14.085
65630W        W30857   6.192  12.410  13.435
65631W        W30858  19.974  19.723   3.125
65632W        W30859  21.041  39.055   4.039
65633W        W30860   9.277  38.861   2.862
65634W        W30861  28.982   0.039   0.003
65635W        W30862  43.904   4.984   1.953
65636W        W30863  38.572  40.536  12.245
65637W        W30864  26.697   4.031  12.055
65638W        W30865  11.745  18.638  10.898
65639W        W30866   6.582   6.379  14.873
65640W        W30867  44.638  16.740  11.698
65641W        W30868  24.259   0.973   3.881
65642W        W30869  27.274  36.404  10.605
65643W        W30870  43.966  17.521  10.299
65644W        W30871  36.598   2.047  11.517
65645W        W30872  10.765  14.896   1.773
65646W        W30873  16.198  35.295  12.633
65647W        W30874  40.550  28.209  14.447
65648W        W30875  30.997  22.185   1.474
65649W        W30876  10.303  35.566   9.541
65650W        W30877   6.358  38.449   2.412
65651W        W30878   3.725  18.144   4.544
65652W        W30879  25.828  15.885  13.655
65653W        W30880  10.880  15.576   0.401
65654W        W30881  38.477  31.979  10.702
65655W        W30882   1.307   6.767  11.087
65656W        W30883  31.864  35.725   4.978
65657W        W30884  21.800  34.859  12.561
65658W        W30885  26.276  37.905  11.216
65659W        W30886  34.678  27.549  11.139
65660W        W30887   0.572  42.637   2.637
65661W        W30888  12.302  26.009   0.199
65662W        W30889  33.112  32.828   2.632
65663W        W30890  12.653  26.901  13.379
65664W        W30891  21.159  38.537   2.239
65665W        W30892  33.371   0.690  13.380
65666W        W30893  28.531   4.176  11.708
65667W        W30894  33.941  10.320   2.411
65668W        W30895  20.067  25.111   4.995
65669W        W30896  41.313  25.061   0.350
65670W        W30897  38.919  16.400   0.951
65671W        W30898   1.028  21.289  12.078
65672W        W30899   7.827  17.919  10.345
65673W        W30900  21.117  39.833  14.741
65674W        W30901   2.004  20.909   3.202
65675W        W30902  37.915  10.719  11.583
65676W        W30903  12.268  14.561   3.090
65677W        W30904  18.449  41.335  10.709
65678W        W30905  33.160  35.559   2.830
65679W        W30906   7.422  39.598  13.804
65680W        W30907   2.284  10.516   4.084
65681W        W30908  15.321   8.643   9.974
65682W        W30909   0.331   4.853   1.485
65683W        W30910  12.153  38.178   3.740
65684W        W30911  26.555   6.486   3.066
65685W        W30912   1.304   1.240   1.450
65686W        W30913  16.997   4.811  10.939
65687W        W30914   4.286  25.505   3.094
65688W        W30915   6.352  27.970  12.485
65689W        W30916  28.132   2.245  14.994
65690W        W30917   5.392  25.887  11.425
65691W        W30918  42.285  39.434  11.481
65692W        W30919  15.052  12.717  14.405
65693W        W30920   9.759   8.808  11.551
65694W        W30921  41.163  11.366  10.768
65695W        W30922  41.888  25.718  14.812
65696W        W30923  43.745  43.158   4.577
65697W        W30924  22.970  30.655  12.739
65698W        W30925  41.805  21.290  13.181
65699W        W30926  20.800  39.086  13.107
65700W        W30927   7.831  33.011   4.349
65701W        W30928  26.437  39.002   1.872
65702W        W30929  34.946  38.658  12.384
65703W        W30930   0.922  35.643  11.656
65704W        W30931   9.849  19.858   0.870
65705W        W30932  44.801   1.006  11.469
65706W        W30933   3.515   6.161   5.032
65707W        W30934  29.180   8.663   2.295
65708W        W30935   1.978  38.514  11.990
65709W        W30936  14.877  16.059   3.566
65710W        W30937  28.009  18.481   2.320
65711W        W30938  38.081  31.082  12.538
65712W        W30939   4.958  28.666  13.759
65713W        W30940  33.453  14.033  14.083
65714W        W30941   2.527  31.024  13.809
65715W        W30942  10.193  25.717  11.671
65716W        W30943   1.347  12.192   3.136
65717W        W30944  44.567  38.654   2.772
65718W        W30945  27.633  20.526  10.637
65719W        W30946  38.000   6.967  14.036
65720W        W30947   3.708   4.585  11.157
65721W        W30948  18.284   3.112  14.729
65722W        W30949  12.307  36.504  13.071
65723W        W30950  17.616  32.226   2.411
65724W        W30951   9.274  25.166  13.462
65725W        W30952   3.713  38.433   3.255
65726W        W30953  15.984  22.607  12.016
65727W        W30954  13.954   2.964   4.784
65728W        W30955  25.484  16.797  12.073
65729W        W30956  43.722   2.933  11.209
65730W        W30957  36.532  26.299  13.220
65731W        W30958  25.687  14.057   0.600
65732W        W30959   4.203   7.860   2.908
65733W        W30960  35.860  35.828   5.303
65734W        W30961   0.502  34.573  12.779
65735W        W30962  19.676  12.992  14.374
65736W        W30963  25.092  34.885   5.051
65737W        W30964  14.512  18.003   4.996
65738W        W30965  31.610  44.953   1.726
65739W        W30966  13.236   6.194   4.261
65740W        W30967   9.248  16.297  14.897
65741W        W30968  12.317  41.530   4.158
65742W        W30969  22.743   4.704  12.542
65743W        W30970  25.587  28.663  12.963
65744W        W30971  42.811   6.493  11.705
65745W        W30972  10.902  19.668  12.991
65746W        W30973  18.666   9.296  13.824
65747W        W30974  27.977  22.270  12.818
65748W        W30975  30.933   9.576  13.501
65749W        W30976  43.107  17.994   4.962
65750W        W30977  29.594  11.892  13.794
65751W        W30978  33.443  15.057  14.486
65752W        W30979  24.587   1.916  14.977
65753W        W30980  21.526  34.561   3.448
65754W        W30981  40.382  40.652   1.412
65755W        W30982  25.935  38.800  10.724
65756W        W30983  42.196  35.306   2.277
65757W        W30984  18.774   5.972   1.724
65758W        W30985  21.782  44.926   3.749
65759W        W30986   5.417  29.116   0.288
65760W        W30987  18.300   7.437   2.905
65761W        W30988  18.535   8.280  14.053
65762W        W30989  20.119   6.843   3.662
65763W        W30990  36.458  42.238  12.182
65764W        W30991  17.498  33.118   2.708
65765W        W30992   8.215  34.662   1.104
65766W        W30993  26.143  37.490  10.588
65767W        W30994  25.981  33.020   2.756
65768W        W30995   2.491   6.649   4.166
65769W        W30996  20.046  21.364  13.778
65770W        W30997  23.668   4.763   0.452
65771W        W30998  13.624   7.972  14.398
65772W        W30999  20.178  13.018   2.258
65773W        W31000  18.068  18.016  14.590
65774W        W31001  32.010  23.584  12.772
65775W        W31002   0.369   6.014  12.462
65776W        W31003  26.289  41.499  11.637
65777W        W31004   7.409  40.899  14.887
65778W        W31005  42.830  38.027  12.933
65779W        W31006   4.159  22.308   1.957
65780W        W31007   1.414   7.616   1.823
65781W        W31008  30.725  16.253  13.288
65782W        W31009  28.453   5.330   2.161
65783W        W31010   5.738  40.179  13.391
65784W        W31011  43.397  19.111  13.595
65785W        W31012  37.733  10.251   0.770
65786W        W31013   0.466  38.164  14.495
65787W        W31014   7.354  16.691  14.015
65788W        W31015   3.707  24.098   0.722
65789W        W31016   5.731  32.051  13.901
65790W        W31017  22.415   8.887   4.685
65791W        W31018   6.794  32.992   3.685
65792W        W31019  35.876  36.405  12.839
65793W        W31020  26.727  14.047   2.455
65794W        W31021   3.814   9.247  14.767
65795W        W31022  31.645  22.183   0.043
65796W        W31023  43.522  17.702  13.021
65797W        W31024   9.813  44.711   0.787
65798W        W31025  43.520  14.200   0.956
65799W        W31026  22.509   1.700  14.972
65800W        W31027  34.840  27.680  13.873
65801W        W31028   3.764  18.950  14.847
65802W        W31029   1.765  24.728   2.866
65803W        W31030  21.021  11.761  11.569
65804W        W31031   0.780   7.279  12.608
65805W        W31032  39.447  39.827   1.773
65806W        W31033   5.662  24.961  13.929
65807W        W31034   3.195  15.287   1.759
65808W        W31035   8.327  11.182  13.061
65809W        W31036   6.176  20.017   4.137
65810W        W31037  39.549  41.425   3.756
65811W        W31038  24.149  27.705   3.115
65812W        W31039  19.006  22.169  11.265
65813W        W31040  11.781  37.097   4.530
65814W        W31041  39.788  20.535   2.815
65815W        W31042  33.703  38.944  12.240
65816W        W31043  15.558  32.517  10.202
65817W        W31044   0.416  23.003   2.808
65818W        W31045  44.558  17.940   4.933
65819W        W31046  14.680  25.451   3.772
65820W        W31047  28.539  24.216   1.970
65821W        W31048  24.183  27.127  12.402
65822W        W31049  31.919  26.001   3.863
65823W        W31050  26.828  30.897  14.873
65824W        W31051   4.332  10.465  13.921
65825W        W31052  28.554  27.634  12.069
65826W        W31053   3.493  12.050   0.316
65827W        W31054  31.120  13.668   0.803
65828W        W31055  44.724   1.275   4.098
65829W        W31056  28.805  40.190   5.070
65830W        W31057  10.593   8.231   3.437
65831W        W31058  23.013   3.892  12.990
65832W        W31059  36.182  44.087  14.537
65833W        W31060  11.471  33.488  12.450
65834W        W31061  12.075   3.047  11.093
65835W        W31062  10.064  19.166  13.927
65836W        W31063  13.932  43.464  14.418
65837W        W31064  38.270   9.803   2.398
65838W        W31065  30.505  39.447  14.437
65839W        W31066  37.397  31.521  10.928
65840W        W31067  37.955  29.114   2.449
65841W        W31068  40.557  11.327  13.374
65842W        W31069  39.172  30.655  14.804
65843W        W31070  19.064  43.401   2.261
65844W        W31071  11.292   6.429  14.830
65845W        W31072  15.135   1.396  14.367
65846W        W31073  11.144  39.101   1.469
65847W        W31074   5.714  38.528   4.717
65848W        W31075  38.624  14.601  11.157
65849W        W31076  28.111  13.119  13.895
65850W        W31077  23.873  16.101   4.790
65851W        W31078  14.822   0.591  11.617
65852W        W31079  26.077   2.921   2.354
65853W        W31080  31.978   0.772  14.564
65854W        W31081   3.217   5.807  14.038
65855W        W31082   7.491  20.157  11.666
65856W        W31083  39.429  22.818  13.953
65857W        W31084  44.410  41.252  13.055
65858W        W31085  28.377  24.745   4.128
65859W        W31086  26.844   2.817   4.636
65860W        W31087  13.217   6.826  13.805
65861W        W31088  41.870  23.419   3.737
65862W        W31089  12.717  12.483  12.956
65863W        W31090  17.021  16.680  13.567
65864W        W31091   1.416   3.892  13.371
65865W        W31092  27.892   6.093   0.345
65866W        W31093  10.403  10.393  11.173
65867W        W31094  24.219  27.195   4.662
65868W        W31095   1.193  35.306   4.201
65869W        W31096  17.333  10.040   0.336
65870W        W31097  20.038  29.887  12.133
65871W        W31098  32.654   4.310   4.391
65872W        W31099   5.314  19.356  14.480
65873W        W31100  23.651  21.514   2.238
65874W        W31101  34.431  21.682  12.373
65875W        W31102  37.316   4.069  10.972
65876W        W31103  14.658  26.770  13.123
65877W        W31104   0.293  35.377  10.524
65878W        W31105  16.785  33.974   2.087
65879W        W31106   6.977  24.906   2.676
65880W        W31107  31.158   7.776   3.689
65881W        W31108   9.929  25.200  12.922
65882W        W31109  10.146  18.641  13.975
65883W        W31110   7.195  32.814   3.987
65884W        W31111  21.459  35.075  14.326
65885W        W31112  41.154  35.824  12.362
65886W        W31113  16.171  12.306  11.998
65887W        W31114  39.377  25.446  14.415
65888W        W31115  40.652   3.264   1.963
65889W        W31116   5.605  12.813   1.460
65890W        W31117  14.563  18.613  14.431
65891W        W31118   3.791  23.888  11.208
65892W        W31119  20.484  39.387   3.622
65893W        W31120   9.988   2.183  13.387
65894W        W31121  19.201  13.636  13.963
65895W        W31122  11.789  33.504   0.487
65896W        W31123  39.373  21.387   0.706
65897W        W31124  30.897   3.285   2.237
65898W        W31125  34.863  28.451   0.742
65899W        W31126  34.971  33.015  11.662
65900W        W31127  20.167  11.901  12.586
65901W        W31128  39.348  18.956   2.147
65902W        W31129  39.043  15.607  13.118
65903W        W31130  31.034   9.167   1.037
65904W        W31131   3.795  20.336  14.881
65905W        W31132  40.041  12.709  12.394
65906W        W31133  41.625   1.847   5.044
65907W        W31134  39.538  33.914   4.609
65908W        W31135  36.710  30.475  10.694
65909W        W31136  21.043   7.011   4.916
65910W        W31137  41.094  29.236   2.623
65911W        W31138  16.808  37.550  14.009
65912W        W31139  14.479   1.576   3.184
65913W        W31140  24.652  38.584   1.382
65914W        W31141  33.832  43.284  12.405
65915W        W31142  32.568  41.419   0.277
65916W        W31143   4.529  19.296   4.215
65917W        W31144  32.937  29.781   1.758
65918W        W31145  18.350  24.023  13.420
65919W        W31146   3.692  12.489   2.146
65920W        W31147   2.860   9.590   2.335
65921W        W31148  39.992  22.560   0.347
65922W        W31149   4.308  11.873  14.730
65923W        W31150  12.276  38.883  14.431
65924W        W31151  26.049   2.521  14.861
65925W        W31152  42.693  32.186   0.436
65926W        W31153  36.520   0.494   4.821
65927W        W31154  18.538  28.484  10.746
65928W        W31155  35.403  12.164   4.123
65929W        W31156  11.513  44.580   0.537
65930W        W31157  38.565   9.576  11.638
65931W        W31158  17.262  12.348  12.852
65932W        W31159  27.536  42.219   3.674
65933W        W31160  30.731   0.967  13.303
65934W        W31161  28.900  33.957   0.441
65935W        W31162  37.398   9.195  10.307
65936W        W31163  14.646   9.774  12.479
65937W        W31164  44.816   0.929  12.142
65938W        W31165  20.653   4.408  14.078
65939W        W31166  15.013  43.496   3.557
65940W        W31167  31.126  13.136  12.813
65941W        W31168  25.934  34.494   0.388
65942W        W31169  29.398  19.176  12.550
65943W        W31170  27.261  33.892  14.017
65944W        W31171  22.746  23.429   3.689
65945W        W31172   2.207  34.906  13.100
65946W        W31173  24.799  34.807  12.954
65947W        W31174  15.778   8.416  14.747
65948W        W31175  20.259  36.727  14.819
65949W        W31176   8.391   4.390  13.571
65950W        W31177  18.149  26.935   1.706
65951W        W31178   1.014  18.262   2.861
65952W        W31179   6.936   4.486  10.824
65953W        W31180  43.912   3.237   3.657
65954W        W31181  19.369   7.580  14.928
65955W        W31182  35.872  11.284   0.839
65956W        W31183  22.535  12.579   3.646
65957W        W31184  13.605  41.086  13.488
65958W        W31185   9.573  32.093  11.643
65959W        W31186  15.100  12.243   0.409
65960W        W31187  28.269  13.352  13.087
65961W        W31188   8.949  31.165   1.247
65962W        W31189  36.039  24.587  13.814
65963W        W31190  41.131  37.213   4.042
65964W        W31191  43.218  44.588   2.263
65965W        W31192  12.238  42.516   2.756
65966W        W31193  43.587  31.657   3.285
65967W        W31194   1.133  39.806  12.928
65968W        W31195  41.565  43.479   2.758
65969W        W31196  29.076  31.593  11.259
65970W        W31197  37.060  13.402   2.299
65971W        W31198  11.206   4.483  13.733
65972W        W31199   8.363  12.777   1.155
65973W        W31200  33.746  44.097  12.063
65974W        W31201  37.499  18.998   2.240
65975W        W31202   6.806  10.269  10.439
65976W        W31203  32.920   8.403   0.375
65977W        W31204  12.045  20.711   4.405
65978W        W31205  26.960   6.369   1.159
65979W        W31206  24.196  41.528   4.724
65980W        W31207  29.043   7.086   2.446
65981W        W31208  12.156  35.189  11.533
65982W        W31209  44.476   1.131  14.838
65983W        W31210  13.833  30.047   3.899
65984W        W31211  40.752  24.441   1.783
65985W        W31212  25.058  34.088   3.864
65986W        W31213   3.311  33.911   3.906
65987W        W31214  36.607  36.170   3.224
65988W        W31215  22.242  38.582  11.185
65989W        W31216  20.715   3.542   2.749
65990W        W31217   9.321  26.003   1.663
65991W        W31218  19.652  14.549   4.584
65992W        W31219   8.352  16.649  14.409
65993W        W31220  34.343  13.297   5.361
65994W        W31221   2.364   8.625   0.540
65995W        W31222  30.068  10.068   4.202
65996W        W31223  26.078  26.785  11.646
65997W        W31224   6.189  25.221   3.614
65998W        W31225  41.200  31.020   3.649
65999W        W31226  39.549  20.746   2.393
66000W        W31227   4.486   3.312   1.569
66001W        W31228  40.092  12.266   2.635
66002W        W31229  13.414  31.487   2.573
66003W        W31230  34.500  32.548   3.801
66004W        W31231  44.925   6.681   3.299
66005W        W31232   2.414  25.082   4.078
66006W        W31233   8.383   3.864   4.749
66007W        W31234  23.328  44.502   0.847
66008W        W31235  32.151  42.105   1.624
66009W        W31236  36.848  20.081  11.308
66010W        W31237   5.804  34.293  10.634
66011W        W31238  34.346   8.496  12.168
66012W        W31239  23.485  19.473  12.166
66013W        W31240  27.579  20.983   3.362
66014W        W31241  34.450  12.559   4.625
66015W        W31242  18.645  42.848   0.313
66016W        W31243  18.453  32.461   1.784
66017W        W31244  39.859  26.779  12.939
66018W        W31245  42.962  43.430   4.156
66019W        W31246  15.929  33.853  10.182
66020W        W31247  12.695  39.300   1.349
66021W        W31248  35.419  36.551   3.112
66022W        W31249   6.317   7.800   4.714
66023W        W31250  12.183  25.314  12.970
66024W        W31251  12.053  38.937  10.839
66025W        W31252  14.449  20.832  12.968
66026W        W31253   3.779  12.197   4.117
66027W        W31254   0.358  20.424  13.235
66028W        W31255  21.299  21.709  12.908
66029W        W31256  17.573  28.340  13.818
66030W        W31257  19.549  29.235  11.706
66031W        W31258  29.619  22.001   0.901
66032W        W31259  35.915  35.619   2.795
66033W        W31260  36.688  43.472   1.853
66034W        W31261   5.010  40.019  14.583
66035W        W31262  14.787   0.286   1.987
66036W        W31263  44.860  26.516   4.964
66037W        W31264  35.557  23.078  12.384
66038W        W31265   2.678  21.804   1.437
66039W        W31266  16.817  31.462   4.215
66040W        W31267  27.309  40.567   2.099
66041W        W31268  17.174  26.978   3.377
66042W        W31269  39.536  11.061   0.529
66043W        W31270  23.881   7.685  14.337
66044W        W31271  14.301  11.412   3.733
66045W        W31272  12.550  23.143   2.392
66046W        W31273   8.701  10.730  14.499
66047W        W31274   4.881  22.732  11.702
66048W        W31275  35.728  26.275  11.239
66049W        W31276  21.032  42.844   2.347
66050W        W31277  33.398  12.467  13.938
66051W        W31278  36.835   6.931   2.703
66052W        W31279  26.883  15.659   0.886
66053W        W31280   3.463   2.143  13.481
66054W        W31281  31.176  41.003  13.235
66055W        W31282  22.760  30.601   2.034
66056W        W31283  28.692  35.918  10.803
66057W        W31284  25.722  37.403  12.453
66058W        W31285  15.387   9.709  14.192
66059W        W31286   2.792  19.693   3.512
66060W        W31287   9.449  20.794  13.703
66061W        W31288  44.365  25.026   4.628
66062W        W31289  31.988  35.518   0.310
66063W        W31290   2.483  29.143   2.045
66064W        W31291  21.957  31.471   0.662
66065W        W31292   4.903   1.753  11.073
66066W        W31293   9.862  43.942  14.934
66067W        W31294  40.157  35.068  14.237
66068W        W31295  40.462  18.161   1.322
66069W        W31296   7.171  21.675   4.479
66070W        W31297  30.553  23.787   0.848
66071W        W31298  18.436  10.986  10.761
66072W        W31299  23.186  29.337   4.371
66073W        W31300  16.169  25.559  11.160
66074W        W31301  17.311   3.213   1.353
66075W        W31302   6.608  38.767   0.472
66076W        W31303  32.611  12.288   0.689
66077W        W31304   6.279  26.499   0.320
66078W        W31305  20.287  35.873  14.482
66079W        W31306  44.423   1.846   0.254
66080W        W31307   6.806  21.555   2.110
66081W        W31308   3.565  14.386  14.018
66082W        W31309  25.672  31.474   1.237
66083W        W31310  34.768  33.734   4.132
66084W        W31311  23.949  43.397  13.374
66085W        W31312  36.696  11.296  11.052
66086W        W31313  18.951   9.805   1.316
66087W        W31314  12.248  41.975   2.794
66088W        W31315  37.527  44.360   1.885
66089W        W31316  23.467  18.014  13.643
66090W        W31317  23.594   7.523   0.848
66091W        W31318  42.423  16.381  12.109
66092W        W31319  19.577  28.665   1.801
66093W        W31320  27.415  30.042   2.372
66094W        W31321  39.913  29.460   3.024
66095W        W31322  26.527  24.002  11.181
66096W        W31323  37.008  38.255   2.567
66097W        W31324   3.190   2.943   1.223
66098W        W31325  37.353  16.958   4.400
66099W        W31326  44.154  16.653   0.846
66100W        W31327  10.412   0.988  10.884
66101W        W31328  23.036   8.377  11.990
66102W        W31329  20.896  27.279   4.077
66103W        W31330  36.467  37.602  14.429
66104W        W31331  27.445   0.915  12.171
66105W        W31332   1.792  19.713  11.669
66106W        W31333  15.720  16.729  11.489
66107W        W31334   6.891  24.200   2.229
66108W        W31335  20.696  34.001  13.990
66109W        W31336  36.871  37.830  14.716
66110W        W31337  33.206  41.016   4.104
66111W        W31338  34.540  26.151  12.132
66112W        W31339  32.539  36.532   2.680
66113W        W31340  44.940   6.778  11.211
66114W        W31341  14.316  25.911   2.656
66115W        W31342  36.401  20.857   0.340
66116W        W31343  12.452  12.404   3.734
66117W        W31344  43.645  27.424  12.825
66118W        W31345  28.348  34.002   0.417
66119W        W31346  14.578  23.516   3.394
66120W        W31347  39.379  12.914  14.633
66121W        W31348  30.247  26.855  12.060
66122W        W31349  16.829  32.632   3.375
66123W        W31350  21.008  31.149   0.957
66124W        W31351   7.205  14.071  10.766
66125W        W31352  13.186  26.426  10.315
66126W        W31353  31.663  39.248   5.421
66127W        W31354  25.501  22.238  10.058
66128W        W31355   6.681  37.618   0.028
66129W        W31356  28.385  12.080   0.914
66130W        W31357  35.790  30.486   0.874
66131W        W31358  32.874  44.815   2.925
66132W        W31359   0.736  15.087  12.602
66133W        W31360  37.670  24.826  14.879
66134W        W31361  10.133  35.898   4.067
66135W        W31362  25.280  18.278   0.246
66136W        W31363  42.669  31.149   4.164
66137W        W31364  44.330  31.651   1.521
66138W        W31365  34.661  34.384   3.347
66139W        W31366   3.937  31.699  11.977
66140W        W31367  15.083   0.981  14.733
66141W        W31368   5.215   2.561   1.796
66142W        W31369  11.775  41.409  10.743
66143W        W31370   6.557  42.744   4.629
66144W        W31371  38.075  35.124   2.251
66145W        W31372  22.622  12.939   4.494
66146W        W31373  10.144  38.935   4.537
66147W        W31374  11.408  25.083  10.482
66148W        W31375  16.636  28.452   1.429
66149W        W31376  39.526  20.129   1.783
66150W        W31377  26.415   0.397   1.180
66151W        W31378  35.155  44.072   2.626
66152W        W31379  27.459  39.344   0.876
66153W        W31380  27.411   7.718   0.806
66154W        W31381   9.303  42.450   0.476
66155W        W31382  10.362  41.628  14.962
66156W        W31383  10.898  14.944   4.179
66157W        W31384  22.479  14.860  14.437
66158W        W31385   6.428  14.568  12.599
66159W        W31386  38.298  13.590  12.864
66160W        W31387  41.530  26.434  13.470
66161W        W31388  13.199  26.120   0.405
66162W        W31389   8.647   9.108  14.203
66163W        W31390  27.217  25.051  14.024
66164W        W31391  12.688  39.474   2.462
66165W        W31392   8.092  14.819  13.240
66166W        W31393   8.604   4.244   0.007
66167W        W31394  16.354  16.047   4.518
66168W        W31395  24.196  23.787  11.662
66169W        W31396  10.403  33.366  14.596
66170W        W31397  44.393  23.313  12.432
66171W        W31398   6.606  43.471   1.374
66172W        W31399  33.561  31.841  12.548
66173W        W31400  44.897  23.739   4.824
66174W        W31401  13.866  14.696   1.414
66175W        W31402  24.739  20.264   0.767
66176W        W31403   7.083  33.926  11.556
66177W        W31404   8.201  27.102   0.815
66178W        W31405  11.538  38.840  10.162
66179W        W31406   9.674   3.700  11.747
66180W        W31407  11.118  30.601  11.589
66181W        W31408  37.593  20.438  13.917
66182W        W31409  33.303  34.895  11.562
66183W        W31410  10.538  32.991  14.060
66184W        W31411  20.682  32.051  13.203
66185W        W31412  13.215   2.199   2.347
66186W        W31413  23.630   2.002  12.906
66187W        W31414  34.571  34.054  10.742
66188W        W31415  14.296  39.145   1.792
66189W        W31416  10.935   5.121  14.554
66190W        W31417  36.247  19.675  12.399
66191W        W31418  24.059  39.086  14.940
66192W        W31419  11.848  35.067  12.943
66193W        W31420  33.607  11.164   3.359
66194W        W31421   7.488   4.225   3.688
66195W        W31422   0.256  30.902   3.142
66196W        W31423   3.463  10.249   1.888
66197W        W31424  42.342  17.487   0.743
66198W        W31425  15.195  30.986   0.942
66199W        W31426  22.742  12.399  14.969
66200W        W31427  20.140  20.315   1.481
66201W        W31428  13.084  20.653   0.426
66202W        W31429  36.063   7.638   1.264
66203W        W31430   5.274  28.602  11.569
66204W        W31431  41.935  40.518  14.256
66205W        W31432   6.803  31.871  13.417
66206W        W31433  22.238  39.018  12.035
66207W        W31434   0.095  32.733   1.300
66208W        W31435   6.388  42.816   0.884
66209W        W31436  42.465  22.507  13.250
66210W        W31437   4.444  16.185  10.503
66211W        W31438  44.990   2.177   4.107
66212W        W31439  34.452  13.634  13.348
66213W        W31440   8.593   1.422   4.099
66214W        W31441   4.823  36.498   4.508
66215W        W31442  14.804  14.274  13.580
66216W        W31443  28.133  43.885   2.159
66217W        W31444  44.426  17.666   5.362
66218W        W31445  27.673  31.895  13.443
66219W        W31446  34.552  25.635  12.209
66220W        W31447  15.803  11.126  11.108
66221W        W31448  14.043  32.911   0.396
66222W        W31449  39.054  12.263   2.944
66223W        W31450  37.577  43.057   2.339
66224W        W31451  17.250  15.193  13.998
66225W        W31452  25.849  43.705   2.359
66226W        W31453  22.708   3.285   1.676
66227W        W31454  27.217  36.605   2.322
66228W        W31455  44.262  12.308  12.887
66229W        W31456  11.689   5.901  14.356
66230W        W31457  21.140  17.843   2.830
66231W        W31458  24.657   9.906  12.497
66232W        W31459  25.015  35.828  13.045
66233W        W31460  19.371  24.739  11.415
66234W        W31461  12.319   9.782   0.251
66235W        W31462   9.813  27.632  13.054
66236W        W31463  21.606  37.752   0.189
66237W        W31464  28.314   7.658  11.898
66238W        W31465  42.754   5.673   9.935
66239W        W31466  21.832  44.850   4.539
66240W        W31467  12.820  42.348  14.584
66241W        W31468  28.994  32.632   3.671
66242W        W31469  39.108  20.500  12.937
66243W        W31470  18.591  38.387   2.062
66244W        W31471  23.105  40.116  11.859
66245W        W31472  37.156  35.894   2.459
66246W        W31473  32.363   9.461   2.636
66247W        W31474  17.078  19.028  14.393
66248W        W31475  13.879  13.404  13.069
66249W        W31476  37.325   8.190   0.386
66250W        W31477   8.265  36.302   2.718
66251W        W31478  31.088  30.985   1.153
66252W        W31479  12.754   4.662  10.579
66253W        W31480   5.266  21.012   4.556
66254W        W31481  14.818  35.217  10.912
66255W        W31482  13.085  22.476  11.129
66256W        W31483  39.235  38.209   2.302
66257W        W31484   5.766  28.680   4.721
66258W        W31485  38.013   3.029   2.340
66259W        W31486  14.307  33.958   4.848
66260W        W31487  24.132   8.204   4.615
66261W        W31488  11.537  19.196   5.060
66262W        W31489   2.812  16.837  14.888
66263W        W31490   6.760  39.525   1.039
66264W        W31491  43.581  19.118  12.921
66265W        W31492   5.714  15.129  11.593
66266W        W31493  18.360  36.955  13.715
66267W        W31494  33.885  44.354  10.308
66268W        W31495  19.187  24.478  12.557
66269W        W31496  20.833  24.766   3.941
66270W        W31497  18.281  16.309  11.675
66271W        W31498  10.692  20.625  13.009
66272W        W31499  20.945  24.700  13.092
66273W        W31500  35.982  17.343   4.117
66274W        W31501  27.544  13.743   2.917
66275W        W31502  10.337  39.803  11.044
66276W        W31503  29.527  43.271   0.514
66277W        W31504  16.709  29.668   0.662
66278W        W31505  22.291  29.471   1.031
66279W        W31506  15.120   5.179  12.015
66280W        W31507  28.362  40.454   4.914
66281W        W31508  23.515  32.852  14.776
66282W        W31509  17.808  19.710  13.340
66283W        W31510   5.949  43.384  10.675
66284W        W31511  39.082  21.112   2.842
66285W        W31512  11.119  24.496   2.715
66286W        W31513  10.286   8.297  10.762
66287W        W31514  23.460  18.878  11.007
66288W        W31515  36.603  10.665  14.684
66289W        W31516   0.492   0.742   0.417
66290W        W31517  24.582  15.678  13.120
66291W        W31518  18.986  27.783  13.026
66292W        W31519  25.319  23.082   2.413
66293W        W31520  31.024  11.845   3.185
66294W        W31521  39.484  32.546  13.223
66295W        W31522  38.897   1.253   9.929
66296W        W31523  14.507   9.395  11.696
66297W        W31524  33.600  31.689   0.211
66298W        W31525  11.152   4.863   4.526
66299W        W31526  29.947  38.031   4.059
66300W        W31527   7.287  43.481   1.806
66301W        W31528  37.106  36.985  12.095
66302W        W31529   0.257  33.597  12.966
66303W        W31530   3.288   1.767   1.152
66304W        W31531  21.705  15.272  13.605
66305W        W31532  11.211  14.187  12.538
66306W        W31533   1.188  41.756   1.776
66307W        W31534  36.797  12.170   1.567
66308W        W31535  20.574  37.911   2.372
66309W        W31536   3.707  10.857   3.670
66310W        W31537  39.515  43.656  11.973
66311W        W31538  18.211  18.566  13.819
66312W        W31539  14.341  26.697   4.691
66313W        W31540  17.521  16.113   0.399
66314W        W31541   5.840   7.381  11.586
66315W        W31542  41.217   2.779   0.783
66316W        W31543  35.135  31.864  14.855
66317W        W31544  19.095  29.346   1.871
66318W        W31545  29.088   1.933   4.733
66319W        W31546  33.142  35.085  10.737
66320W        W31547  33.472  41.624   1.695
66321W        W31548  36.441  38.338   3.682
66322W        W31549  12.349   9.844   2.310
66323W        W31550  16.578  25.027   1.534
66324W        W31551   2.893  14.735   1.224
66325W        W31552  43.350   4.978  13.589
66326W        W31553  26.669  14.695   4.101
66327W        W31554   1.844  43.936  12.175
66328W        W31555  40.516  30.938  11.471
66329W        W31556  14.086   6.106  11.190
66330W        W31557  23.925  23.246   3.258
66331W        W31558  30.170  33.386  12.052
66332W        W31559  41.361  38.846  12.343
66333W        W31560  30.927  28.758   4.959
66334W        W31561  13.674  24.452  14.336
66335W        W31562  26.075  30.722   0.251
66336W        W31563   0.512   0.777   0.944
66337W        W31564  41.568  32.985   0.545
66338W        W31565  21.034   3.631  13.497
66339W        W31566  22.227  18.326   0.377
66340W        W31567  28.145  23.949   3.614
66341W        W31568   1.652  40.081  14.919
66342W        W31569  43.833  22.108   0.866
66343W        W31570  35.603  10.528   0.427
66344W        W31571  31.403  21.469   3.190
66345W        W31572  43.931   6.683  11.095
66346W        W31573  40.813  11.767  13.387
66347W        W31574  36.301   9.679   1.908
66348W        W31575   4.207   9.402  11.496
66349W        W31576  31.179  11.584   2.775
66350W        W31577  37.949  10.196   2.572
66351W        W31578   0.721  30.044   1.359
66352W        W31579  34.378  20.707  12.930
66353W        W31580  43.458  42.910   2.705
66354W        W31581  37.512   7.279  14.748
66355W        W31582  13.240  36.782   0.910
66356W        W31583  37.183  13.193   3.025
66357W        W31584  33.060   7.103   0.653
66358W        W31585   8.501  16.600   3.104
66359W        W31586   7.804  43.543  14.412
66360W        W31587  10.237  31.002  14.280
66361W        W31588  44.920  35.547  10.843
66362W        W31589   5.993   0.914   4.105
66363W        W31590   4.382  15.282   0.451
66364W        W31591  20.095   7.664  12.323
66365W        W31592  28.488   1.622   4.575
66366W        W31593  31.400  28.649   5.113
66367W        W31594  44.233  22.266   4.644
66368W        W31595  18.550  20.555  13.600
66369W        W31596  34.923  40.108   4.740
66370W        W31597  12.487  17.692   3.328
66371W        W31598  16.872   2.428   4.867
66372W        W31599  15.493  41.265  12.026
66373W        W31600  33.038  34.789   2.659
66374W        W31601   1.291  20.599   0.439
66375W        W31602  13.156   8.730   0.331
66376W        W31603  10.568  16.547  12.463
66377W        W31604  40.191  24.008  13.823
66378W        W31605  19.221   6.833   4.622
66379W        W31606   2.282  36.091  10.813
66380W        W31607  20.745  21.998   4.267
66381W        W31608  15.817  38.005  11.653
66382W        W31609  35.043  25.513   0.985
66383W        W31610  28.872  30.656   1.500
66384W        W31611  43.484   7.179  12.602
66385W        W31612  35.423  29.127   3.364
66386W        W31613  15.524  39.425   4.467
66387W        W31614  23.446  16.340  12.888
66388W        W31615  21.029  17.546   1.435
66389W        W31616  25.438  30.709   2.217
66390W        W31617  32.072   9.310  11.390
66391W        W31618  29.432  44.992  13.810
66392W        W31619  34.518  44.955  14.367
66393W        W31620  20.848  36.810  11.111
66394W        W31621  38.398  13.081   1.980
66395W        W31622  27.026  25.164  12.103
66396W        W31623   6.181  18.868   1.759
66397W        W31624   7.213   6.621   3.753
66398W        W31625   3.492   0.040   3.217
66399W        W31626  32.929  10.192   4.563
66400W        W31627  33.625  33.827   0.414
66401W        W31628   4.105   5.434   4.092
66402W        W31629  10.090  17.552   3.644
66403W        W31630  16.988  33.463   5.084
66404W        W31631   9.523   0.601   1.435
66405W        W31632   6.636  38.009   2.335
66406W        W31633  30.705  38.949   3.148
66407W        W31634  26.877  31.640   3.702
66408W        W31635  33.447   6.077   3.179
66409W        W31636  31.324  25.857  14.347
66410W        W31637  33.606   3.317  10.769
66411W        W31638  12.769   6.813  12.080
66412W        W31639   5.289  35.255   3.752
66413W        W31640  31.196   0.762   9.870
66414W        W31641  20.110  29.706   1.456
66415W        W31642  12.095  24.298   0.970
66416W        W31643  22.585  38.037  11.887
66417W        W31644   4.427  10.736   0.492
66418W        W31645  18.435  38.191   0.264
66419W        W31646  13.066  23.644   1.376
66420W        W31647  17.344  24.967  10.823
66421W        W31648  16.961  19.220   4.594
66422W        W31649  42.353   7.870   4.616
66423W        W31650   3.832  32.985   1.147
66424W        W31651  14.386  35.427  14.008
66425W        W31652  12.741  37.524   4.036
66426W        W31653  23.957  19.676  12.000
66427W        W31654   3.404  29.756  12.887
66428W        W31655  12.959  30.646   2.248
66429W        W31656   8.323   4.757   1.975
66430W        W31657   7.671   1.882   2.344
66431W        W31658   6.149  34.050   3.840
66432W        W31659  29.321  16.684  13.063
66433W        W31660  15.895   7.541   4.683
66434W        W31661  17.161  39.940  12.846
66435W        W31662  20.139  31.048  12.504
66436W        W31663   3.697  38.732   1.770
66437W        W31664  23.797  31.639  12.440
66438W        W31665   7.873  43.779  14.889
66439W        W31666  28.613  15.609   0.879
66440W        W31667  34.907  12.852  14.123
66441W        W31668   0.347   6.524  11.015
66442W        W31669  32.875  43.924  12.007
66443W        W31670  19.634  22.451   1.277
66444W        W31671  12.930   5.620   2.162
66445W        W31672  28.363  11.182   1.987
66446W        W31673  31.116  19.295  12.870
66447W        W31674  40.032  27.333   0.037
66448W        W31675   2.746  36.518   3.264
66449W        W31676   4.717  37.573   1.612
66450W        W31677  17.639  24.147  11.157
66451W        W31678   9.867  19.132   2.196
66452W        W31679  17.840   4.164  13.468
66453W        W31680   1.476  36.122   1.943
66454W        W31681  26.588  29.892   2.908
66455W        W31682  35.560   9.882   4.735
66456W        W31683   4.732   1.267   4.351
66457W        W31684  24.608   6.641   1.431
66458W        W31685   2.541  20.784   5.093
66459W        W31686  12.062  34.556   2.140
66460W        W31687   3.453  10.756  14.396
66461W        W31688  21.218  27.706   2.243
66462W        W31689   5.233  10.294  12.052
66463W        W31690  35.119   3.774   1.574
66464W        W31691  14.824  24.394  10.569
66465W        W31692  21.138  37.502  10.498
66466W        W31693   9.650  34.583  12.669
66467W        W31694  30.115  14.045  13.099
66468W        W31695  37.419  38.631  13.770
66469W        W31696  27.576  27.775  13.176
66470W        W31697   0.025  21.678  14.326
66471W        W31698  37.400  33.027   4.900
66472W        W31699  34.636  28.144   3.240
66473W        W31700   5.898  35.381  14.400
66474W        W31701  38.105  19.036   0.683
66475W        W31702  13.591   1.324  11.543
66476W        W31703  10.836  27.824   2.661
66477W        W31704  14.894  19.445  12.915
66478W        W31705  43.803   7.874   3.390
66479W        W31706   2.927  38.294  14.610
66480W        W31707  22.537   9.155  12.943
66481W        W31708   7.826  38.644   4.196
66482W        W31709   9.561   2.750   0.042
66483W        W31710  38.312  41.210  14.815
66484W        W31711  39.833  16.947  12.650
66485W        W31712  37.961   1.525   2.818
66486W        W31713   4.949  33.406  11.986
66487W        W31714  12.608  14.812  10.725
66488W        W31715  38.783  31.873  12.961
66489W        W31716  36.474   4.639   3.216
66490W        W31717  41.867  30.510  14.814
66491W        W31718   9.649  42.649   3.590
66492W        W31719  11.568  24.592   4.053
66493W        W31720  18.305  35.347   3.300
66494W        W31721  15.169  22.686  11.918
66495W        W31722  35.109  12.335  13.568
66496W        W31723  43.711   1.857  13.433
66497W        W31724  13.261  19.215   4.020
66498W        W31725  19.512  35.824   4.091
66499W        W31726  24.984  15.772   0.179
66500W        W31727  21.286   4.957  11.066
66501W        W31728  44.860  21.418  12.572
66502W        W31729  39.981  31.108  13.830
66503W        W31730  37.848  23.701   0.795
66504W        W31731  14.866  31.078   2.290
66505W        W31732  38.549  38.457   2.791
66506W        W31733  36.601  15.595   0.271
66507W        W31734   6.994  34.100  14.049
66508W        W31735  12.573  16.316  10.669
66509W        W31736   1.278  33.057  12.758
66510W        W31737  44.263  17.519  11.146
66511W        W31738  33.816  38.402  13.971
66512W        W31739  34.061   2.155   0.940
66513W        W31740  21.224  24.410  11.066
66514W        W31741  44.349  40.153   2.715
66515W        W31742  36.295   0.528  11.661
66516W        W31743  28.198   6.649  14.505
66517W        W31744   8.562  27.423   2.273
66518W        W31745  44.589  11.945  14.800
66519W        W31746  27.905  27.997  12.238
66520W        W31747  39.269  28.149  12.533
66521W        W31748   2.542  16.279  13.895
66522W        W31749   4.443  31.045   3.788
66523W        W31750  11.866  31.852   4.085
66524W        W31751  37.965  32.096  12.604
66525W        W31752  39.295  26.444   4.619
66526W        W31753  30.577  35.833   2.129
66527W        W31754  22.665  27.337  11.334
66528W        W31755  44.014   8.485  14.885
66529W        W31756   3.181  28.397   1.394
66530W        W31757  25.447   0.219   1.227
66531W        W31758   7.162  39.068  12.525
66532W        W31759  26.199  38.836  10.286
66533W        W31760   6.360   2.988   0.792
66534W        W31761  25.640  38.591  12.256
66535W        W31762   1.551  14.155  13.413
66536W        W31763  24.982  23.394   0.258
66537W        W31764  16.264   4.085  14.864
66538W        W31765  34.247  25.214  11.346
66539W        W31766  22.108  29.490  12.531
66540W        W31767   6.253  27.944   1.864
66541W        W31768   4.971  12.815   4.198
66542W        W31769  37.221  34.749  12.994
66543W        W31770   2.410  31.545  12.102
66544W        W31771  39.077  10.773  14.924
66545W        W31772   3.718  24.021   2.786
66546W        W31773  14.289  23.465  12.410
66547W        W31774   2.731  20.600  12.967
66548W        W31775  39.653   0.392  11.153
66549W        W31776  38.605  12.893  10.542
66550W        W31777  38.515  37.583  10.476
66551W        W31778  40.039  26.399   2.365
66552W        W31779   0.283   6.559   3.670
66553W        W31780  25.668  40.645   2.880
66554W        W31781  37.710  13.227   3.260
66555W        W31782  38.304  30.610  12.444
66556W        W31783   5.687  42.291  14.063
66557W        W31784  26.229  27.652   0.987
66558W        W31785  43.506  27.095   5.271
66559W        W31786  24.233   2.631   4.044
66560W        W31787  35.003  14.514  13.093
66561W        W31788  16.671  23.275   2.339
66562W        W31789  36.942  38.355  13.823
66563W        W31790   7.971  39.379  10.402
66564W        W31791   2.252  33.809   1.748
66565W        W31792  37.275  11.026  13.357
66566W        W31793   6.197  36.137  11.610
66567W        W31794  27.663  28.239   5.356
66568W        W31795  10.675  34.862  14.766
66569W        W31796  21.726  12.828  12.834
66570W        W31797  20.812  15.576   3.719
66571W        W31798   1.782   0.832  12.399
66572W        W31799   9.367  30.161   4.557
66573W        W31800  13.686   6.984  13.583
66574W        W31801  30.276  32.906  11.194
66575W        W31802  41.902  25.987   2.839
66576W        W31803  42.863  43.407  14.882
66577W        W31804   0.948   6.978  13.975
66578W        W31805  42.294   0.033   3.671
66579W        W31806  39.891  39.849   4.189
66580W        W31807  18.733   2.524  12.982
66581W        W31808   9.493  34.552   2.853
66582W        W31809  35.550  18.735   1.845
66583W        W31810  32.816  23.996   0.195
66584W        W31811  43.717   1.212  12.196
66585W        W31812  10.082  19.237   0.402
66586W        W31813   7.924  27.105  12.628
66587W        W31814  42.318  15.226  11.209
66588W        W31815  18.804  16.952  13.761
66589W        W31816  27.428  34.399   0.342
66590W        W31817  43.215   6.026  13.858
66591W        W31818  33.635  13.028   5.375
66592W        W31819  14.630  34.637  13.842
66593W        W31820  16.827   8.859   0.552
66594W        W31821  28.934   2.209   0.925
66595W        W31822  15.961  16.115   1.307
66596W        W31823  17.064  33.260   2.470
66597W        W31824  43.548   2.724   4.108
66598W        W31825  31.553  31.077   3.097
66599W        W31826   4.687  23.614  10.152
66600W        W31827  15.812  33.867   3.300
66601W        W31828  25.291  43.039  13.392
66602W        W31829  27.056   3.344  14.819
66603W        W31830  28.204   9.118  13.824
66604W        W31831   0.174  28.069  12.080
66605W        W31832  23.440  18.623   1.517
66606W        W31833  28.922  41.528   1.382
66607W        W31834   6.433   8.850   1.959
66608W        W31835  31.190  33.368   3.274
66609W        W31836  23.221  22.074  10.678
66610W        W31837  10.284  12.268   1.247
66611W        W31838  27.041  37.246   1.746
66612W        W31839  20.354  31.067   1.354
66613W        W31840  19.234  23.406   1.089
66614W        W31841  20.681  10.541  10.677
66615W        W31842   3.427  22.477   2.525
66616W        W31843  12.267  18.596  14.510
66617W        W31844  35.850   6.888  14.283
66618W        W31845  34.172  16.903   3.868
66619W        W31846   9.236  41.767   1.296
66620W        W31847  24.104  13.620  12.857
66621W        W31848  11.272  30.438  12.062
66622W        W31849  20.038  14.127   3.123
66623W        W31850   7.367  24.087  10.771
66624W        W31851  38.375  37.892   3.941
66625W        W31852   7.296  21.281   0.422
66626W        W31853   6.534   7.264   0.414
66627W        W31854  27.471  39.525  13.310
66628W        W31855   4.440  30.845   0.494
66629W        W31856   3.521  43.012   1.845
66630W        W31857  33.437  44.892   4.787
66631W        W31858   4.935  32.968   0.730
66632W        W31859  35.850  17.691  14.331
66633W        W31860  21.085  30.563  11.143
66634W        W31861  27.345  26.250  10.327
66635W        W31862  24.027  43.374   2.448
66636W        W31863  34.874   8.869  14.907
66637W        W31864  41.629   8.420  13.828
66638W        W31865  22.016  18.059  10.385
66639W        W31866  35.389  36.295   2.686
66640W        W31867   4.335  21.698  12.002
66641W        W31868  38.813   0.263  13.335
66642W        W31869  18.742  36.869   2.485
66643W        W31870  32.110   1.444   1.823
66644W        W31871  44.399   9.716   1.411
66645W        W31872  18.318  34.055   3.828
66646W        W31873  25.487  21.692   3.577
66647W        W31874  29.245  39.354  14.856
66648W        W31875  32.878  11.414  13.825
66649W        W31876  24.103  20.175  11.903
66650W        W31877  40.549   0.231   3.411
66651W        W31878   3.638  41.199   3.763
66652W        W31879  32.304  28.155  10.868
66653W        W31880  28.866  41.967   4.090
66654W        W31881   5.986  15.638   5.006
66655W        W31882  28.200   9.921   0.329
66656W        W31883  43.717  34.355  13.426
66657W        W31884  19.036  44.950   3.569
66658W        W31885  36.363   0.259  12.119
66659W        W31886   4.974   7.910   3.672
66660W        W31887  10.242  20.544   1.239
66661W        W31888   9.506  27.656  11.212
66662W        W31889  14.735  38.912   4.589
66663W        W31890  25.658  42.678  14.207
66664W        W31891  37.125  30.786  13.030
66665W        W31892  19.303  17.032   4.898
66666W        W31893  30.141  28.780   0.335
66667W        W31894  42.811  11.649   1.164
66668W        W31895   6.066   9.578   0.621
66669W        W31896   0.889  13.548   2.019
66670W        W31897   1.296  36.896  12.861
66671W        W31898   9.780  36.574  10.350
66672W        W31899  25.964  12.770  11.531
66673W        W31900  28.613  26.710   3.260
66674W        W31901   5.205   1.299   1.420
66675W        W31902  16.845  34.419   2.340
66676W        W31903  14.739   1.971  12.395
66677W        W31904   5.910  37.854  14.619
66678W        W31905  42.932  39.967  12.633
66679W        W31906   2.926   5.009   1.627
66680W        W31907  40.066  18.306   1.788
66681W        W31908   2.874  22.550  12.036
66682W        W31909  17.245  16.112   0.850
66683W        W31910  30.981  15.334   0.182
66684W        W31911   9.860  14.259  12.937
66685W        W31912   8.909  32.936   1.699
66686W        W31913   5.292  44.204   0.370
66687W        W31914   6.707  37.931   0.443
66688W        W31915   1.005  38.667  14.394
66689W        W31916  30.423  11.968   9.822
66690W        W31917  16.408  30.171   1.844
66691W        W31918  19.511  42.988  14.144
66692W        W31919  13.226   4.758   4.238
66693W        W31920   2.141  34.049  12.937
66694W        W31921  27.870   4.504   4.049
66695W        W31922  31.027  13.755   2.128
66696W        W31923  31.049   8.634   2.831
66697W        W31924  16.120  15.066   2.093
66698W        W31925  24.756  11.140   3.265
66699W        W31926  13.625  36.366   2.959
66700W        W31927  42.256  17.447   1.722
66701W        W31928  42.267   5.198   0.232
66702W        W31929  30.237  10.944  11.100
66703W        W31930  36.508  15.151   0.539
66704W        W31931  43.639  29.168   3.315
66705W        W31932  31.143  13.231   2.051
66706W        W31933  17.606  17.584  12.548
66707W        W31934  37.976  42.549   1.117
66708W        W31935  34.726  12.777   3.840
66709W        W31936  29.177  23.736  12.902
66710W        W31937  23.140  36.375   1.799
66711W        W31938  27.189  36.156  12.806
66712W        W31939  30.301  11.436   9.877
66713W        W31940  30.020   3.295  13.554
66714W        W31941  43.786  33.420  11.424
66715W        W31942   1.730  14.423  10.870
66716W        W31943  10.683  14.083   4.189
66717W        W31944  39.013   4.501  14.796
66718W        W31945  42.467  29.913   2.362
66719W        W31946  22.704  11.975   2.249
66720W        W31947  36.932  36.634  14.352
66721W        W31948  11.823  37.071  14.337
66722W        W31949  18.401  44.347   4.994
66723W        W31950  31.684   2.839   3.799
66724W        W31951  12.639  38.297  13.460
66725W        W31952  29.959  23.938   1.679
66726W        W31953  29.833  27.710   2.170
66727W        W31954  32.704  30.736  12.867
66728W        W31955  41.361  36.403  14.793
66729W        W31956  32.371  43.799   4.901
66730W        W31957  38.344  17.851   0.518
66731W        W31958  35.596  36.984   3.292
66732W        W31959  28.532   6.825  12.008
66733W        W31960  41.072   6.229  14.811
66734W        W31961  20.988  10.243   4.908
66735W        W31962  25.485  27.045   0.935
66736W        W31963  19.816  43.750  14.116
66737W        W31964  28.936  28.842  13.909
66738W        W31965  43.293  13.604   1.847
66739W        W31966  40.401   8.586  12.449
66740W        W31967  34.196  19.316  12.094
66741W        W31968  31.034   8.583  11.146
66742W        W31969  33.723  44.381  13.463
66743W        W31970   2.815  36.928  12.058
66744W        W31971  14.180  29.358   0.763
66745W        W31972   1.816  42.274  12.968
66746W        W31973  13.080   4.281  13.161
66747W        W31974  27.740  44.899  14.967
66748W        W31975   7.359  17.055   4.038
66749W        W31976   4.003  41.981   4.107
66750W        W31977  36.354  35.906   2.694
66751W        W31978   9.999  28.107  12.238
66752W        W31979  10.421  29.895  11.984
66753W        W31980  22.257  44.449  12.781
66754W        W31981   0.972  39.168  13.748
66755W        W31982  26.354  10.897  12.065
66756W        W31983  10.660   3.408  12.481
66757W        W31984   3.868  23.674  14.439
66758W        W31985  28.185  42.603  13.788
66759W        W31986  18.342  42.899   1.745
66760W        W31987   3.487  38.832   3.501
66761W        W31988   7.140   9.648   2.763
66762W        W31989  12.353  10.663   3.103
66763W        W31990  30.896   8.668  13.503
66764W        W31991  41.447  34.469   3.235
66765W        W31992   7.958  41.350   0.809
66766W        W31993  27.031   7.147   1.645
66767W        W31994  39.248  17.158  12.039
66768W        W31995  30.222  23.126   4.819
66769W        W31996  41.738  39.917   4.325
66770W        W31997  21.511  31.681  14.910
66771W        W31998  13.359  12.644   4.684
66772W        W31999  29.857  31.497  12.614
66773W        W32000   3.216  17.623   3.703
66774W        W32001  27.336  43.848   3.649
66775W        W32002   9.843   1.911   1.254
66776W        W32003  36.538  41.218   4.194
66777W        W32004   0.786   0.035  10.726
66778W        W32005   9.712   2.140  14.008
66779W        W32006   9.264  41.828  10.425
66780W        W32007  12.472  40.916  14.626
66781W        W32008   5.159  16.085   3.324
66782W        W32009  16.086  31.613  13.442
66783W        W32010   1.582  33.443   0.441
66784W        W32011  13.140  11.312   0.543
66785W        W32012  41.064  31.100   1.424
66786W        W32013   4.974  44.891  14.808
66787W        W32014  33.694  30.583   4.569
66788W        W32015  20.905  39.084   3.520
66789W        W32016  24.193  26.722   3.332
66790W        W32017  14.261  39.558   0.388
66791W        W32018  25.697  34.961   3.351
66792W        W32019  44.934   3.795   2.395
66793W        W32020   2.056  42.079   9.719
66794W        W32021   2.493   8.844   2.840
66795W        W32022  37.512  28.136   1.626
66796W        W32023  40.230   7.948  11.520
66797W        W32024  18.635  32.883   2.034
66798W        W32025  21.836  27.718  12.920
66799W        W32026  10.429  16.773   3.988
66800W        W32027  34.798   0.884  14.011
66801W        W32028  32.628   4.115  14.638
66802W        W32029   7.776  34.850  13.364
66803W        W32030  33.591  23.389  11.313
66804W        W32031  38.423  36.868  13.413
66805W        W32032   5.449  31.406   1.051
66806W        W32033   8.150  32.869  14.824
66807W        W32034   4.830  26.916   1.270
66808W        W32035  28.114  11.877   3.146
66809W        W32036  18.279   3.243  13.710
66810W        W32037   4.390   4.322   3.484
66811W        W32038   9.174  25.458   1.825
66812W        W32039   3.810  30.704  13.518
66813W        W32040  43.978  24.701  11.212
66814W        W32041  16.855   4.526  13.464
66815W        W32042  22.131   4.007  14.860
66816W        W32043   1.701  24.811   3.663
66817W        W32044   4.385  16.626  12.217
66818W        W32045  43.068  15.176   1.875
66819W        W32046   3.034  42.268   1.473
66820W        W32047  31.249  41.096   2.262
66821W        W32048  23.433  27.320   0.892
66822W        W32049  25.461  16.250   4.334
66823W        W32050  42.342  31.888  12.072
66824W        W32051   4.229   1.883  12.451
66825W        W32052  11.356  37.440  13.151
66826W        W32053  28.619  38.728  11.023
66827W        W32054  17.635  22.883  13.078
66828W        W32055  12.912  40.313  10.584
66829W        W32056  20.538  26.863   2.938
66830W        W32057  19.094   3.066   1.890
66831W        W32058  33.624  25.606  11.943
66832W        W32059  41.821  10.228  14.159
66833W        W32060   7.940  32.205   2.377
66834W        W32061  17.379   4.304   1.231
66835W        W32062   8.602  35.169   0.223
66836W        W32063   9.318  11.236   1.651
66837W        W32064  27.499  41.131   0.291
66838W        W32065  41.547  16.246   0.186
66839W        W32066  14.531  21.393   1.431
66840W        W32067   9.290  34.014   2.852
66841W        W32068  30.594  32.867  13.141
66842W        W32069  43.937  16.050  11.070
66843W        W32070  31.894   2.544  12.006
66844W        W32071  39.157  12.958   9.699
66845W        W32072  25.502  23.119  13.531
66846W        W32073  14.358  24.787   1.927
66847W        W32074  26.688  37.023   3.779
66848W        W32075   7.935  17.237   0.829
66849W        W32076   0.451   1.294  11.574
66850W        W32077  18.083  14.337  14.108
66851W        W32078  17.733   9.243  11.015
66852W        W32079  37.951  37.607   4.547
66853W        W32080  42.520  39.956   1.723
66854W        W32081  36.878  33.389  13.251
66855W        W32082  25.307  25.081   4.265
66856W        W32083  31.250  40.789  12.698
66857W        W32084  11.777  13.516   3.701
66858W        W32085  17.891  44.816   4.407
66859W        W32086  11.118   8.194  12.599
66860W        W32087  13.688   9.254   4.112
66861W        W32088  26.014  10.081  11.266
66862W        W32089   1.441  25.699   3.660
66863W        W32090   4.337  18.678   2.198
66864W        W32091   8.666  26.722  13.801
66865W        W32092  13.187  33.326  14.757
66866W        W32093   4.365  28.581   1.887
66867W        W32094  35.473   1.444  13.869
66868W        W32095  31.369  17.136  14.435
66869W        W32096  14.254  19.228   4.394
66870W        W32097  38.327  16.332  11.467
66871W        W32098  11.038  38.393  12.153
66872W        W32099   8.821  33.678  14.634
66873W        W32100  15.375  35.635  13.922
66874W        W32101   1.207  40.629   0.959
66875W        W32102  21.273  16.225   1.770
66876W        W32103  43.316  24.104   4.615
66877W        W32104  15.286   1.152   3.635
66878W        W32105  33.101  30.400  12.899
66879W        W32106  36.411  41.039  13.882
66880W        W32107  36.351  19.710   2.747
66881W        W32108  32.176  36.931  13.456
66882W        W32109  32.844  43.307   1.623
66883W        W32110   6.692  25.127   1.421
66884W        W32111   3.517  33.690   2.366
66885W        W32112  41.375  19.271   2.320
66886W        W32113  18.803  35.755   0.296
66887W        W32114  14.049  29.236  13.912
66888W        W32115  38.822  18.987  13.871
66889W        W32116  22.816   9.083   1.272
66890W        W32117  28.667  43.174   1.427
66891W        W32118   8.643  36.789   1.201
66892W        W32119  12.138  40.982   4.120
66893W        W32120  12.300   4.258   1.263
66894W        W32121  28.890  17.076   1.307
66895W        W32122  42.244  19.127  11.103
66896W        W32123   4.955  42.776   4.071
66897W        W32124  42.416  19.465   1.802
66898W        W32125  10.680  33.494   0.887
66899W        W32126  32.402   9.631   3.793
66900W        W32127  42.996  20.792   4.507
66901W        W32128  29.375  18.688   2.189
66902W        W32129  30.659   4.228  13.732
66903W        W32130  42.852   7.172  14.453
66904W        W32131  27.474   2.717  10.385
66905W        W32132   5.388   1.046   4.511
66906W        W32133  15.731  12.656  14.814
66907W        W32134  36.210  26.871  10.478
66908W        W32135  44.571  32.555  13.609
66909W        W32136  21.786  35.065  10.586
66910W        W32137  30.624   8.183   4.299
66911W        W32138  17.943  17.481   0.313
66912W        W32139   7.332  43.710  13.575
66913W        W32140  14.579  12.558   3.128
66914W        W32141   8.373  44.273   0.412
66915W        W32142  16.284  39.915  12.119
66916W        W32143   1.514   0.343  12.719
66917W        W32144  20.625  33.139  13.418
66918W        W32145  31.385  32.556   4.380
66919W        W32146  17.155   9.464   1.761
66920W        W32147  37.492  30.902  13.436
66921W        W32148  16.559  23.097   4.751
66922W        W32149  34.806   6.767  12.432
66923W        W32150  26.117  13.716  10.966
66924W        W32151  29.558   3.416   0.838
66925W        W32152  36.252  10.342  12.567
66926W        W32153  15.999   9.563  11.287
66927W        W32154  25.977  17.807  14.034
66928W        W32155  39.993  16.302  14.263
66929W        W32156  33.654  22.598  11.559
66930W        W32157  12.905  39.292  13.813
66931W        W32158  33.779  43.860  11.597
66932W        W32159  13.208  18.713   2.319
66933W        W32160   2.174  32.197   4.603
66934W        W32161  23.215  40.547  10.906
66935W        W32162  14.335  32.348  13.968
66936W        W32163  35.549   7.423  14.455
66937W        W32164  19.221  44.966   2.172
66938W        W32165  38.244  41.738   2.839
66939W        W32166  28.702  23.194  13.677
66940W        W32167  16.821  43.778  10.552
66941W        W32168   2.694  39.233   1.103
66942W        W32169  26.008  20.530   3.008
66943W        W32170  44.260  12.517  14.248
66944W        W32171  27.626   3.153   3.133
66945W        W32172   4.762  34.493   1.505
66946W        W32173  25.001   2.748  13.943
66947W        W32174  35.533  26.677   0.352
66948W        W32175  42.777  27.010   1.898
66949W        W32176  24.193  35.042   3.324
66950W        W32177   8.451  29.312   4.135
66951W        W32178   1.151   2.424  14.186
66952W        W32179  30.539  44.270  12.578
66953W        W32180  15.304   6.114  14.825
66954W        W32181   8.375  16.122   0.921
66955W        W32182   9.930  13.875  14.296
66956W        W32183  39.415  14.023   1.949
66957W        W32184  14.177  39.873   1.248
66958W        W32185  36.396  21.114  14.850
66959W        W32186  19.329  42.835   5.029
66960W        W32187  16.298  23.651   2.640
66961W        W32188  43.489  29.671   3.186
66962W        W32189   9.696   3.179   2.696
66963W        W32190  27.721  17.778   1.848
66964W        W32191  34.169  24.118  14.073
66965W        W32192  33.399  16.500  12.576
66966W        W32193  17.653  38.250   3.196
66967W        W32194  40.787  28.488  10.681
66968W        W32195  15.313  34.268  11.485
66969W        W32196  16.218  40.545   4.718
66970W        W32197  39.060  26.054  14.388
66971W        W32198   0.514  33.457   1.364
66972W        W32199  43.257  34.976  11.306
66973W        W32200  33.328  41.599   0.810
66974W        W32201  18.594  21.179  13.758
66975W        W32202   9.931  36.006  12.928
66976W        W32203   6.973  19.782   4.880
66977W        W32204  20.368  16.113   0.485
66978W        W32205  34.303  20.814  11.962
66979W        W32206  31.577   8.396   0.730
66980W        W32207  36.288  10.922  13.461
66981W        W32208  21.740  32.421  11.580
66982W        W32209  28.234  29.243  14.492
66983W        W32210  17.244  35.254   0.775
66984W        W32211  39.985   0.251  12.712
66985W        W32212   5.919   9.881   4.566
66986W        W32213   3.976   3.429   2.704
66987W        W32214   3.960  44.806   0.024
66988W        W32215  28.259  34.456  12.885
66989W        W32216  44.402  43.669   0.691
66990W        W32217  31.842  30.190  10.910
66991W        W32218  30.786  42.327  13.829
66992W        W32219  42.673   3.365   5.053
66993W        W32220  24.583  25.795  13.936
66994W        W32221  22.888  40.079  10.242
66995W        W32222  15.347  21.054  12.768
66996W        W32223  32.320   3.840   0.710
66997W        W32224  25.538   0.413  13.967
66998W        W32225  19.902  16.061  14.276
66999W        W32226  13.753  10.624   1.243
67000W        W32227  26.263  40.246  14.260
67001W        W32228  18.701  32.129   4.599
67002W        W32229  17.657  35.533  12.170
67003W        W32230   1.236  31.653  11.076
67004W        W32231  35.852  43.222   4.400
67005W        W32232  29.500  12.669   0.893
67006W        W32233  24.273   6.743  13.547
67007W        W32234   2.300  26.962   0.426
67008W        W32235  32.196  21.214  14.007
67009W        W32236  40.850  10.302   0.308
67010W        W32237  18.277   1.084   1.697
67011W        W32238  35.187  42.985  14.933
67012W        W32239  25.243  33.487  11.146
67013W        W32240  25.898   9.988  13.437
67014W        W32241  13.527  23.470   2.862
67015W        W32242  19.906  41.896   1.446
67016W        W32243  15.904  31.412  12.438
67017W        W32244  30.518  24.303   0.957
67018W        W32245  26.546  32.362   4.374
67019W        W32246   8.556  26.647   3.659
67020W        W32247  36.772  15.002   4.921
67021W        W32248  13.901   3.284   0.262
67022W        W32249  19.912  32.941  14.616
67023W        W32250  16.428  16.734   0.894
67024W        W32251  17.625  42.461   3.620
67025W        W32252  27.213  42.434  12.978
67026W        W32253  20.037   1.458   4.107
67027W        W32254  12.611  20.732  12.417
67028W        W32255  27.742   8.408  10.771
67029W        W32256  41.094  16.012   4.246
67030W        W32257  34.062  13.335   0.421
67031W        W32258  23.074  16.071   3.803
67032W        W32259  37.098   3.534  13.108
67033W        W32260  30.130  35.523   0.457
67034W        W32261  40.422  37.439   0.012
67035W        W32262  33.274  37.814  10.485
67036W        W32263   0.464  37.422  11.525
67037W        W32264  35.931  13.881   3.852
67038W        W32265  39.226   5.497   2.106
67039W        W32266  38.157  26.955   2.707
67040W        W32267   4.740  22.732  11.205
67041W        W32268  41.012   8.517  11.657
67042W        W32269   2.363  33.598   0.901
67043W        W32270  42.744  38.405  11.546
67044W        W32271  15.096  28.314  13.418
67045W        W32272  27.392   5.684   1.434
67046W        W32273  27.241  11.222   1.202
67047W        W32274  29.616  12.145   4.639
67048W        W32275  24.052  40.777   3.517
67049W        W32276   8.715  39.100  11.468
67050W        W32277  23.556   0.689  11.717
67051W        W32278  30.944  20.017   3.663
67052W        W32279   4.957  30.738   1.734
67053W        W32280  32.710   0.288  13.501
67054W        W32281   8.698   8.176  14.605
67055W        W32282  25.338  44.484   2.626
67056W        W32283  37.461   6.992  12.021
67057W        W32284   3.695   0.920   2.564
67058W        W32285  42.188  39.054  14.274
67059W        W32286  13.705  10.856  11.997
67060W        W32287  12.700   1.437   4.713
67061W        W32288   2.320  41.500   1.962
67062W        W32289  17.395   9.335  14.829
67063W        W32290  41.893  11.903  11.517
67064W        W32291  30.538  14.318  12.177
67065W        W32292  20.211  15.954   2.325
67066W        W32293  16.884  20.741  14.282
67067W        W32294   5.327  20.492   4.377
67068W        W32295  43.222  41.855  11.583
67069W        W32296  34.497  23.627  11.136
67070W        W32297  35.706  13.820   4.941
67071W        W32298   1.467  11.050   2.720
67072W        W32299  38.722   6.800   1.534
67073W        W32300   3.715   9.631   0.118
67074W        W32301   3.063  31.943  10.216
67075W        W32302  12.216  11.764   1.232
67076W        W32303  32.984  34.037   2.060
67077W        W32304   5.725  19.749  14.896
67078W        W32305  25.057  11.847  11.191
67079W        W32306  40.504   8.493   9.935
67080W        W32307  27.469  38.151   4.693
67081W        W32308  11.768  33.987   0.074
67082W        W32309  34.116   2.066   3.405
67083W        W32310   6.336  26.760  14.739
67084W        W32311  40.873  38.422  11.590
67085W        W32312   3.548   3.253   0.967
67086W        W32313  28.510  22.360  11.241
67087W        W32314  10.283  17.100   2.713
67088W        W32315  22.505  35.665  14.050
67089W        W32316  43.000  27.722  11.211
67090W        W32317  34.007  21.014  10.957
67091W        W32318   5.905  17.640  11.162
67092W        W32319   2.047  44.133   0.906
67093W        W32320  42.344  41.764  11.148
67094W        W32321  17.352   0.671  14.331
67095W        W32322   6.328  31.628   3.662
67096W        W32323   3.532   5.895   3.120
67097W        W32324   2.314  31.839   2.467
67098W        W32325  39.855  16.552  12.317
67099W        W32326  15.190   3.242   2.264
67100W        W32327  14.815  21.700  14.324
67101W        W32328  26.950  21.075  13.421
67102W        W32329  18.335  28.125  13.979
67103W        W32330  41.990  24.383   2.817
67104W        W32331  27.569  41.716   3.631
67105W        W32332  34.862  36.604   1.393
67106W        W32333  14.311  11.510  13.123
67107W        W32334  15.128  35.447  14.802
67108W        W32335  43.359  20.926   4.904
67109W        W32336  36.895  19.845  14.273
67110W        W32337  25.743   8.308  13.524
67111W        W32338  44.527  37.373  10.826
67112W        W32339  35.784  42.382  11.431
67113W        W32340  29.525   8.797  11.834
67114W        W32341  18.273  32.001   2.347
67115W        W32342  10.122  42.852   0.462
67116W        W32343  25.276  35.655   0.358
67117W        W32344  39.331  17.439  10.808
67118W        W32345  32.814   1.952   1.760
67119W        W32346  15.345  24.156  13.526
67120W        W32347  38.311  32.031  13.887
67121W        W32348   5.996  38.202  10.760
67122W        W32349  40.476  13.812   4.835
67123W        W32350  40.733  12.720   1.719
67124W        W32351  44.602   1.348   0.320
67125W        W32352  18.040   2.324  13.357
67126W        W32353  20.151  35.936  13.971
67127W        W32354  43.900  25.211   4.400
67128W        W32355  37.018  24.802   3.272
67129W        W32356  15.648   2.737  12.243
67130W        W32357  23.203  28.435  13.900
67131W        W32358  33.031   5.899   1.143
67132W        W32359  11.131  25.089   1.770
67133W        W32360  24.558  44.408  10.674
67134W        W32361  10.181  27.450   3.221
67135W        W32362   1.282   0.553   4.217
67136W        W32363  29.679  35.459  11.339
67137W        W32364  42.772   0.490  12.736
67138W        W32365  13.569  29.066   2.144
67139W        W32366  21.735  33.132   3.737
67140W        W32367  27.669  38.392   2.431
67141W        W32368  21.377  22.526  14.657
67142W        W32369  42.367  21.251   1.708
67143W        W32370   7.335  36.768  11.426
67144W        W32371  17.538  35.927  10.631
67145W        W32372   5.422  10.439  13.435
67146W        W32373  15.911  36.031   2.673
67147W        W32374  14.101  12.100  12.455
67148W        W32375  32.569  19.042  12.174
67149W        W32376   9.726  29.802   0.372
67150W        W32377  27.896  34.153  14.820
67151W        W32378  23.270   9.241   4.977
67152W        W32379   0.044  44.280  14.839
67153W        W32380  21.160  24.213   2.736
67154W        W32381  26.562   9.797  13.978
67155W        W32382  23.577  41.254   0.186
67156W        W32383  22.227  44.421  14.859
67157W        W32384  16.397   8.402   1.213
67158W        W32385  39.873  15.167  13.016
67159W        W32386  26.943  28.016  14.796
67160W        W32387  20.982  23.422  11.131
67161W        W32388  20.345   6.954   1.286
67162W        W32389  38.003  43.539  12.155
67163W        W32390  33.195  44.417   4.254
67164W        W32391  20.919  24.416  12.632
67165W        W32392  13.210  17.257  13.045
67166W        W32393   4.692  38.759   5.004
67167W        W32394   1.369  12.922   1.159
67168W        W32395  28.242  24.856   0.902
67169W        W32396  19.970  17.589   0.346
67170W        W32397  37.406   0.243   4.155
67171W        W32398   0.239  31.139   2.631
67172W        W32399   0.175   9.130  11.213
67173W        W32400  42.233  12.947  11.928
67174W        W32401  28.501  36.629   9.925
67175W        W32402   6.160  11.968   5.153
67176W        W32403  11.804  27.601   2.421
67177W        W32404   9.274  14.703   2.441
67178W        W32405   9.772  35.746   1.871
67179W        W32406   3.199  19.646  11.862
67180W        W32407  25.672  44.475   0.884
67181W        W32408  26.142  39.494  10.995
67182W        W32409  25.153  36.275   4.643
67183W        W32410   7.918  44.715   2.911
67184W        W32411   6.456  21.781  11.627
67185W        W32412  33.146  13.742  12.660
67186W        W32413  37.337  31.467   3.181
67187W        W32414   9.192  27.557  13.897
67188W        W32415  21.062  37.137  11.456
67189W        W32416  36.312   9.775   0.356
67190W        W32417  44.913  27.147   1.474
67191W        W32418  28.045  28.679  12.587
67192W        W32419  40.036   3.077   2.670
67193W        W32420  32.389  18.743   0.793
67194W        W32421  33.091  32.408   2.339
67195W        W32422  19.001  23.310  14.044
67196W        W32423  13.129  14.691  14.704
67197W        W32424  22.075  29.864  11.117
67198W        W32425  24.174  27.951  13.095
67199W        W32426  29.993  33.215   2.693
67200W        W32427  24.321  43.962   4.073
67201W        W32428   1.435   6.460   4.288
67202W        W32429  29.070   4.317  12.487
67203W        W32430  40.005  16.240  13.278
67204W        W32431   3.730  26.642   3.005
67205W        W32432  15.534  19.197  13.528
67206W        W32433  29.483  15.321   0.446
67207W        W32434  22.455  32.589  10.060
67208W        W32435  28.539  34.520   2.821
67209W        W32436   8.135  16.487   9.891
67210W        W32437   9.346  22.133   2.740
67211W        W32438   8.850  33.842   1.366
67212W        W32439   8.203  18.025  11.619
67213W        W32440  32.560  10.265   2.213
67214W        W32441  23.534  36.028  13.011
67215W        W32442   1.505  16.737  14.545
67216W        W32443  23.952  32.570  14.496
67217W        W32444  19.584  20.609   4.130
67218W        W32445  36.250  19.644   1.843
67219W        W32446  42.804  34.862  11.875
67220W        W32447  31.172  18.802   1.975
67221W        W32448  35.506   9.397   3.351
67222W        W32449   9.828  12.129   4.086
67223W        W32450  33.993  40.895  11.231
67224W        W32451  22.115  19.732   3.108
67225W        W32452  36.509  34.055   1.612
67226W        W32453  41.018   1.474  14.230
67227W        W32454  27.581  18.371   0.106
67228W        W32455   1.589  28.422  11.771
67229W        W32456   9.630   7.414   0.277
67230W        W32457  26.728  31.970   0.540
67231W        W32458   5.398  24.524  10.813
67232W        W32459  35.976  38.291  12.977
67233W        W32460  23.206  27.625   3.589
67234W        W32461   2.208  33.635  11.123
67235W        W32462  38.868  26.677  10.310
67236W        W32463  32.678  27.847   3.139
67237W        W32464  23.985  34.882  13.624
67238W        W32465  37.910   2.256  12.625
67239W        W32466  41.946  19.804   0.481
67240W        W32467  13.132  32.545   1.842
67241W        W32468  34.376  18.152   3.130
67242W        W32469   6.732  18.149  14.329
67243W        W32470  35.961   4.916  11.592
67244W        W32471  37.852   4.956   2.281
67245W        W32472   4.526  23.400   2.875
67246W        W32473  13.059  33.458   1.818
67247W        W32474  36.273   1.451   0.865
67248W        W32475  23.192  27.317  11.619
67249W        W32476  18.690   3.954  14.018
67250W        W32477   8.752  32.105   5.365
67251W        W32478  37.259  14.707  10.788
67252W        W32479  40.609  31.473   2.097
67253W        W32480  42.449  20.464   4.165
67254W        W32481  32.486   4.835  10.124
67255W        W32482  40.968  23.024   4.168
67256W        W32483   5.010  21.628   2.306
67257W        W32484  25.765  42.257  10.639
67258W        W32485  35.211   8.845  10.729
67259W        W32486   7.906  27.522   1.322
67260W        W32487   7.474   4.240  14.343
67261W        W32488  16.760  29.064  13.284
67262W        W32489  17.622  37.745   3.325
67263W        W32490  17.443  34.633  12.262
67264W        W32491  29.648  11.365  12.086
67265W        W32492  31.311   9.293   3.973
67266W        W32493  31.684  18.751  11.639
67267W        W32494  10.233  12.032  12.944
67268W        W32495  17.114  44.149  12.870
67269W        W32496  40.490  35.492  14.368
67270W        W32497  18.381   7.145  14.913
67271W        W32498  16.600  32.966   1.134
67272W        W32499  12.754  14.730   3.262
67273W        W32500  38.105  22.613  11.491
67274W        W32501   4.976  36.762  12.999
67275W        W32502   9.161  17.983  14.484
67276W        W32503   1.939  14.295   1.472
67277W        W32504   8.355  28.465   3.162
67278W        W32505  20.492  24.415   3.787
67279W        W32506  15.535  30.903  11.252
67280W        W32507  29.155  42.925   1.399
67281W        W32508  12.100  23.482  10.710
67282W        W32509  27.017  11.286   1.667
67283W        W32510  29.067  30.886   2.482
67284W        W32511  26.521   6.161  12.281
67285W        W32512  28.771  35.145   1.434
67286W        W32513  21.947   7.739  12.644
67287W        W32514  33.467  40.594   0.792
67288W        W32515  25.680  35.074  12.728
67289W        W32516   3.350  24.569  10.291
67290W        W32517  19.665   2.346  13.451
67291W        W32518  18.089  13.380   4.468
67292W        W32519  31.562  34.979   1.950
67293W        W32520  16.215  42.432  11.721
67294W        W32521   5.774  16.657   4.453
67295W        W32522   8.194  38.419  12.960
67296W        W32523  13.477  30.749  13.776
67297W        W32524   6.982  29.027  13.781
67298W        W32525  28.574  34.034  11.658
67299W        W32526   7.902  39.108  11.182
67300W        W32527  43.975  35.597   3.227
67301W        W32528  30.978  37.576  12.682
67302W        W32529  14.924  17.784  11.229
67303W        W32530  16.182   5.776  10.891
67304W        W32531  33.526   9.262   2.724
67305W        W32532  38.813   0.785  13.338
67306W        W32533  22.873  36.490   2.255
67307W        W32534   2.488  30.417   2.275
67308W        W32535  15.149  12.144  10.903
67309W        W32536   8.702  16.818   2.657
67310W        W32537  39.687   3.833  12.248
67311W        W32538  37.470   9.480  13.327
67312W        W32539   0.550  41.510  12.524
67313W        W32540  15.889  17.696  14.008
67314W        W32541   0.187  39.381   2.639
67315W        W32542  27.230  25.205  10.694
67316W        W32543  14.291  27.210   2.364
67317W        W32544  27.470  33.054   2.659
67318W        W32545   2.903   9.223   1.450
67319W        W32546  41.990  12.183   3.716
67320W        W32547  35.612  20.043   0.721
67321W        W32548   7.495  39.577  13.304
67322W        W32549  19.541  17.854  12.054
67323W        W32550  33.207  17.764   4.585
67324W        W32551  37.858  25.560   0.223
67325W        W32552  21.137  29.542   4.634
67326W        W32553  41.383  43.027   4.034
67327W        W32554  24.087  38.770   2.215
67328W        W32555  12.605   1.663  12.056
67329W        W32556  29.660  21.001  13.373
67330W        W32557  13.880  17.043  13.709
67331W        W32558  42.837   5.992  11.539
67332W        W32559  28.142  31.634   2.235
67333W        W32560  31.839  21.160  11.584
67334W        W32561  28.974  14.841  10.567
67335W        W32562   2.933   5.433  10.722
67336W        W32563  19.444  27.689  14.368
67337W        W32564   5.481  15.353   9.903
67338W        W32565  20.634  20.455  10.953
67339W        W32566   0.738  30.948  14.319
67340W        W32567  41.586  40.708  12.146
67341W        W32568  32.597  39.048  13.097
67342W        W32569  35.716  11.701  10.664
67343W        W32570   7.867  32.123   0.253
67344W        W32571  36.013  15.102   2.633
67345W        W32572   8.314  16.780   3.958
67346W        W32573  17.558   5.287   1.418
67347W        W32574  36.521  40.520  14.944
67348W        W32575  43.064  44.831  11.531
67349W        W32576  41.726  40.506  13.377
67350W        W32577  16.697   0.384   1.034
67351W        W32578   5.942  26.820  14.395
67352W        W32579  28.016  13.608   0.700
67353W        W32580  21.574  12.142   0.809
67354W        W32581  23.689  43.499   0.404
67355W        W32582   5.291  37.794   3.734
67356W        W32583  36.122  29.224   2.303
67357W        W32584  26.929  27.182   2.348
67358W        W32585  31.493  23.647  12.697
67359W        W32586  38.841  36.937  12.522
67360W        W32587  13.773  26.153  14.482
67361W        W32588   9.356  22.550  12.500
67362W        W32589  10.615  12.386  12.948
67363W        W32590   6.344  32.638  11.502
67364W        W32591  38.902  22.960   0.854
67365W        W32592   2.824  16.563  13.550
67366W        W32593   6.192  44.030   2.381
67367W        W32594  30.100  38.564   1.360
67368W        W32595  37.069  29.476   1.396
67369W        W32596   4.721   8.357   3.853
67370W        W32597  21.020  26.982   2.789
67371W        W32598  12.097  30.492  10.201
67372W        W32599  42.531  32.097  14.852
67373W        W32600  18.736  26.700   3.680
67374W        W32601  18.575  35.700  13.915
67375W        W32602   9.119  31.547   0.442
67376W        W32603  36.498  38.130  14.546
67377W        W32604  44.753  29.555  13.067
67378W        W32605  43.303  39.330   0.349
67379W        W32606   6.920   5.349  12.411
67380W        W32607  24.053  26.751   1.112
67381W        W32608  40.842  41.335   3.200
67382W        W32609  13.253   4.395  12.684
67383W        W32610   0.864  44.848   1.495
67384W        W32611  12.623  15.895  14.742
67385W        W32612   4.271   0.095   2.803
67386W        W32613  28.535  26.653  12.533
67387W        W32614   7.432   4.767  14.287
67388W        W32615  28.217   0.605   0.868
67389W        W32616  28.883   6.885   3.703
67390W        W32617   1.290  44.450  12.137
67391W        W32618  24.009  21.558  14.192
67392W        W32619  15.718  43.415  14.446
67393W        W32620  38.727  32.601  11.051
67394W        W32621  42.804  27.413  14.396
67395W        W32622  42.372   8.379  13.392
67396W        W32623  28.073  18.185   1.882
67397W        W32624  29.720  20.233   2.694
67398W        W32625  38.108   1.580  13.394
67399W        W32626  14.673  18.381   2.506
67400W        W32627  36.615  44.245   3.825
67401W        W32628  18.788  22.019   4.390
67402W        W32629  39.776  44.742  14.958
67403W        W32630   5.849  16.880   1.551
67404W        W32631   6.793  42.409   0.448
67405W        W32632  24.155  32.410  14.969
67406W        W32633  15.330  24.720   1.663
67407W        W32634  12.853  32.877   0.413
67408W        W32635  42.083  30.090   0.077
67409W        W32636  27.200  17.118   3.411
67410W        W32637  34.897  27.565   0.949
67411W        W32638  14.469  34.384  11.131
67412W        W32639   0.786  13.280  14.680
67413W        W32640  27.004  27.057   9.745
67414W        W32641  36.913   5.664  14.396
67415W        W32642  26.232  32.844  12.457
67416W        W32643  34.539  24.448  14.734
67417W        W32644  14.329  41.788   3.680
67418W        W32645  24.437  35.073   2.859
67419W        W32646  33.782  27.657   1.672
67420W        W32647  18.616  12.507   0.330
67421W        W32648  29.097   0.908   3.158
67422W        W32649  16.143  44.342  14.137
67423W        W32650  39.965   3.145  14.061
67424W        W32651  30.220  13.240   3.056
67425W        W32652  43.864  28.418   2.835
67426W        W32653   8.571  24.135   1.290
67427W        W32654   1.290  21.801   1.749
67428W        W32655  25.430  37.831   4.304
67429W        W32656  30.669  17.136   4.076
67430W        W32657   7.009  21.940  13.414
67431W        W32658  12.776  43.096   0.996
67432W        W32659  43.493  18.234  10.083
67433W        W32660   0.214  12.721  13.906
67434W        W32661  22.397  20.371   1.339
67435W        W32662  37.942  14.183   3.320
67436W        W32663  24.228  37.448   1.367
67437W        W32664   5.262   3.656  13.544
67438W        W32665  42.350  26.074   3.160
67439W        W32666  13.346  30.806  12.479
67440W        W32667  17.575  31.412   4.622
67441W        W32668  35.092  24.367  14.097
67442W        W32669  17.742  30.390  11.475
67443W        W32670  39.790  18.245   2.773
67444W        W32671  35.657   6.171  10.574
67445W        W32672  14.550  39.552   0.891
67446W        W32673   5.010  35.980   0.344
67447W        W32674  16.890  30.466  11.201
67448W        W32675  28.917   8.417  14.116
67449W        W32676  26.429  11.198  14.261
67450W        W32677  34.613  10.543  12.098
67451W        W32678   1.857  21.198   3.747
67452W        W32679  36.789  32.078   1.675
67453W        W32680  41.447  12.276   1.839
67454W        W32681  16.466  17.168   3.208
67455W        W32682  28.530  33.365   0.830
67456W        W32683  36.057   2.632  12.969
67457W        W32684   9.081  18.937   0.265
67458W        W32685  14.225  41.879  11.295
67459W        W32686   0.112   0.884  12.552
67460W        W32687  21.698  20.577  13.484
67461W        W32688  33.659  42.747  14.818
67462W        W32689  30.881  17.658  11.698
67463W        W32690  25.672  37.780   4.762
67464W        W32691  18.586   7.322   0.368
67465W        W32692  27.881  27.222   5.353
67466W        W32693  12.374   7.818   0.579
67467W        W32694  34.234  22.030   0.900
67468W        W32695  25.682  34.925   2.105
67469W        W32696  20.064  42.882   2.012
67470W        W32697  34.906   5.341   3.198
67471W        W32698  43.935   6.031   2.715
67472W        W32699  22.264   6.191  12.968
67473W        W32700  20.091   8.423  10.593
67474W        W32701   7.664   3.279  13.085
67475W        W32702  17.269  36.706  12.011
67476W        W32703   5.427   5.801   0.614
67477W        W32704  31.620  14.353  11.144
67478W        W32705  12.042  36.283  11.726
67479W        W32706  39.963   8.396  11.569
67480W        W32707  42.953  31.463  11.497
67481W        W32708  11.796  14.602   2.331
67482W        W32709  25.851  43.272   4.656
67483W        W32710  26.510  10.945   4.573
67484W        W32711  16.436  36.805  14.015
67485W        W32712  28.726  30.154   2.313
67486W        W32713  18.071   6.472  11.145
67487W        W32714  13.929  25.285   0.991
67488W        W32715  32.165  35.998  13.582
67489W        W32716  19.144  27.753  11.217
67490W        W32717  11.298  31.240  14.738
67491W        W32718   5.424   8.288  14.597
67492W        W32719  16.206   6.221  10.645
67493W        W32720   0.918  36.948   9.943
67494W        W32721   6.417  16.014  13.084
67495W        W32722   0.318  19.703   2.764
67496W        W32723  25.555  17.837   0.730
67497W        W32724  39.845   3.411   0.019
67498W        W32725  30.899  12.149  12.100
67499W        W32726  15.943  21.463  12.126
67500W        W32727  40.278  21.073   1.735
67501W        W32728  39.588  32.832  12.043
67502W        W32729  10.628  22.137   4.120
67503W        W32730  42.610  41.295  11.862
67504W        W32731  43.137  44.340  11.467
67505W        W32732  19.132  14.146  10.834
67506W        W32733  17.033  40.023   0.896
67507W        W32734  44.276  37.342   1.879
67508W        W32735  16.998  20.918   3.194
67509W        W32736   6.340  36.349  13.985
67510W        W32737  31.299  39.341   0.326
67511W        W32738  16.506  14.134   4.521
67512W        W32739  33.588  11.299  14.439
67513W        W32740   7.405  27.652  14.961
67514W        W32741  21.585  13.391  12.130
67515W        W32742  20.799  20.159   2.168
67516W        W32743  17.626   0.357   2.427
67517W        W32744   1.469  35.083  13.617
67518W        W32745  34.966  30.008   1.015
67519W        W32746   8.713   3.952  13.547
67520W        W32747  36.000  29.437   0.650
67521W        W32748   7.304   7.132   1.707
67522W        W32749  20.590   4.204   4.574
67523W        W32750  21.753  34.364  13.535
67524W        W32751  14.326   5.661  12.046
67525W        W32752  36.807   6.921   4.473
67526W        W32753  40.491  40.929  13.789
67527W        W32754  26.806  27.448   1.880
67528W        W32755  31.899   3.865  13.755
67529W        W32756   1.972  41.838   2.370
67530W        W32757  38.867   3.819  13.155
67531W        W32758  33.948  36.430   1.863
67532W        W32759  21.537  14.200   0.933
67533W        W32760  32.324  30.457  10.722
67534W        W32761  19.393  22.662   4.251
67535W        W32762  27.092  16.574   0.284
67536W        W32763   1.784   2.759   1.691
67537W        W32764  39.324  32.997   3.660
67538W        W32765  27.742   1.487   3.316
67539W        W32766  40.006   4.239  10.400
67540W        W32767  41.993   1.751   4.072
67541W        W32768  10.120  41.717  13.555
67542W        W32769   8.652  10.506   1.813
67543W        W32770   6.205  42.125  11.469
67544W        W32771  33.036  25.779   1.791
67545W        W32772   9.315  33.454  10.945
67546W        W32773   6.611   9.766   4.032
67547W        W32774  39.569   5.088  13.025
67548W        W32775  22.502  32.485  11.043
67549W        W32776  26.798  29.056  14.386
67550W        W32777  20.521  35.120   4.613
67551W        W32778  13.144  40.140   4.109
67552W        W32779  31.491  22.484  12.074
67553W        W32780  11.152  37.911   2.523
67554W        W32781   1.349  30.383   3.179
67555W        W32782  28.010  33.981   1.790
67556W        W32783   4.992  16.545   4.165
67557W        W32784  10.134  13.784   1.774
67558W        W32785  38.914   7.281   2.360
67559W        W32786  15.593  13.577  13.334
67560W        W32787  12.109  12.821  14.345
67561W        W32788  13.974   0.909  14.293
67562W        W32789   3.279  40.920   2.343
67563W        W32790  11.100   9.243  14.677
67564W        W32791  33.534  38.055   4.101
67565W        W32792   0.070   9.076  13.472
67566W        W32793  16.722  36.930  11.094
67567W        W32794   5.551  36.846  11.564
67568W        W32795  12.903   1.229   1.311
67569W        W32796   2.431  22.293   2.135
67570W        W32797  44.548  13.265   3.642
67571W        W32798   8.802   3.999   0.420
67572W        W32799  12.501  22.727  13.259
67573W        W32800  41.805  36.815  13.023
67574W        W32801  31.202  40.575  12.221
67575W        W32802   4.635  20.640   5.112
67576W        W32803   0.341  42.072   1.902
67577W        W32804  16.153  26.963   4.469
67578W        W32805  23.061   4.491  13.413
67579W        W32806  38.054  18.239   0.768
67580W        W32807   2.694   7.493   4.252
67581W        W32808   7.391  14.125   0.600
67582W        W32809   1.428  26.204   3.632
67583W        W32810   0.268   0.614  13.419
67584W        W32811  31.605  11.524  13.514
67585W        W32812  39.143  37.175  12.945
67586W        W32813  19.373  41.572   4.543
67587W        W32814  18.811  39.324  12.577
67588W        W32815  15.055  12.858  13.003
67589W        W32816  33.945  30.397   2.018
67590W        W32817  33.510  34.099  14.382
67591W        W32818  22.675  29.850   3.768
67592W        W32819  29.985  18.949   3.622
67593W        W32820  21.792  10.592  13.658
67594W        W32821  29.874  30.682   4.064
67595W        W32822  31.175  39.030   3.678
67596W        W32823  37.606  28.619  10.720
67597W        W32824  17.445   2.406   3.410
67598W        W32825  13.183  15.973   0.872
67599W        W32826  34.502   5.789   2.281
67600W        W32827  27.890  33.467   4.103
67601W        W32828   9.107  23.017  13.391
67602W        W32829  35.116  41.829  12.082
67603W        W32830   8.599  26.592  11.011
67604W        W32831  30.879  14.759   1.741
67605W        W32832  19.279   8.801  10.630
67606W        W32833  26.548  44.977  14.117
67607W        W32834  35.509  25.496   0.675
67608W        W32835  27.940  18.613  14.383
67609W        W32836   3.453  41.745  12.508
67610W        W32837  15.828  23.138   2.345
67611W        W32838  44.293  22.096   0.621
67612W        W32839  20.591  35.156  14.129
67613W        W32840  25.103  29.963  14.294
67614W        W32841  11.323  27.192   3.671
67615W        W32842  14.961   5.187  12.944
67616W        W32843  19.137  23.427   0.056
67617W        W32844   6.336  21.784   2.295
67618W        W32845   3.918   3.104  14.945
67619W        W32846  40.712  16.008  13.192
67620W        W32847  27.615  38.334   0.956
67621W        W32848  16.078  26.187  12.776
67622W        W32849  25.457  14.926   1.425
67623W        W32850   8.249   7.453   0.416
67624W        W32851  42.475   8.993   5.132
67625W        W32852  21.691   8.722  13.802
67626W        W32853   5.224  12.382  14.524
67627W        W32854  26.309  25.570  12.064
67628W        W32855   8.834   5.701  12.343
67629W        W32856  42.990  27.962  11.684
67630W        W32857   7.383  43.490  14.113
67631W        W32858   3.142  35.698   4.147
67632W        W32859  38.596  10.595   0.363
67633W        W32860  30.516   7.392  14.443
67634W        W32861  29.504   7.134   4.808
67635W        W32862  14.750  36.657  14.479
67636W        W32863  19.242  44.940   0.575
67637W        W32864  36.371  28.925   2.657
67638W        W32865  32.633  37.890  10.500
67639W        W32866  15.688  19.110   4.211
67640W        W32867   1.944  29.777   0.990
67641W        W32868  41.405  27.505  13.631
67642W        W32869  44.506  40.932   1.798
67643W        W32870  38.942  42.204   3.212
67644W        W32871  18.799   6.200   1.260
67645W        W32872  44.295  42.321  11.091
67646W        W32873  23.774   6.819  11.895
67647W        W32874  14.409  44.661  10.473
67648W        W32875  12.563   6.362  11.994
67649W        W32876  27.966   2.258  10.969
67650W        W32877  34.612  23.188   3.118
67651W        W32878  40.085  19.234   3.716
67652W        W32879   3.907  42.801   0.671
67653W        W32880  38.545   3.871  10.282
67654W        W32881  14.497   5.471  13.000
67655W        W32882  14.292  24.982  13.831
67656W        W32883  15.859  24.177   3.325
67657W        W32884   4.732   7.365   2.725
67658W        W32885  14.215  20.691  11.176
67659W        W32886  28.169  20.076  12.545
67660W        W32887  14.112  40.887  10.174
67661W        W32888  34.610  34.905   0.440
67662W        W32889  18.210  37.737  11.628
67663W        W32890  10.138  33.796   0.305
67664W        W32891   6.830  40.295  10.394
67665W        W32892  21.232  42.216  13.029
67666W        W32893  31.281  10.264   1.074
67667W        W32894  37.286   5.624   3.296
67668W        W32895   4.817   1.849   1.579
67669W        W32896  33.035  16.783   9.965
67670W        W32897  34.543  22.712  14.177
67671W        W32898   4.999  16.666   2.289
67672W        W32899  17.324  38.984   0.884
67673W        W32900  17.080  13.082   3.569
67674W        W32901  38.393  13.954   3.374
67675W        W32902  38.095  40.763  12.947
67676W        W32903  14.484  10.875   3.177
67677W        W32904  38.565   3.363  10.146
67678W        W32905  40.955  17.587  11.379
67679W        W32906  13.775  14.413  11.003
67680W        W32907  11.239  36.527  13.056
67681W        W32908  24.454  35.137   1.835
67682W        W32909   5.368  19.139  12.574
67683W        W32910   2.915   6.331  11.735
67684W        W32911  25.117  24.389  12.870
67685W        W32912  14.940   2.785   4.583
67686W        W32913   7.175  43.371  14.653
67687W        W32914  43.493  11.687  14.060
67688W        W32915   7.683   9.395  14.892
67689W        W32916   0.975   5.381  13.781
67690W        W32917  10.884  43.538  13.363
67691W        W32918  33.100  29.352   2.013
67692W        W32919   0.955  23.625  12.360
67693W        W32920  42.402   2.713  12.851
67694W        W32921  25.216  19.639  12.040
67695W        W32922  23.232  37.651   1.281
67696W        W32923  39.625  23.464   2.427
67697W        W32924  43.954  33.123   0.236
67698W        W32925  33.673   8.241   3.573
67699W        W32926  20.128   3.997  13.049
67700W        W32927  31.004  12.154   1.388
67701W        W32928   4.632   5.363  11.678
67702W        W32929  20.306  22.694   2.402
67703W        W32930  38.185  39.964   1.308
67704W        W32931  44.717  34.880   4.138
67705W        W32932   2.920  12.017  14.437
67706W        W32933  31.579  27.249   0.733
67707W        W32934   9.237  26.475  12.121
67708W        W32935  38.482  28.944   3.892
67709W        W32936  34.206  16.008   4.132
67710W        W32937  25.977   7.358  14.330
67711W        W32938  35.918  38.780  10.587
67712W        W32939  34.820  14.204   2.882
67713W        W32940   4.843  21.715   1.815
67714W        W32941  26.309  32.925  14.428
67715W        W32942  39.172   8.734   0.424
67716W        W32943  41.341  17.832  12.116
67717W        W32944  28.233  16.377  11.108
67718W        W32945  36.356  33.494  11.284
67719W        W32946   5.321  29.450   1.428
67720W        W32947  35.814  13.204   2.810
67721W        W32948  29.570  34.580  13.341
67722W        W32949  32.172  22.443   2.785
67723W        W32950  36.470  20.097  12.895
67724W        W32951  30.973  23.693   1.395
67725W        W32952  26.067   3.874  11.856
67726W        W32953  21.571  16.869  11.963
67727W        W32954  36.693  21.350   0.204
67728W        W32955  23.649  28.086  13.243
67729W        W32956  21.987  16.570   4.036
67730W        W32957  40.535   0.690  13.351
67731W        W32958  36.709  18.586  13.572
67732W        W32959  14.304  39.838  12.069
67733W        W32960  44.762  44.111   3.553
67734W        W32961  42.726  12.574  14.111
67735W        W32962  25.132  22.428  11.468
67736W        W32963  26.162  41.954  10.746
67737W        W32964  30.213   8.180   0.537
67738W        W32965  28.947  25.005  13.602
67739W        W32966  43.486  24.313   2.092
67740W        W32967  32.998  29.140  13.804
67741W        W32968  34.538  29.447  14.959
67742W        W32969  39.277  20.630   2.837
67743W        W32970   6.878  41.007   1.718
67744W        W32971  21.314  25.539  14.654
67745W        W32972   6.206  20.327  14.175
67746W        W32973  21.890  19.453  12.628
67747W        W32974  20.026   5.760  12.955
67748W        W32975   0.803  25.605  14.125
67749W        W32976  23.699  44.438   1.891
67750W        W32977   9.641  25.583  13.888
67751W        W32978  21.195  41.553  12.467
67752W        W32979  40.411  37.904  14.762
67753W        W32980  11.188   7.398  11.194
67754W        W32981  33.098  37.234   1.209
67755W        W32982  40.942  10.469  14.828
67756W        W32983  12.636  12.703   2.792
67757W        W32984  15.323  30.657   4.619
67758W        W32985  29.620   8.642  12.315
67759W        W32986  39.777   1.839   4.451
67760W        W32987  19.336   8.362  11.194
67761W        W32988   3.285  23.442   3.329
67762W        W32989  24.266   0.572  11.276
67763W        W32990   3.762  20.842  10.858
67764W        W32991  12.156   4.726   4.471
67765W        W32992   7.674  44.940  11.597
67766W        W32993  14.830   5.041  12.469
67767W        W32994  21.611  26.124   3.808
67768W        W32995  19.205  23.476  13.399
67769W        W32996   3.658  12.166   3.623
67770W        W32997  34.977  42.015  13.444
67771W        W32998  21.039  17.646  11.982
67772W        W32999  16.130  21.823   3.530
67773W        W33000   7.152  40.030   2.757
67774W        W33001  21.599  44.579  10.647
67775W        W33002  38.342  25.486   0.942
67776W        W33003   2.214  41.244   4.154
67777W        W33004  24.266   6.559   0.386
67778W        W33005  27.538   2.546   1.667
67779W        W33006  43.275   3.329  11.878
67780W        W33007  26.619   9.766  13.054
67781W        W33008  37.088   8.923  11.451
67782W        W33009  36.608  31.618  10.571
67783W        W33010  34.176  29.513  11.218
67784W        W33011  44.335  24.995   4.109
67785W        W33012  28.122  20.383   1.652
67786W        W33013  25.676  23.190  13.052
67787W        W33014  32.906  33.054  13.492
67788W        W33015  13.181  21.052  14.875
67789W        W33016  41.044  28.976  12.104
67790W        W33017  17.704  37.594  11.751
67791W        W33018  42.484  35.809  14.095
67792W        W33019   4.354   6.712   3.896
67793W        W33020   6.548  31.452   1.812
67794W        W33021  14.792  25.757   2.866
67795W        W33022   0.737   0.937  13.911
67796W        W33023  17.033  11.016   0.359
67797W        W33024  23.342   5.581  12.546
67798W        W33025  36.415   9.289   2.235
67799W        W33026  19.683  11.776   2.195
67800W        W33027   7.317  34.684  13.551
67801W        W33028  41.404  33.036   3.059
67802W        W33029  34.574   6.903  12.879
67803W        W33030   9.129  40.330  14.860
67804W        W33031  19.636  22.586  12.531
67805W        W33032  14.583   6.440   1.825
67806W        W33033  28.031   2.929  14.425
67807W        W33034  41.210  18.033  10.524
67808W        W33035  10.175   2.676  13.431
67809W        W33036  21.825  36.032  14.461
67810W        W33037   0.967  10.639   4.373
67811W        W33038  38.905  33.893   1.110
67812W        W33039  11.816  43.275   0.421
67813W        W33040   3.482  25.458  11.539
67814W        W33041  39.341  24.957   0.264
67815W        W33042  31.591  29.346   5.299
67816W        W33043  34.264  26.060   2.222
67817W        W33044  34.987  29.413   4.535
67818W        W33045  32.669  10.783  14.633
67819W        W33046  39.696   3.934   4.535
67820W        W33047  22.297   2.942  10.824
67821W        W33048  24.912  25.141  13.475
67822W        W33049  15.576   8.326   2.104
67823W        W33050  40.741  11.791  10.771
67824W        W33051  13.791  40.114   1.016
67825W        W33052   6.638  28.837   0.975
67826W        W33053  36.583  44.615  13.901
67827W        W33054  44.905  22.981   0.211
67828W        W33055  29.204  24.652  14.881
67829W        W33056  16.177  33.088   2.978
67830W        W33057  12.725  10.702   3.917
67831W        W33058  17.300  23.157  13.442
67832W        W33059   4.840  39.811  11.453
67833W        W33060   2.004  10.773   1.683
67834W        W33061  40.238  23.496  14.011
67835W        W33062  23.600  41.396   2.124
67836W        W33063   7.249  40.919  11.379
67837W        W33064  30.626  23.299  14.470
67838W        W33065  18.149   6.551  14.376
67839W        W33066  32.567  26.022   1.828
67840W        W33067  21.721  21.101  13.471
67841W        W33068  16.200   8.111   3.329
67842W        W33069  20.709   4.829   2.385
67843W        W33070  20.149  39.498  13.003
67844W        W33071  24.646  41.275  10.680
67845W        W33072  26.398   4.162   1.812
67846W        W33073  16.342   6.684   4.577
67847W        W33074  22.835  12.184   3.875
67848W        W33075  31.015  21.711   4.764
67849W        W33076  12.757  18.561   3.811
67850W        W33077   7.163  23.860  13.881
67851W        W33078  19.471  35.196   1.686
67852W        W33079  12.309  25.481  11.188
67853W        W33080  15.013   3.353  12.344
67854W        W33081  10.832  32.669   2.265
67855W        W33082  17.540  11.176   4.205
67856W        W33083  35.190  35.453  13.928
67857W        W33084  14.478  37.936  13.016
67858W        W33085  30.682  23.335   5.025
67859W        W33086  34.077  34.460  11.441
67860W        W33087  10.895  36.701   3.576
67861W        W33088  27.015  37.087  12.665
67862W        W33089  44.404  31.878   1.975
67863W        W33090  19.552   5.268   3.250
67864W        W33091  24.358   8.876   2.394
67865W        W33092  37.923  37.838   2.769
67866W        W33093  35.286   8.158  12.317
67867W        W33094  43.302   6.230   4.612
67868W        W33095   3.446  14.351   2.385
67869W        W33096   1.961  42.712   0.875
67870W        W33097  26.565  32.602  12.803
67871W        W33098  16.763  19.619  12.027
67872W        W33099  38.387  42.847   1.087
67873W        W33100  40.612   2.279   0.107
67874W        W33101  35.308  22.198   3.759
67875W        W33102  44.008  16.146   0.679
67876W        W33103   1.386  20.356  12.561
67877W        W33104  14.313  34.562  11.593
67878W        W33105  15.074  17.287  11.300
67879W        W33106  37.577   3.749  13.879
67880W        W33107  29.813   7.601  11.937
67881W        W33108  41.171  41.374   4.521
67882W        W33109  13.152  36.103   0.002
67883W        W33110  42.931   4.634   0.364
67884W        W33111  39.076  17.397  13.374
67885W        W33112   6.615  35.383  12.993
67886W        W33113  41.362  15.369  14.850
67887W        W33114  25.971  39.792   1.644
67888W        W33115  11.271  16.434   0.265
67889W        W33116   5.252  19.087   4.901
67890W        W33117  17.029  41.323   4.045
67891W        W33118  43.723  17.231  13.007
67892W        W33119  24.138  18.340   2.189
67893W        W33120  25.113  44.825  13.687
67894W        W33121  35.423  16.040   1.494
67895W        W33122  23.473  38.550  13.761
67896W        W33123   7.546   2.316  12.982
67897W        W33124  30.547  41.301   1.913
67898W        W33125   8.841  34.949   0.640
67899W        W33126  26.665   8.853   2.231
67900W        W33127   6.466   7.288   2.766
67901W        W33128  26.783   9.273   4.077
67902W        W33129  13.305  35.317   4.139
67903W        W33130  35.357  44.760   0.765
67904W        W33131  27.964  11.696  14.930
67905W        W33132   0.064  28.929  10.793
67906W        W33133  17.575  43.341  12.016
67907W        W33134   9.819  31.213  11.414
67908W        W33135  36.075  36.397   3.727
67909W        W33136   3.744  29.963  14.002
67910W        W33137  11.471   4.488  12.937
67911W        W33138  33.253  37.533   0.818
67912W        W33139  42.586  41.499   1.238
67913W        W33140   9.151  10.669  12.724
67914W        W33141  28.054  26.096   0.885
67915W        W33142   3.750  24.292   3.713
67916W        W33143  14.842  33.627   1.400
67917W        W33144  40.974  43.800   4.223
67918W        W33145  13.658  19.240   2.643
67919W        W33146  39.480  36.641   4.666
67920W        W33147  36.126  35.983   3.142
67921W        W33148  17.452  18.242  12.126
67922W        W33149  43.898   5.787  10.667
67923W        W33150  21.641  18.549   4.497
67924W        W33151  23.303   7.297   0.411
67925W        W33152  13.615  12.137  12.588
67926W        W33153   4.130  13.777   4.396
67927W        W33154  25.679  24.758   1.195
67928W        W33155  25.540   0.706  13.433
67929W        W33156   0.251  30.674  10.514
67930W        W33157   9.928   9.582  11.163
67931W        W33158  19.774  19.767   0.304
67932W        W33159  42.260   7.262   0.299
67933W        W33160  15.711  21.696   2.287
67934W        W33161  37.531   8.617  14.293
67935W        W33162  33.058   8.175  13.091
67936W        W33163  28.920  15.058   4.079
67937W        W33164  37.518  33.903   4.190
67938W        W33165   2.344  20.529   4.319
67939W        W33166   0.973  36.340   1.885
67940W        W33167  43.537   9.296  14.753
67941W        W33168  36.514  13.785   2.670
67942W        W33169  10.294  41.693  11.101
67943W        W33170   7.312   5.531   4.620
67944W        W33171  13.356  26.383  13.140
67945W        W33172  35.905  19.422   2.728
67946W        W33173  22.175  11.869   2.725
67947W        W33174  14.733   7.163   0.360
67948W        W33175   5.591  16.196   3.064
67949W        W33176   8.449  33.724   0.389
67950W        W33177   3.673  41.488  12.930
67951W        W33178   6.165  26.081  10.523
67952W        W33179  36.391  33.041   0.414
67953W        W33180  27.882   9.296  13.468
67954W        W33181  41.802  16.124  14.012
67955W        W33182   5.161  18.776  10.678
67956W        W33183  16.077   1.584   1.008
67957W        W33184   1.366  20.537  11.597
67958W        W33185   8.916  14.768   1.967
67959W        W33186  17.671  28.241  14.386
67960W        W33187  32.841  40.561  13.264
67961W        W33188  44.835  24.763   0.054
67962W        W33189   5.825  33.904  14.497
67963W        W33190  21.678  37.731   1.588
67964W        W33191  20.451  42.743  13.773
67965W        W33192  33.840  43.222  14.921
67966W        W33193  40.844  14.744  11.604
67967W        W33194  30.093  34.994   0.368
67968W        W33195   1.994   1.250  10.964
67969W        W33196  16.689   7.817   2.368
67970W        W33197  20.819  25.825   1.674
67971W        W33198  40.558  34.808   2.797
67972W        W33199  24.712  10.789  14.381
67973W        W33200   5.921  28.252  12.410
67974W        W33201  38.453  17.064   1.801
67975W        W33202  10.280  35.517   0.717
67976W        W33203  11.653  25.028   1.615
67977W        W33204  38.796  31.628  12.470
67978W        W33205   5.241  22.697   0.705
67979W        W33206  21.234  36.619   0.946
67980W        W33207   8.904  37.151  13.842
67981W        W33208  24.837  42.404  12.034
67982W        W33209  43.350  16.041   3.244
67983W        W33210  35.139  38.057   4.571
67984W        W33211  40.707  41.837  13.301
67985W        W33212  11.858   4.249  12.253
67986W        W33213  26.016   3.537   0.296
67987W        W33214  13.174  43.288  11.899
67988W        W33215  31.320  43.391   0.201
67989W        W33216  36.417  28.047   1.391
67990W        W33217   5.767  13.732   2.475
67991W        W33218  10.627   0.490   3.737
67992W        W33219  43.984  27.758   1.387
67993W        W33220  12.730  19.417  12.557
67994W        W33221   5.308   6.763  11.748
67995W        W33222  40.796  32.097   1.795
67996W        W33223   4.260  29.092  13.842
67997W        W33224  33.162  25.576   2.639
67998W        W33225  16.284  10.115  14.399
67999W        W33226  41.991  37.857  10.648
68000W        W33227  31.374  24.135  13.969
68001W        W33228  40.318  37.890  12.480
68002W        W33229  39.033  19.945  10.616
68003W        W33230  19.068  10.796   0.775
68004W        W33231  28.027  40.012  14.959
68005W        W33232  22.103  17.439  12.870
68006W        W33233  42.077  11.923   4.153
68007W        W33234   0.379  35.140   0.581
68008W        W33235  22.454  10.127  12.055
68009W        W33236  37.940  29.505  13.345
68010W        W33237   9.146   3.491  14.389
68011W        W33238  31.695  17.194  10.594
68012W        W33239   1.344  18.629   2.708
68013W        W33240   1.607  20.465  10.165
68014W        W33241  28.050  41.049  11.189
68015W        W33242   9.483  10.480  11.229
68016W        W33243   4.124   1.682  13.954
68017W        W33244   3.591  27.438  13.158
68018W        W33245  34.889  11.059  11.239
68019W        W33246  14.602  43.906  11.728
68020W        W33247  27.561  40.117  14.269
68021W        W33248  23.330  41.604  14.239
68022W        W33249  36.811  18.221   2.109
68023W        W33250  14.303  42.437  12.971
68024W        W33251  10.266  29.150  11.540
68025W        W33252  22.906   8.682  14.955
68026W        W33253  37.404   5.761   0.047
68027W        W33254   2.420  38.310  12.133
68028W        W33255   6.400  36.054   2.657
68029W        W33256   8.151  12.659  10.960
68030W        W33257   8.434   5.756   3.126
68031W        W33258  18.938  33.229  13.832
68032W        W33259  38.800   1.335   0.381
68033W        W33260  41.071  30.604  13.072
68034W        W33261  23.789  44.681  10.297
68035W        W33262  43.599  15.614   0.261
68036W        W33263   6.468  42.041   4.153
68037W        W33264  37.363  11.443   2.605
68038W        W33265  38.320  44.760  11.001
68039W        W33266  32.688  25.973  11.100
68040W        W33267  28.647  20.947   4.545
68041W        W33268  24.172   7.529   5.099
68042W        W33269  27.109   0.403   4.097
68043W        W33270  33.872  35.098  14.434
68044W        W33271  30.590  40.785   2.754
68045W        W33272  13.749   5.426   0.983
68046W        W33273  12.939   5.820  14.696
68047W        W33274   9.607  23.094   2.181
68048W        W33275  37.643  14.027   0.249
68049W        W33276  12.883   8.846   1.770
68050W        W33277  19.823  23.145   0.387
68051W        W33278  41.392   6.541  12.871
68052W        W33279  14.634  27.937   4.508
68053W        W33280  24.558  15.430  14.274
68054W        W33281  38.483  19.663  13.669
68055W        W33282  42.518  14.268   9.735
68056W        W33283  30.954   8.287  12.628
68057W        W33284  14.045  23.430   0.922
68058W        W33285  42.921   9.229  12.555
68059W        W33286  33.029  12.511  12.138
68060W        W33287  17.647  43.907  11.242
68061W        W33288  22.114  28.524   1.983
68062W        W33289  18.060   3.147   3.270
68063W        W33290  40.924  26.285   2.683
68064W        W33291  22.259   5.502   3.055
68065W        W33292   5.266  17.273   3.899
68066W        W33293   3.950  44.937  13.808
68067W        W33294  38.444  18.457  13.044
68068W        W33295  39.037  41.271  14.555
68069W        W33296   5.725  24.146   3.586
68070W        W33297   6.936  35.072   1.827
68071W        W33298  30.691  18.280  10.377
68072W        W33299   1.495   0.981   1.905
68073W        W33300  43.527  17.929  12.558
68074W        W33301   1.224  35.050   1.111
68075W        W33302  12.079  44.939  14.107
68076W        W33303  28.903  29.466  14.797
68077W        W33304  26.136  21.377   2.745
68078W        W33305  31.792   1.413   3.151
68079W        W33306  12.618   4.335  14.032
68080W        W33307  28.459  25.123  13.863
68081W        W33308  18.332  31.212   0.336
68082W        W33309   7.085   4.406  11.710
68083W        W33310  40.012  24.197   1.088
68084W        W33311  25.284  44.302   1.725
68085W        W33312  42.475  16.766   3.632
68086W        W33313  37.602  34.805   4.143
68087W        W33314  30.119  12.677   1.618
68088W        W33315  22.968  13.524   1.736
68089W        W33316  14.540  27.114   1.929
68090W        W33317  31.175   2.010  10.174
68091W        W33318  33.159   3.550  10.851
68092W        W33319  13.867  15.364   4.359
68093W        W33320  19.702  27.261   2.101
68094W        W33321  38.479  22.707   2.243
68095W        W33322  19.707   5.018   4.617
68096W        W33323  13.833  21.027   9.952
68097W        W33324  31.696  30.923   1.796
68098W        W33325  26.077  19.973  11.570
68099W        W33326  12.259  37.410  10.289
68100W        W33327  32.374  27.262  13.899
68101W        W33328  23.823  43.840  13.808
68102W        W33329  17.270  35.557   4.604
68103W        W33330  43.173  39.445   1.395
68104W        W33331  44.820  42.951   2.434
68105W        W33332  31.712  15.064  11.745
68106W        W33333   4.891   5.830   1.301
68107W        W33334  39.240  34.064   4.217
68108W        W33335  25.748  29.834  14.236
68109W        W33336  28.471  25.010  13.345
68110W        W33337  21.637  25.899  11.620
68111W        W33338  26.081  16.314  13.810
68112W        W33339   8.817  26.474  10.534
68113W        W33340  19.211   8.074   0.419
68114W        W33341  20.061   6.792  12.010
68115W        W33342   2.913  40.376  10.987
68116W        W33343  10.350  24.955  14.888
68117W        W33344   8.433   5.772  13.202
68118W        W33345  12.978   7.446  10.100
68119W        W33346   9.240  29.587   0.349
68120W        W33347  37.595   2.020   4.565
68121W        W33348  26.964  44.844  13.851
68122W        W33349  37.022   4.903   2.634
68123W        W33350  38.246  13.649  12.116
68124W        W33351  43.098  19.972  13.242
68125W        W33352   7.153   2.817   3.334
68126W        W33353  11.872  31.486  14.937
68127W        W33354  35.240  13.268   0.731
68128W        W33355  29.606  10.219  10.338
68129W        W33356  26.614   9.886  14.498
68130W        W33357  24.652  39.032  12.914
68131W        W33358   0.976  18.366   4.603
68132W        W33359  21.607  18.723  12.315
68133W        W33360   2.992  30.285   0.270
68134W        W33361  29.622  18.150   1.154
68135W        W33362  16.012  11.238   4.114
68136W        W33363  40.036  37.518  11.263
68137W        W33364  29.067  31.974   3.180
68138W        W33365  31.597  18.642   3.644
68139W        W33366  43.012  42.812  12.180
68140W        W33367  31.603  32.047   0.015
68141W        W33368  43.885  33.712   4.530
68142W        W33369   8.566  15.248   2.725
68143W        W33370  41.899   6.940   1.152
68144W        W33371  23.603  22.221   1.459
68145W        W33372   5.109  26.145   4.098
68146W        W33373  14.673   5.951  12.942
68147W        W33374  38.429  35.309  11.087
68148W        W33375  21.237   2.637   2.181
68149W        W33376  36.593  42.758  12.429
68150W        W33377  41.513   5.922  14.789
68151W        W33378  42.285   2.396   0.016
68152W        W33379   9.934  40.764  12.029
68153W        W33380  22.735  15.682   0.821
68154W        W33381  38.354  12.696  14.546
68155W        W33382  30.066  25.268   0.024
68156W        W33383  44.914  30.482  12.672
68157W        W33384   6.206  16.298  11.676
68158W        W33385  29.504  19.692   0.307
68159W        W33386   0.210  12.927   0.514
68160W        W33387  39.476  20.785  13.528
68161W        W33388  29.714  42.234   0.591
68162W        W33389  20.260   6.320  13.334
68163W        W33390  36.424   2.029  14.513
68164W        W33391  36.956  39.876  10.560
68165W        W33392  23.838  30.439   2.624
68166W        W33393  10.913  28.115  14.137
68167W        W33394  42.556  37.922   0.830
68168W        W33395  34.501  29.142   3.131
68169W        W33396  40.276   5.413  12.584
68170W        W33397  39.380   2.627   0.640
68171W        W33398  19.598  18.304   2.328
68172W        W33399  26.612  28.923   4.632
68173W        W33400  42.906  31.550  14.304
68174W        W33401  15.653  39.480  11.924
68175W        W33402  36.070  16.796  12.475
68176W        W33403  44.041  10.302   1.263
68177W        W33404  26.132  32.469  13.749
68178W        W33405   8.323   1.249   2.208
68179W        W33406   0.451  38.548   2.420
68180W        W33407  20.104  19.636  13.136
68181W        W33408   2.702  38.352  11.052
68182W        W33409  11.769  28.393  14.790
68183W        W33410  42.678   4.327  14.855
68184W        W33411  38.849  10.396  11.715
68185W        W33412  25.707  28.979   1.884
68186W        W33413  23.666   5.516  10.289
68187W        W33414  28.023  28.076   1.412
68188W        W33415  28.234  16.511  13.693
68189W        W33416  22.449  42.236  13.371
68190W        W33417   6.465   7.855   1.008
68191W        W33418   9.146  28.760  12.984
68192W        W33419  27.063  29.355   3.440
68193W        W33420  13.320  20.174  11.415
68194W        W33421  36.850  24.678   3.731
68195W        W33422  24.122  25.937  12.686
68196W        W33423  24.237  29.435   2.886
68197W        W33424   7.259  14.561  12.992
68198W        W33425  22.451  41.506   0.730
68199W        W33426  23.997  18.091   0.902
68200W        W33427   7.889   3.911   3.578
68201W        W33428  29.061  37.436   0.388
68202W        W33429  32.077  11.374   1.345
68203W        W33430  19.741  13.175  13.473
68204W        W33431   1.828  19.451   2.203
68205W        W33432  23.034  12.920  11.491
68206W        W33433   8.970  30.004  13.950
68207W        W33434   7.717   3.303  14.355
68208W        W33435  40.400  22.262   3.724
68209W        W33436  21.805  32.900  11.331
68210W        W33437  22.368  44.319  11.177
68211W        W33438  40.702  44.742  12.807
68212W        W33439  15.853  34.400   3.288
68213W        W33440  29.786  34.395  12.931
68214W        W33441   3.730   6.896  10.502
68215W        W33442   8.956   7.286   4.203
68216W        W33443   2.689  27.949  13.165
68217W        W33444   9.150   8.365  13.436
68218W        W33445  33.609  25.895  11.510
68219W        W33446   4.911  20.174   4.304
68220W        W33447  19.134  20.999  14.424
68221W        W33448  29.099  12.620   3.561
68222W        W33449   5.427  43.953  14.516
68223W        W33450  42.087  16.860  11.676
68224W        W33451  20.014  40.995  14.995
68225W        W33452  25.664  32.486   0.479
68226W        W33453  20.009   1.166  11.271
68227W        W33454  17.782  33.800  13.459
68228W        W33455  20.239  23.619  12.533
68229W        W33456  37.987   3.993  14.108
68230W        W33457  34.495   6.417  12.984
68231W        W33458   5.975  26.147  12.875
68232W        W33459  11.819  16.016   4.790
68233W        W33460  35.681  34.978   2.244
68234W        W33461   5.991  36.352  14.381
68235W        W33462   2.297  41.826  11.409
68236W        W33463  10.909  44.396   4.081
68237W        W33464  11.114  10.967  13.788
68238W        W33465  42.597  13.369  14.428
68239W        W33466  19.259  37.979  13.738
68240W        W33467  10.795   5.713  12.282
68241W        W33468  44.605  28.219   3.265
68242W        W33469  14.349  27.590   1.890
68243W        W33470   2.322  22.146   1.635
68244W        W33471  29.634   9.284   4.173
68245W        W33472  28.952   4.433  11.583
68246W        W33473  23.270  16.029   2.864
68247W        W33474  35.415  42.437  11.049
68248W        W33475  20.718  38.287  13.505
68249W        W33476  33.514  31.360  11.475
68250W        W33477  17.585   9.142   3.924
68251W        W33478  20.600  34.379  12.010
68252W        W33479  22.578   8.921  13.449
68253W        W33480  15.734  27.770  13.191
68254W        W33481  24.756  16.312   2.803
68255W        W33482   0.448   5.029   1.975
68256W        W33483  26.157  37.130  14.042
68257W        W33484  23.250  31.538   1.179
68258W        W33485  17.006  11.162   3.392
68259W        W33486  24.436  14.307   2.000
68260W        W33487   2.337  39.875   3.398
68261W        W33488  14.781   1.300  12.138
68262W        W33489  24.620  41.937   0.910
68263W        W33490  31.218  20.483  14.417
68264W        W33491  44.329   8.006  11.153
68265W        W33492  10.654   7.257   2.345
68266W        W33493  31.632  28.981  11.975
68267W        W33494  41.777  30.878  13.872
68268W        W33495  33.592  32.433  13.355
68269W        W33496  42.523   6.663  12.868
68270W        W33497  43.105  13.247  11.588
68271W        W33498  34.079  29.321   4.382
68272W        W33499   0.916  30.080   3.140
68273W        W33500  33.046  42.270   1.353
68274W        W33501  23.897   2.114   3.363
68275W        W33502  15.078  16.267   2.187
68276W        W33503  26.173  34.936  12.601
68277W        W33504  40.590  14.548   0.068
68278W        W33505  37.269  38.077  13.066
68279W        W33506   4.842   9.298  13.061
68280W        W33507  28.564  36.333   2.344
68281W        W33508  36.163  28.919  14.799
68282W        W33509  16.585  42.754  12.464
68283W        W33510   6.200  11.058  12.501
68284W        W33511   4.457   6.595  12.110
68285W        W33512   8.325  19.590   2.930
68286W        W33513  20.874  27.776  10.789
68287W        W33514  43.295  34.890  12.054
68288W        W33515   4.178   8.309   1.616
68289W        W33516  10.418  18.042   0.696
68290W        W33517  19.092  33.063   2.259
68291W        W33518  19.588  18.267  11.189
68292W        W33519  20.612  19.043  12.034
68293W        W33520  13.869  31.980  12.466
68294W        W33521   5.405  22.125   1.355
68295W        W33522  23.452  40.041  11.095
68296W        W33523  10.141  44.261  10.992
68297W        W33524  10.570  16.014  14.038
68298W        W33525  30.307  41.022   1.455
68299W        W33526  36.834  19.140  13.030
68300W        W33527  35.318  43.197  13.045
68301W        W33528  27.500   5.162   1.412
68302W        W33529  25.755  20.239  12.810
68303W        W33530  39.900  20.760  14.296
68304W        W33531  18.065  25.766   1.230
68305W        W33532  27.925   6.482  12.595
68306W        W33533   1.255  10.631  13.934
68307W        W33534  42.466  19.679   2.291
68308W        W33535  40.301  41.422   2.003
68309W        W33536  35.376  25.184  11.029
68310W        W33537  37.536  20.203  12.139
68311W        W33538  38.212  33.415  14.453
68312W        W33539  21.317   1.027  11.227
68313W        W33540  36.346  28.710   0.436
68314W        W33541  13.385  10.225  12.871
68315W        W33542  21.781  19.827  11.822
68316W        W33543   8.951  35.938  14.719
68317W        W33544  33.456  41.108   0.694
68318W        W33545  41.738  15.358  10.529
68319W        W33546  10.806   8.688  13.452
68320W        W33547  40.773  18.641  12.859
68321W        W33548  12.822  35.808  14.714
68322W        W33549   2.763  27.622   1.693
68323W        W33550  40.992   3.219   2.933
68324W        W33551  17.698  30.951   2.677
68325W        W33552  23.196  30.565   0.600
68326W        W33553  41.804  20.575   3.132
68327W        W33554  16.787  38.527   3.750
68328W        W33555  10.104   2.289   1.705
68329W        W33556   3.503   8.285  12.724
68330W        W33557  42.411  34.995  12.167
68331W        W33558  36.473  10.878   1.231
68332W        W33559   4.410  42.934   1.863
68333W        W33560  13.279  29.140  10.450
68334W        W33561  40.447  23.526   0.885
68335W        W33562  33.938   0.151  14.636
68336W        W33563  26.584  14.332   1.664
68337W        W33564  22.091  36.571   2.814
68338W        W33565  13.584  23.677   3.371
68339W        W33566  29.693  31.998   0.674
68340W        W33567   7.598  11.625  11.521
68341W        W33568  24.233  30.417   0.239
68342W        W33569  18.854  42.629   2.596
68343W        W33570   9.127  19.977  13.460
68344W        W33571  14.347  18.759  13.063
68345W        W33572  22.982  41.271  12.748
68346W        W33573   6.220  35.342   3.674
68347W        W33574  21.484   0.847  10.275
68348W        W33575  37.585  39.838   4.148
68349W        W33576  35.867  15.274   1.684
68350W        W33577  28.091  27.480   1.538
68351W        W33578  33.450  34.529   4.147
68352W        W33579  22.516  36.749  13.855
68353W        W33580  29.393  28.449  12.484
68354W        W33581  21.193  22.629  13.874
68355W        W33582  35.126  27.195   3.132
68356W        W33583  43.816  11.520  12.821
68357W        W33584  29.934   1.297   1.351
68358W        W33585  26.731  35.445   0.348
68359W        W33586   8.909  12.496  10.621
68360W        W33587  41.177  28.855  12.581
68361W        W33588  20.299  34.386   0.247
68362W        W33589  21.140   7.702   5.045
68363W        W33590  25.679  36.854   4.122
68364W        W33591  34.840  29.978   4.886
68365W        W33592  15.051  10.382   4.103
68366W        W33593  18.248  34.599   2.612
68367W        W33594  43.969  31.627   3.641
68368W        W33595  13.687  37.917   4.378
68369W        W33596  41.466  35.824   2.704
68370W        W33597  31.360  33.503  13.083
68371W        W33598  44.038  10.854  12.356
68372W        W33599   6.983  27.549  13.893
68373W        W33600  38.787  27.578  12.104
68374W        W33601  43.966   3.400   2.650
68375W        W33602  39.512   8.713  10.690
68376W        W33603   1.655  44.741  13.035
68377W        W33604  34.759  41.699   3.746
68378W        W33605  34.186  14.773   0.274
68379W        W33606   4.374  29.086   2.194
68380W        W33607  42.827  19.501  14.558
68381W        W33608  25.625   9.102  10.662
68382W        W33609  11.125  34.002  14.343
68383W        W33610  35.675  41.394  13.483
68384W        W33611   7.248  27.145   0.875
68385W        W33612  39.198  41.791  10.876
68386W        W33613  10.774  14.371   1.804
68387W        W33614  42.812   2.834   4.629
68388W        W33615  17.195  13.340   2.690
68389W        W33616  44.321  12.625  12.063
68390W        W33617  16.998  40.270  14.235
68391W        W33618  36.138   0.259   4.552
68392W        W33619   3.733  41.858   4.538
68393W        W33620  37.329  12.175  12.092
68394W        W33621  22.516  40.100   0.886
68395W        W33622  17.263  12.656  11.805
68396W        W33623   9.405  30.718  14.022
68397W        W33624  27.699   9.740  11.167
68398W        W33625   3.015  43.018  12.605
68399W        W33626  12.848  40.136   3.664
68400W        W33627  12.738  10.112   1.369
68401W        W33628  24.652   8.942   0.193
68402W        W33629  37.784   3.274   1.255
68403W        W33630  38.922  40.784  13.137
68404W        W33631  25.030   7.194  12.792
68405W        W33632  10.231  17.853   0.212
68406W        W33633  42.811  19.818   1.248
68407W        W33634  34.556   8.932   0.313
68408W        W33635  12.093   1.236   4.032
68409W        W33636   5.354  44.049  13.441
68410W        W33637  28.488  35.514   1.744
68411W        W33638  22.661  12.811  14.611
68412W        W33639   7.628   5.991  11.635
68413W        W33640  29.356   3.394  10.775
68414W        W33641  18.090  32.780   1.931
68415W        W33642  13.034  28.048  11.225
68416W        W33643  17.609  27.228   1.200
68417W        W33644  26.945   4.762  14.969
68418W        W33645  35.709  20.149   5.054
68419W        W33646  41.525  33.409   0.816
68420W        W33647  29.273   7.368   0.718
68421W        W33648  26.232  28.578  13.875
68422W        W33649   0.901  23.871   4.523
68423W        W33650  28.229  42.084  11.233
68424W        W33651   7.483  33.417  14.996
68425W        W33652  19.206  23.981   4.153
68426W        W33653  11.809   5.298   3.435
68427W        W33654  41.986   5.222  14.500
68428W        W33655  35.286   3.348  11.216
68429W        W33656  15.346  27.116  10.502
68430W        W33657  31.985  26.731  12.155
68431W        W33658  31.467  20.666   0.542
68432W        W33659   2.793  41.966  11.258
68433W        W33660  19.201  41.319   2.732
68434W        W33661  41.712  26.407   5.110
68435W        W33662  26.863  40.523   2.339
68436W        W33663  21.724  37.151   3.263
68437W        W33664   3.795  16.927  13.913
68438W        W33665  25.324  25.593  14.560
68439W        W33666  17.022  44.186  14.373
68440W        W33667  41.616  32.667  13.109
68441W        W33668  32.973  16.182  13.828
68442W        W33669   4.849  16.904  12.353
68443W        W33670  11.879  22.822   1.665
68444W        W33671  19.745   2.313   0.966
68445W        W33672  11.841  37.963   0.893
68446W        W33673  39.085  10.803   4.483
68447W        W33674   6.970  23.676   0.275
68448W        W33675   3.544  23.043  11.369
68449W        W33676  26.776  36.367   2.178
68450W        W33677  28.060  10.169  12.485
68451W        W33678  43.879  41.598  14.885
68452W        W33679  17.162  42.238   0.256
68453W        W33680  14.027  38.337  12.155
68454W        W33681   8.581  32.352   1.861
68455W        W33682  20.967   8.722   1.802
68456W        W33683  15.189  16.128  12.033
68457W        W33684  38.397  36.258   2.701
68458W        W33685  41.148  22.607  12.483
68459W        W33686  42.623  43.906   0.687
68460W        W33687  18.266  42.434   4.770
68461W        W33688  23.205  20.732   4.129
68462W        W33689  10.443  21.025   2.657
68463W        W33690   5.306  38.316  14.440
68464W        W33691   6.479  10.379  13.403
68465W        W33692  43.484  39.213  12.560
68466W        W33693  12.012  41.528   1.296
68467W        W33694  34.045  26.950  11.115
68468W        W33695   2.856  38.159   1.467
68469W        W33696  13.017  22.845   4.931
68470W        W33697  11.898  36.524  14.293
68471W        W33698  21.460  18.943   4.173
68472W        W33699  41.314  34.394  13.595
68473W        W33700  35.993  12.371  13.588
68474W        W33701  24.714  33.538   0.834
68475W        W33702  15.210  37.994   0.275
68476W        W33703  18.882  23.155   3.639
68477W        W33704  37.632  26.446  14.348
68478W        W33705  17.708  36.908  11.225
68479W        W33706  10.307  35.429  12.873
68480W        W33707  23.356   3.248  14.866
68481W        W33708  37.865  34.039   4.647
68482W        W33709  21.209  15.136   3.780
68483W        W33710  10.963  13.602  11.626
68484W        W33711  41.042   5.026   5.425
68485W        W33712  28.593  22.623   4.664
68486W        W33713   5.014  43.100   9.889
68487W        W33714  26.287  30.248  12.922
68488W        W33715   5.994  27.724   4.652
68489W        W33716  10.290  21.533  11.779
68490W        W33717  37.332  42.240  14.486
68491W        W33718  36.788  32.979   3.768
68492W        W33719  23.735   0.797  14.101
68493W        W33720  21.459   4.253   3.597
68494W        W33721   3.115  43.004  13.495
68495W        W33722  21.726  19.574  13.653
68496W        W33723  29.807  15.251  11.095
68497W        W33724  22.073  18.547   2.845
68498W        W33725  12.814  17.455  12.142
68499W        W33726  37.841  10.328   5.102
68500W        W33727   6.306  24.232  11.771
68501W        W33728  44.488   3.689   3.218
68502W        W33729  35.552   6.522  12.127
68503W        W33730   3.229  39.813  13.999
68504W        W33731  42.178  40.094   3.162
68505W        W33732  15.524   3.157   1.846
68506W        W33733  25.628  12.066   9.739
68507W        W33734  22.244  44.951  13.819
68508W        W33735  24.487  15.358   0.909
68509W        W33736  29.530  19.247  13.910
68510W        W33737  34.093  29.344  13.028
68511W        W33738  35.889  14.656  12.915
68512W        W33739   6.277  40.823  14.266
68513W        W33740  17.992  21.463  10.756
68514W        W33741  33.475  34.852   3.250
68515W        W33742  40.000   8.137   3.296
68516W        W33743   3.831  17.971  13.089
68517W        W33744  34.957  32.583  12.762
68518W        W33745  42.096  44.997  13.766
68519W        W33746   4.880  20.094  10.390
68520W        W33747  29.445  20.877   3.573
68521W        W33748  37.091  21.462  13.848
68522W        W33749   8.636  29.170  11.394
68523W        W33750  15.365  33.481  10.419
68524W        W33751   5.756  14.839   1.907
68525W        W33752  41.757   4.933  12.032
68526W        W33753  30.154  28.943  11.111
68527W        W33754   7.199  35.572  14.968
68528W        W33755  36.656  13.373   0.821
68529W        W33756   1.300  11.259   0.276
68530W        W33757  20.375  28.035  10.785
68531W        W33758  34.888  39.878   2.656
68532W        W33759  19.648   9.817   0.530
68533W        W33760  20.254  11.229  14.876
68534W        W33761  21.343  41.922  11.500
68535W        W33762  30.956  41.233   0.590
68536W        W33763  43.555  38.874   0.342
68537W        W33764  34.058  43.500  14.556
68538W        W33765   0.827   9.096   0.869
68539W        W33766  27.186  41.630  13.791
68540W        W33767  42.243  27.595  11.701
68541W        W33768  18.839  25.740  11.085
68542W        W33769   4.992   7.367  13.570
68543W        W33770  26.672   7.352   4.622
68544W        W33771  40.107   8.386   4.515
68545W        W33772  23.528  42.771   0.262
68546W        W33773   7.201  14.801  14.253
68547W        W33774  33.088  11.479   2.265
68548W        W33775  34.046  25.878   1.757
68549W        W33776  38.360  15.020  11.169
68550W        W33777  22.501  43.229   0.588
68551W        W33778   2.601   0.260  13.392
68552W        W33779  42.089  12.256   4.549
68553W        W33780  33.380  25.107  10.251
68554W        W33781  11.317   8.607  13.899
68555W        W33782  30.616  29.029   0.385
68556W        W33783   1.746  12.682   4.771
68557W        W33784   8.992  33.056  13.473
68558W        W33785  26.460  10.351  14.739
68559W        W33786   7.731  16.105  14.094
68560W        W33787  31.210  42.775  13.000
68561W        W33788  16.213   5.072   1.845
68562W        W33789   1.715  26.539   1.958
68563W        W33790   2.289   6.793  10.719
68564W        W33791  38.331   2.933  13.467
68565W        W33792  28.790  24.127  12.916
68566W        W33793  19.920   1.785  13.450
68567W        W33794  20.998  14.793   3.039
68568W        W33795  32.816  30.699   2.770
68569W        W33796   4.290   0.746   4.260
68570W        W33797  35.562   0.832  13.359
68571W        W33798   8.228   9.359  13.437
68572W        W33799  33.376  32.839   1.342
68573W        W33800  21.659  14.350  11.191
68574W        W33801  12.293  10.954  11.272
68575W        W33802   5.711  24.110  10.910
68576W        W33803  40.281  15.880   0.454
68577W        W33804  41.287  40.892  10.740
68578W        W33805  10.258  34.190  12.556
68579W        W33806  28.576  41.192   3.093
68580W        W33807   9.116  24.371  14.349
68581W        W33808  23.543  11.070   4.617
68582W        W33809  43.374  16.963   3.304
68583W        W33810  42.305  36.971   1.663
68584W        W33811  21.329  32.852  12.948
68585W        W33812  33.537  25.042   3.337
68586W        W33813   3.555  38.288   4.480
68587W        W33814  34.633  38.075   0.359
68588W        W33815  35.764  16.855   4.100
68589W        W33816  20.789  31.946  13.769
68590W        W33817  44.544  10.297  10.273
68591W        W33818  14.146   8.855   0.041
68592W        W33819  27.657  44.496   1.359
68593W        W33820  44.332  42.342   1.983
68594W        W33821  13.990  40.346   1.454
68595W        W33822   0.155   5.256  14.411
68596W        W33823  18.210  18.120  13.057
68597W        W33824  25.550   4.956   3.605
68598W        W33825  24.222  44.384   1.768
68599W        W33826  41.235  23.622  14.804
68600W        W33827  29.071  20.267   3.384
68601W        W33828   9.303   6.383  10.799
68602W        W33829  24.029  25.230  11.098
68603W        W33830   2.379  33.081  13.458
68604W        W33831  39.765   6.173  13.262
68605W        W33832  37.963  16.043   1.272
68606W        W33833   0.027  38.449   2.096
68607W        W33834  39.332  22.254   2.824
68608W        W33835  31.271  30.444  14.682
68609W        W33836  34.147   0.256  14.194
68610W        W33837   2.743  27.507   2.657
68611W        W33838  36.540  25.660   2.344
68612W        W33839  34.631  31.547   3.898
68613W        W33840  14.951  35.910   3.733
68614W        W33841  21.810  15.819  13.449
68615W        W33842  43.039  36.014   0.814
68616W        W33843   5.294  12.556   0.025
68617W        W33844  38.327  27.088  10.942
68618W        W33845  34.033  31.345  13.011
68619W        W33846   6.358  21.589  14.965
68620W        W33847  41.018   5.701  13.843
68621W        W33848  16.302  37.802   4.585
68622W        W33849  21.165  24.660  14.928
68623W        W33850  38.532  35.126  12.162
68624W        W33851  31.049  17.988   5.632
68625W        W33852  27.487  34.643  11.070
68626W        W33853  28.968   5.402  11.227
68627W        W33854  32.142  31.471  13.340
68628W        W33855  18.065   6.128   4.763
68629W        W33856  17.793  33.820  14.508
68630W        W33857   9.277  25.219  11.626
68631W        W33858  31.451  19.074  14.885
68632W        W33859  36.092  22.759   2.849
68633W        W33860  13.875  22.085   4.149
68634W        W33861  29.127  23.549  11.031
68635W        W33862   6.432  36.909   0.202
68636W        W33863   9.872  30.076  10.724
68637W        W33864  17.872  11.739  14.998
68638W        W33865  12.567   6.731   4.591
68639W        W33866   9.721  31.816  14.111
68640W        W33867  32.919  17.905   4.126
68641W        W33868  36.963  32.259   1.221
68642W        W33869  24.181  39.790   3.162
68643W        W33870  40.930  25.389   0.232
68644W        W33871  28.655  39.165   0.408
68645W        W33872  21.678  24.479  13.877
68646W        W33873   6.273  44.447  13.078
68647W        W33874  39.161  16.035  11.824
68648W        W33875   4.397   1.406   2.084
68649W        W33876  27.478  26.115  12.710
68650W        W33877  43.556  33.200  13.082
68651W        W33878  44.353  27.416   0.324
68652W        W33879  15.682  43.823   0.353
68653W        W33880   1.785   8.929  14.362
68654W        W33881   5.396   8.176  14.067
68655W        W33882  29.946  36.530   9.832
68656W        W33883  44.077  44.413   1.288
68657W        W33884  31.411   4.090   1.435
68658W        W33885  22.177  26.833  12.493
68659W        W33886  33.826  10.868  10.372
68660W        W33887  13.056   7.019  12.865
68661W        W33888  38.042  41.005   4.191
68662W        W33889  38.469  22.539   0.835
68663W        W33890  29.417  42.855   1.882
68664W        W33891   4.592  11.752  13.750
68665W        W33892  40.960  39.023   4.615
68666W        W33893  29.971  26.589  14.792
68667W        W33894   9.418  40.548  14.460
68668W        W33895  26.729  24.032  12.022
68669W        W33896  44.779   1.498  13.356
68670W        W33897  37.612  39.823   4.663
68671W        W33898  29.881  11.201   0.270
68672W        W33899  40.553  32.620   2.651
68673W        W33900  28.771  27.016   1.736
68674W        W33901  44.004  11.241  11.557
68675W        W33902  22.159  13.252   0.661
68676W        W33903  32.174  24.535   4.590
68677W        W33904  20.508  32.470  12.922
68678W        W33905  15.237   1.567   1.288
68679W        W33906  14.745  35.916   4.604
68680W        W33907  28.549  21.989  12.683
68681W        W33908  24.688  34.610   2.749
68682W        W33909  33.118   1.326   4.036
68683W        W33910  43.048  32.453   3.073
68684W        W33911  42.312  33.276   3.227
68685W        W33912   2.836   3.754   2.417
68686W        W33913  14.696   1.225   1.757
68687W        W33914  28.160  11.459  12.920
68688W        W33915  43.403  25.116   1.086
68689W        W33916  36.160  41.105  12.566
68690W        W33917  19.563  39.825   0.876
68691W        W33918  27.833  10.264   5.033
68692W        W33919  43.254   4.453   3.108
68693W        W33920  37.862  35.681   3.207
68694W        W33921  16.702  20.470  13.836
68695W        W33922  17.940  20.553  13.368
68696W        W33923   1.669  37.077   3.744
68697W        W33924  29.631  40.286   3.432
68698W        W33925  12.921   0.710   3.054
68699W        W33926   1.858  22.499  11.106
68700W        W33927   8.453  28.746   2.714
68701W        W33928  42.491   6.316  10.348
68702W        W33929   4.875  36.001  13.896
68703W        W33930  40.364  15.187   2.694
68704W        W33931  40.581  39.372  14.855
68705W        W33932   8.277  40.399   4.300
68706W        W33933  28.223  21.571  12.606
68707W        W33934  22.098   8.072   2.181
68708W        W33935  38.451  34.007  13.182
68709W        W33936  41.380  39.119  14.076
68710W        W33937  20.652  39.159  10.561
68711W        W33938  44.969  21.547   2.802
68712W        W33939   1.837  18.948  13.476
68713W        W33940  35.933  23.623   1.337
68714W        W33941  36.087  28.684   3.774
68715W        W33942  39.361  33.671  10.204
68716W        W33943   9.064  24.888  13.831
68717W        W33944  10.211  24.565  12.331
68718W        W33945   2.547  30.598   1.790
68719W        W33946   0.394  10.261  10.397
68720W        W33947  27.925   7.579  14.017
68721W        W33948   3.544  40.469  10.694
68722W        W33949  18.196  21.243  14.080
68723W        W33950  44.071  28.330  13.508
68724W        W33951   3.964  22.539   3.284
68725W        W33952  39.092  38.301   3.811
68726W        W33953  40.418  14.750   3.040
68727W        W33954  14.161  37.831  12.016
68728W        W33955  29.760   4.756  14.383
68729W        W33956  23.931   0.330  10.950
68730W        W33957  16.199  10.662  12.498
68731W        W33958   0.433  32.341  11.055
68732W        W33959  33.927   6.130   0.990
68733W        W33960   9.317  29.562  11.454
68734W        W33961  32.102  39.789   2.151
68735W        W33962  24.720  35.157   3.285
68736W        W33963  10.347  20.511  11.010
68737W        W33964  16.736   4.731   0.572
68738W        W33965  26.648  12.231  10.790
68739W        W33966  20.995  21.110   0.679
68740W        W33967  24.016  10.995  12.977
68741W        W33968  41.484   3.504  13.823
68742W        W33969  15.025  39.289   0.874
68743W        W33970   0.330  16.054  12.030
68744W        W33971  39.406  28.020   1.312
68745W        W33972  15.236  31.920   2.796
68746W        W33973  10.058  35.703   2.308
68747W        W33974  12.819  23.615  11.695
68748W        W33975  17.585  19.335   1.465
68749W        W33976  39.471  37.574  11.412
68750W        W33977  10.081  26.583   3.349
68751W        W33978   7.327  17.331   1.682
68752W        W33979  43.077  15.499  11.164
68753W        W33980   4.238  15.201  10.563
68754W        W33981  42.961  22.196   0.406
68755W        W33982  31.076  24.582  14.841
68756W        W33983  41.039  21.330   1.005
68757W        W33984   2.957  19.077   2.302
68758W        W33985   5.689   9.548  12.596
68759W        W33986  38.065   4.511  11.826
68760W        W33987   1.171  10.714  10.920
68761W        W33988  34.427  23.116   0.099
68762W        W33989  44.387  41.036  14.481
68763W        W33990   8.667  27.356  11.385
68764W        W33991  44.890   2.255   4.624
68765W        W33992  31.204   3.821  13.020
68766W        W33993  35.028  39.813  14.030
68767W        W33994   1.533  16.598  10.970
68768W        W33995  18.035  42.306   0.846
68769W        W33996  13.678  21.679   4.507
68770W        W33997  35.548  28.849  13.627
68771W        W33998   0.374  36.566   0.490
68772W        W33999   6.719  13.292  13.244
68773W        W34000  17.203  39.957   4.685
68774W        W34001  30.124  11.664  12.894
68775W        W34002  24.856  44.550  10.280
68776W        W34003  14.003  16.380   1.475
68777W        W34004  34.509   8.101  11.237
68778W        W34005  38.323  30.929  12.044
68779W        W34006  11.209   4.789   1.899
68780W        W34007  38.219  33.482  11.103
68781W        W34008   4.035   8.926   4.005
68782W        W34009  18.093  14.114   0.762
68783W        W34010  19.511  16.787  13.544
68784W        W34011  15.584  43.040   3.226
68785W        W34012  23.494  40.425  12.977
68786W        W34013  22.465  36.072  14.889
68787W        W34014   7.962  40.534   0.355
68788W        W34015   6.910  24.300  13.857
68789W        W34016  32.454  36.638   0.879
68790W        W34017  22.465   4.253  12.559
68791W        W34018  32.631  42.513  11.956
68792W        W34019  22.979  35.366   0.888
68793W        W34020  25.717  38.469   0.319
68794W        W34021  17.486  16.715   2.746
68795W        W34022  29.067  37.355  13.021
68796W        W34023   8.233  13.143   0.808
68797W        W34024  13.748  12.702   2.681
68798W        W34025  42.741  30.573  14.287
68799W        W34026  44.512  17.260  14.674
68800W        W34027  42.897  10.839  12.952
68801W        W34028  36.882  10.234  14.794
68802W        W34029   4.961  24.844  12.656
68803W        W34030   5.105  30.387  13.400
68804W        W34031  14.558  27.492  14.928
68805W        W34032   0.861  11.637  14.512
68806W        W34033  28.331  30.725  10.225
68807W        W34034  32.818  17.002   1.241
68808W        W34035  38.968   3.848  11.196
68809W        W34036  43.946  11.537   2.856
68810W        W34037  37.054  14.316  11.613
68811W        W34038  25.417  34.963  13.564
68812W        W34039   8.830  13.705   2.649
68813W        W34040  26.517  20.619  13.091
68814W        W34041  32.003   0.328  11.497
68815W        W34042  31.553  22.850  12.493
68816W        W34043   9.608  13.571  11.071
68817W        W34044   1.324   8.869   0.664
68818W        W34045   7.701  14.760  12.073
68819W        W34046  31.023   6.917   0.028
68820W        W34047  36.560  19.270  14.455
68821W        W34048  22.197  14.648   4.272
68822W        W34049   1.495  44.776   0.779
68823W        W34050  37.207  31.641  12.844
68824W        W34051  43.871  41.048   2.186
68825W        W34052  33.566  42.543  14.307
68826W        W34053  27.821  23.397   2.980
68827W        W34054   3.183   8.986  14.435
68828W        W34055   2.923  41.791  10.104
68829W        W34056  31.358  20.840  11.680
68830W        W34057  20.257  34.442   2.836
68831W        W34058  11.805  31.153   0.957
68832W        W34059  16.755   6.842  11.543
68833W        W34060  32.202  16.604  10.251
68834W        W34061  34.096   4.927  14.272
68835W        W34062  16.757   7.689  11.398
68836W        W34063  38.811  30.122  11.701
68837W        W34064  27.968  29.959  13.206
68838W        W34065   8.699  41.782  12.162
68839W        W34066   6.405  38.323   0.237
68840W        W34067   8.622  17.096  14.448
68841W        W34068  20.270   6.424   3.396
68842W        W34069  24.621  24.125  10.780
68843W        W34070   7.299  10.872   2.293
68844W        W34071  32.622   8.255   3.791
68845W        W34072   1.228  30.231   0.076
68846W        W34073  11.765  33.989   1.345
68847W        W34074  31.348   4.369  11.725
68848W        W34075   4.852  10.682  14.228
68849W        W34076  32.466  29.656  12.949
68850W        W34077  13.322   2.158  13.663
68851W        W34078   7.383   5.206   3.300
68852W        W34079  26.047   5.123  14.907
68853W        W34080  30.038  43.778  12.040
68854W        W34081  33.905  13.274   4.490
68855W        W34082  10.492  38.538  13.390
68856W        W34083  33.882  27.627  10.735
68857W        W34084  40.166  33.920  12.079
68858W        W34085   5.383   3.930  11.924
68859W        W34086   2.791  43.906  12.957
68860W        W34087   3.651  32.303  13.858
68861W        W34088  21.107  29.492  14.972
68862W        W34089  37.092  11.857   4.558
68863W        W34090  12.838   5.488  11.100
68864W        W34091  37.418  31.445   1.173
68865W        W34092  40.123  26.928  11.179
68866W        W34093   7.882  29.937   1.487
68867W        W34094   4.018   9.986  10.130
68868W        W34095  12.829  33.152  10.714
68869W        W34096  23.282  19.600  12.957
68870W        W34097  21.729  11.181  11.699
68871W        W34098   6.691  21.070   3.923
68872W        W34099  21.671   9.301  14.769
68873W        W34100   8.627  35.858  14.310
68874W        W34101  39.733  33.960   4.099
68875W        W34102  34.447  33.735  14.868
68876W        W34103  11.079  22.527  12.000
68877W        W34104   3.797  11.230   4.013
68878W        W34105  21.008  20.148  13.153
68879W        W34106   7.100  20.649   4.767
68880W        W34107  43.031   4.144  13.113
68881W        W34108  43.101  27.436   3.794
68882W        W34109  15.653  39.980   0.806
68883W        W34110  37.884  29.021  10.603
68884W        W34111  26.530  16.737  12.919
68885W        W34112  33.425   0.060   0.421
68886W        W34113   4.427  37.000   2.227
68887W        W34114  11.901  21.226  12.103
68888W        W34115  13.347   2.024   5.059
68889W        W34116  33.445   6.609  12.564
68890W        W34117  13.364  41.740   2.779
68891W        W34118  43.809   8.664   4.085
68892W        W34119  35.047  11.772  12.798
68893W        W34120  40.298  35.283   0.873
68894W        W34121  40.472  18.220   0.788
68895W        W34122  41.967   3.014  14.529
68896W        W34123   2.259  15.855  12.094
68897W        W34124   6.246  14.889   1.172
68898W        W34125   5.871  27.434   4.221
68899W        W34126   9.214  35.814   2.166
68900W        W34127  26.096  30.716  10.874
68901W        W34128  34.225  18.603   2.883
68902W        W34129  41.384  31.185  14.033
68903W        W34130  38.488  34.999   1.486
68904W        W34131   2.514   1.321  12.580
68905W        W34132   2.048  15.350  11.108
68906W        W34133  40.244   1.248  11.209
68907W        W34134  24.610   2.733  12.023
68908W        W34135  27.456  29.959   9.807
68909W        W34136  43.435   1.708  10.640
68910W        W34137  33.609   8.349   2.598
68911W        W34138   8.901   6.496   2.410
68912W        W34139  39.821  18.981  12.380
68913W        W34140  15.694   8.766   2.396
68914W        W34141   6.164  18.768   4.252
68915W        W34142  16.799  25.495   1.734
68916W        W34143  18.329   9.275   2.767
68917W        W34144   4.473  25.061  11.354
68918W        W34145   4.047  38.370  12.563
68919W        W34146  15.921   6.348   4.066
68920W        W34147   4.905   6.891  11.443
68921W        W34148  34.375  11.561  12.528
68922W        W34149  18.110   4.751  11.604
68923W        W34150  19.548  30.689  13.078
68924W        W34151   9.326   0.943   3.567
68925W        W34152   7.958  14.496  12.423
68926W        W34153  25.971  10.828   0.417
68927W        W34154  13.517  13.189   2.760
68928W        W34155  23.680  32.116  12.669
68929W        W34156  34.430   5.429   4.676
68930W        W34157  15.743  23.000   0.008
68931W        W34158   8.954  11.365  11.242
68932W        W34159  21.160  41.993   1.008
68933W        W34160   3.639  26.024  13.891
68934W        W34161  33.374  14.756  11.070
68935W        W34162   7.878  42.711  11.912
68936W        W34163  23.306  13.682  12.545
68937W        W34164  27.617  35.915   1.987
68938W        W34165  27.627   6.094  11.225
68939W        W34166  24.137  41.702   3.731
68940W        W34167   0.954  36.573  14.421
68941W        W34168  39.013   8.672   0.967
68942W        W34169  19.452  35.179   2.844
68943W        W34170   3.543  40.332   4.031
68944W        W34171  27.910  11.148  10.328
68945W        W34172  17.721  19.552  14.694
68946W        W34173  29.428  10.180  14.853
68947W        W34174  20.770   1.252   0.783
68948W        W34175  39.745  31.735  14.347
68949W        W34176  25.086   8.862   0.863
68950W        W34177   4.941  29.672  13.726
68951W        W34178  10.685  20.082   3.909
68952W        W34179  31.149   1.785  12.037
68953W        W34180  14.480  12.140  12.078
68954W        W34181  36.822   3.178   0.290
68955W        W34182   2.468  37.454   2.294
68956W        W34183  31.184  34.655  12.470
68957W        W34184   8.147   0.656   0.811
68958W        W34185   6.829   8.783   2.316
68959W        W34186  11.862  10.640   1.223
68960W        W34187  43.802  11.813  10.849
68961W        W34188  11.558  27.491  13.892
68962W        W34189  39.394  28.538  10.752
68963W        W34190  26.730   5.812   2.208
68964W        W34191   6.852  17.535   1.857
68965W        W34192  42.679  32.692   0.349
68966W        W34193  28.403  11.729   4.050
68967W        W34194  18.892  41.987  11.248
68968W        W34195  26.749  18.218   1.039
68969W        W34196  27.343  14.830   0.543
68970W        W34197  12.804  23.661  13.617
68971W        W34198  26.290  20.611   0.437
68972W        W34199  38.399  40.470  11.244
68973W        W34200  26.725   2.243   3.383
68974W        W34201  35.058  11.584   2.861
68975W        W34202   1.101  26.725   4.460
68976W        W34203  36.040   2.867   3.412
68977W        W34204  37.445  12.279  11.225
68978W        W34205  38.537  39.554   0.403
68979W        W34206  34.099  23.068   2.196
68980W        W34207  30.650  32.187   3.734
68981W        W34208  15.510  41.234   2.701
68982W        W34209  36.775  25.192   0.803
68983W        W34210  24.618   9.884   1.372
68984W        W34211  18.720  32.073   3.256
68985W        W34212  28.155  14.247  10.195
68986W        W34213  28.745  37.079  10.072
68987W        W34214   5.385  15.766   1.365
68988W        W34215   6.849  37.129   0.026
68989W        W34216  38.422  33.388   4.095
68990W        W34217  44.539  27.512  12.337
68991W        W34218  26.248  30.570   4.587
68992W        W34219  14.165  33.388  13.036
68993W        W34220  27.112  35.384   3.122
68994W        W34221  27.906  15.425   3.568
68995W        W34222   8.057  11.712  11.221
68996W        W34223  36.090  39.180   2.842
68997W        W34224  14.089  44.441   0.941
68998W        W34225  23.678  22.587   0.109
68999W        W34226  42.449  21.316  12.137
69000W        W34227  19.198  14.508  12.612
69001W        W34228  29.358  28.545  11.202
69002W        W34229   7.472  29.621  14.805
69003W        W34230  10.545  34.301  11.620
69004W        W34231  28.879   2.494   2.374
69005W        W34232  34.513  16.150   0.951
69006W        W34233  13.780  37.439  13.962
69007W        W34234  32.404  14.352  11.795
69008W        W34235  38.721  41.318  11.750
69009W        W34236  33.342  32.950   0.339
69010W        W34237  38.439  41.737  11.632
69011W        W34238  32.094  22.552  13.630
69012W        W34239   5.569  44.422   2.634
69013W        W34240  38.894  38.609  10.034
69014W        W34241  20.068  37.536   2.335
69015W        W34242  19.201  44.882   4.516
69016W        W34243  13.157  28.358   1.102
69017W        W34244  43.906  42.398   3.333
69018W        W34245  29.592  40.621   5.306
69019W        W34246  29.657   0.227  10.796
69020W        W34247  35.419  14.242   5.082
69021W        W34248  10.776  12.654   2.932
69022W        W34249  43.396  34.317  12.524
69023W        W34250   0.038  24.735   3.225
69024W        W34251  30.987  15.425  13.402
69025W        W34252  22.219  36.386  10.758
69026W        W34253  14.921  15.977   1.279
69027W        W34254   7.604  30.602   2.729
69028W        W34255   5.599  31.234   1.895
69029W        W34256   2.415  23.126  11.465
69030W        W34257   5.794   3.774   3.645
69031W        W34258   5.749  39.013   3.856
69032W        W34259   7.114  40.086  11.604
69033W        W34260  43.096   7.262   0.011
69034W        W34261  31.863  10.157  14.829
69035W        W34262  17.868  41.870  14.868
69036W        W34263  12.821   2.486   2.493
69037W        W34264  29.937  24.795   4.580
69038W        W34265  33.947  43.411  10.628
69039W        W34266  18.539  41.398   1.358
69040W        W34267  10.707   0.135  14.320
69041W        W34268  21.998   8.773   2.659
69042W        W34269  37.549  16.512  12.953
69043W        W34270   3.504   6.228   0.783
69044W        W34271  19.294  12.208   1.984
69045W        W34272   4.300  16.054  14.068
69046W        W34273   0.366  39.815  14.763
69047W        W34274  10.301  21.438   2.363
69048W        W34275  39.922  38.790  11.092
69049W        W34276  24.192   8.133   3.565
69050W        W34277  26.038  19.428  13.034
69051W        W34278   6.854  27.178  12.553
69052W        W34279  17.941  24.018  14.222
69053W        W34280  15.814  43.325  12.424
69054W        W34281  12.369   8.229   1.930
69055W        W34282  34.008  17.349   3.074
69056W        W34283  31.046  20.003  14.878
69057W        W34284  36.857  38.407   3.081
69058W        W34285   2.766   9.750  13.994
69059W        W34286  32.066  40.782  13.185
69060W        W34287  27.961  20.538  12.897
69061W        W34288  39.498  31.437   1.350
69062W        W34289  13.736  27.437  13.880
69063W        W34290  21.407   4.835  13.846
69064W        W34291  30.930  29.155  10.637
69065W        W34292   5.516  43.038   3.192
69066W        W34293  43.889  25.719  13.039
69067W        W34294  10.003  29.040   0.571
69068W        W34295   8.868  20.911   5.079
69069W        W34296  39.664   6.905   5.028
69070W        W34297  35.592  31.652   0.986
69071W        W34298   8.906  20.233   1.338
69072W        W34299   1.432  22.688   4.556
69073W        W34300  20.630  20.091   4.060
69074W        W34301  25.711  27.519   4.577
69075W        W34302  15.513  33.539   0.644
69076W        W34303   7.145  40.601   0.652
69077W        W34304  12.280  13.360  11.211
69078W        W34305  22.629  38.469   0.456
69079W        W34306  24.802   2.701  13.024
69080W        W34307  13.446   1.790   3.341
69081W        W34308  31.641   8.570  14.722
69082W        W34309  23.514   5.499  11.659
69083W        W34310  36.671  10.854   3.206
69084W        W34311  16.434  33.692  14.495
69085W        W34312  10.254  37.900  10.827
69086W        W34313  15.574  14.794   3.610
69087W        W34314  29.605  42.019  10.744
69088W        W34315   7.913  28.699  12.228
69089W        W34316  11.232  43.778   2.146
69090W        W34317  35.062  35.430   1.007
69091W        W34318  22.586  19.299  11.643
69092W        W34319  28.006  23.679  12.448
69093W        W34320  15.141  30.677   3.755
69094W        W34321  37.116  33.344  11.385
69095W        W34322  11.269  15.119  14.735
69096W        W34323  34.287  24.177  13.524
69097W        W34324  12.895  35.603  14.236
69098W        W34325  15.354   1.294   0.774
69099W        W34326  31.869  21.271   4.424
69100W        W34327  42.070  23.226  11.302
69101W        W34328  34.998  35.518   4.215
69102W        W34329  30.141  11.339   5.540
69103W        W34330  12.932   2.275   0.544
69104W        W34331  28.676   1.219  10.493
69105W        W34332   4.208  29.981  14.774
69106W        W34333   5.391  20.461  12.436
69107W        W34334  38.610  44.872   1.678
69108W        W34335  38.877  35.873   4.000
69109W        W34336  19.121  41.929   0.359
69110W        W34337  21.704  34.835  13.367
69111W        W34338  19.174  34.862  11.553
69112W        W34339  10.706   9.859  11.578
69113W        W34340  19.093   2.869   1.032
69114W        W34341   2.968  21.611  12.038
69115W        W34342  25.680  26.668   3.542
69116W        W34343  43.365  22.042  12.974
69117W        W34344   8.356  30.945  14.760
69118W        W34345  23.737  30.059   1.788
69119W        W34346  34.097  36.597  10.648
69120W        W34347  34.261  29.178   0.840
69121W        W34348  23.054  42.057   2.637
69122W        W34349  10.048   1.679  13.503
69123W        W34350  40.351  18.804   3.060
69124W        W34351  21.910  30.424  13.537
69125W        W34352  44.764  13.568   4.017
69126W        W34353   4.235   5.661  13.734
69127W        W34354  28.529  20.608  14.570
69128W        W34355  41.345  36.418   4.526
69129W        W34356  32.396  37.605  10.899
69130W        W34357  32.542  34.309  11.736
69131W        W34358   0.606  16.580  12.003
69132W        W34359  37.814  28.098  13.800
69133W        W34360  37.459  20.468  13.121
69134W        W34361  43.430  40.310   3.080
69135W        W34362   4.624   1.770  13.983
69136W        W34363  24.104   3.067  10.703
69137W        W34364  30.720  44.568  13.532
69138W        W34365  24.148  20.736  13.568
69139W        W34366  36.617  41.285   3.254
69140W        W34367  21.654  32.162   3.435
69141W        W34368   9.385  16.371   2.273
69142W        W34369  29.532  13.688  14.720
69143W        W34370  12.819   4.181  11.389
69144W        W34371  20.725   3.850   3.741
69145W        W34372  34.439  37.872   3.183
69146W        W34373  16.533  17.050   1.318
69147W        W34374  38.594  21.503   1.674
69148W        W34375  41.021  18.848  13.269
69149W        W34376  42.904  22.660  11.561
69150W        W34377  19.573  19.589   2.824
69151W        W34378  25.874  44.535  12.100
69152W        W34379  14.393  37.928   1.247
69153W        W34380   6.850  17.612  14.329
69154W        W34381  41.387  35.863   3.893
69155W        W34382  11.397  14.650  12.397
69156W        W34383  13.631   6.186   3.678
69157W        W34384  34.488  40.017   2.336
69158W        W34385   1.385  13.526  11.654
69159W        W34386  41.950  24.018  14.219
69160W        W34387  12.725  29.409  14.854
69161W        W34388  27.901  14.659  12.368
69162W        W34389  41.947  11.266   0.912
69163W        W34390  19.522  19.064  10.456
69164W        W34391  21.652  43.517  14.795
69165W        W34392  15.753   7.815  14.988
69166W        W34393  29.932  39.438   1.718
69167W        W34394  33.041  12.632  11.229
69168W        W34395  38.116  11.904   4.549
69169W        W34396  43.700  42.738   1.689
69170W        W34397  17.318  32.744   2.376
69171W        W34398   0.764   1.311   3.224
69172W        W34399   8.749  27.770   1.266
69173W        W34400  19.058  20.967  12.044
69174W        W34401  25.455  22.654  10.959
69175W        W34402  24.252  41.688  12.810
69176W        W34403  28.519  33.917   1.741
69177W        W34404  17.282   8.773   4.579
69178W        W34405  14.584  23.109  14.120
69179W        W34406   0.701   2.241  11.957
69180W        W34407  39.033  38.025  13.558
69181W        W34408  14.768  32.703  10.399
69182W        W34409   4.456   1.958  14.430
69183W        W34410  43.348  34.828  12.556
69184W        W34411  10.834   0.872  10.608
69185W        W34412  43.769  42.030  14.635
69186W        W34413  17.648  39.916  13.117
69187W        W34414   6.701   7.379  14.817
69188W        W34415  15.604  40.216  11.205
69189W        W34416   1.621   9.374  12.536
69190W        W34417  24.777  35.892   4.511
69191W        W34418  32.550  27.226  14.778
69192W        W34419  43.899  24.953  10.772
69193W        W34420   8.841  44.299   5.020
69194W        W34421  43.415  41.816  13.976
69195W        W34422   1.198  15.867   4.114
69196W        W34423  28.057  33.855   2.703
69197W        W34424  32.101  27.689   0.321
69198W        W34425  30.525  35.028   2.301
69199W        W34426  40.590  43.951  13.810
69200W        W34427  14.806  31.698  12.602
69201W        W34428  38.610   4.191  14.888
69202W        W34429   6.361  32.601  13.431
69203W        W34430  26.670   6.912  11.623
69204W        W34431  39.346  13.108   1.961
69205W        W34432  21.794  16.115   4.228
69206W        W34433  12.678  21.331  13.756
69207W        W34434  31.608  35.194  13.990
69208W        W34435   1.486   4.177  12.948
69209W        W34436  23.235  26.919   2.447
69210W        W34437  38.987  21.704   0.824
69211W        W34438  15.293   7.458   2.209
69212W        W34439   9.245   2.364  11.135
69213W        W34440   1.302   2.859  14.443
69214W        W34441  24.459  28.065  13.973
69215W        W34442  19.245  22.236   5.089
69216W        W34443   1.776   7.157   0.538
69217W        W34444  15.588  26.142   1.744
69218W        W34445  40.339  44.074  11.567
69219W        W34446  42.998  28.416  14.476
69220W        W34447  38.309   7.511  12.729
69221W        W34448  16.049   4.324  12.088
69222W        W34449  24.405   5.249   4.026
69223W        W34450  41.900  10.572  12.177
69224W        W34451  18.636  28.131  14.844
69225W        W34452  35.813  26.618   3.231
69226W        W34453  22.200  34.730  14.714
69227W        W34454  32.170   9.003   0.961
69228W        W34455  29.807  36.696   5.382
69229W        W34456  31.836   8.264   4.305
69230W        W34457  38.154  27.536  11.479
69231W        W34458  21.119  20.750  11.708
69232W        W34459  44.745   3.798  14.033
69233W        W34460  33.880   0.950  14.163
69234W        W34461  37.540  17.371   0.566
69235W        W34462  25.867  38.382   3.709
69236W        W34463  11.225  28.937  10.958
69237W        W34464  17.487  27.073  13.600
69238W        W34465   9.734  15.794   3.067
69239W        W34466  38.620  43.133  12.928
69240W        W34467  13.143  24.678   3.135
69241W        W34468   1.455   9.267   2.198
69242W        W34469  21.787  20.068   5.065
69243W        W34470  32.824  21.530   4.141
69244W        W34471  15.030  36.298   0.125
69245W        W34472  36.178  34.578   1.117
69246W        W34473   9.636   8.251  13.576
69247W        W34474  35.419  13.548   4.614
69248W        W34475  36.378  15.108  11.688
69249W        W34476  12.304  22.112  12.119
69250W        W34477  23.469  34.377  12.906
69251W        W34478  26.557  11.264   2.283
69252W        W34479   8.651  14.060  14.746
69253W        W34480  12.896  19.195   1.599
69254W        W34481  33.837  35.074  12.573
69255W        W34482  42.473  36.105  14.530
69256W        W34483  31.912   8.694  14.307
69257W        W34484  29.744  17.837  13.006
69258W        W34485   5.475  42.471  14.940
69259W        W34486  35.438  31.020   1.184
69260W        W34487  42.231   5.716   0.380
69261W        W34488   9.123   6.220  11.263
69262W        W34489  23.867  26.081  11.364
69263W        W34490  33.034   0.562   4.142
69264W        W34491  20.195  38.353   2.855
69265W        W34492  31.649  19.682   1.715
69266W        W34493  25.794  37.896  10.532
69267W        W34494  33.558   4.261   5.041
69268W        W34495  36.801  39.892   0.386
69269W        W34496  19.237  35.160  14.814
69270W        W34497  26.501   5.776  13.065
69271W        W34498   4.157  13.683   4.917
69272W        W34499  39.467  19.267  11.212
69273W        W34500   6.600   7.197  12.993
69274W        W34501   9.155  42.539  13.516
69275W        W34502   8.818  34.021   4.041
69276W        W34503  29.420   7.141  10.285
69277W        W34504  41.044  19.611   4.414
69278W        W34505  37.898  15.721  12.040
69279W        W34506   2.785  42.771  14.815
69280W        W34507  12.242  10.928  12.070
69281W        W34508   1.735  11.994   3.407
69282W        W34509   3.695  16.594   2.732
69283W        W34510  22.140  14.555  11.731
69284W        W34511   2.238  32.784  13.040
69285W        W34512   3.216  37.051   3.679
69286W        W34513  37.459  26.617   0.701
69287W        W34514   4.349  13.039   0.798
69288W        W34515  12.070  41.848   4.738
69289W        W34516  20.787  26.520  11.859
69290W        W34517  17.277   7.380   3.702
69291W        W34518   5.708  21.463   3.354
69292W        W34519  31.396  40.409  14.622
69293W        W34520  17.262  16.998   4.621
69294W        W34521  25.236   4.914  14.467
69295W        W34522  16.580   4.834  10.606
69296W        W34523  39.330  20.126   3.601
69297W        W34524  36.254  29.840  14.757
69298W        W34525  25.040  18.518   4.702
69299W        W34526   9.647  43.490  11.116
69300W        W34527   5.170  33.824   1.035
69301W        W34528  37.610  11.838   4.554
69302W        W34529   2.787  40.405  11.483
69303W        W34530  30.063   2.750  13.586
69304W        W34531  18.225  42.289   4.267
69305W        W34532  28.644  26.292  12.011
69306W        W34533   2.218  38.758  13.959
69307W        W34534  21.174  23.419   4.315
69308W        W34535  38.236  44.260   2.896
69309W        W34536   3.135  17.047  12.140
69310W        W34537  38.842   3.731   9.876
69311W        W34538  33.044  14.116  10.212
69312W        W34539  33.379  20.752  11.578
69313W        W34540  43.041  19.050  14.376
69314W        W34541  38.331   1.810  14.647
69315W        W34542  33.176  13.705   9.920
69316W        W34543   3.733  40.463  14.254
69317W        W34544  34.166   5.142   1.299
69318W        W34545  10.153  28.544   2.287
69319W        W34546  11.799  40.868   0.976
69320W        W34547  12.783   1.828   0.211
69321W        W34548  17.698  19.771   2.689
69322W        W34549  18.640  22.974   4.060
69323W        W34550   0.237   8.622   3.722
69324W        W34551   2.588  10.268  10.357
69325W        W34552  42.597   3.491   2.474
69326W        W34553  35.611  25.464   4.536
69327W        W34554  38.560  10.373  11.086
69328W        W34555  27.956  35.095   3.252
69329W        W34556  33.160  19.324   0.549
69330W        W34557   7.259  42.385   4.128
69331W        W34558   6.285  36.415  13.450
69332W        W34559  13.503  12.787  11.134
69333W        W34560   0.500  44.980   3.330
69334W        W34561   6.263  39.832  13.898
69335W        W34562  42.535  37.483  12.914
69336W        W34563  14.882  24.804   1.949
69337W        W34564  35.057  20.873   2.323
69338W        W34565  34.543  37.858   0.837
69339W        W34566  33.208  44.354  13.388
69340W        W34567   1.451  42.840   0.657
69341W        W34568  39.322   1.068   1.594
69342W        W34569  25.057  25.857  11.846
69343W        W34570  20.537  15.748   2.830
69344W        W34571  42.475  27.470   2.111
69345W        W34572  28.386  31.635   3.980
69346W        W34573  12.274  23.800   4.857
69347W        W34574   9.078  12.444   5.027
69348W        W34575  38.555  44.485  14.340
69349W        W34576  10.164  30.789  13.434
69350W        W34577  39.522   7.915   1.792
69351W        W34578  18.575  22.064   0.313
69352W        W34579  42.785  18.858  11.797
69353W        W34580  13.154   4.675   3.316
69354W        W34581  43.846  42.845  10.024
69355W        W34582  35.378   4.111  12.829
69356W        W34583  37.387  34.242   1.917
69357W        W34584  35.866  25.634   2.862
69358W        W34585  40.373  17.331   2.406
69359W        W34586  27.713  16.335  12.617
69360W        W34587  20.131   4.845  11.737
69361W        W34588  21.579  26.381  11.499
69362W        W34589  20.674   1.094   4.544
69363W        W34590  32.710  35.849  11.028
69364W        W34591  22.191  24.060   4.121
69365W        W34592  29.672  34.307   3.431
69366W        W34593  43.899  26.929   0.975
69367W        W34594  36.980  15.064   2.967
69368W        W34595  29.487  28.523   2.205
69369W        W34596   1.959   9.394   0.343
69370W        W34597  26.047  41.328   3.619
69371W        W34598  11.736  28.050   2.170
69372W        W34599  13.582  26.174   1.975
69373W        W34600  23.754  29.959   3.171
69374W        W34601  10.246   4.289   1.197
69375W        W34602  37.941  33.935  11.160
69376W        W34603  12.522  37.922  14.008
69377W        W34604  15.665  17.415  14.385
69378W        W34605   4.897  13.823  13.517
69379W        W34606  41.828  29.020   1.741
69380W        W34607  15.890  24.470   0.870
69381W        W34608  35.973   7.845  10.499
69382W        W34609  18.068  26.092   0.331
69383W        W34610   8.762   3.495   3.172
69384W        W34611  16.694  24.587  13.015
69385W        W34612   3.274   8.436  14.002
69386W        W34613  18.609  20.466  11.558
69387W        W34614  26.668  13.086  14.871
69388W        W34615   6.915  34.609  13.895
69389W        W34616   9.295  32.460   3.320
69390W        W34617  22.596   8.550  12.202
69391W        W34618   2.854  15.101   2.720
69392W        W34619  26.394  22.075  12.581
69393W        W34620  31.309   7.575  14.741
69394W        W34621   9.883  34.109  12.901
69395W        W34622  18.691  35.441   2.973
69396W        W34623  21.682  10.206   2.386
69397W        W34624   6.830  18.044   1.807
69398W        W34625  40.327   6.852  12.430
69399W        W34626  15.693  32.071   2.195
69400W        W34627  16.226  40.916   3.292
69401W        W34628  37.709   5.159  11.146
69402W        W34629   8.849  26.529  11.788
69403W        W34630   5.582  42.784  11.398
69404W        W34631  35.016  26.701  10.115
69405W        W34632  19.782  31.146  12.871
69406W        W34633   7.792  11.638   0.907
69407W        W34634  14.066  14.995  14.313
69408W        W34635  41.117  19.489  11.529
69409W        W34636  18.163   4.401   0.183
69410W        W34637  27.712  28.886  10.660
69411W        W34638  41.737  32.330   1.689
69412W        W34639  17.454  28.782   1.059
69413W        W34640  44.977  28.959  14.220
69414W        W34641  15.973  36.589   2.123
69415W        W34642  42.239  43.194   2.017
69416W        W34643   9.663   2.384   4.757
69417W        W34644  21.787  32.423   0.426
69418W        W34645   1.851  25.841   4.916
69419W        W34646  13.485   1.559  11.969
69420W        W34647  38.782  23.101   0.025
69421W        W34648  40.408  28.171  13.096
69422W        W34649  27.330   4.462  14.343
69423W        W34650   2.694  31.727   9.889
69424W        W34651  24.926  35.519  12.578
69425W        W34652  20.227  35.649  11.757
69426W        W34653  10.747  34.514  10.678
69427W        W34654  27.123  38.847  14.382
69428W        W34655  24.106  39.515  13.532
69429W        W34656  14.799  28.033   1.707
69430W        W34657  40.008  36.579   0.030
69431W        W34658  33.163  42.956   3.174
69432W        W34659  42.758  17.903  14.880
69433W        W34660   2.697  31.160   4.141
69434W        W34661   2.157  37.508  12.620
69435W        W34662  11.756  25.708  11.045
69436W        W34663  29.798   5.551  13.512
69437W        W34664   4.175  21.962   2.356
69438W        W34665   7.821  41.554   0.326
69439W        W34666  30.148  27.029   0.080
69440W        W34667  10.728   8.181   0.226
69441W        W34668  44.362   6.247   0.421
69442W        W34669  18.170  24.506  13.442
69443W        W34670  41.127  28.167   2.727
69444W        W34671  20.043   6.224   4.896
69445W        W34672  30.997  39.856   4.566
69446W        W34673   7.180  15.330  14.186
69447W        W34674  19.476  44.376  11.942
69448W        W34675  22.372   0.177  12.049
69449W        W34676  39.078  26.406   0.412
69450W        W34677  25.677  34.036   3.271
69451W        W34678  17.758  40.626   2.848
69452W        W34679  13.321  13.849  11.586
69453W        W34680  36.483   0.474   2.614
69454W        W34681  44.370  22.738  12.467
69455W        W34682  30.260  41.474   1.185
69456W        W34683   6.457   1.417   2.285
69457W        W34684   4.525  36.491  12.108
69458W        W34685  32.730  44.268   4.091
69459W        W34686   8.786  36.521  14.933
69460W        W34687  19.559  11.166   2.896
69461W        W34688  43.872  31.395  11.663
69462W        W34689   3.623  24.711   4.306
69463W        W34690   2.930   8.875  13.965
69464W        W34691   9.772  34.045   4.082
69465W        W34692  35.789   9.643  11.131
69466W        W34693  39.015  32.536  13.019
69467W        W34694  18.143   5.067  14.419
69468W        W34695  44.042  41.894   3.329
69469W        W34696  26.303  14.643  14.392
69470W        W34697  10.662  19.781  11.696
69471W        W34698  19.072   6.831  13.015
69472W        W34699  30.009  42.107  12.080
69473W        W34700   3.452  26.041   4.922
69474W        W34701  36.307   9.373   4.572
69475W        W34702  19.279  36.776   3.695
69476W        W34703  14.508  30.750   4.916
69477W        W34704  42.820   7.563   4.630
69478W        W34705  15.098  18.313  11.230
69479W        W34706   3.410  16.097  14.039
69480W        W34707   5.765  33.724   3.882
69481W        W34708  43.796   3.742  14.483
69482W        W34709  14.380  14.192  13.842
69483W        W34710  22.686  30.158  13.381
69484W        W34711   8.410  42.412   1.974
69485W        W34712  35.900   5.934  11.491
69486W        W34713  16.688  40.054  13.083
69487W        W34714  37.791  38.779  12.751
69488W        W34715  19.433   0.558   2.323
69489W        W34716  23.545  41.294   2.629
69490W        W34717   0.371   2.180  14.917
69491W        W34718   6.943  44.281   2.009
69492W        W34719  24.444  37.441   4.177
69493W        W34720  35.528  44.471   2.652
69494W        W34721   5.236  23.170   2.481
69495W        W34722  34.627  33.149  12.999
69496W        W34723  27.910  41.126  13.921
69497W        W34724   0.857  13.135  12.794
69498W        W34725  38.072  40.614  13.918
69499W        W34726  37.055  35.301   0.988
69500W        W34727  24.218  16.769  11.185
69501W        W34728  30.674  39.729   4.184
69502W        W34729  37.948  11.793   2.218
69503W        W34730  17.768   0.950  11.986
69504W        W34731  24.071  39.351   1.281
69505W        W34732  36.993   9.503  13.558
69506W        W34733  41.048  15.304   0.383
69507W        W34734   7.376  36.022   1.775
69508W        W34735  44.060  31.488   2.613
69509W        W34736  17.881  42.733  14.791
69510W        W34737   2.739  13.750  12.432
69511W        W34738  35.799  24.060  10.570
69512W        W34739  29.478  39.321   1.487
69513W        W34740  15.668  43.056  11.625
69514W        W34741  42.916  35.142   0.983
69515W        W34742   8.746  18.215  11.797
69516W        W34743   9.701  37.425  11.539
69517W        W34744  19.851   7.100  10.571
69518W        W34745  40.791  30.356   2.727
69519W        W34746  37.351   1.418  13.839
69520W        W34747   0.799  15.531  10.977
69521W        W34748  34.457  29.346  12.108
69522W        W34749  44.138  26.174  13.139
69523W        W34750  41.702   2.905  13.009
69524W        W34751  31.226  39.627  11.299
69525W        W34752   8.278  22.401  11.375
69526W        W34753  40.086  44.370  13.403
69527W        W34754  21.204   0.899  10.750
69528W        W34755  24.146   7.002   2.368
69529W        W34756   8.642   3.337  11.413
69530W        W34757  34.160  16.530   2.235
69531W        W34758   1.621   5.421   0.398
69532W        W34759  41.815   8.501   2.174
69533W        W34760   0.002  23.093   0.724
69534W        W34761  34.818  25.543   0.500
69535W        W34762  28.023  30.619   1.791
69536W        W34763  32.661  25.252  13.378
69537W        W34764  41.492  23.488  14.373
69538W        W34765  23.021  11.036  11.359
69539W        W34766  22.356   8.733  11.246
69540W        W34767   9.448  43.343  11.592
69541W        W34768  35.656   3.019  11.496
69542W        W34769  35.044  16.507   2.185
69543W        W34770  20.757  35.564  14.516
69544W        W34771   1.003  11.887   1.840
69545W        W34772   1.943  23.085   3.914
69546W        W34773   8.290  35.950   4.854
69547W        W34774  17.147  38.263  13.763
69548W        W34775  13.204  34.971   2.188
69549W        W34776  34.505  28.753   4.101
69550W        W34777  32.018   3.891  10.743
69551W        W34778  10.981   4.479  13.163
69552W        W34779  33.515  42.372   1.126
69553W        W34780  34.834  13.572  12.071
69554W        W34781  13.283  16.629   3.814
69555W        W34782   2.422  24.411   2.295
69556W        W34783  32.316  21.414   4.229
69557W        W34784  21.472  21.637   1.361
69558W        W34785  11.177  29.164  14.525
69559W        W34786  39.701  33.918  12.302
69560W        W34787  26.764   1.187  11.374
69561W        W34788  36.563  40.330  13.346
69562W        W34789  25.979  37.507  14.414
69563W        W34790  23.563  32.166  11.444
69564W        W34791  41.221  28.216  11.577
69565W        W34792  42.043  27.956   0.324
69566W        W34793  10.389  11.931  11.146
69567W        W34794   0.094   5.805   4.137
69568W        W34795  16.663  16.553   1.376
69569W        W34796   3.034  38.052   2.463
69570W        W34797  33.145  32.349  10.552
69571W        W34798   5.082  39.581  14.876
69572W        W34799   8.983  30.920   0.320
69573W        W34800   5.859  28.543  10.649
69574W        W34801  43.434  36.806   3.753
69575W        W34802  39.811  22.737  12.663
69576W        W34803   6.236  24.695   3.694
69577W        W34804   9.192  13.502   1.936
69578W        W34805  43.500  36.839   1.516
69579W        W34806  24.726   5.662   1.397
69580W        W34807  12.389  26.980  11.962
69581W        W34808  34.509   7.199  12.478
69582W        W34809  34.574  25.342  11.716
69583W        W34810  43.213  35.509   2.378
69584W        W34811  36.880  17.496  12.540
69585W        W34812  35.604  44.607   2.132
69586W        W34813   8.352   3.169   0.497
69587W        W34814  34.449  26.063  10.458
69588W        W34815   5.930   5.896   0.584
69589W        W34816  44.143  14.160   0.201
69590W        W34817  16.462  30.454   2.763
69591W        W34818  42.949  26.473   0.791
69592W        W34819  39.481  38.373   4.200
69593W        W34820  28.109   4.063   3.160
69594W        W34821  30.403   3.353  11.687
69595W        W34822  11.035  11.505  13.844
69596W        W34823  23.360  14.833  11.524
69597W        W34824  18.545  44.532  11.077
69598W        W34825  13.686  21.050  12.939
69599W        W34826  14.420  31.870  11.588
69600W        W34827  29.449  11.477  12.558
69601W        W34828  17.039  27.966   4.654
69602W        W34829  12.913  20.282  12.878
69603W        W34830  42.167  27.922   4.643
69604W        W34831  31.714   2.168  12.614
69605W        W34832   5.794  23.827  13.451
69606W        W34833  18.220  19.493   3.198
69607W        W34834  41.470  42.904  14.045
69608W        W34835   1.479  28.427  14.432
69609W        W34836  22.711  39.876  10.794
69610W        W34837  10.151  41.299  12.570
69611W        W34838   0.259   4.773  14.549
69612W        W34839  44.201  17.074   0.050
69613W        W34840  32.378   7.652   4.348
69614W        W34841  12.091  18.721   3.255
69615W        W34842  38.366  13.939   1.373
69616W        W34843  44.906   4.996   2.838
69617W        W34844  17.576  10.730   0.740
69618W        W34845  20.055  35.837   3.298
69619W        W34846  36.495  33.278   4.742
69620W        W34847  30.319  10.966  10.146
69621W        W34848  22.161  39.136   3.579
69622W        W34849  30.352  37.903  13.013
69623W        W34850  12.287  25.242   0.881
69624W        W34851  35.550  24.807   2.256
69625W        W34852  33.208  13.198  10.041
69626W        W34853  24.098  43.866   9.762
69627W        W34854  35.018  36.533  11.012
69628W        W34855  35.891  15.183   1.181
69629W        W34856  44.133  27.563   3.616
69630W        W34857  12.381  32.614  14.018
69631W        W34858  18.025   2.138  14.844
69632W        W34859  19.609  14.094   3.676
69633W        W34860   7.737  24.222   1.456
69634W        W34861   8.638   3.301   1.693
69635W        W34862  43.833  31.911  11.623
69636W        W34863  28.109  27.222   3.137
69637W        W34864  44.922  15.072   0.768
69638W        W34865  15.794   1.902   3.314
69639W        W34866   3.304  30.000  14.298
69640W        W34867  31.509  14.407   1.042
69641W        W34868   0.671  44.962   4.438
69642W        W34869  15.191  25.672  14.785
69643W        W34870  11.794  41.718  13.206
69644W        W34871  12.415   1.874  11.193
69645W        W34872  36.187   1.969   2.239
69646W        W34873  22.071  26.028  13.364
69647W        W34874  27.957  44.058  13.895
69648W        W34875  39.677   3.823   1.342
69649W        W34876   9.695  23.959   3.056
69650W        W34877   3.456  28.234   4.025
69651W        W34878   7.023  13.386   3.471
69652W        W34879  38.477  40.049   0.306
69653W        W34880  29.695   8.292   4.313
69654W        W34881   8.398  31.646  11.456
69655W        W34882   6.440  30.189   1.409
69656W        W34883  31.869  34.477   3.814
69657W        W34884  25.929  30.544   1.272
69658W        W34885  18.014   1.213  11.148
69659W        W34886  36.402  25.401   2.842
69660W        W34887  41.388   9.028   2.722
69661W        W34888  42.657  35.914   4.197
69662W        W34889   2.846  30.348   5.525
69663W        W34890   5.001  30.841  12.041
69664W        W34891   2.363  14.992  13.868
69665W        W34892  34.563  35.918   2.356
69666W        W34893  25.430  10.603  13.164
69667W        W34894  17.781  19.024   0.519
69668W        W34895  37.373  42.780   2.743
69669W        W34896  19.585  28.175   0.881
69670W        W34897  34.682  40.814   0.063
69671W        W34898  23.006  15.346   2.368
69672W        W34899  20.031  44.957   4.370
69673W        W34900  23.457  15.370  13.721
69674W        W34901  18.177  33.067  14.925
69675W        W34902  23.333   5.827   0.899
69676W        W34903   0.888   2.399  11.072
69677W        W34904  43.315  32.020  10.718
69678W        W34905  12.277  20.131  14.354
69679W        W34906  13.775  39.809   0.040
69680W        W34907  21.110   2.037   4.510
69681W        W34908  16.117  11.575   4.925
69682W        W34909  23.253  25.709  10.618
69683W        W34910  32.210  20.148   0.343
69684W        W34911  37.423  12.720   0.479
69685W        W34912  18.148  27.925  14.946
69686W        W34913  15.535  39.641   2.262
69687W        W34914  39.119  22.008  11.891
69688W        W34915   4.366  40.495  13.034
69689W        W34916  30.155  11.407   4.589
69690W        W34917   1.960  35.149   4.412
69691W        W34918  18.005  19.452   4.430
69692W        W34919  37.472   1.402  11.595
69693W        W34920  39.720  27.906  11.182
69694W        W34921  14.086  22.225  12.734
69695W        W34922  12.074  20.604  13.132
69696W        W34923   1.578  28.121   1.850
69697W        W34924  28.475   2.021   0.766
69698W        W34925   3.431  13.993  11.581
69699W        W34926  41.061   3.725  12.562
69700W        W34927  16.179  30.868   4.767
69701W        W34928  16.888  28.356  14.889
69702W        W34929  30.418  25.587  12.952
69703W        W34930  20.164  35.183  11.554
69704W        W34931   2.947  24.370  10.962
69705W        W34932  39.092  24.847  13.643
69706W        W34933  17.508  18.513  13.399
69707W        W34934  20.178  29.960  10.913
69708W        W34935   4.286  23.727   0.488
69709W        W34936  24.161  12.685   0.707
69710W        W34937  13.158   7.013   3.877
69711W        W34938  32.546  28.785  14.995
69712W        W34939  26.677   8.318   0.927
69713W        W34940  20.164  33.117  11.557
69714W        W34941  31.005  44.796  13.175
69715W        W34942   9.823  29.109  10.576
69716W        W34943  24.539  12.784  12.535
69717W        W34944  32.848   9.245  14.962
69718W        W34945  14.775   1.412  13.543
69719W        W34946  23.645  44.142  11.701
69720W        W34947  11.668  16.727   2.659
69721W        W34948  22.907  15.119  14.269
69722W        W34949  30.988  42.533   3.726
69723W        W34950   6.157   4.149   3.726
69724W        W34951  19.543  33.865  14.978
69725W        W34952   5.788  17.056   2.038
69726W        W34953   3.237  24.167  10.579
69727W        W34954  25.726   3.657   2.403
69728W        W34955  21.114  13.618  14.146
69729W        W34956  14.306  43.415   3.123
69730W        W34957  38.012  38.048  11.216
69731W        W34958  43.341  35.259   0.709
69732W        W34959   3.485  40.725   5.008
69733W        W34960   3.372  29.186   1.486
69734W        W34961  41.309  38.474   3.547
69735W        W34962   0.849   5.392   3.316
69736W        W34963  31.938   4.658   0.440
69737W        W34964  36.030  42.099  13.878
69738W        W34965  29.481  18.631   1.254
69739W        W34966  41.309   0.790  11.491
69740W        W34967  40.803  10.898  10.915
69741W        W34968  10.114  15.859   1.839
69742W        W34969  35.636   3.127  13.497
69743W        W34970  19.586  29.131  14.428
69744W        W34971  25.961  22.672   2.370
69745W        W34972   6.912  19.096  10.644
69746W        W34973  22.646  21.838  14.048
69747W        W34974   7.762  16.060  12.503
69748W        W34975  41.070  39.334   2.493
69749W        W34976   3.326   5.246  12.555
69750W        W34977  33.990  22.303  11.177
69751W        W34978  44.556  40.808  12.596
69752W        W34979   2.310  33.050   5.096
69753W        W34980   5.296  15.086  10.303
69754W        W34981  31.984   8.459   3.196
69755W        W34982  32.274   0.904  14.979
69756W        W34983  42.436  20.782  12.129
69757W        W34984   1.828   0.250  14.514
69758W        W34985  12.212  20.994  11.703
69759W        W34986  26.998  19.210  14.969
69760W        W34987  28.482  30.507   4.098
69761W        W34988  41.529  44.275   1.372
69762W        W34989  13.364   3.842   1.769
69763W        W34990   8.150  29.701  12.152
69764W        W34991  21.287  43.217   4.227
69765W        W34992  25.466   9.577   1.703
69766W        W34993  11.438  39.349   4.360
69767W        W34994  13.261  21.717  12.927
69768W        W34995   4.210   0.917   3.302
69769W        W34996  15.639   4.224   1.746
69770W        W34997  14.583  19.435  11.203
69771W        W34998  39.461  12.270   4.682
69772W        W34999   8.185  36.494   3.579
69773W        W35000   0.464   4.869  13.012
69774W        W35001  36.984  28.433   0.942
69775W        W35002  23.069  41.272  13.317
69776W        W35003   9.871  10.645   4.616
69777W        W35004   2.542  31.926   1.449
69778W        W35005  16.379  28.459   4.436
69779W        W35006  39.332   9.141   2.269
69780W        W35007   1.399  20.951  11.958
69781W        W35008   0.143  31.516   4.501
69782W        W35009  21.538  17.852  14.446
69783W        W35010  20.174  12.665  13.549
69784W        W35011  12.840  39.960   0.427
69785W        W35012  24.091   9.830   2.126
69786W        W35013  16.031  22.278   3.258
69787W        W35014  12.640  21.586   4.609
69788W        W35015  40.640   7.739   4.921
69789W        W35016   5.711   7.929   2.252
69790W        W35017  36.071  38.145   2.558
69791W        W35018  14.225  24.474  11.164
69792W        W35019  35.805  38.917  12.559
69793W        W35020  38.476   8.394  12.496
69794W        W35021  43.759  11.113   4.200
69795W        W35022  18.724   9.654   0.162
69796W        W35023  10.239   9.626  10.727
69797W        W35024  18.161  40.899   2.287
69798W        W35025   8.011   1.467  14.566
69799W        W35026   8.933  37.988  14.925
69800W        W35027  39.528  36.934  13.777
69801W        W35028  26.688  11.057   0.742
69802W        W35029  10.802  18.231  13.319
69803W        W35030  34.951  13.702   4.855
69804W        W35031  43.318  32.437   0.854
69805W        W35032  41.097  30.068  10.962
69806W        W35033  28.450  17.297   1.238
69807W        W35034   8.903   0.024  14.923
69808W        W35035   3.253  14.033   1.343
69809W        W35036  16.319  14.354   1.153
69810W        W35037  30.265   3.336   3.503
69811W        W35038  22.154  42.691   0.215
69812W        W35039  40.904  25.223  13.478
69813W        W35040  32.023  43.357  14.406
69814W        W35041   5.338  13.593   2.227
69815W        W35042  11.287  27.275   2.312
69816W        W35043  31.662   3.680   2.327
69817W        W35044   5.471  41.409  10.358
69818W        W35045  21.584  44.037  13.978
69819W        W35046  16.129  30.467   3.657
69820W        W35047   2.846  32.097  14.225
69821W        W35048   3.502  26.930   2.632
69822W        W35049  36.681   7.777  14.953
69823W        W35050  40.715   0.269  12.000
69824W        W35051  20.275  33.882   0.272
69825W        W35052   8.941  37.841  11.910
69826W        W35053  18.977  25.404  14.800
69827W        W35054  14.600   7.824  11.581
69828W        W35055   4.369   9.332  10.725
69829W        W35056  36.407  29.581  14.305
69830W        W35057   1.198  39.932  10.569
69831W        W35058  26.758  37.186  13.138
69832W        W35059  23.286   4.250  13.942
69833W        W35060   0.356  25.542   4.917
69834W        W35061  41.850  31.674  11.999
69835W        W35062  35.404   7.097   2.809
69836W        W35063   6.239  42.964  11.955
69837W        W35064  40.616  26.217   3.149
69838W        W35065  42.436   0.028  12.078
69839W        W35066  23.089   2.911  13.840
69840W        W35067   8.518  11.848  11.015
69841W        W35068  19.744  29.163  12.705
69842W        W35069  29.960   0.960  10.379
69843W        W35070  13.452  29.683  14.344
69844W        W35071   1.905  32.924   2.707
69845W        W35072  23.652   8.433   3.100
69846W        W35073  44.306  22.242  12.641
69847W        W35074   8.510  43.329   1.002
69848W        W35075  29.501  16.323   4.092
69849W        W35076  20.294  16.798   2.690
69850W        W35077  41.310   1.679  11.733
69851W        W35078   0.771  14.720  12.008
69852W        W35079   5.338  34.011  12.141
69853W        W35080  30.320  28.687  14.332
69854W        W35081  36.896  37.867   2.245
69855W        W35082  31.677  12.292   1.217
69856W        W35083  26.827  14.771   0.829
69857W        W35084  21.660   7.790   2.150
69858W        W35085  42.204  30.925  13.003
69859W        W35086  25.128  40.373   1.958
69860W        W35087  37.869  44.024   2.630
69861W        W35088  11.951  24.471  10.539
69862W        W35089  41.427  35.317   2.602
69863W        W35090  39.570  36.791   2.417
69864W        W35091  36.462  16.245  14.417
69865W        W35092  30.544  38.316   2.031
69866W        W35093  28.118  31.375   4.391
69867W        W35094  37.121  35.803  12.955
69868W        W35095  20.608  43.301  11.451
69869W        W35096  34.700  10.440  11.230
69870W        W35097  16.773  44.934  11.507
69871W        W35098  31.957   9.428  11.869
69872W        W35099  39.903   4.979  13.515
69873W        W35100  31.230  39.785  13.476
69874W        W35101  29.672   7.298  12.556
69875W        W35102  27.894   2.213   1.820
69876W        W35103  29.035  15.998  12.508
69877W        W35104  19.853  44.319   3.838
69878W        W35105  29.211   9.833   1.574
69879W        W35106  11.952  27.992   5.346
69880W        W35107  14.076  20.116  12.460
69881W        W35108  37.913  41.451  13.543
69882W        W35109  21.145  25.200   3.592
69883W        W35110  29.597  10.094  11.669
69884W        W35111  29.408  39.345   3.902
69885W        W35112  38.463  28.477   4.685
69886W        W35113  42.447   8.649   0.228
69887W        W35114  15.804  26.012  11.921
69888W        W35115  26.535  17.648   2.783
69889W        W35116   4.408   2.328  10.666
69890W        W35117  11.095  42.966   0.388
69891W        W35118  39.893  25.344  14.466
69892W        W35119  44.456   6.658  11.059
69893W        W35120  16.856  36.345   1.843
69894W        W35121  28.640  38.293   2.833
69895W        W35122  12.543  23.747  10.740
69896W        W35123  42.278  30.004   4.643
69897W        W35124  27.850  40.032  11.957
69898W        W35125  41.039  30.528  13.615
69899W        W35126  13.215  34.149  12.838
69900W        W35127   0.751  30.641  10.706
69901W        W35128   7.353  39.525   2.687
69902W        W35129  29.027   5.553   0.558
69903W        W35130   5.503  25.614   3.326
69904W        W35131  27.548  37.275   1.883
69905W        W35132  19.246   4.420  13.078
69906W        W35133  21.050  14.161   3.310
69907W        W35134  20.174  42.933   2.503
69908W        W35135  26.744   8.389  11.535
69909W        W35136  24.925  42.606  11.507
69910W        W35137   7.451   3.452  13.538
69911W        W35138  44.010  18.360   2.640
69912W        W35139  12.903  19.757   0.371
69913W        W35140   5.480   4.444  13.740
69914W        W35141  34.508   3.929  13.876
69915W        W35142   8.622  22.145   0.437
69916W        W35143  13.127  25.398   0.352
69917W        W35144  21.289  24.497   3.231
69918W        W35145  23.639  21.630   3.148
69919W        W35146  18.357  34.217  10.883
69920W        W35147  40.595  39.432  12.609
69921W        W35148  23.954  33.972   2.681
69922W        W35149  42.955  23.411  10.935
69923W        W35150  26.431   1.062   1.388
69924W        W35151   1.387  44.551  10.326
69925W        W35152  12.467  30.239  12.433
69926W        W35153  30.543   4.282   0.952
69927W        W35154  14.327  28.950   2.645
69928W        W35155  41.473  18.215   2.796
69929W        W35156  12.399  35.959  11.913
69930W        W35157  32.642  30.969   0.395
69931W        W35158  32.940  41.233  12.845
69932W        W35159  42.814  11.844  11.385
69933W        W35160   3.329  40.528  14.585
69934W        W35161   7.283  44.972  11.947
69935W        W35162  43.752  44.812   1.415
69936W        W35163   3.265  42.859   2.266
69937W        W35164  44.898  24.469  13.076
69938W        W35165  30.387  44.735   1.263
69939W        W35166  11.167  28.680  12.936
69940W        W35167   1.382   0.702  13.651
69941W        W35168  31.395  44.407  13.147
69942W        W35169   7.718   2.876   1.190
69943W        W35170  33.959  27.714   4.677
69944W        W35171  32.090   7.126   2.695
69945W        W35172  21.126  14.473   0.747
69946W        W35173  40.808   9.840  13.837
69947W        W35174  21.996  20.511  11.809
69948W        W35175  42.341   9.841   1.644
69949W        W35176  30.474  25.644   5.009
69950W        W35177  10.895  30.182  14.253
69951W        W35178  13.782   6.487  11.391
69952W        W35179  32.939  42.338  13.238
69953W        W35180  19.597  42.561  11.535
69954W        W35181   3.519  28.454  13.783
69955W        W35182  16.739  18.755  13.022
69956W        W35183  10.257  23.730   2.267
69957W        W35184  18.115  24.130  12.109
69958W        W35185   6.234  42.042   0.378
69959W        W35186  19.249   3.807  10.750
69960W        W35187  39.404   2.264  11.060
69961W        W35188  25.615  41.453   1.364
69962W        W35189  17.035  19.793   3.811
69963W        W35190  27.543  35.625   4.768
69964W        W35191  32.642   2.391  12.949
69965W        W35192  19.042  25.377  12.592
69966W        W35193  20.310  11.916   0.962
69967W        W35194   4.387  25.059   2.864
69968W        W35195  31.434  21.124  10.130
69969W        W35196  32.018  10.080  10.681
69970W        W35197  40.935  40.034  14.883
69971W        W35198  44.427  40.492  10.301
69972W        W35199  20.351  14.209  14.446
69973W        W35200  15.424  12.245   2.696
69974W        W35201  12.288   3.241  14.294
69975W        W35202  30.867  42.825   4.481
69976W        W35203   0.708  12.783  11.139
69977W        W35204  23.404   5.077  14.789
69978W        W35205  17.037   2.455  14.987
69979W        W35206  21.723  15.315   1.727
69980W        W35207  30.511  41.342  13.944
69981W        W35208   8.434  41.521  14.981
69982W        W35209  11.421  11.515  14.998
69983W        W35210  21.206   4.933   2.515
69984W        W35211   5.698  43.719  10.957
69985W        W35212  29.689  32.417  13.946
69986W        W35213  27.193  35.325  13.916
69987W        W35214   3.168  43.448   1.472
69988W        W35215  32.219  39.845  12.329
69989W        W35216  12.659  37.777   2.334
69990W        W35217  27.527  40.057   1.246
69991W        W35218  43.056  27.881   4.110
69992W        W35219   7.974  42.192   1.837
69993W        W35220  21.088  12.202  11.333
69994W        W35221  41.872  22.200  11.701
69995W        W35222  37.182  10.729   1.612
69996W        W35223  27.308  25.638  10.982
69997W        W35224  34.126  22.036  12.679
69998W        W35225   8.397  36.001   1.874
69999W        W35226  15.608  39.428   0.839
70000W        W35227  26.519  42.615  12.415
70001W        W35228  43.961   0.245  14.625
70002W        W35229  26.020  12.451  13.108
70003W        W35230  19.982   7.753  14.960
70004W        W35231  44.498  10.490   2.708
70005W        W35232  35.505  10.887   4.789
70006W        W35233  37.581   5.664   2.344
70007W        W35234  43.711  30.190   0.256
70008W        W35235  17.162  35.278  10.168
70009W        W35236  44.959  12.988  14.847
70010W        W35237   6.391  29.373  12.881
70011W        W35238  28.777   6.287   1.242
70012W        W35239  15.272   1.459  12.018
70013W        W35240  22.287  19.487  12.980
70014W        W35241  23.772  19.508  13.058
70015W        W35242   3.138  21.694   0.323
70016W        W35243   7.141   0.273  13.378
70017W        W35244  30.964  29.163  14.409
70018W        W35245  43.227  34.444   1.750
70019W        W35246  29.570   2.845  11.403
70020W        W35247  39.316  25.459  11.274
70021W        W35248  35.381   3.123   4.593
70022W        W35249  44.495  37.030  14.392
70023W        W35250  20.570  12.359   0.815
70024W        W35251  22.738   2.970  12.041
70025W        W35252   0.283   0.942  13.027
70026W        W35253  27.043  35.473   1.319
70027W        W35254  44.856  24.094   2.112
70028W        W35255  21.582  14.341   3.606
70029W        W35256   7.726  37.623  12.143
70030W        W35257  28.397   9.242  13.361
70031W        W35258  29.150  38.911  11.013
70032W        W35259  24.045   9.125  14.436
70033W        W35260  39.286  23.176  14.973
70034W        W35261  40.079  34.635   2.872
70035W        W35262  40.719  29.186   1.420
70036W        W35263  30.603  34.987  13.062
70037W        W35264  28.187   4.731   0.350
70038W        W35265   4.704  44.473   5.033
70039W        W35266  44.192  32.210  14.552
70040W        W35267  24.646   9.639   0.820
70041W        W35268  27.962  44.464   3.719
70042W        W35269  12.898  44.767  10.394
70043W        W35270  24.711  16.206   1.878
70044W        W35271  15.085  11.123  14.566
70045W        W35272  40.053   2.220   2.513
70046W        W35273  19.344   6.588   1.881
70047W        W35274  33.120  28.914  11.174
70048W        W35275   1.986   1.916  11.598
70049W        W35276  18.134  13.522   0.044
70050W        W35277  30.536  17.710   0.883
70051W        W35278   9.413  33.586  12.438
70052W        W35279  37.394   4.163  13.583
70053W        W35280  33.117   9.932   0.239
70054W        W35281  33.234  35.022   3.648
70055W        W35282  12.677  14.741   0.993
70056W        W35283  37.618  42.500   4.507
70057W        W35284  16.415  13.363  11.003
70058W        W35285  27.461   6.810  14.806
70059W        W35286  28.137  19.426   2.611
70060W        W35287  36.275   5.510   4.119
70061W        W35288   3.324   9.971   3.254
70062W        W35289  42.446  44.918  14.916
70063W        W35290   4.731  10.761  11.209
70064W        W35291  30.602  44.816   4.469
70065W        W35292  40.874   5.987  12.562
70066W        W35293  41.891   0.245   1.548
70067W        W35294  29.667  41.022   2.932
70068W        W35295  38.893  12.298  13.765
70069W        W35296  37.790  40.294   3.303
70070W        W35297   4.963  40.067   3.200
70071W        W35298  36.093   0.794  13.393
70072W        W35299  42.250  26.987   1.867
70073W        W35300  41.764  34.073   0.136
70074W        W35301  42.773  26.575   4.231
70075W        W35302   3.759   7.673   4.133
70076W        W35303   3.490  24.414   2.458
70077W        W35304  31.799  39.739   2.709
70078W        W35305   6.271  29.344   0.439
70079W        W35306  42.944  34.984  10.471
70080W        W35307  11.942  37.341  14.949
70081W        W35308  35.592  27.126   3.390
70082W        W35309  22.009   8.940  14.949
70083W        W35310   4.636  18.438  11.502
70084W        W35311   3.194  34.536   3.137
70085W        W35312  44.540  42.985  14.461
70086W        W35313  44.421   7.443   4.770
70087W        W35314   0.426  34.731   1.472
70088W        W35315  30.921  25.706   5.264
70089W        W35316  40.444   2.220  11.914
70090W        W35317  43.026  23.949   0.721
70091W        W35318   4.875  23.573   0.451
70092W        W35319  12.661  11.494   2.883
70093W        W35320   5.215  16.830   2.754
70094W        W35321   9.126  44.969  13.469
70095W        W35322  20.306  17.589   1.967
70096W        W35323  21.064  39.502   2.310
70097W        W35324  34.328   2.466  11.139
70098W        W35325  28.965  14.724  11.059
70099W        W35326  18.736   9.544  12.506
70100W        W35327   6.469  30.546  12.415
70101W        W35328   9.918  40.943   0.672
70102W        W35329  14.423   5.937  11.596
70103W        W35330   8.912  35.443   4.271
70104W        W35331  43.699  29.946  14.736
70105W        W35332  30.453  17.240  10.613
70106W        W35333  44.880  34.441   1.657
70107W        W35334  19.476  41.566   1.368
70108W        W35335  35.120  41.366  12.655
70109W        W35336   7.136  15.544  12.588
70110W        W35337   7.602   0.035  13.525
70111W        W35338  31.433  41.414   0.733
70112W        W35339  38.486  28.425  13.583
70113W        W35340  42.820  35.959   2.312
70114W        W35341   5.704  33.986   1.902
70115W        W35342  42.192  18.263  10.996
70116W        W35343  13.255   2.655  13.535
70117W        W35344  18.325  22.375  14.966
70118W        W35345  17.087  17.804  11.879
70119W        W35346  33.973  36.923  12.975
70120W        W35347  30.634   9.796   1.361
70121W        W35348  33.214   8.706  14.121
70122W        W35349   1.056  34.826   4.306
70123W        W35350  38.266   6.655   1.737
70124W        W35351  28.977  34.162   1.782
70125W        W35352   5.844  26.266  11.284
70126W        W35353  26.057  35.523   2.285
70127W        W35354  24.655  12.693  10.742
70128W        W35355  19.278  14.216   0.237
70129W        W35356  28.324   6.278  11.743
70130W        W35357   4.992  17.150  13.322
70131W        W35358  17.007  26.131  11.044
70132W        W35359   2.513  37.984   2.295
70133W        W35360  22.174  23.423   3.295
70134W        W35361  12.075  14.084   3.158
70135W        W35362   8.343  28.457   0.976
70136W        W35363  32.324  35.355   3.283
70137W        W35364  42.213  16.344  14.488
70138W        W35365   4.370  14.599  14.039
70139W        W35366  41.069   6.200   2.313
70140W        W35367   2.046  28.488  13.491
70141W        W35368   2.675  34.058   0.816
70142W        W35369  16.342  36.942  13.518
70143W        W35370   6.023   1.568  11.353
70144W        W35371  17.587  17.257  11.002
70145W        W35372  17.349   2.817   1.730
70146W        W35373  27.042   2.975  12.887
70147W        W35374  16.155  40.250  10.891
70148W        W35375  15.368  33.813  14.554
70149W        W35376   5.157  27.936  14.138
70150W        W35377   3.722  16.805  11.399
70151W        W35378  30.545   0.190   1.108
70152W        W35379   0.831  44.831   3.702
70153W        W35380  17.398  23.160  14.301
70154W        W35381   8.242  14.305  14.991
70155W        W35382  12.802  12.547  12.460
70156W        W35383  15.721  39.573   3.985
70157W        W35384  22.486  21.723   1.108
70158W        W35385  25.305  26.184   0.287
70159W        W35386   0.208  22.202  10.287
70160W        W35387  36.791   5.865  10.124
70161W        W35388   5.288  35.250  10.724
70162W        W35389  19.845   4.395   3.578
70163W        W35390  40.884  13.105   3.202
70164W        W35391  38.568  18.812  11.224
70165W        W35392  15.033  23.674  13.462
70166W        W35393  13.953  10.701   0.274
70167W        W35394  24.019  22.769  12.837
70168W        W35395  19.970   5.739   4.073
70169W        W35396   1.232  14.146  13.838
70170W        W35397  26.630  11.193   1.266
70171W        W35398   9.478  42.473   4.479
70172W        W35399   1.739  10.087  13.104
70173W        W35400  25.009  27.633  10.733
70174W        W35401  39.322  13.575   1.683
70175W        W35402  33.298  32.105   0.213
70176W        W35403  20.262   1.326  14.190
70177W        W35404  26.928  11.118  13.704
70178W        W35405  22.236  20.766  14.815
70179W        W35406  18.119   6.793  12.560
70180W        W35407  37.944  28.142   1.272
70181W        W35408  18.588  11.629  13.493
70182W        W35409  23.721   6.725  11.379
70183W        W35410   6.224   2.778   2.150
70184W        W35411  34.175  14.279   0.441
70185W        W35412  23.837  23.965   5.157
70186W        W35413  41.015  14.632   2.184
70187W        W35414  35.563  38.443  10.729
70188W        W35415   6.514  40.834   4.792
70189W        W35416  32.175   5.711  12.484
70190W        W35417  20.440  43.215   2.158
70191W        W35418  16.907  19.610   3.336
70192W        W35419  17.322  37.350  14.074
70193W        W35420   3.312  20.664  12.226
70194W        W35421  32.834   3.756   0.698
70195W        W35422   1.857  43.317  12.950
70196W        W35423  20.753  11.933   0.101
70197W        W35424  34.399  21.557   1.408
70198W        W35425  25.152  42.852  12.920
70199W        W35426  40.349  42.888   1.157
70200W        W35427  36.494  32.844   2.301
70201W        W35428  24.317   1.818   5.355
70202W        W35429  10.395  31.750   1.768
70203W        W35430  21.391  19.389   4.685
70204W        W35431  27.727  44.858  13.403
70205W        W35432  44.243  31.279  11.991
70206W        W35433  12.853   0.425  11.523
70207W        W35434  11.154  30.370   0.273
70208W        W35435  41.354  17.131   0.824
70209W        W35436  33.587  28.697  11.105
70210W        W35437  27.242  27.650   4.705
70211W        W35438  18.248   5.802   3.974
70212W        W35439  26.450  27.128   2.168
70213W        W35440  26.765  28.176   4.295
70214W        W35441  27.876  22.567  12.379
70215W        W35442  36.495  27.997  11.233
70216W        W35443  38.531   1.989  13.367
70217W        W35444  36.089  19.242  13.469
70218W        W35445  31.863  14.311   1.760
70219W        W35446  17.328  13.144   4.041
70220W        W35447  37.535  38.291   0.400
70221W        W35448  27.191  12.626   4.584
70222W        W35449  40.757  18.377  13.979
70223W        W35450  14.222  39.710  11.061
70224W        W35451  23.234   4.976   4.541
70225W        W35452  17.882  27.014   2.702
70226W        W35453  15.210  10.997   0.898
70227W        W35454  23.633  31.051   4.225
70228W        W35455   6.809  35.956   4.115
70229W        W35456  12.375  39.554   1.667
70230W        W35457  19.002  38.817   1.368
70231W        W35458  32.951   7.214   3.428
70232W        W35459  39.895  39.797  11.916
70233W        W35460  26.606  24.038   4.390
70234W        W35461  18.814  39.253  10.617
70235W        W35462  44.020  20.513  12.970
70236W        W35463  13.119   1.181   2.226
70237W        W35464  31.920  25.114   4.251
70238W        W35465  17.388   5.293   2.520
70239W        W35466  40.917  33.012   0.012
70240W        W35467  12.087  24.675   1.769
70241W        W35468  43.856  20.374  14.799
70242W        W35469  39.333   2.390  12.022
70243W        W35470   3.308  32.054  11.138
70244W        W35471   9.223  33.778   3.316
70245W        W35472  30.792  36.836  13.880
70246W        W35473  17.505  15.618  13.003
70247W        W35474  44.903  20.945   0.434
70248W        W35475  33.203  42.225  10.816
70249W        W35476  22.023  21.661   0.831
70250W        W35477  13.458  30.994   4.068
70251W        W35478   0.793   4.683  12.613
70252W        W35479  32.098  17.521  11.382
70253W        W35480   6.019  40.560  12.392
70254W        W35481   1.493  43.046  14.090
70255W        W35482   6.330  41.500   3.325
70256W        W35483   1.762   2.215  14.818
70257W        W35484  26.648  17.880   3.560
70258W        W35485  18.583  39.498  11.962
70259W        W35486   3.266  34.187  14.984
70260W        W35487  12.727  25.383   0.013
70261W        W35488  31.704  25.496   3.782
70262W        W35489   7.239  36.898  11.917
70263W        W35490  26.655  26.618   2.186
70264W        W35491   8.697  21.745   4.876
70265W        W35492   3.742  17.514  11.683
70266W        W35493  34.955  21.271  13.559
70267W        W35494  11.440  28.797  14.854
70268W        W35495   7.723  27.734  11.097
70269W        W35496   3.535  28.438  11.110
70270W        W35497  10.259   8.380  14.695
70271W        W35498   0.935  18.886  14.863
70272W        W35499   2.179  28.523   0.858
70273W        W35500  30.806  44.511   1.643
70274W        W35501   9.635  42.789  12.748
70275W        W35502  36.014  44.545  14.375
70276W        W35503  11.146  23.024  13.011
70277W        W35504  18.610  14.095  13.389
70278W        W35505   2.652  10.112   4.121
70279W        W35506  34.915  25.137   0.209
70280W        W35507  30.774  30.502  14.831
70281W        W35508  33.074  18.152  12.986
70282W        W35509  27.493  40.427  13.855
70283W        W35510  24.575  32.765   2.660
70284W        W35511   1.211  15.130   1.824
70285W        W35512  24.515  18.489   3.860
70286W        W35513  30.859  15.807   0.439
70287W        W35514  28.173  30.586  12.434
70288W        W35515  30.983  26.595   0.747
70289W        W35516  18.251  26.421   9.978
70290W        W35517  37.992  25.598  11.627
70291W        W35518  32.534  15.688  11.712
70292W        W35519  28.979   1.748  10.704
70293W        W35520  43.374  12.704  11.088
70294W        W35521  35.051   7.768  10.606
70295W        W35522  39.321  44.985  11.264
70296W        W35523  43.593  40.773  14.874
70297W        W35524  11.272  21.035  14.062
70298W        W35525  10.615  17.158  12.434
70299W        W35526  35.799   5.416  11.566
70300W        W35527   8.373  43.917  11.061
70301W        W35528   5.647  13.366  13.241
70302W        W35529  41.774   8.878  11.324
70303W        W35530  35.171  36.712   3.898
70304W        W35531   6.530  21.068   0.792
70305W        W35532  17.237  31.395   2.311
70306W        W35533  33.521  26.966   3.122
70307W        W35534  17.692  38.733   1.854
70308W        W35535   6.731  31.674  12.360
70309W        W35536  31.718  28.192  14.979
70310W        W35537  44.249  10.221   3.092
70311W        W35538   6.622  25.764  11.237
70312W        W35539   4.928   5.637   2.670
70313W        W35540  31.896   5.733  13.387
70314W        W35541  18.623   5.873  14.796
70315W        W35542  11.287  16.275  11.383
70316W        W35543   6.262  35.655   2.318
70317W        W35544  18.224  13.798  12.046
70318W        W35545  11.416  12.234  12.598
70319W        W35546  26.391  36.733   4.622
70320W        W35547  33.923  13.389  12.865
70321W        W35548  15.165   2.578   4.157
70322W        W35549  28.528   9.358  14.134
70323W        W35550  19.026  11.197   2.934
70324W        W35551  27.256  40.808   1.633
70325W        W35552  23.705  27.607   2.826
70326W        W35553  29.538  23.227   0.696
70327W        W35554  34.101  34.399  10.925
70328W        W35555   2.418  27.138   0.904
70329W        W35556  43.806  18.904  12.511
70330W        W35557  11.149  28.990  13.994
70331W        W35558  42.710  12.943  12.153
70332W        W35559   5.083  19.036  13.028
70333W        W35560  12.730  16.766   2.408
70334W        W35561   0.833  16.123  12.086
70335W        W35562  15.606  31.726  11.555
70336W        W35563   9.708   6.763   2.597
70337W        W35564  38.107  33.457   1.285
70338W        W35565  20.940   9.746  10.626
70339W        W35566  34.060  24.732  14.723
70340W        W35567  20.086  21.260   2.183
70341W        W35568  10.347   2.730   1.918
70342W        W35569  36.563  31.416   2.824
70343W        W35570   2.325  16.759  11.637
70344W        W35571  40.784  27.196  12.364
70345W        W35572  17.510  43.563  14.972
70346W        W35573  44.944  25.523   3.727
70347W        W35574  31.741  21.229  14.906
70348W        W35575  33.871  13.836   0.345
70349W        W35576   8.444  43.782  13.274
70350W        W35577  33.325  34.852  12.457
70351W        W35578  25.626   5.119   1.074
70352W        W35579  37.900  29.201  12.417
70353W        W35580  21.374  10.343   1.378
70354W        W35581  13.532  14.438   0.297
70355W        W35582  16.382  34.027  12.112
70356W        W35583   3.523  10.468  11.656
70357W        W35584  27.815   9.221  14.783
70358W        W35585  40.391   0.660   4.905
70359W        W35586  23.288  25.520  11.109
70360W        W35587  31.674  14.308  13.506
70361W        W35588  26.345  11.188   4.154
70362W        W35589  18.197  36.366  11.427
70363W        W35590  40.437  19.014   0.458
70364W        W35591  16.226  31.483   3.574
70365W        W35592  10.409  23.503  14.812
70366W        W35593   8.158  19.120  14.412
70367W        W35594  25.462  31.056  11.353
70368W        W35595  23.063   5.701  12.975
70369W        W35596  22.415   7.789  11.357
70370W        W35597  17.952   1.334   2.840
70371W        W35598  22.356   3.181   4.142
70372W        W35599  27.645  38.068  14.441
70373W        W35600   0.094  31.089   0.036
70374W        W35601  35.343  31.200  14.067
70375W        W35602  16.139  16.001   3.714
70376W        W35603  23.491  44.922   1.855
70377W        W35604  41.501   7.115  12.549
70378W        W35605   5.846  31.481  10.638
70379W        W35606  10.802  19.791   0.454
70380W        W35607  17.283  27.044  11.141
70381W        W35608   0.906  25.013  14.565
70382W        W35609   6.483  14.062  11.202
70383W        W35610  29.702  10.521   3.524
70384W        W35611  12.141  25.243  12.117
70385W        W35612  43.459  30.047   4.767
70386W        W35613  24.613  10.652  12.987
70387W        W35614  34.502   0.785   0.766
70388W        W35615  21.641  23.215   3.146
70389W        W35616   1.302  22.028   4.447
70390W        W35617  43.890   2.440  11.082
70391W        W35618  39.223   4.962   2.101
70392W        W35619   0.902  30.659   3.171
70393W        W35620  44.587  28.109   5.126
70394W        W35621  40.277  34.386  14.236
70395W        W35622  15.574  37.103   1.810
70396W        W35623  15.732   4.669   3.943
70397W        W35624   0.240  18.589   1.833
70398W        W35625  25.994  18.505   0.347
70399W        W35626  43.543   1.051  10.024
70400W        W35627  16.350  25.497   1.983
70401W        W35628   0.868  13.872   4.520
70402W        W35629  12.113  13.661   1.934
70403W        W35630  15.591   6.835  13.212
70404W        W35631  19.189   5.173  11.575
70405W        W35632  16.615  16.611  11.527
70406W        W35633  13.204  36.492   0.427
70407W        W35634  28.059   9.060  10.479
70408W        W35635  28.870   1.627   2.644
70409W        W35636  10.110   5.516   0.244
70410W        W35637   0.038  34.925  14.985
70411W        W35638  35.380  25.247  13.880
70412W        W35639  42.018   0.823  11.182
70413W        W35640  18.270  22.166   4.242
70414ION    NA+35641  41.081   5.167  12.987
70415ION    NA+35642  10.950   4.407   1.650
70416ION    NA+35643  44.880   0.493   1.498
70417ION    NA+35644   2.367   3.971   3.262
70418ION    NA+35645  37.503  18.842   5.270
70419ION    NA+35646  24.710  25.313   1.200
70420ION    NA+35647  41.759  15.087   2.531
70421ION    NA+35648  11.286  20.205  13.417
70422ION    NA+35649   1.411  37.081   1.883
70423ION    NA+35650  29.463  36.148   0.462
70424ION    NA+35651  22.592   8.464   0.302
70425ION    NA+35652   0.214  10.653  10.739
70426ION    NA+35653  24.682  37.604   3.749
70427ION    NA+35654   8.146  21.876  11.450
70428ION    NA+35655   5.436   1.412  14.073
70429ION    NA+35656  37.286  41.572  14.854
70430ION    NA+35657  21.497  35.993   2.338
70431ION    NA+35658  12.000  29.196   4.834
70432ION    NA+35659  13.302  27.960   4.095
70433ION    NA+35660  22.729  26.806  12.668
70434ION    NA+35661  38.490  38.324   0.826
70435ION    NA+35662  44.601  18.416  10.987
70436ION    NA+35663  43.938  31.232  14.348
70437ION    NA+35664   4.293  35.467  12.472
70438ION    NA+35665   2.155  23.520   2.285
70439ION    NA+35666  36.016   5.821   2.739
70440ION    NA+35667  17.252   2.182  10.763
70441ION    NA+35668  21.342  22.009  14.631
70442ION    NA+35669   7.841  34.245  12.086
70443ION    NA+35670   9.745  17.265   2.076
70444ION    NA+35671  23.907  24.518  10.416
70445ION    NA+35672  43.614  15.628  14.401
70446ION    NA+35673  28.693   2.407  13.022
70447ION    NA+35674  10.575  17.661   3.836
70448ION    NA+35675  20.270  18.974   1.041
70449ION    NA+35676  15.954   7.153   2.850
70450ION    NA+35677  31.169  37.896   3.083
70451ION    NA+35678  33.233  11.685  14.446
70452ION    NA+35679  43.483  41.281  14.900
70453ION    NA+35680  31.550  35.816   2.113
70454ION    NA+35681  16.534  40.393  14.391
70455ION    NA+35682   6.732  28.337   3.865
70456ION    NA+35683  12.881  32.867  12.092
70457ION    NA+35684  17.000  26.751   2.387
70458ION    NA+35685   6.845   3.017  11.092
70459ION    NA+35686  24.585  24.647   4.243
70460ION    NA+35687  44.856  28.246   2.250
70461ION    NA+35688  41.703  25.910  13.450
70462ION    NA+35689  18.750  37.207  13.963
70463ION    NA+35690   8.239  35.126  13.167
70464ION    NA+35691  36.250  37.097  14.306
70465ION    NA+35692   0.759  25.132  13.492
70466ION    NA+35693  14.035   8.645   5.528
70467ION    NA+35694   5.434  29.592   0.516
70468ION    NA+35695  33.416  26.432   1.389
70469ION    NA+35696  22.023  40.667   4.485
70470ION    NA+35697   0.916  28.554   4.490
70471ION    NA+35698  20.059  19.327   0.130
70472ION    NA+35699  35.935  30.559  14.755
70473ION    NA+35700  19.048  11.894   1.630
70474ION    NA+35701  14.323  14.473   2.395
70475ION    NA+35702  25.841  11.286   4.237
70476ION    NA+35703   4.408  11.107   0.857
70477ION    NA+35704  31.257   9.838  13.126
70478ION    NA+35705  43.612  25.464  11.635
70479ION    NA+35706   2.643  27.960   9.749
70480ION    NA+35707  44.050  34.099   2.059
70481ION    NA+35708  19.074  31.540  12.839
70482ION    NA+35709  24.573  28.938   3.105
70483ION    NA+35710  28.340  30.637   1.307
70484ION    NA+35711  14.836   8.737   2.647
70485ION    NA+35712   2.334  21.822  12.070
70486ION    NA+35713  20.537   0.412  13.804
70487ION    NA+35714  32.056  21.720   0.789
70488ION    NA+35715  41.488  19.269  14.834
70489ION    NA+35716  10.647  39.084   3.175
70490ION    NA+35717  25.213  31.557  11.374
70491ION    NA+35718  39.272   4.183   5.428
70492ION    NA+35719  37.162  28.515   1.436
70493ION    NA+35720  29.869   5.017   1.646
70494ION    NA+35721  30.560  11.438  12.539
70495ION    NA+35722  18.670  17.287  14.502
70496ION    NA+35723  44.515  40.578   1.389
70497ION    NA+35724  32.054  20.249   3.261
70498ION    NA+35725  28.205   9.062   0.067
70499ION    NA+35726   7.306  28.967  13.328
70500ION    NA+35727  25.239  14.894   0.667
70501ION    NA+35728  25.248  40.653   0.246
70502ION    NA+35729  11.875  36.647   1.754
70503ION    NA+35730  23.520  15.595   2.510
70504ION    NA+35731  21.196  32.667  13.438
70505ION    NA+35732  14.585   6.852  11.444
70506ION    NA+35733  38.667  22.026   3.393
70507ION    NA+35734  13.693   5.215   4.980
70508ION    NA+35735  15.093  27.806   2.114
70509ION    NA+35736  27.717  36.876  13.015
70510ION    NA+35737   8.178  44.064   0.827
70511ION    NA+35738  11.441   6.760   0.549
70512ION    NA+35739  11.338   2.213  11.680
70513ION    NA+35740  37.049  31.411  14.919
70514ION    NA+35741  20.469   6.442   9.829
70515ION    NA+35742  32.614  26.951   0.399
70516ION    NA+35743  17.858  11.795   3.605
70517ION    NA+35744   3.629   3.792   3.717
70518ION    NA+35745  14.384  26.940  10.812
70519ION    NA+35746   1.820  31.845   3.224
70520ION    NA+35747   2.947   4.602  12.019
70521ION    NA+35748   7.257   1.211   3.579
70522ION    NA+35749  42.796  25.316  12.447
70523ION    NA+35750  41.081  33.548  13.019
70524ION    NA+35751  36.863  13.565   3.804
70525ION    NA+35752  21.120  30.656   0.856
70526ION    NA+35753  18.654  10.803  12.907
70527ION    NA+35754  27.985  14.401   1.233
70528ION    NA+35755  33.379   5.324   1.777
70529ION    NA+35756  14.423  35.568  11.725
70530ION    NA+35757  31.561  27.740   0.905
70531ION    NA+35758  39.279  12.702   2.793
70532ION    NA+35759  27.809  13.314   4.217
70533ION    NA+35760   7.862  42.839  14.847
70534ION    NA+35761   1.511  31.766  12.075
70535ION    NA+35762  31.862  19.798  11.748
70536ION    NA+35763  19.254  18.085   4.432
70537ION    NA+35764  36.689  15.843   4.521
70538ION    NA+35765  14.143   3.602   9.901
70539ION    NA+35766   6.732  29.538   2.136
70540ION    NA+35767  10.882  12.971  11.686
70541ION    NA+35768  22.815  29.007  10.941
70542ION    NA+35769   9.827  41.130   3.639
70543ION    NA+35770  39.463  37.853   4.179
70544ION    NA+35771  21.284   7.493   2.355
70545ION    NA+35772   1.660  21.623   4.491
70546ION    NA+35773  37.825  33.288   1.805
70547ION    NA+35774  18.318   0.205  12.936
70548ION    NA+35775  35.060   0.561   0.868
70549ION    NA+35776  20.754  26.452   4.510
70550ION    NA+35777   6.405  10.341  10.746
70551ION    NA+35778  24.604  15.849  14.617
70552ION    NA+35779  44.394  16.811  14.455
70553ION    NA+35780  37.143  43.926   3.127
70554ION    NA+35781  41.776  32.538   2.393
70555ION    NA+35782  11.874  22.628  11.436
70556ION    NA+35783  14.166   4.510  14.377
70557ION    NA+35784  28.528  28.032   1.694
70558ION    NA+35785  44.913   3.652  11.093
70559ION    NA+35786  11.042   1.248   3.228
70560ION    NA+35787  16.913  44.581  11.118
70561ION    NA+35788  36.914   4.437   3.398
70562ION    NA+35789   7.528   6.547  14.368
70563ION    NA+35790  28.197   5.269  12.057
70564ION    NA+35791  29.909  43.607   4.020
70565ION    NA+35792  17.091  33.607  12.936
70566ION    NA+35793  23.160   5.331  11.034
70567ION    NA+35794  23.939   2.280  14.830
70568ION    NA+35795  40.325  11.817  11.595
70569ION    NA+35796  11.007  21.909   1.826
70570ION    NA+35797   2.928  27.053  13.562
70571ION    NA+35798   8.887   4.731   4.852
70572ION    NA+35799   3.492   2.180   4.327
70573ION    NA+35800  21.042  35.934   3.226
70574ION    NA+35801  15.723   8.656   3.357
70575ION    NA+35802  25.624   8.538   0.834
70576ION    NA+35803  42.656   9.516  11.621
70577ION    NA+35804  29.328  34.052   2.124
70578ION    NA+35805   8.687  31.620   4.435
70579ION    NA+35806  15.592  18.678  10.854
70580ION    NA+35807   7.342   6.423   0.746
70581ION    NA+35808  32.374  21.335   2.549
70582ION    NA+35809   6.427   1.769   3.555
70583ION    NA+35810   0.717  42.628   3.504
70584ION    NA+35811  23.867  22.430  13.943
70585ION    NA+35812  25.107  13.501   1.694
70586ION    NA+35813   2.488  21.285   4.939
70587ION    NA+35814  15.098  11.396  12.102
70588ION    NA+35815  21.558  15.087  14.561
70589ION    NA+35816   5.586  27.162  13.843
70590ION    NA+35817   6.361   6.227  13.056
70591ION    NA+35818  41.116  16.239  10.902
70592ION    NA+35819   5.125   1.229   4.017
70593ION    NA+35820  37.289  10.781  11.554
70594ION    NA+35821  41.628   9.905  10.604
70595ION    NA+35822  43.191  18.035  11.971
70596ION    NA+35823  36.033   7.602   0.708
70597ION    NA+35824  18.633  37.643  13.027
70598ION    NA+35825  34.872  30.532  14.782
70599ION    NA+35826  40.878  36.510  14.609
70600ION    NA+35827  36.750  27.470  14.284
70601ION    NA+35828  15.978  12.656  11.301
70602ION    NA+35829  20.651  33.407   2.398
70603ION    NA+35830  29.180  24.742  13.019
70604ION    NA+35831   8.540  10.191   3.072
70605ION    NA+35832   8.246  19.855  11.967
70606ION    NA+35833  21.165  24.343  12.009
70607ION    NA+35834  17.620   7.389  11.228
70608ION    NA+35835  22.187  10.295   2.801
70609ION    NA+35836   1.906  28.538   5.264
70610ION    NA+35837  25.133   8.357   3.399
70611ION    NA+35838  41.320  10.564   0.396
70612ION    NA+35839  42.128  26.731   1.425
70613ION    NA+35840  24.149   7.435   1.307
70614ION    NA+35841  26.523   3.241   1.803
70615ION    NA+35842  28.898  35.797   2.746
70616ION    NA+35843  38.834  26.047  11.902
70617ION    NA+35844  41.576  36.456  10.936
70618ION    NA+35845  27.401  32.587   0.045
70619ION    NA+35846  40.249  16.483  10.983
70620ION    NA+35847  39.457  38.313   2.779
70621ION    NA+35848   9.898  31.332  14.027
70622ION    NA+35849   7.315  12.600  10.396
70623ION    NA+35850  40.204  41.544  11.623
70624ION    NA+35851  18.846  31.330   0.374
70625ION    NA+35852   5.447   6.560  14.647
70626ION    NA+35853   6.256   8.193   0.622
70627ION    NA+35854  37.755  35.740   0.548
70628ION    NA+35855  21.461  29.448  14.265
70629ION    NA+35856  43.985   2.388   4.154
70630ION    NA+35857  36.415   9.225   0.397
70631ION    NA+35858  38.689  23.259   0.492
70632ION    NA+35859  24.552  14.060   1.021
70633ION    NA+35860  37.052   9.553  12.344
70634ION    NA+35861  14.961  20.963  13.125
70635ION    NA+35862  29.230   9.163  14.919
70636ION    NA+35863  26.078  13.641   3.102
70637ION    NA+35864  38.486  32.159   3.223
70638ION    NA+35865  10.235  20.061  11.749
70639ION    NA+35866  13.395  41.862   1.918
70640ION    NA+35867  22.263  15.205   1.374
70641ION    NA+35868  26.522   3.027  10.825
70642ION    NA+35869  19.030  33.858   1.590
70643ION    NA+35870  12.228   0.479   3.275
70644ION    NA+35871  11.972  23.110  10.332
70645ION    NA+35872  41.937  22.013   2.026
70646ION    NA+35873  10.750  31.746   3.463
70647ION    NA+35874  31.556  10.776   5.366
70648ION    NA+35875  19.914  21.498  13.299
70649ION    NA+35876   5.301  19.293   4.322
70650ION    NA+35877  10.525  12.295   1.742
70651ION    NA+35878  21.846  32.910  12.718
70652ION    NA+35879   2.768  21.740   3.632
70653ION    NA+35880   8.929  12.911   1.833
70654ION    NA+35881  19.626  43.348   3.651
70655ION    NA+35882  24.535   4.751   0.468
70656ION    NA+35883  19.829  20.225   3.178
70657ION    NA+35884   4.048   4.364  13.621
70658ION    NA+35885  39.810  14.947  14.818
70659ION    NA+35886  23.406   2.706   4.223
70660ION    NA+35887  31.740  35.747   9.918
70661ION    NA+35888  37.902  19.961   1.060
70662ION    NA+35889  42.593   9.084   3.304
70663ION    NA+35890  36.882  37.764   0.232
70664ION    NA+35891  23.029  23.194  13.374
70665ION    NA+35892  35.329   4.927  10.918
70666ION    NA+35893  12.647   9.876   2.788
70667ION    NA+35894  14.334  28.393  12.957
70668ION    NA+35895  32.856  18.748   3.263
70669ION    NA+35896  14.991  33.013  12.845
70670ION    NA+35897  44.477  36.845  11.567
70671ION    NA+35898  21.905  33.222   0.494
70672ION    NA+35899  25.273   1.938  10.824
70673ION    NA+35900  19.726  15.506   1.448
70674ION    NA+35901  12.009  33.053   1.281
70675ION    NA+35902  36.967   3.736  10.815
70676ION    NA+35903  16.690  18.055   1.999
70677ION    NA+35904   9.399  41.274  14.929
70678ION    NA+35905  28.305  40.051   4.224
70679ION    NA+35906  37.682  37.258  10.761
70680ION    NA+35907  31.710   0.952  12.141
70681ION    NA+35908  42.469  44.956  13.356
70682ION    NA+35909  32.060  15.216   0.178
70683ION    NA+35910  30.103  28.822   1.241
70684ION    NA+35911  33.420  17.520   2.337
70685ION    NA+35912   4.202  39.544  11.947
70686ION    NA+35913  38.480  19.473   2.413
70687ION    NA+35914   1.777   3.518   0.780
70688ION    NA+35915  30.767  41.723  13.256
70689ION    NA+35916   9.797  38.279  14.045
70690ION    NA+35917   4.225  40.362  14.453
70691ION    NA+35918  43.450  14.987  10.712
70692ION    NA+35919  17.207  16.744  14.032
70693ION    NA+35920  13.826   6.412  11.925
70694ION    NA+35921  18.190  31.241   1.868
70695ION    NA+35922  17.555  13.573  11.482
70696ION    NA+35923  29.803   2.195  12.729
70697ION    NA+35924  29.045   5.892  10.380
70698ION    NA+35925  38.546  35.041   2.005
70699ION    NA+35926  40.315  16.729   0.195
70700ION    NA+35927   6.810  39.615  14.493
70701ION    NA+35928  10.717  13.310  12.992
70702ION    NA+35929  16.471  20.333   0.327
70703ION    NA+35930  15.852   4.516  10.585
70704ION    NA+35931  33.999   8.814  12.405
70705ION    NA+35932  31.000  32.624   4.757
70706ION    NA+35933   4.796   8.672  13.587
70707ION    NA+35934  24.160  21.969   0.510
70708ION    NA+35935   4.918  12.977  13.249
70709ION    NA+35936  34.711  26.663  13.113
70710ION    NA+35937   3.931  17.812   2.959
70711ION    NA+35938  23.659  15.264  10.777
70712ION    NA+35939  36.302  30.802  12.042
70713ION    NA+35940  26.227   1.219   1.839
70714ION    NA+35941  11.128  21.859   3.283
70715ION    NA+35942  39.787  21.005  13.852
70716ION    NA+35943  26.678   9.478   0.262
70717ION    NA+35944  26.867  32.971   1.784
70718ION    NA+35945  29.782  34.283  13.720
70719ION    NA+35946   1.014  30.893  11.929
70720ION    NA+35947   4.313  27.623   4.584
70721ION    NA+35948  17.026  11.119  12.506
70722ION    NA+35949  33.429  34.179  12.873
70723ION    NA+35950  23.829  27.628   0.757
70724ION    NA+35951  12.558  22.271  13.548
70725ION    NA+35952  11.853  15.878  12.925
70726ION    NA+35953  13.768  38.362   1.552
70727ION    NA+35954  37.594  24.164   2.670
70728ION    NA+35955   7.962   1.802  10.583
70729ION    NA+35956  11.580  43.816   0.224
70730ION    NA+35957   6.044  23.263  10.768
70731ION    NA+35958   8.207  29.806  12.866
70732ION    NA+35959  16.187   9.279   4.127
70733ION    NA+35960   3.461  35.580   3.729
70734ION    NA+35961  13.318  39.867   2.746
70735ION    NA+35962  33.322  43.777   0.913
70736ION    NA+35963  16.662  28.189  11.643
70737ION    NA+35964  18.272   2.315  14.406
70738ION    NA+35965  39.256  31.674  13.693
70739ION    NA+35966  40.889  35.592  11.588
70740ION    NA+35967  17.899   8.250  12.596
70741ION    NA+35968  13.374  33.155  10.661
70742ION    NA+35969  10.577   7.412   2.843
70743ION    NA+35970   2.428  28.988   1.022
70744ION    NA+35971  40.144  19.085  13.327
70745ION    NA+35972  40.745  17.081   3.699
70746ION    NA+35973  36.981  39.066  14.331
70747ION    NA+35974   8.964  14.727   0.328
70748ION    NA+35975  26.203   6.135  12.719
70749ION    NA+35976  17.866  24.436   4.257
70750ION    NA+35977   9.008   3.782  10.834
70751ION    NA+35978  18.068   0.518   1.263
70752ION    NA+35979  34.394   1.215  11.565
70753ION    NA+35980  34.504  15.539   2.260
70754ION    NA+35981   0.631  38.824   5.033
70755ION    NA+35982  30.642   4.688   2.187
70756ION    NA+35983  39.128  22.077   1.267
70757ION    NA+35984  22.724  15.379   0.393
70758ION    NA+35985  42.962   1.802  10.847
70759ION    NA+35986  24.128  40.631  13.626
70760ION    NA+35987   0.750  35.880   3.571
70761ION    NA+35988  15.799  27.593   4.762
70762ION    NA+35989   5.941  44.761  12.775
70763ION    NA+35990  32.108  33.329  10.713
70764ION    NA+35991  42.994  36.384  11.100
70765ION    NA+35992  29.746  11.833   3.340
70766ION    NA+35993   4.764  17.026  12.856
70767ION    NA+35994  17.791  43.455  12.520
70768ION    NA+35995  38.808  30.621  13.153
70769ION    NA+35996  31.146  19.231   5.012
70770ION    NA+35997  26.713   8.688  11.976
70771ION    NA+35998  31.892  25.988  13.720
70772ION    NA+35999  28.735  32.088  14.017
70773ION    NA+36000   7.980  33.117  12.129
70774ION    NA+36001  44.743  29.342  11.653
70775ION    NA+36002  44.597  41.766   0.852
70776ION    NA+36003  10.962  44.775   3.582
70777ION    NA+36004   1.374  24.465  12.518
70778ION    NA+36005  27.672   0.394  10.239
70779ION    NA+36006  31.671   9.641  12.237
70780ION    NA+36007  17.032  17.231   0.432
70781ION    NA+36008  40.416  15.511   0.110
70782ION    NA+36009   8.181  31.399   0.021
70783ION    NA+36010  20.911   1.910   1.900
70784ION    NA+36011  25.238  21.924  11.516
70785ION    NA+36012  32.603  40.510  10.682
70786ION    NA+36013  29.238   2.845   2.438
70787ION    NA+36014  21.882  19.038   3.062
70788ION    NA+36015   0.452  21.935   1.992
70789ION    NA+36016  25.881  30.498   2.428
70790ION    NA+36017   8.063  16.865  10.259
70791ION    NA+36018  40.151  42.225  14.605
70792ION    NA+36019   2.308   6.081   2.409
70793ION    NA+36020  33.486  32.916  13.525
70794ION    NA+36021  16.643   1.520   3.837
70795ION    NA+36022   7.744  36.074  12.029
70796ION    NA+36023  23.302  25.543  14.995
70797ION    NA+36024   0.591  19.348   0.656
70798ION    NA+36025  16.828  35.424   4.080
70799ION    NA+36026  16.003  21.326   4.450
70800ION    NA+36027  38.643  10.849   3.220
70801ION    NA+36028  16.780  21.131   1.030
70802ION    NA+36029  19.027  13.049  11.254
70803ION    NA+36030  17.622   2.489  12.863
70804ION    NA+36031  28.760   8.213  14.697
70805ION    NA+36032  11.592  11.518  11.728
70806ION    NA+36033   3.495   0.178  12.049
70807ION    NA+36034  34.939  34.206   0.701
70808ION    NA+36035  19.686   9.078  14.602
70809ION    NA+36036  22.429  28.773   2.851
70810ION    NA+36037  29.998   6.058   3.506
70811ION    NA+36038   5.478   5.447   2.217
70812ION    NA+36039   4.228  10.631  11.270
70813ION    NA+36040  13.431  34.190  13.694
70814ION    NA+36041   2.387   7.067   2.263
70815ION    NA+36042  27.782  27.894  12.709
70816ION    NA+36043  16.222  29.995   1.367
70817ION    NA+36044  22.383  29.724  11.498
70818ION    NA+36045  28.955  13.083  13.514
70819ION    NA+36046  34.826   9.573  13.078
70820ION    NA+36047  38.166   0.688  14.515
70821ION    NA+36048  38.315   9.789   0.299
70822ION    NA+36049  16.022  31.174   2.077
70823ION    NA+36050   6.696  29.164  12.500
70824ION    NA+36051  33.397  31.186   4.082
70825ION    NA+36052  42.743  30.260  10.751
70826ION    NA+36053   6.258  34.510   4.062
70827ION    NA+36054  36.891  10.519  12.547
70828ION    NA+36055  26.198  34.031   3.311
70829ION    NA+36056  44.130   7.812   3.003
70830ION    NA+36057  26.281  15.431   2.811
70831ION    NA+36058  31.166  27.998   2.239
70832ION    NA+36059  32.261   8.879  11.650
70833ION    NA+36060  11.663  15.134  10.972
70834ION    NA+36061  41.710  15.393   3.686
70835ION    NA+36062  24.207   0.475   1.668
70836ION    NA+36063   1.497  25.586  12.992
70837ION    NA+36064   5.052  18.043  14.303
70838ION    NA+36065   4.237  24.712  10.015
70839ION    NA+36066   0.388   7.546  10.869
70840ION    NA+36067   6.001  30.059  12.008
70841ION    NA+36068   9.736  33.658   3.219
70842ION    NA+36069   0.493   5.805  13.797
70843ION    NA+36070  20.690  38.299   0.887
70844ION    NA+36071  24.468  32.146  13.121
70845ION    NA+36072  22.023   4.685   0.445
70846ION    NA+36073  27.507  22.615   3.021
70847ION    NA+36074  35.787   1.439   1.655
70848ION    NA+36075  36.521   3.205   5.194
70849ION    NA+36076   3.421  23.671  11.989
70850ION    NA+36077  22.273  23.557   0.034
70851ION    NA+36078   8.815   1.462  10.977
70852ION    NA+36079  36.312  26.161   2.306
70853ION    NA+36080  38.721  34.330   1.324
70854ION    NA+36081  32.888  23.793   3.856
70855ION    NA+36082  10.188   9.369   4.609
70856ION    NA+36083  23.193   1.736   1.172
70857ION    NA+36084   8.381  34.055   3.766
70858ION    NA+36085  11.206   3.018  14.718
70859ION    NA+36086  26.872   7.919   2.101
70860ION    NA+36087  32.676  40.098  13.431
70861ION    NA+36088  40.838  21.072   0.087
70862ION    NA+36089  31.762   8.729   4.491
70863ION    NA+36090  29.839  18.911  11.942
70864ION    NA+36091  34.768  39.765  10.303
70865ION    NA+36092  25.302  31.317   3.825
70866ION    NA+36093  37.222  16.762   2.275
70867ION    NA+36094   7.975  30.364  12.181
70868ION    NA+36095  10.993  15.592  12.503
70869ION    NA+36096  15.149  38.649  14.896
70870ION    NA+36097  14.654  16.553   2.270
70871ION    NA+36098  20.637   0.250   5.411
70872ION    NA+36099   7.204   6.175  11.235
70873ION    NA+36100  22.042  43.422   0.813
70874ION    NA+36101   1.230  10.269  11.623
70875ION    NA+36102  38.548  14.046   2.890
70876ION    NA+36103  44.297  16.194   1.432
70877ION    NA+36104   6.214   4.758  10.963
70878ION    NA+36105  36.047   4.266  14.754
70879ION    NA+36106  44.656  17.055  10.709
70880ION    NA+36107   8.270   2.889   4.158
70881ION    NA+36108  36.241  34.691  13.723
70882ION    NA+36109  20.689   5.339   2.245
70883ION    NA+36110  20.140   8.338  13.959
70884ION    NA+36111  15.197  37.565   0.916
70885ION    NA+36112  22.834  31.909   4.612
70886ION    NA+36113  39.997   3.433   3.614
70887ION    NA+36114  41.457  21.049   1.168
70888ION    NA+36115   0.962  33.968   4.602
70889ION    NA+36116  20.911  11.034   0.340
70890ION    NA+36117  15.104  28.079   4.233
70891ION    NA+36118  22.806  27.845   2.821
70892ION    NA+36119  14.982  12.486  11.234
70893ION    NA+36120  37.402  39.512  13.022
70894ION    NA+36121  35.236   8.471  14.518
70895ION    NA+36122  12.416   3.459   1.612
70896ION    NA+36123   4.045  21.471   2.105
70897ION    NA+36124   3.794  21.269   3.727
70898ION    NA+36125  29.033  18.119  11.138
70899ION    NA+36126   8.653  16.150  13.492
70900ION    NA+36127   4.482  36.962  13.361
70901ION    NA+36128  42.932  11.349  11.343
70902ION    NA+36129  33.309  14.685   1.986
70903ION    NA+36130  19.697  15.318  10.661
70904ION    NA+36131   1.380  39.929  13.687
70905ION    NA+36132  11.118  29.026  12.518
70906ION    NA+36133  22.208  27.691  10.707
70907ION    NA+36134  16.119  21.266   0.245
70908ION    NA+36135  15.331   0.878  10.825
70909ION    NA+36136  16.167   5.539  13.885
70910ION    NA+36137  27.199   3.994  13.466
70911ION    NA+36138  41.329   2.195  11.794
70912ION    NA+36139  10.540  41.961   0.350
70913ION    NA+36140   3.232  18.362   2.807
70914ION    NA+36141  44.023  25.240   0.482
70915ION    NA+36142  24.195  38.672  12.967
70916ION    NA+36143  13.228  17.954   0.477
70917ION    NA+36144  11.111  27.482   0.296
70918ION    NA+36145   0.064  32.836  13.998
70919ION    NA+36146  30.766  25.474   3.560
70920ION    NA+36147  34.243  25.939  13.791
70921ION    NA+36148  43.666  43.277  13.550
70922ION    NA+36149  23.788  39.523   4.082
70923ION    NA+36150  10.627   2.982  11.711
70924ION    NA+36151  16.839  15.083   4.636
70925ION    NA+36152  29.332  43.574   0.922
70926ION    NA+36153  34.956  38.118  13.316
70927ION    NA+36154  31.227  23.048   0.013
70928ION    NA+36155  37.801  26.079  11.561
70929ION    NA+36156  30.232  24.422  12.560
70930ION    NA+36157  25.735  36.908   2.470
70931ION    NA+36158  15.050  35.913  12.688
70932ION    NA+36159   1.260   4.449  12.563
70933ION    NA+36160  17.446  30.272   3.000
70934ION    NA+36161  15.755  21.520  11.426
70935ION    NA+36162  36.009  20.193  13.120
70936ION    NA+36163   7.634  15.370  14.936
70937ION    NA+36164   7.543  41.430   9.736
70938ION    NA+36165  13.783   8.007  13.486
70939ION    NA+36166  15.854  32.596  13.130
70940ION    NA+36167  25.276  19.025  10.644
70941ION    NA+36168   3.155  21.395   1.898
70942ION    NA+36169  30.027  28.744   3.594
70943ION    NA+36170   0.579   9.490  10.774
70944ION    NA+36171   4.321  12.326  13.040
70945ION    NA+36172  40.156  12.380   3.152
70946ION    NA+36173   5.691  26.331  14.208
70947ION    NA+36174  11.325  36.515   0.922
70948ION    NA+36175   6.849  16.633   0.087
70949ION    NA+36176  19.726  20.440   1.142
70950ION    NA+36177   5.014  40.981  10.784
70951ION    NA+36178  40.100  26.216   2.870
70952ION    NA+36179  37.864  27.029   4.986
70953ION    NA+36180  39.065  29.692  14.992
70954ION    NA+36181  12.998  23.458   4.878
70955ION    NA+36182  21.350  40.179   0.029
70956ION    NA+36183   3.571  25.676  12.005
70957ION    NA+36184  15.087  36.059  13.902
70958ION    NA+36185  25.773  14.329   3.670
70959ION    NA+36186  35.285  12.024   5.111
70960ION    NA+36187   5.704  40.674  13.244
70961ION    NA+36188   7.455  38.836  14.447
70962ION    NA+36189  43.872  33.857  13.410
70963ION    NA+36190  25.414  15.858  12.121
70964ION    NA+36191  27.087  40.611   4.415
70965ION    NA+36192  29.617  22.938  11.203
70966ION    NA+36193  15.610  38.555   4.131
70967ION    NA+36194  29.935  30.495   0.709
70968ION    NA+36195  31.380  21.205   1.316
70969ION    NA+36196   8.095  36.364   4.561
70970ION    NA+36197  44.987  37.033   1.431
70971ION    NA+36198  34.987  18.448   0.071
70972ION    NA+36199  18.409  40.981   3.256
70973ION    NA+36200  29.374  21.701   3.990
70974ION    NA+36201   4.188  40.455  11.534
70975ION    NA+36202  20.224  29.493  11.832
70976ION    NA+36203  41.498   0.402  11.785
70977ION    NA+36204  32.057  44.840   3.992
70978ION    NA+36205  34.622  26.498   0.207
70979ION    NA+36206   5.180   4.678  12.512
70980ION    NA+36207   4.510  27.581   3.207
70981ION    NA+36208   0.814  15.618  13.321
70982ION    NA+36209   4.987  10.989   2.871
70983ION    NA+36210   0.545   0.862  10.909
70984ION    NA+36211  18.405  38.882   0.660
70985ION    NA+36212  24.727  31.568  14.568
70986ION    NA+36213  19.607  38.233  14.164
70987ION    NA+36214  31.908   9.872   3.502
70988ION    NA+36215  23.510  27.102  13.647
70989ION    NA+36216  19.842  32.235   4.051
70990ION    NA+36217  32.038  36.280   3.231
70991ION    NA+36218  15.393  21.431  12.354
70992ION    NA+36219  18.979  36.472   1.850
70993ION    NA+36220  37.671  26.299   1.871
70994ION    NA+36221  33.330   5.818   9.953
70995ION    NA+36222  36.882  43.698  11.676
70996ION    NA+36223  38.108  27.663   3.709
70997ION    NA+36224  12.150   8.832   1.218
70998ION    NA+36225   9.359  34.524  14.426
70999ION    NA+36226  31.444  35.175  11.107
71000ION    NA+36227  19.042   9.728  12.017
71001ION    NA+36228  33.418  43.388   3.318
71002ION    NA+36229   8.240  11.921   0.853
71003ION    NA+36230  26.947   0.669   5.205
71004ION    NA+36231  14.952  11.872   4.605
71005ION    NA+36232  17.073  13.271  14.633
71006ION    NA+36233   0.965  19.323   3.225
71007ION    NA+36234  14.703  14.494  10.627
71008ION    NA+36235   8.890  28.535  14.716
71009ION    NA+36236   2.366  35.896  11.716
71010ION    NA+36237  39.217  36.938   0.181
71011ION    NA+36238  33.754  25.131  11.194
71012ION    NA+36239  15.254  26.775   3.627
71013ION    NA+36240  26.887  29.148   0.577
71014ION    NA+36241  19.809  34.261   2.070
71015ION    NA+36242  23.163  22.810  14.917
71016ION    NA+36243  23.492  10.912  13.016
71017ION    NA+36244   9.911  37.522   2.297
71018ION    NA+36245  34.635  38.694   2.971
71019ION    NA+36246  31.317  44.407   1.693
71020ION    NA+36247  22.538  18.791  13.806
71021ION    NA+36248  20.121  30.486   2.892
71022ION    NA+36249   5.472  12.254   2.757
71023ION    NA+36250  22.217  39.270   1.833
71024ION    NA+36251  10.008  38.038  12.285
71025ION    NA+36252  35.554  38.082   9.698
71026ION    NA+36253  10.117   2.363   2.881
71027ION    NA+36254  31.918   4.414   2.210
71028ION    NA+36255   4.953   7.815  11.526
71029ION    NA+36256  30.010  27.278   0.514
71030ION    NA+36257   5.371  28.247   9.519
71031ION    NA+36258  16.569  12.149  14.963
71032ION    NA+36259  15.058   7.506  12.487
71033ION    NA+36260   7.954  30.065   3.455
71034ION    NA+36261  34.747   7.100   4.149
71035ION    NA+36262  26.370  39.224  14.059
71036ION    NA+36263  29.043  32.640   1.768
71037ION    NA+36264  34.449   1.076   4.606
71038ION    NA+36265  15.107   2.153   4.516
71039ION    NA+36266  10.956  30.590   4.316
71040ION    NA+36267  30.504   7.407   0.362
71041ION    NA+36268  40.086  12.015   4.734
71042ION    NA+36269   8.065  32.560   1.790
71043ION    NA+36270  35.228  40.500   1.180
71044ION    NA+36271  14.138  19.697   4.609
71045ION    NA+36272  11.836  12.066  12.377
71046ION    NA+36273  25.526  23.993   0.507
71047ION    NA+36274  40.902  44.768  13.412
71048ION    NA+36275  42.751  32.678  12.458
71049ION    NA+36276  28.188  13.328   9.896
71050ION    NA+36277  17.802  32.130  11.479
71051ION    NA+36278   3.923  39.032   3.738
71052ION    NA+36279  15.323  18.017   2.848
71053ION    NA+36280  22.642  37.633   3.239
71054ION    NA+36281  27.236  17.094   0.160
71055ION    NA+36282  27.571  21.254   2.911
71056ION    NA+36283  31.663  38.146   1.231
71057ION    NA+36284  44.440  27.342   1.285
71058ION    NA+36285   2.964  11.270   1.571
71059ION    NA+36286  43.282  22.823   3.421
71060ION    NA+36287  10.035  23.727   2.734
71061ION    NA+36288  18.460   6.854  13.224
71062ION    NA+36289  12.863   3.600  12.086
71063ION    NA+36290   0.959  16.450   2.926
71064ION    NA+36291  27.160  30.437   2.131
71065ION    NA+36292  36.173  31.273   1.485
71066ION    NA+36293  40.973  37.389  10.251
71067ION    NA+36294  30.573   2.367   4.369
71068ION    NA+36295  35.993  27.870   0.480
71069ION    NA+36296   5.873  42.718   2.889
71070ION    NA+36297  14.280   4.444   1.623
71071ION    NA+36298  14.809  12.338   0.837
71072ION    NA+36299  14.228  20.610  12.544
71073ION    NA+36300  37.438   4.206  11.561
71074ION    NA+36301  42.268  25.576   0.145
71075ION    NA+36302  21.409  35.640   4.819
71076ION    NA+36303  24.868  36.910   3.021
71077ION    NA+36304  33.508   0.461  12.057
71078ION    NA+36305  27.537   8.725  12.602
71079ION    NA+36306  42.923   0.823   3.744
71080ION    NA+36307  35.359   7.621  14.006
71081ION    NA+36308   8.513  33.425   5.293
71082ION    NA+36309   1.804   0.892   1.156
71083ION    NA+36310   7.724  18.690   0.002
71084ION    NA+36311  10.740  44.904   2.611
71085ION    NA+36312  34.209  40.865   4.243
71086ION    NA+36313  29.227  13.389  12.635
71087ION    NA+36314  11.379  25.411   2.796
71088ION    NA+36315  28.152  37.041  12.248
71089ION    NA+36316  38.844  12.535   1.462
71090ION    NA+36317  36.264  30.033  14.103
71091ION    NA+36318  27.185  28.937  13.120
71092ION    NA+36319  29.540   2.704  13.549
71093ION    NA+36320  13.159   8.116  11.484
71094ION    NA+36321  24.757   9.992   0.439
71095ION    NA+36322  14.690  12.905   4.161
71096ION    NA+36323   6.719  21.850   0.613
71097ION    NA+36324  44.720   0.586  11.789
71098ION    NA+36325   1.582  24.990  11.853
71099ION    NA+36326  32.895  18.983  11.070
71100ION    NA+36327  20.247  26.501  11.703
71101ION    NA+36328   9.752  30.255   0.109
71102ION    NA+36329   5.224  22.407  11.087
71103ION    NA+36330   9.608  18.362   1.697
71104ION    NA+36331  23.465   0.219  11.177
71105ION    NA+36332  14.013  12.610   4.852
71106ION    NA+36333  35.699  33.687   0.864
71107ION    NA+36334  20.843  21.698   1.949
71108ION    NA+36335  43.558  22.396   5.239
71109ION    NA+36336   7.727  29.580  13.714
71110ION    NA+36337  35.634  15.351   4.145
71111ION    NA+36338  28.534  13.777  12.930
71112ION    NA+36339   5.763  20.762   4.277
71113ION    NA+36340  41.773  30.688  12.851
71114ION    NA+36341   5.737   6.897   2.193
71115ION    NA+36342   5.833  10.363   3.240
71116ION    NA+36343  32.687  40.046  14.746
71117ION    NA+36344   3.673   1.588  14.750
71118ION    NA+36345  26.498  14.697  11.209
71119ION    NA+36346  19.204  35.996  14.548
71120ION    NA+36347   2.928   1.828   0.784
71121ION    NA+36348  41.650   2.055  13.977
71122ION    NA+36349  22.237  19.219   2.145
71123ION    NA+36350   5.672  35.539  13.362
71124ION    NA+36351  18.902  28.635   2.647
71125ION    NA+36352  22.647  42.475   1.917
71126ION    NA+36353  43.260  11.260  14.580
71127ION    NA+36354  36.303   5.295  11.691
71128ION    NA+36355   4.327  44.096  11.944
71129ION    NA+36356  21.570  16.410   3.783
71130ION    NA+36357   4.288   2.466  14.406
71131ION    NA+36358   5.386  33.095   0.473
71132ION    NA+36359  17.150  24.002   2.043
71133ION    NA+36360  29.188   5.248  12.212
71134ION    NA+36361   7.581  15.360  13.646
71135ION    NA+36362  33.760  42.857  12.041
71136ION    NA+36363  18.917   9.322   3.920
71137ION    NA+36364  13.944  15.503   2.637
71138ION    NA+36365  30.648   9.115  13.454
71139ION    NA+36366  24.466  10.796   4.479
71140ION    NA+36367  31.780  13.117  14.223
71141ION    NA+36368  12.654  28.617  12.601
71142ION    NA+36369  24.868  40.107  13.455
71143ION    NA+36370  36.805  17.588  13.247
71144ION    NA+36371  27.044  25.899  10.600
71145ION    NA+36372  14.798  29.155   0.412
71146ION    NA+36373  19.633  26.585   2.701
71147ION    NA+36374  29.059  19.378  14.056
71148ION    NA+36375  37.966  42.274   3.209
71149ION    NA+36376  43.738  14.019   2.269
71150ION    NA+36377   9.727  10.887  11.586
71151ION    NA+36378  30.912  23.631   2.461
71152ION    NA+36379  11.724  28.134   1.307
71153ION    NA+36380  11.948  18.960  12.334
71154ION    NA+36381  16.450  27.667   4.007
71155ION    NA+36382   2.955  25.901  11.399
71156ION    NA+36383   1.987  19.420  10.625
71157ION    NA+36384  16.623  36.984   0.485
71158ION    NA+36385   0.505  24.063   5.408
71159ION    NA+36386  29.138   5.545   1.212
71160ION    NA+36387  12.657  15.209  13.038
71161ION    NA+36388  39.034  13.261  14.809
71162ION    NA+36389  14.514  23.742  12.048
71163ION    NA+36390   3.437  42.533  13.383
71164ION    NA+36391  39.213  30.251   3.441
71165ION    NA+36392  30.654  30.152   3.237
71166ION    NA+36393  43.932  30.353  11.692
71167ION    NA+36394  27.197  28.129  10.713
71168ION    NA+36395  30.865  16.436   4.532
71169ION    NA+36396   6.626  22.487  11.241
71170ION    NA+36397  32.701  28.614  11.164
71171ION    NA+36398   6.441  40.056  12.971
71172ION    NA+36399   3.347   5.809  12.958
71173ION    NA+36400  43.561  15.569   1.172
71174ION    NA+36401  30.551  44.454  11.168
71175ION    NA+36402   9.002  27.225   3.117
71176ION    NA+36403   2.255  10.731  12.429
71177ION    NA+36404  34.063   9.848   4.284
71178ION    NA+36405  39.814  30.031   0.660
71179ION    NA+36406  22.797  28.929   1.780
71180ION    NA+36407  43.070  16.219   4.588
71181ION    NA+36408   9.970  37.732  13.138
71182ION    NA+36409  18.383   7.666  10.645
71183ION    NA+36410  24.661  36.682  14.894
71184ION    NA+36411  28.057  27.462   0.287
71185ION    NA+36412   4.749   6.401   1.397
71186ION    NA+36413   1.011  44.815   0.533
71187ION    NA+36414  14.652  31.391  13.551
71188ION    NA+36415  44.042  43.887  11.425
71189ION    NA+36416   7.178   4.664  11.272
71190ION    NA+36417   5.552  43.900  10.332
71191ION    NA+36418  21.082  16.469   4.558
71192ION    NA+36419  36.191  26.776  14.308
71193ION    NA+36420  28.470   2.955  11.965
71194ION    NA+36421  19.966   0.049  14.889
71195ION    NA+36422  37.019   7.263   1.463
71196ION    NA+36423  13.097   4.604  11.096
71197ION    NA+36424  17.348   0.305  10.845
71198ION    NA+36425  14.578  13.177  14.757
71199ION    NA+36426  14.875  43.689  14.975
71200ION    NA+36427  13.358  14.737   2.371
71201ION    NA+36428  26.658  33.600  11.753
71202ION    NA+36429  17.668  21.184   0.573
71203ION    NA+36430  32.102  44.860   4.991
71204ION    NA+36431  41.193  11.092  11.195
71205ION    NA+36432  14.403  29.026   1.736
71206ION    NA+36433  43.933  10.771   3.349
71207ION    NA+36434   4.188  23.782   2.895
71208ION    NA+36435  10.267  26.560  13.585
71209ION    NA+36436  19.353  26.497  10.677
71210ION    NA+36437  25.706   6.902   4.063
71211ION    NA+36438  44.567   7.213   3.475
71212ION    NA+36439  21.379  15.294   0.914
71213ION    NA+36440  23.473  32.566  11.762
71214ION    NA+36441   5.419  34.352   2.143
71215ION    NA+36442  33.326   5.083  10.245
71216ION    NA+36443  43.321  28.441   4.727
71217ION    NA+36444  42.935  27.158   1.416
71218ION    NA+36445   1.262  34.494   2.427
71219ION    NA+36446   1.390  23.591   0.335
71220ION    NA+36447   7.849  22.569  13.432
71221ION    NA+36448  15.099  25.162   3.851
71222ION    NA+36449  35.675   4.265  11.583
71223ION    NA+36450  11.196   2.318  12.671
71224ION    NA+36451   1.736  19.208  13.931
71225ION    NA+36452   3.656  11.261  10.745
71226ION    NA+36453  17.156  24.681  14.316
71227ION    NA+36454  21.275  26.610  11.941
71228ION    NA+36455  34.701   2.396   2.020
71229ION    NA+36456   8.449  37.918   1.881
71230ION    NA+36457  20.757  22.986  14.004
71231ION    NA+36458  27.749   5.308   2.907
71232ION    NA+36459  15.087  31.360  14.451
71233ION    NA+36460  24.131  34.288  10.806
71234ION    NA+36461   8.419  13.389   1.235
71235ION    NA+36462  23.510  34.820   1.218
71236ION    NA+36463  18.271   5.896   2.916
71237ION    NA+36464  21.004   9.263  13.838
71238ION    NA+36465  18.655  34.242   0.351
71239ION    NA+36466  26.034  27.200  12.047
71240ION    NA+36467   2.887  14.754   3.117
71241ION    NA+36468  13.245  19.131   4.565
71242ION    NA+36469  24.414  35.782   5.375
71243ION    NA+36470  13.443  44.425  13.284
71244ION    NA+36471   5.426  16.981  11.234
71245ION    NA+36472  33.904  24.935  12.163
71246ION    NA+36473   2.431  17.414   0.300
71247ION    NA+36474  30.192  42.056   0.496
71248ION    NA+36475  44.758   1.730   3.791
71249ION    NA+36476  43.793  34.206   1.219
71250ION    NA+36477  28.024  39.933   0.491
71251ION    NA+36478  20.590  16.708  13.535
71252ION    NA+36479  44.256   5.715  11.682
71253ION    NA+36480   1.877  29.720  11.331
71254ION    NA+36481  41.229  29.863  13.003
71255ION    NA+36482  12.227   7.262   1.824
71256ION    NA+36483  18.973   0.730   2.140
71257ION    NA+36484   5.906  12.819   1.907
71258ION    NA+36485   9.883  42.314  12.827
71259ION    NA+36486  30.458  16.004   3.099
71260ION    NA+36487   8.763   0.880   1.397
71261ION    NA+36488  33.297  36.116  13.110
71262ION    NA+36489   7.687  10.385  11.891
71263ION    NA+36490   8.330   4.631   4.028
71264ION    NA+36491  22.978  14.078   4.451
71265ION    NA+36492  20.673   2.226   0.492
71266ION    NA+36493  36.278  18.993  13.033
71267ION    NA+36494   2.955  25.290  10.737
71268ION    NA+36495  39.757  33.929  11.765
71269ION    NA+36496  36.327  40.179   4.460
71270ION    NA+36497  23.216   3.723  14.969
71271ION    NA+36498  25.723  40.159   3.817
71272ION    NA+36499   2.194  42.381  12.642
71273ION    NA+36500  31.870   4.867  13.435
71274ION    NA+36501  42.884  44.555   1.846
71275ION    NA+36502  34.209  16.298   2.739
71276ION    NA+36503  23.813  11.622   4.689
71277ION    NA+36504  38.695  19.978   0.614
71278ION    NA+36505  28.569   7.221   3.419
71279ION    NA+36506   2.693   4.518  11.054
71280ION    NA+36507   8.172   9.696   3.859
71281ION    NA+36508  24.374  15.188   3.469
71282ION    NA+36509  14.278  40.422  13.239
71283ION    NA+36510  34.612  29.562   2.244
71284ION    NA+36511  22.283   2.743   2.419
71285ION    NA+36512   0.746  30.450   0.259
71286ION    NA+36513  22.662   8.645  13.017
71287ION    NA+36514  18.032  33.769  10.992
71288ION    NA+36515   5.809  44.335   4.147
71289ION    NA+36516   0.827  40.534  11.132
71290ION    NA+36517   1.533  10.517   1.290
71291ION    NA+36518   2.837   6.522   4.564
71292ION    NA+36519  24.178   0.050   3.283
71293ION    NA+36520  11.202   3.457   2.939
71294ION    NA+36521   5.695  11.612  13.073
71295ION    NA+36522  28.438  36.834  10.404
71296ION    NA+36523   2.688  42.943   3.714
71297ION    NA+36524   1.152  27.712   0.960
71298ION    NA+36525   0.058  44.242   4.682
71299ION    NA+36526  22.002  22.855  11.088
71300ION    NA+36527  18.743   7.109   9.719
71301ION    NA+36528  39.740  30.714  14.112
71302ION    NA+36529  12.519   8.785   2.690
71303ION    NA+36530  13.391   5.994  13.519
71304ION    NA+36531   8.082  34.023   5.161
71305ION    NA+36532  28.659  13.327  14.954
71306ION    NA+36533   1.222  43.098  11.774
71307ION    NA+36534   1.669  24.374   2.470
71308ION    NA+36535  42.096  39.597   3.070
71309ION    NA+36536   5.023  13.437   2.744
71310ION    NA+36537  30.598  29.723   4.451
71311ION    NA+36538  39.046  13.448   1.107
71312ION    NA+36539  39.427   9.661  10.786
71313ION    NA+36540  27.011  25.488  13.820
71314ION    NA+36541  11.274  16.696  10.451
71315ION    NA+36542  17.084  34.260  12.179
71316ION    NA+36543  34.988   0.452  11.076
71317ION    NA+36544  42.615  33.098   0.704
71318ION    NA+36545  43.058  25.121   4.750
71319ION    NA+36546  31.096  25.058   9.910
71320ION    NA+36547   1.729   1.722  12.456
71321ION    NA+36548  23.923  39.458  11.464
71322ION    NA+36549  34.650  30.245  10.976
71323ION    NA+36550  31.505   3.299   0.982
71324ION    NA+36551  34.149   9.719   1.931
71325ION    NA+36552  37.903  10.214  12.773
71326ION    NA+36553  44.882  40.520  12.944
71327ION    NA+36554   7.509  32.051  10.761
71328ION    NA+36555  27.720  35.364   0.299
71329ION    NA+36556  13.126  15.904   4.664
71330ION    NA+36557  31.358  37.314  14.451
71331ION    NA+36558  39.428  20.830  10.384
71332ION    NA+36559   2.195   9.609   4.999
71333ION    NA+36560   5.126  14.894  10.768
71334ION    NA+36561  10.849  28.123  12.183
71335ION    NA+36562  21.309  15.808   3.016
71336ION    NA+36563  18.502  21.604  10.730
71337ION    NA+36564  13.246  27.547   2.761
71338ION    NA+36565   3.451   6.257   2.656
71339ION    NA+36566  21.756  33.490  13.527
71340ION    NA+36567  13.208  12.898  10.476
71341ION    NA+36568  23.098  22.277   1.466
71342ION    NA+36569  40.325   8.179  13.987
71343ION    NA+36570  41.481  35.451   3.092
71344ION    NA+36571  28.759  23.051  14.578
71345ION    NA+36572  36.682   1.256   1.133
71346ION    NA+36573  28.323  39.994   3.168
71347ION    NA+36574  14.583  42.764   1.946
71348ION    NA+36575   7.749  25.538  13.446
71349ION    NA+36576  34.972  19.472   4.861
71350ION    NA+36577  29.907  12.285  12.162
71351ION    NA+36578  16.727  23.032  11.788
71352ION    NA+36579  33.675  35.847  12.224
71353ION    NA+36580  27.210  16.871   0.990
71354ION    NA+36581  36.179  37.535   1.837
71355ION    NA+36582   9.270  15.968   2.943
71356ION    NA+36583  27.415  29.231   5.054
71357ION    NA+36584   6.728  17.691   0.279
71358ION    NA+36585   6.946  11.493   4.464
71359ION    NA+36586  29.621  11.297   0.705
71360ION    NA+36587  13.042  34.046  12.014
71361ION    NA+36588  34.568   6.276  12.486
71362ION    NA+36589  17.733  17.555   3.326
71363ION    NA+36590  14.596  36.710   1.885
71364ION    NA+36591  32.389  32.611   1.742
71365ION    NA+36592   1.319   9.434  13.421
71366ION    NA+36593  28.090  26.566  10.613
71367ION    NA+36594  33.069  25.252   4.213
71368ION    NA+36595  12.568  43.436   3.609
71369ION    NA+36596  20.770  33.121   3.391
71370ION    NA+36597  31.106  22.044  12.738
71371ION    NA+36598  29.130  14.277   3.716
71372ION    NA+36599  37.048  21.367   1.419
71373ION    NA+36600  34.392  37.290  13.005
71374ION    NA+36601   3.291   5.251   3.801
71375ION    NA+36602  29.883   0.977  12.208
71376ION    NA+36603  35.624  36.606  14.139
71377ION    NA+36604  27.230  21.491  14.328
71378ION    NA+36605   2.861   5.014  13.333
71379ION    NA+36606   9.548   3.040  10.414
71380ION    NA+36607  16.999   5.099   0.301
71381ION    NA+36608  15.832  38.742   0.621
71382ION    NA+36609  21.275  12.026  12.768
71383ION    NA+36610  16.352  11.920   2.447
71384ION    NA+36611   9.354  21.203  14.449
71385ION    NA+36612   8.224  28.270   3.643
71386ION    NA+36613  43.176  39.450  14.497
71387ION    NA+36614  19.063  18.468   3.528
71388ION    NA+36615   0.034   1.520  14.427
71389ION    NA+36616  44.611  23.687   4.376
71390ION    NA+36617   9.262  25.742  11.651
71391ION    NA+36618  29.998   6.979   3.506
71392ION    NA+36619  39.788  33.653  13.359
71393ION    NA+36620  20.053   5.925   1.663
71394ION    NA+36621  13.423   4.841  12.469
71395ION    NA+36622   8.637  34.699  11.782
71396ION    NA+36623  18.208  24.154   0.561
71397ION    NA+36624  39.537   7.156  12.978
71398ION    NA+36625  36.618  40.088  12.789
71399ION    NA+36626  18.863   5.266  10.654
71400ION    NA+36627  41.878  25.009   4.040
71401ION    NA+36628  33.602  14.912  11.950
71402ION    NA+36629   6.144  31.994  14.902
71403ION    NA+36630  28.943  16.097   3.202
71404ION    NA+36631  15.259  11.504  13.938
71405ION    NA+36632  17.880  25.184   3.776
71406ION    NA+36633  40.526  23.225  14.371
71407ION    NA+36634  17.480  42.174  13.135
71408ION    NA+36635  40.399   3.624   0.821
71409ION    NA+36636  35.885  33.850  12.081
71410ION    NA+36637  22.106  43.937  13.957
71411ION    NA+36638  20.686  21.488   0.478
71412ION    NA+36639   3.419  30.670   2.056
71413ION    NA+36640  33.135  11.717   2.747
71414ION    NA+36641  16.106  40.208   2.831
71415ION    NA+36642  14.289  10.786  14.810
71416ION    NA+36643  30.021  23.890   3.898
71417ION    NA+36644  15.266  12.217   3.721
71418ION    NA+36645   6.578   5.662  10.648
71419ION    NA+36646  28.627  33.089  10.695
71420ION    NA+36647  17.067  22.271  13.479
71421ION    NA+36648  12.743   6.038  12.866
71422ION    NA+36649  28.629  16.614  14.940
71423ION    NA+36650  20.177  42.447   1.166
71424ION    NA+36651   1.298  23.627   1.780
71425ION    NA+36652  35.024   2.449  10.704
71426ION    NA+36653  26.758  43.377  14.672
71427ION    NA+36654  20.845  34.892  13.721
71428ION    NA+36655  13.222  28.724  13.500
71429ION    NA+36656  17.352   3.200  10.788
71430ION    NA+36657  31.687   3.346  12.403
71431ION    NA+36658   0.384  41.308   3.052
71432ION    NA+36659  28.252  14.614   2.058
71433ION    NA+36660  12.267  13.796  12.992
71434ION    NA+36661  11.686  22.404  13.320
71435ION    NA+36662  10.870  17.260  11.171
71436ION    NA+36663  21.086  14.055  13.844
71437ION    NA+36664  11.767  12.817   3.170
71438ION    NA+36665   2.336  28.890  13.466
71439ION    NA+36666  21.897  21.993  13.762
71440ION    NA+36667   0.422  33.368  11.172
71441ION    NA+36668   5.949   3.542  13.841
71442ION    NA+36669  14.242  20.541   3.601
71443ION    NA+36670  12.802  20.807  11.549
71444ION    NA+36671  43.047   9.129  13.418
71445ION    NA+36672  44.890  22.562  13.791
71446ION    NA+36673  23.262  23.078  10.772
71447ION    NA+36674  29.884  16.320  14.511
71448ION    NA+36675  20.314  31.406  11.496
71449ION    NA+36676  40.552  23.514   3.252
71450ION    NA+36677  38.585  32.708  13.334
71451ION    NA+36678  14.783  39.814  12.811
71452ION    NA+36679  26.753   5.873  11.390
71453ION    NA+36680  21.429  21.043   1.472
71454ION    NA+36681   0.251  27.784   0.902
71455ION    NA+36682  39.911  32.208   3.337
71456ION    NA+36683  40.490  18.860  11.259
71457ION    NA+36684  41.713  10.964   3.983
71458ION    NA+36685  27.970  10.660   1.320
71459ION    NA+36686  33.635  29.560   4.469
71460ION    NA+36687  21.793  23.944   5.358
71461ION    NA+36688  42.163  21.749  12.262
71462ION    NA+36689  20.397  15.338   2.171
71463ION    NA+36690   3.189  36.618  14.015
71464ION    NA+36691  43.659   2.026   2.479
71465ION    NA+36692  13.592  10.921  13.309
71466ION    NA+36693  36.724  19.825   3.084
71467ION    NA+36694   9.343  25.899   0.323
71468ION    NA+36695  10.635  41.606  14.420
71469ION    NA+36696  43.025  14.809  11.600
71470ION    NA+36697  12.406  27.929   0.605
71471ION    NA+36698  38.802  20.885  13.039
71472ION    NA+36699   7.224   6.136   1.964
71473ION    NA+36700  34.107  34.612   0.727
71474ION    NA+36701  14.303  37.677  10.127
71475ION    NA+36702   8.062  36.570  13.878
71476ION    NA+36703  33.042  29.764  12.521
71477ION    NA+36704  24.422  13.570  13.617
71478ION    NA+36705  12.798  25.131   2.810
71479ION    NA+36706   0.788   1.645  12.785
71480ION    NA+36707  12.649  30.168   1.772
71481ION    NA+36708  16.589  35.124  10.810
71482ION    NA+36709  18.301   8.412  11.305
71483ION    NA+36710  40.457  24.302   2.211
71484ION    NA+36711  41.431  26.552   0.949
71485ION    NA+36712  36.848  21.054   0.579
71486ION    NA+36713  32.944   5.186  13.862
71487ION    NA+36714  28.339  24.460  12.557
71488ION    NA+36715   1.978  38.353   1.738
71489ION    NA+36716   9.023  13.520   0.450
71490ION    NA+36717   5.955  33.368   2.367
71491ION    NA+36718  33.327  44.924   3.475
71492ION    NA+36719  40.867  11.779   4.156
71493ION    NA+36720  31.058   0.101  13.587
71494ION    NA+36721  44.395  28.998  12.894
71495ION    NA+36722  38.640  37.109   3.231
71496ION    NA+36723  26.378  33.706  10.423
71497ION    NA+36724  23.095  29.115   3.369
71498ION    NA+36725   8.995  19.194  13.965
71499ION    NA+36726  14.679  15.764  14.373
71500ION    NA+36727  37.158  36.679  11.113
71501ION    NA+36728  16.009  17.740  12.858
71502ION    NA+36729  23.980   4.223   3.552
71503ION    NA+36730  13.997  13.714  14.823
71504ION    NA+36731  15.067   9.095  14.891
71505ION    NA+36732  12.078  19.730   3.288
71506ION    NA+36733  44.703   3.445   2.072
71507ION    NA+36734   9.307   0.160   1.605
71508ION    NA+36735  24.334   7.665  14.628
71509ION    NA+36736  10.806  41.862   1.849
71510ION    NA+36737  28.895  18.453   4.478
71511ION    NA+36738   8.969  22.601  10.814
71512ION    NA+36739  26.744  32.073   1.589
71513ION    NA+36740   7.083   7.983   2.776
71514ION    NA+36741  14.998  33.429  14.532
71515ION    NA+36742   4.228  27.664  14.266
71516ION    NA+36743  31.590  41.951  10.990
71517ION    NA+36744  29.207  11.869  11.774
71518ION    NA+36745  38.010  35.610   4.522
71519ION    NA+36746   7.646  11.599   4.859
71520ION    NA+36747   8.148  20.240  14.442
71521ION    NA+36748  11.855   3.144  11.554
71522ION    NA+36749  14.677  40.962  10.645
71523ION    NA+36750  10.873  20.815   0.172
71524ION    NA+36751  31.458   5.843   0.730
71525ION    NA+36752   6.200  32.722   3.090
71526ION    NA+36753  34.399  18.373  13.968
71527ION    NA+36754   8.441  22.813  11.637
71528ION    NA+36755  34.222  37.786  14.828
71529ION    NA+36756  38.997   8.340  11.498
71530ION    NA+36757   2.798  41.074  10.894
71531ION    NA+36758  22.579  24.588  12.797
71532ION    NA+36759   6.262  12.097  11.087
71533ION    NA+36760  36.644  28.225  10.795
71534ION    NA+36761   4.875  41.320   4.264
71535ION    NA+36762  27.811  12.428  10.275
71536ION    NA+36763  27.458  40.005   2.664
71537ION    NA+36764  40.822  38.376   2.819
71538ION    NA+36765  40.297   3.699  11.218
71539ION    NA+36766  20.877  10.171  14.307
71540ION    NA+36767   5.015  38.476  11.657
71541ION    NA+36768  42.470  13.467  13.566
71542ION    NA+36769  28.096  32.908  14.586
71543ION    NA+36770  10.993  16.257   2.072
71544ION    NA+36771   4.296  43.854  13.016
71545ION    NA+36772  30.649  17.347  11.382
71546ION    NA+36773   9.853   8.818   1.320
71547ION    NA+36774  30.243  39.389   3.949
71548ION    NA+36775  36.322   6.755   4.599
71549ION    NA+36776   3.827  17.124   4.266
71550ION    NA+36777  23.154  19.291  13.357
71551ION    NA+36778  31.004  16.448  11.640
71552ION    NA+36779   4.664   0.336   0.765
71553ION    NA+36780   3.262  21.301  10.740
71554ION    NA+36781   2.687  14.730  13.025
71555ION    NA+36782  42.618  28.306   2.529
71556ION    NA+36783  20.679  30.088   4.782
71557ION    NA+36784  28.568  14.303  13.944
71558ION    NA+36785  13.359  22.369   0.532
71559ION    NA+36786  14.303  13.441   0.593
71560ION    NA+36787  31.020   8.412   4.079
71561ION    NA+36788  40.296   9.941   4.084
71562ION    NA+36789  35.587  44.529  11.151
71563ION    NA+36790   1.971  31.474  13.991
71564ION    NA+36791   1.312   8.493  11.076
71565ION    NA+36792  21.953   9.152   4.649
71566ION    NA+36793  23.521  18.635   0.553
71567ION    NA+36794   2.392  39.762  13.134
71568ION    NA+36795  30.446  37.143  14.078
71569ION    NA+36796  29.694   2.160   2.943
71570ION    NA+36797  44.967  27.244   2.984
71571ION    NA+36798  31.951  42.216   1.160
71572ION    NA+36799  18.892  31.895   1.527
71573ION    NA+36800  43.052  28.709  10.256
71574ION    NA+36801  11.610  18.441   4.480
71575ION    NA+36802  31.778  10.355   4.664
71576ION    NA+36803  12.334   4.484  13.599
71577ION    NA+36804  27.274  26.510   2.857
71578ION    NA+36805  18.265  25.341   2.970
71579ION    NA+36806  35.711   1.121   0.667
71580ION    NA+36807  43.074  31.959  11.181
71581ION    NA+36808   6.445  11.004  10.067
71582ION    NA+36809  23.853  44.863  14.599
71583ION    NA+36810  14.868  13.709  11.593
71584ION    NA+36811  33.545   2.201  13.951
71585ION    NA+36812  26.247  23.888  12.118
71586ION    NA+36813  40.029  29.872  14.647
71587ION    NA+36814  21.273  17.720   1.881
71588ION    NA+36815  38.524  10.962  13.011
71589ION    NA+36816   3.308  26.453   2.758
71590ION    NA+36817   9.241   5.268   0.040
71591ION    NA+36818  34.928  39.433   1.645
71592ION    NA+36819  18.270  40.029   4.677
71593ION    NA+36820  44.199  31.960   2.452
71594ION    NA+36821  21.676   3.754   0.325
71595ION    NA+36822  12.192  23.979   1.402
71596ION    NA+36823  25.403  13.149   4.230
71597ION    NA+36824  43.371  13.078   0.538
71598ION    NA+36825   8.629  19.994  10.893
71599ION    NA+36826  12.182  35.033   2.288
71600ION    NA+36827   7.269  34.615   0.013
71601ION    NA+36828  44.373  38.261  13.148
71602ION    NA+36829   6.790  43.933   1.204
71603ION    NA+36830  21.993  27.699   0.271
71604ION    NA+36831  41.976  14.092   3.561
71605ION    NA+36832   0.441  36.261  14.894
71606ION    NA+36833  10.347  34.895   3.653
71607ION    NA+36834  15.275  44.121  11.926
71608ION    NA+36835  34.448  39.031   2.470
71609ION    NA+36836  35.326  17.653   1.057
71610ION    NA+36837   1.468  15.472   4.300
71611ION    NA+36838  21.171  41.193   1.019
71612ION    NA+36839  42.130   2.597  12.030
71613ION    NA+36840  14.107  29.570   3.783
71614ION    NA+36841  39.009  21.829  12.779
71615ION    NA+36842  36.157  22.979  13.586
71616ION    NA+36843  22.585  26.651   0.999
71617ION    NA+36844  23.616  34.586   2.220
71618ION    NA+36845  28.905  19.038  11.607
71619ION    NA+36846   2.556  31.735   0.950
71620ION    NA+36847  39.865  24.757  14.840
71621ION    NA+36848   3.670  25.513  14.083
71622ION    NA+36849   9.961   5.452   3.827
71623ION    NA+36850  27.829  19.460   4.654
71624ION    NA+36851  35.443  26.327   0.753
71625ION    NA+36852  18.787  17.802   3.009
71626ION    NA+36853  43.085  17.638  12.764
71627ION    NA+36854  20.209  25.647  13.505
71628ION    NA+36855  10.080  17.953   2.510
71629ION    NA+36856  43.123  17.473   4.966
71630ION    NA+36857  36.911   8.568  14.660
71631ION    NA+36858  28.153  38.606  13.275
71632ION    NA+36859  21.834   9.890  14.044
71633ION    NA+36860   5.066  44.817  12.294
71634ION    NA+36861   9.958  41.105  13.710
71635ION    NA+36862  38.562  43.426  13.366
71636ION    NA+36863  28.669  25.966  14.946
71637ION    NA+36864   6.259  29.955   0.950
71638ION    NA+36865  20.288  14.229  11.309
71639ION    NA+36866  33.698  29.978  13.265
71640ION    NA+36867  17.505  18.742  12.495
71641ION    NA+36868   5.310   0.794   1.382
71642ION    NA+36869  35.675  17.260   0.207
71643ION    NA+36870   8.218  32.838  13.953
71644ION    NA+36871  13.894  23.132   3.886
71645ION    NA+36872  24.160  36.607  13.006
71646ION    NA+36873  25.180  19.230   1.923
71647ION    NA+36874   8.864   3.775  14.041
71648ION    NA+36875  26.749   3.419   0.812
71649ION    NA+36876   7.872  21.245   9.757
71650ION    NA+36877   8.457  44.202  14.064
71651ION    NA+36878  18.564  44.771   1.768
71652ION    NA+36879  27.101   5.856  12.232
71653ION    NA+36880  16.199  39.363   4.088
71654ION    NA+36881   7.543  28.496   1.895
71655ION    NA+36882   9.384   9.675  13.172
71656ION    NA+36883  14.262  16.890  14.084
71657ION    NA+36884  32.663  21.926   4.960
71658ION    NA+36885  33.500  17.985   3.218
71659ION    NA+36886  20.604  41.585   4.235
71660ION    NA+36887  27.668  38.096   4.091
71661ION    NA+36888  16.580  42.565  12.944
71662ION    NA+36889  17.535   9.516  11.805
71663ION    NA+36890  39.288   6.705   1.019
71664ION    NA+36891  14.269  21.573  13.510
71665ION    NA+36892  13.322   0.895   2.667
71666ION    NA+36893   7.409   7.183  11.074
71667ION    NA+36894  19.122  14.087   0.729
71668ION    NA+36895  28.958   5.860  11.455
71669ION    NA+36896  18.857  44.805   2.799
71670ION    NA+36897  20.746  21.767   2.982
71671ION    NA+36898  44.752  22.721   4.157
71672ION    NA+36899  26.420  15.332  13.875
71673ION    NA+36900  24.434  39.114  13.665
71674ION    NA+36901  36.579  14.385   3.306
71675ION    NA+36902  22.881  36.467  14.432
71676ION    NA+36903  11.348  11.387   4.105
71677ION    NA+36904   9.992   5.179  14.351
71678ION    NA+36905  36.042   0.997  10.794
71679ION    NA+36906   2.599  39.361   4.024
71680ION    NA+36907   1.243  11.106   4.223
71681ION    NA+36908  42.002   1.910  13.036
71682ION    NA+36909   9.408   1.796  12.716
71683ION    NA+36910  12.588   1.781  14.715
71684ION    NA+36911  32.251   2.833   1.123
71685ION    NA+36912  41.750  10.094  13.661
71686ION    NA+36913  21.746   9.398   1.416
71687ION    NA+36914   7.335  40.382  13.279
71688ION    NA+36915   6.648   5.648   3.401
71689ION    NA+36916   5.886   1.827   1.821
71690ION    NA+36917  16.316  28.433  13.744
71691ION    NA+36918   7.307  39.524   1.618
71692ION    NA+36919  32.499  10.196   4.295
71693ION    NA+36920   9.088   2.137  13.506
71694ION    NA+36921  39.028  43.482  11.310
71695ION    NA+36922  18.943  33.677  11.125
71696ION    NA+36923  18.699  18.920   4.622
71697ION    NA+36924  34.575  16.209  14.904
71698ION    NA+36925  17.502  12.519  13.289
71699ION    NA+36926  44.340  28.228   0.832
71700ION    NA+36927  11.897  43.864   1.609
71701ION    NA+36928   1.622   9.836   4.121
71702ION    NA+36929  22.645  44.966   1.028
71703ION    NA+36930  31.509  31.892   1.491
71704ION    NA+36931  26.151  33.347  12.577
71705ION    NA+36932  30.965  12.385   3.179
71706ION    NA+36933  14.651  21.942  14.964
71707ION    NA+36934   5.975   4.751  14.931
71708ION    NA+36935  41.213  22.579   4.083
71709ION    NA+36936  10.280  35.359  14.353
71710ION    NA+36937  44.452  25.329  13.435
71711ION    NA+36938   9.835  42.049  14.017
71712ION    NA+36939  42.586  15.415   2.724
71713ION    NA+36940  35.017  37.442   2.736
71714ION    NA+36941  32.408   4.444   3.775
71715ION    NA+36942   5.112  12.327   4.302
71716ION    NA+36943  36.533   5.279   1.404
71717ION    NA+36944  25.119  41.051   3.680
71718ION    NA+36945  13.385   9.612   4.540
71719ION    NA+36946  35.734   8.799  10.863
71720ION    NA+36947  20.329   3.496  13.033
71721ION    NA+36948   7.352   5.299   1.429
71722ION    NA+36949  33.463  31.002  10.734
71723ION    NA+36950  31.283  35.233  14.386
71724ION    NA+36951  21.697   9.190  11.519
71725ION    NA+36952  42.588  22.414  12.689
71726ION    NA+36953  25.243   5.818  10.939
71727ION    NA+36954  29.706  28.831  10.866
71728ION    NA+36955  27.436   1.463   2.834
71729ION    NA+36956  10.580  40.868   2.430
71730ION    NA+36957  26.125  18.927  12.929
71731ION    NA+36958  17.314  20.071   4.628
71732ION    NA+36959  42.072  33.468  10.599
71733ION    NA+36960   7.915  44.173  11.666
71734ION    NA+36961  33.731  26.981   4.307
71735ION    NA+36962   2.320  26.447   0.313
71736ION    NA+36963  29.443   2.381   0.713
71737ION    NA+36964   7.952  25.888   1.869
71738ION    NA+36965  17.191   8.782  10.023
71739ION    NA+36966  34.366  25.078  14.429
71740ION    NA+36967  38.902   0.574   2.616
71741ION    NA+36968  27.186  42.568  14.791
71742ION    NA+36969  36.185  43.022  10.020
71743ION    NA+36970  10.070   4.175   1.674
71744ION    NA+36971   2.603  35.998   2.995
71745ION    NA+36972   0.056  10.019  11.254
71746ION    NA+36973  36.504   6.018  14.298
71747ION    NA+36974  37.094  34.086  10.752
71748ION    NA+36975   0.479   0.865   3.227
71749ION    NA+36976  26.890  24.213  14.573
71750ION    NA+36977  17.970  34.076  12.222
71751ION    NA+36978  33.964   6.676   4.605
71752ION    NA+36979   8.342  30.524   2.342
71753ION    NA+36980  33.209  21.489   3.386
71754ION    NA+36981  26.605   4.433  14.331
71755ION    NA+36982  32.749  26.902  14.446
71756ION    NA+36983   6.380  27.579  14.772
71757ION    NA+36984  37.170  25.731   3.211
71758ION    NA+36985  39.968  31.230   1.971
71759ION    NA+36986  37.480  27.752  12.914
71760ION    NA+36987  10.623   1.366   1.895
71761ION    NA+36988  32.500  16.561  12.355
71762ION    NA+36989  30.021  10.943  14.860
71763ION    NA+36990  42.585   7.740   2.227
71764ION    NA+36991  27.130   7.436  11.448
71765ION    NA+36992  29.519  26.663  14.540
71766ION    NA+36993  32.328  24.463   1.325
71767ION    NA+36994  28.270  44.857   2.494
71768ION    NA+36995  42.233  12.497  13.902
71769ION    NA+36996  32.739  22.341  10.049
71770ION    NA+36997  29.750  35.777  12.399
71771ION    NA+36998  17.557  15.358   2.415
71772ION    NA+36999  24.662  22.403  14.399
71773ION    NA+37000  21.712  35.567  14.199
71774ION    NA+37001  31.434  20.506   3.874
71775ION    NA+37002  39.439   5.615   4.947
71776ION    NA+37003  33.902   0.001   0.614
71777ION    NA+37004  11.693  18.767  11.386
71778ION    NA+37005  25.385  41.088   4.644
71779ION    NA+37006  42.485  28.410  12.035
71780ION    NA+37007   0.492   4.944  11.168
71781ION    NA+37008  33.660  22.087  12.429
71782ION    NA+37009  13.287  37.859   4.031
71783ION    NA+37010  35.890  21.104  14.930
71784ION    NA+37011  43.271  15.677  11.762
71785ION    NA+37012  31.347   2.595   0.290
71786ION    NA+37013  16.102  28.504   1.453
71787ION    NA+37014  25.026   2.134  14.836
71788ION    NA+37015  14.097  38.905   2.837
71789ION    NA+37016  35.001  23.875  13.933
71790ION    NA+37017  36.034  10.379  12.051
71791ION    NA+37018  41.247  27.946   5.081
71792ION    NA+37019   4.931  29.881  12.661
71793ION    NA+37020  10.263  10.522   2.907
71794ION    NA+37021   6.719  41.141  14.392
71795ION    NA+37022  12.991  29.306   1.487
71796ION    NA+37023   7.459  19.280   1.704
71797ION    NA+37024  44.999  41.243  11.185
71798ION    NA+37025  26.122  18.577   1.355
71799ION    NA+37026  22.995  16.318  12.182
71800ION    NA+37027  42.182  38.736  13.860
71801ION    NA+37028  33.355  27.154   0.145
71802ION    NA+37029  18.131  19.277  11.564
71803ION    NA+37030  44.223  43.508   1.148
71804ION    NA+37031  20.649  41.955   1.773
71805ION    NA+37032  14.804  15.114   1.212
71806ION    NA+37033  15.712  40.513  10.801
71807ION    NA+37034  21.183   1.333   3.333
71808ION    NA+37035  31.368  24.627  14.289
71809ION    NA+37036  13.820  40.274  14.116
71810ION    NA+37037  18.077  14.509   1.388
71811ION    NA+37038   8.748   6.405   1.452
71812ION    NA+37039  43.484  30.725   5.330
71813ION    NA+37040   5.177  26.913  10.303
71814ION    NA+37041  32.408  30.651   5.243
71815ION    NA+37042  40.305   1.217   2.701
71816ION    NA+37043  20.713  12.260  14.146
71817ION    NA+37044  16.423  27.256   1.744
71818ION    NA+37045   9.435   0.680  11.382
71819ION    NA+37046   0.919  27.252  12.573
71820ION    NA+37047  12.390  32.126   1.229
71821ION    NA+37048  41.112  34.379   4.082
71822ION    NA+37049   2.253  18.446   9.828
71823ION    NA+37050   0.889   1.728   9.733
71824ION    NA+37051   2.908  42.597   2.956
71825ION    NA+37052  25.574  20.081  14.049
71826ION    NA+37053  40.908  17.973  13.345
71827ION    NA+37054  12.491  10.850   1.598
71828ION    NA+37055   8.350  26.545   2.371
71829ION    NA+37056  24.800  20.742   3.898
71830ION    NA+37057  13.063  26.520   0.713
71831ION    NA+37058   8.723  37.413   1.063
71832ION    NA+37059  40.276  12.193  13.644
71833ION    NA+37060  34.872   8.440  11.358
71834ION    NA+37061  43.178  42.201   0.899
71835ION    NA+37062  14.206  44.399  14.058
71836ION    NA+37063  12.117  15.803   4.081
71837ION    NA+37064   6.491  40.295   4.143
71838ION    NA+37065   5.732  32.278  12.000
71839ION    NA+37066  29.822  24.286   4.626
71840ION    NA+37067  14.794   6.410   1.308
71841ION    NA+37068  40.499  20.738  13.166
71842ION    NA+37069  31.094  30.204   1.482
71843ION    NA+37070   1.687   8.186  12.523
71844ION    NA+37071  36.214  40.302   3.241
71845ION    NA+37072  34.440   7.250  14.134
71846ION    NA+37073  34.961  21.014  12.587
71847ION    NA+37074  42.729  30.971  12.931
71848ION    NA+37075  36.025   9.162   1.316
71849ION    NA+37076  30.484  19.259   1.331
71850ION    NA+37077  13.582  22.785   4.937
71851ION    NA+37078  14.418  11.577  14.142
71852ION    NA+37079   2.734  40.307   1.246
71853ION    NA+37080  13.112  40.665   4.106
71854ION    NA+37081  41.252   9.746  11.974
71855ION    NA+37082   3.039  15.552  12.378
71856ION    NA+37083  24.090  34.501   3.362
71857ION    NA+37084  40.522  40.450   0.487
71858ION    NA+37085  10.256  12.194  10.663
71859ION    NA+37086  33.601  32.247   3.357
71860ION    NA+37087   7.233   1.917   2.622
71861ION    NA+37088  44.917  30.733  10.047
71862ION    NA+37089  35.235   8.159   0.473
71863ION    NA+37090  14.352  19.759  10.773
71864ION    NA+37091  37.740  30.560   3.183
71865ION    NA+37092  38.220   7.414  12.218
71866ION    NA+37093  11.468  33.530  13.371
71867ION    NA+37094  25.708  42.097   2.506
71868ION    NA+37095  29.732  29.638  13.301
71869ION    NA+37096  25.596  24.747  12.150
71870ION    NA+37097  20.068  40.396   2.689
71871ION    NA+37098  14.893  23.575   3.823
71872ION    NA+37099  38.881   6.087  12.559
71873ION    NA+37100  30.813  21.732   1.951
71874ION    NA+37101  36.097  18.303  11.151
71875ION    NA+37102   2.617  43.156  13.353
71876ION    NA+37103  20.688   7.407  10.874
71877ION    NA+37104   2.304   8.186   4.190
71878ION    NA+37105  26.839  14.691  14.379
71879ION    NA+37106   2.792  16.063   0.339
71880ION    NA+37107  30.228   2.333   1.172
71881ION    NA+37108  31.059  16.676   2.326
71882ION    NA+37109  26.492  30.401   0.490
71883ION    NA+37110   9.296  11.654  13.053
71884ION    NA+37111   2.024  13.796   4.917
71885ION    NA+37112  38.594  10.666   4.597
71886ION    NA+37113  14.780  32.807  10.891
71887ION    NA+37114  24.563  37.827  14.335
71888ION    NA+37115  12.233   3.392   4.660
71889ION    NA+37116  33.458  20.952   2.580
71890ION    NA+37117   2.443  43.788   2.527
71891ION    NA+37118   9.116  23.583   2.368
71892ION    NA+37119  38.466  30.102   0.679
71893ION    NA+37120   4.524  42.737  12.547
71894ION    NA+37121  35.586  37.612   0.471
71895ION    NA+37122  43.352  42.997  11.806
71896ION    NA+37123  39.124   6.833  11.791
71897ION    NA+37124  39.083   0.343  14.316
71898ION    NA+37125  15.938  43.871   3.896
71899ION    NA+37126  33.464  13.571  11.855
71900ION    NA+37127  11.162  39.873   2.687
71901ION    NA+37128   9.897   3.874  11.284
71902ION    NA+37129   0.259  33.936   2.954
71903ION    NA+37130  17.816  26.502   2.577
71904ION    NA+37131  14.838  22.797  12.307
71905ION    NA+37132  35.874  40.095  10.219
71906ION    NA+37133  31.212  25.952   1.071
71907ION    NA+37134  19.941  33.455   1.203
71908ION    NA+37135  33.598  38.259  11.689
71909ION    NA+37136  12.788  24.647   0.498
71910ION    NA+37137  36.685  34.494  12.970
71911ION    NA+37138   6.664   1.241  13.466
71912ION    NA+37139  34.337  38.402  14.048
71913ION    NA+37140  32.389  10.293  12.479
71914ION    NA+37141   5.634  35.231   2.068
71915ION    NA+37142  11.502  10.709   1.653
71916ION    NA+37143  42.569  11.687   2.051
71917ION    NA+37144  34.579  44.048   1.840
71918ION    NA+37145  12.399  40.345  14.630
71919ION    NA+37146   4.296  42.993   2.874
71920ION    NA+37147   6.972  32.577  14.900
71921ION    NA+37148  43.290   6.683   2.689
71922ION    NA+37149  22.473  27.242  14.646
71923ION    NA+37150  31.542  34.442   9.961
71924ION    NA+37151  26.237  36.194  13.224
71925ION    NA+37152  37.585  20.305   3.292
71926ION    NA+37153  38.288  34.148  12.020
71927ION    NA+37154   4.320  39.949  13.121
71928ION    NA+37155  27.046   2.228   9.695
71929ION    NA+37156  26.569  28.178  12.909
71930ION    NA+37157  14.837   3.572  13.840
71931ION    NA+37158  38.936   9.519   1.036
71932ION    NA+37159  12.935  21.469   1.579
71933ION    NA+37160  38.153   1.688   9.472
71934ION    NA+37161  17.930  13.457  13.660
71935ION    NA+37162   6.116  13.405  11.345
71936ION    NA+37163  10.958   5.664  11.789
71937ION    NA+37164  41.852  12.641  12.080
71938ION    NA+37165  36.391  36.025  10.812
71939ION    NA+37166  21.917  44.143  12.555
71940ION    NA+37167   0.996  42.064  11.455
71941ION    NA+37168  43.316   8.866   0.283
71942ION    NA+37169   8.110   6.830  12.960
71943ION    NA+37170   1.389  38.529  13.604
71944ION    NA+37171  35.853   6.683   3.709
71945ION    NA+37172   2.963   2.476   2.867
71946ION    NA+37173   7.044   9.267   2.440
71947ION    NA+37174  21.347   6.138  12.511
71948ION    NA+37175  25.366  33.122   1.748
71949ION    NA+37176  11.097  27.365   1.186
71950ION    NA+37177  42.985  36.593   3.225
71951ION    NA+37178   6.313  37.100   4.605
71952ION    NA+37179  44.904  26.292  11.507
71953ION    NA+37180  31.692  27.782   3.062
71954ION    NA+37181   2.052   8.680   1.486
71955ION    NA+37182   8.857  31.920   2.036
71956ION    NA+37183  42.797  20.298  10.329
71957ION    NA+37184  35.717  42.423   2.528
71958ION    NA+37185   9.127  42.268   0.041
71959ION    NA+37186  38.323   4.695   1.415
71960ION    NA+37187  10.223  26.002  12.756
71961ION    NA+37188  30.241  37.225   0.738
71962ION    NA+37189   7.480  13.610   3.455
71963ION    NA+37190  18.680  20.337  11.067
71964ION    NA+37191   2.532  18.142  14.357
71965ION    NA+37192  44.531  41.207   3.688
71966ION    NA+37193  42.049  30.801   0.217
71967ION    NA+37194  18.482  11.596  14.485
71968ION    NA+37195  15.642  39.693   9.703
71969ION    NA+37196  44.704  35.459   1.189
71970ION    NA+37197   9.581  24.045  12.554
71971ION    NA+37198  41.438  19.263   4.270
71972ION    NA+37199  29.048  44.962  13.017
71973ION    NA+37200  13.270  23.706  11.278
71974ION    NA+37201   0.517  21.200  13.315
71975ION    NA+37202  33.719   6.415  13.478
71976ION    NA+37203   1.052  14.623   3.974
71977ION    NA+37204   3.637  43.522  13.692
71978ION    NA+37205  14.858  42.825   3.807
71979ION    NA+37206  44.346  19.610  12.829
71980ION    NA+37207   8.346  29.091   1.853
71981ION    NA+37208  37.986  35.711   1.403
71982ION    NA+37209  20.500  17.476  12.902
71983ION    NA+37210  30.158   9.938  12.109
71984ION    NA+37211  28.569   0.288  11.446
71985ION    NA+37212  33.862  17.934   4.149
71986ION    NA+37213  25.716   1.925  12.128
71987ION    NA+37214  11.672  35.236   4.329
71988ION    NA+37215  16.988  29.312   1.081
71989ION    NA+37216  26.381  32.364  12.367
71990ION    NA+37217  15.598  28.267  12.016
71991ION    NA+37218   8.120  16.034   3.771
71992ION    NA+37219  21.586  22.751  13.163
71993ION    NA+37220  18.102  27.137   4.503
71994ION    NA+37221  32.900  37.459  14.505
71995ION    NA+37222   6.009  30.536   4.324
71996ION    NA+37223  24.577  23.556  13.518
71997ION    NA+37224   4.306   5.215   9.792
71998ION    NA+37225  19.839   5.180  14.901
71999ION    NA+37226   0.419   0.202  14.231
72000ION    NA+37227   8.752  40.547  13.041
72001ION    NA+37228  12.007  10.567   3.472
72002ION    NA+37229  17.736  35.340  13.597
72003ION    NA+37230  26.394  22.733   1.604
72004ION    NA+37231  34.332  19.946   3.227
72005ION    NA+37232  21.832  21.552   1.975
72006ION    NA+37233  26.120   3.841  11.355
72007ION    NA+37234  28.701  38.763  11.918
72008ION    NA+37235  11.291  10.147   4.554
72009ION    NA+37236  37.069  22.040   0.316
72010ION    NA+37237  24.787  35.806   0.359
72011ION    NA+37238  27.463  43.807  11.992
72012ION    NA+37239  18.963   9.197   5.054
72013ION    NA+37240  23.285  23.812   0.753
72014ION    NA+37241  27.965  20.048  13.019
72015ION    NA+37242  11.892   0.930  13.037
72016ION    NA+37243  12.941  42.324  12.577
72017ION    NA+37244   6.532  27.593   1.601
72018ION    NA+37245  36.759  42.597  13.328
72019ION    NA+37246  16.033  33.406  14.299
72020ION    NA+37247  16.162  11.324  12.046
72021ION    NA+37248  30.125  11.858  14.338
72022ION    NA+37249  37.867  22.188  11.341
72023ION    NA+37250  44.273   2.764  10.066
72024ION    NA+37251  18.953  28.300  13.096
72025ION    NA+37252   3.725  30.676  12.023
72026ION    NA+37253   1.982   5.744   1.228
72027ION    NA+37254   9.751  38.616   1.470
72028ION    NA+37255  36.517   0.512  13.640
72029ION    NA+37256   2.774  41.870  14.060
72030ION    NA+37257  29.841  27.381   2.998
72031ION    NA+37258  27.189   2.189  13.768
72032ION    NA+37259   4.681  24.385  12.071
72033ION    NA+37260   0.341  44.055   3.741
72034ION    NA+37261  21.605  33.241   2.700
72035ION    NA+37262  15.480  42.017   4.861
72036ION    NA+37263   0.430   6.840  11.937
72037ION    NA+37264  16.681  38.307   1.882
72038ION    NA+37265   0.541  15.814   5.039
72039ION    NA+37266  40.558   1.277  14.460
72040ION    NA+37267  37.951  17.594   0.284
72041ION    NA+37268  37.245  35.835  11.267
72042ION    NA+37269  19.020  19.599  12.505
72043ION    NA+37270  12.277  31.866   2.090
72044ION    NA+37271  13.998  11.754   0.864
72045ION    NA+37272  42.615  15.626  14.366
72046ION    NA+37273  29.099  16.709  11.597
72047ION    NA+37274  26.785  40.560  12.683
72048ION    NA+37275  14.395  23.639  10.706
72049ION    NA+37276  41.352  36.724   0.768
72050ION    NA+37277  34.604   1.946   3.660
72051ION    NA+37278  38.482  30.905   3.758
72052ION    NA+37279  30.367   4.187   3.413
72053ION    NA+37280  36.174  13.394  14.363
72054ION    NA+37281  13.007  28.403   2.073
72055ION    NA+37282  32.711   2.863  13.833
72056ION    NA+37283   5.368  36.887   2.811
72057ION    NA+37284  20.600  28.494  13.736
72058ION    NA+37285  26.605   6.318   0.738
72059ION    NA+37286   3.923  39.965   3.182
72060ION    NA+37287  15.553   0.436   4.140
72061ION    NA+37288   8.702   7.721   5.236
72062ION    NA+37289  25.976  37.861  13.221
72063ION    NA+37290  11.817  22.348   3.195
72064ION    NA+37291  24.749  28.154  14.423
72065ION    NA+37292   8.143  20.819  12.209
72066ION    NA+37293  19.685  28.419   1.341
72067ION    NA+37294  16.764  40.946   2.554
72068ION    NA+37295  32.538   9.418  13.005
72069ION    NA+37296  42.798   3.765  13.973
72070ION    NA+37297  39.107  31.410  12.883
72071ION    NA+37298  30.863  22.074  11.769
72072ION    NA+37299   8.427  17.926   3.322
72073ION    NA+37300  20.326   8.310   2.485
72074ION    NA+37301  22.133   5.932  13.950
72075ION    NA+37302  11.779  30.660  10.660
72076ION    NA+37303   9.766   6.773   3.093
72077ION    NA+37304  12.857  40.190  13.856
72078ION    NA+37305  15.410  28.759   2.129
72079ION    NA+37306  37.046  34.831   1.238
72080ION    NA+37307  43.542  23.959  11.474
72081ION    NA+37308  26.943  13.706  13.517
72082ION    NA+37309  11.123  19.488   3.033
72083ION    NA+37310  13.025  25.202  12.553
72084ION    NA+37311   1.976   5.633   3.993
72085ION    NA+37312  24.573  29.942   1.364
72086ION    NA+37313  39.390  35.956   5.048
72087ION    NA+37314  44.304   3.354   4.016
72088ION    NA+37315   9.316  24.710  11.564
72089ION    NA+37316  16.001   5.944   0.268
72090ION    NA+37317   2.837  42.235   4.823
72091ION    NA+37318  25.911  35.133   4.670
72092ION    NA+37319  38.688  36.357   2.247
72093ION    NA+37320   7.417  27.689   3.532
72094ION    NA+37321  34.426  22.308   0.490
72095ION    NA+37322  32.918  32.432   0.063
72096ION    NA+37323  40.421  12.521  10.818
72097ION    NA+37324  31.485   8.904   2.750
72098ION    NA+37325   4.798  16.627  11.927
72099ION    NA+37326   5.741  42.784   1.220
72100ION    NA+37327  30.031  33.926  14.478
72101ION    NA+37328   1.664  39.983  11.956
72102ION    NA+37329  41.974   8.440   2.681
72103ION    NA+37330  12.874   8.313   1.817
72104ION    NA+37331  26.631  36.818   3.300
72105ION    NA+37332  21.870   6.710   2.146
72106ION    NA+37333  20.249  16.551   0.217
72107ION    NA+37334   3.629  38.229   1.863
72108ION    NA+37335  32.179   1.582   4.411
72109ION    NA+37336  44.512  26.370   3.275
72110ION    NA+37337  19.350  33.283   5.122
72111ION    NA+37338   8.800  34.534   4.538
72112ION    NA+37339  35.946  18.527   0.446
72113ION    NA+37340  14.215   9.359  14.054
72114ION    NA+37341  10.237  44.747  11.089
72115ION    NA+37342  21.664   1.203  14.821
72116ION    NA+37343  41.000  29.241   0.110
72117ION    NA+37344   3.198  20.401  10.256
72118ION    NA+37345  10.470  10.828   5.056
72119ION    NA+37346  43.311  18.158   3.668
72120ION    NA+37347  25.572  30.845  13.972
72121ION    NA+37348  36.556  38.595   0.182
72122ION    NA+37349  43.922  36.281  10.742
72123ION    NA+37350  22.018  12.343   4.105
72124ION    NA+37351  12.692   0.823  13.689
72125ION    NA+37352  15.356  23.885   2.058
72126ION    NA+37353  12.357  21.466   0.861
72127ION    NA+37354  14.085  41.987   4.098
72128ION    NA+37355  23.896  26.840   1.613
72129ION    NA+37356  44.346  31.687   4.203
72130ION    NA+37357   2.759   1.227  11.845
72131ION    NA+37358  28.055   7.807   2.758
72132ION    NA+37359  15.205  19.525   2.628
72133ION    NA+37360  14.596  39.626   2.243
72134ION    NA+37361  21.474  29.798   2.205
72135ION    NA+37362  24.019  32.926  14.864
72136ION    NA+37363   7.156   7.458  13.696
72137ION    NA+37364  31.469  38.078  11.142
72138ION    NA+37365  16.165  43.475  14.730
72139ION    NA+37366  44.325  44.870  14.534
72140ION    NA+37367   0.669  32.297  14.383
72141ION    NA+37368  29.739  13.223  14.545
72142ION    NA+37369  44.572  14.479   0.213
72143ION    NA+37370  21.747   4.239  11.393
72144ION    NA+37371  16.374  24.154   3.287
72145ION    NA+37372  31.897  11.248  13.864
72146ION    NA+37373  37.388   0.789  13.040
72147ION    NA+37374  24.671   1.064   3.520
72148ION    NA+37375  22.635   7.249  12.151
72149ION    NA+37376  37.821   9.527   5.485
72150ION    NA+37377  23.754   4.647  12.488
72151ION    NA+37378   4.267  30.485  13.643
72152ION    NA+37379  20.574  37.394   2.405
72153ION    NA+37380   5.489  44.903  14.646
72154ION    NA+37381  41.132   8.608  13.937
72155ION    NA+37382  26.468  12.722  10.801
72156ION    NA+37383   0.537  33.300   2.040
72157ION    NA+37384  39.970  44.294   0.081
72158ION    NA+37385   7.838   6.375   3.112
72159ION    NA+37386  40.265  17.835   2.311
72160ION    NA+37387  23.179  39.620  10.983
72161ION    NA+37388  24.532  18.139   0.891
72162ION    NA+37389  19.012  36.006   3.481
72163ION    NA+37390  20.109  21.353   1.283
72164ION    NA+37391  11.209   6.615   2.609
72165ION    NA+37392   2.852   2.557   1.526
72166ION    NA+37393  11.709  13.775   0.847
72167ION    NA+37394   9.237  12.439  14.708
72168ION    NA+37395   3.532  30.016   2.648
72169ION    NA+37396  30.181  12.496   0.106
72170ION    NA+37397  22.203  21.296   1.278
72171ION    NA+37398  16.235  12.665  12.570
72172ION    NA+37399  29.515  21.480   1.376
72173ION    NA+37400  34.393  21.369   2.735
72174ION    NA+37401  23.899  10.186  13.359
72175ION    NA+37402  42.051  32.063   3.117
72176ION    NA+37403  16.543   4.922  13.332
72177ION    NA+37404  42.937   2.887   1.405
72178ION    NA+37405  23.231  40.558   4.698
72179ION    NA+37406   7.319  33.892   2.347
72180ION    NA+37407  12.153   9.639   4.552
72181ION    NA+37408   8.602  24.807  14.774
72182ION    NA+37409  14.384  16.664  11.224
72183ION    NA+37410  18.792   0.791   4.595
72184ION    NA+37411  14.161  25.305  10.881
72185ION    NA+37412  38.903  37.071  13.467
72186ION    NA+37413  19.713   9.892   4.123
72187ION    NA+37414  35.325  37.469  12.028
72188ION    NA+37415  38.357  11.545  13.643
72189ION    NA+37416  26.032  41.367   0.301
72190ION    NA+37417  14.955  37.577  11.601
72191ION    NA+37418   1.253  39.454  12.551
72192ION    NA+37419  15.203  14.998  14.744
72193ION    NA+37420  11.056   0.905   4.854
72194ION    NA+37421   8.042  26.888   3.336
72195ION    NA+37422  35.316  13.255  13.421
72196ION    NA+37423  21.398   6.519   0.314
72197ION    NA+37424  13.179   0.350   4.099
72198ION    NA+37425  10.162   5.147  12.103
72199ION    NA+37426   6.521  30.176  13.149
72200ION    NA+37427  37.984  29.998  11.592
72201ION    NA+37428  11.093   6.382   4.123
72202ION    NA+37429  11.762  38.433  14.030
72203ION    NA+37430   0.715  24.156  13.723
72204ION    NA+37431  23.677  24.446   4.609
72205ION    NA+37432  14.253  18.046  13.542
72206ION    NA+37433  43.588  17.354   1.964
72207ION    NA+37434  10.350  26.425   4.247
72208ION    NA+37435  21.460   0.392   2.109
72209ION    NA+37436  39.363  29.571   1.742
72210ION    NA+37437  12.378  10.173   0.828
72211ION    NA+37438   0.646  24.577   2.376
72212ION    NA+37439  11.666  11.025  10.803
72213ION    NA+37440  35.979  24.905  14.212
72214ION    NA+37441   8.793  35.829   3.192
72215ION    NA+37442  24.667  14.757   2.600
72216ION    NA+37443   2.493   9.842   3.629
72217ION    NA+37444  24.431  28.509  11.538
72218ION    NA+37445   4.453  25.283  12.673
72219ION    NA+37446  28.932  37.815  12.137
72220ION    NA+37447   6.762  22.412   4.249
72221ION    NA+37448  41.556  32.863  14.522
72222ION    NA+37449  18.137   0.842   2.099
72223ION    NA+37450   5.663  44.582  13.809
72224ION    NA+37451  17.735  12.689   0.105
72225ION    NA+37452  11.729  38.438   3.027
72226ION    NA+37453   0.786  43.590  12.893
72227ION    NA+37454  41.338  37.702   0.977
72228ION    NA+37455  29.823  15.610   2.584
72229ION    NA+37456   8.938  32.034   0.172
72230ION    CL-37457  16.106  12.258  11.456
72231ION    CL-37458  30.644  14.216   1.181
72232ION    CL-37459  40.285  32.002  10.700
72233ION    CL-37460  39.560   2.291   0.272
72234ION    CL-37461  23.639  19.329   1.370
72235ION    CL-37462   5.637  44.141  10.706
72236ION    CL-37463   9.579   2.300   1.771
72237ION    CL-37464  36.798  44.697   4.033
72238ION    CL-37465  44.333  32.230  12.008
72239ION    CL-37466   2.573  36.018   2.550
72240ION    CL-37467  44.235   8.822  10.731
72241ION    CL-37468  17.270  30.222  14.865
72242ION    CL-37469  41.959   4.429   4.441
72243ION    CL-37470  27.345   1.775  13.886
72244ION    CL-37471  42.288  15.090   1.157
72245ION    CL-37472  38.399  23.900  14.430
72246ION    CL-37473  34.808   8.580  14.443
72247ION    CL-37474  31.376   4.903  10.324
72248ION    CL-37475  24.172   0.755   4.369
72249ION    CL-37476  31.915  23.492  11.532
72250ION    CL-37477  34.060  28.469  11.119
72251ION    CL-37478   6.329  41.331  14.290
72252ION    CL-37479  36.600   0.535  14.079
72253ION    CL-37480  22.006   0.420   5.553
72254ION    CL-37481  19.303  38.848  11.690
72255ION    CL-37482  11.310  15.408   1.153
72256ION    CL-37483  25.796  30.381   2.004
72257ION    CL-37484   9.742  35.320  12.159
72258ION    CL-37485  12.907  15.279   0.374
72259ION    CL-37486   0.354  44.911  13.899
72260ION    CL-37487  24.263   7.307  14.370
72261ION    CL-37488  17.249  21.868  13.530
72262ION    CL-37489  17.445  44.228  10.107
72263ION    CL-37490   8.462  36.065  14.828
72264ION    CL-37491  19.384  33.636  11.237
72265ION    CL-37492   5.161   1.008  11.484
72266ION    CL-37493   3.813  31.949   2.826
72267ION    CL-37494  18.941   0.131   3.092
72268ION    CL-37495  31.949  37.636  12.069
72269ION    CL-37496  12.671  40.214  14.272
72270ION    CL-37497  39.890  11.968  13.642
72271ION    CL-37498  13.194  11.740  12.490
72272ION    CL-37499  40.254  31.444   1.704
72273ION    CL-37500  12.144  40.596  14.910
72274ION    CL-37501  17.750   9.112   1.485
72275ION    CL-37502  39.827  31.103   4.134
72276ION    CL-37503  18.157  27.103  13.064
72277ION    CL-37504   0.884   9.507  10.419
72278ION    CL-37505   9.183  32.280  11.959
72279ION    CL-37506  32.697  31.069  13.289
72280ION    CL-37507   9.304  23.853  14.428
72281ION    CL-37508  43.751  32.973   3.696
72282ION    CL-37509  12.059  16.216   3.899
72283ION    CL-37510   6.763   0.937  13.155
72284ION    CL-37511  21.444  31.729   4.173
72285ION    CL-37512  33.949  14.283   4.412
72286ION    CL-37513  44.465  44.600   1.871
72287ION    CL-37514  39.900  14.463  14.243
72288ION    CL-37515  39.734  30.332  11.274
72289ION    CL-37516   7.760   0.238   4.643
72290ION    CL-37517  20.046  24.929   0.272
72291ION    CL-37518  11.308  19.297  14.952
72292ION    CL-37519   2.622  43.623   2.155
72293ION    CL-37520  22.782  29.141  10.495
72294ION    CL-37521  16.527  40.128  14.030
72295ION    CL-37522  41.040  20.482   4.455
72296ION    CL-37523  14.504  15.292   1.504
72297ION    CL-37524  25.972  41.154  11.410
72298ION    CL-37525  24.882  25.570  14.855
72299ION    CL-37526  24.257  22.453  14.180
72300ION    CL-37527   3.234  25.458   4.099
72301ION    CL-37528   1.541  25.206  11.460
72302ION    CL-37529  25.744  22.150   3.433
72303ION    CL-37530  35.587  24.794  14.028
72304ION    CL-37531  30.447   8.644  11.362
72305ION    CL-37532   5.435  40.775  12.904
72306ION    CL-37533   3.781   0.015  12.351
72307ION    CL-37534  16.828  23.021  12.224
72308ION    CL-37535  17.950  25.488   4.957
72309ION    CL-37536  30.691  16.846   4.490
72310ION    CL-37537  26.076  39.993   2.110
72311ION    CL-37538   3.268  32.883   0.446
72312ION    CL-37539  32.937   3.322  11.264
72313ION    CL-37540  23.461  36.466  11.691
72314ION    CL-37541   6.293  13.038  11.544
72315ION    CL-37542   5.923   6.967   4.942
72316ION    CL-37543   7.254   7.800   2.405
72317ION    CL-37544  28.438  33.987   3.883
72318ION    CL-37545  33.752  17.975  12.435
72319ION    CL-37546  41.393  40.486   3.683
72320ION    CL-37547  20.698  35.307  13.640
72321ION    CL-37548  29.925  16.847  12.820
72322ION    CL-37549  28.137  15.957  11.944
72323ION    CL-37550  29.712  26.767  12.080
72324ION    CL-37551  18.003   0.638   1.697
72325ION    CL-37552   2.213   7.289  10.550
72326ION    CL-37553  17.863  13.119   4.069
72327ION    CL-37554  28.175  20.308  13.317
72328ION    CL-37555   6.237  20.896  12.097
72329ION    CL-37556  43.026   7.378  13.520
72330ION    CL-37557   9.411  24.650   1.067
72331ION    CL-37558  21.158  27.188   1.916
72332ION    CL-37559  12.394  10.389   3.612
72333ION    CL-37560  18.565  27.635  14.843
72334ION    CL-37561   6.258  35.660  10.810
72335ION    CL-37562  44.037  17.062  14.549
72336ION    CL-37563  30.555  38.353   1.517
72337ION    CL-37564  23.726  39.434   0.863
72338ION    CL-37565  18.533  12.725  12.560
72339ION    CL-37566   8.335  15.113   2.284
72340ION    CL-37567   0.246   3.989  14.953
72341ION    CL-37568  38.534  25.721   3.417
72342ION    CL-37569   3.469  36.001   2.070
72343ION    CL-37570  21.488  10.831   4.043
72344ION    CL-37571  16.055   8.708   1.458
72345ION    CL-37572  32.119  32.534   2.088
72346ION    CL-37573   2.868  25.661  11.007
72347ION    CL-37574  42.304  18.964   1.750
72348ION    CL-37575  24.039  26.465  12.640
72349ION    CL-37576  40.230  42.611  14.391
72350ION    CL-37577  42.181  15.261   2.573
72351ION    CL-37578   8.393   2.828   2.406
72352ION    CL-37579  38.554   3.622  10.998
72353ION    CL-37580   0.943   2.465   4.884
72354ION    CL-37581   0.645   0.863  11.346
72355ION    CL-37582  10.414  34.468   0.960
72356ION    CL-37583  14.738  33.077   4.529
72357ION    CL-37584  44.077   4.728   3.292
72358ION    CL-37585  43.364  12.952   4.278
72359ION    CL-37586  28.921   0.113  11.660
72360ION    CL-37587  21.573  39.091   2.732
72361ION    CL-37588   5.398  39.365  13.570
72362ION    CL-37589  36.202  24.998  10.948
72363ION    CL-37590  34.735  28.769   0.372
72364ION    CL-37591  21.706   1.509  14.489
72365ION    CL-37592  33.287  38.384  11.982
72366ION    CL-37593  34.957  39.677   5.028
72367ION    CL-37594   0.847   8.967   9.803
72368ION    CL-37595  31.015  29.782   1.605
72369ION    CL-37596  16.263   4.393  10.704
72370ION    CL-37597  30.563  41.408  13.012
72371ION    CL-37598  22.111  35.581  14.402
72372ION    CL-37599   8.876  24.989   3.186
72373ION    CL-37600   2.700  42.660   3.359
72374ION    CL-37601  20.443  43.945   2.729
72375ION    CL-37602  13.121   5.394   0.397
72376ION    CL-37603  19.479  43.908  13.156
72377ION    CL-37604  10.590  20.507  14.976
72378ION    CL-37605  26.032   5.937  10.287
72379ION    CL-37606  25.160  26.777  12.849
72380ION    CL-37607  40.893  12.788  14.200
72381ION    CL-37608  18.885  11.043  10.486
72382ION    CL-37609  16.859   4.391   4.790
72383ION    CL-37610  21.358  26.210   9.934
72384ION    CL-37611  43.288   7.327  12.150
72385ION    CL-37612  34.531   9.644   1.696
72386ION    CL-37613  29.392  19.684  12.832
72387ION    CL-37614  36.032  40.996   0.483
72388ION    CL-37615  26.035  41.815   0.285
72389ION    CL-37616   1.732  17.841  13.038
72390ION    CL-37617  22.909  39.239  12.820
72391ION    CL-37618  14.597   6.666  10.243
72392ION    CL-37619  33.809   0.406   0.445
72393ION    CL-37620  23.688  23.156  10.904
72394ION    CL-37621  36.519  14.181  10.811
72395ION    CL-37622  26.433  20.773   1.162
72396ION    CL-37623  10.740  28.665  10.876
72397ION    CL-37624   9.832  20.876  10.417
72398ION    CL-37625  40.635  44.353   2.033
72399ION    CL-37626   8.685  24.647   0.187
72400ION    CL-37627  39.578  13.477  11.937
72401ION    CL-37628   1.395  39.750  12.239
72402ION    CL-37629   1.289   7.099   0.900
72403ION    CL-37630   8.255   4.412  13.071
72404ION    CL-37631  23.565  34.270  14.707
72405ION    CL-37632  44.154  10.435   3.545
72406ION    CL-37633  41.698  26.598   1.316
72407ION    CL-37634  30.858   2.375   9.979
72408ION    CL-37635  30.313  41.172  11.763
72409ION    CL-37636  20.117   5.487  13.410
72410ION    CL-37637  15.808  13.686   0.824
72411ION    CL-37638  26.208  19.810  10.477
72412ION    CL-37639  10.025  37.882  12.711
72413ION    CL-37640  10.134  42.660  12.690
72414ION    CL-37641  40.692  16.428  10.891
72415ION    CL-37642  12.684  21.473   1.199
72416ION    CL-37643  23.729   2.529   3.968
72417ION    CL-37644  38.308  19.975   0.857
72418ION    CL-37645  29.325  16.682  13.603
72419ION    CL-37646  44.230  35.959  13.481
72420ION    CL-37647   0.398   3.125   0.433
72421ION    CL-37648  31.873  22.414  12.436
72422ION    CL-37649  35.817  44.151  11.210
72423ION    CL-37650  11.206  22.171   0.049
72424ION    CL-37651  35.014   0.134   1.026
72425ION    CL-37652  31.347  34.978  14.759
72426ION    CL-37653  31.993   3.507  12.121
72427ION    CL-37654  22.733  40.895  13.052
72428ION    CL-37655   9.175  35.682   3.373
72429ION    CL-37656  38.428  32.366  10.344
72430ION    CL-37657   0.366  20.001  13.546
72431ION    CL-37658   7.238  44.690   3.690
72432ION    CL-37659  11.416  15.080  11.343
72433ION    CL-37660  11.303  20.769   0.334
72434ION    CL-37661  26.392  14.421   5.012
72435ION    CL-37662  40.721   8.431  14.029
72436ION    CL-37663  26.331   1.641   1.943
72437ION    CL-37664   1.144  17.943  11.969
72438ION    CL-37665  29.168  17.252   2.281
72439ION    CL-37666  20.907  40.234   0.031
72440ION    CL-37667   9.703  25.256   2.685
72441ION    CL-37668  33.827   1.449  14.778
72442ION    CL-37669   2.222   5.857   3.678
72443ION    CL-37670   5.573  44.772  14.217
72444ION    CL-37671   6.129  12.921  13.005
72445ION    CL-37672  34.044  13.275  13.347
72446ION    CL-37673  36.507  19.556  11.136
72447ION    CL-37674  33.141  15.666   3.403
72448ION    CL-37675   7.414  22.994   1.822
72449ION    CL-37676  40.856  38.393   0.041
72450ION    CL-37677  31.943   4.818   4.816
72451ION    CL-37678  19.071  31.304  14.989
72452ION    CL-37679  26.733  28.063   3.291
72453ION    CL-37680  27.021  21.686   3.859
72454ION    CL-37681  17.029  29.479  11.034
72455ION    CL-37682  33.816  36.406   2.377
72456ION    CL-37683  36.250  33.666  12.263
72457ION    CL-37684   5.937  14.162   1.643
72458ION    CL-37685  32.076  32.328  11.644
72459ION    CL-37686  35.221  42.826   4.941
72460ION    CL-37687  40.849   2.941   3.387
72461ION    CL-37688   5.110   0.964   3.659
72462ION    CL-37689  10.563  21.413   0.158
72463ION    CL-37690  27.917   0.022  14.004
72464ION    CL-37691  40.530  20.535   3.537
72465ION    CL-37692  22.138  30.592  11.579
72466ION    CL-37693  16.329  15.217   2.527
72467ION    CL-37694  13.308  35.764   5.051
72468ION    CL-37695   3.737  31.542  13.029
72469ION    CL-37696  12.302   7.398  14.743
72470ION    CL-37697  31.610  25.846   0.897
72471ION    CL-37698  26.389  12.948   1.714
72472ION    CL-37699   1.460   0.201  14.134
72473ION    CL-37700   4.028   7.149  11.066
72474ION    CL-37701  42.567  26.890   1.438
72475ION    CL-37702   9.813  10.410   1.342
72476ION    CL-37703   5.962  23.465   1.803
72477ION    CL-37704  15.342  23.575  13.882
72478ION    CL-37705   8.341  43.806   3.426
72479ION    CL-37706  11.752  18.316   3.188
72480ION    CL-37707   4.968  37.350   9.821
72481ION    CL-37708  36.894  24.452   0.368
72482ION    CL-37709  18.306   4.593  10.373
72483ION    CL-37710  20.897  11.367   2.145
72484ION    CL-37711  13.542  44.322  12.862
72485ION    CL-37712  14.052  43.351   2.659
72486ION    CL-37713  21.934   4.003  11.724
72487ION    CL-37714  40.960  23.353  14.427
72488ION    CL-37715  26.254  36.643  10.757
72489ION    CL-37716  27.246  42.114  14.774
72490ION    CL-37717  22.753  29.793  11.253
72491ION    CL-37718  28.040  36.454   3.527
72492ION    CL-37719  18.626  38.667   0.998
72493ION    CL-37720  34.187  25.104   2.171
72494ION    CL-37721  31.086  29.425  12.977
72495ION    CL-37722  17.484  43.799  13.632
72496ION    CL-37723  15.055  35.124   0.212
72497ION    CL-37724  44.260   8.977  14.312
72498ION    CL-37725  18.213  33.490   3.970
72499ION    CL-37726  16.827   2.485   4.135
72500ION    CL-37727  23.769  23.478  11.848
72501ION    CL-37728   1.137   9.748  13.142
72502ION    CL-37729  20.188  43.255   0.008
72503ION    CL-37730  37.669  30.129   3.271
72504ION    CL-37731  16.683  14.678  13.483
72505ION    CL-37732  20.583  38.043  12.442
72506ION    CL-37733  16.753  18.486   2.101
72507ION    CL-37734  31.907  35.200  12.521
72508ION    CL-37735  21.821  21.292   1.551
72509ION    CL-37736  29.417  19.515   2.379
72510ION    CL-37737   2.626   2.423  11.236
72511ION    CL-37738  29.939  23.565  10.101
72512ION    CL-37739  42.573  17.462   2.226
72513ION    CL-37740  34.907  43.159  11.044
72514ION    CL-37741   0.967  42.604  14.900
72515ION    CL-37742  37.340  10.600   0.830
72516ION    CL-37743   6.416  41.216   2.913
72517ION    CL-37744  43.425  29.044  14.831
72518ION    CL-37745  11.098  19.573   1.302
72519ION    CL-37746  27.092  37.862  11.166
72520ION    CL-37747  29.978  35.897   3.372
72521ION    CL-37748  17.110  33.476   4.067
72522ION    CL-37749   0.471  34.149   0.262
72523ION    CL-37750  32.922  27.002   0.057
72524ION    CL-37751  26.826  38.620   1.877
72525ION    CL-37752  40.808  25.211  12.080
72526ION    CL-37753   6.336  12.256   3.553
72527ION    CL-37754  37.066  25.629  10.685
72528ION    CL-37755  44.100  41.501  10.734
72529ION    CL-37756   3.886  28.038   2.342
72530ION    CL-37757  34.673  37.820  14.801
72531ION    CL-37758  38.601  32.336   2.829
72532ION    CL-37759  34.596  13.274  14.181
72533ION    CL-37760   6.300  29.783   3.283
72534ION    CL-37761  32.729  33.803  11.680
72535ION    CL-37762  39.964   7.027  13.000
72536ION    CL-37763  12.736   3.145   1.653
72537ION    CL-37764  14.312  37.583  10.593
72538ION    CL-37765  17.474  25.965  14.123
72539ION    CL-37766  29.893   0.697   4.972
72540ION    CL-37767  24.254  29.941   1.051
72541ION    CL-37768  21.894  44.561  12.406
72542ION    CL-37769  19.016  28.739  13.045
72543ION    CL-37770  36.023  41.822   4.119
72544ION    CL-37771  23.143   2.346   3.174
72545ION    CL-37772  26.158  25.451   0.349
72546ION    CL-37773  31.851  38.254  11.289
72547ION    CL-37774  27.770  32.800  14.885
72548ION    CL-37775  44.108  33.252   4.645
72549ION    CL-37776  18.632  39.832  14.659
72550ION    CL-37777   3.471  19.346   2.947
72551ION    CL-37778  37.586  44.224   0.870
72552ION    CL-37779   6.276  25.265   5.204
72553ION    CL-37780  16.179  18.153  12.851
72554ION    CL-37781   5.593  14.894  10.730
72555ION    CL-37782  22.643  36.630   4.103
72556ION    CL-37783  34.965  35.428  10.279
72557ION    CL-37784  41.281  34.221  11.585
72558ION    CL-37785   7.561  27.025  11.705
72559ION    CL-37786  22.780  28.964   3.075
72560ION    CL-37787  33.628  31.381  10.908
72561ION    CL-37788  23.633  12.177   1.961
72562ION    CL-37789  10.728  31.057  12.351
72563ION    CL-37790   9.648   0.112   4.529
72564ION    CL-37791  31.249  35.582  14.098
72565ION    CL-37792   4.144   1.958   3.345
72566ION    CL-37793  14.297  13.427   0.032
72567ION    CL-37794  35.084  19.270   1.176
72568ION    CL-37795  25.038  22.212  14.569
72569ION    CL-37796   2.796  29.724   1.929
72570ION    CL-37797  28.892   1.092   2.679
72571ION    CL-37798  30.622   4.314   4.549
72572ION    CL-37799  16.311  30.693   3.228
72573ION    CL-37800   0.439  19.475  14.394
72574ION    CL-37801  38.555  11.309  13.305
72575ION    CL-37802  41.007  31.543   2.407
72576ION    CL-37803  28.532  36.918   2.400
72577ION    CL-37804   6.244  22.993  13.978
72578ION    CL-37805  29.923  10.560  10.061
72579ION    CL-37806  13.497  24.395   1.202
72580ION    CL-37807  10.548  15.570  12.517
72581ION    CL-37808  25.231   7.538  13.581
72582ION    CL-37809  25.350  30.632  13.649
72583ION    CL-37810  29.172   7.617  11.661
72584ION    CL-37811  32.329  14.330  11.275
72585ION    CL-37812  20.649  26.327   1.662
72586ION    CL-37813  11.601  11.828  12.065
72587ION    CL-37814  25.969  15.123   2.719
72588ION    CL-37815  21.445   0.158   0.836
72589ION    CL-37816  44.008   5.384  12.654
72590ION    CL-37817  20.379  43.212  13.965
72591ION    CL-37818  37.074  10.967  13.855
72592ION    CL-37819  31.338  42.102  11.329
72593ION    CL-37820  15.208  24.675  10.926
72594ION    CL-37821   4.497   5.909   4.548
72595ION    CL-37822  35.645  28.563   1.285
72596ION    CL-37823  26.795  16.966   1.145
72597ION    CL-37824  24.152   0.979  12.326
72598ION    CL-37825   8.759  31.795   2.455
72599ION    CL-37826  24.792  17.939   1.193
72600ION    CL-37827   6.939   9.194   2.013
72601ION    CL-37828  34.775  44.372   3.266
72602ION    CL-37829  14.668  33.042  12.538
72603ION    CL-37830   3.012  44.406   3.643
72604ION    CL-37831  16.504  30.076  13.265
72605ION    CL-37832   9.264  14.875   0.034
72606ION    CL-37833  12.479  21.692   3.932
72607ION    CL-37834  17.103  17.653  10.690
72608ION    CL-37835  44.836  22.603  14.233
72609ION    CL-37836  42.475  17.778   1.150
72610ION    CL-37837  42.642  41.375   4.843
72611ION    CL-37838  20.152   7.622   4.136
72612ION    CL-37839  44.010   7.452  11.338
72613ION    CL-37840  18.192  29.432  14.937
72614ION    CL-37841  39.056  11.014   3.265
72615ION    CL-37842  41.893  32.351   2.789
72616ION    CL-37843  15.022  35.826  13.523
72617ION    CL-37844  19.923  37.995  14.376
72618ION    CL-37845  42.560  25.135  12.781
72619ION    CL-37846   5.782  33.139   4.636
72620ION    CL-37847  29.433  34.125   5.067
72621ION    CL-37848  25.799  16.023  11.962
72622ION    CL-37849  12.820   8.881  14.961
72623ION    CL-37850  11.356  38.420  11.747
72624ION    CL-37851  40.104  23.065  14.436
72625ION    CL-37852   9.266  27.472   0.482
72626ION    CL-37853  30.330  27.510   0.726
72627ION    CL-37854  21.488  33.114   0.624
72628ION    CL-37855  34.039  31.057  12.579
72629ION    CL-37856  40.780  13.797  12.570
72630ION    CL-37857  44.689  29.037  13.237
72631ION    CL-37858  34.682  36.947   0.289
72632ION    CL-37859   1.660  17.964   4.670
72633ION    CL-37860  14.360  25.743   1.779
72634ION    CL-37861  16.824  25.784  13.385
72635ION    CL-37862  38.333  36.946  12.547
72636ION    CL-37863   0.466  28.785  14.377
72637ION    CL-37864  17.210  12.820   1.617
72638ION    CL-37865  27.422  33.345   4.289
72639ION    CL-37866  32.528  23.440  14.049
72640ION    CL-37867  24.135  36.396  10.899
72641ION    CL-37868  41.952   9.783  13.912
72642ION    CL-37869  26.719  35.768   1.891
72643ION    CL-37870  44.707  17.113   3.059
72644ION    CL-37871  11.966  30.389  14.351
72645ION    CL-37872  17.210  44.990  14.810
72646ION    CL-37873  13.523   6.629  12.183
72647ION    CL-37874  24.990  16.044  14.724
72648ION    CL-37875  37.143   2.809  12.621
72649ION    CL-37876   4.798  41.527  11.694
72650ION    CL-37877  30.581  35.409   1.202
72651ION    CL-37878  16.908   6.564  14.330
72652ION    CL-37879  31.817  11.375   3.579
72653ION    CL-37880  17.323  19.040  13.919
72654ION    CL-37881  21.149  28.629   5.053
72655ION    CL-37882  14.077  38.352   1.227
72656ION    CL-37883  43.848  32.088  13.572
72657ION    CL-37884  26.734  20.466  12.643
72658ION    CL-37885   2.635  20.486  14.530
72659ION    CL-37886  23.887  27.145  11.923
72660ION    CL-37887   0.502  12.766   0.916
72661ION    CL-37888  31.922  21.996  11.464
72662ION    CL-37889   5.716  16.982  13.845
72663ION    CL-37890  16.031  27.019   1.674
72664ION    CL-37891  26.070  35.026  11.692
72665ION    CL-37892  26.590  14.972  14.122
72666ION    CL-37893  40.851  28.240  11.156
72667ION    CL-37894   4.179  39.009  14.110
72668ION    CL-37895   6.690  36.693   2.448
72669ION    CL-37896  23.241  28.937   1.728
72670ION    CL-37897   7.841  12.345  11.592
72671ION    CL-37898  23.051  23.738   1.126
72672ION    CL-37899  12.153  15.405   4.307
72673ION    CL-37900  20.380  42.143   1.457
72674ION    CL-37901   1.193   1.897   1.689
72675ION    CL-37902  24.277  25.115  12.033
72676ION    CL-37903  29.966   0.868   2.135
72677ION    CL-37904  17.213  26.073   0.092
72678ION    CL-37905  35.108   2.416   2.205
72679ION    CL-37906  26.058  23.462   3.401
72680ION    CL-37907  36.455  27.111  14.476
72681ION    CL-37908  29.513   2.561   2.688
72682ION    CL-37909   5.014  40.360   0.427
72683ION    CL-37910   3.002  25.357   0.481
72684ION    CL-37911  19.834  29.669  11.705
72685ION    CL-37912  26.910  19.272   2.447
72686ION    CL-37913   5.619  26.738  14.009
72687ION    CL-37914  14.976  42.332  14.072
72688ION    CL-37915  26.071  35.218   1.365
72689ION    CL-37916  35.820  29.049   2.672
72690ION    CL-37917  38.877  39.429  10.153
72691ION    CL-37918  40.018  15.303   0.022
72692ION    CL-37919   8.224  27.086  10.838
72693ION    CL-37920  36.851  13.216  13.607
72694ION    CL-37921  22.095  14.883  13.524
72695ION    CL-37922  36.295  24.187   3.321
72696ION    CL-37923  33.468  34.334   3.287
72697ION    CL-37924  43.789  43.210   3.719
72698ION    CL-37925  18.969   7.938  14.975
72699ION    CL-37926  26.940   5.857  11.807
72700ION    CL-37927  18.590   0.975   2.161
72701ION    CL-37928  26.842  25.894  13.732
72702ION    CL-37929  23.620  19.756  11.208
72703ION    CL-37930  19.817  21.079  13.427
72704ION    CL-37931  24.727  20.723   3.454
72705ION    CL-37932  37.250  14.465  13.898
72706ION    CL-37933  27.703  19.276  13.904
72707ION    CL-37934  41.495  15.983  10.917
72708ION    CL-37935  16.319   1.624   4.125
72709ION    CL-37936  25.604  38.338  14.325
72710ION    CL-37937  33.948  10.789   3.220
72711ION    CL-37938  25.903  13.981   3.374
72712ION    CL-37939   5.535   7.040   2.566
72713ION    CL-37940  17.570   0.207   4.268
72714ION    CL-37941  33.561  41.273  13.474
72715ION    CL-37942  41.013  28.784   0.089
72716ION    CL-37943  42.683  29.822  10.857
72717ION    CL-37944   0.096  33.203   0.425
72718ION    CL-37945   8.586   8.445   2.670
72719ION    CL-37946  24.430  38.796  13.335
72720ION    CL-37947  35.081  24.050   4.165
72721ION    CL-37948  19.213   7.379  12.118
72722ION    CL-37949  30.269  36.533   2.658
72723ION    CL-37950  17.796   9.919   2.231
72724ION    CL-37951  18.026   8.587  12.865
72725ION    CL-37952   4.862  18.616   2.930
72726ION    CL-37953  29.682  43.223   4.102
72727ION    CL-37954  25.870   6.412  12.839
72728ION    CL-37955  24.932  32.438   4.096
72729ION    CL-37956  17.213  10.537   0.352
72730ION    CL-37957  31.102  35.464  11.127
72731ION    CL-37958   0.904  20.304  11.674
72732ION    CL-37959  15.876  25.050  14.016
72733ION    CL-37960   0.432  44.710  12.465
72734ION    CL-37961  16.819  13.628  14.723
72735ION    CL-37962  43.459  32.151   3.105
72736ION    CL-37963   2.411  29.880   3.213
72737ION    CL-37964   8.544  17.496   3.273
72738ION    CL-37965  34.462  22.753   0.549
72739ION    CL-37966  44.960  36.535  12.593
72740ION    CL-37967  23.996  13.875  14.943
72741ION    CL-37968   5.443  42.713   2.766
72742ION    CL-37969  33.307   1.266   0.612
72743ION    CL-37970  34.144  20.934   1.353
72744ION    CL-37971   9.708  44.971   1.710
72745ION    CL-37972  19.649  29.547   0.747
72746ION    CL-37973  44.030  36.033   1.848
72747ION    CL-37974  19.667   3.641  10.441
72748ION    CL-37975  42.744  37.087  14.347
72749ION    CL-37976   9.035   0.542   1.566
72750ION    CL-37977  18.001  43.753  12.777
72751ION    CL-37978  26.826   6.615  13.825
72752ION    CL-37979  34.533  34.447   0.717
72753ION    CL-37980   5.851  31.870  12.131
72754ION    CL-37981  10.708   3.932  12.989
72755ION    CL-37982  29.917  18.339  13.504
72756ION    CL-37983  36.018  34.813  14.101
72757ION    CL-37984  44.955  17.222   4.585
72758ION    CL-37985  13.359   1.341   2.662
72759ION    CL-37986  36.534  38.862   0.551
72760ION    CL-37987  20.265  44.534   5.116
72761ION    CL-37988   1.621   8.764   1.576
72762ION    CL-37989  26.417  44.252  11.390
72763ION    CL-37990   5.043  22.721  10.809
72764ION    CL-37991   2.196   1.496   4.542
72765ION    CL-37992  27.477  26.890   2.734
72766ION    CL-37993  17.680  18.140   0.710
72767ION    CL-37994  39.275  33.101   1.177
72768ION    CL-37995   6.003  40.213   0.383
72769ION    CL-37996   9.823  28.098  12.744
72770ION    CL-37997  10.544  12.905  12.925
72771ION    CL-37998  28.639   5.775   2.473
72772ION    CL-37999  36.942  18.118   0.307
72773ION    CL-38000  18.294  38.378   3.681
72774ION    CL-38001   4.879   4.182   3.567
72775ION    CL-38002  18.722  33.868   0.584
72776ION    CL-38003   3.755  15.835   3.392
72777ION    CL-38004  30.244   2.216  12.805
72778ION    CL-38005  15.167  39.475  11.177
72779ION    CL-38006   8.937  32.449   0.002
72780ION    CL-38007  39.696   6.504   1.042
72781ION    CL-38008  25.477  23.584   0.334
72782ION    CL-38009   9.823  17.604   2.369
72783ION    CL-38010   8.474  41.313   0.859
72784ION    CL-38011  37.165   8.789   2.031
72785ION    CL-38012  29.820   2.337   0.964
72786ION    CL-38013  31.363  12.343  10.565
72787ION    CL-38014  41.932   4.181  10.625
72788ION    CL-38015  16.324  14.130   2.343
72789ION    CL-38016  29.165  43.898   1.184
72790ION    CL-38017   4.407  28.905   2.716
72791ION    CL-38018  33.975  32.851   2.098
72792ION    CL-38019  13.611   2.840   0.388
72793ION    CL-38020  12.421  31.999   1.680
72794ION    CL-38021   3.185  19.589  12.440
72795ION    CL-38022  39.239  36.814   0.610
72796ION    CL-38023  28.958  35.971   4.675
72797ION    CL-38024   0.110  36.221   0.206
72798ION    CL-38025   8.680  13.415   0.726
72799ION    CL-38026   1.939  27.039  14.581
72800ION    CL-38027  35.309  42.220   2.563
72801ION    CL-38028  37.143  11.057  11.230
72802ION    CL-38029  25.368  20.022  12.543
72803ION    CL-38030  36.046  37.358  14.612
72804ION    CL-38031  11.372  32.970  14.488
72805ION    CL-38032  30.028   6.524   3.500
72806ION    CL-38033   5.988   4.553   0.331
72807ION    CL-38034  31.037  12.662   4.936
72808ION    CL-38035  21.670   0.013  10.222
72809ION    CL-38036  35.039  32.111   4.869
72810ION    CL-38037  43.721   2.789   0.788
72811ION    CL-38038  39.592   3.857   5.411
72812ION    CL-38039  30.326  15.850   0.383
72813ION    CL-38040  13.318  12.877   4.179
72814ION    CL-38041  28.065  13.807   3.096
72815ION    CL-38042  37.358  37.093  11.032
72816ION    CL-38043  23.957  41.053  13.613
72817ION    CL-38044  14.345  13.595   1.016
72818ION    CL-38045  40.934   0.380   4.163
72819ION    CL-38046   6.698  44.778   5.013
72820ION    CL-38047  32.442  26.159  12.503
72821ION    CL-38048   7.120  14.518   1.417
72822ION    CL-38049  20.626  37.455   5.080
72823ION    CL-38050  11.593  36.518  11.556
72824ION    CL-38051   1.745  32.263   3.086
72825ION    CL-38052  41.479  26.170  12.068
72826ION    CL-38053   9.987   2.679   3.171
72827ION    CL-38054   8.223  33.649   3.844
72828ION    CL-38055  38.632   1.576  12.054
72829ION    CL-38056   7.980   3.228   4.159
72830ION    CL-38057  39.787  32.220   1.148
72831ION    CL-38058  10.403  22.084  14.423
72832ION    CL-38059   6.032   2.247   1.879
72833ION    CL-38060  44.450  34.427   0.433
72834ION    CL-38061  31.880  11.893  11.294
72835ION    CL-38062  33.172  31.343  10.019
72836ION    CL-38063  31.899  20.002   1.352
72837ION    CL-38064  35.782   2.417   3.348
72838ION    CL-38065  33.803  37.927  14.924
72839ION    CL-38066  31.226  13.218  13.856
72840ION    CL-38067  37.174  24.011   2.693
72841ION    CL-38068   2.162  19.543  10.225
72842ION    CL-38069  37.053  36.224  11.125
72843ION    CL-38070  28.879  36.079  13.577
72844ION    CL-38071  10.544  10.538   2.558
72845ION    CL-38072   6.627   0.516   2.802
72846ION    CL-38073  11.441  22.106   3.064
72847ION    CL-38074  20.481  18.928   1.431
72848ION    CL-38075  25.537  38.766   2.184
72849ION    CL-38076  20.968  32.227   1.572
72850ION    CL-38077  43.430   6.638  11.334
72851ION    CL-38078  24.019  21.753   3.786
72852ION    CL-38079  37.452  13.691  14.527
72853ION    CL-38080   0.887  36.213  14.798
72854ION    CL-38081  22.445  36.580  14.365
72855ION    CL-38082  24.037  39.546  11.898
72856ION    CL-38083  15.642  28.265  13.298
72857ION    CL-38084   5.621  24.490  14.270
72858ION    CL-38085  23.333  36.438  14.363
72859ION    CL-38086  15.754  26.418  11.554
72860ION    CL-38087  21.784  42.886  11.265
72861ION    CL-38088  31.704   2.374   0.135
72862ION    CL-38089   4.778  15.612   2.582
72863ION    CL-38090  44.562  25.225  13.864
72864ION    CL-38091  38.650  22.807   0.433
72865ION    CL-38092  16.151  10.128  12.538
72866ION    CL-38093  14.392  24.010  12.383
72867ION    CL-38094   3.923  35.845   0.512
72868ION    CL-38095  14.758  29.872  11.233
72869ION    CL-38096   4.569   9.017  13.396
72870ION    CL-38097  25.942  40.388   4.132
72871ION    CL-38098  34.031  16.656   2.963
72872ION    CL-38099  13.484  22.437   0.109
72873ION    CL-38100   4.465  41.146   4.232
72874ION    CL-38101  36.619   2.144   1.885
72875ION    CL-38102  10.398  12.130   5.085
72876ION    CL-38103  32.711  17.030   3.233
72877ION    CL-38104  20.543   8.505  13.841
72878ION    CL-38105  21.871  21.774   2.369
72879ION    CL-38106   2.047   6.712   0.374
72880ION    CL-38107  13.096  11.850   4.187
72881ION    CL-38108   9.644  42.318  11.405
72882ION    CL-38109  34.869  13.960  10.314
72883ION    CL-38110   4.922  14.583  11.064
72884ION    CL-38111   3.859  38.463   2.180
72885ION    CL-38112  17.605   9.159  11.536
72886ION    CL-38113   9.120  43.285   1.408
72887ION    CL-38114   0.831  33.121   1.753
72888ION    CL-38115   7.181  11.521   4.873
72889ION    CL-38116   1.433   3.570  10.327
72890ION    CL-38117  31.725  20.393   3.541
72891ION    CL-38118   2.694  35.475   1.720
72892ION    CL-38119  10.094  40.103  14.019
72893ION    CL-38120  35.199   9.617  13.338
72894ION    CL-38121   1.710   9.397  13.653
72895ION    CL-38122  28.542  38.843  13.288
72896ION    CL-38123  39.307  31.627  13.242
72897ION    CL-38124  29.399  36.582   0.548
72898ION    CL-38125  18.779  12.109   1.346
72899ION    CL-38126  21.125  12.098  12.345
72900ION    CL-38127  13.931   6.043  11.681
72901ION    CL-38128  25.590  16.569   1.677
72902ION    CL-38129  26.390  15.082  11.408
72903ION    CL-38130  33.614   1.609   2.259
72904ION    CL-38131  35.896  41.804  11.657
72905ION    CL-38132  12.846  29.774   1.654
72906ION    CL-38133  36.082   8.741  10.575
72907ION    CL-38134  27.902  17.769  12.469
72908ION    CL-38135  36.959  27.802  14.042
72909ION    CL-38136  23.709  18.017   2.302
72910ION    CL-38137   3.335  31.272  10.044
72911ION    CL-38138  43.127  36.592   0.956
72912ION    CL-38139  24.454  32.644   1.291
72913ION    CL-38140   9.340  30.399   0.007
72914ION    CL-38141  23.607  39.559  11.135
72915ION    CL-38142  18.792  21.458   1.229
72916ION    CL-38143  13.046   6.052  13.205
72917ION    CL-38144  44.970  27.257   3.430
72918ION    CL-38145  42.790  37.055  12.118
72919ION    CL-38146  12.540  36.496  10.774
72920ION    CL-38147  12.717  40.468   4.034
72921ION    CL-38148  17.362  26.503   2.551
72922ION    CL-38149   2.526  40.748  10.734
72923ION    CL-38150  31.032   3.915  13.957
72924ION    CL-38151  44.481  20.301  14.125
72925ION    CL-38152  20.149  31.803  11.350
72926ION    CL-38153  36.515  29.141   0.209
72927ION    CL-38154  16.608  27.593   1.474
72928ION    CL-38155   2.021  12.630  14.470
72929ION    CL-38156  43.587  17.270   1.514
72930ION    CL-38157  21.215   0.078   2.332
72931ION    CL-38158  34.372   9.534  13.037
72932ION    CL-38159  24.993  20.065   0.360
72933ION    CL-38160  30.839  19.629  13.443
72934ION    CL-38161   9.264   1.976  13.120
72935ION    CL-38162  42.861  27.967   2.714
72936ION    CL-38163   2.501  12.780   0.887
72937ION    CL-38164   1.530  24.817  12.279
72938ION    CL-38165  20.516  39.602  13.806
72939ION    CL-38166  27.828  37.318   5.174
72940ION    CL-38167  29.294  18.938   0.793
72941ION    CL-38168   8.649  23.264   1.349
72942ION    CL-38169  17.742  11.720   1.880
72943ION    CL-38170  44.668  43.569   1.123
72944ION    CL-38171   2.463  17.884   4.079
72945ION    CL-38172  26.320  15.676  13.595
72946ION    CL-38173  42.926  27.497  10.255
72947ION    CL-38174  17.954  15.388   2.616
72948ION    CL-38175  35.569  44.208   3.851
72949ION    CL-38176  43.614  17.444   2.410
72950ION    CL-38177  36.399  25.938  12.162
72951ION    CL-38178  21.135  18.871   3.777
72952ION    CL-38179  33.978   3.311   0.643
72953ION    CL-38180  44.324   7.578   3.345
72954ION    CL-38181   1.030   3.173  13.044
72955ION    CL-38182  33.250  23.671  10.617
72956ION    CL-38183  28.189  17.796   4.138
72957ION    CL-38184   0.259   9.641  11.075
72958ION    CL-38185  38.103   4.529  14.316
72959ION    CL-38186  18.391  17.616  14.384
72960ION    CL-38187  12.317  32.083   0.782
72961ION    CL-38188  33.598  23.524  12.001
72962ION    CL-38189  37.489  36.633   3.098
72963ION    CL-38190   2.723  30.659   4.134
72964ION    CL-38191  29.576  13.565  12.402
72965ION    CL-38192  17.722  23.156   3.736
72966ION    CL-38193  22.219  25.486   0.978
72967ION    CL-38194  29.646   2.104   3.404
72968ION    CL-38195  29.547  12.058  12.007
72969ION    CL-38196  33.502  31.644  14.437
72970ION    CL-38197  39.072   4.238  12.904
72971ION    CL-38198  42.081  30.221   2.214
72972ION    CL-38199  38.492   3.919   2.314
72973ION    CL-38200  16.014  10.022  14.961
72974ION    CL-38201  22.677   2.945   2.484
72975ION    CL-38202  30.709  28.236   4.548
72976ION    CL-38203  43.085  42.544   0.630
72977ION    CL-38204   8.097   4.429   9.725
72978ION    CL-38205  30.270  42.120  11.384
72979ION    CL-38206  44.861  24.149  12.490
72980ION    CL-38207   3.665  43.156   0.192
72981ION    CL-38208  42.364  22.048  12.539
72982ION    CL-38209  16.214   9.123  11.107
72983ION    CL-38210   0.448  27.022   1.697
72984ION    CL-38211   1.132  42.570   3.337
72985ION    CL-38212  39.710  29.493  10.730
72986ION    CL-38213  28.946  42.504   2.175
72987ION    CL-38214  18.924  18.076   3.344
72988ION    CL-38215  12.917  12.978  12.837
72989ION    CL-38216  34.110  36.950  10.249
72990ION    CL-38217  38.850  39.340   4.885
72991ION    CL-38218  35.104  44.344   0.420
72992ION    CL-38219  34.666  22.131  13.997
72993ION    CL-38220   7.274  13.631   3.853
72994ION    CL-38221   3.197  41.080  11.115
72995ION    CL-38222  30.601  33.660  11.974
72996ION    CL-38223  17.257  21.090  12.902
72997ION    CL-38224   6.910   0.467   0.172
72998ION    CL-38225  32.080  38.257   1.342
72999ION    CL-38226  23.684  33.904  13.784
73000ION    CL-38227   4.612  23.906   2.815
73001ION    CL-38228  34.978  26.944   4.515
73002ION    CL-38229  26.136  21.650  13.322
73003ION    CL-38230   4.144   5.471   0.720
73004ION    CL-38231  30.707   0.150  13.857
73005ION    CL-38232  14.605   6.010   1.241
73006ION    CL-38233   0.934  16.698   3.303
73007ION    CL-38234  20.739  36.465   4.993
73008ION    CL-38235   4.468  23.167  12.991
73009ION    CL-38236  37.886  34.133  14.056
73010ION    CL-38237   2.316   0.620  13.142
73011ION    CL-38238  10.033  43.486  14.745
73012ION    CL-38239  22.589  11.329  14.755
73013ION    CL-38240  38.736  11.906  10.062
73014ION    CL-38241  33.626  10.497   0.867
73015ION    CL-38242  26.978   7.399   0.386
73016ION    CL-38243  14.018  41.397  12.124
73017ION    CL-38244   0.997  30.961   2.190
73018ION    CL-38245  24.465  40.312  13.580
73019ION    CL-38246   2.711  21.492   1.869
73020ION    CL-38247  31.406  20.868   1.610
73021ION    CL-38248  39.352  28.179  13.040
73022ION    CL-38249   5.970  18.486   5.082
73023ION    CL-38250  36.504   8.844   3.962
73024ION    CL-38251  17.526  34.149  12.154
73025ION    CL-38252   1.473  19.465  14.184
73026ION    CL-38253   4.157   4.053  13.924
73027ION    CL-38254  44.710   0.507  11.351
73028ION    CL-38255  38.237  19.037  14.798
73029ION    CL-38256  24.826  10.432   0.400
73030ION    CL-38257   7.360  19.196  12.816
73031ION    CL-38258  33.580  32.947   0.838
73032ION    CL-38259  36.329  14.766   2.331
73033ION    CL-38260  31.013  32.144  12.002
73034ION    CL-38261  40.893  29.684   0.130
73035ION    CL-38262  39.564  41.492  13.550
73036ION    CL-38263   4.359  10.348  11.592
73037ION    CL-38264  38.687  23.708   0.419
73038ION    CL-38265  36.769  19.184  13.945
73039ION    CL-38266  22.858  24.400  12.503
73040ION    CL-38267  20.399  30.533   2.545
73041ION    CL-38268  11.227   7.344  12.605
73042ION    CL-38269  30.706  38.692  10.799
73043ION    CL-38270  34.436  29.970  11.258
73044ION    CL-38271  34.437  33.063  14.403
73045ION    CL-38272  11.825  23.007  10.753
73046ION    CL-38273  32.888  41.701   4.572
73047ION    CL-38274  41.889  21.052   3.278
73048ION    CL-38275  14.037  36.687  11.541
73049ION    CL-38276  37.927  35.810   0.964
73050ION    CL-38277   5.518  34.789   2.054
73051ION    CL-38278  12.186  11.557   4.687
73052ION    CL-38279   0.698  27.748   0.957
73053ION    CL-38280  24.937  22.453   1.897
73054ION    CL-38281  30.265  19.042   1.007
73055ION    CL-38282  35.755  23.009  13.392
73056ION    CL-38283  14.274   6.582  13.402
73057ION    CL-38284  30.095  29.513  13.073
73058ION    CL-38285  24.513  37.492   1.841
73059ION    CL-38286  39.145   3.878   1.375
73060ION    CL-38287   1.711   8.184  12.977
73061ION    CL-38288   4.221  14.771   1.983
73062ION    CL-38289  16.628  32.523   2.895
73063ION    CL-38290  33.416  32.025  11.716
73064ION    CL-38291  38.882   5.639   2.722
73065ION    CL-38292  21.317  16.488   4.153
73066ION    CL-38293  29.554  23.362  11.334
73067ION    CL-38294  41.819  18.159   2.093
73068ION    CL-38295  20.506  15.279  12.131
73069ION    CL-38296  27.875  43.586   3.894
73070ION    CL-38297  32.178   1.138   4.345
73071ION    CL-38298   2.908   1.302  12.261
73072ION    CL-38299  17.022  35.065   3.879
73073ION    CL-38300  28.697  30.373  10.275
73074ION    CL-38301   7.220  28.566   2.200
73075ION    CL-38302  42.992  31.532   3.896
73076ION    CL-38303  14.574  16.808  12.411
73077ION    CL-38304  38.704  32.099  12.125
73078ION    CL-38305   4.453  31.378   1.235
73079ION    CL-38306  11.559  17.573  13.463
73080ION    CL-38307  10.674  21.666   2.019
73081ION    CL-38308  35.598  21.750  13.970
73082ION    CL-38309   8.119  43.877  11.950
73083ION    CL-38310  21.483  11.865  13.141
73084ION    CL-38311  29.348  40.619  11.060
73085ION    CL-38312   0.758  41.103  13.911
73086ION    CL-38313  24.821   5.925  10.842
73087ION    CL-38314  26.812  32.498   1.785
73088ION    CL-38315   7.981  24.638   2.914
73089ION    CL-38316  28.136  39.720   4.473
73090ION    CL-38317  42.995  14.354  11.564
73091ION    CL-38318  38.601  40.840   2.297
73092ION    CL-38319  26.038  37.469   0.811
73093ION    CL-38320  29.209  28.514  13.575
73094ION    CL-38321  16.068   2.956  14.830
73095ION    CL-38322  20.110  23.749  14.750
73096ION    CL-38323  22.567  31.558  13.025
73097ION    CL-38324  35.914  31.036  12.067
73098ION    CL-38325  44.023   5.524   2.689
73099ION    CL-38326  16.706  41.522  11.229
73100ION    CL-38327  19.589  41.758  13.548
73101ION    CL-38328  36.355  36.257  10.407
73102ION    CL-38329   2.228  43.024   0.437
73103ION    CL-38330  31.069  17.226   0.396
73104ION    CL-38331  20.055  42.814   0.923
73105ION    CL-38332  40.931  29.515   3.096
73106ION    CL-38333  30.314   1.019  12.094
73107ION    CL-38334   5.195   8.815   3.320
73108ION    CL-38335  18.769  38.242   2.638
73109ION    CL-38336  21.031  44.231   0.327
73110ION    CL-38337  26.594   7.377   3.205
73111ION    CL-38338  32.145  34.384  14.860
73112ION    CL-38339  13.873  10.628  14.758
73113ION    CL-38340  23.757  22.085   0.348
73114ION    CL-38341   3.869   1.192  11.207
73115ION    CL-38342  21.345  11.144   0.355
73116ION    CL-38343   3.629  35.789   4.087
73117ION    CL-38344  41.742   2.402  11.890
73118ION    CL-38345  16.149  23.791  14.486
73119ION    CL-38346   8.452   1.023   1.099
73120ION    CL-38347  17.357  39.683  11.357
73121ION    CL-38348  16.867  24.963  14.126
73122ION    CL-38349  31.933  17.660   3.225
73123ION    CL-38350  31.390   8.560   4.291
73124ION    CL-38351  38.913  30.982  12.897
73125ION    CL-38352  44.385  13.529   3.201
73126ION    CL-38353  23.971  27.168   1.910
73127ION    CL-38354  31.543   1.219   2.731
73128ION    CL-38355  42.674  13.031  10.812
73129ION    CL-38356  43.554  14.206  14.534
73130ION    CL-38357   0.851  20.230   1.393
73131ION    CL-38358   0.980  16.705  14.577
73132ION    CL-38359  14.627  34.783   3.764
73133ION    CL-38360  18.244  19.646   1.469
73134ION    CL-38361  30.074  34.546  13.492
73135ION    CL-38362   8.566  13.159  14.173
73136ION    CL-38363  12.131  22.371  13.426
73137ION    CL-38364  26.705  31.678   1.357
73138ION    CL-38365  14.852  39.192   4.994
73139ION    CL-38366  15.552  18.609   4.438
73140ION    CL-38367  14.538  38.953  11.754
73141ION    CL-38368  38.060   3.117   1.810
73142ION    CL-38369  41.573   3.781  12.485
73143ION    CL-38370  44.986  10.442  11.071
73144ION    CL-38371  37.564  22.109  13.742
73145ION    CL-38372  18.817   3.387  12.860
73146ION    CL-38373  12.967  41.287   0.455
73147ION    CL-38374  13.355  21.253  14.438
73148ION    CL-38375  41.706  19.266  10.234
73149ION    CL-38376  19.279   7.192   2.503
73150ION    CL-38377   9.123  16.116   1.907
73151ION    CL-38378   2.729  35.639  11.689
73152ION    CL-38379  31.839   2.990   1.016
73153ION    CL-38380  44.014  20.208   1.137
73154ION    CL-38381  12.909  28.321  10.805
73155ION    CL-38382  21.885   5.250   4.496
73156ION    CL-38383  27.693  38.474   4.338
73157ION    CL-38384  36.333   1.872   3.979
73158ION    CL-38385   2.828  35.185   5.025
73159ION    CL-38386  30.324   5.794  12.656
73160ION    CL-38387  11.243  22.192   1.560
73161ION    CL-38388  12.806   6.294   3.975
73162ION    CL-38389   2.311  28.074  11.841
73163ION    CL-38390  10.330  31.601   3.518
73164ION    CL-38391  23.067  35.271   3.301
73165ION    CL-38392  43.206  22.894   3.857
73166ION    CL-38393  36.232  32.486   5.003
73167ION    CL-38394  28.330  34.915  14.527
73168ION    CL-38395   1.051  39.000   9.700
73169ION    CL-38396  11.767  30.236  10.519
73170ION    CL-38397  21.932   7.846  11.102
73171ION    CL-38398  16.273  23.563   0.473
73172ION    CL-38399   7.281  41.796   1.452
73173ION    CL-38400  36.125  35.851  11.146
73174ION    CL-38401  24.445  44.728   3.462
73175ION    CL-38402  32.231   1.462  14.194
73176ION    CL-38403  28.931  42.525  13.307
73177ION    CL-38404  39.409  43.705  11.388
73178ION    CL-38405  20.979  12.379  14.480
73179ION    CL-38406  26.001  39.389  14.249
73180ION    CL-38407   1.611  40.267  13.503
73181ION    CL-38408  20.054   7.679  14.121
73182ION    CL-38409  10.901   6.355   3.720
73183ION    CL-38410  38.831  15.895   4.345
73184ION    CL-38411  33.133  31.081   0.547
73185ION    CL-38412  23.002  22.814  10.498
73186ION    CL-38413   3.855  34.395  11.261
73187ION    CL-38414   3.396  30.372   2.399
73188ION    CL-38415  16.985  11.638   0.815
73189ION    CL-38416   8.034  13.631   1.340
73190ION    CL-38417  19.595  15.220  14.784
73191ION    CL-38418   3.953  44.123   0.496
73192ION    CL-38419  37.221  34.490   1.464
73193ION    CL-38420  23.423   8.390  13.832
73194ION    CL-38421   6.979  31.809   0.934
73195ION    CL-38422  17.213  23.675   2.341
73196ION    CL-38423  35.307   0.914   0.694
73197ION    CL-38424  31.913  15.798   2.836
73198ION    CL-38425  40.979   2.636   5.120
73199ION    CL-38426  10.165  12.556   1.656
73200ION    CL-38427  35.187  17.966   5.014
73201ION    CL-38428  18.075  25.340   3.381
73202ION    CL-38429  27.998  16.344   9.723
73203ION    CL-38430   9.415   0.053  13.067
73204ION    CL-38431  30.216  26.389   2.670
73205ION    CL-38432   6.017  13.837  11.243
73206ION    CL-38433  27.849  41.254   5.059
73207ION    CL-38434  13.203  16.490   3.288
73208ION    CL-38435  41.100  27.432  13.232
73209ION    CL-38436  32.542  41.907   2.372
73210ION    CL-38437  16.850  38.719   1.977
73211ION    CL-38438  29.849   1.803   2.685
73212ION    CL-38439  15.701  10.307   1.456
73213ION    CL-38440  21.233   6.809   0.011
73214ION    CL-38441  43.751  34.574   4.373
73215ION    CL-38442  37.705  35.100  13.876
73216ION    CL-38443   7.603  32.734   4.924
73217ION    CL-38444   5.478  36.327   1.037
73218ION    CL-38445  23.905  39.742   3.713
73219ION    CL-38446   3.203  32.487  13.086
73220ION    CL-38447   9.517   1.667  12.293
73221ION    CL-38448   4.629  34.084  10.362
73222ION    CL-38449  20.042   6.280  12.064
73223ION    CL-38450  38.622  42.357   1.821
73224ION    CL-38451  44.556  31.888   3.866
73225ION    CL-38452  35.587   2.658  13.243
73226ION    CL-38453  25.859  14.482   4.091
73227ION    CL-38454  23.661  10.547   3.273
73228ION    CL-38455  34.301  35.482   2.196
73229ION    CL-38456  20.969  38.684  10.010
73230ION    CL-38457  15.389  23.719   1.645
73231ION    CL-38458  32.803  23.941   3.441
73232ION    CL-38459  27.439  22.549   2.586
73233ION    CL-38460  26.074  42.794  12.801
73234ION    CL-38461  27.417  11.306  11.835
73235ION    CL-38462   1.799   5.480  12.819
73236ION    CL-38463  18.345  23.475  13.462
73237ION    CL-38464  25.506  18.317   4.559
73238ION    CL-38465  24.972  17.502  12.234
73239ION    CL-38466  16.136  24.769  14.941
73240ION    CL-38467  40.589  29.995  10.854
73241ION    CL-38468  30.193  17.392   1.473
73242ION    CL-38469   9.253  39.347   3.092
73243ION    CL-38470  11.947  18.594   4.225
73244ION    CL-38471   5.548  33.461  13.445
73245ION    CL-38472  35.823  33.381   1.180
73246ION    CL-38473   1.634  36.724   1.700
73247ION    CL-38474   5.926  12.128  13.928
73248ION    CL-38475  23.520  12.705  14.340
73249ION    CL-38476  16.307   3.394  10.710
73250ION    CL-38477  20.647  39.826  10.395
73251ION    CL-38478  24.887  31.174   3.916
73252ION    CL-38479  27.352  35.059  14.376
73253ION    CL-38480  31.624   1.186   1.317
73254ION    CL-38481   0.366   7.977  10.749
73255ION    CL-38482   1.341  13.303   3.076
73256ION    CL-38483  32.000  21.546   2.430
73257ION    CL-38484  12.914  30.303   5.243
73258ION    CL-38485  20.567  14.945   2.034
73259ION    CL-38486   2.490  32.588  14.849
73260ION    CL-38487  44.471   7.735   0.058
73261ION    CL-38488  34.398  38.591   2.590
73262ION    CL-38489  43.325  35.813  14.330
73263ION    CL-38490  32.701  31.703  11.096
73264ION    CL-38491  18.824   7.013  13.443
73265ION    CL-38492  22.242  42.437   2.102
73266ION    CL-38493  41.092   5.803  12.069
73267ION    CL-38494   1.082  33.362   0.371
73268ION    CL-38495  34.932  19.139  10.514
73269ION    CL-38496  23.027  42.450  13.329
73270ION    CL-38497  24.603  43.455  10.951
73271ION    CL-38498  16.568   7.469  14.586
73272ION    CL-38499  42.025  40.302   1.324
73273ION    CL-38500  13.114  17.501  12.583
73274ION    CL-38501  33.804   9.864   2.189
73275ION    CL-38502   7.368  14.983  13.765
73276ION    CL-38503  37.274  25.495   2.845
73277ION    CL-38504  11.527  19.090  12.425
73278ION    CL-38505  14.616   2.926  12.018
73279ION    CL-38506  26.358  37.940  13.440
73280ION    CL-38507  27.559  19.525   3.312
73281ION    CL-38508  44.416  22.198   3.270
73282ION    CL-38509  12.179  44.190   4.815
73283ION    CL-38510  25.600  41.671   2.578
73284ION    CL-38511  12.574  39.866  10.796
73285ION    CL-38512  22.631  12.126   2.737
73286ION    CL-38513   7.716   6.831   4.396
73287ION    CL-38514   8.936  40.009   1.511
73288ION    CL-38515  43.037  18.039  10.644
73289ION    CL-38516  42.584  28.760   2.502
73290ION    CL-38517  16.589  22.377   1.345
73291ION    CL-38518  34.423  15.606   0.778
73292ION    CL-38519  16.408  35.265  11.192
73293ION    CL-38520  29.500   5.347   2.858
73294ION    CL-38521  28.959  33.812   2.217
73295ION    CL-38522  24.363  37.621  12.974
73296ION    CL-38523   5.940  23.145   3.838
73297ION    CL-38524  13.863  23.245   3.454
73298ION    CL-38525  14.784  11.855  14.140
73299ION    CL-38526  44.661  23.007   3.821
73300ION    CL-38527   1.867  15.080  14.323
73301ION    CL-38528  37.147  25.566  14.667
73302ION    CL-38529  22.539  38.071  14.683
73303ION    CL-38530   4.018  38.605   3.656
73304ION    CL-38531  28.961  42.541   4.954
73305ION    CL-38532  34.931  44.673   4.792
73306ION    CL-38533  40.080   2.587  10.799
73307ION    CL-38534  14.120  35.485  14.883
73308ION    CL-38535  40.628  23.567  11.534
73309ION    CL-38536  11.607  40.996   4.116
73310ION    CL-38537  14.561  25.430  11.034
73311ION    CL-38538  20.503  33.380   3.642
73312ION    CL-38539  39.600   1.786  11.206
73313ION    CL-38540  17.479   4.305   1.743
73314ION    CL-38541   3.303  26.989  13.306
73315ION    CL-38542  41.445  23.379   2.076
73316ION    CL-38543  17.168  36.996   4.071
73317ION    CL-38544  36.969  32.811   0.980
73318ION    CL-38545   9.185  16.399   2.864
73319ION    CL-38546  39.675  30.438   0.783
73320ION    CL-38547  26.437  31.799  10.348
73321ION    CL-38548  44.425  18.634  12.206
73322ION    CL-38549  23.402  40.801  11.939
73323ION    CL-38550  27.218  25.046   2.712
73324ION    CL-38551  42.793  24.693   1.099
73325ION    CL-38552   0.208  34.202  12.522
73326ION    CL-38553  19.419   5.248   0.040
73327ION    CL-38554  31.247  38.757  14.300
73328ION    CL-38555  42.951   9.646   4.939
73329ION    CL-38556  36.059  36.726  14.108
73330ION    CL-38557  31.521  36.217   1.885
73331ION    CL-38558  28.224  14.435   1.639
73332ION    CL-38559  11.219  39.502  12.181
73333ION    CL-38560  41.871  13.969   3.143
73334ION    CL-38561  44.434   3.702   1.829
73335ION    CL-38562  24.079  20.244   4.964
73336ION    CL-38563  30.170  15.782   2.825
73337ION    CL-38564  40.920   1.995  11.834
73338ION    CL-38565  23.446  25.640  12.217
73339ION    CL-38566  27.614  37.724   3.833
73340ION    CL-38567  27.673  12.722  13.309
73341ION    CL-38568  19.473  26.062  12.709
73342ION    CL-38569  10.981  30.627   3.874
73343ION    CL-38570   0.436   7.888   4.257
73344ION    CL-38571  24.932  26.513   5.140
73345ION    CL-38572   9.056  32.714  10.457
73346ION    CL-38573  16.385   7.048   2.914
73347ION    CL-38574  27.781  14.539   0.846
73348ION    CL-38575  22.059  41.437   2.313
73349ION    CL-38576  14.048  30.960  10.691
73350ION    CL-38577  32.705  43.699  10.565
73351ION    CL-38578  13.091  23.368  14.885
73352ION    CL-38579  13.737   4.615  12.704
73353ION    CL-38580  16.285  28.081  14.041
73354ION    CL-38581  44.296  31.442  14.516
73355ION    CL-38582  22.691  44.601   1.283
73356ION    CL-38583  19.411   2.365   0.192
73357ION    CL-38584  42.437  32.668  12.140
73358ION    CL-38585   9.114  11.733   1.787
73359ION    CL-38586  28.222  29.884   3.492
73360ION    CL-38587  18.008  14.905   5.059
73361ION    CL-38588   8.122  26.228   2.141
73362ION    CL-38589  20.354  37.048   4.447
73363ION    CL-38590   7.828  10.806  11.835
73364ION    CL-38591  24.269  11.334   3.159
73365ION    CL-38592  11.135  27.855   0.040
73366ION    CL-38593  25.711  10.008  13.973
73367ION    CL-38594  28.496  33.989  12.678
73368ION    CL-38595  17.711  26.210  12.377
73369ION    CL-38596  18.711  36.124   1.944
73370ION    CL-38597   2.309   0.962   3.365
73371ION    CL-38598  15.027  21.789  14.777
73372ION    CL-38599  22.106  15.171   2.429
73373ION    CL-38600  12.388  21.087  13.403
73374ION    CL-38601  14.769  17.989   0.057
73375ION    CL-38602   1.166  37.428   2.049
73376ION    CL-38603   3.218  25.859  11.782
73377ION    CL-38604  35.089  19.554   4.428
73378ION    CL-38605  28.686  44.697   2.467
73379ION    CL-38606  32.336  32.040  12.565
73380ION    CL-38607  34.581  18.355   0.235
73381ION    CL-38608  17.559  14.233   4.646
73382ION    CL-38609  40.052   8.012  13.658
73383ION    CL-38610  24.924  18.803   3.790
73384ION    CL-38611   1.191  25.767  12.721
73385ION    CL-38612  43.260   3.796  11.638
73386ION    CL-38613   3.621  21.380   1.961
73387ION    CL-38614  34.939  31.291   4.745
73388ION    CL-38615  16.139  28.111   2.910
73389ION    CL-38616  36.682  38.150   0.094
73390ION    CL-38617  43.913  34.259   1.656
73391ION    CL-38618  14.770   1.982  10.935
73392ION    CL-38619  34.932  24.139   0.607
73393ION    CL-38620  23.469  37.141  10.953
73394ION    CL-38621  40.320  42.974   1.680
73395ION    CL-38622   3.706   9.742  14.618
73396ION    CL-38623  17.855   2.230  14.258
73397ION    CL-38624  42.816   9.631   1.711
73398ION    CL-38625  30.628   4.520   3.570
73399ION    CL-38626  24.195  35.490   2.658
73400ION    CL-38627  15.331  37.807  11.534
73401ION    CL-38628  12.192  24.220  10.940
73402ION    CL-38629  16.746  27.071   2.163
73403ION    CL-38630  37.793   7.035  10.722
73404ION    CL-38631  40.858  17.917  13.786
73405ION    CL-38632  36.212   1.828  13.459
73406ION    CL-38633   2.739  10.342  11.179
73407ION    CL-38634   2.820   7.232  11.342
73408ION    CL-38635  19.846  12.285   4.367
73409ION    CL-38636   3.945   9.758  13.643
73410ION    CL-38637  16.510  36.335  12.863
73411ION    CL-38638   3.917  26.212   4.235
73412ION    CL-38639  42.328  40.327   0.371
73413ION    CL-38640   9.585  43.496  12.215
73414ION    CL-38641  42.332   7.058  11.999
73415ION    CL-38642  18.527  38.542  14.319
73416ION    CL-38643  29.751  34.093  14.145
73417ION    CL-38644  33.281   6.327  13.517
73418ION    CL-38645  38.177  24.225   5.048
73419ION    CL-38646  33.831  28.361   0.242
73420ION    CL-38647  18.378  10.667   4.505
73421ION    CL-38648  37.962  24.462   4.100
73422ION    CL-38649  37.298  37.502  11.943
73423ION    CL-38650   6.971  16.336   4.022
73424ION    CL-38651   7.708  44.473  11.389
73425ION    CL-38652  21.073  14.441  13.613
73426ION    CL-38653   4.609  12.658  13.156
73427ION    CL-38654   0.048   5.832  13.756
73428ION    CL-38655  14.572  29.543   0.434
73429ION    CL-38656   0.819  16.466   2.495
73430ION    CL-38657   3.499  32.264   4.636
73431ION    CL-38658  44.397  42.514  13.573
73432ION    CL-38659  21.609   0.934   0.183
73433ION    CL-38660  20.528   3.620  14.400
73434ION    CL-38661   6.261  33.969  14.778
73435ION    CL-38662  18.118   0.478  13.225
73436ION    CL-38663  22.845  19.042  13.585
73437ION    CL-38664   3.283   6.009   0.376
73438ION    CL-38665  15.645  34.485  10.216
73439ION    CL-38666  44.076  26.406   3.184
73440ION    CL-38667  41.406  43.552   4.096
73441ION    CL-38668  32.443  38.045  13.020
73442ION    CL-38669   3.466  18.672  12.158
73443ION    CL-38670  40.134  43.487  10.397
73444ION    CL-38671  15.092   4.128  11.828
73445ION    CL-38672  25.528  26.719  10.759
73446ION    CL-38673  44.378  27.116  14.864
73447ION    CL-38674  20.997  15.492   0.792
73448ION    CL-38675  22.780  28.677  11.257
73449ION    CL-38676  26.115  30.218   0.338
73450ION    CL-38677  41.421   9.400   2.343
73451ION    CL-38678  13.552  25.168   1.904
73452ION    CL-38679  36.609  27.094   3.270
73453ION    CL-38680   1.440   3.812   0.817
73454ION    CL-38681  17.046  42.310  12.037
73455ION    CL-38682  22.196  38.826   1.772
73456ION    CL-38683  23.526   7.352   3.729
73457ION    CL-38684  26.973  42.986  14.771
73458ION    CL-38685  12.312  13.616   2.415
73459ION    CL-38686  39.077  19.208  14.283
73460ION    CL-38687  29.057   1.267   0.736
73461ION    CL-38688  40.752  23.428   4.919
73462ION    CL-38689  38.493  38.221  11.342
73463ION    CL-38690  20.437  30.978  11.586
73464ION    CL-38691  27.569  11.364  13.598
73465ION    CL-38692  39.851  14.869  11.608
73466ION    CL-38693  13.744  27.743   0.241
73467ION    CL-38694  35.920   5.486   2.453
73468ION    CL-38695  26.874  40.630  13.116
73469ION    CL-38696  27.927  37.028  12.644
73470ION    CL-38697  14.550  35.026   1.069
73471ION    CL-38698   5.151   8.581  13.860
73472ION    CL-38699  34.519  26.243  14.854
73473ION    CL-38700  32.240  33.151  11.100
73474ION    CL-38701  33.213  32.917  13.882
73475ION    CL-38702   6.652  38.475  13.421
73476ION    CL-38703  21.422   4.668   1.676
73477ION    CL-38704  14.492  42.372   2.141
73478ION    CL-38705  25.053  37.940   0.913
73479ION    CL-38706  16.387  28.861  13.599
73480ION    CL-38707  14.996  14.775   0.970
73481ION    CL-38708  22.946   3.612   0.307
73482ION    CL-38709  35.297  13.892   2.073
73483ION    CL-38710  20.497  42.329  13.467
73484ION    CL-38711  43.648  25.420   0.315
73485ION    CL-38712  20.330   7.267  10.646
73486ION    CL-38713  10.968   9.128  11.150
73487ION    CL-38714  34.588  29.818  12.284
73488ION    CL-38715  36.481  39.946   3.181
73489ION    CL-38716  28.755  21.186  10.913
73490ION    CL-38717   5.265   6.611  14.224
73491ION    CL-38718   3.667  38.260   4.976
73492ION    CL-38719   3.702  23.998   1.255
73493ION    CL-38720  39.632   7.411   2.701
73494ION    CL-38721  30.399   2.461   3.969
73495ION    CL-38722  41.829  38.564  13.645
73496ION    CL-38723   0.822  33.166  11.156
73497ION    CL-38724   8.613  13.071   1.551
73498ION    CL-38725   2.235  20.725   0.813
73499ION    CL-38726  32.454  41.517  14.770
73500ION    CL-38727  42.507  18.659  11.255
73501ION    CL-38728  36.716  20.177  10.381
73502ION    CL-38729  11.799   0.009  14.808
73503ION    CL-38730  14.625  40.486   4.115
73504ION    CL-38731  24.683   1.751   1.373
73505ION    CL-38732   3.470  11.780   4.193
73506ION    CL-38733   8.479  29.553  10.373
73507ION    CL-38734   8.203   9.055  13.899
73508ION    CL-38735  36.562  17.900  13.037
73509ION    CL-38736  28.999  22.970   3.993
73510ION    CL-38737  20.041  16.006  11.620
73511ION    CL-38738  13.988  27.167  13.378
73512ION    CL-38739  37.933  44.003  12.452
73513ION    CL-38740   0.900  43.820  13.260
73514ION    CL-38741  29.365  29.043  11.059
73515ION    CL-38742   2.165   5.454   0.940
73516ION    CL-38743  44.053  29.181  12.645
73517ION    CL-38744  19.355  12.249  13.563
73518ION    CL-38745  40.720   1.054  14.104
73519ION    CL-38746  24.756  19.470  13.110
73520ION    CL-38747  35.685  27.587  10.797
73521ION    CL-38748  17.559  19.707   3.717
73522ION    CL-38749   9.304  13.912  13.010
73523ION    CL-38750   5.140   9.096  11.926
73524ION    CL-38751   4.582  43.307   0.578
73525ION    CL-38752  44.899  14.416   1.370
73526ION    CL-38753  26.944   9.835   0.299
73527ION    CL-38754   5.494  22.134  11.337
73528ION    CL-38755  33.706   6.474   1.336
73529ION    CL-38756  43.499   8.295  13.838
73530ION    CL-38757  17.832  24.864   4.111
73531ION    CL-38758  15.220  14.672  12.854
73532ION    CL-38759  41.480  28.069  12.562
73533ION    CL-38760  33.710  25.302  12.350
73534ION    CL-38761  13.158  29.235   1.056
73535ION    CL-38762  35.342  31.671   3.283
73536ION    CL-38763  16.130  21.754   4.430
73537ION    CL-38764  20.385  16.729  13.931
73538ION    CL-38765   2.069  24.448   3.759
73539ION    CL-38766   8.679  13.293  12.122
73540ION    CL-38767  28.270  10.768  11.621
73541ION    CL-38768  40.115  29.025   2.789
73542ION    CL-38769   5.507  38.797  14.411
73543ION    CL-38770  23.888  13.031   1.507
73544ION    CL-38771  33.600   2.949   3.612
73545ION    CL-38772  17.518   9.858  12.102
73546ION    CL-38773  24.246  38.532   1.748
73547ION    CL-38774  19.082  43.906  11.128
73548ION    CL-38775  41.448  37.969   3.782
73549ION    CL-38776  27.918  23.365  11.539
73550ION    CL-38777   1.218   1.154  13.953
73551ION    CL-38778   6.412  40.726   4.259
73552ION    CL-38779  29.060  38.548  10.679
73553ION    CL-38780  23.863   0.078   2.953
73554ION    CL-38781  37.442  22.958  12.827
73555ION    CL-38782   9.654  19.085  12.456
73556ION    CL-38783  22.323  33.921   4.582
73557ION    CL-38784  11.120  27.328   0.733
73558ION    CL-38785  39.255  20.628   3.725
73559ION    CL-38786  34.650  39.140   2.869
73560ION    CL-38787  17.422  29.284   0.977
73561ION    CL-38788  16.635  21.250   1.438
73562ION    CL-38789   0.236  20.605   3.128
73563ION    CL-38790  42.126  20.601  13.982
73564ION    CL-38791  25.402  35.690  14.325
73565ION    CL-38792  41.746   3.345   4.151
73566ION    CL-38793  26.119   8.441  14.090
73567ION    CL-38794  37.740  26.352  11.212
73568ION    CL-38795  44.486  25.648  10.496
73569ION    CL-38796  27.921  36.323   1.791
73570ION    CL-38797  35.252  43.801   5.158
73571ION    CL-38798  22.189  38.953   0.036
73572ION    CL-38799   8.446  31.856   4.138
73573ION    CL-38800  44.198   3.139  12.058
73574ION    CL-38801   0.784  41.482  12.986
73575ION    CL-38802  41.882   4.256  11.621
73576ION    CL-38803  44.428  28.733  14.888
73577ION    CL-38804  23.668   1.234   2.734
73578ION    CL-38805  30.299  13.528  13.277
73579ION    CL-38806  39.264   2.824  14.466
73580ION    CL-38807  33.930  14.306  10.304
73581ION    CL-38808  10.679  39.509  11.340
73582ION    CL-38809  37.436  42.739  10.736
73583ION    CL-38810  41.279  15.679   4.984
73584ION    CL-38811  10.800   2.201   4.909
73585ION    CL-38812  26.673   9.737  11.201
73586ION    CL-38813  43.113  17.738  12.308
73587ION    CL-38814  22.731  13.841   4.162
73588ION    CL-38815  35.293  10.846   3.419
73589ION    CL-38816   2.611  21.813  12.418
73590ION    CL-38817  18.081  44.355  14.505
73591ION    CL-38818   7.293   3.971   0.826
73592ION    CL-38819  38.857   6.856   1.034
73593ION    CL-38820  21.046  40.368   2.297
73594ION    CL-38821  36.920  21.211   0.998
73595ION    CL-38822   3.203  27.971   0.234
73596ION    CL-38823  27.787  34.364   2.586
73597ION    CL-38824   0.202  17.668   1.720
73598ION    CL-38825  24.254  21.620  11.416
73599ION    CL-38826  17.086   0.003  11.058
73600ION    CL-38827   9.596  32.551   4.641
73601ION    CL-38828  19.512   1.057  13.852
73602ION    CL-38829  14.477  40.085  13.006
73603ION    CL-38830  44.393  19.670  13.272
73604ION    CL-38831   4.985  24.060  12.127
73605ION    CL-38832  27.786  21.000  10.619
73606ION    CL-38833   3.097  18.580   2.426
73607ION    CL-38834  29.933   5.653   3.706
73608ION    CL-38835  30.800  25.389   9.806
73609ION    CL-38836  19.525   7.203   0.363
73610ION    CL-38837  24.455  10.099   2.376
73611ION    CL-38838  16.415  27.236  10.201
73612ION    CL-38839  35.558  20.689   4.488
73613ION    CL-38840   0.435  39.156   4.753
73614ION    CL-38841  11.127  24.984  12.448
73615ION    CL-38842  10.647  43.524   4.660
73616ION    CL-38843   8.290   4.925   3.692
73617ION    CL-38844  33.167   0.310   2.223
73618ION    CL-38845   9.329   0.785  13.864
73619ION    CL-38846  37.093  43.009   4.127
73620ION    CL-38847  10.734   0.427   0.261
73621ION    CL-38848  27.765  38.365  13.287
73622ION    CL-38849   6.662  21.046  13.939
73623ION    CL-38850  17.969   8.630  14.834
73624ION    CL-38851  35.320  33.929   0.712
73625ION    CL-38852  39.087  17.394   0.962
73626ION    CL-38853  29.794  36.225  12.472
73627ION    CL-38854   5.805   5.222  13.159
73628ION    CL-38855  35.802  36.619   2.728
73629ION    CL-38856   0.970  44.365  14.468
73630ION    CL-38857  42.129  11.741   1.990
73631ION    CL-38858  13.797  11.663  10.729
73632ION    CL-38859  36.093  42.578   2.738
73633ION    CL-38860   6.446  22.296  11.601
73634ION    CL-38861  39.831  25.190  10.573
73635ION    CL-38862  10.452  23.013   4.320
73636ION    CL-38863  29.121  15.828   1.023
73637ION    CL-38864  19.510  14.601  12.215
73638ION    CL-38865  27.409   0.598   5.167
73639ION    CL-38866   5.659   6.476   0.044
73640ION    CL-38867  15.538  35.758  10.747
73641ION    CL-38868  42.295  31.689   3.196
73642ION    CL-38869   3.679  38.435  11.013
73643ION    CL-38870  38.181  13.133   3.447
73644ION    CL-38871   2.777  15.705  12.032
73645ION    CL-38872  31.608  23.005  13.417
73646ION    CL-38873  20.419  38.180  11.437
73647ION    CL-38874  18.288   6.495  12.964
73648ION    CL-38875  12.619  32.821  13.619
73649ION    CL-38876   1.283  25.204   3.685
73650ION    CL-38877   3.370  15.447  12.679
73651ION    CL-38878  41.356  18.836   4.367
73652ION    CL-38879  43.398  26.738  14.877
73653ION    CL-38880  12.976  28.808   1.879
73654ION    CL-38881  36.667  27.777  10.803
73655ION    CL-38882   0.100  15.818   4.896
73656ION    CL-38883  16.770   9.325  12.515
73657ION    CL-38884  13.636  15.274  14.296
73658ION    CL-38885  37.745  20.712   3.378
73659ION    CL-38886  30.020  23.989   4.344
73660ION    CL-38887   6.982   1.888   1.324
73661ION    CL-38888  18.072  39.117   0.452
73662ION    CL-38889  10.688   7.517  14.405
73663ION    CL-38890   1.852  40.833   2.688
73664ION    CL-38891  12.160   8.537  14.293
73665ION    CL-38892  34.947  24.933   2.798
73666ION    CL-38893  42.029  42.892  11.994
73667ION    CL-38894  19.298  33.414  14.826
73668ION    CL-38895   8.205  22.372   1.434
73669ION    CL-38896   5.131   4.261  11.586
73670ION    CL-38897  35.721  18.248  11.386
73671ION    CL-38898   3.169  10.374  13.505
73672ION    CL-38899  34.069  24.518  12.062
73673ION    CL-38900   2.435  41.343   3.321
73674ION    CL-38901   3.396   2.618   4.326
73675ION    CL-38902  26.031  18.912  11.614
73676ION    CL-38903  18.843  30.651  10.314
73677ION    CL-38904  34.152   0.458   2.308
73678ION    CL-38905  42.603   9.105  11.433
73679ION    CL-38906   8.171  43.918  14.257
73680ION    CL-38907  22.249  27.501  14.950
73681ION    CL-38908  44.592  12.002   2.216
73682ION    CL-38909  29.422  41.899   2.814
73683ION    CL-38910  27.845  23.051   4.738
73684ION    CL-38911  41.735   0.422   3.013
73685ION    CL-38912   1.031  10.699  13.450
73686ION    CL-38913  42.720   2.227  14.810
73687ION    CL-38914   4.467   6.563   1.704
73688ION    CL-38915  16.070  33.241   9.933
73689ION    CL-38916  21.901  23.478   0.272
73690ION    CL-38917  23.968  44.446  13.424
73691ION    CL-38918  27.185   0.905  12.644
73692ION    CL-38919  10.896  12.075   1.885
73693ION    CL-38920  13.943   1.059  12.104
73694ION    CL-38921  42.750   1.832   0.728
73695ION    CL-38922  15.104  21.660   3.675
73696ION    CL-38923  42.927  30.580  10.462
73697ION    CL-38924   5.603  19.379   4.648
73698ION    CL-38925  23.560   9.270  14.286
73699ION    CL-38926  18.368   6.470   1.096
73700ION    CL-38927  14.047  24.907  12.061
73701ION    CL-38928  22.885  16.854   2.854
73702ION    CL-38929  32.759  24.959  12.859
73703ION    CL-38930   5.433  38.539  11.803
73704ION    CL-38931  41.592  11.047   3.561
73705ION    CL-38932  37.921  31.660  11.618
73706ION    CL-38933  10.331   6.725   4.840
73707ION    CL-38934  41.599  19.377  13.658
73708ION    CL-38935  34.384  16.770  13.495
73709ION    CL-38936   3.240  24.941  10.657
73710ION    CL-38937  25.010   0.798   3.400
73711ION    CL-38938  26.985   2.597  13.796
73712ION    CL-38939  42.075  39.500  10.993
73713ION    CL-38940  44.029  44.251  10.176
73714ION    CL-38941  28.134  40.727  12.466
73715ION    CL-38942  43.108  35.505   4.937
73716ION    CL-38943   5.515   2.763   3.584
73717ION    CL-38944  20.212   5.958   3.177
73718ION    CL-38945  22.270  13.957   1.229
73719ION    CL-38946  16.111   1.820  11.205
73720ION    CL-38947  11.652  33.892  13.564
73721ION    CL-38948  16.489  44.921   0.499
73722ION    CL-38949  36.528  34.678  13.357
73723ION    CL-38950  38.982   0.171   2.408
73724ION    CL-38951  27.991  24.495  14.490
73725ION    CL-38952  37.114  21.533   1.836
73726ION    CL-38953  17.447   9.223   4.403
73727ION    CL-38954  16.240   7.776  13.089
73728ION    CL-38955  43.394  12.720   2.856
73729ION    CL-38956  29.529  27.086   2.874
73730ION    CL-38957   2.751  12.300   4.995
73731ION    CL-38958  15.484  44.514  11.882
73732ION    CL-38959   8.160  15.325   1.323
73733ION    CL-38960   0.709   6.343   3.190
73734ION    CL-38961  13.544  23.561  13.941
73735ION    CL-38962  27.889  42.366   3.330
73736ION    CL-38963  21.260   3.456   2.920
73737ION    CL-38964  42.779   0.867   2.385
73738ION    CL-38965  34.676  37.064  13.266
73739ION    CL-38966   3.877   7.717  11.998
73740ION    CL-38967  10.515   4.264   1.663
73741ION    CL-38968  24.358  14.011  13.663
73742ION    CL-38969  41.699   7.455  13.943
73743ION    CL-38970  21.293   6.577  12.560
73744ION    CL-38971  42.736   9.841  11.928
73745ION    CL-38972  25.728  17.110  11.709
73746ION    CL-38973   0.256  25.449   1.950
73747ION    CL-38974  12.573  28.325   0.727
73748ION    CL-38975  36.658  13.408   4.169
73749ION    CL-38976  39.020  12.577  12.458
73750ION    CL-38977  18.486  33.748  11.046
73751ION    CL-38978  14.249  41.094  10.646
73752ION    CL-38979  26.119  36.182  13.660
73753ION    CL-38980  42.909  41.108  11.165
73754ION    CL-38981  31.035  10.995   4.221
73755ION    CL-38982  11.285  24.977   2.760
73756ION    CL-38983  17.766  29.967   2.893
73757ION    CL-38984   2.763  17.248   3.274
73758ION    CL-38985  37.138   7.796   4.253
73759ION    CL-38986  13.114   5.078  12.239
73760ION    CL-38987  26.722  33.405   1.760
73761ION    CL-38988  22.914   6.570   3.605
73762ION    CL-38989  13.323   5.463   3.771
73763ION    CL-38990  30.783  22.607   0.388
73764ION    CL-38991   2.942  23.858  10.273
73765ION    CL-38992  35.753  22.719  14.482
73766ION    CL-38993  39.880  38.823  11.606
73767ION    CL-38994  40.368   1.700   9.699
73768ION    CL-38995  26.378  36.086  11.578
73769ION    CL-38996  43.065  33.955  11.886
73770ION    CL-38997  27.997  25.644   3.737
73771ION    CL-38998  38.647   4.777   1.711
73772ION    CL-38999  16.103  36.975  10.493
73773ION    CL-39000   2.346   4.875   0.019
73774ION    CL-39001  27.944   8.733   0.225
73775ION    CL-39002  28.885  13.480  12.968
73776ION    CL-39003  30.458  33.910  14.637
73777ION    CL-39004  37.069   1.958  12.101
73778ION    CL-39005  18.050  23.652  11.991
73779ION    CL-39006  36.379   2.904  11.982
73780ION    CL-39007  16.254  20.237   0.705
73781ION    CL-39008  17.313  30.703   3.059
73782ION    CL-39009  17.196  19.155  10.715
73783ION    CL-39010  23.144  43.774  11.147
73784ION    CL-39011   5.168  39.924   2.715
73785ION    CL-39012   3.364  24.880  14.679
73786ION    CL-39013  21.490  19.162   2.888
73787ION    CL-39014  36.428  30.923   1.599
73788ION    CL-39015   1.548  26.246   0.973
73789ION    CL-39016  16.285  44.151   3.851
73790ION    CL-39017  29.938  37.522   0.597
73791ION    CL-39018   4.872  15.261  10.558
73792ION    CL-39019   8.629  41.909   3.598
73793ION    CL-39020  42.524  33.891  13.007
73794ION    CL-39021  35.175  10.567   0.714
73795ION    CL-39022   2.742  32.503   1.629
73796ION    CL-39023  35.245  23.527  14.079
73797ION    CL-39024  41.659  22.596   4.134
73798ION    CL-39025  40.047  36.876  13.850
73799ION    CL-39026  12.228   5.788   0.615
73800ION    CL-39027  16.502  37.903   1.992
73801ION    CL-39028  33.591  32.954  11.233
73802ION    CL-39029  14.721  30.837   3.525
73803ION    CL-39030  31.884  13.824  13.410
73804ION    CL-39031  19.221  19.294   1.824
73805ION    CL-39032   7.191  35.585   3.208
73806ION    CL-39033  18.539  39.485   1.801
73807ION    CL-39034  16.368   5.249  13.597
73808ION    CL-39035  32.652  18.591   3.628
73809ION    CL-39036  18.736  36.285   3.269
73810ION    CL-39037  26.488  39.236  10.136
73811ION    CL-39038   3.369  12.803  14.453
73812ION    CL-39039   8.100  30.092  12.525
73813ION    CL-39040  32.682  37.924   2.741
73814ION    CL-39041  34.361  19.789   1.691
73815ION    CL-39042   8.394  34.754  12.977
73816ION    CL-39043  11.606  32.869   1.342
73817ION    CL-39044  17.403  34.946  14.790
73818ION    CL-39045  27.680  10.136  12.123
73819ION    CL-39046  16.583  40.571  11.643
73820ION    CL-39047  32.928  27.494  12.908
73821ION    CL-39048   3.342  30.277   9.940
73822ION    CL-39049  18.853  33.965  12.422
73823ION    CL-39050  24.392  34.937  13.284
73824ION    CL-39051  44.511  19.725   1.857
73825ION    CL-39052  26.803  20.341   3.682
73826ION    CL-39053  38.081  25.493  10.675
73827ION    CL-39054  40.317  28.071  12.109
73828ION    CL-39055   4.982  12.250   4.738
73829ION    CL-39056  24.390  40.535   2.618
73830ION    CL-39057  28.713  44.417  13.969
73831ION    CL-39058   4.646  33.033  13.509
73832ION    CL-39059  34.371  15.910   2.502
73833ION    CL-39060  25.409  20.185  11.131
73834ION    CL-39061  23.180  22.565   1.797
73835ION    CL-39062  44.916   8.928   3.381
73836ION    CL-39063   6.857   1.283   4.863
73837ION    CL-39064  24.645  14.598  11.108
73838ION    CL-39065  44.506  15.018   2.065
73839ION    CL-39066  40.409  28.809   5.072
73840ION    CL-39067  33.686  24.698  11.113
73841ION    CL-39068  34.419   2.796  13.260
73842ION    CL-39069   3.323  37.986   1.626
73843ION    CL-39070  23.715  16.221   4.259
73844ION    CL-39071  19.522   4.690  14.085
73845ION    CL-39072  44.242  44.433  14.479
73846ION    CL-39073  26.251  28.576   2.230
73847ION    CL-39074  30.443  24.819   1.081
73848ION    CL-39075  12.321  17.411   3.737
73849ION    CL-39076   1.470  22.898   4.090
73850ION    CL-39077  22.596  31.999   5.006
73851ION    CL-39078  35.108  11.652  14.486
73852ION    CL-39079  25.591  14.814   0.929
73853ION    CL-39080  17.619  12.481   0.482
73854ION    CL-39081  44.908  26.357  11.061
73855ION    CL-39082  22.038   5.303   3.482
73856ION    CL-39083  34.380  20.799   0.241
73857ION    CL-39084  24.180   8.893   0.753
73858ION    CL-39085  43.103  15.269  11.646
73859ION    CL-39086  15.525  27.297  14.398
73860ION    CL-39087  25.659  24.226   3.957
73861ION    CL-39088  24.225  28.115  11.591
73862ION    CL-39089  15.601  41.559   4.926
73863ION    CL-39090  16.597  31.848  12.049
73864ION    CL-39091   9.888  19.865  10.774
73865ION    CL-39092   5.275  23.862   3.631
73866ION    CL-39093  34.053  24.554   3.854
73867ION    CL-39094  31.124  29.028   5.385
73868ION    CL-39095  22.901  26.415  12.538
73869ION    CL-39096  28.792  36.545   5.248
73870ION    CL-39097   3.144   1.865   2.559
73871ION    CL-39098   6.702  13.906   0.534
73872ION    CL-39099  20.058  33.108   0.937
73873ION    CL-39100   9.296  37.601  10.686
73874ION    CL-39101  13.542  33.947  14.052
73875ION    CL-39102   7.440  24.654  10.832
73876ION    CL-39103  28.494  33.134   4.910
73877ION    CL-39104  43.360  25.955   2.182
73878ION    CL-39105  39.426  13.395   3.813
73879ION    CL-39106  28.859   3.046   2.281
73880ION    CL-39107   0.047  23.773   4.335
73881ION    CL-39108  21.143  37.452  11.862
73882ION    CL-39109  23.749  10.566  13.152
73883ION    CL-39110  30.166   3.875   3.151
73884ION    CL-39111   9.100  42.796  10.581
73885ION    CL-39112   8.987  21.670   1.298
73886ION    CL-39113  36.115  30.244  14.477
73887ION    CL-39114  33.146  34.355   4.597
73888ION    CL-39115  19.484   6.096  13.888
73889ION    CL-39116  32.531  29.225  13.592
73890ION    CL-39117  25.173  39.811  13.292
73891ION    CL-39118  22.720  30.961   4.197
73892ION    CL-39119  22.475  24.508  13.928
73893ION    CL-39120  37.616  17.365  11.221
73894ION    CL-39121  27.355  14.288   5.161
73895ION    CL-39122  17.205  31.219  14.839
73896ION    CL-39123  32.151  10.069   4.572
73897ION    CL-39124  16.823  44.194  10.889
73898ION    CL-39125  24.222  23.569   4.874
73899ION    CL-39126   4.219  32.836   3.172
73900ION    CL-39127   0.352  25.045  10.426
73901ION    CL-39128  39.885  20.981  12.038
73902ION    CL-39129  30.974  42.482  14.288
73903ION    CL-39130  27.906  11.796   4.119
73904ION    CL-39131  10.645  27.529   2.278
73905ION    CL-39132  41.645  14.621  13.106
73906ION    CL-39133  22.849   2.847  14.346
73907ION    CL-39134   6.390  22.206   4.377
73908ION    CL-39135  41.213  18.734   0.958
73909ION    CL-39136  38.748  17.834  12.647
73910ION    CL-39137  12.037  21.415   0.541
73911ION    CL-39138   3.933  19.680   2.114
73912ION    CL-39139  11.289   3.139   0.142
73913ION    CL-39140  33.878  21.072  11.749
73914ION    CL-39141  26.732  19.833  11.869
73915ION    CL-39142   4.327  27.618  11.566
73916ION    CL-39143   8.215  34.613  11.952
73917ION    CL-39144  14.988  41.205  11.970
73918ION    CL-39145  20.230  25.662   3.232
73919ION    CL-39146  35.618  25.326   2.170
73920ION    CL-39147  11.347  16.469   2.251
73921ION    CL-39148  33.967  17.984   4.583
73922ION    CL-39149  26.129  43.705   2.968
73923ION    CL-39150  10.985  42.727   5.160
73924ION    CL-39151  13.679  38.340   0.229
73925ION    CL-39152  27.561  22.346   0.246
73926ION    CL-39153  16.677   9.785  14.251
73927ION    CL-39154   4.689  41.493  13.046
73928ION    CL-39155   0.571   3.338   9.877
73929ION    CL-39156  35.081  36.292  12.775
73930ION    CL-39157  18.040  39.788   4.358
73931ION    CL-39158  13.429  35.292   1.029
73932ION    CL-39159  43.019  17.687  13.210
73933ION    CL-39160   7.772  18.301  11.511
73934ION    CL-39161  15.679   7.006  14.534
73935ION    CL-39162  22.564  21.980  10.903
73936ION    CL-39163  35.922  31.274   4.931
73937ION    CL-39164  18.298  29.427   1.467
73938ION    CL-39165  33.428  30.740   4.108
73939ION    CL-39166  44.113  25.260  13.139
73940ION    CL-39167  13.340  30.116  13.063
73941ION    CL-39168  17.047   9.221   2.284
73942ION    CL-39169  17.306  34.438   3.136
73943ION    CL-39170  26.357  22.914   2.013
73944ION    CL-39171  36.228  16.138  13.878
73945ION    CL-39172  13.182  44.721  14.883
73946ION    CL-39173  38.877   0.959   2.865
73947ION    CL-39174  22.322  18.060   9.963
73948ION    CL-39175  22.947   1.471  14.893
73949ION    CL-39176  13.328   4.230  11.154
73950ION    CL-39177  32.263   9.455  14.363
73951ION    CL-39178  30.153  28.477  12.533
73952ION    CL-39179  40.907  21.422   3.856
73953ION    CL-39180  44.691  12.197   0.739
73954ION    CL-39181   7.903  25.789   1.428
73955ION    CL-39182   1.791   5.394   4.337
73956ION    CL-39183  16.522  35.758   4.122
73957ION    CL-39184  42.363  30.567  14.999
73958ION    CL-39185  33.887   2.368  12.517
73959ION    CL-39186  26.533  36.177  12.879
73960ION    CL-39187  22.198  12.656   1.945
73961ION    CL-39188   6.411  17.928   4.060
73962ION    CL-39189   7.178  15.207   2.937
73963ION    CL-39190   0.890   0.806   5.283
73964ION    CL-39191   6.406  14.445  10.360
73965ION    CL-39192   2.507  27.133  13.716
73966ION    CL-39193   5.357  18.282  12.452
73967ION    CL-39194  21.976  12.373  14.405
73968ION    CL-39195  34.086  13.764   3.162
73969ION    CL-39196  39.945  22.471   1.787
73970ION    CL-39197  26.443  35.470  14.298
73971ION    CL-39198  30.016  18.232   2.906
73972ION    CL-39199  42.244   5.393   4.971
73973ION    CL-39200  27.749  31.103  10.915
73974ION    CL-39201  35.661  10.165  11.936
73975ION    CL-39202  11.376   4.023   0.820
73976ION    CL-39203   2.643   5.756  14.651
73977ION    CL-39204  20.572  41.211   3.995
73978ION    CL-39205   3.540  18.040   2.943
73979ION    CL-39206  38.827  36.525   1.858
73980ION    CL-39207  30.054  16.679  14.304
73981ION    CL-39208  31.334  35.517   2.375
73982ION    CL-39209   1.071  20.424  14.117
73983ION    CL-39210  40.140  35.034   2.527
73984ION    CL-39211  19.888  15.110   1.318
73985ION    CL-39212  39.949  32.392  13.443
73986ION    CL-39213  13.647   5.914  13.888
73987ION    CL-39214  20.839  26.133   4.212
73988ION    CL-39215  44.528  15.658  10.886
73989ION    CL-39216  14.796  22.681   0.920
73990ION    CL-39217  38.538   7.677   1.674
73991ION    CL-39218   1.860  38.937  11.080
73992ION    CL-39219  44.461  18.249   1.383
73993ION    CL-39220  26.896  28.877   0.933
73994ION    CL-39221   4.797  12.559   0.190
73995ION    CL-39222   4.161  24.413  14.254
73996ION    CL-39223  29.662  35.340  12.299
73997ION    CL-39224  24.945  25.832  13.096
73998ION    CL-39225  36.435  16.701  10.206
73999ION    CL-39226   6.403  10.653  10.409
74000ION    CL-39227   4.370  37.648   4.125
74001ION    CL-39228  27.386  16.992   0.578
74002ION    CL-39229   7.673  13.658  13.941
74003ION    CL-39230  43.778   7.749  10.026
74004ION    CL-39231  35.852   1.535   2.087
74005ION    CL-39232  36.454  21.373  10.942
74006ION    CL-39233   0.401  32.645  14.245
74007ION    CL-39234  14.434  22.178  11.231
74008ION    CL-39235  36.380   2.257   0.458
74009ION    CL-39236   7.660  29.251  13.397
74010ION    CL-39237  12.236  15.037   1.074
74011ION    CL-39238  21.694   0.562   1.754
74012ION    CL-39239   9.192  39.005  10.638
74013ION    CL-39240  34.067  29.196  10.433
74014ION    CL-39241  28.200  30.108  11.101
74015ION    CL-39242  15.688   5.782  14.993
74016ION    CL-39243  34.426  35.868   0.358
74017ION    CL-39244  12.117  22.514   3.493
74018ION    CL-39245  10.279  44.498  11.459
74019ION    CL-39246  35.751   6.292  11.115
74020ION    CL-39247  34.093  26.922   4.048
74021ION    CL-39248  28.907  39.157  11.863
74022ION    CL-39249  21.480  18.035   2.120
74023ION    CL-39250  17.622  39.100  14.543
74024ION    CL-39251  29.239   7.263  12.816
74025ION    CL-39252   2.536   2.517   3.012
74026ION    CL-39253  20.387   0.618   9.800
74027ION    CL-39254  27.157   7.702  12.710
74028ION    CL-39255  12.861   7.834  11.661
74029ION    CL-39256  41.315  18.968  14.558
74030ION    CL-39257  23.023  16.088  12.567
74031ION    CL-39258  29.651  21.056   3.104
74032ION    CL-39259  23.386   2.976   1.624
74033ION    CL-39260  19.931  25.857  13.781
74034ION    CL-39261  19.427  30.380  14.848
74035ION    CL-39262  41.849  41.715   4.925
74036ION    CL-39263   1.485  41.662   3.110
74037ION    CL-39264   7.974  28.942  10.983
74038ION    CL-39265  33.660  11.664  10.783
74039ION    CL-39266  39.095  30.105   3.033
74040ION    CL-39267  26.258  13.246   2.963
74041ION    CL-39268  26.626  17.090   2.123
74042ION    CL-39269  44.073   1.432   1.212
74043ION    CL-39270  14.882   6.443   2.781
74044ION    CL-39271   1.887   8.030  12.146
74045ION    CL-39272  37.381  14.720  12.682
  45.00000  45.00000  15.00000
